/*--------------------------------*- C++ -*----------------------------------*\
| =========                 |                                                 |
| \\      /  F ield         | OpenFOAM: The Open Source CFD Toolbox           |
|  \\    /   O peration     | Version:  v2106                                 |
|   \\  /    A nd           | Website:  www.openfoam.com                      |
|    \\/     M anipulation  |                                                 |
\*---------------------------------------------------------------------------*/
FoamFile
{
    version     2.0;
    format      ascii;
    arch        "LSB;label=32;scalar=64";
    class       volVectorField;
    location    "0";
    object      U;
}
// * * * * * * * * * * * * * * * * * * * * * * * * * * * * * * * * * * * * * //

dimensions      [0 1 -1 0 0 0 0];

internalField   nonuniform List<vector> 
11644
(
(0.9931 -0.000226085 1.06562e-23)
(0.992996 -0.000601105 2.93868e-23)
(0.99293 -0.000894613 1.57667e-23)
(0.992911 -0.00119419 0)
(0.992907 -0.00151312 0)
(0.992907 -0.00184778 0)
(0.992908 -0.00219586 0)
(0.992909 -0.00255059 0)
(0.992908 -0.00290468 0)
(0.992917 -0.00323764 0)
(0.99289 -0.00354681 0)
(0.992862 -0.00380019 0)
(0.992939 -0.00395905 0)
(0.993098 -0.00403537 0)
(0.992909 -0.00397503 0)
(0.992913 -0.003818 0)
(0.993008 -0.0036097 0)
(0.992992 -0.00329573 0)
(0.992742 -0.00269276 0)
(0.992443 -0.00175283 3.36715e-30)
(0.992315 -0.000657127 -3.35371e-30)
(0.992404 0.000397858 0)
(0.992632 0.00123359 0)
(0.992829 0.00185825 0)
(0.992845 0.00232542 0)
(0.992839 0.00268098 0)
(0.992997 0.00293894 0)
(0.992847 0.00304941 0)
(0.992848 0.00305278 0)
(0.992879 0.0029554 0)
(0.992873 0.00278788 0)
(0.992886 0.00256031 0)
(0.992889 0.00229807 0)
(0.992893 0.00201193 0)
(0.992896 0.00171487 0)
(0.9929 0.00141684 0)
(0.992907 0.00112849 0)
(0.992922 0.000852953 0)
(0.992985 0.000585289 0)
(0.993095 0.000223867 2.06614e-24)
(0.993872 -0.000449392 1.36879e-23)
(0.993805 -0.00136521 1.26794e-23)
(0.993767 -0.00229465 6.80968e-24)
(0.993776 -0.00323145 0)
(0.993812 -0.00418782 0)
(0.993856 -0.00517483 0)
(0.993898 -0.00618894 0)
(0.993928 -0.00721873 0)
(0.993939 -0.00824001 0)
(0.993898 -0.00922341 0)
(0.993846 -0.0100979 0)
(0.993737 -0.0108213 0)
(0.993428 -0.0113276 0)
(0.992904 -0.0115099 0)
(0.992737 -0.0113251 0)
(0.992372 -0.0107864 -7.22525e-25)
(0.99183 -0.00970404 -4.3035e-24)
(0.991058 -0.00792628 1.06055e-23)
(0.99034 -0.0055093 7.7881e-23)
(0.990011 -0.00288779 7.93553e-22)
(0.990031 -0.000324308 -8.52421e-22)
(0.990294 0.00208915 1.091e-22)
(0.990685 0.00429476 -1.3528e-22)
(0.991092 0.0062369 8.90524e-24)
(0.991612 0.00782253 -3.70254e-24)
(0.992113 0.00891725 0)
(0.992308 0.00956993 0)
(0.992912 0.00977282 0)
(0.99322 0.00963115 0)
(0.993406 0.00922004 0)
(0.99357 0.00858294 0)
(0.993653 0.00780978 0)
(0.993707 0.00694308 0)
(0.993728 0.00602797 0)
(0.993729 0.00509528 0)
(0.993716 0.0041662 0)
(0.993702 0.0032471 0)
(0.993713 0.00232858 0)
(0.993776 0.0013941 0)
(0.993862 0.000463068 0)
(0.99539 -0.000693772 0)
(0.995363 -0.0021206 0)
(0.995379 -0.00360403 0)
(0.995448 -0.00512194 0)
(0.995556 -0.00667492 1.25036e-23)
(0.995678 -0.00827689 0)
(0.995791 -0.00992527 0)
(0.995869 -0.0116026 0)
(0.995877 -0.0132762 0)
(0.995791 -0.0148817 0)
(0.995532 -0.0163563 0)
(0.995023 -0.0175905 0)
(0.994351 -0.0184014 2.85898e-24)
(0.99363 -0.0187061 -1.03396e-22)
(0.992241 -0.0183047 2.08945e-22)
(0.990755 -0.0170591 6.53607e-22)
(0.988979 -0.0147459 -3.75343e-22)
(0.987118 -0.0113269 -1.361e-22)
(0.985821 -0.00726501 -6.32096e-23)
(0.985232 -0.00284208 -2.35101e-21)
(0.985269 0.00168744 1.94549e-21)
(0.985843 0.00606813 -3.67999e-22)
(0.986858 0.010022 9.83308e-22)
(0.988216 0.0133242 -7.47766e-22)
(0.989577 0.0157533 4.81484e-22)
(0.990912 0.0173286 -2.51659e-22)
(0.99257 0.0180724 1.28534e-22)
(0.993331 0.0181201 -3.73341e-24)
(0.994122 0.0175506 0)
(0.994749 0.0165057 0)
(0.995141 0.0151641 0)
(0.995374 0.0136246 0)
(0.995472 0.0119925 0)
(0.995491 0.0103223 0)
(0.995462 0.00865683 0)
(0.995412 0.00701703 0)
(0.995366 0.00540437 0)
(0.995348 0.00381372 0)
(0.995374 0.00224364 0)
(0.99543 0.000725883 0)
(0.997638 -0.000939374 0)
(0.997643 -0.00285012 0)
(0.997717 -0.00483671 0)
(0.997865 -0.00687222 0)
(0.998064 -0.00898163 0)
(0.998289 -0.0111651 0)
(0.998502 -0.0134254 0)
(0.998653 -0.0157476 0)
(0.998681 -0.0180912 0)
(0.998494 -0.020394 0)
(0.997991 -0.0225437 -1.94083e-24)
(0.997165 -0.0243657 -7.98302e-24)
(0.995755 -0.0257053 1.96771e-22)
(0.993455 -0.026281 -1.92537e-22)
(0.991122 -0.0256457 8.14404e-22)
(0.987888 -0.0235967 -6.35873e-22)
(0.984144 -0.0198959 -4.66191e-22)
(0.980713 -0.0148798 1.74829e-21)
(0.978301 -0.0086599 -2.45644e-21)
(0.977078 -0.00165214 4.48576e-21)
(0.977041 0.00560138 -3.66464e-21)
(0.978081 0.0124784 6.77273e-22)
(0.980217 0.0185548 -9.33425e-22)
(0.983156 0.0233305 1.80391e-21)
(0.986384 0.0266568 -3.50345e-22)
(0.989607 0.0285166 -1.09132e-21)
(0.991825 0.0291472 2.96095e-22)
(0.994527 0.0283639 -1.56774e-22)
(0.99621 0.0268832 -7.03765e-23)
(0.997278 0.0248667 2.71414e-24)
(0.997921 0.0224903 0)
(0.998247 0.0199471 0)
(0.998357 0.0173517 0)
(0.998321 0.0147879 0)
(0.998209 0.0122932 0)
(0.998068 0.00988649 0)
(0.997936 0.00756634 0)
(0.997846 0.00532153 0)
(0.997815 0.00314315 0)
(0.99784 0.00104438 0)
(1.00053 -0.00115941 0)
(1.00057 -0.00354326 0)
(1.00072 -0.00595937 0)
(1.00097 -0.00847609 0)
(1.0013 -0.011094 0)
(1.00166 -0.013839 0)
(1.00202 -0.0167142 0)
(1.00229 -0.0197114 0)
(1.00237 -0.0228006 0)
(1.00213 -0.0259277 -5.21039e-24)
(1.00147 -0.0289518 -8.32797e-23)
(1.00008 -0.0317582 -1.58652e-23)
(0.99777 -0.0339564 -1.11296e-21)
(0.994745 -0.0350374 1.86563e-21)
(0.989549 -0.0346517 1.46048e-23)
(0.983747 -0.0320668 -1.25807e-21)
(0.977822 -0.0275627 8.24478e-22)
(0.971381 -0.0206404 1.1539e-21)
(0.966582 -0.0112325 -1.40804e-21)
(0.964022 7.61686e-05 1.72223e-21)
(0.964263 0.0119685 -1.12548e-21)
(0.967191 0.0229167 -1.00872e-21)
(0.971904 0.0317175 7.34962e-22)
(0.977682 0.0377091 -9.55274e-22)
(0.983323 0.0414061 2.0259e-21)
(0.988793 0.0430693 -7.80582e-22)
(0.994227 0.0423889 -2.09325e-21)
(0.997025 0.0407195 1.0393e-21)
(0.999538 0.0378135 4.31657e-22)
(1.00124 0.034237 3.52937e-23)
(1.00217 0.0304244 -5.5159e-24)
(1.00252 0.0265833 0)
(1.00253 0.0228443 0)
(1.00233 0.0192658 0)
(1.00203 0.0158773 0)
(1.00171 0.0126752 0)
(1.00143 0.00964756 0)
(1.00121 0.00676688 0)
(1.00108 0.00398805 0)
(1.00106 0.00130036 0)
(1.00398 -0.00140082 0)
(1.00407 -0.00416811 0)
(1.00431 -0.00704665 0)
(1.0047 -0.00999228 0)
(1.00519 -0.0130769 0)
(1.00576 -0.0163437 0)
(1.00633 -0.0198192 0)
(1.00682 -0.023518 0)
(1.00708 -0.0274543 -1.48872e-23)
(1.00701 -0.0315762 5.8479e-23)
(1.00626 -0.0358464 -2.68113e-23)
(1.00448 -0.0399967 -4.21225e-22)
(1.00126 -0.0436333 9.45087e-22)
(0.995302 -0.0466333 8.08229e-22)
(0.988491 -0.0468969 1.6671e-21)
(0.97898 -0.0445094 -3.1952e-21)
(0.967684 -0.0395658 8.16453e-22)
(0.956967 -0.030275 5.22149e-23)
(0.948145 -0.0158958 -2.24864e-22)
(0.943536 0.00114229 -4.34658e-21)
(0.944011 0.0190259 3.64638e-21)
(0.94957 0.0358068 -1.84579e-21)
(0.958777 0.04955 3.16287e-21)
(0.970094 0.0577812 -6.02707e-22)
(0.980632 0.0609292 3.21977e-21)
(0.989935 0.0616222 -1.91826e-21)
(0.996272 0.0599482 -9.04033e-22)
(1.00243 0.0547303 -3.62476e-22)
(1.00558 0.0495235 -1.036e-22)
(1.00736 0.0440659 -6.12648e-22)
(1.00827 0.0385077 1.98129e-22)
(1.00846 0.0331343 9.98126e-24)
(1.00816 0.0280915 0)
(1.00762 0.0234233 0)
(1.00698 0.0191205 0)
(1.00635 0.0151515 0)
(1.0058 0.011471 0)
(1.00537 0.00802046 0)
(1.00509 0.00475501 0)
(1.00498 0.00157519 0)
(1.00793 -0.00151473 0)
(1.00807 -0.00467849 0)
(1.00844 -0.00788047 0)
(1.00901 -0.0112216 0)
(1.00974 -0.0147659 0)
(1.01059 -0.0185465 0)
(1.01149 -0.0226238 0)
(1.01234 -0.0270617 5.49251e-24)
(1.01306 -0.0319404 2.14801e-23)
(1.01334 -0.0373389 -1.39789e-22)
(1.01272 -0.0431455 -1.73298e-22)
(1.01072 -0.0492112 4.66556e-22)
(1.00673 -0.0555555 -8.61507e-23)
(1.00129 -0.0602975 -1.00292e-21)
(0.98971 -0.065074 1.91851e-21)
(0.975582 -0.0651576 -1.55099e-21)
(0.964421 -0.0546689 -5.67742e-22)
(0.948453 -0.0450437 -3.58829e-21)
(0.933368 -0.0278033 -4.63306e-21)
(0.923861 -0.00412538 2.62627e-21)
(0.922984 0.0222226 4.47202e-21)
(0.930658 0.0461849 2.94816e-21)
(0.943892 0.0646039 -1.97851e-22)
(0.959952 0.0754201 -3.49048e-21)
(0.97983 0.0884798 1.3329e-21)
(0.994324 0.0859448 -2.52157e-21)
(1.0064 0.0780432 1.07632e-21)
(1.01095 0.0709637 -3.53523e-22)
(1.01467 0.0620371 2.66561e-22)
(1.01631 0.053569 -3.68411e-22)
(1.01664 0.0459203 1.99407e-22)
(1.01622 0.0389567 1.7375e-22)
(1.01533 0.0326142 2.95878e-24)
(1.01416 0.0268924 0)
(1.01297 0.0217638 0)
(1.01186 0.0171453 0)
(1.01091 0.0129334 0)
(1.01018 0.009037 0)
(1.00969 0.00531098 0)
(1.00947 0.00177142 0)
(1.01227 -0.00174876 0)
(1.01249 -0.00514237 0)
(1.01301 -0.0086461 0)
(1.0138 -0.012314 0)
(1.01483 -0.0161983 0)
(1.01607 -0.0204075 0)
(1.01745 -0.025031 0)
(1.01892 -0.0302017 -1.77514e-23)
(1.02036 -0.0360664 7.7979e-23)
(1.02128 -0.0427299 -1.93988e-22)
(1.02131 -0.0501832 -2.6893e-22)
(1.02004 -0.0583664 -3.67318e-22)
(1.01711 -0.0669202 6.47254e-22)
(1.007 -0.0747417 -1.46058e-23)
(0.998256 -0.0790098 1.33686e-21)
(0.982464 -0.0846053 -8.44242e-22)
(0.957301 -0.0854493 -1.40019e-22)
(0.929763 -0.0755729 -1.18196e-21)
(0.900727 -0.0532403 5.21446e-22)
(0.880176 -0.0162911 1.2888e-22)
(0.876749 0.0284982 -3.79874e-21)
(0.891854 0.0694193 2.6586e-21)
(0.918822 0.0978528 -3.76098e-21)
(0.949439 0.111186 3.80291e-21)
(0.976629 0.114551 -2.25996e-21)
(0.998084 0.107278 -4.59466e-22)
(1.01167 0.0966738 2.66367e-21)
(1.02564 0.0857445 -9.52939e-22)
(1.02823 0.0734108 1.68324e-21)
(1.02855 0.0619693 -7.08755e-22)
(1.02751 0.0518565 1.95825e-22)
(1.02584 0.0432227 7.49401e-24)
(1.02391 0.035767 -3.60499e-23)
(1.02184 0.0292118 0)
(1.01982 0.0234352 0)
(1.01804 0.0183186 0)
(1.01656 0.0137207 0)
(1.01544 0.00951543 0)
(1.01469 0.00561449 0)
(1.01435 0.00180411 0)
(1.01693 -0.00170574 0)
(1.01723 -0.00537027 0)
(1.01792 -0.00911349 0)
(1.01899 -0.0130272 0)
(1.02041 -0.017213 0)
(1.02215 -0.0217852 0)
(1.02418 -0.0268652 -3.55994e-24)
(1.02654 -0.0326384 4.0395e-24)
(1.02888 -0.039312 -2.04313e-23)
(1.03086 -0.0469154 2.32114e-24)
(1.0323 -0.0556815 -1.74033e-22)
(1.03281 -0.0662623 3.40832e-22)
(1.0314 -0.0805935 -3.11126e-22)
(1.02123 -0.0925702 6.18609e-22)
(1.01142 -0.104106 -5.37069e-22)
(0.992826 -0.119911 7.64175e-22)
(0.963795 -0.125302 6.18053e-22)
(0.918494 -0.125786 -1.64092e-21)
(0.864958 -0.102256 2.30417e-21)
(0.818656 -0.0474196 6.08861e-22)
(0.805132 0.0308932 -1.82847e-22)
(0.832227 0.102193 -7.64223e-21)
(0.883328 0.145453 -4.32553e-21)
(0.937677 0.160437 -1.31234e-21)
(0.981136 0.15414 -2.7867e-21)
(1.01485 0.140933 -1.93997e-22)
(1.0303 0.121476 -3.61693e-23)
(1.04612 0.101545 -3.76073e-22)
(1.04658 0.0829593 6.83187e-22)
(1.04437 0.0679333 -2.98608e-22)
(1.04095 0.0554811 1.83384e-22)
(1.0372 0.0453134 -2.10597e-23)
(1.03361 0.0369621 -2.54533e-22)
(1.03031 0.0299083 -5.68709e-24)
(1.02724 0.0238224 0)
(1.02462 0.0185285 0)
(1.0225 0.0138512 0)
(1.0209 0.00959681 0)
(1.01985 0.00566159 0)
(1.01934 0.00191426 0)
(1.02176 -0.00195605 0)
(1.02217 -0.00557218 0)
(1.02307 -0.0093676 0)
(1.02446 -0.0133547 0)
(1.02633 -0.0176851 0)
(1.02869 -0.0224362 0)
(1.03156 -0.0277786 2.72041e-23)
(1.0349 -0.0339046 -1.03582e-22)
(1.03827 -0.0408561 3.11868e-24)
(1.04174 -0.0488317 9.51682e-23)
(1.04538 -0.0584722 9.04599e-23)
(1.04914 -0.0705956 -1.6977e-22)
(1.0526 -0.0877967 8.2051e-23)
(1.04771 -0.106305 -9.00311e-24)
(1.04151 -0.127556 -8.71703e-24)
(1.0207 -0.158285 1.81241e-22)
(0.987384 -0.184515 -8.37707e-23)
(0.925698 -0.213504 -3.32482e-22)
(0.823044 -0.213944 8.33979e-22)
(0.701348 -0.136188 -2.04661e-21)
(0.648903 0.0284381 -7.95698e-22)
(0.71901 0.184266 -6.40413e-23)
(0.84316 0.248881 -9.69289e-22)
(0.942738 0.242468 8.92737e-22)
(1.01038 0.212177 3.6177e-23)
(1.05148 0.17615 -6.99293e-22)
(1.06343 0.140619 -6.23098e-22)
(1.07508 0.110166 2.51378e-22)
(1.07011 0.0872058 -7.3189e-22)
(1.06365 0.0697273 4.59775e-22)
(1.05667 0.0557701 7.57716e-23)
(1.04995 0.044551 -8.69404e-23)
(1.044 0.0357199 -5.42656e-25)
(1.03907 0.0286351 -4.05861e-23)
(1.03479 0.0226639 0)
(1.03121 0.017551 0)
(1.02837 0.0130754 0)
(1.02627 0.00908432 0)
(1.02486 0.005283 0)
(1.0242 0.00175129 0)
(1.02664 -0.00167682 0)
(1.02715 -0.00544856 0)
(1.02829 -0.00922879 0)
(1.03004 -0.0132341 0)
(1.03243 -0.017543 0)
(1.03548 -0.0222731 0)
(1.03925 -0.0275874 1.13016e-24)
(1.0435 -0.0335866 5.88433e-25)
(1.04789 -0.0401663 -4.44264e-23)
(1.05311 -0.0476322 3.72386e-23)
(1.05968 -0.0570365 -7.59797e-23)
(1.06809 -0.0691184 5.43006e-23)
(1.07818 -0.0841712 -1.08116e-22)
(1.0828 -0.108119 4.32675e-22)
(1.08858 -0.138615 2.96227e-23)
(1.08701 -0.184669 -3.16622e-22)
(1.06882 -0.248488 -1.50117e-22)
(1.01448 -0.349841 -1.03446e-22)
(0.847052 -0.465672 -1.4045e-21)
(0.469185 -0.448802 -6.02286e-20)
(0.187016 0.0367595 7.67406e-23)
(0.507548 0.488518 -4.21074e-20)
(0.868166 0.481324 2.06527e-21)
(1.02916 0.362148 -7.84543e-23)
(1.08922 0.265098 4.10753e-23)
(1.11226 0.193337 1.78131e-22)
(1.10946 0.149406 1.56542e-22)
(1.10922 0.105232 -3.24996e-23)
(1.0974 0.0833835 4.17669e-23)
(1.08539 0.0656453 2.65383e-23)
(1.07376 0.0514342 -1.03075e-22)
(1.06335 0.0402718 6.68379e-23)
(1.05447 0.0317064 -1.54486e-23)
(1.04746 0.025126 1.04811e-23)
(1.04187 0.019794 0)
(1.03726 0.0152501 0)
(1.03368 0.0112983 0)
(1.03108 0.00777262 0)
(1.02943 0.00463475 0)
(1.0286 0.00144094 0)
(1.03138 -0.00178049 0)
(1.03204 -0.00521306 0)
(1.03341 -0.00876353 0)
(1.03555 -0.0125626 0)
(1.03847 -0.0166383 0)
(1.0422 -0.0211161 0)
(1.04675 -0.0260479 1.52605e-23)
(1.05158 -0.0313351 3.63585e-23)
(1.05681 -0.0368245 5.79992e-23)
(1.06369 -0.0428594 6.61467e-23)
(1.07293 -0.0500523 1.48677e-22)
(1.08569 -0.0589874 2.50948e-22)
(1.10368 -0.0703589 -5.73811e-22)
(1.11582 -0.0926125 -1.96719e-22)
(1.14314 -0.119205 -9.20129e-23)
(1.16937 -0.16828 -4.33902e-22)
(1.20516 -0.244933 -1.35223e-22)
(1.2587 -0.391373 1.58788e-21)
(0.965819 -0.524309 -1.02252e-19)
(1.05421 0.549857 4.63693e-20)
(1.24867 0.394189 -5.13185e-23)
(1.20978 0.256191 -6.45906e-23)
(1.18623 0.173867 -7.67136e-23)
(1.162 0.134334 -5.33703e-23)
(1.14517 0.0876471 9.773e-23)
(1.12512 0.0693184 -6.71138e-23)
(1.10683 0.0538571 -4.98874e-23)
(1.09031 0.0416111 -9.74239e-24)
(1.07611 0.032112 8.0348e-24)
(1.06423 0.0248865 1.856e-23)
(1.05491 0.0194918 2.28063e-23)
(1.048 0.0153568 0)
(1.04258 0.0119128 0)
(1.03841 0.00892899 0)
(1.03532 0.00621198 0)
(1.03326 0.00366414 0)
(1.03228 0.00132371 0)
(1.03585 -0.00170497 0)
(1.03667 -0.0047792 0)
(1.03832 -0.0080386 0)
(1.04079 -0.0113658 0)
(1.04416 -0.0149806 0)
(1.04847 -0.0189494 0)
(1.05348 -0.0231867 -5.52792e-24)
(1.05841 -0.0272975 -9.30504e-24)
(1.06397 -0.0311565 -2.00427e-24)
(1.07177 -0.0350246 6.34682e-23)
(1.0825 -0.0389612 -8.54567e-23)
(1.09731 -0.0428309 1.56711e-22)
(1.11878 -0.0464003 3.11405e-22)
(1.14012 -0.0604481 3.48471e-22)
(1.18103 -0.0706191 5.08418e-21)
(1.23016 -0.0977808 -3.98309e-22)
(1.309 -0.13516 -1.68317e-22)
(1.43581 -0.178075 2.62993e-21)
(0.0220059 -0.00653376 5.89589e-19)
(0.0321304 -0.0136145 -1.27165e-19)
(1.39401 0.23732 -2.28131e-22)
(1.30436 0.177543 2.64647e-23)
(1.24857 0.121755 1.08077e-21)
(1.2078 0.0936493 1.50303e-21)
(1.1745 0.0561861 2.31218e-22)
(1.14754 0.0446289 -8.92802e-23)
(1.12426 0.0345251 -5.22985e-23)
(1.10394 0.0265996 3.38185e-23)
(1.08659 0.0203391 -3.23009e-24)
(1.07201 0.0155032 3.92871e-25)
(1.06053 0.0120102 -6.04259e-26)
(1.05235 0.00953271 0)
(1.04623 0.00749959 0)
(1.04159 0.00567132 0)
(1.03824 0.00399328 0)
(1.036 0.00235415 0)
(1.03487 0.000736866 0)
(1.03994 -0.00101698 -5.94155e-25)
(1.04079 -0.00383512 0)
(1.04261 -0.00658515 0)
(1.04541 -0.00949813 0)
(1.04922 -0.0126037 0)
(1.05399 -0.0159405 0)
(1.059 -0.0192468 -9.12003e-25)
(1.06351 -0.0220566 -3.43762e-23)
(1.06885 -0.0242784 1.43191e-22)
(1.0766 -0.0259972 -5.01787e-22)
(1.08741 -0.0268641 3.26692e-22)
(1.10188 -0.0260396 7.27808e-22)
(1.12192 -0.0209543 -7.05236e-22)
(1.14512 -0.0226257 1.68765e-22)
(1.18379 -0.013669 1.42998e-22)
(1.23777 -0.00885057 -3.9516e-22)
(1.31865 0.000467042 6.29306e-22)
(1.36913 0.0307094 -3.27348e-22)
(0.218276 0.0125804 -3.00692e-21)
(0.0642516 0.0358135 1.00733e-20)
(1.35932 0.0966984 2.89296e-22)
(1.34378 0.0848116 -7.23133e-22)
(1.28288 0.0535926 3.95185e-22)
(1.23584 0.0392288 3.40151e-22)
(1.19088 0.0150125 -2.08095e-22)
(1.16032 0.0126543 -3.49304e-22)
(1.13431 0.00987245 4.10156e-22)
(1.11207 0.00777002 -1.44859e-22)
(1.09304 0.00590621 9.05084e-23)
(1.07685 0.00439886 1.26881e-23)
(1.06381 0.00340137 1.00484e-23)
(1.05469 0.00291746 0)
(1.04827 0.00252571 0)
(1.04346 0.0020416 0)
(1.04004 0.00151882 0)
(1.03789 0.000938382 0)
(1.03683 0.000328216 0)
(1.04335 -0.00111878 3.25281e-26)
(1.04441 -0.0030495 0)
(1.04646 -0.00515318 0)
(1.0495 -0.00742283 0)
(1.05355 -0.00977829 0)
(1.05851 -0.0122811 0)
(1.06309 -0.0145888 9.93996e-25)
(1.06694 -0.0163615 9.65201e-24)
(1.07174 -0.0174874 -2.9553e-23)
(1.07866 -0.017854 1.8451e-22)
(1.0876 -0.0169146 -1.5457e-24)
(1.09792 -0.013552 -1.64624e-23)
(1.11004 -0.00609734 2.05939e-22)
(1.12739 0.00571919 -1.94894e-21)
(1.15137 0.0275935 7.1681e-23)
(1.18933 0.0644824 -2.16451e-21)
(1.25229 0.120294 -4.06761e-22)
(1.27522 0.217706 1.6652e-21)
(0.475618 0.186657 -1.25225e-21)
(-0.131909 0.16374 -2.73042e-21)
(-0.214186 0.331295 1.22039e-22)
(0.0410297 0.394224 -2.63971e-22)
(0.288158 0.143894 1.2318e-21)
(1.33658 0.0226665 -5.73771e-22)
(1.36396 -0.00311099 3.20127e-21)
(1.29501 -0.0217402 -2.29529e-21)
(1.24291 -0.0213211 4.96542e-22)
(1.19178 -0.0300308 5.69766e-22)
(1.16072 -0.022439 -3.83655e-22)
(1.13479 -0.0171865 1.2512e-22)
(1.1127 -0.0126831 1.28467e-22)
(1.09375 -0.00956453 4.3195e-23)
(1.07751 -0.00733997 2.92277e-23)
(1.06404 -0.00544802 1.10345e-24)
(1.05464 -0.00369348 0)
(1.04837 -0.00239832 0)
(1.04376 -0.00156244 0)
(1.04048 -0.00101407 0)
(1.03837 -0.000640375 0)
(1.03723 -0.000299026 0)
(1.04651 -0.000916559 -1.31069e-23)
(1.04748 -0.00222324 0)
(1.04955 -0.00360324 0)
(1.05264 -0.00501505 0)
(1.05676 -0.00648017 0)
(1.06169 -0.00806558 0)
(1.06595 -0.00956645 -7.50423e-25)
(1.06919 -0.0107015 -6.21767e-23)
(1.07347 -0.0116129 -3.4484e-23)
(1.07892 -0.0121403 1.90783e-22)
(1.08509 -0.0121214 -1.54278e-22)
(1.09102 -0.0112694 1.60329e-22)
(1.0956 -0.00850344 -9.24258e-23)
(1.10195 0.0057935 -1.77664e-21)
(1.09932 0.029419 -5.15154e-22)
(1.08785 0.0847225 1.89791e-21)
(1.09312 0.173186 -7.37564e-21)
(0.999406 0.354958 -8.40546e-21)
(0.399171 0.581479 -4.04084e-22)
(-0.297318 0.708344 -1.75422e-20)
(-0.214305 0.637874 5.40288e-22)
(0.371252 0.400102 -1.40126e-21)
(0.784474 0.0908359 -1.46422e-21)
(1.42659 -0.107018 -9.06439e-22)
(1.36925 -0.112765 4.90195e-21)
(1.28345 -0.107335 3.06387e-21)
(1.22887 -0.0836922 -3.15612e-21)
(1.1749 -0.0737094 1.03312e-21)
(1.14704 -0.0555672 -1.50519e-21)
(1.12416 -0.0422723 1.3508e-23)
(1.10473 -0.0315626 -1.86573e-22)
(1.08787 -0.0236029 7.65646e-23)
(1.07306 -0.0176403 9.03187e-24)
(1.06049 -0.0130268 2.99877e-25)
(1.05192 -0.00934135 0)
(1.0464 -0.00657995 0)
(1.04235 -0.00452682 0)
(1.03942 -0.00294055 0)
(1.03752 -0.00162061 0)
(1.03658 -0.000491797 2.1802e-23)
(1.04815 -4.41842e-05 1.03386e-22)
(1.0492 -0.000760528 0)
(1.05114 -0.0014137 0)
(1.05422 -0.00206553 0)
(1.05847 -0.0027054 0)
(1.06351 -0.0034035 0)
(1.06783 -0.00426366 0)
(1.07083 -0.0052747 -2.37653e-24)
(1.07506 -0.00666945 -7.16387e-23)
(1.08065 -0.0090202 8.18221e-23)
(1.08628 -0.0122505 -7.89577e-23)
(1.09066 -0.0163161 4.10081e-22)
(1.0909 -0.0213632 -4.02573e-22)
(1.07867 -0.0299492 -1.09664e-22)
(1.05938 -0.00847551 -3.97235e-23)
(1.01043 0.00948179 1.20761e-21)
(0.935204 0.077755 8.03729e-22)
(0.673041 0.231506 2.71593e-20)
(0.090468 0.502745 4.61616e-21)
(-0.218418 0.495897 8.40972e-21)
(0.144077 0.227281 2.0853e-21)
(0.736704 -0.0313415 2.49308e-20)
(1.1824 -0.261748 3.23052e-21)
(1.41734 -0.318208 -1.5529e-20)
(1.3001 -0.248108 -2.06569e-21)
(1.23647 -0.190889 -2.64806e-21)
(1.16861 -0.145248 -9.46142e-22)
(1.14015 -0.108512 1.14461e-21)
(1.12002 -0.0811438 -7.03681e-22)
(1.10335 -0.0609234 1.65493e-22)
(1.08902 -0.0450045 -1.54511e-22)
(1.07608 -0.033298 1.0216e-22)
(1.06421 -0.0244829 -6.6805e-24)
(1.05379 -0.0179547 0)
(1.0469 -0.0130528 0)
(1.04266 -0.00936938 0)
(1.03955 -0.00650377 0)
(1.03729 -0.00421808 0)
(1.03579 -0.00228186 0)
(1.03514 -0.00066299 1.92125e-24)
(1.04788 0.000237456 -4.11353e-24)
(1.04919 0.000635021 0)
(1.05136 0.00101866 0)
(1.05454 0.00124793 0)
(1.05885 0.00145186 0)
(1.06403 0.0016396 0)
(1.06883 0.00146322 0)
(1.07261 0.000421092 0)
(1.07777 -0.00179771 3.59201e-24)
(1.08463 -0.00557238 5.28463e-24)
(1.09234 -0.011487 1.90708e-23)
(1.09983 -0.0207663 -3.35086e-23)
(1.10426 -0.0336101 1.48091e-22)
(1.10024 -0.0594579 2.76374e-22)
(1.06771 -0.0707302 -5.58664e-22)
(1.01143 -0.107972 1.29466e-21)
(0.863341 -0.112815 1.73547e-21)
(0.367785 0.022728 1.621e-21)
(0.0567515 0.0206594 2.54367e-21)
(0.137314 -0.225676 -3.53319e-21)
(0.522894 -0.504319 7.08318e-21)
(0.947683 -0.648149 -2.60276e-21)
(1.23871 -0.610693 -2.32098e-21)
(1.25501 -0.455079 -3.77588e-21)
(1.1843 -0.328319 3.29268e-23)
(1.15201 -0.247247 -2.96485e-21)
(1.10211 -0.172584 2.96329e-22)
(1.09191 -0.126302 -4.63808e-22)
(1.08306 -0.0943237 -3.01457e-23)
(1.0753 -0.0699268 -6.3265e-24)
(1.06802 -0.0509838 -3.40324e-23)
(1.06058 -0.0371378 -9.43345e-24)
(1.05275 -0.0268701 0)
(1.04542 -0.0194439 0)
(1.04071 -0.0141714 0)
(1.03795 -0.0102685 0)
(1.03591 -0.00717589 1.97376e-23)
(1.03441 -0.00472388 2.72958e-23)
(1.03345 -0.00263632 1.62767e-23)
(1.03306 -0.000867029 0)
(1.04685 0.000507436 0)
(1.04809 0.00178493 0)
(1.05031 0.00315699 0)
(1.05352 0.00445244 0)
(1.05785 0.00570134 0)
(1.06321 0.00694493 0)
(1.06887 0.00781768 0)
(1.07433 0.00740484 0)
(1.08146 0.00535793 -8.27505e-26)
(1.09102 0.00155607 6.67678e-24)
(1.10298 -0.00460203 -2.76198e-23)
(1.11783 -0.0154336 -1.27626e-22)
(1.13388 -0.0317733 1.91764e-22)
(1.14846 -0.0583281 -7.45176e-22)
(1.13221 -0.103565 1.12751e-21)
(1.11418 -0.18121 -5.55584e-22)
(0.849156 -0.248566 -2.30413e-21)
(0.378648 -0.303747 1.92292e-24)
(0.357948 -0.496527 1.70506e-21)
(0.489356 -0.700825 -2.02979e-21)
(0.702944 -0.807364 2.27675e-21)
(0.885975 -0.776099 9.02052e-21)
(0.983955 -0.63572 -2.60599e-21)
(1.04352 -0.473887 8.69183e-22)
(1.0476 -0.341648 -1.83377e-22)
(1.04588 -0.252323 1.72051e-21)
(1.03067 -0.169407 -2.53889e-22)
(1.03769 -0.12317 4.43178e-22)
(1.04151 -0.0919277 -2.19629e-22)
(1.04388 -0.0673523 -1.99851e-23)
(1.04439 -0.0486763 1.45205e-24)
(1.04299 -0.0349013 4.18787e-26)
(1.03997 -0.0246393 0)
(1.03655 -0.0174539 0)
(1.03436 -0.0127343 0)
(1.03313 -0.00931978 0)
(1.03214 -0.00659658 0)
(1.03134 -0.00443833 0)
(1.03082 -0.00259055 0)
(1.03061 -0.000833702 -2.93146e-24)
(1.04487 0.000909061 0)
(1.04593 0.00291753 0)
(1.04796 0.00506522 0)
(1.05104 0.00734605 0)
(1.05526 0.00974952 0)
(1.06076 0.0123223 0)
(1.06737 0.0148511 0)
(1.0749 0.0163701 0)
(1.08449 0.0164127 0)
(1.097 0.0150919 0)
(1.11345 0.0124462 4.29181e-24)
(1.13528 0.00666227 6.07305e-23)
(1.16424 -0.0039188 -1.4681e-22)
(1.20021 -0.0162161 2.86725e-22)
(1.22282 -0.0675416 6.01322e-21)
(1.25399 -0.139416 1.68902e-22)
(0.993213 -0.263667 1.72057e-21)
(0.653087 -0.488185 -1.28763e-21)
(0.563624 -0.663217 -2.37803e-22)
(0.587128 -0.730902 -1.54337e-20)
(0.658874 -0.705982 -1.02781e-21)
(0.744348 -0.616576 7.85476e-22)
(0.825619 -0.516423 -1.99902e-21)
(0.889526 -0.426625 -1.61942e-21)
(0.900646 -0.300122 2.03457e-21)
(0.945648 -0.213344 -2.00813e-22)
(0.963446 -0.135922 -4.00749e-23)
(0.986394 -0.0971742 9.60691e-24)
(1.0034 -0.0717403 -1.12742e-23)
(1.01493 -0.0518707 -8.07137e-25)
(1.02231 -0.037005 0)
(1.02633 -0.0258781 0)
(1.02806 -0.0176373 0)
(1.02865 -0.0122213 0)
(1.02901 -0.0089706 0)
(1.02911 -0.00666079 0)
(1.02891 -0.00481479 0)
(1.0286 -0.00329469 0)
(1.02834 -0.00195852 0)
(1.02827 -0.000647321 0)
(1.04175 0.00130105 0)
(1.04259 0.00397188 0)
(1.04434 0.00680946 0)
(1.04708 0.0099167 0)
(1.05093 0.0134157 0)
(1.05614 0.0174191 0)
(1.06307 0.0219428 0)
(1.07188 0.0263425 0)
(1.08303 0.0302181 0)
(1.09709 0.0338009 0)
(1.11548 0.0379105 0)
(1.14017 0.0422839 4.48045e-25)
(1.17403 0.0457855 1.87133e-23)
(1.22144 0.0552873 1.9641e-24)
(1.27668 0.0285864 2.04734e-21)
(1.35743 0.00663522 -3.27885e-22)
(1.24213 -0.0936401 2.24508e-21)
(0.96915 -0.29729 -3.79657e-21)
(0.765365 -0.518099 -2.35741e-21)
(0.647161 -0.659621 -6.85593e-21)
(0.589418 -0.692343 -3.41604e-21)
(0.594241 -0.621666 1.42805e-22)
(0.658078 -0.486323 -1.86584e-21)
(0.732682 -0.332555 2.57785e-22)
(0.783536 -0.195431 6.6873e-22)
(0.868224 -0.137843 -1.28525e-22)
(0.913199 -0.0708572 -3.14782e-22)
(0.94917 -0.0489751 3.29078e-23)
(0.976792 -0.0347055 1.72581e-25)
(0.995128 -0.0245579 0)
(1.00732 -0.0169261 0)
(1.01519 -0.0112152 0)
(1.02035 -0.00712332 0)
(1.02388 -0.00479366 0)
(1.02602 -0.0036637 0)
(1.02686 -0.00287088 0)
(1.02701 -0.00217488 0)
(1.0269 -0.00151025 0)
(1.02674 -0.000893305 0)
(1.02666 -0.000294124 0)
(1.03764 0.00149368 0)
(1.03831 0.00465096 0)
(1.03967 0.00804728 0)
(1.04183 0.0118608 0)
(1.0449 0.016301 0)
(1.04917 0.0215501 0)
(1.05535 0.0277933 0)
(1.06391 0.0348453 0)
(1.07469 0.0426968 0)
(1.08771 0.0517614 0)
(1.10402 0.0633754 2.207e-23)
(1.12557 0.0785796 0)
(1.15361 0.097964 0)
(1.19422 0.126472 4.33685e-22)
(1.25995 0.171126 -1.81586e-21)
(1.34799 0.189329 3.88403e-21)
(1.36136 0.213182 -3.26336e-22)
(1.22852 0.154309 1.15628e-21)
(1.02018 0.0432806 7.06025e-22)
(0.808923 -0.0672059 4.20917e-20)
(0.603763 -0.144797 -4.89373e-22)
(0.4911 -0.179581 2.53917e-21)
(0.478468 -0.169519 7.48071e-22)
(0.552026 -0.124276 4.65858e-22)
(0.695659 -0.06593 -4.84026e-23)
(0.830322 0.00149601 1.05976e-20)
(0.891615 0.0148592 -3.59933e-22)
(0.936691 0.0137087 0)
(0.96933 0.0120869 0)
(0.989994 0.00873051 1.83739e-23)
(1.00342 0.00662444 0)
(1.01241 0.00525389 0)
(1.01877 0.00417054 0)
(1.02337 0.00297523 0)
(1.02595 0.0018115 0)
(1.02675 0.000978071 0)
(1.0268 0.000467937 0)
(1.02661 0.000191796 -3.24845e-24)
(1.02642 5.66277e-05 -2.33048e-24)
(1.0263 1.46929e-05 0)
(1.03316 0.00153394 0)
(1.03351 0.00494253 0)
(1.03431 0.00864913 0)
(1.03564 0.0128933 0)
(1.03757 0.0178697 0)
(1.0404 0.0238182 0)
(1.04501 0.0310268 0)
(1.0519 0.0396239 0)
(1.06035 0.0500947 0)
(1.06974 0.0631098 0)
(1.08057 0.0802269 -1.41979e-22)
(1.09393 0.1029 0)
(1.11027 0.133329 0)
(1.13308 0.173396 2.59036e-22)
(1.16222 0.233172 8.94152e-22)
(1.20622 0.327134 -3.11561e-23)
(1.22674 0.44906 0)
(1.16502 0.548797 -4.49438e-22)
(1.0383 0.595729 8.89956e-21)
(0.882503 0.592851 2.66986e-20)
(0.732003 0.533917 -1.91499e-21)
(0.643972 0.441159 5.18364e-21)
(0.625264 0.321926 -5.79169e-22)
(0.645124 0.207235 0)
(0.706332 0.131279 -3.40544e-21)
(0.804357 0.133521 -1.00067e-20)
(0.896272 0.106743 -5.0991e-21)
(0.954864 0.0805854 0)
(0.98581 0.0580858 0)
(1.00193 0.0394924 8.46763e-23)
(1.01182 0.0274601 0)
(1.01831 0.019296 0)
(1.02314 0.0134911 0)
(1.02684 0.00922351 0)
(1.02858 0.00607273 0)
(1.02855 0.00385242 5.8769e-24)
(1.02797 0.00232702 -7.63694e-24)
(1.0274 0.00129971 0)
(1.02697 0.00060186 0)
(1.02669 0.000128499 -1.79466e-23)
(1.02862 0.00164785 0)
(1.02852 0.00497142 0)
(1.02867 0.00860696 0)
(1.02912 0.0127277 0)
(1.02985 0.0175447 0)
(1.03107 0.0233424 0)
(1.03367 0.0305247 -2.88972e-24)
(1.03803 0.0394286 0)
(1.04282 0.0507771 0)
(1.047 0.0653977 0)
(1.05068 0.0846705 0)
(1.05386 0.110015 0)
(1.05671 0.143666 0)
(1.06064 0.187351 -6.57136e-23)
(1.05946 0.242259 -1.8069e-23)
(1.0575 0.315508 -8.88323e-23)
(1.05777 0.413644 0)
(1.02983 0.509784 0)
(0.963007 0.580269 2.90667e-21)
(0.877101 0.613829 3.32991e-20)
(0.795905 0.6046 1.14801e-20)
(0.768482 0.556685 9.90745e-23)
(0.773943 0.489043 0)
(0.793163 0.403403 0)
(0.792729 0.305871 0)
(0.852086 0.246986 1.12764e-22)
(0.947494 0.182433 7.03659e-21)
(1.00913 0.129043 1.32138e-22)
(1.02643 0.0890182 0)
(1.0299 0.0592593 0)
(1.03096 0.0403977 0)
(1.03132 0.027464 0)
(1.03216 0.0185193 2.57897e-23)
(1.03328 0.0122885 1.05686e-23)
(1.03312 0.00797621 5.32435e-25)
(1.03168 0.00504907 0)
(1.0301 0.00306141 0)
(1.02883 0.00172157 0)
(1.02791 0.000820908 0)
(1.02727 0.00020117 0)
(1.02409 0.00160637 0)
(1.02382 0.00448506 0)
(1.02356 0.00756834 0)
(1.02332 0.0109533 0)
(1.02296 0.0149158 0)
(1.02261 0.019716 0)
(1.02301 0.0258632 0)
(1.02436 0.0339455 0)
(1.02501 0.0446207 -2.65002e-24)
(1.02371 0.0586364 0)
(1.02022 0.0769696 0)
(1.01394 0.101192 0)
(1.00419 0.132149 -5.78009e-22)
(0.995034 0.173054 -9.0363e-22)
(0.983928 0.221961 0)
(0.95995 0.277591 0)
(0.93861 0.34684 0)
(0.91122 0.427259 0)
(0.868179 0.500576 -5.14798e-22)
(0.826621 0.560828 -7.067e-21)
(0.799042 0.577066 2.06477e-20)
(0.807034 0.558866 -8.10544e-21)
(0.830115 0.524398 0)
(0.879303 0.468699 0)
(0.905812 0.383811 0)
(0.966243 0.289767 0)
(1.05066 0.196778 1.48267e-21)
(1.08756 0.133877 -1.95956e-24)
(1.08034 0.0909796 0)
(1.06659 0.0605589 -7.39087e-25)
(1.05566 0.0409081 1.83333e-25)
(1.04802 0.0271016 2.69946e-24)
(1.04356 0.0175916 0)
(1.04104 0.0111238 0)
(1.03828 0.00693006 0)
(1.0351 0.00424499 0)
(1.03236 0.00251069 0)
(1.03033 0.00141282 0)
(1.02891 0.000725239 0)
(1.028 0.000237368 0)
(1.02037 0.000998753 0)
(1.02016 0.00309345 0)
(1.01975 0.00518281 0)
(1.01904 0.00743847 0)
(1.01784 0.0100583 0)
(1.01612 0.0132211 0)
(1.01433 0.0174188 0)
(1.01252 0.0234495 0)
(1.00918 0.0318706 0)
(1.00292 0.0431844 0)
(0.992898 0.0580755 2.37705e-23)
(0.978421 0.0781662 -7.88494e-23)
(0.958817 0.104471 1.36923e-21)
(0.936551 0.139113 4.62181e-22)
(0.912945 0.189311 0)
(0.878203 0.250227 0)
(0.842816 0.318211 0)
(0.808686 0.393665 0)
(0.780416 0.459429 1.51973e-20)
(0.775467 0.522711 -2.23935e-20)
(0.793969 0.530973 1.19981e-21)
(0.834174 0.520658 8.68612e-22)
(0.886951 0.471871 0)
(0.965639 0.409809 0)
(1.03159 0.320639 0)
(1.10806 0.225348 0)
(1.16169 0.13849 -6.15552e-22)
(1.16024 0.0909157 1.3978e-21)