/*--------------------------------*- C++ -*----------------------------------*\
| =========                 |                                                 |
| \\      /  F ield         | OpenFOAM: The Open Source CFD Toolbox           |
|  \\    /   O peration     | Version:  v2106                                 |
|   \\  /    A nd           | Website:  www.openfoam.com                      |
|    \\/     M anipulation  |                                                 |
\*---------------------------------------------------------------------------*/
FoamFile
{
    version     2.0;
    format      ascii;
    arch        "LSB;label=32;scalar=64";
    class       volScalarField;
    location    "0";
    object      p;
}
// * * * * * * * * * * * * * * * * * * * * * * * * * * * * * * * * * * * * * //

dimensions      [0 2 -2 0 0 0 0];

internalField   nonuniform List<scalar> 
11644
(
-0.00681608
-0.00658553
-0.00611987
-0.00543162
-0.00445572
-0.00329541
-0.00216631
-0.0008136
0.000787819
0.00200597
0.00269238
0.0029368
0.00256779
0.00108857
-0.00209794
-0.0059
-0.0104339
-0.0102632
-0.0085476
-0.0215098
-0.021469
-0.0150153
-0.0149565
-0.0173025
-0.0153138
-0.0131635
-0.0113075
-0.0102443
-0.00913067
-0.00825949
-0.00774698
-0.0075832
-0.0078623
-0.00816578
-0.00817944
-0.00820012
-0.0082375
-0.00824522
-0.00829851
-0.00836356
-0.00772165
-0.00748766
-0.00700547
-0.00627963
-0.00535087
-0.004225
-0.00277909
-0.00131196
3.14041e-06
0.00139707
0.00256826
0.00307737
0.00273918
0.00173886
7.79262e-05
-0.00214267
-0.00446552
-0.0102182
-0.0159191
-0.0180367
-0.0215871
-0.0221364
-0.0136227
-0.0124237
-0.0123133
-0.0120283
-0.0110462
-0.00995914
-0.00944595
-0.00916247
-0.00903146
-0.00901653
-0.00881195
-0.0086171
-0.00865056
-0.00869111
-0.00872326
-0.00881275
-0.00887216
-0.00886694
-0.00811117
-0.00799409
-0.0076552
-0.00704286
-0.00621895
-0.00514567
-0.00386843
-0.00247361
-0.00112379
0.000192545
0.00140035
0.00224114
0.00257909
0.00228446
0.00156886
-0.000957643
-0.00437901
-0.00996108
-0.0130259
-0.0236828
-0.0279712
-0.0203985
-0.0169136
-0.0150923
-0.0141496
-0.0134283
-0.0133038
-0.0126991
-0.0121489
-0.0117383
-0.0111789
-0.0105421
-0.0099714
-0.00955001
-0.0093188
-0.00913586
-0.0089982
-0.00887137
-0.00871857
-0.00853867
-0.0082807
-0.00825366
-0.00799055
-0.00755217
-0.00689948
-0.00607908
-0.00510412
-0.00400659
-0.00277679
-0.0014494
-6.51843e-05
0.00135894
0.00241145
0.00374725
0.00368547
0.00121576
-0.00304523
-0.00814998
-0.0125119
-0.0178196
-0.0161462
-0.0250373
-0.0214589
-0.0191862
-0.0186201
-0.0182177
-0.0172895
-0.0166918
-0.0156584
-0.0144872
-0.0134642
-0.0124801
-0.0115599
-0.0107753
-0.0100634
-0.00944606
-0.00892656
-0.00844509
-0.00806752
-0.00789371
-0.00843742
-0.00825428
-0.00806431
-0.00781878
-0.00748314
-0.00698759
-0.00628833
-0.00537337
-0.004215
-0.00274997
-0.000697572
0.00151898
0.00354354
0.00353912
0.00321459
0.0019489
-0.00267374
-0.00630591
-0.0135166
-0.0152662
-0.0232012
-0.016913
-0.020109
-0.0215932
-0.0216964
-0.0217177
-0.0215942
-0.0204917
-0.0192054
-0.0175074
-0.0157406
-0.0142694
-0.0128496
-0.011464
-0.0102076
-0.00911804
-0.00820709
-0.00758533
-0.00712383
-0.00685821
-0.00876438
-0.00856909
-0.00822682
-0.00775382
-0.00735272
-0.00690945
-0.00635103
-0.00554404
-0.00425729
-0.00241464
-0.000478095
0.00128554
0.00210546
0.00411543
0.00510066
0.00433983
0.00146141
-0.000880803
-0.00726188
-0.0116498
-0.0195902
-0.0219987
-0.0214514
-0.0239047
-0.024919
-0.0235661
-0.0232932
-0.023365
-0.0219141
-0.0202567
-0.0179003
-0.0153626
-0.0130971
-0.0111044
-0.00934539
-0.00783471
-0.00654444
-0.00555367
-0.00500854
-0.00472519
-0.00832505
-0.00834093
-0.00800779
-0.00767864
-0.00705912
-0.0063153
-0.00539293
-0.00420045
-0.00268354
-0.00113104
0.000202674
0.00129077
0.00355385
0.00210093
0.00209016
0.00528169
0.00669668
-0.00576805
-0.0106643
-0.015461
-0.0418682
-0.0283277
-0.0314966
-0.0329812
-0.0294283
-0.0320597
-0.0304903
-0.0260316
-0.0232268
-0.0209576
-0.0181697
-0.0148838
-0.0116325
-0.00901883
-0.00685731
-0.00509397
-0.0038202
-0.00288988
-0.00237119
-0.00230214
-0.00850972
-0.0078159
-0.00732006
-0.00663274
-0.00583329
-0.00480603
-0.00349567
-0.00190109
-7.70872e-05
0.00161535
0.00377037
0.00607586
0.00653861
0.00943227
0.010521
0.00647707
0.00211683
-0.000317391
-0.016181
-0.0282679
-0.0419691
-0.0458804
-0.0430218
-0.0394881
-0.0499877
-0.0425144
-0.0309343
-0.0257876
-0.0203511
-0.0170259
-0.0137232
-0.010694
-0.00749728
-0.00469455
-0.00262549
-0.00105904
5.17569e-05
0.000692102
0.00122261
0.0017377
-0.00792601
-0.00779778
-0.00720815
-0.00598655
-0.00466533
-0.00303675
-0.00123862
0.00106173
0.00385131
0.00723628
0.0118798
0.0174995
0.0217206
0.0200903
0.020882
0.0187719
0.00585324
-0.0257673
-0.0225382
-0.0417437
-0.0405896
-0.0603789
-0.0602283
-0.0577537
-0.0464618
-0.0293844
-0.0228968
-0.0187066
-0.0133898
-0.00910103
-0.00546933
-0.0028641
-0.00052621
0.00173136
0.00330431
0.0045276
0.00562873
0.00648924
0.00681323
0.00677597
-0.00690543
-0.00664988
-0.00590884
-0.0052268
-0.00401015
-0.00225312
4.24308e-05
0.00346204
0.00800607
0.0138334
0.0214038
0.0319872
0.0473009
0.0273839
0.0333807
0.0387325
0.0344841
0.0187893
-0.0155335
-0.0571692
-0.0901849
-0.0841468
-0.062993
-0.0408431
-0.0249972
-0.0175013
-0.0139962
0.00729153
0.00407572
0.00405277
0.00556915
0.00744282
0.00896369
0.0103576
0.0112662
0.0117941
0.0120859
0.0123017
0.0126853
0.012621
-0.00860168
-0.00745867
-0.00611855
-0.00481985
-0.00317092
-0.00129572
0.0013586
0.00507949
0.0101213
0.0172327
0.0250882
0.0346174
0.0411577
0.0453126
0.0612237
0.0686934
0.0741231
0.0801859
0.0500198
-0.0465994
-0.148432
-0.1032
-0.0283128
0.00370638
0.0103301
0.0120046
0.0127709
0.014488
0.0163039
0.016663
0.0176033
0.0186368
0.0192041
0.0197829
0.0198639
0.0195888
0.0193022
0.0191439
0.0189464
0.0198941
-0.00943666
-0.0087857
-0.00860591
-0.00733956
-0.00577305
-0.00362417
-0.000755802
0.00284773
0.00709813
0.0135547
0.0220894
0.034633
0.0456362
0.0631492
0.0860486
0.106367
0.140803
0.206076
0.381762
0.203784
0.114733
0.0770997
0.0581212
0.0386379
0.0338511
0.0291041
0.0275722
0.0291281
0.0296511
0.0293693
0.0289194
0.0281275
0.0272583
0.0266684
0.0262276
0.0254875
0.0242192
-0.0117173
-0.0105134
-0.0101532
-0.0102455
-0.00985688
-0.00889
-0.00777333
-0.00682436
-0.00501551
-0.000900632
0.00298551
0.0212225
0.0197229
0.0511989
0.0991004
0.118867
0.156461
0.252098
0.416525
0.295366
0.218178
0.119354
0.089956
0.0646178
0.0235938
0.027656
0.0288447
0.0381006
0.0379826
0.0376077
0.0364214
0.0346755
0.0323912
0.0305497
0.0293398
0.0302833
0.0308522
-0.0139096
-0.0164176
-0.0171927
-0.0177051
-0.0174788
-0.0180199
-0.0196444
-0.0263065
-0.0321903
-0.0304879
-0.0389953
0.0176361
-0.113852
0.0271586
0.190159
0.109368
0.106313
0.121336
0.14035
0.25661
0.183796
0.125442
0.0992403
0.0979149
-0.0729026
0.00535906
0.0244951
0.0564448
0.0369818
0.040453
0.0407187
0.0384105
0.0347355
0.03194
0.0309336
0.0330298
0.0379258
-0.0237519
-0.0244524
-0.0256774
-0.028991
-0.0294842
-0.0297264
-0.0307204
-0.0592819
-0.0662403
-0.0561767
-0.081506
-0.0487945
-0.115274
-0.0162259
0.110555
0.117471
0.0850197
0.0203223
-0.0744332
0.0874182
0.172952
0.428375
0.148088
0.0220943
0.0357119
0.146956
0.0238982
-0.0258078
-0.00792474
0.0123445
0.0805369
0.0113721
0.0341848
0.0443172
0.0426461
0.03956
0.0337591
0.0307089
0.0297405
0.0251258
-0.0295853
-0.02757
-0.036331
-0.0426564
-0.0382876
-0.0361605
-0.0575997
-0.0810984
-0.0931573
-0.114951
-0.188366
-0.163932
-0.0656794
-0.00788507
0.0774386
-0.0671149
0.0017353
0.216444
-0.0501046
-1.2466
0.993793
1.68231
-0.122496
-0.0292858
0.0178782
-0.10541
-0.0268204
0.0845056
0.0274438
-0.0534739
0.0355035
0.0325766
0.0271953
0.0334623
0.0428403
0.0377957
0.0214688
0.0210059
0.0231234
0.0181315
-0.0295771
-0.0232328
-0.0350879
-0.0459745
-0.0442667
-0.0506567
-0.0749494
-0.108675
-0.110443
-0.144065
-0.174352
-0.196121
-0.0901015
-0.298575
0.368221
-0.194282
-0.351546
-0.207504
-0.964644
0.0215927
-0.0259127
1.48841
-0.7444
-0.652405
0.105299
-0.0168825
-0.331423
0.0575611
-0.00437995
0.0123116
-0.0104379
0.00112477
-0.00248385
0.00955654
0.0257544
0.0266761
0.0135677
0.0136166
0.0273224
0.0304871
-0.0392575
-0.0216849
-0.0258309
-0.0285867
-0.0413451
-0.0582233
-0.0633952
-0.0772854
-0.122097
-0.134525
-0.150124
-0.234632
-0.289211
-0.380218
0.0523322
-0.156986
-0.491481
-0.226099
1.26989
-0.570125
-0.831907
-0.299543
0.733294
-0.0374639
-0.229404
0.0093693
-0.383661
0.0924161
-0.0308813
-0.0106561
-0.0272398
-0.031555
0.0104093
0.0207694
0.0190079
0.027742
0.0352717
0.0315119
0.0303281
0.0195404
-0.0208403
-0.0183219
-0.0204016
-0.0285404
-0.0466567
-0.0603789
-0.0514126
-0.0553118
-0.0981816
-0.135736
-0.183579
-0.366774
-0.549105
-0.346186
-0.27186
-0.242866
0.106707
-1.0127
-1.46161
0.68702
1.56644
0.446779
0.033742
-0.177516
-0.129059
0.0104436
-0.166097
-0.383455
0.0300811
-0.0479722
0.0242036
0.010175
0.0452285
0.0377104
0.0151072
0.0247835
0.0377654
0.041641
0.0439006
0.0411422
-0.00788602
-0.00833611
-0.00359146
-0.00938759
-0.0206765
-0.0367663
-0.0521019
-0.0709808
-0.0910908
-0.132178
-0.192102
-0.681851
-0.161519
-0.630799
-0.222219
-0.659143
-0.215298
0.873066
0.503158
0.738268
1.12342
0.180007
0.596398
0.583392
-0.311693
-0.02498
-0.307859
-0.129206
-0.26992
-0.00281833
0.0487664
0.0564016
0.045361
0.0375335
0.0349404
0.0520554
0.0550012
0.0530193
0.0432082
0.0426475
0.0161119
0.013091
0.0108863
0.0137598
0.0133504
-0.00191004
-0.0180227
-0.0600224
-0.0920255
-0.0828317
-0.0388671
-0.483949
-0.623553
-0.457409
-0.454298
-0.595513
-0.319052
-1.88099
-0.456365
0.543917
0.56371
0.112776
0.0945255
-1.43914
-0.114725
-0.323208
-0.11795
-0.353288
-0.292434
0.166553
0.100517
0.0583071
0.0448286
0.0671453
0.0688618
0.0674904
0.0532333
0.0472366
0.0492709
0.0533115
0.0239904
0.0258621
0.0259402
0.0258959
0.0269564
0.0157536
0.00440248
-0.0133379
-0.0897586
-0.0999304
-0.114902
-0.0771418
-0.0841077
-0.0638568
-0.277669
-0.66011
0.241925
-2.71105
0.913074
2.87441
2.61016
1.61692
-0.169298
-2.53584
1.76544
-0.0727243
0.198934
0.216379
0.0856657
0.115909
0.0905891
0.0703922
0.0692889
0.0771646
0.0715365
0.0603469
0.0497748
0.0494915
0.0472097
0.0380162
0.0422229
0.0437035
0.0408757
0.0352117
0.0300117
0.0185807
0.0084565
0.00359552
-0.0279199
-0.061567
-0.106179
0.030439
-0.0292748
-0.356274
0.632994
0.315472
0.72185
-2.46671
-1.11187
2.35585
0.464844
0.133057
-2.35222
1.24823
0.387928
1.32346
-0.272645
0.0971362
0.064634
0.185631
0.125968
0.100341
0.0748791
0.0670195
0.0607797
0.0546861
0.0492242
0.0465227
0.0443353
0.0407833
0.0579225
0.0559867
0.0562711
0.0549975
0.0497266
0.0389713
0.0410627
0.0288542
0.01795
0.00788097
-0.0154365
-0.00404818
0.192226
0.245565
-0.591729
-0.0396392
1.50186
2.47231
0.572048
0.545789
-1.08617
-0.362248
1.74149
0.610603
-1.36636
-0.57871
0.294174
0.152258
0.124003
0.138459
0.106434
0.073644
0.0726713
0.0708124
0.0536317
0.0498788
0.0467044
0.0444593
0.0453367
0.0480348
0.0791638
0.0754557
0.0757006
0.0767577
0.0804955
0.0737871
0.0734171
0.0744276
0.0879909
0.12632
0.195999
0.218954
0.307714
0.143713
0.891864
1.29982
1.01965
-0.474151
-2.40214
-4.47753
2.1996
0.00912424
-0.43477
0.304058
1.12306
1.1886
0.150413
0.307818
0.185299
0.144966
0.0751335
0.0575886
0.0801951
0.0632758
0.0531837
0.0460578
0.0443975
0.0440759
0.0417723
0.0459449
0.0992109
0.0900848
0.0924388
0.0957396
0.098297
0.102375
0.112293
0.117999
0.152907
0.184995
0.299499
0.268086
0.580376
0.250748
-0.124928
-0.00337846
-0.256686
0.0531572
-0.866099
-0.534603
0.794234
0.784783
0.0107719
-0.622927
-0.700027
-0.166514
0.675662
0.0598957
0.0579084
0.037895
0.0265587
0.0572306
0.0544302
0.0472883
0.0393988
0.03276
0.0300191
0.0274728
0.0230041
0.0370679
0.101066
0.113888
0.114145
0.109652
0.120717
0.128403
0.146806
0.119977
0.166009
0.0912963
0.164805
0.298353
0.54109
0.690354
0.74096
1.45698
-3.13188
-2.0251
0.337943
1.09048
-0.457118
-1.08214
-0.564708
-1.7928
1.81582
1.03628
0.464768
0.258474
0.123952
-0.012472
-0.0922198
0.0955859
0.0461379
0.0337694
0.0228868
0.0247001
0.0214362
0.0263183
0.0203908
0.0199917
0.127815
0.118787
0.121474
0.123359
0.127827
0.131946
0.130406
0.106708
0.11235
0.13382
0.169866
0.137443
0.123652
0.71111
-0.426373
-0.626441
-1.51269
-2.84646
1.97543
3.14412
3.57946
2.10861
-1.04704
-0.489673
-0.209164
-0.0693098
0.663698
-0.0584029
-0.055718
-0.0186506
-0.0414847
-0.0351551
-0.0274067
-0.00384069
0.00514892
0.0102416
0.0127658
0.0159267
0.0131484
0.0241004
0.137331
0.128861
0.128165
0.128546
0.133322
0.138776
0.133065
0.116474
0.126133
0.11348
0.124681
0.0568721
0.0807383
-0.00540705
0.00284205
0.0272142
-0.0609123
-0.494509
0.243977
-0.459597
3.13506
1.99779
0.298701
0.223461
0.0488866
0.0880282
-0.108582
-0.105693
-0.100232
-0.0410274
-0.0334161
-0.0709901
-0.0546693
-0.035541
-0.0162714
-0.0115329
-0.00574378
-0.00166427
6.7202e-05
0.00903036
0.15809
0.158355
0.155795
0.153243
0.152523
0.151945
0.144365
0.0882861
0.0868767
0.0759386
0.0521328
0.214536
0.0229831
-0.0212865
0.119182
0.219465
0.0394042
1.03935
-1.31715
-1.68064
-0.34805
0.306598
0.143479
-0.356262
-0.164013
-0.0652518
-0.126202
-0.196632
-0.0598159
-0.137759
-0.115124
-0.114772
-0.0955358
-0.0504183
-0.0386228
-0.0303879
-0.023096
-0.0177975
-0.0140011
-0.0192992
0.171309
0.183976
0.183055
0.181006
0.178167
0.168716
0.146987
0.11666
0.092631
0.0826609
0.0930781
0.127292
0.222563
0.323759
-0.145512
-0.523468
-0.129565
-0.561313
0.340799
0.355779
0.451507
0.503688
-0.356367
-0.369343
-0.791751
-0.505208
-0.0150525
-0.103115
-0.15357
-0.0688696
-0.139621
-0.141182
-0.103872
-0.0777555
-0.055782
-0.0447901
-0.0358398
-0.0285033
-0.0238629
-0.0238765
0.185297
0.187932
0.193292
0.196377
0.198841
0.199068
0.17546
0.1735
0.16808
0.168351
0.186054
0.0708782
-0.157436
-0.110334
0.283976
0.201355
0.233907
-0.292872
-0.90292
-1.455
0.222293
-0.312453
-0.432491
-0.201045
-0.22077
-0.0437164
-0.169897
-0.309316
-0.184962
-0.136018
-0.13304
-0.118794
-0.093384
-0.0647902
-0.0521603
-0.0439896
-0.036071
-0.0332088
-0.0320988
-0.0285021
0.179898
0.195139
0.198147
0.206303
0.212794
0.220785
0.228491
0.24453
0.259818
0.245126
0.16643
0.0875573
0.21924
0.115783
-0.221339
-0.204929
-0.0709557
0.072423
0.446301
0.0221995
0.187525
0.148661
-0.735799
-0.394453
-0.46054
-0.360717
-0.327741
-0.24654
-0.276117
-0.175323
-0.116485
-0.0757831
-0.0583642
-0.0475978
-0.043795
-0.042363
-0.0395867
-0.0321487
-0.0292665
-0.041223
0.216174
0.202193
0.20964
0.220284
0.235375
0.260493
0.282558
0.313026
0.37228
0.420408
0.180199
-0.0623809
-0.103102
0.120442
0.592694
0.899642
0.76359
0.869739
-0.330637
-0.637518
-2.04795
-1.3868
0.254865
0.630615
0.570867
0.22356
0.0138248
-0.262149
-0.265526
-0.0723442
0.0383415
0.0361714
0.0115484
-0.010221
-0.0229405
-0.0358544
-0.0445162
-0.0373699
-0.0436419
-0.0201895
0.226381
0.213883
0.223102
0.233568
0.247323
0.266
0.289208
0.317225
0.353994
0.388038
0.185075
0.144317
0.17827
0.0679668
0.311153
0.702143
-0.60415
0.0988762
-1.85606
-2.72857
-4.64936
-2.31458
1.05568
0.443851
0.933517
0.600654
0.113513
0.115028
-0.0194589
0.0143342
0.121529
0.0741344
0.0235784
-0.00676661
-0.0261273
-0.0395355
-0.0494922
-0.0471414
-0.0499552
-0.029275
0.201762
0.219334
0.22423
0.229741
0.238982
0.253625
0.272029
0.305843
0.316963
0.310566
0.251531
0.220847
0.239238
0.20318
0.333513
0.25009
-0.74402
-1.05024
-2.35337
-1.7248
-2.16577
-1.40149
-0.289746
0.425202
0.672062
0.614397
0.441807
0.338624
0.185194
0.0858196
0.0674194
0.0343561
-0.0119636
-0.0387755
-0.0429991
-0.0495124
-0.0514845
-0.0468731
-0.0437933
-0.0506197
0.194879
0.187132
0.197879
0.209824
0.229536
0.24263
0.270456
0.302158
0.331343
0.359938
0.262219
0.0969244
0.00442161
0.0657284
0.328193
0.306346
-0.277091
-0.608107
-1.85271
-2.41085
-0.758736
-0.774538
0.601526
0.917261
0.937732
0.755007
0.317778
0.0245037
0.0441988
0.049125
0.0713391
0.0292807
-0.00454444
-0.0142077
-0.0315282
-0.0507024
-0.0566187
-0.0538206
-0.0611729
-0.0511621
0.170803
0.178246
0.181808
0.189363
0.205587
0.22105
0.251184
0.292015
0.306403
0.315198
0.327564
0.317817
0.333072
0.153966
0.0799189
0.273327
-0.494634
-0.0106032
-1.37559
-0.645298
-2.18816
-1.30871
0.00333023
-0.265903
0.367122
0.27481
0.300325
0.328045
0.166909
0.0448848
0.038191
0.000224063
-0.0225306
-0.0403637
-0.0551191
-0.0647
-0.068816
-0.0694398
-0.0712964
-0.0785571
0.164472
0.159763
0.163148
0.168329
0.177203
0.19026
0.216329
0.260443
0.305043
0.333072
0.344817
0.35768
0.279781
0.323659
0.389539
0.564811
0.441717
0.782404
-1.32591
-1.00923
-0.606344
-0.651236
0.0457189
0.213313
0.556882
0.231961
0.12019
0.0246824
0.0363155
-0.0188831
-0.0466858
-0.0671037
-0.0685231
-0.0803746
-0.0862062
-0.0927698
-0.0947834
-0.0877747
-0.0883065
-0.0821929
0.133487
0.142708
0.14114
0.136243
0.135297
0.135161
0.1313
0.176291
0.204741
0.26355
0.354254
0.463758
0.379419
0.578842
0.149099
0.405366
-0.0233959
0.214469
0.213681
0.171763
-0.242207
-0.212549
-0.243946
-0.222805
0.0429851
-0.0672623
0.352131
0.079649
0.013402
-0.0631527
-0.139403
-0.154632
-0.140499
-0.134852
-0.12075
-0.125805
-0.112829
-0.108966
-0.103549
-0.110666
0.105114
0.111555
0.110658
0.105961
0.0977396
0.0811707
0.0545892
0.0939516
0.0992324
0.172606
0.248023
0.215444
0.0751002
0.0501669
-0.140763
-0.385592
-0.410089
-0.625717
1.13422
1.55354
1.21912
0.715652
-0.728111
-0.413575
-0.452265
-0.329847
-0.221705
-0.300226
-0.0787856
-0.0166879
-0.257543
-0.212256
-0.206739
-0.187011
-0.156794
-0.13838
-0.123469
-0.114662
-0.110558
-0.119003
0.104753
0.0843449
0.0773801
0.0714781
0.0640978
0.0584284
0.0500362
0.0490579
0.0511813
0.0957979
0.0615302
-0.061744
0.0266135
-0.0159697
-0.186444
-0.432898
-0.523936
-1.22141
2.27034
3.2839
0.563648
0.909179
-1.3865
-0.880004
-0.839108
-0.567112
-0.329068
-0.239595
-0.295031
-0.215052
-0.212339
-0.219841
-0.200224
-0.175768
-0.157863
-0.141599
-0.127425
-0.11299
-0.10452
-0.0917815
0.0705764
0.0753596
0.0693126
0.0607112
0.0467187
0.0367057
0.0190837
-0.0022018
-0.00902501
-0.00721345
0.0072054
-0.0401112
-0.141393
-0.224781
-0.319218
-0.29127
-0.312972
0.184295
0.717108
0.654772
0.266171
0.328224
-0.233676
-0.475093
-0.559908
-0.429262
-0.29806
-0.246769
-0.220757
-0.184739
-0.195204
-0.223351
-0.194265
-0.175459
-0.151921
-0.133676
-0.120807
-0.111176
-0.107142
-0.108063
0.0692595
0.0714496
0.0666682
0.0581728
0.0472491
0.028322
-0.000990424
-0.045541
-0.110257
-0.0698388
0.0438162
-0.0554468
-0.183586
-0.384282
-0.421449
-0.420142
-0.232443
-0.297501
0.411673
0.753897
1.02584
0.979009
0.20843
0.161448
-0.0402099
-0.151456
-0.219261
-0.18849
-0.0928333
-0.0450821
-0.168465
-0.207394
-0.21293
-0.178479
-0.148228
-0.130488
-0.120418
-0.107055
-0.102114
-0.0967325
0.0644978
0.0635784
0.0626225
0.057178
0.0461677
0.030408
0.0120442
-0.0290475
-0.0576596
-0.0870868
-0.172057
-0.185624
-0.22978
-0.409591
-0.535971
-0.618385
-0.643632
-0.680457
-0.244969
-0.448591
1.5842
1.24346
0.358795
0.405628
0.148894
0.063898
-0.0107687
0.00716226
-0.0581529
-0.127938
-0.152364
-0.176488
-0.157645
-0.128625
-0.111734
-0.098278
-0.0926197
-0.0872751
-0.087235
-0.0810394
0.059886
0.0521951
0.0495617
0.0441471
0.0393533
0.0320371
0.0230504
0.00996886
0.00532467
-0.0271105
-0.0801106
-0.200608
-0.412637
-0.541593
-0.528153
-0.56728
-0.437156
-0.468977
0.103729
-0.307741
0.851059
0.764142
0.686001
0.679689
0.180413
0.0641783
-0.0580086
-0.104893
-0.104193
-0.183418
-0.137084
-0.106916
-0.0836639
-0.0691329
-0.0671919
-0.0679611
-0.068797
-0.067139
-0.06827
-0.0635688
0.0522445
0.0379386
0.0378763
0.0400011
0.0453303
0.0515587
0.0591306
0.0784666
0.0844023
0.0601742
-0.218706
-0.149536
-0.123685
-0.178825
-0.147024
-0.119917
-0.185737
0.00570691
0.0939556
0.4257
0.122195
0.156082
0.318975
0.355346
0.405471
0.0509266
-0.0927652
-0.0881738
-0.0681011
-0.237826
-0.0498086
-0.0285462
0.0308833
-0.00818072
-0.0341925
-0.049755
-0.051845
-0.0550905
-0.0611122
-0.0575966
0.0360795
0.0445086
0.0447688
0.0461275
0.0479886
0.0571022
0.0770474
0.0550167
0.0779235
0.0799053
0.0427645
-0.0704765
-0.197
-0.228526
-0.149284
0.0125035
-0.0858249
0.144675
-0.660806
-1.0282
-0.913627
-0.737014
0.394558
0.161256
0.144965
-0.0321389
-0.131114
-0.151476
-0.0834107
-0.0735208
0.0119916
-0.00232647
0.0341581
-0.00340102
-0.0239489
-0.0420852
-0.0488661
-0.0546401
-0.0573312
-0.0844728
0.0550054
0.06345
0.062843
0.0606822
0.0603611
0.0638728
0.0689495
0.0614849
0.0505133
0.0517884
0.0690911
0.00706012
0.00311319
-0.0137559
-0.0815308
-0.132265
-0.312767
-0.350592
-0.587864
-0.550126
-0.691459
-0.672217
-0.31598
-0.14294
-0.190019
-0.108367
-0.066279
-0.0586679
-0.0171871
-0.0151222
-0.0451915
-0.0212649
-0.0107886
-0.0184347
-0.0301407
-0.0393585
-0.0455146
-0.0457343
-0.0464498
-0.0557372
0.0498619
0.0406982
0.0479785
0.0562657
0.0611843
0.0673182
0.0709214
0.0784281
0.0948109
0.0509895
-0.0452298
-0.00500793
0.0752057
0.0724439
0.0352883
-0.0573351
-0.280629
-0.527758
-0.547591
-0.388967
-0.32594
-0.265363
-0.272808
-0.187336
-0.0533383
-0.0151616
-0.0404664
-0.0609471
-0.160655
-0.173021
-0.0758672
-0.0020007
-0.00493056
-0.0148476
-0.0297125
-0.0327445
-0.037981
-0.0437822
-0.0484774
-0.044971
0.0223799
0.0359857
0.0321939
0.0316648
0.0320769
0.0354164
0.0389802
0.0502736
0.0667717
0.0864184
0.113149
0.075264
0.0178147
0.0537188
0.0927419
0.122792
-0.139554
-0.194635
-0.281323
-0.332169
-0.419504
-0.400015
-0.379216
-0.367263
-0.313402
-0.260675
-0.239658
-0.222572
-0.11441
-0.0353144
-0.0232068
-0.0348327
-0.0293614
-0.0363743
-0.0411353
-0.0468679
-0.0438758
-0.0453017
-0.0443867
-0.0552603
0.0263552
0.0213508
0.0195923
0.023608
0.0236975
0.0228929
0.0235821
0.0367743
0.0572297
0.0695852
0.0841164
0.128675
0.182862
0.240066
0.138502
0.15758
0.0506247
0.0228229
-0.0604787
-0.475882
-0.172959
-0.0350014
-0.110606
-0.22598
-0.213836
-0.135493
-0.130825
-0.123149
-0.110816
-0.103341
-0.0968519
-0.0893462
-0.0709983
-0.0635544
-0.0602178
-0.0582307
-0.0481101
-0.0481311
-0.0453771
-0.0435707
0.0290753
0.0301137
0.0269551
0.0227739
0.0209682
0.0134656
0.00302261
-0.00521662
-0.00108684
0.058638
0.132061
0.119314
0.134693
0.168942
0.235815
0.211782
0.132457
0.0894847
-0.114597
-0.138099
-0.142727
-0.250612
-0.221368
-0.26119
-0.220329
-0.16551
-0.115407
-0.0330037
0.01666
0.00778946
-0.176279
-0.131825
-0.137654
-0.0969282
-0.0756672
-0.0653385
-0.0549358
-0.0465249
-0.0418042
-0.0488001
0.0456206
0.0328242
0.0343459
0.0255415
0.0232335
0.0165578
0.00818748
-0.0166173
-0.0208444
-0.0213562
0.0244137
0.0270498
0.00934989
-0.0995111
-0.113514
-0.126691
0.112533
0.0517916
0.224723
0.309302
0.208916
0.114194
-0.0824012
-0.185089
-0.318929
-0.208226
-0.134662
-0.0881061
-0.0304603
-0.0856096
-0.13254
-0.135531
-0.11148
-0.0844037
-0.0724479
-0.0580156
-0.0536114
-0.0403525
-0.0412389
-0.0249283
0.0298538
0.0254987
0.0270571
0.0188238
0.0203192
0.0153674
0.029399
-0.0209948
-0.0275738
-0.0478272
-0.050254
0.02862
0.0521365
-0.0132506
-0.0315442
0.130702
0.111058
0.204099
0.457566
0.515677
0.691612
1.00601
0.143955
-0.396649
-0.521756
-0.380434
-0.246384
-0.147094
-0.098028
-0.117189
-0.139294
-0.108246
-0.0843756
-0.0699356
-0.0620963
-0.0410737
-0.034422
-0.0287207
-0.0253139
-0.0175741
0.0125598
0.020644
0.0192396
0.0144851
0.0147135
0.00828387
0.00307824
-0.0105163
-0.0128046
-0.0259753
0.0518211
0.0338235
0.0505572
0.0870998
0.140411
0.218589
0.389013
0.474081
0.41788
0.544553
0.541956
0.480784
0.289683
0.124692
-0.0316295
-0.0817783
-0.0532756
-0.0791661
-0.0775195
-0.0705198
-0.0770933
-0.0623855
-0.0551922
-0.042227
-0.0345591
-0.0222558
-0.0151174
-0.0107087
-0.00973839
-0.0209396
0.0228822
0.0113364
0.0133201
0.0124069
0.0137192
0.0154998
0.0164611
0.0142279
0.013089
0.045418
0.064594
0.0655164
0.120645
0.151993
0.1751
0.240299
0.306806
0.493101
0.658384
0.547626
0.569426
0.897769
0.685311
0.282353
0.129792
0.0498863
0.0123219
-0.0241879
-0.0535116
-0.0307813
-0.030342
-0.033665
-0.0305398
-0.0200854
-0.0180026
-0.0130787
-0.0108259
-0.00877271
-0.0116363
-0.00273531
0.0122894
0.0168808
0.0172696
0.0184491
0.0192655
0.0210436
0.0226068
0.0232204
0.0302813
0.000838038
0.0393878
0.066821
0.0711501
0.063321
0.0784991
0.168341
0.215596
0.25548
0.28063
0.348071
0.33657
0.711821
0.659416
0.153615
0.136124
0.0348831
-0.0149759
-0.0160578
-0.00598241
-0.0288455
-0.0294436
-0.0223951
-0.0113627
-0.00706954
2.5258e-05
0.00111457
0.00157422
0.000669933
0.000310644
-0.0041873
0.0216511
0.019473
0.0193135
0.0171491
0.0170676
0.0158131
0.014045
0.0256355
0.0327718
0.0626716
0.0420991
0.0285295
0.0514585
0.0623485
0.0933668
0.109961
0.0349297
-0.0956434
-0.22114
0.128366
0.0593861
0.159998
0.230218
0.189413
0.146679
0.109051
0.063391
0.0086807
0.00113281
-0.00554773
0.000411686
0.00110101
0.0144136
0.0255789
0.0267922
0.0165105
0.00953106
0.00598903
0.00383735
0.00785412
0.0040391
0.00606263
0.00739026
0.0103708
0.0132211
0.0233435
0.0338064
0.0438787
0.0523586
0.0743384
0.0611705
0.14751
0.196801
0.181282
0.135591
0.0354713
0.048205
-0.182593
0.00234241
-0.401409
-0.535956
0.259349
0.0393902
0.110988
0.093003
0.06628
0.0658264
0.0507812
0.0291384
0.0468584
0.0363284
0.0446154
0.0783748
0.0551002
0.0388564
0.023227
0.015979
0.0125862
0.0131963
0.0105087
-0.00373552
-0.00347481
-0.00249171
0.0002732
0.00386944
0.0121424
0.0265842
0.0517735
0.0515461
0.0959887
0.0998443
0.0787691
0.108663
0.1655
0.186243
0.180112
0.214359
-0.244002
-0.474081
-0.584146
-0.486059
-0.646176
-0.411041
0.430943
0.148612
0.242528
0.154506
0.101039
0.0880646
0.115146
0.107887
0.100752
0.0825223
0.0657656
0.0368371
0.0317293
0.0288335
0.0251424
0.0229641
0.0162431
0.0130496
0.00635072
0.00326713
0.00141393
0.000624665
0.00252908
0.0154872
0.02834
0.0473659
0.0671741
0.08347
0.131658
0.189237
0.224361
0.285398
0.313796
0.356256
0.12817
0.0247006
-0.241509
-0.374149
-0.531836
-0.385648
-0.0722819
-0.0284369
0.0479163
0.0791185
0.160265
0.16796
0.148228
0.131235
0.100361
0.0833998
0.0659162
0.0511575
0.0413968
0.0344014
0.0314194
0.0305976
0.0350402
-0.00117936
0.00440246
0.00738454
0.009733
0.0102322
0.0120602
0.0239174
0.028135
0.0222691
0.024025
0.0692075
0.119795
0.178992
0.208297
0.217931
0.187079
0.178329
-0.0508439
0.0113822
-0.149186
-0.00422168
0.113976
0.0591987
0.0502273
0.126141
0.211243
0.235776
0.214148
0.172469
0.138496
0.0867552
0.0838622
0.0850808
0.0698129
0.0536506
0.0452147
0.0402687
0.035648
0.0317094
0.0244416
-0.00626522
-0.00144839
-0.000966146
-0.00457085
-0.00916973
-0.0136334
-0.0216655
0.0117599
0.00453955
0.019565
0.00367931
-0.00330124
0.0161135
-0.00351585
0.0361795
-0.0181662
0.037731
-0.326811
-0.262752
-0.036819
0.125274
0.175439
0.202052
0.150752
0.214466
0.303572
0.26634
0.218984
0.17282
0.152831
0.149103
0.112086
0.083017
0.066009
0.0479426
0.0412481
0.035332
0.032543
0.0328074
0.0231164
-0.0138871
-0.0173702
-0.0187309
-0.0204882
-0.022987
-0.0301027
-0.0383205
-0.0403442
-0.0466196
-0.0609698
-0.0571733
-0.0407055
-0.0887336
-0.14857
-0.199534
-0.268305
-0.245799
-0.324293
-0.325961
-0.218902
-0.161939
0.260613
0.355056
0.371795
0.355319
0.312533
0.250853
0.212411
0.181533
0.136401
0.0799376
0.0547532
0.0628363
0.0505441
0.0393727
0.0357038
0.0342091
0.0319741
0.0304005
0.0340938
-0.0212606
-0.0301881
-0.0330528
-0.0353533
-0.0374556
-0.0426163
-0.0550026
-0.0696158
-0.0668462
-0.0843351
-0.0978838
-0.0890296
-0.0964719
-0.139074
-0.186387
-0.242397
-0.259511
-0.291711
-0.231778
-0.193088
-0.099065
-0.0119562
0.0629096
0.0720125
0.194565
0.227584
0.21372
0.189759
0.176274
0.0987664
0.0711345
0.0546239
0.0478999
0.0403279
0.0344204
0.0322474
0.0319074
0.0316787
0.0322554
0.0349466
-0.0200121
-0.0221972
-0.0263741
-0.032001
-0.0339192
-0.0346102
-0.0476186
-0.0636332
-0.0966038
-0.114532
-0.145263
-0.205024
-0.245484
-0.235637
-0.213179
-0.105074
0.0166137
-0.0873445
-0.0579956
-0.134737
-0.117233
-0.147027
-0.155861
-0.145144
0.315747
0.179468
0.099112
0.0750228
0.0886109
0.0789981
0.0539635
0.0361086
0.0457674
0.0476781
0.0393133
0.0330546
0.0291336
0.0235168
0.0198324
0.0239587
-0.0208101
-0.00522847
-0.00677791
-0.0086455
-0.0192998
-0.0260081
-0.0345535
-0.0484965
-0.0741269
-0.11188
-0.160945
-0.248767
-0.295676
-0.243814
-0.294316
-0.285472
-0.355537
-0.262415
-0.198433
-0.14091
0.184171
0.532284
0.286116
0.206437
0.280733
0.232564
0.14764
0.0626232
0.00899133
-0.000990791
0.0241435
0.0176274
0.0331293
0.0299971
0.0230728
0.0216754
0.0202315
0.0189362
0.0183576
0.00970176
-0.00997777
-0.00634409
-0.00441218
-0.00534726
-0.0107141
-0.0203916
-0.0308997
-0.0443807
-0.0629561
-0.0966262
-0.160891
-0.232948
-0.273584
-0.283162
-0.289441
-0.257401
-0.306694
-0.127199
-0.0482702
0.0177195
0.204644
0.267025
0.300191
0.34814
0.457073
0.381505
0.269162
0.146941
0.0629422
0.0239906
0.0233603
0.0189383
0.0168838
0.0223682
0.0188193
0.0190595
0.0197719
0.0227977
0.0243583
0.0193039
-0.0124939
-0.012413
-0.0120641
-0.0146074
-0.0181255
-0.0241048
-0.0343125
-0.0456548
-0.0590738
-0.0790225
-0.0838958
-0.0851815
-0.0608621
-0.0170834
0.047179
0.179578
-0.110164
-0.0473224
0.00189941
0.150224
0.211125
0.195891
0.170685
0.205697
0.0786606
0.0639529
0.0453289
0.0150887
0.00359295
0.00641074
0.0022861
0.00765052
0.018304
0.0193769
0.0189744
0.0189865
0.0166271
0.0134897
0.009597
0.00904182
-0.0106287
-0.0150578
-0.0192855
-0.0214673
-0.0232
-0.024321
-0.0312016
-0.0239902
-0.0513902
-0.0579817
-0.0435217
0.00782641
0.0456635
0.0791846
0.186876
0.217832
0.268688
0.235089
0.194015
0.178305
0.0665739
-0.111542
-0.172062
-0.222962
-0.217567
-0.174603
-0.146129
-0.116521
-0.0710237
-0.0399217
-0.0330329
-0.0297565
-0.0125957
-0.00564704
-0.0040114
-0.00207609
0.0010432
0.00256229
0.00505487
-0.00168266
0.0016486
-0.00196003
-0.00485091
-0.00912865
-0.0119878
-0.00890762
-0.00931364
-0.00784413
-0.00271928
-0.00428772
-0.029756
-0.0276111
0.00735817
0.041209
0.0629635
0.00346809
-0.0324516
-0.0244792
-0.0170165
0.0136258
0.043566
-0.271795
-0.338495
-0.30603
-0.219087
-0.185855
-0.134774
-0.105957
-0.0839463
-0.0752669
-0.0571187
-0.038886
-0.0279869
-0.0186655
-0.0123265
-0.0127043
-0.0113665
-0.0120719
-0.0111129
-0.00543283
0.0120114
0.013868
0.015939
0.016233
0.0168048