/*--------------------------------*- C++ -*----------------------------------*\
| =========                 |                                                 |
| \\      /  F ield         | OpenFOAM: The Open Source CFD Toolbox           |
|  \\    /   O peration     | Version:  v2106                                 |
|   \\  /    A nd           | Website:  www.openfoam.com                      |
|    \\/     M anipulation  |                                                 |
\*---------------------------------------------------------------------------*/
FoamFile
{
    version     2.0;
    format      ascii;
    arch        "LSB;label=32;scalar=64";
    class       volVectorField;
    location    "0";
    object      U;
}
// * * * * * * * * * * * * * * * * * * * * * * * * * * * * * * * * * * * * * //

dimensions      [0 1 -1 0 0 0 0];

internalField   nonuniform List<vector> 
11644
(
(0.000262041 9.57236e-06 -1.63014e-20)
(0.000227969 7.70816e-05 -4.49543e-20)
(0.000223568 0.000156063 -2.41191e-20)
(0.00022757 0.000227975 0)
(0.000210233 0.000331067 0)
(0.000185122 0.000402765 0)
(0.000132715 0.000647936 0)
(0.000112331 0.00078007 0)
(6.55847e-06 0.00100825 0)
(-0.000150667 0.00143195 0)
(-0.000262666 0.00206663 0)
(-0.000285469 0.00264007 0)
(-0.000208153 0.00331167 0)
(-0.000282215 0.00346782 0)
(-0.000437803 0.00422758 0)
(0.000227384 0.00546096 0)
(-0.00012931 0.00513698 0)
(0.000457097 0.00645138 0)
(0.000253423 0.00691241 0)
(0.00497139 0.00553066 -3.4097e-30)
(-0.00308908 0.00371416 2.82697e-30)
(2.56294e-05 0.00554959 0)
(-0.000152592 0.00462867 0)
(0.000526158 0.00349134 0)
(-5.12187e-05 0.00384375 0)
(0.000599338 0.00280191 0)
(0.000378372 0.00247692 0)
(0.000344971 0.00272469 0)
(0.000510996 0.00240433 0)
(0.000609198 0.00213627 0)
(0.00059465 0.00170688 0)
(0.00053247 0.00143111 0)
(0.000526639 0.00128683 0)
(0.000565109 0.00112852 0)
(0.00054036 0.000822323 0)
(0.000511017 0.000651125 0)
(0.000478169 0.000474638 0)
(0.000471022 0.000332753 0)
(0.000484216 0.000224876 0)
(0.000467899 8.10982e-05 -3.16066e-21)
(0.000104148 4.40157e-05 -2.0939e-20)
(0.000136916 9.75215e-05 -1.93962e-20)
(0.00010748 0.00016648 -1.04171e-20)
(6.12807e-05 0.000254184 0)
(1.74238e-05 0.000354895 0)
(-3.91105e-05 0.000469661 0)
(-8.41957e-05 0.000503587 0)
(-0.000159399 0.000679231 0)
(-0.000259666 0.000781533 0)
(-0.000380527 0.000723276 0)
(-0.000465135 0.000557377 0)
(-0.000505955 0.000527945 0)
(-0.000524555 0.000537016 0)
(-0.000577015 0.000894426 0)
(-0.000536677 0.00104124 0)
(-0.000804228 0.000189321 2.53759e-22)
(0.000193249 0.00119215 -1.05897e-20)
(-0.00116825 0.00284475 1.63084e-20)
(-0.000525523 0.00126679 6.52146e-20)
(-0.00144032 0.000660744 -6.2254e-20)
(0.00226758 0.00250255 5.40573e-20)
(0.00209352 0.00240437 -1.68763e-19)
(0.00189697 0.00393277 9.61199e-20)
(0.000125325 0.00203177 1.17877e-20)
(0.00121379 0.000914776 -1.3838e-21)
(0.000838917 0.00158041 0)
(0.000833115 0.00114228 0)
(0.000789388 0.000491844 0)
(0.000789353 0.000179353 0)
(0.000754763 -5.16934e-06 0)
(0.000698745 2.1528e-05 0)
(0.000608533 -1.59282e-05 0)
(0.000538163 -0.000146478 0)
(0.000508771 -0.000231649 0)
(0.000494942 -0.000152972 0)
(0.000450875 -0.000113347 0)
(0.00043012 -8.88932e-05 0)
(0.000401279 -6.62936e-05 0)
(0.000381848 -6.0054e-05 0)
(0.000417312 -1.6113e-05 0)
(-1.86596e-05 2.45807e-05 0)
(-2.368e-05 6.7954e-05 0)
(2.50755e-06 9.88407e-05 0)
(-1.23902e-05 0.000143364 0)
(-2.6486e-05 0.000151943 -1.91274e-20)
(-8.3813e-05 0.000214414 0)
(-0.000117454 0.000199288 0)
(-0.000171799 0.000210816 0)
(-0.000242097 0.000270303 0)
(-0.000325203 0.000357558 0)
(-0.000427701 0.000391159 0)
(-0.000530622 0.000469021 0)
(-0.000625984 0.000509062 -1.71506e-21)
(-0.000714844 0.000918511 3.62815e-20)
(-0.000733183 0.00096408 -2.29774e-19)
(-0.000705911 0.0015166 1.75182e-19)
(-0.000577901 0.00185514 -1.01946e-18)
(0.00106559 0.00204003 1.48795e-18)
(-0.000290238 0.00162032 -1.58142e-19)
(-0.00233555 0.00136896 -4.70094e-19)
(0.0026159 0.00224572 3.86559e-19)
(0.000736995 0.00284581 8.15034e-20)
(-1.8296e-05 0.0025189 -1.27514e-18)
(0.00137034 0.00172477 1.63998e-18)
(0.00136597 0.00153929 -8.82973e-19)
(0.00124733 0.00108564 2.63234e-19)
(0.00124141 0.00106429 -3.57974e-20)
(0.00120163 0.00053486 1.78934e-21)
(0.00107943 0.000491408 0)
(0.00095383 0.000335427 0)
(0.000848908 0.000231826 0)
(0.000746093 0.000104206 0)
(0.000646027 1.3828e-05 0)
(0.000562317 -2.01956e-05 0)
(0.000515909 1.14971e-05 0)
(0.000449113 -4.16447e-05 0)
(0.000421964 -2.93363e-05 0)
(0.000387344 -3.43168e-05 0)
(0.000352269 -2.86843e-05 0)
(0.000314544 -2.19442e-05 0)
(5.50389e-05 5.00141e-06 0)
(2.64405e-05 1.66599e-05 0)
(-3.5309e-05 5.04124e-05 0)
(-5.61316e-05 5.55134e-05 0)
(-6.98333e-05 7.35319e-05 0)
(-9.61097e-05 8.00999e-05 0)
(-0.000147672 0.000102966 0)
(-0.000226714 0.000135522 0)
(-0.000318324 0.000161645 0)
(-0.000419411 0.000230409 0)
(-0.00052742 0.000390976 2.09294e-21)
(-0.000769921 0.000698837 6.0252e-20)
(-0.00101909 0.00106915 -2.93639e-19)
(-0.00122607 0.00149008 1.15151e-19)
(-0.00131645 0.00207119 1.65941e-19)
(-0.00115654 0.00257333 -8.93648e-19)
(-0.00105137 0.00299471 1.4559e-18)
(-0.000645231 0.00380874 -1.895e-18)
(-0.000359946 0.00238598 1.84128e-18)
(9.61089e-05 0.00256527 -5.50661e-19)
(0.00020181 0.00267661 5.15056e-19)
(0.00136422 0.00244324 -1.6573e-18)
(0.00126887 0.00301277 1.8133e-18)
(0.00160485 0.00220903 -5.78359e-19)
(0.00162673 0.00207806 -1.73531e-19)
(0.00179117 0.00165474 -1.48339e-19)
(0.00179251 0.00131269 7.29426e-20)
(0.00163475 0.00105234 1.57397e-19)
(0.00138937 0.000652459 -1.09705e-20)
(0.00116863 0.000389921 -1.71262e-21)
(0.00102861 0.000244246 0)
(0.0008983 0.00017018 0)
(0.000771732 0.000123378 0)
(0.00065431 8.08276e-05 0)
(0.000548319 3.30533e-05 0)
(0.000507462 2.17121e-05 0)
(0.000443423 2.63328e-06 0)
(0.000425186 8.12457e-06 0)
(0.000410697 5.32889e-06 0)
(0.00040537 8.04389e-06 0)
(-3.24461e-05 6.8429e-06 0)
(-1.35658e-05 5.31013e-05 0)
(-1.1708e-05 3.6535e-05 0)
(-1.11627e-05 4.51386e-05 0)
(-6.77502e-05 4.89714e-05 0)
(-0.00010523 4.83922e-05 0)
(-0.000176052 6.24485e-05 0)
(-0.00025051 5.14906e-05 0)
(-0.000378485 7.66253e-05 0)
(-0.000515337 0.000142112 -1.73657e-20)
(-0.000891795 0.000369723 7.49409e-20)
(-0.00128836 0.000743628 -9.86941e-20)
(-0.00170962 0.00116166 -6.98492e-19)
(-0.00198734 0.00168363 -2.62297e-19)
(-0.00188126 0.00218851 6.2905e-19)
(-0.00196848 0.00252191 1.65414e-18)
(-0.00167964 0.00284337 -2.5876e-18)
(-0.00121255 0.00267706 3.61831e-18)
(-0.00116235 0.00339075 -3.04623e-18)
(0.000330106 0.00314081 1.37743e-18)
(0.000208498 0.00395363 -1.45967e-18)
(0.00165765 0.00363551 1.79603e-18)
(0.00138658 0.00163553 -2.39036e-18)
(0.00184601 0.00194809 1.60662e-18)
(0.00210244 0.00185111 -7.95084e-19)
(0.0023161 0.00184994 -3.92707e-19)
(0.00238126 0.00154554 4.21045e-19)
(0.00226269 0.00105766 -6.70843e-20)
(0.00194849 0.000652574 7.97366e-19)
(0.00149642 0.000256202 -1.64568e-19)
(0.00109296 8.71489e-06 8.70433e-21)
(0.00091527 -6.1738e-05 0)
(0.000759704 -7.0894e-05 0)
(0.00063941 -6.95244e-05 0)
(0.000552584 -6.60295e-05 0)
(0.00048287 -4.90659e-05 0)
(0.000442713 -3.83651e-05 0)
(0.000388482 -2.20629e-05 0)
(0.000356973 -1.99357e-05 0)
(0.000349291 -8.4371e-06 0)
(-5.96466e-05 1.29773e-05 0)
(-6.59792e-05 -1.19784e-05 0)
(-4.46479e-05 2.7404e-05 0)
(-8.00036e-05 4.38211e-05 0)
(-8.43117e-05 3.54749e-05 0)
(-0.000123072 3.7578e-05 0)
(-0.00015795 5.04078e-06 0)
(-0.000229897 -3.98251e-05 0)
(-0.000379007 -3.57301e-05 -1.59418e-20)
(-0.000795508 0.000166769 8.30772e-20)
(-0.00132666 0.000505393 1.40892e-19)
(-0.00185051 0.000747632 -3.70427e-19)
(-0.00191284 0.00114557 -1.99393e-19)
(-0.0022971 0.000940711 -1.95698e-18)
(-0.00250398 0.00156667 2.83574e-18)
(-0.00252005 0.00254011 -1.14558e-18)
(-0.00212956 0.00327266 2.86866e-18)
(-0.00235584 0.00343017 -3.44526e-18)
(-0.000767198 0.00379595 7.62746e-19)
(0.000196613 0.00355902 1.15188e-18)
(0.000601847 0.00341088 -7.61543e-20)
(0.00135677 0.00305074 -1.59105e-18)
(0.00257338 0.00240245 3.32534e-18)
(0.00254953 0.00250805 -3.71315e-18)
(0.00287772 0.00204412 2.01822e-18)
(0.00310492 0.0016023 -3.03131e-18)
(0.00284389 0.0015434 2.45949e-18)
(0.0029967 0.00131124 -1.24981e-18)
(0.00262878 0.0007771 1.2718e-18)
(0.00213568 0.000412296 -1.17301e-19)
(0.00142101 -2.70986e-05 -4.09127e-20)
(0.000932786 -0.000250836 2.05247e-20)
(0.000718099 -0.000282258 0)
(0.000589766 -0.000223667 0)
(0.000502434 -0.000179354 0)
(0.000421873 -0.000143795 0)
(0.000368567 -9.90504e-05 0)
(0.000342962 -8.12272e-05 0)
(0.00033898 -2.58053e-05 0)
(0.000312602 -2.22725e-05 0)
(-4.45326e-05 3.02045e-06 0)
(-6.80725e-05 3.73103e-05 0)
(-7.64243e-05 4.74194e-05 0)
(-5.29538e-05 2.58174e-05 0)
(-6.90859e-05 4.45617e-05 0)
(-8.05774e-05 1.13171e-05 0)
(-8.73508e-05 -4.14376e-05 0)
(-0.000182523 -8.35831e-05 -2.5536e-21)
(-0.000648592 7.1999e-05 1.71747e-19)
(-0.0013195 0.000388255 -2.96237e-19)
(-0.0018248 0.00069304 2.46054e-20)
(-0.00221944 0.001039 7.53624e-19)
(-0.00246452 0.000842467 -6.89965e-19)
(-0.0034586 0.00176346 5.18034e-19)
(-0.00260294 0.000935967 3.40898e-20)
(-0.00248698 0.00145114 -1.25358e-18)
(-0.0023141 0.00477966 4.88727e-19)
(-0.00251652 0.00471168 -7.29862e-19)
(-0.00204382 0.00499922 3.60618e-18)
(-0.000848851 0.00557685 -1.87374e-18)
(0.000478216 0.00239931 -2.75412e-18)
(0.000637547 0.00546032 6.35531e-19)
(0.00298215 0.00415052 8.10576e-19)
(0.00309681 0.000845584 -5.30297e-19)
(0.00344166 0.00203679 1.43066e-18)
(0.00376152 0.00132143 -2.04174e-19)
(0.0039088 0.0010318 -9.8546e-19)
(0.00394315 0.00127298 -3.91285e-21)
(0.0031867 0.000677155 -3.11985e-19)
(0.00275045 0.000387227 4.45696e-19)
(0.00197231 1.06754e-05 3.36352e-19)
(0.00117913 -0.000309094 -2.84785e-20)
(0.000641083 -0.000434064 3.40831e-21)
(0.000481086 -0.000360581 0)
(0.00041753 -0.000254855 0)
(0.000371487 -0.000200492 0)
(0.000332808 -0.000138848 0)
(0.000321027 -8.89615e-05 0)
(0.000287805 -8.01805e-05 0)
(0.000287974 6.93824e-06 0)
(-0.000100543 1.92361e-05 0)
(-7.28353e-05 6.44421e-05 0)
(-7.97985e-05 4.43164e-05 0)
(-8.89974e-05 0.000100498 0)
(-5.53108e-05 8.86138e-05 0)
(-4.66962e-05 7.14159e-05 0)
(-3.20803e-05 3.50064e-05 0)
(-0.000340404 9.59126e-05 -3.59961e-20)
(-0.00119755 0.000384934 -8.26345e-20)
(-0.00183305 0.000727368 5.33849e-19)
(-0.00208029 0.000599855 -3.19418e-19)
(-0.00230222 0.00126729 2.58701e-19)
(-0.00180786 -0.00195419 -5.79484e-20)
(0.00215968 -0.00308175 2.23028e-18)
(-0.00445068 0.00321111 1.56333e-18)
(-0.0042476 0.00429978 -6.14826e-19)
(-0.00407021 0.000947778 -2.90082e-18)
(-0.00528818 0.0034803 2.72701e-19)
(-0.00236274 0.00508677 -2.5096e-18)
(-0.0030409 0.00463316 1.91871e-18)
(0.00363977 0.00993854 7.6987e-19)
(0.00204843 0.00447674 -4.89828e-19)
(0.00382967 0.00412545 2.35885e-19)
(0.00463354 0.000202163 -4.84457e-18)
(0.00259859 0.00439132 9.05058e-19)
(0.00360151 0.00171362 -2.63978e-19)
(0.00478433 -0.00133047 2.8994e-18)
(0.00366362 0.00050398 3.0816e-20)
(0.00354492 -2.96114e-05 -7.76676e-20)
(0.00301687 0.000184652 -6.02921e-19)
(0.00234335 -5.84176e-05 6.05329e-19)
(0.00157531 -0.000211677 -1.44871e-19)
(0.000693308 -0.000422956 -3.65215e-20)
(0.000304372 -0.00043004 0)
(0.000264165 -0.000312639 0)
(0.000264837 -0.000205342 0)
(0.000247883 -0.000158643 0)
(0.000228 -8.48137e-05 0)
(0.000228086 -3.59122e-05 0)
(0.000229669 -4.82536e-05 0)
(-0.000125209 1.43974e-06 0)
(-0.000109355 -3.85323e-05 0)
(-9.01236e-05 4.36806e-05 0)
(-8.35906e-05 5.31194e-05 0)
(-7.93922e-05 6.33534e-05 0)
(-3.07041e-05 0.000108437 0)
(-8.82362e-05 0.000117806 1.70719e-21)
(-0.000796837 0.000335613 -1.28921e-19)
(-0.00168641 0.000613938 1.83622e-19)
(-0.0022713 0.000851057 -1.15448e-19)
(-0.00278055 0.00121434 1.27326e-19)
(-0.00298847 0.00141694 -1.98792e-19)
(-0.00515738 0.000775847 3.65727e-20)
(-0.0114856 -0.00138442 -1.16175e-19)
(-0.00364773 0.00254562 1.03978e-18)
(-0.00622722 0.00159626 2.07804e-19)
(-0.00312536 0.00612358 1.38847e-19)
(-0.00295626 0.0021717 -1.29549e-18)
(-0.00358835 0.0112975 -1.15309e-18)
(-0.0025307 0.00963534 -1.85497e-18)
(-0.00233875 0.0139096 -5.82853e-19)
(0.00267433 0.00803764 -3.10332e-18)
(0.00305693 0.0048642 2.70473e-18)
(0.0032277 0.00939192 -4.01843e-19)
(0.00641576 -0.00335792 -2.31027e-19)
(0.00639921 0.000406975 1.54772e-19)
(0.00381188 -0.000250954 5.84152e-19)
(0.00434434 -9.26371e-05 3.27492e-21)
(0.00354397 -0.00017792 2.10115e-20)
(0.00283347 -0.000220474 -1.78446e-19)
(0.00235758 -0.000174715 1.57593e-19)
(0.00174151 -0.000183783 5.28944e-20)
(0.000922701 -0.000304219 2.65041e-20)
(0.000184973 -0.00038031 -1.52009e-21)
(0.00013546 -0.000308769 0)
(0.000133014 -0.000225866 0)
(0.000165826 -0.000161507 0)
(0.000180018 -0.000149893 0)
(0.000197722 -5.33495e-05 0)
(0.000170843 -1.92362e-05 0)
(-0.000126901 2.53387e-05 0)
(-0.00016877 0.000143575 0)
(-0.000165036 0.000158159 0)
(-0.000129767 0.000146104 0)
(-0.000113611 0.000201131 0)
(-5.74529e-05 0.000200982 0)
(-0.000258862 0.000250958 -1.5281e-20)
(-0.00115436 0.000419551 -9.67614e-21)
(-0.00196231 0.000520557 9.46545e-20)
(-0.00254071 0.000543518 -6.87099e-20)
(-0.00295094 0.00046906 1.73346e-19)
(-0.00391822 -7.3003e-05 -4.4757e-20)
(-0.00362559 -0.000822709 -1.07349e-19)
(0.00174384 -0.00103282 1.3803e-19)
(-0.0035985 0.00237788 -8.77783e-20)
(-0.000550188 -0.00595385 -2.72031e-21)
(-0.00457012 0.00326518 9.26539e-19)
(-0.0081142 0.00544432 7.52484e-19)
(-0.00661384 0.00456224 -4.25788e-19)
(-0.00413721 0.0140956 -3.84245e-19)
(0.00206325 0.0169062 -8.95117e-19)
(0.00756198 0.0106963 3.70305e-19)
(0.0112823 0.0061822 -4.20918e-19)
(0.00897328 0.00258049 2.07587e-18)
(0.00806266 -0.00148069 4.52826e-19)
(0.00603139 0.00227758 8.60368e-19)
(0.00733629 -0.00159155 -4.79227e-19)
(0.001012 -0.00215495 -1.96665e-19)
(0.00214411 -0.000919594 2.26301e-19)
(0.00247812 -0.000514464 3.60103e-20)
(0.00221179 -0.000335344 -4.66943e-20)
(0.00176817 -0.000212198 2.63404e-20)
(0.00109029 -0.000207981 -2.05968e-20)
(0.000226339 -0.000271463 1.21401e-20)
(3.27689e-05 -0.000249328 0)
(0.000106885 -0.000199234 0)
(0.000126847 -0.000131257 0)
(0.000130183 -7.35114e-05 0)
(0.000110392 -0.000114131 0)
(0.000148384 5.05404e-05 0)
(-0.000203543 2.15209e-05 0)
(-0.000180291 4.871e-05 0)
(-0.000169512 8.11543e-05 0)
(-0.000186529 0.000192126 0)
(-0.000149778 0.000274538 0)
(-9.80873e-05 0.000299991 0)
(-0.000460029 0.000384716 5.96207e-21)
(-0.00132381 0.000501757 1.3429e-20)
(-0.0019415 0.000451462 -1.78957e-20)
(-0.00257899 0.000496943 -2.54017e-20)
(-0.00273983 0.000160895 3.8149e-21)
(-0.00299785 -7.65174e-06 -1.30739e-20)
(-0.00210119 -0.000603625 7.06622e-20)
(-0.00752184 -0.00150961 -3.31725e-19)
(-0.00517876 -0.00207404 1.10841e-19)
(-0.00118174 -0.00324932 2.95912e-20)
(0.000304403 -0.0108671 -2.57491e-20)
(-0.0106985 -0.00315262 6.99857e-20)
(-0.0205474 0.000624007 -1.3523e-19)
(-0.0188838 0.0228581 -6.50376e-19)
(0.00262949 0.0355563 2.28694e-18)
(0.024019 0.0200932 5.2362e-19)
(0.0162275 5.1096e-05 -9.62564e-20)
(0.0143374 -0.00430573 1.68655e-20)
(0.00747563 -0.00208392 -2.30419e-20)
(0.000533105 -0.00570808 -2.22278e-19)
(0.000204671 0.00344378 4.2753e-20)
(0.00352123 -0.0064777 1.79813e-19)
(0.00238778 0.000338564 -1.35173e-19)
(0.00215724 -0.000270129 7.11025e-20)
(0.00212025 -0.000204964 -6.76794e-20)
(0.00177922 -0.000161472 3.23097e-20)
(0.0011899 -0.000131345 -2.17565e-20)
(0.000317827 -0.000183672 1.68993e-20)
(-4.80627e-05 -0.000194915 0)
(2.59092e-05 -0.000170071 0)
(4.82466e-05 -0.00016704 0)
(8.65893e-05 -9.40704e-05 0)
(9.15452e-05 -1.78815e-05 0)
(0.000125552 -0.000162299 0)
(-0.000322406 5.92267e-05 0)
(-0.000204497 -2.75861e-05 0)
(-0.000242473 9.87962e-05 0)
(-0.000224796 0.000214707 0)
(-0.000204587 0.000305665 0)
(-0.000139902 0.000492713 0)
(-0.000446223 0.000582137 1.19111e-21)
(-0.00126931 0.000649125 2.0572e-21)
(-0.00188602 0.000611161 -1.40388e-20)
(-0.00231019 0.000715342 7.71886e-21)
(-0.00213616 0.000611209 1.22949e-20)
(-0.00149205 -0.000475736 -3.10292e-20)
(-0.00309081 -0.000959159 1.67909e-20)
(-0.000500293 -0.00101399 -3.43102e-20)
(0.00169468 -0.00211324 -3.07999e-19)
(-0.00669941 0.000693991 2.65088e-20)
(-0.00809118 -0.00321952 -1.47952e-19)
(-0.00956683 -0.0106998 -2.26413e-20)
(-0.0529713 -0.00989608 -5.6718e-19)
(0.0388328 -0.0163353 3.26687e-18)
(0.00838517 -0.0223958 -1.80793e-20)
(0.0057947 -0.017047 2.18012e-19)
(0.00746929 -0.00693841 4.87552e-20)
(0.00444199 -0.00665699 -2.39576e-20)
(0.0056696 -0.00289763 7.55915e-21)
(0.00204486 -0.00314289 -8.8879e-21)
(0.00225482 -0.000761385 9.8065e-21)
(0.00223664 -0.000344921 -5.9006e-21)
(0.00176486 -0.000250673 6.46859e-21)
(0.00112948 -0.000146149 -9.43141e-22)
(0.000424246 -0.000120132 -2.3657e-21)
(6.02952e-05 -0.000168062 0)
(8.73299e-05 -0.000212753 0)
(6.89646e-05 -0.000255085 0)
(-2.74459e-06 -0.000232705 0)
(5.10035e-05 -6.14503e-05 0)
(-7.06649e-05 3.50845e-05 0)
(-6.97798e-05 -0.00011751 0)
(-0.000349846 0.000180491 0)
(-0.000384431 0.000209426 0)
(-0.000469022 0.000203877 0)
(-0.000568731 0.00037862 0)
(-0.000487842 0.00074635 0)
(-0.000245903 0.000888158 -3.56644e-21)
(-0.00113742 0.000780202 -5.06535e-21)
(-0.00178535 0.000731314 8.58258e-22)
(-0.00209621 0.00118919 -2.25443e-20)
(-0.00366785 0.00216873 1.17174e-19)
(0.00671454 2.25236e-05 3.78064e-20)
(-0.00558343 -0.00251845 -8.10785e-20)
(-0.00212265 -0.00136078 -1.76249e-19)
(0.00142586 0.000228732 -5.61651e-20)
(0.00758158 -0.00999839 -3.77412e-20)
(0.00818164 -0.0128295 -7.24573e-20)
(0.00957323 -0.01624 -5.02638e-20)
(0.0154042 -0.0321459 -5.99668e-17)
(-0.0207519 -0.0406564 -1.55131e-18)
(0.00877872 -0.0176669 3.14787e-20)
(-0.00352092 -0.00838081 1.76881e-20)
(-0.0020719 -0.00503862 4.63563e-21)
(0.000247539 -0.00218569 7.38905e-21)
(0.00494547 -0.00507618 -4.6255e-20)
(-0.00630523 -0.00332871 4.48929e-20)
(0.00313186 0.00061056 5.89665e-20)
(0.00237292 -6.73358e-05 2.56018e-20)
(0.00142067 -0.000375018 -3.51632e-20)
(0.00102626 -0.000157406 1.51945e-20)
(0.000334885 -7.68773e-06 -4.24617e-21)
(0.000281802 -0.000108091 0)
(0.000303946 -0.000221472 0)
(0.000109682 -0.000208833 0)
(-5.4573e-05 -0.000168042 0)
(-0.000185899 -0.000152463 0)
(0.000151052 0.000211336 0)
(-0.000722862 0.000104496 2.73522e-22)
(-0.000282163 9.35404e-05 0)
(-6.46372e-05 -1.67901e-05 0)
(-0.000287691 -5.69047e-05 0)
(-0.000698837 0.000110578 0)
(-0.000841852 0.00101003 0)
(-0.000164972 0.00105679 -4.00325e-21)
(-0.000540907 0.000150159 -1.01199e-21)
(-0.00340019 0.000582906 -5.01965e-20)
(-0.000777513 -0.00169459 9.34084e-20)
(-0.0034854 0.0110317 8.15205e-20)
(0.000543995 0.000563628 -2.74252e-19)
(-0.00286409 -0.00580876 -1.49762e-20)
(-0.0127321 -0.0118561 -3.26832e-20)
(-0.0104794 0.00598056 -8.36988e-19)
(-0.0254183 -0.00915778 -1.35121e-19)
(0.0130595 -0.0053308 -6.18119e-19)
(0.0757372 -0.0824539 -3.1089e-19)
(0.0096296 -0.00919423 3.9314e-18)
(-0.0123632 -0.00599785 8.49489e-19)
(0.00709929 -0.0688621 -1.93925e-19)
(-0.0157063 -0.0212247 4.166e-19)
(-0.00416075 -0.0140015 -1.16937e-18)
(0.00692885 -0.00372068 -3.8269e-19)
(0.00447631 -0.0134879 2.07495e-19)
(-4.36132e-05 -0.000933207 5.79352e-20)
(0.00180272 0.010333 2.01132e-19)
(0.000615223 -0.00254135 -2.25346e-20)
(0.00312979 -0.00067621 -5.93645e-20)
(0.000579959 0.000118898 -1.81209e-20)
(9.80336e-05 0.000171127 1.02553e-20)
(0.000432657 -1.05423e-05 0)
(0.000436401 -0.000585749 0)
(5.36283e-05 -0.000657652 0)
(-8.65124e-05 -0.000320188 0)
(-0.000354359 -5.50784e-05 0)
(-0.000764453 0.000106543 0)
(-0.000800911 -0.00219606 -7.33091e-24)
(-0.000165622 0.000178911 0)
(-0.00100613 0.000189128 0)
(-0.00114153 7.31936e-05 0)
(-0.000761934 0.000258885 0)
(-0.000946183 0.00190708 0)
(0.00070191 0.00205044 -1.17537e-20)
(-0.000186308 -0.00256822 3.26745e-20)
(0.000314857 0.00457394 3.56603e-20)
(-0.00578862 0.00266221 -1.01973e-19)
(-0.00785979 -0.00802239 1.88944e-20)
(0.00744225 0.00687809 2.63028e-19)
(-0.0243146 -0.0154611 -3.49745e-19)
(0.109614 0.0352759 1.6868e-19)
(0.0248463 0.0528281 -2.83859e-18)
(0.0476649 -0.0350001 2.89583e-18)
(-0.0365162 0.00637311 -3.85998e-19)
(0.00430195 0.0358029 -1.91917e-18)
(0.0596581 -0.106909 2.31347e-18)
(0.0209734 0.167496 8.76389e-19)
(-0.0144254 -0.12991 3.7497e-20)
(0.114482 0.126969 2.97049e-19)
(0.00808125 -0.0433681 1.14228e-18)
(0.0472316 -0.0337836 2.43476e-18)
(0.0148915 0.0387448 -7.45666e-19)
(-0.00647862 0.0639119 6.47414e-19)
(-0.0780046 0.057053 -2.98732e-18)
(0.0205011 -0.0171117 7.12374e-19)
(-0.00709388 0.00193933 -5.91373e-19)
(0.0097246 -0.0108392 -2.47019e-19)
(0.00535572 0.00199094 8.32667e-20)
(0.00023933 0.00390821 6.45118e-20)
(-5.7162e-05 -0.00248364 8.94696e-21)
(-0.00128533 0.00127593 1.54103e-20)
(0.000394077 0.00033013 0)
(0.000181383 -0.000569099 0)
(0.000176825 -0.000245282 0)
(-0.000116078 -4.93291e-05 0)
(0.000135248 2.112e-05 0)
(0.0019296 -0.00306673 0)
(-0.00139266 0.0054127 1.73831e-20)
(0.00103517 -0.00165385 0)
(0.000191567 -0.00151314 0)
(-0.000176594 0.0014186 0)
(-0.00103937 0.000830978 0)
(0.00481252 0.00247917 0)
(-0.00357009 4.0045e-05 -3.03984e-22)
(-0.00144822 -0.00248931 -2.4151e-20)
(0.0030212 0.00406927 -1.37036e-20)
(-0.00309464 -0.00659292 1.85846e-19)
(0.0323523 0.047524 -3.65099e-19)
(-0.0198145 -0.0287036 2.46946e-19)
(-0.0336492 -0.00643823 -1.87986e-19)
(0.0134749 0.0552298 -5.51253e-19)
(-0.0726477 -0.0930181 7.57633e-19)
(0.0867367 0.155028 -9.98752e-20)
(-0.0364493 -0.0396603 2.91523e-18)
(-0.335985 0.262312 6.68039e-18)
(-0.872415 0.653324 -1.55978e-18)
(-2.43516 0.311125 5.09812e-18)
(-2.38152 0.739958 -1.68808e-18)
(-2.06868 -0.20316 3.17038e-18)
(0.426497 0.240822 -1.85334e-18)
(-0.326976 0.00112527 3.45609e-18)
(-0.0708839 -0.0902562 4.65863e-19)
(0.145172 -0.112737 6.3815e-19)
(0.0138424 -0.110957 -2.44266e-19)
(0.0360938 -0.0223646 -5.97914e-19)
(0.0212953 -0.0309268 6.82192e-19)
(-0.035318 0.0480316 3.77128e-19)
(0.00358833 -0.00584588 3.09426e-20)
(-0.00317139 0.00278912 -4.36543e-20)
(0.00156753 -0.00372543 -4.75472e-21)
(0.00241479 -0.000124018 8.71341e-22)
(-0.00491039 0.00123657 0)
(-0.000405696 -0.0001259 0)
(-0.0012252 3.22244e-05 0)
(-0.000869369 -0.00211267 0)
(-0.00188789 -0.00210508 0)
(-0.00239243 0.00546851 -6.86904e-21)
(-0.0111766 0.00198959 2.85827e-20)
(-0.00357646 -0.00028515 0)
(-0.00471132 -0.00264585 0)
(-0.00197336 0.00139305 0)
(0.00174974 0.00516698 0)
(-0.00486678 0.000911223 0)
(-0.000654724 -0.00132651 0)
(-0.00352044 0.0010787 3.07825e-22)
(-0.0120336 -0.0230275 -3.08473e-20)
(-0.0281637 -0.00336602 2.60589e-20)
(-0.0238453 -0.0164112 1.00223e-19)
(0.00411942 0.065145 5.78259e-19)
(0.0453073 -0.0359639 -1.08373e-18)
(-0.0581451 0.0423461 7.80719e-19)
(0.0512462 0.133963 1.83369e-19)
(-0.0191473 -0.0355767 3.09507e-19)
(0.220421 0.188831 1.358e-19)
(-0.205592 1.47148 1.38466e-17)
(0.756677 0.963238 9.93758e-18)
(6.42278 -4.25296 4.58344e-18)
(2.8532 1.03772 -1.44043e-17)
(-1.45431 -4.02468 6.64168e-18)
(-1.10162 -0.607032 -6.36074e-18)
(0.949459 -0.647413 -1.33815e-17)
(0.22414 -0.139644 4.43282e-19)
(-0.0704022 0.0719941 -7.9845e-19)
(0.0534884 0.0359474 -4.77963e-19)
(-0.0441229 -0.0342845 6.51829e-22)
(-0.00983934 0.0654469 2.27173e-19)
(0.0264467 -0.0218906 2.9689e-19)
(0.0282104 -0.00702207 -1.64725e-19)
(0.00999339 -0.0216109 6.45759e-20)
(0.000569174 0.00221884 3.37413e-21)
(-0.000220232 -0.00279729 0)
(0.0033361 2.12388e-05 0)
(-0.00243358 0.00309624 0)
(0.00146966 -0.000772174 0)
(0.0027695 -0.0039841 0)
(0.00121153 -0.000292309 0)
(0.0123952 0.00213819 2.99214e-20)
(-0.00195471 -0.00285929 1.98809e-21)
(-0.000451048 0.0011513 0)
(0.00133141 -0.000902329 0)
(-5.23935e-05 -0.00372166 0)
(-0.00135988 -0.00250599 0)
(-0.000486271 -0.00462692 0)
(-0.00904397 -0.0123403 0)
(-0.00145798 0.00851143 0)
(0.0111196 0.0198652 -3.85646e-21)
(0.0161094 -0.00291354 1.6702e-20)
(-0.0195218 -0.0248167 -5.18277e-20)
(-0.0234951 0.0190661 -1.57136e-19)
(0.0530709 0.00828797 1.08419e-20)
(-0.0387243 -0.0375138 -1.17891e-19)
(-0.0384749 -0.0387916 6.30222e-19)
(-0.0853585 0.0280321 -9.56259e-19)
(-0.0512035 0.063883 1.09162e-18)
(0.963921 0.463676 1.51797e-18)
(-0.981109 -0.314153 -3.83135e-18)
(2.35224 0.776866 -3.15535e-18)
(-1.359 0.488475 1.18287e-17)
(0.355556 1.6188 -5.13093e-18)
(-0.264849 -0.691696 8.65552e-20)
(-0.487284 -0.240185 -6.47708e-18)
(-0.173159 -0.0451674 2.02354e-18)
(-0.0301062 -0.0761686 -1.99686e-19)
(0.0426832 -0.0694535 2.34054e-19)
(-0.0521096 0.0040357 -2.53624e-19)
(0.0224566 0.0188759 4.02419e-20)
(0.0169365 -0.0244457 1.14186e-19)
(-0.0231938 -0.00396061 -3.28979e-20)
(-0.0143054 0.0184246 1.49047e-20)
(0.000397425 0.00500429 0)
(0.00719708 -0.0149528 0)
(-0.00132905 -0.00497705 0)
(0.000195153 -0.00271701 0)
(-0.00127985 -0.00280922 -3.01935e-20)
(-0.00238826 8.57051e-07 -4.17556e-20)
(-0.00109074 0.00119673 -2.48993e-20)
(0.00137454 -0.00292655 0)
(0.00106032 0.00148645 0)
(-0.0029995 0.000551796 0)
(-0.00359222 0.00208692 0)
(-0.00289722 0.00312346 0)
(-0.00209627 0.000274655 0)
(-0.000313802 0.00483754 0)
(0.00605775 0.00642569 0)
(-0.0114844 -0.0149843 0)
(-0.0137722 0.00434455 8.80781e-23)
(-0.00013318 0.0136869 -6.96359e-22)
(0.000563053 -0.0177171 2.0245e-20)
(-0.0360779 -0.01682 -1.67409e-19)
(-0.00934815 0.00999438 1.61216e-19)
(0.038771 0.0345151 -6.25362e-19)
(-0.00273927 -0.0565836 -3.19681e-18)
(0.094717 -0.131499 -1.37471e-20)
(-0.105363 -0.670715 2.46663e-18)
(-1.45908 -1.55757 1.46124e-18)
(1.7067 2.88783 2.04331e-18)
(-0.0461703 0.697777 -1.43598e-18)
(-0.257135 -0.330062 -5.10793e-18)
(0.835604 1.0115 -6.70901e-18)
(-2.16122 2.7459 3.57724e-18)
(0.0178884 -1.03271 -5.18135e-19)
(-0.166756 0.228861 -2.9989e-19)
(0.0940461 -0.108429 6.32179e-19)
(-0.0335748 0.0139485 2.93312e-19)
(0.00706396 -0.000452477 4.29312e-20)
(0.037889 -0.0219541 2.31291e-19)
(1.9912e-05 -0.0186317 -1.77875e-20)
(0.00158734 0.0127375 2.49271e-21)
(0.0145681 -0.000200492 1.31154e-22)
(0.0104723 -0.0166832 0)
(-0.00759404 0.00771743 0)
(-0.000425751 0.00359748 0)
(0.00131142 -0.000269162 0)
(0.00236902 0.00238235 0)
(0.00318496 0.000670299 0)
(0.00281552 -0.000693895 0)
(-0.00117893 0.000853972 4.48439e-21)
(-0.00191082 0.00130746 0)
(0.00356304 0.00185558 0)
(0.00343969 -0.00118955 0)
(-0.000778371 -0.00406245 0)
(-0.00357762 -0.00610818 0)
(-0.00475684 -0.00397755 0)
(-0.000822461 0.00365842 0)
(0.00590238 -0.000149336 0)
(-0.00155301 -0.0111549 0)
(0.00278583 -0.00558744 0)
(-0.0033262 0.00367826 -5.10997e-21)
(0.0072419 0.0112963 -2.3806e-20)
(-0.0418449 -0.0268751 9.30231e-20)
(-0.0165834 0.0144657 -1.3591e-19)
(-0.0440117 -0.00417824 -1.06793e-17)
(-0.151415 0.207528 6.01305e-19)
(-0.117322 0.126477 -3.30682e-18)
(1.7856 0.259952 1.06125e-18)
(-2.07447 -2.12302 -1.28477e-18)
(-1.23582 -1.01027 1.28125e-17)
(-0.541801 4.10511 -8.50823e-18)
(2.63297 -1.72342 -4.17744e-18)
(0.927075 -1.41295 4.77454e-18)
(-1.29505 -0.349483 1.29247e-18)
(0.390163 -0.173971 3.07839e-18)
(-0.00106675 -0.148142 5.34078e-19)
(0.0195086 -0.00877124 3.94779e-20)
(0.0380718 -0.0375403 1.69455e-20)
(-0.00782631 0.0110455 8.37389e-20)
(0.00102118 0.00177341 1.71026e-21)
(-0.00319078 -0.0107865 0)
(-0.000721726 -0.0145323 0)
(-0.00925408 -0.00145466 0)
(-0.00196067 0.00216536 0)
(0.00228032 -0.00603202 0)
(0.000896 -0.00699696 0)
(-0.00220253 -0.00412185 0)
(-0.00601066 -0.000673986 0)
(-0.0052285 0.00260238 0)
(-0.00144005 0.00159848 0)
(0.00153522 -0.00198344 0)
(-0.00228726 -0.0016976 0)
(0.000332497 0.00150439 0)
(0.0028057 0.00111456 0)
(0.00108345 -0.00027778 0)
(-0.00209389 -0.00450058 0)
(-0.00396655 -0.00571776 0)
(-0.000435302 0.000723953 0)
(-0.00283311 -0.000131473 0)
(-0.00501681 -0.00672323 0)
(-0.00186734 0.00506994 0)
(0.0058972 -0.0229641 -9.71725e-23)
(0.0226493 -0.033503 4.08343e-20)
(0.0587209 -0.0288451 1.68602e-20)
(-0.0610118 0.00198317 -3.50816e-18)
(0.453123 -0.0860228 -4.39052e-19)
(-0.601418 -0.389893 -1.10032e-18)
(0.51293 -0.127028 -2.06168e-19)
(-0.498032 0.175521 4.71769e-18)
(0.724321 3.4537 -6.41876e-18)
(-0.817005 6.1358 7.75062e-19)
(0.30946 3.08423 -2.38844e-18)
(0.333191 -0.640868 -2.96608e-18)
(0.324232 -0.562766 -8.38414e-19)
(-0.998982 -0.0723925 1.35839e-18)
(-0.0804953 -0.00733612 1.26295e-18)
(-0.0796192 -0.0309392 3.39527e-19)
(-0.0285013 -0.0350259 3.1194e-20)
(-0.00719585 -0.0274892 7.99199e-22)
(-0.00281191 -0.00297515 0)
(0.00011884 -0.00837972 0)
(-0.00296172 -0.000413941 0)
(-0.00369929 0.00146047 0)
(0.00126797 -0.00594887 0)
(-0.000961209 -0.0045389 0)
(-0.00367465 -0.000120655 0)
(-0.00455546 0.001261 0)
(-0.00105525 0.00149455 0)
(0.00129912 -0.00176252 0)
(-0.00282281 -0.0014707 0)
(0.00596698 0.00151282 0)
(0.00254492 0.00300244 0)
(-0.000476432 -0.000185737 0)
(-0.00217413 0.00158815 0)
(0.00127759 0.000107333 0)
(0.00277627 -0.000231373 0)
(0.00138257 -0.00325412 0)
(-0.000787868 -0.00491125 0)
(0.000967202 -0.00106413 0)
(0.0022347 -8.44038e-05 0)
(0.00233801 -0.000999568 3.68526e-20)
(0.000715461 0.00523843 0)
(0.0153649 0.0165852 0)
(-0.134076 0.18421 -4.40576e-19)
(0.0115758 -0.0014746 1.39047e-18)
(-0.390481 -0.367123 -5.84189e-18)
(-1.03674 1.06388 -4.27374e-19)
(3.5339 1.65464 5.13393e-20)
(0.0732519 -1.57849 8.13234e-20)
(0.676954 1.31203 9.27607e-18)
(-1.1832 2.32148 4.26812e-18)
(0.759547 -1.82842 -3.3782e-18)
(-2.71114 -0.790019 -1.19971e-18)
(-1.76937 2.96601 4.04389e-19)
(2.2423 -1.01318 -1.74662e-19)
(0.00405862 -0.0475517 1.30245e-18)
(0.139482 0.178791 -6.82174e-19)
(-0.0295196 0.0239927 0)
(-0.011508 0.00976613 0)
(-0.00913436 4.57337e-05 -1.23075e-20)
(-0.00638143 0.000728674 0)
(-0.00306825 -0.00098691 0)
(-0.000908081 -0.00514283 0)
(-0.00390398 -0.00323136 0)
(-0.00512972 -0.000277416 0)
(-0.00347524 -0.000565006 0)
(-0.000319834 0.000371859 0)
(-0.00282562 -0.0011859 4.96931e-21)
(-0.00577169 0.00244206 3.56504e-21)
(-0.00710914 0.00150363 0)
(-0.00638221 0.00128977 0)
(-0.000428746 -0.000545901 0)
(0.00348579 0.000280322 0)
(0.00504934 -0.00290208 0)
(0.00250056 -0.00206339 0)
(0.00215698 -0.00165603 0)
(0.00283451 0.000399376 0)
(0.00359276 -0.00146267 0)
(0.00145385 -0.003829 0)
(-0.00147944 -0.00254404 0)
(-0.002721 0.00120755 5.15946e-20)
(-0.0141969 -0.00813842 0)