/*--------------------------------*- C++ -*----------------------------------*\
| =========                 |                                                 |
| \\      /  F ield         | OpenFOAM: The Open Source CFD Toolbox           |
|  \\    /   O peration     | Version:  v2106                                 |
|   \\  /    A nd           | Website:  www.openfoam.com                      |
|    \\/     M anipulation  |                                                 |
\*---------------------------------------------------------------------------*/
FoamFile
{
    version     2.0;
    format      ascii;
    arch        "LSB;label=32;scalar=64";
    class       volVectorField;
    location    "0";
    object      Ulift0;
}
// * * * * * * * * * * * * * * * * * * * * * * * * * * * * * * * * * * * * * //

dimensions      [0 1 -1 0 0 0 0];

internalField   nonuniform List<vector> 
12556
(
(100.0265475 -0.02841735167 -7.71438197e-24)
(100.093034 -0.1563652709 -4.234456862e-20)
(100.2182753 -0.4893434157 -4.244403247e-20)
(100.6837576 -1.45384441 -4.264106047e-20)
(101.3702199 1.700911426 1.851005455e-22)
(99.98774304 -0.2497116578 0)
(99.93001589 -0.05004724582 0)
(99.98680919 0.02132669321 -1.713234657e-23)
(99.98210768 0.09315292094 2.646504608e-21)
(99.98177816 0.1747223538 -5.135779566e-23)
(99.98269777 0.2547794725 -1.373709842e-22)
(99.98648506 0.3246216495 0)
(99.99254646 0.3737971093 0)
(100.0006535 0.3891231389 -9.726206836e-23)
(100.0073987 0.3734784484 -2.740871752e-21)
(100.0079622 0.3427702526 -5.294373351e-21)
(100.0071576 0.3135686437 0)
(100.0323222 0.2539731936 5.263826043e-21)
(99.96623904 0.3791990511 9.26561684e-23)
(100.2435165 0.1637271803 -5.285794861e-21)
(100.7276716 1.591562573 1.705503015e-19)
(100.2407121 0.5532447145 0)
(100.1053092 0.1827789935 3.377401352e-23)
(100.0331924 0.03519670341 1.69465089e-19)
(100.0781259 -0.02674042048 1.695386379e-19)
(100.1810514 -0.04850014034 -4.242831841e-20)
(100.3529902 0.04533413405 4.290484123e-20)
(100.8520534 0.6824564656 -4.12279403e-20)
(98.02074391 0.2114342298 2.722903505e-23)
(99.52157049 -0.06918801793 -4.815580962e-24)
(99.78891668 0.2152779381 0)
(99.85118118 0.3557864642 2.167469675e-23)
(99.86112955 0.5793492575 3.388220171e-23)
(99.84457512 0.8534326111 -1.057154789e-20)
(99.84228388 1.159964238 6.499328653e-23)
(99.87200406 1.449876177 1.057452093e-20)
(99.93798795 1.646202067 -9.098850931e-23)
(100.0186761 1.688442254 9.322569179e-23)
(100.0869283 1.570153884 1.324642625e-21)
(100.1161733 1.348683138 9.191542135e-22)
(100.1099891 1.091213017 -1.245287368e-25)
(100.0616657 0.849559631 0)
(99.87433553 0.7705055888 4.354766021e-22)
(99.24987222 0.7068824178 -1.007549333e-20)
(101.0155681 -0.2845862386 1.711274983e-19)
(100.4597832 0.2077781638 2.050561086e-22)
(100.2539925 0.1848981504 2.807141887e-22)
(100.1319553 0.06954143247 1.696297911e-19)
(100.0964133 0.007040730987 1.695697117e-19)
(100.1412609 0.05064430233 -3.392913799e-19)
(100.1838147 0.1779811209 7.877090069e-20)
(100.1696401 0.4492235963 -2.01433229e-21)
(99.59405724 0.6004175979 -6.326989751e-20)
(99.5067692 0.4048990805 -2.132646635e-20)
(99.54386013 0.4855726882 2.829940205e-22)
(99.61235355 0.6834019316 0)
(99.52885041 1.055225328 1.072490363e-26)
(99.44143358 1.549282421 -1.044374348e-20)
(99.4092624 2.137251364 1.040888209e-20)
(99.50641346 2.712692284 5.415356881e-21)
(99.75495103 3.109911214 1.488685242e-21)
(100.0766859 3.184349719 4.145780409e-21)
(100.3391651 2.928096999 0)
(100.4675852 2.46245838 5.31863487e-21)
(100.4655302 1.928058863 -1.247610775e-25)
(100.3806902 1.429892636 2.472118248e-22)
(100.1429609 0.9745585278 -1.68580723e-19)
(99.91917417 0.4201417137 1.060624537e-19)
(100.5250233 0.1081331546 -1.711949978e-19)
(100.4361165 0.1606179648 -7.71220981e-22)
(100.325563 0.1319346922 -3.861567308e-23)
(100.2453827 0.05087379557 0)
(100.0738929 0.01657241072 -5.829897123e-23)
(100.0743071 0.06706256061 -3.38875182e-19)
(100.0408674 0.1611769916 4.499121173e-22)
(99.92598173 0.3001614309 0)
(99.71393238 0.4175792744 0)
(99.4992272 0.4748254774 1.685599819e-19)
(99.34146091 0.6335855589 7.434071261e-21)
(99.2703401 0.908755324 8.658317019e-27)
(99.03646888 1.422450765 -1.048612646e-20)
(98.79348684 2.1518724 -1.168514356e-22)
(98.6720113 3.072864288 -1.061389964e-20)
(98.83665204 4.084605239 -2.199090704e-22)
(99.42390672 4.842472895 -6.579597034e-22)
(100.2343128 4.961504159 0)
(100.8556622 4.439077846 0)
(101.1175514 3.597258989 -9.653794863e-23)
(101.1042276 2.723301032 0)
(100.9337158 1.945337461 0)
(100.6486738 1.254598473 -1.980725021e-23)
(100.4675493 0.7012241275 4.23013088e-20)
(100.5533564 0.3552736506 -1.699037228e-19)
(100.4790315 0.2265040117 9.272096355e-23)
(100.3947166 0.1358404601 -4.51900651e-23)
(100.3367558 0.04622616495 0)
(100.0472183 0.0115058392 0)
(100.0215329 0.04477673963 0)
(99.9497679 0.1026927529 1.691903832e-19)
(99.80620946 0.1868877461 -4.47054256e-23)
(99.6432018 0.2852030316 -9.854208161e-21)
(99.38746023 0.4134829172 0)
(99.09175136 0.6270959999 0)
(98.84580393 0.9689272592 0)
(98.38622233 1.591248198 -7.408341395e-21)
(97.88450095 2.516581406 -2.072900543e-20)
(97.47089982 3.874282854 0)
(97.58297456 5.627126335 -1.033266181e-20)
(98.77984419 7.124205183 -2.727454079e-22)
(100.6069703 7.284067507 1.065098814e-20)
(101.8354276 6.193356556 2.353056234e-21)
(102.2074363 4.700386983 -1.729411914e-19)
(102.049104 3.366123973 -1.143284157e-20)
(101.6964559 2.323521072 1.159753499e-20)
(101.2546647 1.450665946 2.589866002e-19)
(100.9281063 0.8692247024 -2.137219769e-20)
(100.7421497 0.4494243233 0)
(100.5902096 0.2591942803 -9.741120619e-23)
(100.4829725 0.1375579229 -5.923875922e-23)
(100.4210842 0.04346514759 -3.367673973e-24)
(100.0380049 -0.00194957216 0)
(99.99632192 0.0008479241988 0)
(99.90184484 0.02013378528 1.692402016e-19)
(99.73561973 0.06146906097 3.379169968e-19)
(99.55268167 0.1416750424 0)
(99.24195649 0.2662713033 0)
(98.82466912 0.476418065 -2.0574619e-20)
(98.38895308 0.8286652342 -1.587133954e-20)
(97.66949306 1.43564335 -3.775923599e-22)
(96.73463272 2.436578812 3.17497959e-21)
(95.64927959 4.210199827 8.105503151e-20)
(95.13581601 7.21276532 6.593282259e-20)
(97.38312598 10.61089133 2.5776302e-21)
(101.6646919 10.64448125 0)
(103.7528753 8.136932524 -1.754162266e-19)
(103.9312006 5.616333006 0)
(103.3466134 3.732959457 7.025304867e-22)
(102.6222698 2.430830982 4.492575896e-20)
(101.910529 1.453103389 1.078992612e-19)
(101.378089 0.868144087 -2.130110411e-20)
(100.966583 0.4195594025 0)
(100.7232255 0.2293197628 0)
(100.5727988 0.1134311511 1.07735325e-23)
(100.4938778 0.03411655021 4.25631798e-20)
(100.0591077 -0.0206391857 4.237667697e-20)
(100.0067741 -0.05731516254 -4.235450849e-20)
(99.89662472 -0.08246782721 4.228519381e-20)
(99.7089816 -0.08992190614 3.589224387e-19)
(99.48969681 -0.03880747945 -4.209829402e-20)
(99.12100117 0.03837764324 -2.098967727e-20)
(98.59741764 0.1854467653 -1.249281632e-19)
(97.99006792 0.4749761476 1.052923111e-20)
(97.03131555 0.931466416 -2.027466711e-20)
(95.58782302 1.725669674 2.024220362e-20)
(93.38757099 3.296351043 5.348205857e-21)
(90.08988416 7.584235505 1.025393312e-20)
(93.01634208 17.56812621 -6.600860373e-22)
(105.593791 16.10595018 1.883737938e-19)
(107.357144 9.782037033 0)
(106.3955794 5.887141047 -2.145053964e-21)
(104.9417948 3.568935922 6.243569414e-21)
(103.6405904 2.170410975 -5.486626118e-21)
(102.5378092 1.194994121 0)
(101.794691 0.68472139 -4.298137724e-20)
(101.1660195 0.274394561 -4.047040961e-23)
(100.8361541 0.1316171924 -1.145698441e-23)
(100.6392983 0.05558946275 4.262967032e-20)
(100.5395188 0.01471511235 4.692401982e-25)
(100.1186264 -0.04265928485 4.24018818e-20)
(100.0592293 -0.1250947988 -4.237671656e-20)
(99.93875818 -0.200546137 4.234568571e-20)
(99.73455758 -0.265070412 2.120253934e-20)
(99.48104747 -0.2560862071 -5.243034182e-21)
(99.06705667 -0.2558403717 3.820252077e-27)
(98.46853404 -0.2155793224 -1.668316832e-19)
(97.74501666 -0.05564588465 2.552066773e-21)
(96.64349305 0.1320040074 0)
(94.91407023 0.4168918809 -1.506420234e-20)
(92.12203364 0.7126640184 9.754013746e-21)
(86.69891804 0.6541569769 -8.935461027e-21)
(117.2495395 20.69870309 2.117606863e-21)
(112.8895286 9.100937047 -4.787592702e-22)
(109.2704746 4.788855842 5.784543104e-21)
(106.5423162 2.632033252 -1.128029841e-20)
(104.5696328 1.45878176 -2.748841834e-21)
(103.0381914 0.6680889844 6.56709844e-23)
(102.1147504 0.3241720007 1.079588973e-20)
(101.2943105 0.02948012405 3.122282284e-24)
(100.8940673 -0.02737604083 -6.517706696e-24)
(100.6579318 -0.03446973487 8.526272352e-20)
(100.5391952 -0.01450780786 1.032159438e-27)
(100.221299 -0.066359897 -2.122268238e-20)
(100.1581775 -0.1980232609 -2.121948553e-20)
(100.0329664 -0.3276199136 -1.703656999e-23)
(99.82066675 -0.454423426 2.11606649e-20)
(99.54311193 -0.4965862952 5.294828263e-21)
(99.10592048 -0.588385497 0)
(98.47296787 -0.6751664758 -2.081785597e-20)
(97.70650382 -0.6735675806 8.115179786e-23)
(96.59405513 -0.7664764102 -1.864945197e-22)
(94.92105415 -0.9509021206 -1.14194175e-22)
(92.65702412 -1.500471309 8.826408101e-22)
(90.48148037 -3.049793368 5.987481778e-22)
(130.2150101 9.688409714 0)
(117.5461982 4.182635596 -2.653601916e-21)
(111.4654591 1.991596972 -8.206602688e-25)
(107.6732932 0.891327665 -1.42504261e-21)
(105.1746797 0.3274046636 -5.397855522e-23)
(103.3121426 -0.0803193498 -4.705797344e-24)
(102.2694464 -0.1777529813 1.084012323e-20)
(101.3156278 -0.2885092092 -3.427583769e-23)
(100.8702903 -0.2315364425 0)
(100.6083298 -0.1488604397 4.260929901e-20)
(100.4764651 -0.05144343171 4.255344221e-20)
(100.3690033 -0.09038689038 -5.165241537e-28)
(100.3055628 -0.2718763728 -4.248103269e-20)
(100.1812025 -0.4559350395 0)
(99.97072036 -0.6455242353 4.232365201e-20)
(99.68272138 -0.7433683223 -3.812778354e-23)
(99.24610677 -0.9298835703 -5.254036985e-21)
(98.61833718 -1.141597212 0)
(97.86657965 -1.29067122 3.238131624e-22)
(96.82647366 -1.601571865 -1.836273139e-22)
(95.3208903 -2.04008266 -8.639005098e-22)
(93.49973855 -2.698626446 0)
(91.9277007 -3.477759551 -1.824943756e-21)
(129.7987636 -4.978785389 -1.47362775e-21)
(118.2788657 -2.550548583 0)
(111.9361413 -1.67469867 5.950488469e-27)
(107.9095908 -1.283047577 -1.017864395e-21)
(105.2612671 -1.038073383 1.550869195e-21)
(103.285066 -0.9418411979 -4.893430133e-21)
(102.2144205 -0.7548856828 0)
(101.2075766 -0.642073759 6.424982607e-23)
(100.7485419 -0.4576657653 4.264467187e-20)
(100.4778471 -0.2750751252 -1.425359242e-23)
(100.3406764 -0.09192902908 0)
(100.5610093 -0.1133115407 2.129461625e-20)
(100.5001863 -0.3419944683 -2.128172545e-20)
(100.3821612 -0.5774983062 2.125673045e-20)
(100.1830973 -0.8261177709 2.119238795e-20)
(99.89827684 -0.9791504921 5.060719394e-23)
(99.48331673 -1.253552198 0)
(98.89178252 -1.576221597 -8.22337015e-23)
(98.19098978 -1.854821442 -2.224673902e-22)
(97.24879096 -2.325677946 6.444940773e-22)
(95.870846 -2.910099588 3.097970282e-22)
(94.17783744 -3.579826583 -2.048017203e-21)
(92.66183457 -4.139461922 -1.254703862e-21)
(122.7702199 -13.91842941 1.396605865e-21)
(115.5822126 -7.930779314 0)
(110.6390607 -4.95479301 1.855114544e-21)
(107.1845442 -3.334636884 0)
(104.7894103 -2.365550458 -4.308217657e-22)
(102.9419233 -1.778203203 0)
(101.9442259 -1.324348826 -2.071595127e-20)
(100.9662698 -0.985323044 1.712194895e-19)
(100.5253695 -0.6792821243 4.264225453e-20)
(100.2630282 -0.3995221756 4.240106234e-20)
(100.1288693 -0.1320577739 -6.683305319e-24)
(100.7938964 -0.1337780067 8.537581212e-20)
(100.7382751 -0.4043963635 0)
(100.6314578 -0.6852179004 2.130951758e-20)
(100.4518911 -0.9849163747 0)
(100.1818522 -1.189253492 0)
(99.80529128 -1.538575471 1.064747897e-20)
(99.27239693 -1.952716818 1.158794202e-21)
(98.64498638 -2.338989753 -2.535944006e-22)
(97.81032258 -2.938970239 1.632276593e-22)
(96.53240011 -3.663914269 4.012272867e-22)
(94.83361873 -4.452517436 -2.242270924e-21)
(93.20564355 -5.085715227 -2.467024989e-21)
(114.6358022 -17.51214651 -3.490613758e-21)
(111.2891617 -10.85842731 -1.178213648e-20)
(108.2444414 -7.104806758 2.723673411e-21)
(105.7648282 -4.850548437 8.398514567e-21)
(103.8763625 -3.428148204 -2.74955454e-21)
(102.3333176 -2.473053093 -5.41746498e-21)
(101.4885278 -1.815804721 -7.464287407e-23)
(100.6072177 -1.28195725 1.713009707e-19)
(100.2096122 -0.8742595588 0)
(99.96968237 -0.5100593771 4.23387176e-20)
(99.8455728 -0.167741052 0)
(101.0625925 -0.1509041395 8.56034174e-20)
(101.0138184 -0.4571231794 -1.829555823e-20)
(100.9212531 -0.7760464436 6.051807569e-21)
(100.7670278 -1.11855113 9.698718692e-20)
(100.5223326 -1.363303268 -7.340027752e-23)
(100.1964859 -1.769686157 0)
(99.73741619 -2.251160077 -4.223912034e-20)
(99.20023686 -2.724047703 1.64112927e-22)
(98.49453145 -3.429646313 3.258905717e-22)
(97.35854075 -4.313491183 2.314676099e-22)
(95.7451847 -5.399379837 1.703930286e-21)
(94.00631747 -6.347001983 0)
(104.2204349 -26.71445643 -8.091426366e-21)
(107.1760766 -16.83379858 0)
(106.9374799 -11.49719762 1.415275847e-21)
(105.5417709 -7.986187052 0)
(104.0367373 -5.673635541 5.507513945e-21)
(102.7169372 -4.108421589 9.132307953e-24)
(101.5534275 -2.957445138 6.958418821e-21)
(100.9019879 -2.183516738 0)
(100.1579642 -1.508706741 0)
(99.81908953 -1.026485833 -1.693117966e-19)
(99.61071054 -0.5978950818 -9.159099384e-23)
(99.50160862 -0.1965118138 8.429107315e-20)
(101.3581798 -0.164168276 0)
(101.3172876 -0.4971178635 0)
(101.2410637 -0.8440260651 0)
(101.1147272 -1.216286278 0)
(100.9000428 -1.49806227 0)
(100.6271124 -1.947833487 0)
(100.2496428 -2.477719982 0)
(99.8150057 -3.009543668 0)
(99.26124411 -3.784442159 0)
(98.34754905 -4.795584927 0)
(97.09112613 -6.222539298 0)
(95.59452447 -8.3704511 0)
(97.26974602 -16.81369457 0)
(102.588343 -13.82541321 0)
(103.4920362 -10.52263673 7.517272871e-21)
(103.134947 -7.865696894 0)
(102.349365 -5.878563034 0)
(101.5089806 -4.40624036 -2.307436923e-23)
(100.7047332 -3.218646463 2.34766628e-20)
(100.2453792 -2.411834038 -1.941198737e-20)
(99.65106534 -1.655623146 -1.119899218e-20)
(99.37615671 -1.129349384 -2.555855123e-19)
(99.20358745 -0.6585305862 0)
(99.11183585 -0.2163717507 -8.395075535e-20)
(101.6745001 -0.1727172 0)
(101.6421527 -0.5226851838 0)
(101.5835807 -0.8865671003 0)
(101.4868728 -1.275376492 0)
(101.3073333 -1.579302383 0)
(101.09318 -2.048341143 0)
(100.8013447 -2.5932205 0)
(100.4759381 -3.148701468 0)
(100.0846299 -3.925693392 0)
(99.45687662 -4.928382293 0)
(98.78058381 -6.318273539 0)
(97.54337405 -7.859905857 0)
(98.55240007 -10.80559284 -1.065513719e-30)
(100.5146245 -10.47246767 0)
(101.2898099 -8.905620966 0)
(101.2908404 -7.17665626 0)
(100.9026376 -5.653131659 0)
(100.3916167 -4.401566263 -2.126148137e-20)
(99.8766101 -3.290796423 0)
(99.57220149 -2.510180632 0)
(99.11857083 -1.725241221 7.484286441e-20)
(98.90506442 -1.182881678 -8.694583584e-20)
(98.76702583 -0.691619325 7.201369501e-23)
(98.6927669 -0.2276528104 -1.671687288e-19)
(102.0027072 -0.1768180573 0)
(101.9785795 -0.5347196823 0)
(101.9369092 -0.905424239 0)
(101.8681741 -1.298926717 0)
(101.7241091 -1.61378381 0)
(101.564701 -2.082724763 0)
(101.3512392 -2.617246554 0)
(101.1244078 -3.162458155 0)
(100.8622089 -3.889397469 0)
(100.4674195 -4.763412463 0)
(100.0795465 -5.823232334 0)
(96.48974616 -6.606869401 0)
(99.30680121 -8.128466882 9.784286106e-35)
(99.78709126 -8.146866713 0)
(100.0424733 -7.383850924 0)
(99.99804078 -6.30762288 0)
(99.75422981 -5.199164872 0)
(99.4287405 -4.19482286 0)
(99.11554075 -3.222750055 1.692217677e-19)
(98.92164064 -2.501691727 7.131918713e-21)
(98.58725309 -1.728927069 8.235367235e-20)
(98.42678033 -1.193663554 4.452810339e-20)
(98.31821475 -0.7000916751 1.171929347e-21)
(98.26023393 -0.230725936 0)
(102.3347751 -0.1768138811 0)
(102.3182184 -0.5342900821 0)
(102.2915242 -0.9029695421 0)
(102.2473374 -1.290889362 0)
(102.1358935 -1.606441651 0)
(102.0230448 -2.059382928 0)
(101.8738853 -2.563597337 0)
(101.7236307 -3.072783579 0)
(101.5506307 -3.71035412 0)
(101.2708444 -4.419753258 0)
(100.9765848 -5.185559774 0)
(95.8116871 -5.557640938 0)
(99.72816564 -6.522329007 2.395925282e-39)
(99.49239165 -6.563739024 0)
(99.32404819 -6.147131962 0)
(99.12333387 -5.458678029 0)
(98.88303916 -4.669107 0)
(98.64197549 -3.887694152 0)
(98.43924283 -3.054588477 0)
(98.31941157 -2.412663792 0)
(98.07620625 -1.680563268 8.643542024e-21)
(97.95725326 -1.16895021 4.666644898e-20)
(97.87330626 -0.6883105524 -2.722615304e-22)
(97.82814087 -0.227240644 -7.699973263e-23)
(102.6636348 -0.173423555 0)
(102.6536647 -0.5234985283 0)
(102.6392876 -0.8824920261 0)
(102.6151013 -1.256608438 0)
(102.5314144 -1.564519798 0)
(102.4548748 -1.990762483 0)
(102.3521553 -2.452436972 0)
(102.2535736 -2.911569349 0)
(102.1252798 -3.451005327 0)
(101.8808628 -4.010414121 0)
(101.6018795 -4.569698711 0)
(95.53347447 -4.736258977 0)
(99.95789391 -5.406452059 0)
(99.3396867 -5.427961558 0)
(98.88150514 -5.16918844 0)
(98.52318685 -4.70728364 0)
(98.23168563 -4.135615123 0)
(98.00775157 -3.528901029 0)
(97.85559501 -2.828694504 0)
(97.77641259 -2.26890554 0)
(97.59707793 -1.593807162 0)
(97.50870539 -1.116929312 0)
(97.4448301 -0.6616173788 0)
(97.40749572 -0.2183741242 0)
(102.983601 -0.167354746 0)
(102.9787603 -0.504362637 0)
(102.9738689 -0.8480108183 0)
(102.964611 -1.202479202 0)
(102.9031189 -1.496384565 0)
(102.8521879 -1.889749717 0)
(102.7791137 -2.304275543 0)
(102.709945 -2.709448684 0)
(102.5936125 -3.158368905 0)
(102.3435324 -3.597976139 0)
(102.0467299 -4.013528866 0)
(95.52336661 -4.080802193 0)
(100.0844579 -4.568007934 0)
(99.23969014 -4.569979109 0)
(98.58670896 -4.390386086 0)
(98.09774043 -4.063116414 0)
(97.73987565 -3.638355505 0)
(97.49955094 -3.163388902 0)
(97.36005686 -2.578554247 0)
(97.29711305 -2.095941172 0)
(97.15784235 -1.484390394 0)
(97.08876059 -1.046857886 0)
(97.03719421 -0.6225802517 0)
(97.00821073 -0.2065875177 0)
(103.2902423 -0.1592333487 0)
(103.2889381 -0.4792266799 0)
(103.2907846 -0.8034975637 0)
(103.2913729 -1.13456126 0)
(103.2470062 -1.410595481 0)
(103.211492 -1.768376166 0)
(103.1542763 -2.135766126 0)
(103.097561 -2.489199634 0)
(102.9725799 -2.861076173 0)
(102.6992939 -3.209340901 0)
(102.3646561 -3.525983138 0)
(95.67255852 -3.545581245 0)
(100.1519077 -3.908135062 0)
(99.16260837 -3.896170238 0)
(98.37548141 -3.76017564 0)
(97.78417011 -3.516299543 0)
(97.36141898 -3.191376969 0)
(97.08989479 -2.814232732 0)
(96.9414877 -2.325250534 0)
(96.87813402 -1.910969641 0)
(96.7609897 -1.363335661 0)
(96.70219735 -0.9671168824 0)
(96.6581453 -0.5772577514 0)
(96.63366427 -0.1918368694 0)
(103.58029 -0.1496516989 0)
(103.581183 -0.44982784 0)
(103.587087 -0.7523894384 0)
(103.5929899 -1.058103245 0)
(103.561134 -1.313967605 0)
(103.5331668 -1.636165492 0)
(103.4810384 -1.9596348 0)
(103.4253607 -2.266238724 0)
(103.2803723 -2.574993863 0)
(102.9783459 -2.854529966 0)
(102.5924263 -3.099376117 0)
(95.90694667 -3.099256645 0)
(100.1838323 -3.373149291 -2.030140383e-35)
(99.09684976 -3.3513721 0)
(98.21474185 -3.241927159 0)
(97.54424632 -3.052243027 0)
(97.06378928 -2.796706813 0)
(96.75619804 -2.492106847 0)
(96.58776398 -2.081229321 0)
(96.51392556 -1.725672012 0)
(96.40577569 -1.239040575 0)
(96.35057032 -0.8831545632 0)
(96.3099219 -0.5289083325 0)
(96.28768197 -0.1761570354 0)
(103.851633 -0.1393145961 0)
(103.8535821 -0.4182634077 0)
(103.8613276 -0.6979097573 0)
(103.868735 -0.9779312822 0)
(103.8459533 -1.212412106 0)
(103.8189919 -1.500935413 0)
(103.7644473 -1.784435785 0)
(103.7029513 -2.04996955 0)
(103.532304 -2.307556707 0)
(103.2019498 -2.535454482 0)
(102.7535369 -2.727519128 0)
(96.18234656 -2.720899082 0)
(100.1935238 -2.930065801 0)
(99.03835415 -2.901977792 0)
(98.08651596 -2.809957023 0)
(97.35459358 -2.657152884 0)
(96.82482694 -2.451126203 0)
(96.48124507 -2.200930119 0)
(96.2878268 -1.853309128 0)
(96.19748331 -1.547434988 0)
(96.08985923 -1.116895163 0)
(96.03357009 -0.7994350509 0)
(95.99327414 -0.4800739989 0)
(95.97155263 -0.1600653713 0)
(104.1032813 -0.1286920752 0)
(104.1053565 -0.3859578637 0)
(104.1130551 -0.6426072893 0)
(104.1192275 -0.8974789681 0)
(104.1023481 -1.109962563 0)
(104.0720036 -1.367839744 0)
(104.0097914 -1.615849393 0)
(103.9381166 -1.845856911 0)
(103.7405058 -2.062360552 0)
(103.3845201 -2.250796095 0)
(102.8659351 -2.403397059 0)
(96.46873994 -2.397052041 0)
(100.1887462 -2.557904081 -3.07896504e-35)
(98.98445909 -2.525750592 0)
(97.98044725 -2.446053983 0)
(97.20051916 -2.31941103 0)
(96.62919363 -2.149686175 0)
(96.25190914 -1.941018998 0)
(96.03211217 -1.644654842 0)
(95.92254465 -1.38056023 0)
(95.81012689 -1.000591928 0)
(95.74966123 -0.7184643185 0)
(95.70767523 -0.4324954769 0)
(95.6851888 -0.1444674643 0)
(104.3352031 -0.1182995051 0)
(104.3365601 -0.3543127778 0)
(104.3425634 -0.5883530623 0)
(104.3455597 -0.8189570567 0)
(104.3318066 -1.010202956 0)
(104.2950622 -1.240258363 0)
(104.2222143 -1.45696 0)
(104.1386479 -1.656560657 0)
(103.9145278 -1.839903901 0)
(103.5360056 -1.998043929 0)
(102.9429714 -2.119934404 0)
(96.75106873 -2.117889837 0)
(100.1745035 -2.241598386 0)
(98.93440343 -2.207602344 0)
(97.89026825 -2.136993741 0)
(97.07237162 -2.029630901 0)
(96.46620594 -1.887160656 0)
(96.0582635 -1.710781612 0)
(95.81269621 -1.45622518 0)
(95.68293929 -1.227037164 0)
(95.56305545 -0.8919766698 0)
(95.496641 -0.642200453 0)
(95.4516703 -0.3872670307 0)
(95.4276163 -0.1294265719 0)
(104.5480346 -0.1083299722 0)
(104.5477335 -0.3238687212 0)
(104.550862 -0.5365595417 0)
(104.5489487 -0.7443876205 0)
(104.5364164 -0.9154733453 0)
(104.4917286 -1.120488886 0)
(104.4066792 -1.309715277 0)
(104.3105658 -1.483024466 0)
(104.0619833 -1.639649456 0)
(103.6635058 -1.773986319 0)
(102.9934453 -1.872481029 0)
(97.0201062 -1.876075552 0)
(100.1535491 -1.971689546 1.18666748e-35)
(98.88726349 -1.936473757 0)
(97.81198196 -1.873107554 0)
(96.96364487 -1.780396476 0)
(96.32814781 -1.658789308 0)
(95.89278345 -1.50784475 0)
(95.62306074 -1.287446768 0)
(95.47367065 -1.087486427 0)
(95.34507366 -0.7920199756 0)
(95.27200456 -0.5711687411 0)
(95.22341277 -0.3449630371 0)
(95.19727442 -0.1154656172 0)
(104.7427644 -0.09901977984 0)
(104.7399767 -0.2956022933 0)
(104.7394236 -0.4884696289 0)
(104.7309628 -0.6752966379 0)
(104.7191284 -0.827282963 0)
(104.6647367 -1.009761203 0)
(104.5660351 -1.174816304 0)
(104.4582978 -1.325562586 0)
(104.1879449 -1.460176653 0)
(103.7717012 -1.575648825 0)
(103.0253604 -1.655817606 0)
(97.27288901 -1.665915255 0)
(100.1291182 -1.740075784 0)
(98.84329844 -1.704718769 0)
(97.74296173 -1.647257014 0)
(96.86973138 -1.565877556 0)
(96.20943395 -1.460440405 0)
(95.74976378 -1.329461634 0)
(95.45786367 -1.137027983 0)
(95.28991333 -0.9614369432 0)
(95.15287814 -0.7005759 0)
(95.07322015 -0.5057831613 0)
(95.02086258 -0.3057196705 0)
(94.99239637 -0.1023395305 0)
(104.9207946 -0.09055924746 0)
(104.9150699 -0.2700723223 0)
(104.9098897 -0.4452420849 0)
(104.893422 -0.6129856965 0)
(104.8815865 -0.7468590883 0)
(104.8165141 -0.9091047274 0)
(104.7034849 -1.05225476 0)
(104.5862668 -1.18340059 0)
(104.2965714 -1.299893945 0)
(103.8645988 -1.399769844 0)
(103.0445552 -1.4658296 0)
(97.50837517 -1.482569607 0)
(100.1026236 -1.541489936 0)
(98.80208156 -1.50674802 0)
(97.68111519 -1.454151307 0)
(96.78727651 -1.381463429 0)
(96.10594718 -1.288459475 0)
(95.62490413 -1.173064396 0)
(95.3127109 -1.003241016 0)
(95.12798127 -0.8478870621 0)
(94.98353512 -0.6171125014 0)
(94.89787853 -0.4454894065 0)
(94.84203371 -0.2694272708 0)
(94.81117059 -0.09030023958 0)
(105.0841601 -0.08338818636 0)
(105.0752083 -0.2483907873 0)
(105.0641189 -0.4079845125 0)
(105.0382976 -0.5587389244 0)
(105.0258727 -0.675039985 0)
(104.9485988 -0.8193782112 0)
(104.8212153 -0.9422411073 0)
(104.6968676 -1.0556385 0)
(104.3906393 -1.156295891 0)
(103.9451424 -1.243341363 0)
(103.0553425 -1.298557536 0)
(97.72769015 -1.323050291 0)
(100.0755991 -1.371186389 0)
(98.76349521 -1.338457195 0)
(97.6249165 -1.289884031 0)
(96.71339005 -1.223589786 0)
(96.01404012 -1.139608738 0)
(95.51439476 -1.036152685 0)
(95.18365883 -0.8841560435 0)
(94.98422298 -0.745258694 0)
(94.83447208 -0.5404346172 0)
(94.74384668 -0.3898403278 0)
(94.68508979 -0.23570495 0)
(94.65192832 -0.0789706269 0)
(105.2354703 -0.07768015381 0)
(105.222737 -0.2308379938 0)
(105.2044313 -0.3776811827 0)
(105.1678949 -0.5142633686 0)
(105.1535511 -0.6134663112 0)
(105.0622984 -0.7414843545 0)
(104.920141 -0.8444830803 0)
(104.7921163 -0.9410062092 0)
(104.4722311 -1.027296144 0)
(104.0154009 -1.102680631 0)
(103.0614942 -1.150001242 0)
(97.93365521 -1.183616575 0)
(100.0503308 -1.227201848 0)
(98.72771973 -1.197447035 0)
(97.57274573 -1.152099236 0)
(96.64525726 -1.089702764 0)
(95.93018975 -1.011292548 0)
(95.41464228 -0.9160854437 0)
(95.06703518 -0.7773013545 0)
(94.85588163 -0.6514725978 0)
(94.70356905 -0.4691189536 0)
(94.60937756 -0.3375997299 0)
(94.54855744 -0.2039811527 0)
(94.51327307 -0.0684079699 0)
(105.3776795 -0.07367069057 0)
(105.3604173 -0.2184439447 0)
(105.3338118 -0.355848813 0)
(105.285757 -0.4823952395 0)
(105.2662533 -0.5643921198 0)
(105.1577325 -0.6772156142 0)
(104.9992447 -0.7591515295 0)
(104.872584 -0.8384360169 0)
(104.5415978 -0.909648138 0)
(104.0763369 -0.9736344889 0)
(103.0670032 -1.015373511 0)
(98.13150742 -1.061817207 0)
(100.0293118 -1.107561769 0)
(98.69509344 -1.083175818 0)
(97.5227876 -1.040089154 0)
(96.57959722 -0.9783716572 0)
(95.85053651 -0.9011796248 0)
(95.32213343 -0.8098430775 0)
(94.9593449 -0.679433399 0)
(94.7401922 -0.5637347335 0)
(94.58938812 -0.4011314219 0)
(94.49323814 -0.2877238499 0)
(94.43136516 -0.1735605265 0)
(94.39419823 -0.05816676852 0)
(105.5143315 -0.07175352171 0)
(105.4916148 -0.2120653387 0)
(105.4547893 -0.3430095606 0)
(105.3930932 -0.4593621466 0)
(105.3596445 -0.5328664978 0)
(105.2347981 -0.6291745741 0)
(105.0557071 -0.6882554626 0)
(104.9367867 -0.747214355 0)
(104.5968954 -0.7996816549 0)
(104.1283771 -0.8491295179 0)
(103.0765887 -0.8875178239 0)
(98.32980865 -0.9544355193 0)
(100.0179198 -1.0130771 -3.048618005e-36)
(98.66623131 -0.997766306 0)
(97.47232656 -0.9555348779 0)
(96.51177328 -0.889390994 0)
(95.77020777 -0.8069081816 0)
(95.23306357 -0.7136155164 0)
(94.85736766 -0.5859778722 0)
(94.63585004 -0.4785585403 0)
(94.49134959 -0.334494751 0)
(94.39469556 -0.238706468 0)
(94.3329408 -0.1436308449 0)
(94.29415957 -0.04817793549 0)
(105.6499439 -0.07256429384 0)
(105.6204078 -0.2136525143 0)
(105.5698507 -0.3421331302 0)
(105.4904796 -0.4516948045 0)
(105.4472295 -0.5214499766 0)
(105.2957648 -0.6042023574 0)
(105.0828465 -0.6370408464 0)
(104.9794915 -0.6687279629 0)
(104.6309413 -0.691679325 0)
(104.1682933 -0.7173053091 0)
(103.097243 -0.7538079795 0)
(98.54531053 -0.8566495843 0)
(100.0258053 -0.9476254229 0)
(98.64237496 -0.9485592673 0)
(97.4165918 -0.9038305598 0)
(96.4341619 -0.8242736127 0)
(95.68136809 -0.7255740304 0)
(95.14214518 -0.6213663813 0)
(94.75854733 -0.4895002309 0)
(94.54373024 -0.3912722771 0)
(94.40941408 -0.2678481346 0)
(94.31322807 -0.1895248425 0)
(94.25314973 -0.1132066742 0)
(94.21322767 -0.03787027651 0)
(105.7902974 -0.07681043537 0)
(105.7525106 -0.225700641 0)
(105.6824923 -0.3575993738 0)
(105.5768074 -0.4595437584 0)
(105.5422356 -0.5274603646 0)
(105.3476295 -0.6193719085 0)
(105.069013 -0.6284318233 0)
(104.9878258 -0.6109116699 0)
(104.6258636 -0.5764358051 0)
(104.1867936 -0.5539887541 0)
(103.1407745 -0.5878551085 0)
(98.80958153 -0.7614369128 0)
(100.069308 -0.9235545162 0)
(98.62388219 -0.9514681389 0)
(97.34650827 -0.8965703994 0)
(96.33325319 -0.7871909868 0)
(95.57051954 -0.6529839575 0)
(95.0410258 -0.5220739938 0)
(94.66178676 -0.3755040301 0)
(94.47274382 -0.2958274192 0)
(94.34023088 -0.2045229641 0)
(94.24758272 -0.1389522614 0)
(94.19254705 -0.08101935532 0)
(94.15213966 -0.02705788759 0)
(105.942446 -0.08500029414 0)
(105.8976593 -0.2523466632 0)
(105.7987429 -0.3983725902 0)
(105.610563 -0.4555364088 0)
(105.7039488 -0.5197459821 0)
(105.4112846 -0.7129427942 0)
(105.0091839 -0.6937474831 0)
(104.9213492 -0.5931003435 0)
(104.5373882 -0.4367889406 0)
(104.1579235 -0.3069612221 0)
(103.2329562 -0.3319035982 0)
(99.1936219 -0.659375691 0)
(100.179887 -0.972548688 0)
(98.60705199 -1.039648638 0)
(97.24426492 -0.9544974117 0)
(96.18599688 -0.786807377 0)
(95.412866 -0.583308958 0)
(94.91423169 -0.3944755943 0)
(94.56729476 -0.211771823 0)
(94.45801076 -0.1795462608 0)
(94.23625296 -0.1816473417 0)
(94.19651445 -0.08159887159 0)
(94.15390762 -0.04401575868 0)
(94.11273827 -0.01493149197 0)
(106.1075778 -0.09060824738 0)
(106.0793012 -0.2920232181 0)
(105.969957 -0.520936177 0)
(105.4725293 -0.4983224623 0)
(106.3017244 -0.4205570912 0)
(105.4863267 -1.005324185 0)
(104.8172735 -0.8950638235 0)
(104.7232498 -0.6572583826 0)
(104.266018 -0.242275802 0)
(104.0122679 0.1360976437 0)
(103.4280639 0.1584665908 0)
(99.87237142 -0.5460942785 0)
(100.4018569 -1.18625984 0)
(98.56587256 -1.274044867 0)
(97.07622984 -1.106809901 0)
(95.95759428 -0.8398364825 0)
(95.15976326 -0.5133832176 0)
(94.73072582 -0.1946650399 0)
(94.46738686 0.07034237532 0)
(94.56579722 0.07616953956 0)
(94.00903347 -0.1093663683 0)
(94.1978296 0.03169237081 0)
(94.15062047 -0.003467998521 0)
(94.09219598 -0.006978038424 0)
(106.2656207 -0.07747551115 0)
(106.2674755 -0.2442333138 0)
(106.3701422 -0.6411456254 0)
(106.7111429 -2.407785496 0)
(105.3538039 -5.176962132 0)
(105.2968838 -1.59232346 0)
(104.7392438 -1.810902154 0)
(104.1052174 -1.038471823 0)
(103.5971738 0.07197662401 0)
(103.5431674 0.9834028225 0)
(103.8014527 1.312915464 0)
(101.4219113 -0.5171494714 0)
(100.7101372 -1.830073161 0)
(98.39705431 -1.733615757 0)
(96.77926039 -1.369448561 0)
(95.61001705 -0.9731733179 0)
(94.7040957 -0.4957679147 0)
(94.37608538 0.3009330857 0)
(94.5118096 0.541225231 0)
(94.00809563 1.291999669 0)
(94.92124268 1.51800137 0)
(94.4000708 0.1912028941 0)
(94.1669164 -0.006037365623 0)
(94.07962586 -0.00641634357 0)
(90.10872386 -2.966715493 1.192562527e-21)
(131.4566783 12.6967227 -1.391504218e-20)