/*--------------------------------*- C++ -*----------------------------------*\
| =========                 |                                                 |
| \\      /  F ield         | OpenFOAM: The Open Source CFD Toolbox           |
|  \\    /   O peration     | Version:  v2106                                 |
|   \\  /    A nd           | Website:  www.openfoam.com                      |
|    \\/     M anipulation  |                                                 |
\*---------------------------------------------------------------------------*/
FoamFile
{
    version     2.0;
    format      ascii;
    arch        "LSB;label=32;scalar=64";
    class       pointVectorField;
    location    "0";
    object      pointDisplacement;
}
// * * * * * * * * * * * * * * * * * * * * * * * * * * * * * * * * * * * * * //

dimensions      [0 1 0 0 0 0 0];

internalField   nonuniform List<vector> 
24440
(
(0 0 0)
(0 0 0)
(0 0 0)
(0 0 0)
(0 0 0)
(0 0 0)
(0 0 0)
(0 0 0)
(0 0 0)
(0 0 0)
(0 0 0)
(0 0 0)
(0 0 0)
(0 0 0)
(0 0 0)
(0 0 0)
(0 0 0)
(0 0 0)
(0 0 0)
(0 0 0)
(0 0 0)
(0 0 0)
(0 0 0)
(0 0 0)
(0 0 0)
(0 0 0)
(0 0 0)
(0 0 0)
(0 0 0)
(0 0 0)
(0 0 0)
(0 0 0)
(0 0 0)
(0 0 0)
(0 0 0)
(0 0 0)
(0 0 0)
(0 0 0)
(0 0 0)
(0 0 0)
(0 0 0)
(0 0 0)
(0 0 0)
(0 0 0)
(0 0 0)
(0 0 0)
(0 0 0)
(0 0 0)
(0 0 0)
(0 0 0)
(0 0 0)
(0 0 0)
(0 0 0)
(0 0 0)
(0 0 0)
(0 0 0)
(0 0 0)
(0 0 0)
(0 0 0)
(0 0 0)
(0 0 0)
(0 0 0)
(0 0 0)
(0 0 0)
(0 0 0)
(0 0 0)
(0 0 0)
(0 0 0)
(0 0 0)
(0 0 0)
(0 0 0)
(0 0 0)
(0 0 0)
(0 0 0)
(0 0 0)
(0 0 0)
(0 0 0)
(0 0 0)
(0 0 0)
(0 0 0)
(0 0 0)
(0 0 0)
(0 0 0)
(0 0 0)
(0 0 0)
(0 0 0)
(0 0 0)
(0 0 0)
(0 0 0)
(0 0 0)
(0 0 0)
(0 0 0)
(0 0 0)
(0 0 0)
(0 0 0)
(0 0 0)
(0 0 0)
(0 0 0)
(0 7.72396e-07 0)
(0 4.87077e-06 0)
(0 1.33936e-05 0)
(0 2.06389e-05 0)
(0 2.34194e-05 0)
(0 2.06389e-05 0)
(0 1.33936e-05 0)
(0 4.87077e-06 0)
(0 7.72396e-07 0)
(0 0 0)
(0 0 0)
(0 0 0)
(0 0 0)
(0 0 0)
(0 0 0)
(0 0 0)
(0 0 0)
(0 0 0)
(0 0 0)
(0 0 0)
(0 0 0)
(0 0 0)
(0 0 0)
(0 0 0)
(0 0 0)
(0 0 0)
(0 0 0)
(0 0 0)
(0 0 0)
(0 0 0)
(0 0 0)
(0 0 0)
(0 0 0)
(0 0 0)
(0 0 0)
(0 0 0)
(0 0 0)
(0 0 0)
(0 1.29355e-06 0)
(0 1.71116e-05 0)
(0 5.03581e-05 0)
(0 9.07168e-05 0)
(0 0.000129399 0)
(0 0.000156366 0)
(0 0.000181435 0)
(0 0.000190255 0)
(0 0.000181435 0)
(0 0.000156366 0)
(0 0.000129399 0)
(0 9.07168e-05 0)
(0 5.03581e-05 0)
(0 1.71116e-05 0)
(0 1.29355e-06 0)
(0 0 0)
(0 0 0)
(0 0 0)
(0 0 0)
(0 0 0)
(0 0 0)
(0 0 0)
(0 0 0)
(0 0 0)
(0 0 0)
(0 0 0)
(0 0 0)
(0 0 0)
(0 0 0)
(0 0 0)
(0 0 0)
(0 0 0)
(0 0 0)
(0 0 0)
(0 0 0)
(0 0 0)
(0 0 0)
(0 0 0)
(0 0 0)
(0 5.43109e-07 0)
(0 2.25033e-05 0)
(0 7.67434e-05 0)
(0 0.000151337 0)
(0 0.000228168 0)
(0 0.000313884 0)
(0 0.00038812 0)
(0 0.000434097 0)
(0 0.00047806 0)
(0 0.000493253 0)
(0 0.00047806 0)
(0 0.000434097 0)
(0 0.00038812 0)
(0 0.000313884 0)
(0 0.000228168 0)
(0 0.000151337 0)
(0 7.67434e-05 0)
(0 2.25033e-05 0)
(0 5.43109e-07 0)
(0 0 0)
(0 0 0)
(0 0 0)
(0 0 0)
(0 0 0)
(0 0 0)
(0 0 0)
(0 0 0)
(0 0 0)
(0 0 0)
(0 0 0)
(0 0 0)
(0 0 0)
(0 0 0)
(0 0 0)
(0 0 0)
(0 0 0)
(0 0 0)
(0 0 0)
(0 0 0)
(0 0 0)
(0 5.13535e-06 0)
(0 5.34049e-05 0)
(0 0.000141926 0)
(0 0.000249011 0)
(0 0.000381969 0)
(0 0.000516069 0)
(0 0.000632241 0)
(0 0.000741066 0)
(0 0.00081829 0)
(0 0.000864429 0)
(0 0.000885609 0)
(0 0.000864429 0)
(0 0.00081829 0)
(0 0.000741066 0)
(0 0.000632241 0)
(0 0.000516069 0)
(0 0.000381969 0)
(0 0.000249011 0)
(0 0.000141926 0)
(0 5.34049e-05 0)
(0 5.43664e-06 0)
(0 0 0)
(0 0 0)
(0 0 0)
(0 0 0)
(0 0 0)
(0 0 0)
(0 0 0)
(0 0 0)
(0 0 0)
(0 0 0)
(0 0 0)
(0 0 0)
(0 0 0)
(0 0 0)
(0 0 0)
(0 0 0)
(0 0 0)
(0 0 0)
(0 0 0)
(0 1.01001e-05 0)
(0 7.08218e-05 0)
(0 0.000176762 0)
(0 0.000324508 0)
(0 0.000500099 0)
(0 0.000682565 0)
(0 0.000850009 0)
(0 0.00100875 0)
(0 0.0010684 0)
(0 0.0011329 0)
(0 0.00118686 0)
(0 0.00122937 0)
(0 0.00125977 0)
(0 0.00128079 0)
(0 0.00130021 0)
(0 0.00130671 0)
(0 0.00130021 0)
(0 0.00128079 0)
(0 0.00125977 0)
(0 0.00122937 0)
(0 0.00118686 0)
(0 0.0011329 0)
(0 0.0010684 0)
(0 0.00100875 0)
(0 0.000850009 0)
(0 0.000682565 0)
(0 0.000500099 0)
(0 0.000324508 0)
(0 0.000173093 0)
(0 6.39946e-05 0)
(0 8.07064e-06 0)
(0 0 0)
(0 0 0)
(0 0 0)
(0 0 0)
(0 0 0)
(0 0 0)
(0 0 0)
(0 0 0)
(0 0 0)
(0 0 0)
(0 0 0)
(0 0 0)
(0 0 0)
(0 0 0)
(0 0 0)
(0 0 0)
(0 0 0)
(0 5.94071e-06 0)
(0 6.79851e-05 0)
(0 0.000189419 0)
(0 0.00035643 0)
(0 0.000552058 0)
(0 0.000782226 0)
(0 0.000892282 0)
(0 0.000989832 0)
(0 0.0010978 0)
(0 0.001199 0)
(0 0.00129159 0)
(0 0.00137025 0)
(0 0.00119419 0)
(0 0.0012671 0)
(0 0.00132465 0)
(0 0.00138269 0)
(0 0.00142822 0)
(0 0.00146066 0)
(0 0.00148012 0)
(0 0.00150073 0)
(0 0.00150762 0)
(0 0.00150073 0)
(0 0.00148012 0)
(0 0.00146066 0)
(0 0.00142822 0)
(0 0.00138269 0)
(0 0.00132465 0)
(0 0.0012671 0)
(0 0.00119419 0)
(0 0.00137025 0)
(0 0.00129159 0)
(0 0.001199 0)
(0 0.0010978 0)
(0 0.000989832 0)
(0 0.000892282 0)
(0 0.000782226 0)
(0 0.000552058 0)
(0 0.00035643 0)
(0 0.000182509 0)
(0 6.50272e-05 0)
(0 5.39502e-06 0)
(0 0 0)
(0 0 0)
(0 0 0)
(0 0 0)
(0 0 0)
(0 0 0)
(0 0 0)
(0 0 0)
(0 0 0)
(0 0 0)
(0 0 0)
(0 0 0)
(0 0 0)
(0 0 0)
(0 0 0)
(0 0 0)
(0 3.7588e-05 0)
(0 0.000153609 0)
(0 0.000328394 0)
(0 0.000547945 0)
(0 0.000792474 0)
(0 0.00104094 0)
(0 0.000916219 0)
(0 0.0010359 0)
(0 0.00115106 0)
(0 0.0012595 0)
(0 0.00135584 0)
(0 0.00145354 0)
(0 0.00153988 0)
(0 0.00161121 0)
(0 0.00144772 0)
(0 0.00151298 0)
(0 0.00167847 0)
(0 0.0017269 0)
(0 0.0015649 0)
(0 0.0016124 0)
(0 0.00177507 0)
(0 0.00180897 0)
(0 0.00164609 0)
(0 0.00166317 0)
(0 0.00182862 0)
(0 0.00184422 0)
(0 0.00168443 0)
(0 0.00169152 0)
(0 0.00185126 0)
(0 0.00184422 0)
(0 0.00168443 0)
(0 0.00166317 0)
(0 0.00182862 0)
(0 0.00180897 0)
(0 0.00164609 0)
(0 0.0016124 0)
(0 0.00177507 0)
(0 0.0017269 0)
(0 0.0015649 0)
(0 0.00151298 0)
(0 0.00167847 0)
(0 0.00161121 0)
(0 0.00144772 0)
(0 0.00153988 0)
(0 0.00145354 0)
(0 0.00135584 0)
(0 0.0012595 0)
(0 0.00115106 0)
(0 0.0010359 0)
(0 0.000916219 0)
(0 0.00104094 0)
(0 0.000792474 0)
(0 0.000541349 0)
(0 0.000325802 0)
(0 0.000153445 0)
(0 4.08641e-05 0)
(0 0 0)
(0 0 0)
(0 0 0)
(0 0 0)
(0 0 0)
(0 0 0)
(0 0 0)
(0 0 0)
(0 0 0)
(0 0 0)
(0 0 0)
(0 0 0)
(0 0 0)
(0 0 0)
(0 0 0)
(0 8.19977e-06 0)
(0 8.4242e-05 0)
(0 0.000242826 0)
(0 0.000454959 0)
(0 0.000707147 0)
(0 0.000996078 0)
(0 0.00127439 0)
(0 0.00116608 0)
(0 0.00129216 0)
(0 0.00116025 0)
(0 0.00129001 0)
(0 0.00141066 0)
(0 0.00152955 0)
(0 0.00140421 0)
(0 0.00150851 0)
(0 0.00163674 0)
(0 0.00168561 0)
(0 0.00173111 0)
(0 0.00166925 0)
(0 0.00159655 0)
(0 0.00168514 0)
(0 0.00174868 0)
(0 0.00178793 0)
(0 0.00172437 0)
(0 0.0018198 0)
(0 0.00188007 0)
(0 0.00190796 0)
(0 0.00184811 0)
(0 0.0019105 0)
(0 0.00196947 0)
(0 0.00198416 0)
(0 0.00192867 0)
(0 0.00196204 0)
(0 0.00201607 0)
(0 0.00202376 0)
(0 0.00197098 0)
(0 0.00198059 0)
(0 0.00203223 0)
(0 0.00203067 0)
(0 0.00197893 0)
(0 0.00196204 0)
(0 0.00201607 0)
(0 0.00200878 0)
(0 0.00195437 0)
(0 0.0019105 0)
(0 0.00196947 0)
(0 0.00195259 0)
(0 0.00189377 0)
(0 0.0018198 0)
(0 0.00188007 0)
(0 0.00185545 0)
(0 0.00178783 0)
(0 0.00168514 0)
(0 0.00174868 0)
(0 0.00170587 0)
(0 0.0016425 0)
(0 0.00150851 0)
(0 0.00163674 0)
(0 0.00152955 0)
(0 0.00140421 0)
(0 0.00129001 0)
(0 0.00141066 0)
(0 0.00129216 0)
(0 0.00116025 0)
(0 0.00116608 0)
(0 0.00126864 0)
(0 0.00099539 0)
(0 0.000718544 0)
(0 0.000451138 0)
(0 0.000240462 0)
(0 8.84641e-05 0)
(0 9.37686e-06 0)
(0 0 0)
(0 0 0)
(0 0 0)
(0 0 0)
(0 0 0)
(0 0 0)
(0 0 0)
(0 0 0)
(0 0 0)
(0 0 0)
(0 0 0)
(0 0 0)
(0 0 0)
(0 0 0)
(0 2.68277e-05 0)
(0 0.000135777 0)
(0 0.000319014 0)
(0 0.000560551 0)
(0 0.000839681 0)
(0 0.0011467 0)
(0 0.00143323 0)
(0 0.00136253 0)
(0 0.00149737 0)
(0 0.00140561 0)
(0 0.00152812 0)
(0 0.00162242 0)
(0 0.00173536 0)
(0 0.00163972 0)
(0 0.00173857 0)
(0 0.00178978 0)
(0 0.00183382 0)
(0 0.00178972 0)
(0 0.00191415 0)
(0 0.00193534 0)
(0 0.00195244 0)
(0 0.00193144 0)
(0 0.00202632 0)
(0 0.00204327 0)
(0 0.00205427 0)
(0 0.00203767 0)
(0 0.00209272 0)
(0 0.00210507 0)
(0 0.00211067 0)
(0 0.00209823 0)
(0 0.00212182 0)
(0 0.00213088 0)
(0 0.00213217 0)
(0 0.00212338 0)
(0 0.00212926 0)
(0 0.00213656 0)
(0 0.00213644 0)
(0 0.00212909 0)
(0 0.00212182 0)
(0 0.00213088 0)
(0 0.00212909 0)
(0 0.0021197 0)
(0 0.00209272 0)
(0 0.00210507 0)
(0 0.00210037 0)
(0 0.00208609 0)
(0 0.00202632 0)
(0 0.00204327 0)
(0 0.00203369 0)
(0 0.00201398 0)
(0 0.00191415 0)
(0 0.00193534 0)
(0 0.00195473 0)
(0 0.00191784 0)
(0 0.00187659 0)
(0 0.00173857 0)
(0 0.00178978 0)
(0 0.00183426 0)
(0 0.00173536 0)
(0 0.00163972 0)
(0 0.00152812 0)
(0 0.00161872 0)
(0 0.00149641 0)
(0 0.00140561 0)
(0 0.00136416 0)
(0 0.00143748 0)
(0 0.00114381 0)
(0 0.000848046 0)
(0 0.000566428 0)
(0 0.00032271 0)
(0 0.000137714 0)
(0 2.74895e-05 0)
(0 0 0)
(0 0 0)
(0 0 0)
(0 0 0)
(0 0 0)
(0 0 0)
(0 0 0)
(0 0 0)
(0 0 0)
(0 0 0)
(0 0 0)
(0 0 0)
(0 0 0)
(0 0 0)
(0 4.13676e-05 0)
(0 0.000168672 0)
(0 0.000371183 0)
(0 0.000631799 0)
(0 0.000928569 0)
(0 0.00123656 0)
(0 0.00152999 0)
(0 0.00149364 0)
(0 0.00162741 0)
(0 0.0015653 0)
(0 0.00168641 0)
(0 0.00174928 0)
(0 0.00185686 0)
(0 0.0018049 0)
(0 0.00190283 0)
(0 0.00192702 0)
(0 0.00196916 0)
(0 0.00194553 0)
(0 0.00204702 0)
(0 0.00205819 0)
(0 0.0020708 0)
(0 0.00205998 0)
(0 0.00212479 0)
(0 0.00213019 0)
(0 0.00213469 0)
(0 0.00212993 0)
(0 0.00214342 0)
(0 0.00214342 0)
(0 0.00214342 0)
(0 0.00214342 0)
(0 0.00214342 0)
(0 0.00214342 0)
(0 0.00214342 0)
(0 0.00214342 0)
(0 0.00214342 0)
(0 0.00214342 0)
(0 0.00214342 0)
(0 0.00214342 0)
(0 0.00214342 0)
(0 0.00214342 0)
(0 0.00214342 0)
(0 0.00214342 0)
(0 0.00214342 0)
(0 0.00214342 0)
(0 0.00214342 0)
(0 0.00214342 0)
(0 0.00212479 0)
(0 0.00213019 0)
(0 0.00212425 0)
(0 0.00211861 0)
(0 0.00204702 0)
(0 0.00205819 0)
(0 0.00206774 0)
(0 0.00203859 0)
(0 0.0020177 0)
(0 0.00190172 0)
(0 0.00192983 0)
(0 0.00195129 0)
(0 0.00185428 0)
(0 0.0018065 0)
(0 0.00169602 0)
(0 0.0017471 0)
(0 0.00162568 0)
(0 0.00157222 0)
(0 0.00149237 0)
(0 0.00153075 0)
(0 0.00123605 0)
(0 0.000927094 0)
(0 0.000629772 0)
(0 0.000369069 0)
(0 0.000166924 0)
(0 4.03745e-05 0)
(0 0 0)
(0 0 0)
(0 0 0)
(0 0 0)
(0 0 0)
(0 0 0)
(0 0 0)
(0 0 0)
(0 0 0)
(0 0 0)
(0 0 0)
(0 0 0)
(0 0 0)
(0 0 0)
(0 4.3859e-05 0)
(0 0.000174064 0)
(0 0.000379682 0)
(0 0.000643435 0)
(0 0.000943163 0)
(0 0.00125368 0)
(0 0.0015489 0)
(0 0.00154945 0)
(0 0.00168335 0)
(0 0.00166351 0)
(0 0.00178447 0)
(0 0.00180434 0)
(0 0.00190987 0)
(0 0.00189043 0)
(0 0.00198266 0)
(0 0.00199157 0)
(0 0.00202855 0)
(0 0.00202052 0)
(0 0.00210398 0)
(0 0.00210742 0)
(0 0.00211655 0)
(0 0.00211337 0)
(0 0.00214342 0)
(0 0.00214342 0)
(0 0.00214342 0)
(0 0.00214342 0)
(0 0.00214342 0)
(0 0.00214342 0)
(0 0.00214342 0)
(0 0.00214342 0)
(0 0.00214342 0)
(0 0.00214342 0)
(0 0.00214342 0)
(0 0.00214342 0)
(0 0.00214342 0)
(0 0.00214342 0)
(0 0.00214342 0)
(0 0.00214342 0)
(0 0.00214342 0)
(0 0.00214333 0)
(0 0.00214302 0)
(0 0.00210398 0)
(0 0.00210742 0)
(0 0.00210969 0)
(0 0.00208825 0)
(0 0.00208069 0)
(0 0.00198254 0)
(0 0.0019917 0)
(0 0.0019977 0)
(0 0.00190987 0)
(0 0.00189318 0)
(0 0.0017866 0)
(0 0.0017998 0)
(0 0.00167813 0)
(0 0.00166496 0)
(0 0.00154366 0)
(0 0.00154544 0)
(0 0.00124983 0)
(0 0.000939248 0)
(0 0.0006398 0)
(0 0.000376641 0)
(0 0.000171883 0)
(0 4.27288e-05 0)
(0 0 0)
(0 0 0)
(0 0 0)
(0 0 0)
(0 0 0)
(0 0 0)
(0 0 0)
(0 0 0)
(0 0 0)
(0 0 0)
(0 0 0)
(0 0 0)
(0 0 0)
(0 0 0)
(0 3.5843e-05 0)
(0 0.000156648 0)
(0 0.000352423 0)
(0 0.000606466 0)
(0 0.00089727 0)
(0 0.00120039 0)
(0 0.00149057 0)
(0 0.00153246 0)
(0 0.00166614 0)
(0 0.00168291 0)
(0 0.00180402 0)
(0 0.00178723 0)
(0 0.00189325 0)
(0 0.00190966 0)
(0 0.00199762 0)
(0 0.00199291 0)
(0 0.00202988 0)
(0 0.00203436 0)
(0 0.00211345 0)
(0 0.00211233 0)
(0 0.00212088 0)
(0 0.0021219 0)
(0 0.00214342 0)
(0 0.00214342 0)
(0 0.00214342 0)
(0 0.00214342 0)
(0 0.00214342 0)
(0 0.00214342 0)
(0 0.00214342 0)
(0 0.00214342 0)
(0 0.00214342 0)
(0 0.00214342 0)
(0 0.00214342 0)
(0 0.00214342 0)
(0 0.00214342 0)
(0 0.00214342 0)
(0 0.00214342 0)
(0 0.00214342 0)
(0 0.00211345 0)
(0 0.00211142 0)
(0 0.0021103 0)
(0 0.00208892 0)
(0 0.00209135 0)
(0 0.00199576 0)
(0 0.00199276 0)
(0 0.00198367 0)
(0 0.00189455 0)
(0 0.00190733 0)
(0 0.00180125 0)
(0 0.00178818 0)
(0 0.00166671 0)
(0 0.00167976 0)
(0 0.00153264 0)
(0 0.00149436 0)
(0 0.00120317 0)
(0 0.000899088 0)
(0 0.000607467 0)
(0 0.000352821 0)
(0 0.000156687 0)
(0 3.57647e-05 0)
(0 0 0)
(0 0 0)
(0 0 0)
(0 0 0)
(0 0 0)
(0 0 0)
(0 0 0)
(0 0 0)
(0 0 0)
(0 0 0)
(0 0 0)
(0 0 0)
(0 0 0)
(0 0 0)
(0 1.81288e-05 0)
(0 0.000113871 0)
(0 0.00028323 0)
(0 0.000510998 0)
(0 0.000794457 0)
(0 0.00108431 0)
(0 0.00136704 0)
(0 0.00144202 0)
(0 0.00157604 0)
(0 0.00162329 0)
(0 0.00175207 0)
(0 0.00169903 0)
(0 0.00180864 0)
(0 0.00186131 0)
(0 0.00195409 0)
(0 0.00193186 0)
(0 0.00197218 0)
(0 0.00199378 0)
(0 0.00208432 0)
(0 0.00207799 0)
(0 0.0020895 0)
(0 0.00209625 0)
(0 0.00214083 0)
(0 0.00213863 0)
(0 0.00214125 0)
(0 0.00214261 0)
(0 0.00214342 0)
(0 0.00214342 0)
(0 0.00214342 0)
(0 0.00214342 0)
(0 0.00214342 0)
(0 0.00214342 0)
(0 0.00214342 0)
(0 0.00214342 0)
(0 0.00214083 0)
(0 0.0021383 0)
(0 0.00213482 0)
(0 0.00213793 0)
(0 0.00208432 0)
(0 0.00207799 0)
(0 0.0020694 0)
(0 0.00204214 0)
(0 0.00205897 0)
(0 0.00195409 0)
(0 0.00193186 0)
(0 0.00190661 0)
(0 0.00180864 0)
(0 0.00186131 0)
(0 0.00174881 0)
(0 0.00169903 0)
(0 0.00157604 0)
(0 0.00162755 0)
(0 0.00144202 0)
(0 0.00136704 0)
(0 0.00108431 0)
(0 0.000784219 0)
(0 0.000516021 0)
(0 0.000286524 0)
(0 0.000115674 0)
(0 1.87381e-05 0)
(0 0 0)
(0 0 0)
(0 0 0)
(0 0 0)
(0 0 0)
(0 0 0)
(0 0 0)
(0 0 0)
(0 0 0)
(0 0 0)
(0 0 0)
(0 0 0)
(0 0 0)
(0 0 0)
(0 2.24318e-06 0)
(0 6.65881e-05 0)
(0 0.000202768 0)
(0 0.000398726 0)
(0 0.000636544 0)
(0 0.000895354 0)
(0 0.00116694 0)
(0 0.00126991 0)
(0 0.001408 0)
(0 0.00149855 0)
(0 0.00162646 0)
(0 0.0015289 0)
(0 0.00164997 0)
(0 0.0017377 0)
(0 0.00183991 0)
(0 0.00179893 0)
(0 0.00184408 0)
(0 0.00188471 0)
(0 0.00199441 0)
(0 0.00197616 0)
(0 0.00199275 0)
(0 0.00200791 0)
(0 0.00209135 0)
(0 0.00207935 0)
(0 0.00208811 0)
(0 0.00209965 0)
(0 0.0021347 0)
(0 0.00212799 0)
(0 0.00213094 0)
(0 0.00213707 0)
(0 0.00214342 0)
(0 0.00214223 0)
(0 0.00214269 0)
(0 0.00214342 0)
(0 0.00214342 0)
(0 0.00214342 0)
(0 0.00214342 0)
(0 0.00214342 0)
(0 0.00214342 0)
(0 0.00214342 0)
(0 0.00214223 0)
(0 0.00214157 0)
(0 0.00214334 0)
(0 0.0021434 0)
(0 0.0021347 0)
(0 0.00212799 0)
(0 0.00212435 0)
(0 0.00213166 0)
(0 0.00209135 0)
(0 0.00207935 0)
(0 0.00206958 0)
(0 0.00208202 0)
(0 0.00199588 0)
(0 0.00197912 0)
(0 0.00195899 0)
(0 0.00192569 0)
(0 0.00196189 0)
(0 0.00183486 0)
(0 0.00179685 0)
(0 0.00175244 0)
(0 0.0016477 0)
(0 0.0017377 0)
(0 0.00162646 0)
(0 0.0015289 0)
(0 0.001408 0)
(0 0.00149855 0)
(0 0.00126991 0)
(0 0.00116694 0)
(0 0.000895354 0)
(0 0.000636544 0)
(0 0.000398726 0)
(0 0.000202768 0)
(0 6.21134e-05 0)
(0 2.69446e-06 0)
(0 0 0)
(0 0 0)
(0 0 0)
(0 0 0)
(0 0 0)
(0 0 0)
(0 0 0)
(0 0 0)
(0 0 0)
(0 0 0)
(0 0 0)
(0 0 0)
(0 0 0)
(0 0 0)
(0 0 0)
(0 2.04673e-05 0)
(0 0.000107855 0)
(0 0.000253758 0)
(0 0.000442959 0)
(0 0.000679353 0)
(0 0.000923772 0)
(0 0.00103907 0)
(0 0.00117513 0)
(0 0.00129148 0)
(0 0.00141761 0)
(0 0.00129762 0)
(0 0.00141214 0)
(0 0.00153617 0)
(0 0.00164351 0)
(0 0.00151668 0)
(0 0.0016042 0)
(0 0.00167687 0)
(0 0.00173796 0)
(0 0.00169243 0)
(0 0.00181918 0)
(0 0.00175567 0)
(0 0.00179493 0)
(0 0.0018551 0)
(0 0.00194501 0)
(0 0.00189056 0)
(0 0.00191234 0)
(0 0.00196878 0)
(0 0.00202469 0)
(0 0.00197643 0)
(0 0.00199061 0)
(0 0.00203806 0)
(0 0.00206601 0)
(0 0.00202148 0)
(0 0.00202934 0)
(0 0.00207148 0)
(0 0.00207881 0)
(0 0.00203769 0)
(0 0.00203556 0)
(0 0.00207713 0)
(0 0.00206601 0)
(0 0.00202148 0)
(0 0.00201033 0)
(0 0.00205742 0)
(0 0.00202469 0)
(0 0.00197643 0)
(0 0.00195872 0)
(0 0.00200783 0)
(0 0.00194501 0)
(0 0.00189056 0)
(0 0.00186241 0)
(0 0.00191745 0)
(0 0.00181918 0)
(0 0.00175567 0)
(0 0.00171881 0)
(0 0.00177995 0)
(0 0.00164351 0)
(0 0.00151668 0)
(0 0.00141214 0)
(0 0.00153617 0)
(0 0.00141761 0)
(0 0.00129762 0)
(0 0.00117513 0)
(0 0.00129148 0)
(0 0.00103907 0)
(0 0.000923772 0)
(0 0.000679353 0)
(0 0.000442959 0)
(0 0.000253758 0)
(0 0.000107855 0)
(0 2.04673e-05 0)
(0 0 0)
(0 0 0)
(0 0 0)
(0 0 0)
(0 0 0)
(0 0 0)
(0 0 0)
(0 0 0)
(0 0 0)
(0 0 0)
(0 0 0)
(0 0 0)
(0 0 0)
(0 0 0)
(0 0 0)
(0 0 0)
(0 0 0)
(0 3.08433e-05 0)
(0 0.00012736 0)
(0 0.000273023 0)
(0 0.000453673 0)
(0 0.000651546 0)
(0 0.000846875 0)
(0 0.000998456 0)
(0 0.00115964 0)
(0 0.00104399 0)
(0 0.00110693 0)
(0 0.00126849 0)
(0 0.0013645 0)
(0 0.00120857 0)
(0 0.00130154 0)
(0 0.00146249 0)
(0 0.00154904 0)
(0 0.00146895 0)
(0 0.00149986 0)
(0 0.00158764 0)
(0 0.00168614 0)
(0 0.00160739 0)
(0 0.00163661 0)
(0 0.00171558 0)
(0 0.00178269 0)
(0 0.00170349 0)
(0 0.00171655 0)
(0 0.00179793 0)
(0 0.00184059 0)
(0 0.00176453 0)
(0 0.00177341 0)
(0 0.0018494 0)
(0 0.00185975 0)
(0 0.00178418 0)
(0 0.00178052 0)
(0 0.00185644 0)
(0 0.00184059 0)
(0 0.00176453 0)
(0 0.00175209 0)
(0 0.00182822 0)
(0 0.00178269 0)
(0 0.00170349 0)
(0 0.0016847 0)
(0 0.00176388 0)
(0 0.00168614 0)
(0 0.00160739 0)
(0 0.0015748 0)
(0 0.00165321 0)
(0 0.00154904 0)
(0 0.00146895 0)
(0 0.00137638 0)
(0 0.00130154 0)
(0 0.00146249 0)
(0 0.0013645 0)
(0 0.00120857 0)
(0 0.00110693 0)
(0 0.00126849 0)
(0 0.00115964 0)
(0 0.000998456 0)
(0 0.000846875 0)
(0 0.000651546 0)
(0 0.00104399 0)
(0 0.000453673 0)
(0 0.000273023 0)
(0 0.00012736 0)
(0 3.08433e-05 0)
(0 0 0)
(0 0 0)
(0 0 0)
(0 0 0)
(0 0 0)
(0 0 0)
(0 0 0)
(0 0 0)
(0 0 0)
(0 0 0)
(0 0 0)
(0 0 0)
(0 0 0)
(0 0 0)
(0 0 0)
(0 0 0)
(0 0 0)
(0 0 0)
(0 3.91132e-07 0)
(0 3.5039e-05 0)
(0 0.000118736 0)
(0 0.00023268 0)
(0 0.000380847 0)
(0 0.000538866 0)
(0 0.000691648 0)
(0 0.000780838 0)
(0 0.000946389 0)
(0 0.00104025 0)
(0 0.000856021 0)
(0 0.000940845 0)
(0 0.00111759 0)
(0 0.00120238 0)
(0 0.00111126 0)
(0 0.00114856 0)
(0 0.00124116 0)
(0 0.00134111 0)
(0 0.00124496 0)
(0 0.00127149 0)
(0 0.00136855 0)
(0 0.00143072 0)
(0 0.00133444 0)
(0 0.00135587 0)
(0 0.00145278 0)
(0 0.001499 0)
(0 0.00140086 0)
(0 0.00140926 0)
(0 0.00150762 0)
(0 0.00151897 0)
(0 0.00142062 0)
(0 0.001416 0)
(0 0.00151453 0)
(0 0.001499 0)
(0 0.00140086 0)
(0 0.00138914 0)
(0 0.00148697 0)
(0 0.00143072 0)
(0 0.00133444 0)
(0 0.00130989 0)
(0 0.00141401 0)
(0 0.00134111 0)
(0 0.00124496 0)
(0 0.00121555 0)
(0 0.00131066 0)
(0 0.00120238 0)
(0 0.00111126 0)
(0 0.0010185 0)
(0 0.000940845 0)
(0 0.00111759 0)
(0 0.00104025 0)
(0 0.000856021 0)
(0 0.000780838 0)
(0 0.000946389 0)
(0 0.000691648 0)
(0 0.000538866 0)
(0 0.000380847 0)
(0 0.00023268 0)
(0 0.000118736 0)
(0 3.5039e-05 0)
(0 3.91132e-07 0)
(0 0 0)
(0 0 0)
(0 0 0)
(0 0 0)
(0 0 0)
(0 0 0)
(0 0 0)
(0 0 0)
(0 0 0)
(0 0 0)
(0 0 0)
(0 0 0)
(0 0 0)
(0 0 0)
(0 0 0)
(0 0 0)
(0 0 0)
(0 0 0)
(0 0 0)
(0 0 0)
(0 1.84013e-05 0)
(0 7.66408e-05 0)
(0 0.000155259 0)
(0 0.000261427 0)
(0 0.00038656 0)
(0 0.000455818 0)
(0 0.000607374 0)
(0 0.000686914 0)
(0 0.000523689 0)
(0 0.000588466 0)
(0 0.000762175 0)
(0 0.00083151 0)
(0 0.000739086 0)
(0 0.000769053 0)
(0 0.000863491 0)
(0 0.000946761 0)
(0 0.000847275 0)
(0 0.00086155 0)
(0 0.000959624 0)
(0 0.00103203 0)
(0 0.000929921 0)
(0 0.000947805 0)
(0 0.00105093 0)
(0 0.00109077 0)
(0 0.00098554 0)
(0 0.000992615 0)
(0 0.00109824 0)
(0 0.00110911 0)
(0 0.00100317 0)
(0 0.000998296 0)
(0 0.00110423 0)
(0 0.00109077 0)
(0 0.00098554 0)
(0 0.00097568 0)
(0 0.00108037 0)
(0 0.00103203 0)
(0 0.000929921 0)
(0 0.000909515 0)
(0 0.00101044 0)
(0 0.000946761 0)
(0 0.000847275 0)
(0 0.00082329 0)
(0 0.00092126 0)
(0 0.00083151 0)
(0 0.000739086 0)
(0 0.000648578 0)
(0 0.000588466 0)
(0 0.000762175 0)
(0 0.000686914 0)
(0 0.000523689 0)
(0 0.000455818 0)
(0 0.000607374 0)
(0 0.00038656 0)
(0 0.000261427 0)
(0 0.000155259 0)
(0 7.66408e-05 0)
(0 1.84013e-05 0)
(0 0 0)
(0 0 0)
(0 0 0)
(0 0 0)
(0 0 0)
(0 0 0)
(0 0 0)
(0 0 0)
(0 0 0)
(0 0 0)
(0 0 0)
(0 0 0)
(0 0 0)
(0 0 0)
(0 0 0)
(0 0 0)
(0 0 0)
(0 0 0)
(0 0 0)
(0 0 0)
(0 0 0)
(0 0 0)
(0 0 0)
(0 1.56702e-06 0)
(0 2.65803e-05 0)
(0 7.41818e-05 0)
(0 0.000155618 0)
(0 0.000197985 0)
(0 0.000317361 0)
(0 0.000372953 0)
(0 0.000241005 0)
(0 0.000283223 0)
(0 0.000426616 0)
(0 0.000476875 0)
(0 0.000397404 0)
(0 0.000418544 0)
(0 0.000500305 0)
(0 0.000556736 0)
(0 0.000471183 0)
(0 0.000491018 0)
(0 0.000578532 0)
(0 0.000633454 0)
(0 0.000541141 0)
(0 0.000554363 0)
(0 0.000647908 0)
(0 0.000678519 0)
(0 0.000582408 0)
(0 0.000587688 0)
(0 0.000684276 0)
(0 0.00069347 0)
(0 0.000596307 0)
(0 0.000591933 0)
(0 0.000688903 0)
(0 0.000678519 0)
(0 0.000582408 0)
(0 0.000575061 0)
(0 0.000670506 0)
(0 0.000633454 0)
(0 0.000541141 0)
(0 0.00052611 0)
(0 0.000617007 0)
(0 0.000556736 0)
(0 0.000471183 0)
(0 0.000449992 0)
(0 0.00053341 0)
(0 0.000476875 0)
(0 0.000397404 0)
(0 0.000323278 0)
(0 0.000283223 0)
(0 0.000426616 0)
(0 0.000372953 0)
(0 0.000241005 0)
(0 0.000197985 0)
(0 0.000317361 0)
(0 0.000155618 0)
(0 7.41818e-05 0)
(0 2.65803e-05 0)
(0 1.56702e-06 0)
(0 0 0)
(0 0 0)
(0 0 0)
(0 0 0)
(0 0 0)
(0 0 0)
(0 0 0)
(0 0 0)
(0 0 0)
(0 0 0)
(0 0 0)
(0 0 0)
(0 0 0)
(0 0 0)
(0 0 0)
(0 0 0)
(0 0 0)
(0 0 0)
(0 0 0)
(0 0 0)
(0 0 0)
(0 0 0)
(0 0 0)
(0 0 0)
(0 0 0)
(0 0 0)
(0 2.84054e-07 0)
(0 2.13408e-05 0)
(0 3.71718e-05 0)
(0 0.000103074 0)
(0 0.000133546 0)
(0 5.54274e-05 0)
(0 7.49499e-05 0)
(0 0.000164288 0)
(0 0.000194066 0)
(0 0.000133587 0)
(0 0.000147262 0)
(0 0.000201398 0)
(0 0.000247283 0)
(0 0.000186101 0)
(0 0.000197891 0)
(0 0.000261087 0)
(0 0.000296386 0)
(0 0.000228225 0)
(0 0.000236348 0)
(0 0.000305791 0)
(0 0.000325859 0)
(0 0.000253732 0)
(0 0.000257028 0)
(0 0.000329656 0)
(0 0.000336258 0)
(0 0.00026288 0)
(0 0.000259683 0)
(0 0.000332712 0)
(0 0.000325859 0)
(0 0.000253732 0)
(0 0.000249158 0)
(0 0.000320587 0)
(0 0.000296386 0)
(0 0.000228225 0)
(0 0.000219051 0)
(0 0.000285741 0)
(0 0.000247283 0)
(0 0.000186101 0)
(0 0.000173652 0)
(0 0.000232648 0)
(0 0.000194066 0)
(0 0.000133587 0)
(0 8.98315e-05 0)
(0 7.49499e-05 0)
(0 0.000164288 0)
(0 0.000133546 0)
(0 5.54274e-05 0)
(0 3.71718e-05 0)
(0 0.000103074 0)
(0 2.13408e-05 0)
(0 2.84054e-07 0)
(0 0 0)
(0 0 0)
(0 0 0)
(0 0 0)
(0 0 0)
(0 0 0)
(0 0 0)
(0 0 0)
(0 0 0)
(0 0 0)
(0 0 0)
(0 0 0)
(0 0 0)
(0 0 0)
(0 0 0)
(0 0 0)
(0 0 0)
(0 0 0)
(0 0 0)
(0 0 0)
(0 0 0)
(0 0 0)
(0 0 0)
(0 0 0)
(0 0 0)
(0 0 0)
(0 0 0)
(0 0 0)
(0 0 0)
(0 0 0)
(0 0 0)
(0 1.04322e-05 0)
(0 3.7732e-06 0)
(0 0 0)
(0 1.64045e-05 0)
(0 2.74059e-05 0)
(0 8.39028e-07 0)
(0 3.66735e-06 0)
(0 3.94941e-05 0)
(0 5.1743e-05 0)
(0 7.7331e-06 0)
(0 1.23133e-05 0)
(0 6.3317e-05 0)
(0 7.34901e-05 0)
(0 1.67769e-05 0)
(0 2.05998e-05 0)
(0 8.16623e-05 0)
(0 8.7372e-05 0)
(0 2.3378e-05 0)
(0 2.48367e-05 0)
(0 9.03063e-05 0)
(0 9.26541e-05 0)
(0 2.6083e-05 0)
(0 2.48367e-05 0)
(0 9.03063e-05 0)
(0 8.7372e-05 0)
(0 2.3378e-05 0)
(0 2.05998e-05 0)
(0 8.16623e-05 0)
(0 7.34901e-05 0)
(0 1.67769e-05 0)
(0 1.23133e-05 0)
(0 6.3317e-05 0)
(0 5.1743e-05 0)
(0 7.7331e-06 0)
(0 3.66735e-06 0)
(0 3.94941e-05 0)
(0 2.74059e-05 0)
(0 8.39028e-07 0)
(0 0 0)
(0 1.64045e-05 0)
(0 1.04322e-05 0)
(0 0 0)
(0 0 0)
(0 0 0)
(0 3.7732e-06 0)
(0 0 0)
(0 0 0)
(0 0 0)
(0 0 0)
(0 0 0)
(0 0 0)
(0 0 0)
(0 0 0)
(0 0 0)
(0 0 0)
(0 0 0)
(0 0 0)
(0 0 0)
(0 0 0)
(0 0 0)
(0 0 0)
(0 0 0)
(0 0 0)
(0 0 0)
(0 0 0)
(0 0 0)
(0 0 0)
(0 0 0)
(0 0 0)
(0 0 0)
(0 0 0)
(0 0 0)
(0 0 0)
(0 0 0)
(0 0 0)
(0 0 0)
(0 0 0)
(0 0 0)
(0 0 0)
(0 0 0)
(0 0 0)
(0 0 0)
(0 0 0)
(0 0 0)
(0 0 0)
(0 7.54028e-08 0)
(0 0 0)
(0 0 0)
(0 2.90175e-07 0)
(0 1.72649e-07 0)
(0 0 0)
(0 7.54028e-08 0)
(0 1.72649e-07 0)
(0 0 0)
(0 0 0)
(0 0 0)
(0 0 0)
(0 0 0)
(0 0 0)
(0 0 0)
(0 0 0)
(0 0 0)
(0 0 0)
(0 0 0)
(0 0 0)
(0 0 0)
(0 0 0)
(0 0 0)
(0 0 0)
(0 0 0)
(0 0 0)
(0 0 0)
(0 0 0)
(0 0 0)
(0 0 0)
(0 0 0)
(0 0 0)
(0 0 0)
(0 0 0)
(0 0 0)
(0 0 0)
(0 0 0)
(0 0 0)
(0 0 0)
(0 0 0)
(0 0 0)
(0 0 0)
(0 0 0)
(0 0 0)
(0 0 0)
(0 0 0)
(0 0 0)
(0 0 0)
(0 0 0)
(0 0 0)
(0 0 0)
(0 0 0)
(0 0 0)
(0 0 0)
(0 0 0)
(0 0 0)
(0 0 0)
(0 0 0)
(0 0 0)
(0 0 0)
(0 0 0)
(0 0 0)
(0 0 0)
(0 0 0)
(0 0 0)
(0 0 0)
(0 0 0)
(0 0 0)
(0 0 0)
(0 0 0)
(0 0 0)
(0 0 0)
(0 0 0)
(0 0 0)
(0 0 0)
(0 0 0)
(0 0 0)
(0 0 0)
(0 0 0)
(0 0 0)
(0 0 0)
(0 0 0)
(0 0 0)
(0 0 0)
(0 0 0)
(0 0 0)
(0 0 0)
(0 0 0)
(0 0 0)
(0 0 0)
(0 0 0)
(0 0 0)
(0 0 0)
(0 0 0)
(0 0 0)
(0 0 0)
(0 0 0)
(0 0 0)
(0 0 0)
(0 0 0)
(0 0 0)
(0 0 0)
(0 0 0)
(0 0 0)
(0 0 0)
(0 0 0)
(0 0 0)
(0 0 0)
(0 0 0)
(0 0 0)
(0 0 0)
(0 0 0)
(0 0 0)
(0 0 0)
(0 0 0)
(0 0 0)
(0 0 0)
(0 0 0)
(0 0 0)
(0 0 0)
(0 0 0)
(0 0 0)
(0 0 0)
(0 0 0)
(0 0 0)
(0 0 0)
(0 0 0)
(0 0 0)
(0 0 0)
(0 0 0)
(0 0 0)
(0 0 0)
(0 0 0)
(0 0 0)
(0 0 0)
(0 0 0)
(0 0 0)
(0 0 0)
(0 0 0)
(0 0 0)
(0 0 0)
(0 0 0)
(0 0 0)
(0 0 0)
(0 0 0)
(0 0 0)
(0 0 0)
(0 0 0)
(0 0 0)
(0 0 0)
(0 0 0)
(0 0 0)
(0 0 0)
(0 0 0)
(0 0 0)
(0 0 0)
(0 0 0)
(0 0 0)
(0 0 0)
(0 0 0)
(0 0 0)
(0 0 0)
(0 0 0)
(0 0 0)
(0 0 0)
(0 0 0)
(0 0 0)
(0 0 0)
(0 0 0)
(0 0 0)
(0 0 0)
(0 0 0)
(0 0 0)
(0 0 0)
(0 0 0)
(0 0 0)
(0 0 0)
(0 0 0)
(0 0 0)
(0 0 0)
(0 0 0)
(0 0 0)
(0 0 0)
(0 0 0)
(0 0 0)
(0 0 0)
(0 0 0)
(0 0 0)
(0 0 0)
(0 0 0)
(0 0 0)
(0 0 0)
(0 0 0)
(0 0 0)
(0 0 0)
(0 0 0)
(0 0 0)
(0 0 0)
(0 0 0)
(0 0 0)
(0 0 0)
(0 0 0)
(0 0 0)
(0 0 0)
(0 0 0)
(0 0 0)
(0 0 0)
(0 0 0)
(0 0 0)
(0 0 0)
(0 0 0)
(0 0 0)
(0 0 0)
(0 0 0)
(0 0 0)
(0 0 0)
(0 0 0)
(0 0 0)
(0 0 0)
(0 0 0)
(0 0 0)
(0 0 0)
(0 0 0)
(0 0 0)
(0 0 0)
(0 0 0)
(0 0 0)
(0 0 0)
(0 0 0)
(0 0 0)
(0 0 0)
(0 0 0)
(0 0 0)
(0 0 0)
(0 0 0)
(0 0 0)
(0 0 0)
(0 0 0)
(0 0 0)
(0 0 0)
(0 0 0)
(0 0 0)
(0 0 0)
(0 0 0)
(0 0 0)
(0 0 0)
(0 0 0)
(0 0 0)
(0 0 0)
(0 0 0)
(0 0 0)
(0 0 0)
(0 0 0)
(0 0 0)
(0 0 0)
(0 0 0)
(0 0 0)
(0 0 0)
(0 0 0)
(0 0 0)
(0 0 0)
(0 0 0)
(0 0 0)
(0 0 0)
(0 0 0)
(0 0 0)
(0 0 0)
(0 0 0)
(0 0 0)
(0 0 0)
(0 0 0)
(0 0 0)
(0 0 0)
(0 0 0)
(0 0 0)
(0 0 0)
(0 0 0)
(0 0 0)
(0 0 0)
(0 0 0)
(0 0 0)
(0 0 0)
(0 0 0)
(0 0 0)
(0 0 0)
(0 0 0)
(0 0 0)
(0 0 0)
(0 0 0)
(0 0 0)
(0 0 0)
(0 0 0)
(0 0 0)
(0 0 0)
(0 0 0)
(0 0 0)
(0 0 0)
(0 0 0)
(0 0 0)
(0 0 0)
(0 0 0)
(0 0 0)
(0 0 0)
(0 0 0)
(0 0 0)
(0 0 0)
(0 0 0)
(0 0 0)
(0 0 0)
(0 0 0)
(0 0 0)
(0 0 0)
(0 0 0)
(0 0 0)
(0 0 0)
(0 0 0)
(0 0 0)
(0 0 0)
(0 0 0)
(0 0 0)
(0 0 0)
(0 0 0)
(0 0 0)
(0 0 0)
(0 0 0)
(0 0 0)
(0 0 0)
(0 0 0)
(0 0 0)
(0 0 0)
(0 0 0)
(0 0 0)
(0 0 0)
(0 0 0)
(0 0 0)
(0 0 0)
(0 0 0)
(0 0 0)
(0 0 0)
(0 0 0)
(0 0 0)
(0 0 0)
(0 0 0)
(0 0 0)
(0 0 0)
(0 0 0)
(0 0 0)
(0 0 0)
(0 0 0)
(0 0 0)
(0 0 0)
(0 0 0)
(0 0 0)
(0 0 0)
(0 0 0)
(0 0 0)
(0 0 0)
(0 0 0)
(0 0 0)
(0 0 0)
(0 0 0)
(0 0 0)
(0 0 0)
(0 0 0)
(0 0 0)
(0 0 0)
(0 0 0)
(0 0 0)
(0 0 0)
(0 0 0)
(0 0 0)
(0 0 0)
(0 0 0)
(0 0 0)
(0 0 0)
(0 0 0)
(0 0 0)
(0 0 0)
(0 0 0)
(0 0 0)
(0 0 0)
(0 0 0)
(0 0 0)
(0 0 0)
(0 0 0)
(0 0 0)
(0 0 0)
(0 0 0)
(0 0 0)
(0 0 0)
(0 0 0)
(0 0 0)
(0 0 0)
(0 0 0)
(0 0 0)
(0 0 0)
(0 0 0)
(0 0 0)
(0 0 0)
(0 0 0)
(0 0 0)
(0 0 0)
(0 0 0)
(0 0 0)
(0 0 0)
(0 0 0)
(0 0 0)
(0 0 0)
(0 0 0)
(0 0 0)
(0 0 0)
(0 0 0)
(0 0 0)
(0 0 0)
(0 0 0)
(0 0 0)
(0 0 0)
(0 0 0)
(0 0 0)
(0 0 0)
(0 0 0)
(0 0 0)
(0 0 0)
(0 0 0)
(0 0 0)
(0 0 0)
(0 0 0)
(0 0 0)
(0 0 0)
(0 0 0)
(0 0 0)
(0 0 0)
(0 0 0)
(0 0 0)
(0 0 0)
(0 0 0)
(0 0 0)
(0 0 0)
(0 0 0)
(0 0 0)
(0 0 0)
(0 0 0)
(0 0 0)
(0 0 0)
(0 0 0)
(0 0 0)
(0 0 0)
(0 0 0)
(0 0 0)
(0 0 0)
(0 0 0)
(0 0 0)
(0 0 0)
(0 0 0)
(0 0 0)
(0 0 0)
(0 0 0)
(0 0 0)
(0 0 0)
(0 0 0)
(0 0 0)
(0 0 0)
(0 0 0)
(0 0 0)
(0 0 0)
(0 0 0)
(0 0 0)
(0 0 0)
(0 0 0)
(0 0 0)
(0 0 0)
(0 0 0)
(0 0 0)
(0 0 0)
(0 0 0)
(0 0 0)
(0 0 0)
(0 0 0)
(0 0 0)
(0 0 0)
(0 0 0)
(0 0 0)
(0 0 0)
(0 0 0)
(0 0 0)
(0 0 0)
(0 0 0)
(0 0 0)
(0 0 0)
(0 0 0)
(0 0 0)
(0 0 0)
(0 0 0)
(0 0 0)
(0 0 0)
(0 0 0)
(0 0 0)
(0 0 0)
(0 0 0)
(0 0 0)
(0 0 0)
(0 0 0)
(0 0 0)
(0 0 0)
(0 0 0)
(0 0 0)
(0 0 0)
(0 0 0)
(0 0 0)
(0 0 0)
(0 0 0)
(0 0 0)
(0 0 0)
(0 0 0)
(0 0 0)
(0 0 0)
(0 0 0)
(0 0 0)
(0 0 0)
(0 0 0)
(0 0 0)
(0 0 0)
(0 0 0)
(0 0 0)
(0 0 0)
(0 0 0)
(0 0 0)
(0 0 0)
(0 0 0)
(0 0 0)
(0 0 0)
(0 0 0)
(0 0 0)
(0 0 0)
(0 0 0)
(0 0 0)
(0 0 0)
(0 0 0)
(0 0 0)
(0 0 0)
(0 0 0)
(0 0 0)
(0 0 0)
(0 0 0)
(0 0 0)
(0 0 0)
(0 0 0)
(0 0 0)
(0 0 0)
(0 0 0)
(0 0 0)
(0 0 0)
(0 0 0)
(0 0 0)
(0 0 0)
(0 0 0)
(0 0 0)
(0 0 0)
(0 0 0)
(0 0 0)
(0 0 0)
(0 0 0)
(0 0 0)
(0 0 0)
(0 0 0)
(0 0 0)
(0 0 0)
(0 0 0)
(0 0 0)
(0 0 0)
(0 0 0)
(0 0 0)
(0 0 0)
(0 0 0)
(0 0 0)
(0 0 0)
(0 0 0)
(0 0 0)
(0 0 0)
(0 0 0)
(0 0 0)
(0 0 0)
(0 0 0)
(0 0 0)
(0 0 0)
(0 0 0)
(0 0 0)
(0 0 0)
(0 0 0)
(0 0 0)
(0 0 0)
(0 0 0)
(0 0 0)
(0 0 0)
(0 0 0)
(0 0 0)
(0 0 0)
(0 0 0)
(0 0 0)
(0 0 0)
(0 0 0)
(0 0 0)
(0 0 0)
(0 0 0)
(0 0 0)
(0 0 0)
(0 0 0)
(0 0 0)
(0 0 0)
(0 0 0)
(0 0 0)
(0 0 0)
(0 0 0)
(0 0 0)
(0 0 0)
(0 0 0)
(0 0 0)
(0 0 0)
(0 0 0)
(0 0 0)
(0 0 0)
(0 0 0)
(0 0 0)
(0 0 0)
(0 0 0)
(0 0 0)
(0 0 0)
(0 0 0)
(0 0 0)
(0 0 0)
(0 0 0)
(0 0 0)
(0 0 0)
(0 0 0)
(0 0 0)
(0 0 0)
(0 0 0)
(0 0 0)
(0 0 0)
(0 0 0)
(0 0 0)
(0 0 0)
(0 0 0)
(0 0 0)
(0 0 0)
(0 0 0)
(0 0 0)
(0 0 0)
(0 0 0)
(0 0 0)
(0 0 0)
(0 0 0)
(0 0 0)
(0 0 0)
(0 0 0)
(0 0 0)
(0 0 0)
(0 0 0)
(0 0 0)
(0 0 0)
(0 0 0)
(0 0 0)
(0 0 0)
(0 0 0)
(0 0 0)
(0 0 0)
(0 0 0)
(0 0 0)
(0 0 0)
(0 0 0)
(0 0 0)
(0 0 0)
(0 0 0)
(0 0 0)
(0 0 0)
(0 0 0)
(0 0 0)
(0 0 0)
(0 0 0)
(0 0 0)
(0 0 0)
(0 0 0)
(0 0 0)
(0 0 0)
(0 0 0)
(0 0 0)
(0 0 0)
(0 0 0)
(0 0 0)
(0 0 0)
(0 0 0)
(0 0 0)
(0 0 0)
(0 0 0)
(0 0 0)
(0 0 0)
(0 0 0)
(0 0 0)
(0 0 0)
(0 0 0)
(0 0 0)
(0 0 0)
(0 0 0)
(0 0 0)
(0 0 0)
(0 0 0)
(0 0 0)
(0 0 0)
(0 0 0)
(0 0 0)
(0 0 0)
(0 0 0)
(0 0 0)
(0 0 0)
(0 0 0)
(0 0 0)
(0 0 0)
(0 0 0)
(0 0 0)
(0 0 0)
(0 0 0)
(0 0 0)
(0 0 0)
(0 0 0)
(0 0 0)
(0 0 0)
(0 0 0)
(0 0 0)
(0 0 0)
(0 0 0)
(0 0 0)
(0 0 0)
(0 0 0)
(0 0 0)
(0 0 0)
(0 0 0)
(0 0 0)
(0 0 0)
(0 0 0)
(0 0 0)
(0 0 0)
(0 0 0)
(0 0 0)
(0 0 0)
(0 0 0)
(0 0 0)
(0 0 0)
(0 0 0)
(0 0 0)
(0 0 0)
(0 0 0)
(0 0 0)
(0 0 0)
(0 0 0)
(0 0 0)
(0 0 0)
(0 0 0)
(0 0 0)
(0 0 0)
(0 0 0)
(0 0 0)
(0 0 0)
(0 0 0)
(0 0 0)
(0 0 0)
(0 0 0)
(0 0 0)
(0 0 0)
(0 0 0)
(0 0 0)
(0 0 0)
(0 0 0)
(0 0 0)
(0 0 0)
(0 0 0)
(0 0 0)
(0 0 0)
(0 0 0)
(0 0 0)
(0 0 0)
(0 0 0)
(0 0 0)
(0 0 0)
(0 0 0)
(0 0 0)
(0 0 0)
(0 0 0)
(0 0 0)
(0 0 0)
(0 0 0)
(0 0 0)
(0 0 0)
(0 0 0)
(0 0 0)
(0 0 0)
(0 0 0)
(0 0 0)
(0 0 0)
(0 0 0)
(0 0 0)
(0 0 0)
(0 0 0)
(0 0 0)
(0 0 0)
(0 0 0)
(0 0 0)
(0 0 0)
(0 0 0)
(0 0 0)
(0 0 0)
(0 0 0)
(0 0 0)
(0 0 0)