/*--------------------------------*- C++ -*----------------------------------*\
| =========                 |                                                 |
| \\      /  F ield         | OpenFOAM: The Open Source CFD Toolbox           |
|  \\    /   O peration     | Version:  v2106                                 |
|   \\  /    A nd           | Website:  www.openfoam.com                      |
|    \\/     M anipulation  |                                                 |
\*---------------------------------------------------------------------------*/
FoamFile
{
    version     2.0;
    format      ascii;
    arch        "LSB;label=32;scalar=64";
    class       volScalarField;
    location    "0";
    object      p;
}
// * * * * * * * * * * * * * * * * * * * * * * * * * * * * * * * * * * * * * //

dimensions      [0 2 -2 0 0 0 0];

internalField   nonuniform List<scalar> 
11644
(
-0.0379205
-0.0377948
-0.0375504
-0.0371717
-0.0366386
-0.0359707
-0.0354351
-0.0346029
-0.0332598
-0.0319526
-0.0306294
-0.0289387
-0.0262563
-0.0225526
-0.0189288
-0.0127411
-0.00670539
-0.00272587
0.00445555
0.0104414
0.0155083
0.0229062
0.026523
0.0275324
0.0278604
0.027293
0.0283209
0.0283563
0.0286126
0.0292298
0.0296055
0.0294549
0.0289143
0.0287007
0.0287171
0.0284499
0.0281621
0.0279388
0.0277881
0.0277365
-0.0381503
-0.0380246
-0.0377372
-0.0373597
-0.0368978
-0.036313
-0.0354144
-0.0345413
-0.0336618
-0.0322615
-0.0304075
-0.0280904
-0.0254855
-0.0225659
-0.0180297
-0.0138145
-0.0108633
-0.00455549
0.000260408
0.0185789
0.0209672
0.0147409
0.0263357
0.0284357
0.0302501
0.0309371
0.0308585
0.0313732
0.0314444
0.0309979
0.0304264
0.0300125
0.0298609
0.029508
0.0289531
0.0285744
0.0282891
0.0280278
0.0278198
0.0277238
-0.0388849
-0.038716
-0.0383728
-0.0378885
-0.0372748
-0.0365723
-0.0356158
-0.0344775
-0.033297
-0.0318719
-0.0299619
-0.0276498
-0.0250355
-0.0222575
-0.0187413
-0.0144869
-0.00728271
-0.0011406
-0.00485218
0.018107
0.0198222
0.0237865
0.0196678
0.0278984
0.0314678
0.0346341
0.0356398
0.0358023
0.0352249
0.0342687
0.0332325
0.0323023
0.0314563
0.0305121
0.0296047
0.0289379
0.0283529
0.0279146
0.0275817
0.0273647
-0.0400751
-0.0398641
-0.0396009
-0.0390705
-0.0384141
-0.0375008
-0.0363982
-0.0350643
-0.0335623
-0.0319523
-0.0303271
-0.0283781
-0.0258716
-0.0224656
-0.0183894
-0.012554
-0.00376535
0.00153366
0.0071361
0.00548877
0.0145958
0.0223748
0.0264259
0.0320227
0.0350039
0.0380408
0.0402647
0.0405805
0.0395501
0.0377721
0.0359421
0.0342086
0.0325481
0.0310474
0.0297255
0.0285955
0.0277248
0.0269924
0.0265622
0.026271
-0.0419219
-0.0418363
-0.0415115
-0.041019
-0.0403614
-0.0394241
-0.038364
-0.0370975
-0.0356773
-0.0342338
-0.0326895
-0.030399
-0.0268053
-0.0215057
-0.0153547
-0.00950835
-0.000421201
0.0036992
0.0111275
0.00644516
0.017344
0.0220344
0.0304641
0.0350061
0.0373962
0.0381229
0.0406237
0.0418423
0.04142
0.0396453
0.0371385
0.0347447
0.0325672
0.030564
0.0289051
0.0274521
0.0263278
0.0255307
0.024966
0.0247748
-0.0441374
-0.0442406
-0.0440061
-0.0438666
-0.0431813
-0.042516
-0.0416475
-0.0407468
-0.039861
-0.038636
-0.0362971
-0.0324735
-0.0273741
-0.0212457
-0.0144191
-0.00911634
0.00163361
0.00644278
0.0127648
0.0157471
0.024261
0.0284551
0.031417
0.0348143
0.0383163
0.038279
0.0384495
0.0389307
0.0388017
0.0382445
0.0363762
0.0335463
0.0307789
0.0284311
0.0264883
0.0250715
0.0239041
0.0233932
0.0230614
0.0229899
-0.045983
-0.0458678
-0.0462459
-0.0460288
-0.0460843
-0.0461165
-0.0460033
-0.0459031
-0.0454326
-0.0435348
-0.0397218
-0.0349708
-0.0300036
-0.0235103
-0.0150712
-0.00993234
-0.0148621
0.00887527
0.0194282
0.012942
0.0434025
0.0356892
0.0316957
0.0268109
0.0282763
0.0295891
0.030392
0.0302402
0.0310593
0.0318983
0.0313533
0.0293826
0.0267739
0.0247483
0.0232577
0.022256
0.0215648
0.0207564
0.0206442
0.0204468
-0.0481707
-0.0485125
-0.0485704
-0.0486793
-0.0493421
-0.0497109
-0.0504129
-0.0510192
-0.0507019
-0.0484793
-0.0446165
-0.0398285
-0.0338007
-0.0296647
-0.0202474
-0.00809757
0.00863931
0.024757
0.0387133
0.0530492
0.0543122
0.0444595
0.0343567
0.027843
0.011726
0.0218076
0.0179631
0.017718
0.0192256
0.0201475
0.0207434
0.0210228
0.0201756
0.0191396
0.0187182
0.0182828
0.0182888
0.0181504
0.0178371
0.0179885
-0.050263
-0.0508644
-0.0506821
-0.0520212
-0.0525559
-0.0535009
-0.054552
-0.0553822
-0.0555063
-0.0539507
-0.0504943
-0.0460187
-0.039929
-0.0358472
-0.0269571
-0.0133221
0.00377014
0.0108666
0.0501473
0.0710972
0.0545169
0.0467573
0.030354
-0.00669054
0.0018297
-0.00814652
-0.00546262
0.000280473
0.00430018
0.00683996
0.00858365
0.0104771
0.0121015
0.012579
0.0130642
0.0136657
0.0140263
0.0149095
0.0151147
0.0152562
-0.0531082
-0.0522669
-0.0532411
-0.0537398
-0.054283
-0.0559285
-0.0575939
-0.0591105
-0.0602064
-0.0609531
-0.059075
-0.0553649
-0.0501185
-0.0409322
-0.0317041
-0.0230867
-0.00119867
0.0290359
0.0682048
0.10657
0.103776
0.0618375
0.01257
-0.016807
-0.0313763
-0.035548
-0.0296761
-0.0226557
-0.0114035
-0.00589739
-0.00233204
0.00138252
0.0049842
0.00721436
0.00877739
0.0102502
0.0106668
0.0107483
0.010969
0.011173
-0.0528192
-0.0532483
-0.0547658
-0.0550615
-0.0567662
-0.0579962
-0.0597231
-0.062114
-0.0638071
-0.0661932
-0.0676176
-0.0656615
-0.0610388
-0.0535781
-0.0398943
-0.0297765
-0.0188113
0.00991748
0.0685162
0.170711
0.185087
0.0320856
-0.0705271
-0.0943171
-0.0827025
-0.0647115
-0.0479744
-0.0380283
-0.0272223
-0.0187046
-0.0110114
-0.00509849
-0.00102586
0.00215256
0.00445663
0.00629133
0.00812894
0.00901902
0.0099402
0.00971217
-0.0493386
-0.0521685
-0.0519986
-0.0540436
-0.0553845
-0.0564281
-0.0588399
-0.0615651
-0.0642491
-0.0667555
-0.0711419
-0.0725763
-0.0717168
-0.0425056
-0.0549517
-0.0519432
-0.0579176
-0.0916794
-0.175324
-0.436984
-0.246333
-0.148354
-0.0941349
-0.0596289
-0.0425388
-0.0314035
-0.0221119
-0.0126762
-0.00714116
-0.00273807
0.00135192
0.00433779
0.00597321
0.00767392
0.00968596
0.0115898
0.0124086
-0.0489365
-0.0491672
-0.0497443
-0.050176
-0.04944
-0.05026
-0.0523655
-0.0550234
-0.0582819
-0.0579479
-0.0631394
-0.0587701
-0.06282
-0.0713027
-0.0759762
-0.0765716
-0.0981953
-0.162059
-0.2576
-0.544372
-0.346332
-0.18364
-0.0929459
-0.0576051
-0.0227692
-0.0174937
-0.0153251
-0.00337084
-0.00288688
0.000805785
0.0050929
0.00822253
0.00936732
0.00929186
0.00990635
0.00970072
0.0136433
-0.0508809
-0.0445524
-0.0475901
-0.046227
-0.0428571
-0.0389593
-0.0353427
-0.0391711
-0.0483154
-0.0252997
-0.0480001
-0.025555
-0.0299758
-0.0426884
-0.0224893
-0.0775154
-0.0849515
-0.102975
-0.0794399
-0.540801
-0.356622
-0.131247
-0.00316563
-0.016079
0.0567123
-0.0194231
0.000624663
0.0318206
0.00211205
0.0107827
0.0169686
0.016609
0.0144191
0.0120051
0.0127158
0.0157862
0.0154201
-0.0381402
-0.0434236
-0.0444082
-0.0387179
-0.0271411
-0.0171732
-0.00844962
-0.0149589
-0.0399568
0.0622708
-0.0734481
-0.0663098
-0.0617465
-0.0943341
-0.115211
0.0338942
-0.0634852
-0.0159788
0.341981
0.0075319
-0.566074
-0.475841
-0.694652
-0.266481
-0.019518
0.12062
0.0290946
0.0593502
0.0812881
0.0850206
0.102065
-0.0122895
0.0213512
0.0454767
0.0419361
0.0301004
0.0184152
0.0191727
0.0138728
0.00934611
-0.040993
-0.029963
-0.0342327
-0.0290081
-0.00178504
0.0160911
0.00433434
-0.00425618
0.00674147
0.0285899
-0.022085
-0.0594741
-0.174584
0.149219
-0.270104
-0.100347
-0.00665907
0.256959
-0.0258537
-0.515656
-0.590436
0.277104
0.139316
0.37145
0.2876
0.174054
-0.05995
-0.0463232
0.140416
0.122823
0.111138
0.0809845
0.064386
0.0829737
0.0866355
0.0508371
0.0228871
0.0129471
0.0125796
0.00311141
-0.0283378
-0.0251443
-0.0183419
-0.0180118
-0.00139111
0.00840336
0.00327968
-0.0295062
-0.0300139
-0.0426154
0.00290054
-0.0694355
-0.19981
-0.255436
-0.103805
-0.185483
-0.00504801
-0.0738745
-1.45401
0.0889276
1.517
1.30513
-0.229524
0.0341885
0.323869
0.416086
0.0583875
0.122971
0.165866
0.103637
0.135614
0.114594
0.0873067
0.0800658
0.0811003
0.062221
0.0349536
0.0302249
0.0257406
0.0169175
-0.017105
-0.0312636
-0.0183785
-0.0130401
-0.0199483
-0.0230054
-0.0232179
-0.0425076
-0.0741074
-0.0741689
-0.0661896
-0.146462
-0.0108598
-0.514126
0.128666
0.0246275
0.0169853
-0.4167
2.2171
0.87218
-0.10855
-1.17558
1.23834
0.617769
0.653975
0.506735
-0.116406
0.460721
0.136474
0.184669
0.12022
0.0939612
0.106844
0.0954907
0.0621014
0.0529131
0.0514461
0.0399145
0.0222096
0.0297868
-0.0106837
-0.0131103
-0.0188385
-0.0261697
-0.0475366
-0.0580456
-0.0307397
-0.000955252
-0.0278811
-0.0637046
-0.0797378
-0.190406
-0.254847
-0.219695
0.0136839
-0.180877
-0.351441
0.147206
-1.06363
0.590972
-0.0708112
-0.633306
-0.167336
0.161933
0.713125
0.581577
0.249013
0.079027
0.135384
0.153344
0.114619
0.14132
0.125709
0.0734109
0.0257459
0.0247474
0.0360231
0.0366453
0.0342887
0.0361235
-0.00960464
-0.0122712
-0.00447121
-0.00761513
-0.0188471
-0.0476777
-0.0567878
-0.0517472
-0.0447279
-0.05689
-0.0791792
0.00753214
-0.272973
0.0306114
-0.0492158
-0.330408
-0.131633
-0.357238
-0.661866
0.728303
1.20808
0.192587
-0.12694
0.00286349
0.378702
0.361708
0.344973
0.0272978
0.415302
0.157723
0.138329
0.112041
0.0752722
0.0266367
0.018064
0.0376502
0.0358861
0.0267983
0.0145688
0.0177883
0.0110547
0.00265228
-0.00709685
-0.0152848
-0.0137352
-0.01433
-0.0306989
-0.059659
-0.070888
-0.0792799
-0.117045
-0.0866446
-0.0720045
-0.0528458
0.185237
0.409973
-0.48611
-0.149171
-1.82376
-0.187699
0.430751
0.120924
-0.874623
0.0341111
0.0482737
0.316627
0.233609
0.274997
0.316872
0.113456
0.0830197
0.0434451
0.0224697
0.0374219
0.0354292
0.023938
0.00101828
0.00201234
0.00596102
0.009069
0.0060245
0.00346682
0.000548615
-0.0100629
-0.0195065
-0.0111471
-0.00830103
-0.0146381
0.0042376
-0.0222753
-0.0477744
-0.0113956
0.226448
0.490899
0.774039
0.749515
1.40949
-1.31633
-1.90319
0.631108
1.84865
-1.07898
-1.17955
-0.158179
1.26541
0.760357
0.561897
0.452085
0.183011
0.119431
0.0656441
0.0314182
0.0233938
0.0227846
0.00330908
-0.00952848
-0.0138693
-0.0107124
-0.0134416
-0.020924
0.00640015
-0.000896492
-0.000222063
-0.00281249
-0.00679871
0.0120513
0.0134177
0.0124859
0.0586907
0.0525204
0.0835562
-0.054759
-0.0185671
-0.346721
1.56338
2.52549
2.61049
-1.67109
3.12945
-4.08323
1.03683
-0.00888765
-0.664142
1.72723
1.3415
1.77495
-0.571455
-0.266914
-0.150013
0.0957356
0.0289219
0.0120577
0.00251113
-0.0189926
-0.0444811
-0.0423871
-0.0459951
-0.0512739
-0.0537577
-0.0466405
0.0055582
0.00945312
0.014698
0.015012
0.0158435
0.0242212
0.0343799
0.0400824
0.0374808
0.0469364
0.00256298
-0.00489509
0.0316261
0.0656428
-0.909119
-1.74425
0.177376
1.62848
1.44502
-2.56581
-3.43006
-0.569678
1.24396
0.387772
-1.55231
-0.673549
-0.00919261
-0.103064
-0.118799
-0.117642
-0.0876382
-0.0954176
-0.0649968
-0.0622415
-0.0795991
-0.078039
-0.0763077
-0.072329
-0.0705739
-0.0711045
0.0208126
0.0196755
0.0274918
0.032368
0.0401862
0.0467622
0.0579942
0.0760029
0.0979929
0.120301
0.085655
0.121491
0.219177
-0.0994822
0.571818
0.655214
-0.274554
-2.19962
-2.76245
-1.68164
-1.822
-1.92533
-0.749477
0.952098
1.36437
0.760931
-0.0715355
0.2277
0.0257385
-0.0984399
-0.127237
-0.136642
-0.100911
-0.0948603
-0.0906741
-0.0901026
-0.0896038
-0.0892457
-0.0927284
-0.0835889
0.0260384
0.0257756
0.0264479
0.0317598
0.039284
0.0497682
0.0662082
0.0983768
0.132694
0.153484
0.180076
0.178402
0.215732
0.136572
-0.598468
-0.772308
-1.6727
-1.65829
-1.10081
1.42142
3.1792
1.13246
-0.98293
-1.01418
-0.575152
-0.0558022
0.747252
-0.177942
0.034527
-0.29604
-0.204207
-0.186738
-0.153313
-0.132639
-0.121159
-0.112563
-0.111522
-0.111183
-0.105223
-0.102141
0.0167165
0.0143063
0.016046
0.0187881
0.0252874
0.0374698
0.0525633
0.127529
0.160298
0.0996728
0.119761
0.0806604
0.0368575
-0.142961
-0.136084
-0.363679
0.525483
0.590124
-1.02636
0.293819
-0.802408
1.10515
-1.23833
0.0250695
-0.122632
-0.275391
-0.491002
-0.128501
-0.177012
-0.181405
-0.163448
-0.204382
-0.18418
-0.15299
-0.144049
-0.135854
-0.136567
-0.130438
-0.127035
-0.129737
0.0182918
0.00845935
0.0111452
0.0165376
0.0252233
0.0405656
0.0574948
0.0863962
0.100983
0.130471
0.157351
0.0734261
0.0421743
-0.103779
0.221631
0.109105
0.116924
0.370351
0.0521713
1.15005
-1.66527
-1.08259
-1.2719
-0.95206
-0.698471
-0.328616
-0.113942
-0.0357359
-0.1316
-0.187039
-0.186312
-0.19751
-0.189998
-0.176667
-0.167161
-0.155017
-0.154134
-0.15048
-0.147343
-0.14903
0.0144528
0.0195168
0.0230398
0.0273002
0.0363371
0.0519112
0.0581607
0.0609706
0.0585991
0.104111
0.108368
0.15306
0.269712
0.0413294
0.0132807
-0.0726968
0.669481
0.70962
0.785575
1.17747
-1.64455
-1.18875
-1.19866
-0.820273
-0.474109
-0.149545
-0.0306631
0.00713267
-0.232525
-0.144398
-0.195061
-0.216179
-0.208066
-0.189658
-0.172157
-0.172684
-0.167772
-0.165088
-0.162916
-0.168064
0.0111516
0.0267772
0.0270337
0.0284076
0.0314851
0.0391384
0.0295666
-0.0177338
-0.0102176
-0.00210672
-0.0446433
0.373781
0.183729
0.152114
0.684479
0.972562
0.132857
1.25952
-0.980694
-0.761855
-0.797858
-1.07397
-0.10075
-0.544105
0.718698
0.428668
-0.263834
-0.188704
0.00661431
-0.336591
-0.298081
-0.299286
-0.272224
-0.203298
-0.191559
-0.183755
-0.176775
-0.173056
-0.168694
-0.176905
-0.0190865
-0.00552555
-0.0027544
-2.11122e-05
-0.00417865
-0.00913283
-0.0233154
-0.0448268
-0.0581858
-0.0413356
-0.00102222
0.118829
0.326109
0.460447
0.0221112
0.0400392
0.00101487
-0.062607
2.29296
3.13418
3.35511
2.11427
-0.171161
-0.242958
-0.437407
-0.400123
0.186671
-0.0312905
-0.165062
-0.245555
-0.335315
-0.342716
-0.28668
-0.248343
-0.217699
-0.198401
-0.187423
-0.179449
-0.171825
-0.190656
-0.0314372
-0.0425857
-0.0414259
-0.0396166
-0.040691
-0.043977
-0.039521
-0.0410246
-0.0309269
-0.0289791
-0.0801249
-0.0605669
-0.198025
-0.167412
0.132318
0.377266
0.464839
-0.0797062
1.91663
1.98208
2.33872
1.79172
0.00236543
0.353813
0.532107
0.302966
-0.0527722
-0.230507
-0.236565
-0.233362
-0.241706
-0.234368
-0.228248
-0.236758
-0.221192
-0.207786
-0.198495
-0.192176
-0.187755
-0.184225
-0.0404258
-0.0493793
-0.0533958
-0.0551167
-0.059205
-0.0660467
-0.0744042
-0.0847855
-0.101375
-0.112817
-0.145877
-0.207417
-0.274006
-0.358004
-0.638694
-0.87928
-0.691709
-0.172784
0.0378588
0.171352
-0.121476
0.330336
0.636357
-0.0704406
-0.279633
-0.155218
0.00378177
-0.0352435
-0.0878726
-0.207508
-0.213058
-0.2092
-0.222768
-0.224713
-0.220038
-0.213088
-0.202802
-0.195242
-0.187969
-0.181693
-0.0449643
-0.0401724
-0.0461901
-0.053726
-0.0611805
-0.0738414
-0.0869952
-0.110329
-0.137766
-0.191733
-0.172526
-0.351871
-0.409007
-0.682823
-0.903568
-1.10338
-0.699052
-0.983358
-0.890898
-0.390717
0.131745
0.10877
0.225314
0.374227
0.210232
0.0833588
0.0969441
0.169283
0.0196499
-0.129061
-0.180513
-0.211073
-0.206547
-0.207214
-0.208696
-0.206322
-0.192665
-0.186026
-0.176161
-0.169906
-0.0476191
-0.0480416
-0.0487332
-0.0513888
-0.0584302
-0.0716981
-0.0805875
-0.0929053
-0.144411
-0.181089
-0.157357
-0.258439
-0.501739
-0.692922
-1.03898
-1.48087
-1.09607
-1.28521
-2.16458
-3.09057
1.39118
0.775098
0.80702
0.489986
0.506504
0.231128
0.093752
-0.00195025
0.0359012
-0.0882311
-0.115129
-0.168485
-0.176603
-0.18063
-0.175649
-0.168216
-0.159979
-0.159509
-0.155897
-0.146757
-0.0702002
-0.0510144
-0.0529834
-0.0608739
-0.0751798
-0.0838234
-0.0817228
-0.0762591
-0.0756185
-0.0840103
-0.12142
-0.155308
-0.156375
-0.232006
-0.506314
-0.78613
-1.02476
-1.3736
-0.500731
-0.643079
1.83442
1.01699
0.401785
0.29364
0.0488727
-0.0383345
0.0554236
0.118489
0.000477737
-0.0829078
-0.118502
-0.131713
-0.155407
-0.165921
-0.154705
-0.143117
-0.130062
-0.120963
-0.117912
-0.135369
-0.0499157
-0.0627515
-0.0577798
-0.0584224
-0.0535624
-0.0593152
-0.0474227
-0.0333152
-0.00902602
-0.00927763
-0.0941905
-0.230608
-0.228515
-0.032801
0.5373
0.710659
0.762955
0.936144
0.962711
1.37075
0.842061
0.756766
0.532043
0.824678
0.176641
0.273147
0.0280249
-0.213377
-0.352326
-0.214356
-0.113225
-0.0820657
-0.0911434
-0.105398
-0.107464
-0.109617
-0.111174
-0.104272
-0.112894
-0.0973546
-0.063675
-0.0573068
-0.0546171
-0.0464475
-0.0351609
-0.0491722
-0.0395885
-0.0315497
-0.0247605
-0.00104629
-0.0141929
0.0514094
0.196758
0.270165
0.436754
0.711898
0.384549
1.30689
1.02661
1.03983
-1.17388
-0.562802
0.21984
-0.376399
0.0206031
-0.268196
-0.139242
-0.0186302
-0.221781
-0.175919
-0.02712
-0.0576983
-0.0709949
-0.0839862
-0.0920967
-0.0858107
-0.09314
-0.0978042
-0.0990499
-0.100793
-0.0741146
-0.0568411
-0.0555846
-0.0534007
-0.0514199
-0.0507102
-0.0454788
-0.040324
-0.0347742
-0.0622801
-0.0293817
0.0437129
0.125696
0.17909
0.245378
0.104448
-0.0186055
-0.510908
1.3036
1.91849
-0.714723
-0.475667
-1.34416
-0.665052
-0.684091
-0.390441
-0.294858
-0.121769
-0.0549204
-0.0724214
-0.0482404
-0.042985
-0.0578756
-0.062091
-0.0677243
-0.0705872
-0.073584
-0.0775839
-0.0759099
-0.0747513
-0.0756632
-0.0741259
-0.0720311
-0.0693203
-0.0657455
-0.0635342
-0.0592263
-0.0550611
-0.0703626
-0.0766778
-0.0820407
-0.117795
-0.0742466
-0.058699
0.193383
0.0864428
-0.317862
-0.390578
-0.0589962
-0.00334684
-0.92171
-0.867497
-0.80199
-0.509696
-0.3205
-0.0920841
-0.0762964
-0.132714
-0.228498
0.012365
0.0138416
-0.0035192
-0.010852
-0.0280575
-0.0383973
-0.0403853
-0.0434903
-0.0475072
-0.0470649
-0.0396934
-0.0985294
-0.0877928
-0.0864864
-0.0844694
-0.0819445
-0.0785786
-0.0720074
-0.0832994
-0.0607704
-0.164005
-0.137813
-0.187584
-0.197475
-0.306749
-0.300519
-0.352302
-0.509952
-0.454026
-0.516754
-0.348785
-0.561536
-0.485184
-0.465301
-0.413677
-0.32727
-0.214933
-0.0662048
-0.112858
-0.014697
0.00701611
0.057371
0.0532624
0.0253168
-0.00599826
-0.0146941
-0.0170651
-0.0175992
-0.0198771
-0.024245
-0.0363538
-0.091235
-0.0896781
-0.0910907
-0.0977369
-0.0955921
-0.0920292
-0.104573
-0.101875
-0.0932629
-0.149436
-0.138362
-0.175201
-0.25786
-0.307484
-0.14231
-0.0476417
-0.126892
0.19849
-0.716919
-1.30656
1.80628
0.968358
-0.014685
0.119588
0.205486
0.230008
0.161258
0.0803869
0.0795159
0.120257
0.102031
0.0771712
0.0500629
0.0223158
0.00988688
-0.000298323
-0.00356012
-0.00965697
-0.0114427
-0.00572877
-0.113123
-0.0971627
-0.0981102
-0.100182
-0.1083
-0.119711
-0.121396
-0.127432
-0.117259
-0.0759335
-0.105234
-0.10211
-0.0750256
-0.0577507
-0.0274698
0.0460244
-0.604748
-0.111133
-0.365596
-0.271406
0.965058
0.650238
1.04113
0.596923
0.658545
0.559429
0.46805
0.334589
0.230681
0.155277
0.0793998
0.0577651
0.0485938
0.0201246
0.0242724
0.0128062
0.00611439
-0.000173574
-0.00338577
-0.012676
-0.115486
-0.10661
-0.111495
-0.116119
-0.122337
-0.131419
-0.145504
-0.167726
-0.145963
-0.104284
0.00917005
-0.0314425
-0.117735
-0.0945382
-0.0672472
-0.193272
-0.290719
-0.503012
0.398364
0.66848
1.59803
1.63098
0.691563
0.685959
0.434835
0.388202
0.261718
0.151076
0.207304
0.266574
0.0299363
0.0376609
0.0118369
0.0151725
0.020545
0.0155836
0.012646
0.00953978
0.0107123
0.00458651
-0.0994165
-0.11289
-0.116962
-0.120418
-0.124182
-0.128106
-0.115918
-0.114487
-0.0967625
-0.11277
-0.119437
-0.162683
0.0287462
0.00787298
0.186536
0.0638661
-0.100578
-0.397335
0.655788
0.245284
2.03825
0.963343
-0.168336
-0.0012589
-0.0162601
0.0432895
0.185601
0.143577
0.00796636
0.0377895
0.0369983
0.0735063
0.0541321
0.0425826
0.0389946
0.0251678
0.0234847
0.0276705
0.0241724
0.0348182
-0.111115
-0.107532
-0.108533
-0.111027
-0.114686
-0.120772
-0.109849
-0.0892361
-0.0990072
-0.0675057
-0.0474308
-0.0238254
0.00334593
0.0401446
0.0622843
0.150142
0.447149
0.475756
0.297254
-0.209835
-0.0126713
0.0970105
-0.17915
-0.428089
-0.27426
-0.287653
-0.250461
-0.136971
-0.0326696
0.0492985
0.020768
0.0364366
0.0484026
0.0420372
0.0409249
0.0385725
0.0366283
0.0357022
0.0339984
0.0277736
-0.100091
-0.0964712
-0.0938167
-0.101844
-0.104166
-0.106005
-0.103745
-0.0965889
-0.0943717
-0.0484291
-0.062784
0.00341315
0.108073
0.187236
0.26756
0.380348
0.452982
0.462098
0.258278
0.217359
0.376233
0.198093
-0.178444
-0.187183
-0.157088
-0.200688
-0.140948
-0.0486125
-0.0172788
0.0227365
0.0300574
0.0337213
0.043304
0.0422272
0.0411738
0.0385428
0.0370674
0.0366526
0.0366243
0.0410072
-0.114415
-0.104042
-0.101104
-0.10075
-0.101568
-0.111858
-0.122208
-0.0873636
-0.0903396
-0.0895836
-0.0916661
-0.0434353
0.0139138
0.0595759
0.157705
0.292158
0.142243
0.173918
-0.279312
-0.733324
1.27013
0.822829
0.433564
0.341647
0.163804
0.0458645
0.0117854
-0.00614602
-0.0111734
-0.0177247
0.036172
0.0415445
0.0281809
0.0355191
0.0445225
0.0416706
0.0409575
0.0401776
0.0369668
0.0407219
-0.115004
-0.112454
-0.116657
-0.120861
-0.121519
-0.122004
-0.104833
-0.115116
-0.102794
-0.0938975
-0.0297788
-0.0409406
-0.0179129
0.00881171
0.125077
0.148582
0.18273
-0.0046405
0.071108
0.0374462
1.25992
0.913868
0.285389
0.153021
0.0625236
-0.0219926
-0.0709275
-0.0520369
0.0475253
0.036303
0.010164
0.0496927
0.0429806
0.0452892
0.0483
0.047976
0.047437
0.0530065
0.0540287
0.0552307
-0.107108
-0.128115
-0.130143
-0.128244
-0.125089
-0.118602
-0.101567
-0.0890395
-0.0475309
-0.078553
-0.206997
-0.160445
-0.0111291
0.0436826
0.222244
0.315528
0.294538
0.240702
0.431362
0.678662
0.681503
0.496005
-0.0182679
-0.0755821
-0.032651
0.0286534
-0.0160206
0.0661385
0.00786276
-0.0869668
0.0252305
0.0883243
0.0978214
0.0723454
0.0582588
0.0626014
0.0544419
0.0507562
0.0467777
0.0580522
-0.117664
-0.109832
-0.114103
-0.118484
-0.121562
-0.123081
-0.110907
-0.0991314
-0.0865551
-0.0671064
-0.0484848
-0.0982086
-0.16039
-0.129617
-0.0656486
0.0944563
0.0622903
0.127588
-0.0639165
-0.172691
-0.0450351
-0.197287
0.0690446
-0.0435787
0.117688
0.0623099
0.0109198
0.0167377
0.0788675
0.126559
0.0785879
0.0788009
0.0871934
0.0682908
0.061519
0.0502579
0.0505184
0.0489377
0.0495136
0.0364957
-0.0958956
-0.0946912
-0.0927223
-0.101062
-0.101727
-0.103348
-0.104307
-0.109176
-0.101724
-0.0765517
-0.0976122
-0.135371
-0.119327
-0.235712
-0.300784
-0.393886
-0.0641477
0.0858473
0.339898
0.412524
-0.194464
0.034885
0.225575
0.314972
0.166283
0.179369
0.185954
0.143035
0.126259
0.145285
0.130151
0.106093
0.0815218
0.0747459
0.0679963
0.0620037
0.0589782
0.0579084
0.0555668
0.0561793
-0.0978252
-0.0897968
-0.0901313
-0.0937711
-0.0977766
-0.100953
-0.102788
-0.0973442
-0.108092
-0.100401
-0.129587
-0.115797
-0.0909183
-0.0817912
-0.0949579
0.0225782
0.172926
0.342312
0.395901
0.502082
0.503156
0.298891
0.386673
0.45023
0.434417
0.404533
0.31894
0.273557
0.203977
0.125198
0.143885
0.141048
0.115984
0.0932835
0.0799765
0.0761314
0.0713816
0.0635275
0.0589515
0.0519226
-0.102518
-0.0952758
-0.0949267
-0.0975786
-0.100304
-0.104504
-0.116117
-0.0948568
-0.113065
-0.116607
-0.124526
-0.105536
-0.0653414
-0.0204989
0.0120645
0.139494
0.529107
0.612339
0.865883
1.01219
0.746043
0.545596
0.514014
0.525072
0.423082
0.419558
0.310259
0.229552
0.186136
0.156899
0.14339
0.112089
0.105116
0.08215
0.076279
0.0717399
0.0688255
0.0606498
0.0578508
0.0467358
-0.0989113
-0.103288
-0.105486
-0.101169
-0.104151
-0.105015
-0.103629
-0.0931471
-0.101581
-0.143375
-0.140946
-0.144562
-0.0958454
-0.065585
-0.0361135
0.103306
0.248159
0.568817
0.872879
0.713127
0.786101
0.714279
0.696831
0.630355
0.512683
0.423356
0.344768
0.278465
0.160078
0.092475
0.0868117
0.056226
0.0696767
0.0644808
0.0512254
0.0465472
0.043399
0.0416622
0.0400948
0.0431408
-0.0958906
-0.0849984
-0.0905811
-0.0978484
-0.104317
-0.106622
-0.11213
-0.109236
-0.0979458
-0.101664
-0.135041
-0.16963
-0.205797
-0.292935
-0.359491
-0.325335
-0.220235
-0.113874
-0.0251175
0.00570849
0.11061
0.205676
0.256558
0.212531
0.142257
0.0565743
0.312101
0.173028
0.130668
0.112217
0.0617086
0.048878
0.0359917
0.0318248
0.0161153
0.0158813
0.0210373
0.0225992
0.0252658
0.0232268
-0.0647675
-0.077994
-0.0806144
-0.0868485
-0.0882769
-0.0931962
-0.0979557
-0.112752
-0.105178
-0.121205
-0.146171
-0.218641
-0.328373
-0.487717
-0.639452
-0.736025
-0.720056
-0.747911
-0.473502
-0.480957
-0.48327
-0.0389616
0.0431485
-0.26462
-0.240678
-0.206395
-0.076146
-0.0302696
0.0126475
0.0377056
0.0214374
0.0198875
0.00486073
0.00636028
0.00295617
0.00487392
0.00838427
0.0138074
0.0146219
0.0349887
-0.0577395
-0.0611287
-0.0644048
-0.0674086
-0.0706152
-0.0718006
-0.0787237
-0.0917916
-0.069297
-0.135457
-0.146143
-0.180149
-0.238712
-0.34887
-0.486175
-0.445972
-0.651055
-0.248077
-0.0698437
-0.36166
-0.456169
-0.266825
-0.219847
-0.937148
-0.683165
-0.574168
-0.290137
-0.139369
-0.0561774
-0.0590247
-0.0591342
-0.0206744
0.00353248
0.00619482
0.0147491
0.0152684
0.018697
0.0191372
0.0206976
0.0193777
-0.0444599
-0.038826
-0.0383602
-0.0397722
-0.0428106
-0.0353855
-0.0378169
-0.0491412
0.000823902
-0.00649798
-0.0423186
-0.132881
-0.12526
-0.0508798
0.0266085
-0.00148668
0.240694
0.0391675
0.0575275
-0.152183
-0.161565
-0.294108
-0.31327
-0.339212
-0.342102
-0.301201
-0.262839
-0.203345
-0.157296
-0.0791218
-0.0353127
-0.0186646
-0.00746074
0.00763467
0.0116505
0.01785
0.0207498
0.0207959
0.0190528
0.00970955
-0.0263074
-0.022233
-0.0181084
-0.0141196
-0.0138517
-0.0111368
-0.00885636
-0.00492496
0.0144414
0.0115359
0.0259674
0.0210234
0.069046
0.110014
0.192444
0.301372
0.39748
0.594786
0.649597
0.652089
0.768621
0.464584
0.377279
0.138468
0.0766768
0.00321091
-0.0392847
-0.0554567
-0.063081
-0.0754762
-0.0233646
-0.0222284
-0.00907748
-0.00320772
-0.00126642
0.0046533
0.0078408
0.00900854
0.0082761
0.00182307
-0.0203092
-0.0106246
-0.00703544
-0.00428166
-0.00679762
-0.00785018
-0.00601027
-0.0131423
0.0302768
0.021417
0.0228355
0.0300559
0.0863265
0.18058
0.30173
0.380794
0.546438
0.487648
0.529167
0.714266
0.859065
0.733724
0.717207
0.401972
0.380836
0.240449
0.129355
0.0233325
-0.0510381
-0.0797504
-0.0543115
-0.0426153
-0.0333119
-0.0242737
-0.01558
-0.0108171
-0.00643706
-0.00657886
-0.00738592
-0.0157503
-0.000997799
-0.00665898
-0.00823694
-0.0118106
-0.0123006
-0.00647936
-0.000768203
0.00559809
0.0158604
0.0329247
0.0499805
0.0339928
0.0622065
0.111528
0.142648
0.297436
0.25904
0.103688
0.151148
0.331597
0.437592
0.294384
0.102182
0.0158676
0.0104687
-0.0381147
-0.054143
-0.118902
-0.111251
-0.103601
-0.072865
-0.0625063
-0.0700868
-0.0522727
-0.0393685
-0.0332992
-0.0265671
-0.0216412
-0.0183202
-0.0103495
-0.001763
-0.00801654
-0.00848444
-0.00881224
-0.00913067
0.00185666
0.0206216
0.017671
0.0177758
0.00307726
0.0209221
0.00366222
-0.0284495
-0.067949
-0.13232
-0.180286
-0.165291
-0.400575
-0.220364
-0.427013
-0.358151
-0.365693
-0.452736
-0.434771
-0.379715
-0.328545
-0.246316
-0.219853
-0.161774
-0.131036
-0.140317
-0.0932781
-0.0622631
-0.0525521
-0.0487914
-0.0384209
-0.031846
-0.0267
-0.0223681
-0.0245201
0.0231489
0.0159811
0.0135365
0.0104619
0.0125286
0.0145995
0.0159935
0.0254896
0.0941182
0.0718545
0.0234404
-0.0260482
-0.0743991
-0.165736
-0.248192
-0.377637
-0.48009
-0.796645
-0.874512
-0.813683
-0.710596
-0.79828
-0.674512
-0.427664
-0.423365
-0.282666
-0.26902
-0.241673
-0.184693
-0.140006
-0.0714578
-0.0475705
-0.0446989
-0.0468263
-0.0511682
-0.0369265
-0.0293865
-0.0223789
-0.0144495
-0.0209559
0.0484979
0.0477328
0.0503268
0.0527558
0.0557448
0.0582627
0.0635075
0.0737233
0.0880124
0.0852956
0.0937169
0.0512105
0.0255066
-0.0619152
-0.16935
-0.170135
-0.150946
-0.0839903
-0.0761629
-0.594387
-0.61411
-0.559592
-0.354578
-0.213934
-0.16421
-0.233654
-0.20189
-0.153326
-0.112612
-0.0840725
-0.0283367
-0.021751
-0.0254118
-0.0230761
-0.0194783
-0.0125963
-0.0102764
-0.00737956
-0.00565963
0.000416706
0.0553685
0.0685338
0.0745188
0.0803279
0.0839452
0.0913269
0.0988755
0.0973838
0.107734
0.130235
0.145951
0.143967
0.197828
0.26431
0.323715
0.395485
0.442988
0.529671
0.428382
0.221476
0.115089
0.122081
0.087511
0.0323374
-0.0661138
-0.0368828
-0.0143905
-0.00676337
-0.00334645
-0.0144548
-0.011919
-0.00370202
0.00408282
0.00304117
0.00419539
0.00895693
0.0109044
0.0078807
0.00411776
-0.00247044
0.0622511
0.0704171
0.0763995
0.0828392
0.0893318
0.0993757
0.109367
0.117359
0.122935
0.155935
0.190377
0.237235
0.323292
0.423342
0.55319
0.70232
0.792167
0.827449
0.85661
0.468671
0.422892
0.331257
0.211663
0.171408
0.261308
0.185651
0.117154
0.0589214
0.0181853
0.0192014
0.0249622
0.0228271
0.0144091
0.00941276
0.0099625
0.0141466
0.0156315
0.0147609
0.0120895
0.00703473
0.0577728
0.0557943
0.0623276
0.070076
0.0826832
0.0937669
0.102441
0.111807
0.123675
0.132469
0.196662
0.277356
0.323371
0.303551
0.404509
0.334013
0.391647
0.447982
0.539468
0.201376
0.261971
0.30655
0.243419
0.239919
0.213483
0.215306
0.174441
0.114614
0.0800079
0.0368274
-0.00406467
-0.00325903
-0.000767415
-0.00217597
0.010533
0.00771359
0.00817004
0.00616908
0.00560289
0.00603378
0.0644862
0.0585474
0.0567116
0.0571574
0.064214
0.0777654
0.0892798
0.102106
0.118602
0.130041
0.13206
0.158681
0.153998
0.120855
0.0951525
-0.00704012
-0.0836684
-0.0499977
-0.156096
-0.356277
-0.249877
-0.309365
-0.212875
-0.117807
-0.122026
-0.0233601
0.0161818
0.0397801
0.0623907
0.0434459
0.038145
0.0127049
0.00437242
-0.00374429
-0.00458079
-0.00455244
-0.00277884
-0.000480371
0.00519203
0.0118405
0.0691121
0.0618276
0.0615968
0.0607891
0.0661272
0.08149
0.0896658
0.100522
0.111603
0.102046
0.09622
0.0522285
0.0206007
-0.0402928
-0.0843564
-0.149224
-0.448421
-0.555886
-0.689508
-0.686654
-0.66273
-0.640053
-0.530747
-0.441247
-0.266732
-0.192643
-0.160967
-0.0807874
-0.00949043
0.0303912
0.0246177
0.013778
0.0219657
0.016791
0.011857
0.0102507
0.00655427
0.0062193
0.00828544
0.0194941
0.0713399
0.0731164
0.0716169
0.0731685
0.0767914
0.083826
0.0887752
0.101657
0.0859491
0.0767838
0.085873
0.0715818
0.0244239
-0.061509
-0.0758115
-0.132412
-0.325135
-0.39242
-0.478608
-0.622825
-0.673599
-0.456338
-0.343447
-0.372774
-0.290539
-0.252995
-0.173083
-0.087746
-0.0147867
0.031086
0.018884
0.0310787
0.0461295
0.0390472
0.0334845
0.0331486
0.033089
0.0349828
0.0359449
0.026218
0.0728472
0.0781201
0.0822826
0.0863346
0.0888419
0.0895948
0.0957307
0.105123
0.114184
0.101905
0.0850485
0.057211
0.0453252
0.0560847
0.0950457
0.188404
-0.208317
-0.151869
-0.202463
-0.219834
-0.195291
-0.14257
0.00384962
0.122672
0.179917
0.158494
0.11886
0.0731426
0.0493417
0.0465688
0.0583524
0.0789271
0.0720612
0.0587065
0.059308
0.0545541
0.055422
0.0558186
0.0510108
0.045451
0.0578307
0.0683944
0.0732016
0.0770832
0.077271
0.0803811
0.0843882
0.0838529
0.0899386
0.091937
0.106105
0.120629
0.122374
0.166707
0.222926