/*--------------------------------*- C++ -*----------------------------------*\
| =========                 |                                                 |
| \\      /  F ield         | OpenFOAM: The Open Source CFD Toolbox           |
|  \\    /   O peration     | Version:  v2106                                 |
|   \\  /    A nd           | Website:  www.openfoam.com                      |
|    \\/     M anipulation  |                                                 |
\*---------------------------------------------------------------------------*/
FoamFile
{
    version     2.0;
    format      ascii;
    arch        "LSB;label=32;scalar=64";
    class       volVectorField;
    location    "0";
    object      U;
}
// * * * * * * * * * * * * * * * * * * * * * * * * * * * * * * * * * * * * * //

dimensions      [0 1 -1 0 0 0 0];

internalField   nonuniform List<vector> 
11644
(
(0.000165597 2.34947e-05 2.15819e-21)
(0.000174364 4.86173e-05 5.95165e-21)
(0.000178069 6.66297e-05 3.19321e-21)
(0.000153314 6.85036e-05 0)
(0.000153143 8.53507e-05 0)
(0.000173807 0.000137278 0)
(0.00021831 -2.44265e-06 0)
(0.000144918 -3.40859e-06 0)
(7.28723e-05 0.000108376 0)
(0.000100217 0.000162014 0)
(0.000213379 -1.36804e-05 0)
(0.000275112 -0.000167618 0)
(0.000263309 -0.000614061 0)
(0.000311721 -0.000726889 0)
(0.000183055 -0.0012514 0)
(0.000541579 -0.000873068 0)
(0.000119751 -0.00176772 0)
(0.00109281 -0.00104041 0)
(0.000347523 -0.00168631 0)
(-0.000913718 -0.000116176 1.61876e-30)
(0.00404355 -0.00121097 -2.73389e-30)
(-0.00106413 -0.00266988 0)
(-0.00149311 -0.000789644 0)
(0.0006612 -0.00124578 0)
(0.000255082 -0.000721059 0)
(0.000340907 -0.000898742 0)
(0.000243218 -0.00064751 0)
(0.000202311 -0.000733208 0)
(0.000138484 -0.000497577 0)
(0.000172555 -0.000450074 0)
(0.000242549 -0.00038223 0)
(0.000235434 -0.000464013 0)
(0.000153437 -0.000523753 0)
(9.83563e-05 -0.000424816 0)
(0.000150951 -0.00023368 0)
(0.000143721 -0.000268458 0)
(0.000139605 -0.000181627 0)
(0.0001288 -0.00013275 0)
(0.000128821 -8.46171e-05 0)
(0.000128954 -3.61596e-05 4.18451e-22)
(0.000100268 3.13204e-05 2.77218e-21)
(9.44468e-05 0.000100948 2.56793e-21)
(9.03198e-05 0.000162659 1.37915e-21)
(0.000103992 0.000221263 0)
(0.000128799 0.000263351 0)
(0.000164762 0.000206897 0)
(0.000116109 0.000360457 0)
(0.000117977 0.000286181 0)
(0.000194631 5.51484e-06 0)
(0.000293321 -0.000314334 0)
(0.000345044 -0.000487891 0)
(0.000496702 -0.000833181 0)
(0.000646241 -0.000980185 0)
(0.000657864 -0.00166058 0)
(0.000593582 -0.00188436 0)
(0.00046379 -0.00267977 -5.30603e-22)
(-1.64278e-05 -0.00231102 1.32843e-20)
(-0.00170236 -0.00368241 7.77801e-20)
(0.000273243 -0.00315722 -1.5009e-19)
(0.00350577 -0.00307569 2.31617e-19)
(-0.00317056 -0.00184571 -1.96218e-19)
(0.000975369 -0.000887383 7.36189e-20)
(0.00221765 -0.0021907 -3.55675e-20)
(0.000315035 -0.00149658 -1.3776e-20)
(-9.38211e-05 -0.00157858 2.0807e-22)
(-3.88342e-05 -0.00130442 0)
(-0.000131806 -0.00149118 0)
(-0.000161362 -0.001198 0)
(-9.76649e-05 -0.00134069 0)
(-7.57973e-05 -0.00125121 0)
(-9.70626e-05 -0.00116397 0)
(-5.9667e-05 -0.000883729 0)
(-4.43937e-05 -0.000605342 0)
(-4.38181e-05 -0.000514249 0)
(-5.7228e-05 -0.000562412 0)
(-1.38949e-05 -0.000363649 0)
(3.42783e-06 -0.000292648 0)
(-1.0617e-06 -0.000202941 0)
(1.18602e-05 -0.000129856 0)
(4.14021e-05 -3.55629e-05 0)
(9.687e-05 1.63346e-05 0)
(8.00496e-05 7.87438e-05 0)
(6.65227e-05 0.000121011 0)
(0.000107875 0.000185414 0)
(0.000142556 0.000185518 2.53234e-21)
(0.000179141 0.000224066 0)
(0.000232084 0.000182963 0)
(0.000325072 0.000117965 0)
(0.000426866 1.46727e-05 0)
(0.000539331 -0.000171169 0)
(0.000715171 -0.000453348 0)
(0.000911103 -0.000821375 0)
(0.00108726 -0.00130112 3.66208e-21)
(0.0012833 -0.00174225 -4.65117e-21)
(0.00132201 -0.00246234 1.72906e-19)
(0.00100883 -0.00345315 -9.40077e-20)
(0.00131181 -0.00413084 3.64237e-19)
(-0.000291181 -0.00391648 2.91911e-19)
(-9.25765e-05 -0.00353948 -8.76921e-19)
(-0.000468171 -0.00456066 1.19891e-18)
(-0.00158759 -0.00391307 -1.47583e-18)
(0.000557219 -0.00252938 1.56725e-19)
(0.00103295 -0.00250197 7.10044e-19)
(-5.78875e-05 -0.00252553 -5.28177e-19)
(0.000138664 -0.00240698 2.62957e-19)
(-0.000259967 -0.00203671 -2.01461e-19)
(-0.000369587 -0.00179206 2.58672e-20)
(-0.000438013 -0.00169211 -3.3873e-21)
(-0.000489942 -0.00145464 0)
(-0.000487963 -0.00120753 0)
(-0.000405762 -0.000971953 0)
(-0.000360131 -0.000778261 0)
(-0.000279025 -0.000650092 0)
(-0.000189076 -0.000520372 0)
(-0.000135961 -0.000371512 0)
(-8.08859e-05 -0.000254849 0)
(-5.87531e-05 -0.000190424 0)
(-1.98042e-05 -0.000117263 0)
(-1.30226e-05 -5.04806e-05 0)
(7.39742e-06 -2.18123e-05 0)
(5.34136e-05 5.07759e-05 0)
(5.41913e-05 6.25969e-05 0)
(7.56929e-05 0.000193859 0)
(7.87674e-05 0.000219442 0)
(0.000107142 0.000300918 0)
(0.000140043 0.000363316 0)
(0.000225283 0.000381317 0)
(0.000348955 0.000391611 0)
(0.000465335 0.000377347 0)
(0.000633696 0.000322052 0)
(0.000820311 0.000195299 4.47549e-22)
(0.00107386 3.0593e-06 -3.79185e-20)
(0.00132235 -0.000375133 4.79135e-19)
(0.00159118 -0.000924957 -5.12907e-20)
(0.00203049 -0.001809 -8.08323e-19)
(0.00210499 -0.0028074 8.16036e-19)
(0.00191606 -0.00362687 -6.10336e-19)
(0.00243692 -0.00360976 -5.00934e-19)
(0.00123667 -0.00361729 1.7428e-18)
(-0.000591245 -0.0046278 -2.61297e-18)
(-0.000486498 -0.00313854 1.57882e-18)
(0.000844315 -0.0035837 6.36003e-19)
(-0.00155126 -0.00493584 -8.04003e-19)
(-0.00107177 -0.00334798 1.27616e-19)
(-0.000895822 -0.00270615 -2.62587e-19)
(-0.000992737 -0.00225931 7.77351e-19)
(-0.00108695 -0.00196285 -3.83101e-20)
(-0.00111703 -0.00166094 -4.07918e-19)
(-0.00111297 -0.00133587 -2.46297e-20)
(-0.00102299 -0.00112066 -5.35952e-22)
(-0.000896818 -0.000875087 0)
(-0.000725833 -0.000683761 0)
(-0.00057458 -0.000487264 0)
(-0.000439228 -0.000318384 0)
(-0.000330558 -0.00017804 0)
(-0.000227758 -0.000103589 0)
(-0.000146848 -2.04115e-05 0)
(-7.04116e-05 -6.91476e-07 0)
(-6.28846e-06 2.84137e-05 0)
(9.39873e-06 1.15445e-05 0)
(-6.79366e-05 2.0978e-05 0)
(-3.69653e-05 0.000223978 0)
(1.80025e-05 0.000252038 0)
(6.48652e-05 0.00037485 0)
(9.52467e-05 0.000474456 0)
(0.000123264 0.00053909 0)
(0.000190812 0.000630905 0)
(0.000263391 0.000707644 0)
(0.000423425 0.000765322 0)
(0.000603916 0.00078728 -7.01557e-21)
(0.000792143 0.000691093 4.44352e-20)
(0.00103984 0.000366697 1.638e-20)
(0.00147961 -0.000103159 -5.60614e-19)
(0.00219295 -0.00098208 6.26866e-19)
(0.00260825 -0.00207851 -1.21308e-18)
(0.00284473 -0.00304482 1.60325e-18)
(0.00289895 -0.0042271 -1.19515e-18)
(0.00312615 -0.00471289 1.38078e-18)
(0.00292143 -0.00433564 -4.67203e-18)
(0.00157028 -0.00502511 3.93603e-18)
(0.00127025 -0.0028003 -3.10028e-18)
(-0.000725099 -0.00317949 2.2527e-18)
(-0.00146003 -0.00565356 8.35818e-20)
(-0.00220632 -0.00422998 3.65591e-19)
(-0.00251613 -0.00338854 -9.24705e-19)
(-0.0019505 -0.00284107 1.70145e-18)
(-0.00197309 -0.00238804 -8.57415e-19)
(-0.00206233 -0.00185438 4.82463e-19)
(-0.00187972 -0.00135969 8.49945e-20)
(-0.00169189 -0.000806468 -4.15863e-20)
(-0.00147771 -0.000464709 -1.14782e-21)
(-0.00120029 -0.000209797 0)
(-0.000918076 -6.20536e-06 0)
(-0.000670134 0.000115408 0)
(-0.00044357 0.000181868 0)
(-0.000262473 0.000205402 0)
(-0.000112328 0.000165017 0)
(-3.29916e-05 0.000167346 0)
(2.74921e-05 5.05649e-05 0)
(4.93615e-05 6.06055e-05 0)
(-0.000174683 7.65648e-05 0)
(-0.000170306 0.000171612 0)
(-0.000154184 0.000335025 0)
(-9.59254e-05 0.000542042 0)
(-3.02348e-05 0.000632294 0)
(8.27955e-05 0.000779665 0)
(0.000198748 0.000875869 0)
(0.000323436 0.000994826 0)
(0.000494512 0.00111397 -1.24121e-20)
(0.000673024 0.00114354 -4.68884e-20)
(0.00111338 0.00109724 -7.41711e-20)
(0.00162019 0.000637561 5.99401e-19)
(0.00219502 0.000198832 -1.25793e-18)
(0.00264971 -0.000398471 8.01754e-19)
(0.00273916 -0.0017723 -7.82022e-19)
(0.00335759 -0.00327847 9.24925e-19)
(0.00341389 -0.00439407 -4.71431e-19)
(0.00317656 -0.00501381 -6.5004e-19)
(0.00349717 -0.00495516 1.91421e-18)
(0.0028187 -0.00500209 9.23595e-19)
(0.00110637 -0.00458554 3.82556e-19)
(-0.00195979 -0.00451583 -7.28294e-19)
(-0.00105162 -0.00404729 -2.03743e-18)
(-0.00179362 -0.0039387 1.7528e-18)
(-0.00268108 -0.00337837 -1.99334e-18)
(-0.00347598 -0.00266314 5.3939e-19)
(-0.00358201 -0.00264066 -6.5494e-19)
(-0.00329757 -0.00195222 8.55427e-19)
(-0.00297464 -0.000854316 4.43596e-20)
(-0.00235057 -0.000150377 -7.74708e-20)
(-0.00179226 0.000359389 3.38737e-20)
(-0.00135621 0.000586603 1.55807e-20)
(-0.0009425 0.000619278 0)
(-0.000600576 0.000600506 0)
(-0.000330784 0.000512166 0)
(-0.000139677 0.000414502 0)
(-1.83581e-05 0.000309574 0)
(0.000112876 0.000164547 0)
(0.000174249 0.000198764 0)
(0.000202299 -2.97913e-05 0)
(-0.000312915 0.000127509 0)
(-0.000264071 0.000293095 0)
(-0.000213514 0.000562559 0)
(-0.000157875 0.000658801 0)
(-6.66435e-05 0.000919492 0)
(2.46852e-05 0.00114102 0)
(0.000136843 0.00135735 0)
(0.000308298 0.0016232 7.24939e-21)
(0.000518901 0.00183106 3.87575e-21)
(0.000946651 0.00189121 -9.27632e-20)
(0.00153546 0.00155995 4.61611e-20)
(0.00228892 0.00183421 -5.01154e-19)
(0.00261001 0.00101624 7.65863e-19)
(0.00304266 0.000362498 6.44895e-19)
(0.00285593 0.000116964 -1.76959e-18)
(0.00200827 -0.00174601 3.37335e-19)
(0.00215633 -0.0041055 -5.74214e-20)
(0.0031401 -0.00383263 2.09647e-18)
(0.00242226 -0.00341657 1.96667e-18)
(0.00285949 -0.00883246 2.60116e-18)
(-0.000989241 -0.00680903 -6.78567e-19)
(-0.000924655 -0.00216574 3.34275e-18)
(-0.0011525 -0.00234875 4.65119e-19)
(-0.00181597 -0.00239424 -1.0981e-18)
(-0.00328927 -0.00315965 -1.21718e-18)
(-0.00489681 -0.00286529 1.8392e-18)
(-0.00395434 -0.00222524 -5.91894e-19)
(-0.00516831 -0.00107245 1.31998e-19)
(-0.00395983 -0.000201158 1.49095e-19)
(-0.00304666 0.000591574 -2.4779e-19)
(-0.00198633 0.00109891 -6.82928e-20)
(-0.00122776 0.0012452 -1.98866e-19)
(-0.000717883 0.00114784 -3.51739e-21)
(-0.000331949 0.00096943 0)
(-4.02755e-05 0.000839065 0)
(0.000193089 0.000694686 0)
(0.000364358 0.000613119 0)
(0.000422246 0.000434542 0)
(0.000471405 0.000190965 0)
(0.000470493 0.000181303 0)
(-0.000556587 0.000119703 0)
(-0.00053732 0.000499537 0)
(-0.000461392 0.00071011 0)
(-0.000383567 0.00104738 0)
(-0.000277739 0.0013705 0)
(-0.000139993 0.00162406 0)
(1.24887e-06 0.0020036 0)
(0.000201018 0.00242542 6.34795e-21)
(0.00069434 0.00258004 -1.40019e-19)
(0.00142584 0.0026388 1.29678e-19)
(0.00217197 0.00274355 5.82532e-19)
(0.00267788 0.00214008 -3.97576e-19)
(0.00260719 0.00227915 -3.42567e-20)
(0.0031805 0.000491208 -4.69926e-19)
(0.00318099 0.00119548 1.83421e-19)
(0.00395575 -0.000223691 -1.9618e-18)
(0.00527342 -0.000654393 -1.62056e-18)
(0.00274547 -0.00221811 -7.45462e-19)
(0.00297383 -0.00361936 5.66127e-19)
(0.000803721 -0.00597829 -8.98912e-19)
(0.00131884 -0.00682971 2.14011e-18)
(-0.000397326 -0.00304534 -1.91135e-18)
(-0.00223178 -0.00194188 3.29058e-18)
(-0.00314726 -0.00249826 -3.66245e-18)
(-0.00553304 -0.00308381 -1.90616e-18)
(-0.00565071 -0.00257253 -1.96814e-18)
(-0.00572085 -0.00115346 4.68826e-19)
(-0.00522821 -0.000952803 4.43277e-19)
(-0.00434108 0.00108754 -6.58562e-19)
(-0.0032782 0.00118407 8.8452e-20)
(-0.00193928 0.00145841 1.65987e-19)
(-0.000835954 0.00162758 2.3864e-19)
(-0.000118327 0.00153118 -1.04834e-19)
(0.000231621 0.00117916 0)
(0.000457212 0.000883324 0)
(0.000571138 0.000666667 0)
(0.000652162 0.000369257 0)
(0.000741435 0.000365749 0)
(0.000726167 0.000132428 0)
(0.000757333 4.20715e-05 0)
(-0.000825027 0.000121662 0)
(-0.000799474 0.000264846 0)
(-0.000825379 0.000671288 0)
(-0.00080361 0.00101504 0)
(-0.000758876 0.00132198 0)
(-0.000616866 0.00176501 0)
(-0.000421281 0.00231529 2.42099e-21)
(6.32836e-05 0.00277584 -1.88695e-20)
(0.00104872 0.00305584 1.50713e-19)
(0.00209216 0.00304363 -1.14406e-19)
(0.0029987 0.00325329 8.77325e-20)
(0.00387398 0.00312592 -1.07635e-19)
(0.00451669 0.0055945 -8.14372e-20)
(0.00482763 0.00526386 -1.92041e-19)
(0.00543605 0.00240745 -1.01166e-18)
(0.00721955 0.0020473 -4.25863e-19)
(0.00616107 0.0025803 1.45718e-18)
(0.00913957 -0.00110588 -1.66591e-19)
(0.00449126 -0.00194439 -1.12967e-18)
(0.00254253 -0.00267299 -3.05474e-18)
(0.00169353 -0.0155515 -2.07221e-18)
(-0.00121815 -0.00547926 1.00607e-18)
(-0.00312833 -0.00415265 3.89172e-18)
(-0.00522358 -0.00339274 -2.47909e-18)
(-0.00562306 -0.00219938 -9.98024e-19)
(-0.00604527 0.00012031 -1.17466e-18)
(-0.00495046 0.00205337 -7.19159e-19)
(-0.00470317 -0.000797811 2.51064e-19)
(-0.00364801 0.00154012 -1.39441e-19)
(-0.0026937 0.00147912 -1.03146e-19)
(-0.00150982 0.00173154 -2.5012e-20)
(-0.000459231 0.00167924 1.38621e-19)
(0.000415399 0.00162504 -6.99214e-20)
(0.000819122 0.00136979 -5.09725e-22)
(0.0008813 0.00097004 0)
(0.000930847 0.00067921 0)
(0.000978548 0.00044321 0)
(0.000990945 3.93856e-05 0)
(0.0011152 0.000282623 0)
(0.00106984 -0.000114795 0)
(-0.00117265 0.000259769 0)
(-0.00114718 0.000673479 0)
(-0.00109744 0.000920481 0)
(-0.000991621 0.00122621 0)
(-0.000889759 0.00162476 0)
(-0.000877903 0.00214321 0)
(-0.000800902 0.00273897 -5.15649e-21)
(-2.5206e-05 0.00313968 4.76838e-20)
(0.00119797 0.00338392 3.47901e-20)
(0.00249776 0.00363628 -8.55625e-20)
(0.00398093 0.00354998 -2.84999e-20)
(0.00563068 0.00286438 4.75612e-20)
(0.0071981 0.00630574 -1.08196e-21)
(0.0093934 0.00393284 -1.9262e-19)
(0.00756986 0.000689347 -1.34199e-19)
(0.0134043 0.00112245 -2.19126e-19)
(0.00824595 0.0007949 5.22449e-19)
(0.00874058 0.00066101 -1.37405e-19)
(0.00644438 -0.00697478 -6.24202e-19)
(0.00555753 -0.00948813 -3.63584e-20)
(0.00203973 -0.0106662 1.39913e-18)
(-0.00313084 -0.00801915 -1.87738e-19)
(-0.00285007 -0.00524547 -1.08614e-18)
(-0.0066247 -0.00220384 -1.06933e-19)
(-0.00614856 -0.00176138 -6.22654e-19)
(-0.00736815 0.000393943 -3.27284e-19)
(-0.00617153 0.00247862 -6.84008e-20)
(-0.00449303 0.00133528 -8.0613e-20)
(-0.00314959 0.000540638 5.63583e-20)
(-0.0018452 0.00142529 1.70447e-19)
(-0.000844223 0.00165364 -2.41762e-19)
(6.93609e-05 0.00165856 8.38816e-20)
(0.000979385 0.00157127 8.24124e-21)
(0.00160195 0.00133863 -3.12671e-20)
(0.00174235 0.00106484 0)
(0.00178054 0.000862212 0)
(0.00174534 0.000852848 0)
(0.0015303 0.000658106 0)
(0.00126841 0.000157714 0)
(0.00131543 0.000293876 0)
(-0.00111751 -0.000354471 0)
(-0.00144041 0.000472974 0)
(-0.00147827 0.000653911 0)
(-0.0017199 0.00121989 0)
(-0.00180447 0.00170446 0)
(-0.00183308 0.00226822 0)
(-0.00150937 0.00286947 5.6497e-21)
(-0.000482414 0.00340619 -5.18425e-21)
(0.00115323 0.00349095 1.77863e-20)
(0.00254741 0.00398132 -1.02809e-20)
(0.00394075 0.00497905 5.67569e-20)
(0.00598976 0.00588893 7.04555e-20)
(0.00987264 0.00307217 -1.48349e-19)
(0.00124963 0.00751725 3.727e-20)
(0.00995146 0.00844104 -1.12411e-19)
(0.00924633 0.00434514 -1.95476e-19)
(0.00971973 0.00183256 -6.92725e-20)
(0.0155372 -0.000599992 -1.68822e-20)
(0.017439 -0.00692254 -7.28785e-20)
(0.0115774 -0.017269 -5.89746e-19)
(-0.000143099 -0.0208787 -2.40724e-19)
(-0.00986699 -0.014272 -1.76026e-18)
(-0.0107921 -0.00548233 1.26975e-19)
(-0.00901781 -0.00012468 4.44241e-20)
(-0.00804165 -0.00152579 -1.55527e-19)
(-0.00650241 0.000339022 -1.39031e-19)
(-0.00463468 0.00412831 1.22261e-19)
(-0.00353602 0.00112751 5.80991e-20)
(-0.00156333 0.00312523 -1.13662e-20)
(-0.00117244 0.00149595 1.60355e-20)
(-0.000452921 0.00117377 -3.63642e-20)
(0.000663863 0.00122829 5.22949e-20)
(0.00153038 0.0012014 -3.49894e-20)
(0.00200801 0.00087402 5.37257e-21)
(0.0018209 0.000498648 0)
(0.00157117 0.000262357 0)
(0.0014143 1.13089e-05 0)
(0.00163861 0.000239333 0)
(0.00177612 -1.39967e-05 0)
(0.00179213 -8.56807e-05 0)
(-0.00186201 0.00137503 0)
(-0.00154426 0.000127586 0)
(-0.00197042 0.00117997 0)
(-0.00203503 0.00130142 0)
(-0.00226063 0.0015774 0)
(-0.00237009 0.00197581 0)
(-0.00214109 0.00247355 -2.26707e-22)
(-0.000974969 0.00292552 1.41282e-21)
(0.00031162 0.00353624 -5.50752e-21)
(0.00182082 0.00414547 -9.10535e-21)
(0.00250495 0.00620524 -1.44323e-20)
(0.00279975 0.0086909 4.34346e-20)
(0.00351682 0.00643904 -2.1077e-20)
(0.0145515 0.00586324 -1.09002e-19)
(0.0137745 0.00917431 -9.03351e-20)
(0.0121188 0.012575 -5.54274e-20)
(0.0155359 0.010004 2.44691e-20)
(0.0210773 0.00799253 2.39422e-21)
(0.023608 0.00287435 6.79911e-19)
(-0.0147458 0.00284255 -8.86503e-19)
(-0.0119429 0.00734234 -7.22075e-20)
(-0.00760135 0.0053331 -5.77677e-20)
(0.000352678 0.00898272 -5.46665e-20)
(-0.00108742 0.00381954 -4.19927e-21)
(-0.00120851 0.00558903 3.9617e-21)
(9.76507e-05 0.00439781 -3.85123e-21)
(-0.000152245 0.00189418 -7.47452e-22)
(6.57112e-05 0.000636924 -1.11975e-20)
(0.000529167 0.000219927 2.81616e-21)
(0.00155457 0.000219984 3.35638e-23)
(0.00257654 0.000253838 -6.3574e-22)
(0.00269428 -1.1767e-05 0)
(0.00245401 -0.000342172 0)
(0.00229857 -0.000746762 0)
(0.00192455 -0.000927701 0)
(0.00193314 -0.000280779 0)
(0.00152835 -7.57377e-05 0)
(-0.00262045 -0.00135363 0)
(-0.0026964 0.000336673 0)
(-0.00285946 0.000465984 0)
(-0.00288051 0.000647755 0)
(-0.00280881 0.00122478 0)
(-0.00291177 0.00149598 0)
(-0.00276762 0.00183626 1.75072e-21)
(-0.00201438 0.0019474 1.25595e-20)
(-0.0014003 0.0030928 3.99817e-21)
(-0.000606254 0.00369286 1.10242e-20)
(-0.00219384 0.00449323 -2.69498e-21)
(-0.00542115 0.00895439 5.30622e-20)
(0.00023201 0.0143894 3.91011e-21)
(0.00411804 0.0137975 -8.65795e-20)
(0.00205259 0.0118413 9.73756e-20)
(0.0107962 0.015906 -3.21286e-19)
(0.0121058 0.0197865 -6.98959e-20)
(0.0205609 0.0166511 -7.88519e-21)
(-0.00246017 0.0150962 2.227e-17)
(-0.00920166 0.0133783 2.0743e-18)
(0.00255674 0.0170981 -2.89933e-20)
(-0.00292329 0.00884332 -1.35254e-21)
(-0.00525633 0.00458989 5.72502e-20)
(-0.0085391 0.00529727 -2.89742e-20)
(-0.0020876 0.0122661 2.09309e-20)
(0.00509668 0.00702335 2.50378e-20)
(0.00347655 0.00129125 4.48865e-21)
(0.000310482 -0.000127639 -1.84835e-20)
(0.00075979 -0.000786118 1.538e-20)
(0.00143442 -0.00129954 -7.86999e-22)
(0.00214249 -0.000867262 3.32171e-21)
(0.00294021 -0.000222145 0)
(0.00293007 0.000134796 0)
(0.002523 0.000406839 0)
(0.00169064 7.39314e-06 0)
(0.000930825 -0.000143226 0)
(0.00263841 0.000640881 0)
(-0.00308114 -0.00234642 6.03073e-22)
(-0.0026802 -0.000171942 0)
(-0.00222872 -0.00131233 0)
(-0.00285786 -0.000319201 0)
(-0.00309922 0.000292948 0)
(-0.00310185 0.000571156 0)
(-0.00296784 0.000235149 -1.29217e-20)
(-0.00386854 0.000541248 3.17491e-20)
(-0.00272189 0.00256912 7.02125e-20)
(-0.00204797 0.00367545 -2.19928e-19)
(-0.00283819 0.000566808 -8.74263e-20)
(-0.00682686 0.0117193 6.55796e-19)
(-0.0106091 0.0296238 -7.07071e-19)
(0.015444 0.0269598 -3.3724e-19)
(0.00142342 -0.00231949 -1.16043e-20)
(-0.0184425 -0.00898878 4.35989e-19)
(-0.00308799 0.0231139 -4.07043e-20)
(0.0321204 0.0235408 -4.57176e-19)
(0.0389955 -0.0474517 -4.25955e-19)
(-0.0396079 -0.00489213 8.96527e-19)
(0.0171606 0.0346865 -1.93811e-19)
(-0.00310751 0.0181775 4.95523e-19)
(-0.0124288 0.00210059 3.51757e-19)
(-0.00471018 0.00280926 1.28774e-18)
(0.00329552 0.022874 5.11293e-20)
(0.000545687 0.00883245 -1.85639e-19)
(0.00168591 -0.00320799 -7.03168e-20)
(-0.000240347 -0.00266182 8.47568e-20)
(0.00157805 -0.00109293 -1.8191e-20)
(0.00126375 -0.00228384 -3.24722e-20)
(0.000131882 -0.00233705 4.88026e-21)
(0.000473145 -0.000833583 0)
(0.00200136 -0.000529523 0)
(0.00232998 -0.000349227 0)
(0.00235146 -0.000107901 0)
(0.00131406 6.91412e-05 0)
(-0.00268879 -0.00207845 0)
(-0.00117642 0.00297531 5.15798e-23)
(-0.00201285 -0.000789111 0)
(-0.0042649 -0.000743208 0)
(-0.00463967 0.000127444 0)
(-0.00402953 0.00122782 0)
(-0.00392228 0.00159345 0)
(-0.00615359 -0.00156331 -7.26511e-21)
(-0.00288738 0.00051628 4.5002e-21)
(-0.00726714 0.00574009 8.39802e-20)
(-0.00916504 0.00147672 -1.47361e-19)
(0.000687919 0.00968762 5.65837e-20)
(-0.00668514 0.0315248 -7.84318e-19)
(0.00242394 0.00125412 6.56569e-19)
(-0.0454074 0.086494 1.17576e-18)
(-0.0253291 0.0142674 3.04182e-19)
(0.0211031 0.08015 -3.77e-19)
(-0.00794093 0.0226974 -1.1441e-18)
(0.111172 -0.00611813 1.10132e-18)
(0.0309361 -0.0127943 -6.66887e-20)
(-0.181052 0.141345 -4.75086e-19)
(-0.00151047 -0.0978491 -2.02292e-20)
(0.146166 -0.036301 1.31863e-18)
(-0.0437928 0.0510365 -1.11345e-18)
(0.0787543 -0.0121786 9.33676e-19)
(0.0385836 -0.00907719 1.67727e-19)
(0.0673228 -0.0514193 -3.97886e-19)
(0.00871203 0.0392465 1.09514e-18)
(-0.00703876 -0.0107657 -1.14883e-19)
(-0.00484282 0.0263279 1.22837e-19)
(-0.00816844 0.0010069 2.09404e-19)
(0.00489326 -0.00599083 -2.1803e-19)
(0.00391653 0.00110027 1.11028e-19)
(-0.000116239 -0.00434772 -4.30929e-20)
(0.0009554 -0.00378445 1.76855e-21)
(0.000531642 -0.00209766 0)
(0.000328303 -0.00061153 0)
(0.000839571 -0.00111132 0)
(0.00196202 -0.00081304 0)
(0.00382427 0.000519979 0)
(0.00779723 -0.000808921 0)
(-0.00496666 -0.00294444 1.76559e-20)
(-0.00171719 9.91216e-06 0)
(-0.000711579 0.00134993 0)
(-0.00213508 0.00202679 0)
(-0.00285254 0.000635124 0)
(-0.00800453 -0.000511766 0)
(-0.00738699 -0.00435074 -8.22434e-22)
(-0.00374654 -0.00199314 -2.02663e-21)
(-0.00846707 -0.00111853 -4.21502e-20)
(-0.010496 -0.000604263 7.92127e-21)
(-0.0255707 -0.00711103 6.13348e-20)
(-0.0624645 -0.021793 -8.73069e-20)
(-0.000577192 0.0614109 -1.84513e-19)
(-0.087999 -0.0136971 1.27633e-18)
(-0.0765296 0.0435762 -7.58283e-19)
(0.0977497 0.077102 -6.22838e-21)
(-0.0612225 0.0448612 -2.96231e-18)
(0.281641 0.0485816 -2.07099e-18)
(-0.64425 0.528417 2.1457e-19)
(2.49617 0.377228 -2.13243e-17)
(-4.01652 0.225408 2.61251e-18)
(-1.45162 -1.47222 2.13207e-18)
(-0.585489 -0.393614 -3.32283e-18)
(0.0219078 -0.431337 5.42607e-18)
(0.08275 0.0431784 -6.95121e-19)
(-0.0309714 0.0455002 2.40123e-19)
(0.147589 0.0236124 1.74469e-18)
(-0.0153084 0.0421925 -5.42288e-19)
(0.0538858 -0.0212604 3.24648e-19)
(0.00906741 -0.00547528 -2.35693e-19)
(0.00385821 -0.00204305 3.29736e-20)
(-0.000501005 -0.00339578 3.56187e-20)
(-0.00165414 -0.00484242 1.41123e-20)
(0.00375966 -0.00659991 -3.72799e-22)
(0.00197245 0.00128636 0)
(-0.00338783 0.000299114 0)
(-0.00152305 0.000780706 0)
(-0.00108511 -0.000782582 0)
(0.000794124 -0.00140415 0)
(0.000426337 0.000845363 -9.95213e-21)
(0.000555119 0.00515616 1.1341e-19)
(-0.0064587 -0.000392625 0)
(-0.00543758 0.00221307 0)
(-0.00200841 0.00293579 0)
(-0.00446984 -0.00182006 0)
(-0.00440781 -0.00529899 0)
(-0.00741164 0.000667616 0)
(-0.0169772 -0.00534677 -9.73723e-21)
(-0.0221094 -0.0229211 3.51167e-20)
(-0.0145437 0.00559894 5.98224e-20)
(0.00183129 0.00215568 1.92036e-19)
(-0.00993097 0.0206259 -4.42282e-19)
(-0.0833955 -0.0870508 -1.61448e-20)
(0.00484787 0.0988667 3.19126e-19)
(0.0819521 0.0437333 -2.14067e-19)
(-0.165571 -0.113364 -1.406e-18)
(0.177581 0.0112874 -2.59342e-19)
(-0.808333 0.810354 -3.06522e-17)
(2.55609 -1.55991 -5.46188e-18)
(1.13089 0.266243 -3.4311e-19)
(-0.311739 0.826833 2.31272e-18)
(3.60141 1.4791 2.96444e-18)
(-1.65413 -0.52437 3.67964e-18)
(0.394002 -0.373045 3.41532e-18)
(-0.0448743 0.0319585 -3.03145e-19)
(0.0161055 -0.1335 -2.53002e-18)
(-0.0264283 0.107344 -5.9712e-19)
(0.0664838 -0.0918331 1.09996e-18)
(-0.00190325 0.0258985 5.03729e-19)
(-0.00693993 0.0071294 -5.06977e-19)
(0.00399352 0.00760657 7.15172e-20)
(0.0131709 -0.0226415 -6.44322e-20)
(0.00739246 -0.00720398 1.25599e-20)
(0.001226 -0.00271366 0)
(0.00126221 -0.00679708 0)
(0.00220963 -0.00118045 0)
(-0.002924 0.00393913 0)
(-0.00266785 0.00364366 0)
(-0.00242927 -0.000224473 0)
(0.00108774 0.00415799 9.68474e-20)
(-0.000858094 -0.0021262 4.16695e-21)
(-0.000118695 -0.000633205 0)
(-0.000855296 -0.00502933 0)
(-0.00341991 -0.00635952 0)
(-0.0035215 -0.00543727 0)
(-0.00567314 -0.00806733 0)
(-0.00485393 -0.000299104 0)
(0.00974639 0.00149889 0)
(0.00607332 -0.0104788 -6.54455e-21)
(-0.016887 -0.0275421 -6.91637e-20)
(-0.0362093 -0.0100756 6.78028e-20)
(0.00773101 0.00498984 3.44759e-20)
(-0.0557624 -0.0252714 2.78148e-20)
(-0.068294 0.0721072 -1.97619e-19)
(-0.0135026 0.0433618 -8.96287e-20)
(-0.037003 -0.0436597 9.14929e-19)
(-0.467584 -0.300353 2.32316e-18)
(0.209911 -0.269641 -9.34862e-19)
(1.32134 -1.00288 -1.29992e-18)
(-0.683317 2.15744 4.08604e-18)
(-0.314653 -6.36597 1.2963e-18)
(1.78932 3.65277 6.46259e-19)
(-0.713477 -1.05298 -1.72262e-18)
(-1.5109 0.844588 1.88604e-17)
(-0.0590315 0.0787715 -9.85281e-19)
(0.0190091 -0.0476367 -2.29008e-18)
(0.0270663 0.0738674 4.75992e-20)
(0.0534074 -0.0261953 2.89791e-19)
(-0.0112305 0.00687089 -1.14292e-19)
(0.0326706 -0.0122063 -2.51509e-19)
(0.0107322 -0.0260225 1.16011e-19)
(-0.0120189 -0.00608926 -5.79229e-21)
(-0.0139025 0.00470868 0)
(0.000777802 -0.000722626 0)
(0.000270601 -0.00693194 0)
(-0.00207485 -0.00274765 0)
(-0.00174703 -0.00271893 3.99742e-21)
(-0.0044517 -0.00158068 5.52817e-21)
(-0.00658338 0.000546687 3.2965e-21)
(-0.00227706 -0.00334839 0)
(9.70698e-05 0.000438257 0)
(-9.11574e-06 0.00151334 0)
(0.000946418 0.000758684 0)
(0.00192507 -0.00263785 0)
(0.00172214 -0.00334402 0)
(0.00287725 -0.00442775 0)
(-0.00293861 -0.0174398 0)
(-0.0198113 -0.00734449 0)
(-0.0139509 0.012242 7.1213e-23)
(-0.0117355 -0.00553214 3.01906e-21)
(-0.00674974 -0.0269224 -1.48443e-21)
(0.0196573 -0.00908731 -4.25388e-20)
(-0.0172219 -0.0281889 -1.23575e-19)
(-0.0464855 0.0401596 -3.17591e-19)
(-0.0647251 0.03111 1.77028e-20)
(0.100306 0.0942259 -4.11732e-19)
(0.210957 -0.793559 1.78265e-18)
(-1.42146 0.103532 1.59583e-18)
(-0.0755365 -1.40284 1.95444e-18)
(-1.02597 0.663972 1.2598e-17)
(0.208952 -1.44626 1.68578e-18)
(1.8394 0.926597 1.35602e-18)
(-2.04461 0.114314 -2.89957e-18)
(1.59412 -0.17509 -1.64923e-18)
(0.0127959 -0.2343 -1.17052e-18)
(-0.00849417 -0.0487362 8.83546e-19)
(0.0423621 0.0428873 3.07311e-20)
(0.00812712 -0.0294513 -2.21743e-20)
(-0.0255342 -0.0131622 6.43911e-20)
(-0.0039638 -0.0285915 1.43305e-20)
(0.000883545 -0.00715515 5.0581e-21)
(0.00562391 0.00906482 9.44501e-24)
(0.0128563 -0.00953851 0)
(-0.00419613 -0.012497 0)
(-0.00879389 0.00064777 0)
(-0.00637274 -0.000521826 0)
(-0.00536025 -0.00173521 0)
(-0.00293514 0.000482332 0)
(-0.00182787 0.000557842 0)
(-0.00578421 -0.00172378 -5.93704e-22)
(-0.00321431 -0.000881396 0)
(0.00118266 -0.00561879 0)
(-0.00249913 -0.00696505 0)
(-0.00330567 -0.00589738 0)
(-0.00127002 -0.00440764 0)
(0.0012326 -0.00179754 0)
(0.000830488 -0.00357493 0)
(-0.00201136 -0.017786 0)
(0.00296524 -0.0166292 0)
(0.00664209 -0.0174503 0)
(-0.00305295 -0.0205397 2.14421e-21)
(-0.00372561 -0.0595653 -2.17208e-20)
(0.00400097 0.00704705 1.25259e-20)
(0.0242322 0.00340758 -1.90734e-20)
(-0.133366 -0.0187933 1.68823e-18)
(-0.00686317 -0.0314041 3.66404e-20)
(0.206602 0.671509 1.58682e-18)
(0.276359 -0.751645 1.16302e-18)
(-1.18796 -2.64105 2.03022e-18)
(2.02018 3.52881 1.31105e-17)
(-0.495511 3.07306 1.87208e-19)
(-1.26619 3.14237 -9.77644e-18)
(1.43639 -3.37836 1.68478e-18)
(0.156808 -0.475236 4.86888e-19)
(-0.516635 0.115645 3.0288e-18)
(0.0555095 0.115687 -7.40548e-19)
(-0.0410053 0.00356086 2.53094e-20)
(-0.0115793 0.00723096 -1.48539e-20)
(-0.00630271 -0.0540936 -2.2283e-20)
(-0.00642376 -0.0172837 8.00064e-21)
(-0.0128319 -0.0132954 0)
(-0.00799839 -0.0122726 0)
(-0.00489617 -0.0113628 0)
(-0.00808013 0.00222472 0)
(-0.00541102 0.000322943 0)
(-0.00174057 -0.0046712 0)
(0.000732004 -0.00689269 0)
(-0.000580366 -0.0068348 0)
(-0.00491272 -0.00404901 0)
(-0.00437905 0.00104253 0)
(-0.000198903 -0.00292826 0)
(0.00263423 0.000374238 0)
(0.00614978 -0.00100474 0)
(0.00398391 -0.00360466 0)
(0.00110716 -0.00516335 0)
(0.00105687 -0.00606388 0)
(0.00529307 -0.00503343 0)
(0.00615415 -0.00867501 0)
(0.00153124 -0.0159688 0)
(0.00694813 -0.0202205 0)
(0.0120879 -0.00545228 0)
(0.0232931 -0.0174347 1.1269e-21)
(0.0441656 -0.047324 -2.41113e-20)
(-0.0298478 -0.140037 4.26701e-20)
(-0.051175 0.0737453 5.48594e-19)
(-0.363438 0.0735855 2.08659e-18)
(0.0466849 -0.268169 4.62639e-19)
(1.03168 1.02665 5.06159e-19)
(-0.162128 2.01469 -2.02492e-19)
(0.720471 2.00194 3.40636e-18)
(-0.221843 -2.06041 4.92712e-18)
(-0.693807 2.711 -2.67422e-18)
(0.397375 1.39133 1.36461e-18)
(-0.870586 0.984898 -1.35317e-18)
(0.220412 -0.315676 -8.81126e-20)
(0.0653875 -0.0656865 6.99727e-19)
(-0.00661497 -0.112612 -4.69923e-20)
(-0.0563179 -0.0318113 -4.75879e-20)
(-0.0357547 -0.00387369 7.08683e-22)
(-0.0218354 0.00250618 0)
(-0.0164892 -0.00978104 0)
(-0.0105368 -0.00645063 0)
(-0.0128691 6.24463e-06 0)
(-0.00710055 -0.000467947 0)
(-0.00279519 -0.00403978 0)
(-0.00313436 -0.0041087 0)
(-0.00514155 -0.00237416 0)
(-0.00592845 0.000217327 0)
(-0.00163003 0.00123275 0)
(0.00229518 -0.000967883 0)
(0.00798225 -0.000118371 0)
(0.00080424 -0.00145823 0)
(-0.000699179 0.000449836 0)
(0.00260159 0.00138388 0)
(0.00540506 0.000504809 0)
(0.00629716 -0.00133323 0)
(0.00704597 -0.00357453 0)
(0.0096818 -0.00368051 0)
(0.0129407 -0.00668601 0)
(0.0135004 -0.00771452 0)
(0.0182474 -0.022563 8.80346e-20)
(0.0116093 -0.0237883 0)
(0.0372448 -0.0259871 0)
(0.167602 0.0848046 -9.1245e-19)
(0.223023 -0.127941 1.85565e-18)
(-1.05555 -0.706538 7.96406e-19)
(1.70371 1.51573 -3.59355e-20)
(-0.716851 -1.30618 -4.46937e-19)
(-3.33946 -1.0142 5.79082e-19)
(-2.33679 0.617509 -1.47284e-17)
(0.407079 0.61733 4.30049e-18)
(2.58726 1.04906 -5.5694e-18)
(2.35296 -1.41859 -3.66139e-20)
(-3.01395 -0.185789 -1.76271e-19)
(0.623595 0.730296 -7.01607e-20)
(-0.260818 -0.162833 -1.49853e-18)
(-0.131814 0.114136 -1.54398e-18)
(-0.0416188 0.00779687 0)
(-0.0191684 -0.00308568 0)
(-0.023232 -0.0044544 -5.26705e-20)
(-0.0165566 0.00462991 0)
(-0.0126844 0.00126574 0)
(-0.00677237 -0.00221118 0)
(-0.00466224 -0.00472536 0)
(-0.00546677 -0.00131555 0)
(-0.00594772 0.000474635 0)
(-0.00446398 0.000193722 0)
(-0.0021228 -0.000856798 -6.57904e-22)
(-0.00495664 -0.0030529 -4.71988e-22)
(-0.0102954 -0.00100107 0)
(-0.00177095 0.00501088 0)
(0.00313531 0.00342397 0)
(0.00366807 0.00202662 0)
(0.00183435 0.00228192 0)
(0.00272578 0.00383143 0)
(0.0053028 0.00525695 0)
(0.00915283 0.00580098 0)
(0.0112372 0.00325274 0)
(0.0138414 0.000789772 0)
(0.0167017 0.00110552 0)
(0.0237105 -0.000705429 -3.8315e-19)
(0.036135 0.00843508 0)
(0.0418519 -0.0218691 0)
(0.121707 -0.00292754 -5.63771e-19)
(0.136701 0.426964 4.98038e-19)