/*--------------------------------*- C++ -*----------------------------------*\
| =========                 |                                                 |
| \\      /  F ield         | OpenFOAM: The Open Source CFD Toolbox           |
|  \\    /   O peration     | Version:  v2106                                 |
|   \\  /    A nd           | Website:  www.openfoam.com                      |
|    \\/     M anipulation  |                                                 |
\*---------------------------------------------------------------------------*/
FoamFile
{
    version     2.0;
    format      ascii;
    arch        "LSB;label=32;scalar=64";
    class       volScalarField;
    location    "0";
    object      p;
}
// * * * * * * * * * * * * * * * * * * * * * * * * * * * * * * * * * * * * * //

dimensions      [0 2 -2 0 0 0 0];

internalField   nonuniform List<scalar> 
11644
(
0.0526329
0.053045
0.053911
0.0552422
0.0570388
0.0593027
0.0620368
0.0652372
0.0688873
0.072952
0.0773759
0.0820723
0.0869202
0.0917617
0.0964038
0.100665
0.104319
0.107152
0.108972
0.109653
0.109214
0.107712
0.105157
0.101602
0.0972542
0.0923981
0.0872673
0.082043
0.0769079
0.0720107
0.0674539
0.0633109
0.0596274
0.0564233
0.0537037
0.0514637
0.0496946
0.0483872
0.0475378
0.0471318
0.0518962
0.0523031
0.0531459
0.0544438
0.056206
0.0584411
0.0611583
0.0643613
0.0680424
0.0721785
0.0767278
0.0816113
0.0867114
0.0918864
0.09693
0.10159
0.105642
0.108811
0.110897
0.111744
0.111282
0.109534
0.106666
0.102821
0.0981367
0.0928696
0.0873403
0.0817857
0.0763833
0.0712964
0.0666262
0.0624252
0.0587222
0.0555264
0.0528319
0.0506278
0.0488978
0.0476272
0.0468014
0.0464014
0.0503344
0.0507476
0.0515726
0.0528249
0.0545287
0.0567079
0.0593822
0.0625708
0.0662888
0.0705434
0.0753157
0.0805693
0.0862221
0.0921004
0.0979857
0.103584
0.108551
0.112579
0.115348
0.11656
0.116017
0.113752
0.110042
0.105246
0.0996602
0.0935411
0.0872074
0.0809988
0.075126
0.0697176
0.0648506
0.060562
0.0568464
0.0536866
0.0510561
0.0489268
0.0472689
0.0460545
0.0452568
0.0448608
0.047974
0.0483749
0.0491702
0.0503639
0.0519851
0.0540724
0.0566655
0.0598077
0.0635469
0.0679291
0.0730039
0.0787899
0.0852093
0.0921629
0.0994254
0.106571
0.113135
0.118774
0.122765
0.124574
0.123943
0.120892
0.115803
0.109228
0.101915
0.0942538
0.08665
0.0794455
0.0728755
0.067052
0.0619747
0.0576142
0.0539309
0.0508648
0.0483574
0.0463537
0.044807
0.0436761
0.0429285
0.0425517
0.044878
0.045245
0.0459731
0.0470703
0.0485666
0.0505086
0.0529558
0.0559815
0.0596752
0.0641414
0.0694866
0.0757842
0.0831222
0.0914555
0.100642
0.110175
0.119225
0.127707
0.133841
0.136771
0.136036
0.131617
0.124197
0.114775
0.104809
0.0947043
0.0851804
0.0766492
0.0692358
0.0629639
0.0577473
0.0534314
0.0498933
0.0470272
0.0447334
0.0429305
0.0415538
0.0405517
0.0398925
0.0395619
0.0411277
0.0414359
0.0420542
0.043
0.044304
0.0460166
0.0482109
0.0509871
0.0544783
0.0588304
0.0642062
0.0708583
0.0790265
0.0889721
0.100828
0.114026
0.127102
0.140006
0.149924
0.155144
0.154274
0.147317
0.135793
0.121521
0.107402
0.0938514
0.0818049
0.0717326
0.0635843
0.0570463
0.0518783
0.0478274
0.0446466
0.0421475
0.0402016
0.0387064
0.0375843
0.0367809
0.0362554
0.0359965
0.0368329
0.0370583
0.0375231
0.0382424
0.0392576
0.0406196
0.0424058
0.044727
0.0477344
0.051614
0.0566666
0.0632433
0.0717947
0.0830545
0.0978594
0.115793
0.129899
0.14756
0.163464
0.174039
0.175751
0.167625
0.152106
0.133008
0.107919
0.0894624
0.0745209
0.0632263
0.0549646
0.0487501
0.0441142
0.0406786
0.0381494
0.0362592
0.0348432
0.0337904
0.0330188
0.0324763
0.0321292
0.0319538
0.0320972
0.0322382
0.0325078
0.0329378
0.0335541
0.0344117
0.0355819
0.0371771
0.0393343
0.0422813
0.0463811
0.052128
0.060005
0.0713101
0.0867431
0.106187
0.13301
0.16271
0.191699
0.212215
0.216014
0.200982
0.172949
0.141165
0.110644
0.0859397
0.0687234
0.049707
0.0424713
0.0375504
0.0342543
0.0320007
0.0304936
0.0294918
0.0288022
0.0283305
0.0280117
0.0277975
0.027669
0.0276113
0.0271331
0.0271367
0.0271698
0.0272357
0.0273517
0.0275564
0.0278999
0.0284692
0.0293627
0.0308099
0.0330888
0.0365811
0.0419041
0.0553159
0.0693135
0.091821
0.121829
0.166868
0.21756
0.261951
0.276613
0.251017
0.200606
0.147197
0.10334
0.0677229
0.0494908
0.0297791
0.0256416
0.0233786
0.0223341
0.0219494
0.0219076
0.0220775
0.02231
0.0225494
0.0227687
0.0229492
0.0230676
0.0231213
0.0220757
0.0219663
0.0217405
0.0213862
0.0209239
0.0203474
0.0196817
0.0189414
0.01814
0.0173939
0.0168462
0.0166661
0.0167318
0.0268053
0.0344846
0.0554694
0.0877734
0.143628
0.233346
0.3409
0.390134
0.329844
0.218033
0.12714
0.0644484
0.0260545
0.0154451
0.00339047
0.00493263
0.0068017
0.00893792
0.0109967
0.012814
0.0143928
0.0156945
0.0167346
0.017536
0.0181216
0.0185022
0.0186965
0.0171696
0.016938
0.0164298
0.0156601
0.0145852
0.0131674
0.0113683
0.00910568
0.00627931
0.00274851
-0.00168207
-0.00702582
-0.0137548
-0.0132383
-0.0177575
-0.0159468
-0.00613121
0.0196571
0.121159
0.371952
0.583195
0.370655
0.118997
0.00601417
-0.0321371
-0.0409354
-0.0318679
-0.0277763
-0.018403
-0.0108438
-0.00478742
4.3197e-05
0.00389479
0.00694892
0.00934867
0.0112057
0.0126095
0.0136032
0.0142443
0.0145377
0.0127781
0.0123666
0.0115848
0.0103766
0.00869241
0.00645357
0.00351334
-0.000308531
-0.0052447
-0.0116736
-0.0202047
-0.0314705
-0.0464381
-0.0530322
-0.0792441
-0.1036
-0.151878
-0.258547
-0.544858
-0.50042
-0.270096
-0.173192
-0.120637
-0.0827623
-0.0589706
-0.0404794
-0.0270844
-0.0171871
-0.00971395
-0.00400488
0.000374765
0.00375573
0.00633115
0.00825279
0.00960735
0.0104689
0.0108907
0.00895568
0.00846691
0.00746987
0.00589529
0.00368077
0.000708059
-0.00322265
-0.00838517
-0.0151351
-0.0240124
-0.0358293
-0.0517924
-0.073223
-0.0894805
-0.128988
-0.173159
-0.252539
-0.407328
-0.575883
-0.656809
-0.459077
-0.279331
-0.179134
-0.121773
-0.0794069
-0.0556316
-0.0386827
-0.0262189
-0.0169514
-0.00998219
-0.00468943
-0.000627489
0.00245328
0.00472402
0.00633496
0.00737047
0.00792739
0.00591678
0.00535096
0.00417188
0.00235688
-0.000217034
-0.00368121
-0.00825515
-0.0142661
-0.0221028
-0.032429
-0.0460703
-0.0643398
-0.0883902
-0.110781
-0.153603
-0.201634
-0.271721
-0.362085
-0.389092
-0.564152
-0.462738
-0.29588
-0.186792
-0.130369
-0.0828238
-0.060042
-0.0430067
-0.03022
-0.0206179
-0.0133162
-0.00774027
-0.003453
-0.000174205
0.00225039
0.00398063
0.00510596
0.00556936
0.00374327
0.00313035
0.0018892
-2.84293e-05
-0.00272613
-0.00634157
-0.0110849
-0.0172543
-0.0252867
-0.0358006
-0.0495906
-0.0677106
-0.0912097
-0.115598
-0.157673
-0.207537
-0.275736
-0.357768
-0.367369
-0.432291
-0.466579
-0.530435
-0.562024
-0.385422
-0.229317
-0.144264
-0.107086
-0.0703048
-0.0534113
-0.0397057
-0.028876
-0.0204224
-0.0137694
-0.00857876
-0.00454312
-0.00144498
0.000848471
0.00247753
0.00352868
0.00407771
0.00248421
0.00197475
0.00082202
-0.00100773
-0.00357946
-0.00699408
-0.0113986
-0.0170722
-0.0243871
-0.0338229
-0.0459655
-0.0617391
-0.0823544
-0.106605
-0.145636
-0.202058
-0.280841
-0.42147
-0.57533
-0.686895
-0.661053
-0.474194
-0.249014
-0.113783
-0.091548
-0.0701568
-0.0633305
-0.0453445
-0.037537
-0.0300263
-0.0230154
-0.0168704
-0.0116813
-0.00740986
-0.00396148
-0.00130113
0.000676871
0.00208279
0.00300625
0.00352656
0.0024478
0.00197296
0.000988775
-0.000544398
-0.00269773
-0.00554563
-0.0091843
-0.0138194
-0.0196603
-0.0269537
-0.0361698
-0.0482031
-0.0638499
-0.085249
-0.117509
-0.164935
-0.238037
-0.367754
-0.583568
-0.752408
-0.720152
-0.409958
-0.0393202
0.0892683
0.0341951
-0.00145088
-0.0149678
-0.0177446
-0.0186224
-0.01707
-0.014194
-0.0108958
-0.0076257
-0.00457364
-0.0019778
9.57742e-05
0.00172725
0.00292741
0.00368156
0.00386366
0.00356728
0.00316214
0.00240439
0.00125462
-0.000332364
-0.00238932
-0.00493994
-0.00804433
-0.0118257
-0.0163898
-0.0220068
-0.0292904
-0.0389473
-0.0512779
-0.0781342
-0.105619
-0.156162
-0.224353
-0.334346
-0.453359
-0.452157
-0.260267
-0.015197
0.106188
0.0587241
0.0248264
0.00649917
-0.00116965
-0.00498698
-0.00592479
-0.00552807
-0.00428498
-0.00254684
-0.000700313
0.000970223
0.00238088
0.00353183
0.00435814
0.00486003
0.00507699
0.00550496
0.00525018
0.00477645
0.0040604
0.00311661
0.00195295
0.000613052
-0.000802179
-0.00234608
-0.00408133
-0.00604381
-0.00837384
-0.0117969
-0.0160238
-0.0326431
-0.0451007
-0.0760181
-0.114455
-0.166689
-0.220203
-0.236625
-0.182191
-0.0785732
-0.00718552
-0.00149305
0.00507284
0.00434251
0.00105773
0.00061396
0.000571974
0.000800608
0.00146211
0.00238135
0.00335436
0.00426017
0.00505779
0.00571433
0.00619583
0.00654677
0.00679575
0.00796109
0.00786107
0.00764931
0.00735564
0.00703082
0.00672424
0.00649742
0.00648571
0.00678953
0.00751997
0.00875541
0.010603
0.0131922
0.0148316
0.00685522
0.00123131
-0.0180743
-0.0507007
-0.115565
-0.20231
-0.271631
-0.279464
-0.227389
-0.151516
-0.07462
-0.0293466
-0.00863284
-0.0027671
0.00165621
0.00388709
0.00512168
0.00598191
0.00659086
0.00705341
0.00749215
0.00789684
0.00824536
0.00853429
0.00877206
0.00892516
0.0106017
0.0105863
0.0105932
0.0106715
0.0108646
0.0112557
0.0119137
0.0129423
0.0145656
0.0170811
0.0206534
0.0255291
0.0320425
0.037856
0.0342908
0.0332736
0.0167685
-0.0268179
-0.120055
-0.255433
-0.364484
-0.388899
-0.331141
-0.223806
-0.104426
-0.0460575
-0.0154643
-0.00356486
0.00329517
0.00699245
0.0088054
0.00979238
0.0102668
0.0105276
0.0107249
0.0108901
0.0110344
0.0111563
0.0112497
0.0112948
0.0131336
0.0132097
0.0134048
0.0137586
0.0143202
0.0151904
0.0164666
0.01825
0.0207594
0.0243001
0.0290917
0.0353178
0.0441777
0.052303
0.0559181
0.0489309
0.0211261
-0.0386637
-0.13702
-0.253924
-0.324936
-0.3173
-0.24848
-0.154105
-0.0776837
-0.0266348
-0.00872111
0.00253643
0.00837227
0.0115392
0.0130349
0.0137453
0.0140159
0.014081
0.0140307
0.0139417
0.0138623
0.0137966
0.0137533
0.0137458
0.0154057
0.0155797
0.0159059
0.0164304
0.0172035
0.0183097
0.0198666
0.0219844
0.0248047
0.0285034
0.0332677
0.0388655
0.0468327
0.0556459
0.0509325
0.0333339
-0.00413837
-0.0558843
-0.103792
-0.132877
-0.135285
-0.114871
-0.083954
-0.048953
-0.0245753
-0.00727229
0.00528588
0.0123332
0.0159292
0.017572
0.0181345
0.0181621
0.017937
0.0176052
0.017227
0.0168736
0.0165763
0.0163375
0.0161675
0.016101
0.0173484
0.0175511
0.0179366
0.0185302
0.019359
0.020472
0.0219383
0.0238339
0.0262499
0.0291995
0.0327483
0.0359788
0.0388301
0.0400876
0.0290168
0.0038054
-0.035102
-0.0791236
-0.108876
-0.114504
-0.102379
-0.0754391
-0.0438299
-0.0165178
2.79612e-06
0.0111286
0.0182395
0.0220494
0.0236324
0.0238338
0.0233482
0.0225266
0.0216163
0.0207695
0.0200428
0.0194567
0.0189985
0.0186531
0.0184074
0.0182524
0.019013
0.0192015
0.0195609
0.0201038
0.02083
0.0217617
0.022895
0.0241832
0.025705
0.0271221
0.0283113
0.0280272
0.0242767
0.0149368
-0.00643516
-0.0393062
-0.0775298
-0.118897
-0.145541
-0.147375
-0.127101
-0.0871267
-0.0454275
-0.0133704
0.00736196
0.020256
0.0266728
0.0294269
0.0299421
0.0291313
0.0277826
0.0262241
0.0247278
0.0234314
0.0223963
0.0215942
0.0209894
0.0205602
0.0202821
0.0201005
0.0204218
0.0205808
0.0208676
0.0212925
0.0218447
0.0225045
0.0232401
0.0239247
0.0244253
0.0243233
0.0229858
0.0199025
0.0111378
-0.00462584
-0.0344237
-0.0740177
-0.125051
-0.174247
-0.208457
-0.208828
-0.173567
-0.121192
-0.0679769
-0.0262144
0.00332004
0.0223819
0.0318419
0.0347721
0.0344653
0.0330006
0.0309642
0.0289163
0.0270785
0.0255306
0.0242907
0.0233132
0.0225615
0.0220328
0.0217086
0.0216087
0.0215801
0.0216749
0.0218958
0.0222153
0.0226177
0.0230523
0.0234602
0.0237387
0.0235767
0.0227347
0.0201883
0.0153378
0.00530062
-0.0121032
-0.0439387
-0.0861985
-0.142109
-0.190583
-0.231033
-0.23219
-0.189725
-0.13566
-0.0789427
-0.0349582
-0.00171409
0.0209295
0.0332394
0.037587
0.0372213
0.0350956
0.0327238
0.030499
0.0285962
0.0270026
0.0256954
0.0246511
0.0238565
0.023299
0.0229565
0.0228957
0.0225479
0.0226132
0.0227975
0.0230587
0.0233761
0.0236948
0.0239437
0.0240162
0.0237057
0.0227086
0.0202988
0.0157756
0.00710813
-0.00766291
-0.0334027
-0.0681978
-0.108788
-0.148141
-0.18087
-0.187267
-0.158347
-0.119443
-0.0745104
-0.0352111
-0.00461323
0.0168197
0.0296316
0.0361598
0.0372117
0.0352733
0.0331208
0.0310941
0.0293173
0.0278217
0.0265849
0.0256099
0.0248821
0.0243825
0.0240723
0.0239166
0.0233652
0.0234731
0.0236585
0.0239074
0.0241912
0.0244737
0.0246978
0.0247749
0.0246027
0.0239561
0.0224931
0.0194678
0.0139405
0.0044231
-0.0121583
-0.0361329
-0.0619518
-0.0900393
-0.111277
-0.120613
-0.116326
-0.0978906
-0.0700367
-0.0387318
-0.0122708
0.00883576
0.0231872
0.0311964
0.0339263
0.0334855
0.0321112
0.0306315
0.0291916
0.0279266
0.0268667
0.0260296
0.0253911
0.0249335
0.0246269
0.024439
0.0239997
0.0241552
0.0243325
0.0245684
0.024845
0.0251569
0.0254712
0.0257228
0.0258642
0.0257546
0.0252174
0.0236734
0.0207761
0.0153586
0.0057532
-0.0107301
-0.0312618
-0.0549419
-0.0735727
-0.0876731
-0.0945347
-0.0897719
-0.072307
-0.0475421
-0.0238153
-0.00263994
0.0129728
0.0227866
0.0278075
0.029414
0.0294808
0.0289277
0.0280876
0.0272457
0.0264768
0.0258243
0.025293
0.0248905
0.0246223
0.0244997
0.0243763
0.024466
0.0246434
0.0248963
0.0252188
0.0256125
0.0260787
0.0265897
0.0271083
0.0274808
0.0274932
0.0268165
0.0248836
0.0206372
0.0132324
2.98455e-05
-0.0200164
-0.0446309
-0.0694738
-0.0899259
-0.0981817
-0.0970422
-0.0841668
-0.0641079
-0.0419318
-0.0203287
-0.00224967
0.0116244
0.0200435
0.0240369
0.0257901
0.0263413
0.0263068
0.0260427
0.0256742
0.0252878
0.0249364
0.0246593
0.0244723
0.024391
0.024561
0.0245604
0.0247209
0.0249958
0.0253822
0.0258697
0.0264717
0.0272085
0.0280356
0.0288346
0.0293494
0.0292262
0.0274264
0.0226551
0.0136733
-0.000878246
-0.0228962
-0.0506353
-0.0827865
-0.110898
-0.124868
-0.124686
-0.112091
-0.0920296
-0.0659763
-0.0387344
-0.0156788
0.00188811
0.0129018
0.0190203
0.0222335
0.0237928
0.0245213
0.024795
0.0248104
0.0247081
0.0245568
0.0244105
0.0242847
0.0241861
0.0246904
0.0246946
0.0248329
0.0250891
0.0254795
0.0259927
0.0266382
0.0274232
0.0283348
0.0294162
0.0302429
0.0303764
0.0281361
0.0222331
0.0111249
-0.00573207
-0.0292201
-0.058833
-0.0946276
-0.128069
-0.150363
-0.150066
-0.132292
-0.109465
-0.0784324
-0.0476061
-0.0224546
-0.00359994
0.00860113
0.015664
0.0196938
0.0218834
0.0230886
0.0237067
0.0239785
0.0240751
0.0240707
0.0240163
0.0239437
0.0238502
0.024643
0.0247317
0.0248761
0.0251026
0.0254443
0.0259058
0.0264896
0.0271874
0.0279936
0.0288762
0.0295759
0.029238
0.0261513
0.0196686
0.00819139
-0.00886613
-0.0316596
-0.0593722
-0.0913475
-0.120421
-0.141753
-0.138877
-0.12069
-0.0973233
-0.0678387
-0.0411149
-0.0191845
-0.00262021
0.00823002
0.0147858
0.0187139
0.0209546
0.022239
0.0229254
0.0232853
0.02346
0.0235251
0.023523
0.0235025
0.0234614
0.0242251
0.0243433
0.0245038
0.0247212
0.0250141
0.0253911
0.0258626
0.0263992
0.0269621
0.0274752
0.0274127
0.02591
0.0217854
0.014114
0.00264842
-0.0132275
-0.0333548
-0.0566464
-0.079123
-0.0958201
-0.104311
-0.0993722
-0.0847702
-0.0650779
-0.0437502
-0.0246884
-0.00892876
0.00327029
0.011314
0.0162962
0.0192821
0.0210244
0.0220352
0.0226185
0.0229392
0.0231002
0.0231598
0.0231621
0.0231511
0.0231529
0.0235346
0.0235973
0.0237119
0.0238814
0.0241048
0.0243683
0.0246641
0.0249327
0.0250522
0.0248428
0.0238123
0.0210596
0.0157797
0.00669405
-0.00559885
-0.0205696
-0.0375661
-0.0556955
-0.0694086
-0.0753255
-0.0725501
-0.0652723
-0.0541872
-0.0379881
-0.0224895
-0.0084111
0.00314912
0.0113299
0.0161778
0.0190121
0.0206949
0.0216862
0.0222915
0.0226577
0.0228552
0.0229494
0.0229845
0.0229837
0.0229733
0.0229525
0.0227797
0.0227714
0.0228154
0.0228965
0.0229969
0.0230755
0.023091
0.0229528
0.0224673
0.0213085
0.0189782
0.0143942
0.00716844
-0.00297265
-0.0156593
-0.0302361
-0.0449338
-0.0592937
-0.0689098
-0.0698657
-0.0648049
-0.0542125
-0.0400485
-0.0237272
-0.00889064
0.00342937
0.0121659
0.0174308
0.0201174
0.0214891
0.0222317
0.0225647
0.0227362
0.0227967
0.0228098
0.0227963
0.0227764
0.0227504
0.0227239
0.0226927
0.0220413
0.0220305
0.022035
0.0220275
0.0219807
0.021842
0.0215308
0.0209278
0.0198404
0.0178023
0.0141483
0.00773669
-0.00204048
-0.0149033
-0.0300708
-0.0459899
-0.0605051
-0.0729939
-0.080978
-0.0811099
-0.0746648
-0.058372
-0.0388138
-0.0198983
-0.00369178
0.00849602
0.016452
0.0207666
0.02273
0.023458
0.023521
0.0233421
0.0230971
0.022844
0.022648
0.022496
0.0223848
0.0223141
0.0222819
0.0223041
0.0212971
0.0213377
0.0213256
0.0212539
0.0210901
0.0207772
0.0202223
0.0192826
0.0177392
0.015145
0.0106967
0.00316846
-0.00814313
-0.0235587
-0.0424159
-0.0620091
-0.0793488
-0.0925127
-0.102571
-0.102399
-0.0870013
-0.0659573
-0.0417427
-0.0211139
-0.00388217
0.00855501
0.0170674
0.0217644
0.0239818
0.0245679
0.0241795
0.0236852
0.0231581
0.0227151
0.0223837
0.0221376
0.0219635
0.0218649
0.0218322
0.0218921
0.0205492
0.0205969
0.0205565
0.0204418
0.0202304
0.0198542
0.0192289
0.0182405
0.0165754
0.0138343
0.00934982
0.00213733
-0.00884523
-0.0238147
-0.0426864
-0.0626462
-0.0825307
-0.0967548
-0.108031
-0.108469
-0.0903548
-0.0674247
-0.0434204
-0.0230258
-0.00618851
0.00645272
0.0153338
0.0205682
0.0232998
0.0241105
0.0237909
0.0233297
0.0227882
0.0223642
0.0220319
0.0217816
0.021608
0.021507
0.0214607
0.0214622
0.0198545
0.0198563
0.0198063
0.0197048
0.0195145
0.0191864
0.0186554
0.0178044
0.0163919
0.0140845
0.0103408
0.00449108
-0.0042069
-0.0157566
-0.0300559
-0.0466923
-0.0639583
-0.0775849
-0.0880642
-0.0899112
-0.0786156
-0.0624793
-0.043444
-0.025407
-0.00983556
0.00250386
0.0114283
0.0172045
0.0205534
0.0220717
0.0224001
0.0222598
0.0219303
0.0216486
0.0214069
0.02122
0.0210856
0.0209917
0.0209193
0.0208441
0.0193431
0.0193117
0.0192764
0.0192081
0.0190788
0.0188514
0.0184749
0.0178904
0.0169594
0.0154442
0.0129551
0.00904542
0.00302613
-0.00516496
-0.0148917
-0.0267732
-0.0393632
-0.0510884
-0.0588381
-0.0629244
-0.0626194
-0.0549822
-0.0430944
-0.0286673
-0.0155151
-0.0040385
0.00503398
0.0118708
0.0163598
0.0188614
0.0200762
0.0204551
0.0204973
0.0204373
0.0203359
0.0202414
0.0201619
0.0200986
0.0200457
0.019996
0.0189758
0.01898
0.0189591
0.0189146
0.0188365
0.0187165
0.0185235
0.0182299
0.0177771
0.0170688
0.0158413
0.0137628
0.0101797
0.00436903
-0.00324036
-0.0128256
-0.0233227
-0.034252
-0.0428975
-0.0492712
-0.0524675
-0.0511988
-0.0438601
-0.0329121
-0.0219341
-0.0113029
-0.00200836
0.00557581
0.0110844
0.0147229
0.0169214
0.0180351
0.0186138
0.0188761
0.0189743
0.0190071
0.0190095
0.0190114
0.0190225
0.0190477
0.0185633
0.0185627
0.0185632
0.0185615
0.0185616
0.0185719
0.0185819
0.0185891
0.0185708
0.0184903
0.0181376
0.0172413
0.0152319
0.0111071
0.00429029
-0.00516913
-0.0166191
-0.0292034
-0.0409943
-0.0502951
-0.0539979
-0.0547225
-0.0497823
-0.0409894
-0.0312026
-0.0207996
-0.0108643
-0.00218946
0.00484678
0.0101411
0.013527
0.0155077
0.0166614
0.0172976
0.0176556
0.0178563
0.0179635
0.01803
0.0180784
0.0181422
0.0180639
0.0180178
0.0180206
0.0180605
0.0181453
0.0182802
0.0184759
0.0187376
0.0190838
0.0194482
0.0196716
0.0192592
0.0177005
0.0143544
0.00793157
-0.00153923
-0.0140367
-0.0285022
-0.0439208
-0.0572827
-0.066178
-0.0681165
-0.0635565
-0.055402
-0.044854
-0.0329027
-0.0206149
-0.00928714
-0.00018973
0.0064514
0.0107898
0.0133948
0.014993
0.0159603
0.0165635
0.0169251
0.0171387
0.0172534
0.017308
0.0173195
0.0175702
0.0175176
0.0175291
0.0175919
0.0177159
0.0179068
0.0181783
0.0185471
0.0190304
0.0194979
0.019895
0.0194525
0.0176301
0.0143097
0.00819641
-0.000726486
-0.012984
-0.0278339
-0.0457134
-0.0624094
-0.0766823
-0.079305
-0.0739857
-0.0654491
-0.0527427
-0.039017
-0.0249719
-0.0122705
-0.00258625
0.00449858
0.00921372
0.0120465
0.013837
0.0149319
0.0156572
0.0161109
0.0163886
0.0165368
0.0165941
0.0165517
0.0170258
0.0170465
0.017081
0.0171433
0.0172494
0.0174083
0.0176272
0.0179104
0.0182506
0.0184835
0.0185503
0.0176383
0.0153816
0.0115682
0.00537735
-0.00341405
-0.0147895
-0.0284998
-0.0442334
-0.059095
-0.071518
-0.073494
-0.0674399
-0.0587215
-0.0463197
-0.0329608
-0.0203202
-0.0094731
-0.00124503
0.00493993
0.00906612
0.0116477
0.0132634
0.0142995
0.0149588
0.0153771
0.0156305
0.0157737
0.0158462
0.0158215
0.0162991
0.0163543
0.0163975
0.0164411
0.0164942
0.0165642
0.0166489
0.0167271
0.0167532
0.0165039
0.0156722
0.0139353
0.0109026
0.00618676
-0.000408581
-0.00897315
-0.0191104
-0.030264
-0.0412587
-0.0500694
-0.0543882
-0.0533799
-0.0478931
-0.0398557
-0.0298257
-0.0197147
-0.0106462
-0.00312383
0.0027534
0.00725237
0.0102598
0.0121537
0.013349
0.0140853
0.014557
0.0148529
0.0150312
0.0151275
0.0151824
0.0152154
0.0154111
0.0154143
0.0154065
0.0153923
0.0153729
0.0153329
0.015241
0.0150329
0.0146208
0.0137853
0.012164
0.009418
0.00533709
-0.000157805
-0.00702936
-0.0150875
-0.0237101
-0.0322042
-0.0384565
-0.0416736
-0.040413
-0.0365237
-0.0306574
-0.0232325
-0.0155155
-0.00800478
-0.00167953
0.00353599
0.0075805
0.0103466
0.012067
0.0131092
0.013754
0.0141613
0.0144254
0.0145945
0.0146983
0.0147583
0.0147935
0.0148213
0.0144985
0.0144339
0.0143723
0.0142967
0.0141943
0.0140223
0.0137291
0.0131908
0.0122553
0.0106561
0.00808239
0.00432009
-0.000660673
-0.00687552
-0.0140773
-0.0218301
-0.0293515
-0.0358404
-0.0391726
-0.03891
-0.0367048
-0.0308835
-0.0233943
-0.0151096
-0.00708087
-0.000159148
0.0052622
0.00925619
0.0117115
0.0130062
0.0137113
0.0140282
0.0142092
0.0143212
0.0143954
0.014443
0.0144815
0.0145054
0.0145147
0.0145026
0.0136855
0.0136217
0.0135446
0.013427
0.0132389
0.012924
0.0124143
0.0115664
0.0101595
0.00782986
0.00417529
-0.00095523
-0.0074881
-0.0152152
-0.0235478
-0.0318846
-0.0393139
-0.044965
-0.0472721
-0.0447621
-0.0396288
-0.0314228
-0.021402
-0.0111593
-0.00202731
0.00509934
0.0101274
0.0131072
0.0145392
0.0149698
0.0149019
0.0147022
0.0145114
0.0143532
0.0142382
0.0141547
0.0141091
0.014087
0.0140813
0.0140912
0.0129709
0.0129778
0.0129137
0.0127742
0.0125124
0.0120808
0.0114011
0.0103251
0.00862087
0.00589386
0.00154086
-0.00458979
-0.0126761
-0.0224864
-0.0327255
-0.0424325
-0.0508199
-0.0564027
-0.0585156
-0.0544117
-0.0435157
-0.0319428
-0.0194139
-0.0078888
0.0012321
0.00796712
0.0123381
0.0145984
0.0157131
0.0158576
0.0154015
0.0149304
0.0145031
0.0141606
0.0139087
0.0137357
0.0136278
0.0135763
0.0135694
0.0136229
0.0123152
0.0123589
0.0122941
0.0121426
0.0118606
0.0114063
0.0107004
0.00961241
0.00788751
0.00519894
0.00104697
-0.00493581
-0.0128534
-0.0226948
-0.0333654
-0.0435422
-0.0524714
-0.0583544
-0.0607418
-0.0564095
-0.0445318
-0.0314598
-0.0184068
-0.00733369
0.00107891
0.00732361
0.0114036
0.0135976
0.014903
0.0152731
0.0149255
0.0145434
0.0140962
0.0137559
0.0134993
0.0133214
0.0132071
0.0131485
0.013132
0.0131599
0.0117234
0.0117298
0.0116649
0.0115424
0.011319
0.0109585
0.0103907
0.00951575
0.0081143
0.00593439
0.00266994
-0.00191602
-0.00780113
-0.015381
-0.0239693
-0.0325982
-0.0406717
-0.0463384
-0.0491326
-0.0470995
-0.0402069
-0.0305101
-0.020357
-0.0113171
-0.00363571
0.00258532
0.0071252
0.0101624
0.012085
0.0130555
0.0133563
0.013372
0.0132038
0.0130299
0.0128924
0.0127915
0.0127233
0.0126781
0.0126442
0.0126055
0.011291
0.0112525
0.0112116
0.0111437
0.0110192
0.0108059
0.0104671
0.00992411
0.00905723
0.00768745
0.0055192
0.00243986
-0.00134195
-0.0062334
-0.0120325
-0.0182993
-0.0245656
-0.0297261
-0.0335417
-0.0350056
-0.0336294
-0.0290035
-0.0231429
-0.0165831
-0.00982354
-0.00378457
0.00124229
0.00512268
0.00788623
0.00981031
0.0109443
0.0115052
0.0117488
0.0118526
0.0118963
0.0119137
0.0119204
0.0119193
0.0119066
0.0118745
0.0110363
0.0110255
0.0110065
0.0109755
0.0109202
0.010833
0.0106912
0.0104818
0.0101234
0.00952318
0.00842654
0.00664193
0.00415442
0.000792058
-0.00346047
-0.00851453
-0.0141484
-0.0194521
-0.0242479
-0.0278988
-0.029171
-0.0287695
-0.0262653
-0.0214545
-0.0155923
-0.00987226
-0.00456965
-4.43253e-05
0.0035498
0.00627815
0.00813955
0.00929409
0.00999171
0.0104108
0.0106525
0.010795
0.0108861
0.010954
0.0110056
0.0110405
0.0107788
0.0107938
0.0108006
0.0108083
0.0108178
0.0108403
0.0108679
0.0109161
0.010951
0.010932
0.0107053
0.0100533
0.00854297
0.00598635
0.00221174
-0.00279841
-0.00899413
-0.015683
-0.0220219
-0.0271
-0.0304777
-0.0325593
-0.0317952
-0.0281457
-0.0227982
-0.0169788
-0.0110579
-0.0056428
-0.00104227
0.00261882
0.00533139
0.00719283
0.00837912
0.00910101
0.00953208
0.00979879
0.0099685
0.0100881
0.0101781
0.0102631
0.0104149
0.0103978
0.0104095
0.0104498
0.0105271
0.0106524
0.0108301
0.0110794
0.0114203
0.0117951
0.0121705
0.0122319
0.011496
0.00983452
0.006702
0.00192207
-0.00455708
-0.0127638
-0.0213043
-0.0289462
-0.0359433
-0.0407961
-0.0411455
-0.0377573
-0.0323936
-0.025727
-0.0184571
-0.0114811
-0.00527709
-0.000401807
0.00314061
0.00559332
0.00715749
0.00812014
0.00871827
0.00910069
0.00933803
0.00948252
0.00956683
0.00960955
0.010017
0.00997238
0.00998286
0.0100364
0.0101486
0.0103247
0.0105789
0.0109282
0.0113806
0.0118752
0.0123837
0.0125806
0.0121938
0.011195
0.0088177
0.00470498
-0.00122155
-0.0100418
-0.0202714
-0.0306679
-0.0400183
-0.0463117
-0.046923
-0.0433467
-0.0377841
-0.0303676
-0.0222334
-0.0142364
-0.00725025
-0.0019177
0.00198972
0.00466809
0.00637252
0.00742745
0.00812166
0.00857835
0.00885849
0.00901059
0.00907573
0.00905316
0.00961175
0.00960611
0.00962686
0.00967557
0.00976477
0.00990361
0.0101045
0.0103698
0.0106961
0.0109525
0.0111614
0.0109269
0.0101554
0.00874115
0.00619202
0.0021566
-0.00340484
-0.0108806
-0.0199348
-0.029165
-0.0366798
-0.0419874
-0.0418749
-0.0381765
-0.0328399
-0.0258789
-0.0185469
-0.0115431
-0.00563924
-0.00110359
0.00228806
0.00459751
0.00607095
0.00706414
0.00770992
0.00811078
0.00837009
0.00851908
0.00858693
0.00855564
0.00909542
0.00913313
0.00915683
0.00917732
0.00920114
0.00923283
0.00927251
0.00930311
0.00927559
0.00905475
0.00851514
0.00744917
0.00578443
0.0033876
0.000124924
-0.00406257
-0.00912736
-0.0145836
-0.020333
-0.0257875
-0.0291879
-0.0305435
-0.0288389
-0.025419
-0.0208128
-0.015492
-0.0102074
-0.0054211
-0.00158483
0.00146972
0.00380305
0.00537759
0.00643269
0.00711312
0.00754612
0.00782075
0.00799013
0.0080881
0.0081407
0.00815677
0.00842983
0.00843675
0.00842075
0.00838342
0.00832371
0.00822832
0.00807449
0.00781581
0.00737629
0.00662645
0.00536025
0.00347748
0.00098211
-0.00220881
-0.00607168
-0.0102855
-0.0148422
-0.0186934
-0.0211776
-0.0225899
-0.0226934
-0.0209193
-0.01793
-0.0144402
-0.0103867
-0.00635824
-0.00276322
0.000202901
0.00253717
0.00444375
0.00576395
0.00658431
0.00712692
0.00743695
0.0076327
0.00776089
0.00783897
0.00787685
0.00789902
0.00792935
0.00772453
0.00766585
0.0075946
0.00749618
0.00735854
0.00714715
0.00680813
0.00626408
0.00540449
0.00409593
0.00219083
-0.00036681
-0.00366223
-0.00760942
-0.0120092
-0.0163324
-0.0203263
-0.0229989
-0.0235342
-0.0222194
-0.0201467
-0.0168569
-0.0129464
-0.00862418
-0.00432721
-0.000591592
0.00235623
0.00446219
0.00596612
0.00695552
0.00741034
0.00765146
0.0077477
0.0077746
0.0077907
0.00780673
0.00782098
0.00782379
0.00782313
0.00781435
0.00712421
0.00705306
0.00695698
0.00681873
0.00661632
0.00630491
0.00581651
0.0050299
0.00377617
0.0018895
-0.000781116
-0.0042908
-0.00871803
-0.0138098
-0.0191934
-0.0241399
-0.0280565
-0.0300043
-0.0292129
-0.0254888
-0.0206479
-0.0155348
-0.0100465
-0.00452553
0.000259275
0.00394971
0.00651095
0.00796365
0.00867697
0.00877334
0.00857273
0.00834591
0.00811709
0.00793996
0.00781441
0.00773179
0.00768465
0.00765436
0.00763701
0.00762503
0.0066353
0.00661604
0.00654206
0.00639914
0.00615413
0.00576902
0.00516674
0.00421557
0.0026952
0.000364278
-0.00290534
-0.00736507
-0.0130528
-0.0193827
-0.0258291
-0.0314655
-0.035509
-0.0371398
-0.0354066
-0.0295219
-0.0220731
-0.0143955
-0.00679052
-0.000221458
0.00450867
0.00765188
0.00941882
0.0101243
0.0101367
0.00963811
0.00911252
0.00860196
0.00816721
0.00785038
0.00762063
0.00746229
0.00736577
0.00731703
0.0073051
0.00733148
0.00621533
0.00624259
0.00618603
0.00604704
0.00579324
0.00538747
0.00475714
0.00378353
0.00229072
-3.35206e-05
-0.00330454
-0.00774496
-0.0134196
-0.0197241
-0.0260932
-0.0317239
-0.0357535
-0.0375538
-0.035996
-0.0300429
-0.0222847
-0.0140046
-0.00602663
0.000424304
0.00488976
0.00771149
0.00918086
0.00973179
0.00967807
0.00920602
0.00878421
0.00830975
0.00789397
0.00756698
0.00732561
0.00716044
0.00705848
0.0070086
0.00699737
0.00703421
0.00586979
0.00587969
0.00582283
0.00570485
0.00550244
0.00517035
0.00466231
0.00388116
0.00268959
0.000904068
-0.00157621
-0.00486107
-0.00907619
-0.0138955
-0.0189264
-0.0235522
-0.0271785
-0.0291476
-0.0290944
-0.0256007
-0.0206437
-0.0147056
-0.00897209
-0.00400509
1.22134e-05
0.00300536
0.00504502
0.0063653
0.00710251
0.00741314
0.00748535
0.00736801
0.00720013
0.00703477
0.00690349
0.00681926
0.00676723
0.00673995
0.00672374
0.0067137
0.00563688
0.00561087
0.00557244
0.00551186
0.00540532
0.00523146
0.00494624
0.00448937
0.00378634
0.0027269
0.00121286
-0.000746076
-0.00324229
-0.00624658
-0.00961722
-0.0130617
-0.0160924
-0.0185561
-0.020142
-0.0199268
-0.0183506
-0.0157788
-0.0129736
-0.00968975
-0.00619107
-0.00303185
-0.00035454
0.00178327
0.00343626
0.0046407
0.00540985
0.00583225
0.00605492
0.00616402
0.00622231
0.00625864
0.00628182
0.0062936
0.00628889
0.00626329
0.00555223
0.00553672
0.00552954
0.00552028
0.00549723
0.00545867
0.00538743
0.00525167
0.00500348
0.00455787
0.00383094
0.00273939
0.00128541
-0.000603493
-0.00299884
-0.0058747
-0.00881613
-0.0116363
-0.0140434
-0.0158442
-0.0169551
-0.0173691
-0.0167214
-0.0146229
-0.0116055
-0.00835004
-0.00517742
-0.00236559
-2.01438e-05
0.00181124
0.00316662
0.00408291
0.00467997
0.00506709
0.00531546
0.00547351
0.00557448
0.00564191
0.00568194
0.00570629
0.00551951
0.0055417
0.0055577
0.00557963
0.00560913
0.0056579
0.00572713
0.0058139
0.00589935
0.00592102
0.00583327
0.00543875
0.00466195
0.00337594
0.00140287
-0.00134528
-0.00475036
-0.00823655
-0.0115073
-0.0148228
-0.0179851
-0.0205845
-0.0214441
-0.0202269
-0.0174985
-0.0139232
-0.0100861
-0.00643508
-0.0032873
-0.000794117
0.0011097
0.0024947
0.00345199
0.00408133
0.00448438
0.00474643
0.00492205
0.00504823
0.00514075
0.00520531
0.00538775
0.00539836
0.00542114
0.00546652