/*--------------------------------*- C++ -*----------------------------------*\
| =========                 |                                                 |
| \\      /  F ield         | OpenFOAM: The Open Source CFD Toolbox           |
|  \\    /   O peration     | Version:  v2106                                 |
|   \\  /    A nd           | Website:  www.openfoam.com                      |
|    \\/     M anipulation  |                                                 |
\*---------------------------------------------------------------------------*/
FoamFile
{
    version     2.0;
    format      ascii;
    arch        "LSB;label=32;scalar=64";
    class       pointVectorField;
    location    "0";
    object      pointDisplacement;
}
// * * * * * * * * * * * * * * * * * * * * * * * * * * * * * * * * * * * * * //

dimensions      [0 1 0 0 0 0 0];

internalField   nonuniform List<vector> 
24440
(
(0 0 0)
(0 0 0)
(0 0 0)
(0 0 0)
(0 0 0)
(0 0 0)
(0 0 0)
(0 0 0)
(0 0 0)
(0 0 0)
(0 0 0)
(0 0 0)
(0 0 0)
(0 0 0)
(0 0 0)
(0 0 0)
(0 0 0)
(0 0 0)
(0 0 0)
(0 0 0)
(0 0 0)
(0 0 0)
(0 0 0)
(0 0 0)
(0 0 0)
(0 0 0)
(0 0 0)
(0 0 0)
(0 0 0)
(0 0 0)
(0 0 0)
(0 0 0)
(0 0 0)
(0 0 0)
(0 0 0)
(0 0 0)
(0 0 0)
(0 0 0)
(0 0 0)
(0 0 0)
(0 0 0)
(0 0 0)
(0 0 0)
(0 0 0)
(0 0 0)
(0 0 0)
(0 0 0)
(0 0 0)
(0 0 0)
(0 0 0)
(0 0 0)
(0 0 0)
(0 0 0)
(0 0 0)
(0 0 0)
(0 0 0)
(0 0 0)
(0 0 0)
(0 0 0)
(0 0 0)
(0 0 0)
(0 0 0)
(0 0 0)
(0 0 0)
(0 0 0)
(0 0 0)
(0 0 0)
(0 0 0)
(0 0 0)
(0 0 0)
(0 0 0)
(0 0 0)
(0 0 0)
(0 0 0)
(0 0 0)
(0 0 0)
(0 0 0)
(0 0 0)
(0 0 0)
(0 0 0)
(0 0 0)
(0 0 0)
(0 0 0)
(0 0 0)
(0 0 0)
(0 0 0)
(0 0 0)
(0 0 0)
(0 0 0)
(0 0 0)
(0 0 0)
(0 0 0)
(0 0 0)
(0 0 0)
(0 0 0)
(0 0 0)
(0 0 0)
(0 0 0)
(0 -6.10127e-06 0)
(0 -3.8475e-05 0)
(0 -0.000105798 0)
(0 -0.000163029 0)
(0 -0.000184993 0)
(0 -0.000163029 0)
(0 -0.000105798 0)
(0 -3.8475e-05 0)
(0 -6.10127e-06 0)
(0 0 0)
(0 0 0)
(0 0 0)
(0 0 0)
(0 0 0)
(0 0 0)
(0 0 0)
(0 0 0)
(0 0 0)
(0 0 0)
(0 0 0)
(0 0 0)
(0 0 0)
(0 0 0)
(0 0 0)
(0 0 0)
(0 0 0)
(0 0 0)
(0 0 0)
(0 0 0)
(0 0 0)
(0 0 0)
(0 0 0)
(0 0 0)
(0 0 0)
(0 0 0)
(0 0 0)
(0 0 0)
(0 0 0)
(0 -1.0218e-05 0)
(0 -0.000135167 0)
(0 -0.000397786 0)
(0 -0.000716585 0)
(0 -0.00102214 0)
(0 -0.00123516 0)
(0 -0.00143318 0)
(0 -0.00150285 0)
(0 -0.00143318 0)
(0 -0.00123516 0)
(0 -0.00102214 0)
(0 -0.000716585 0)
(0 -0.000397786 0)
(0 -0.000135167 0)
(0 -1.0218e-05 0)
(0 0 0)
(0 0 0)
(0 0 0)
(0 0 0)
(0 0 0)
(0 0 0)
(0 0 0)
(0 0 0)
(0 0 0)
(0 0 0)
(0 0 0)
(0 0 0)
(0 0 0)
(0 0 0)
(0 0 0)
(0 0 0)
(0 0 0)
(0 0 0)
(0 0 0)
(0 0 0)
(0 0 0)
(0 0 0)
(0 0 0)
(0 0 0)
(0 -4.2901e-06 0)
(0 -0.000177757 0)
(0 -0.000606208 0)
(0 -0.00119543 0)
(0 -0.00180234 0)
(0 -0.00247941 0)
(0 -0.00306582 0)
(0 -0.00342899 0)
(0 -0.00377626 0)
(0 -0.00389628 0)
(0 -0.00377626 0)
(0 -0.00342899 0)
(0 -0.00306582 0)
(0 -0.00247941 0)
(0 -0.00180234 0)
(0 -0.00119543 0)
(0 -0.000606208 0)
(0 -0.000177757 0)
(0 -4.2901e-06 0)
(0 0 0)
(0 0 0)
(0 0 0)
(0 0 0)
(0 0 0)
(0 0 0)
(0 0 0)
(0 0 0)
(0 0 0)
(0 0 0)
(0 0 0)
(0 0 0)
(0 0 0)
(0 0 0)
(0 0 0)
(0 0 0)
(0 0 0)
(0 0 0)
(0 0 0)
(0 0 0)
(0 0 0)
(0 -4.05649e-05 0)
(0 -0.000421853 0)
(0 -0.0011211 0)
(0 -0.00196698 0)
(0 -0.00301723 0)
(0 -0.0040765 0)
(0 -0.00499416 0)
(0 -0.00585379 0)
(0 -0.0064638 0)
(0 -0.00682825 0)
(0 -0.00699555 0)
(0 -0.00682825 0)
(0 -0.0064638 0)
(0 -0.00585379 0)
(0 -0.00499416 0)
(0 -0.0040765 0)
(0 -0.00301723 0)
(0 -0.00196698 0)
(0 -0.0011211 0)
(0 -0.000421853 0)
(0 -4.29448e-05 0)
(0 0 0)
(0 0 0)
(0 0 0)
(0 0 0)
(0 0 0)
(0 0 0)
(0 0 0)
(0 0 0)
(0 0 0)
(0 0 0)
(0 0 0)
(0 0 0)
(0 0 0)
(0 0 0)
(0 0 0)
(0 0 0)
(0 0 0)
(0 0 0)
(0 0 0)
(0 -7.97821e-05 0)
(0 -0.000559432 0)
(0 -0.00139627 0)
(0 -0.00256334 0)
(0 -0.00395036 0)
(0 -0.00539168 0)
(0 -0.00671435 0)
(0 -0.00796826 0)
(0 -0.00843943 0)
(0 -0.00894897 0)
(0 -0.00937517 0)
(0 -0.00971097 0)
(0 -0.0099511 0)
(0 -0.0101171 0)
(0 -0.0102705 0)
(0 -0.0103219 0)
(0 -0.0102705 0)
(0 -0.0101171 0)
(0 -0.0099511 0)
(0 -0.00971097 0)
(0 -0.00937517 0)
(0 -0.00894897 0)
(0 -0.00843943 0)
(0 -0.00796826 0)
(0 -0.00671435 0)
(0 -0.00539168 0)
(0 -0.00395036 0)
(0 -0.00256334 0)
(0 -0.00136729 0)
(0 -0.000505503 0)
(0 -6.37512e-05 0)
(0 0 0)
(0 0 0)
(0 0 0)
(0 0 0)
(0 0 0)
(0 0 0)
(0 0 0)
(0 0 0)
(0 0 0)
(0 0 0)
(0 0 0)
(0 0 0)
(0 0 0)
(0 0 0)
(0 0 0)
(0 0 0)
(0 0 0)
(0 -4.69265e-05 0)
(0 -0.000537024 0)
(0 -0.00149625 0)
(0 -0.00281549 0)
(0 -0.00436078 0)
(0 -0.00617892 0)
(0 -0.00704826 0)
(0 -0.00781883 0)
(0 -0.00867168 0)
(0 -0.00947107 0)
(0 -0.0102024 0)
(0 -0.0108238 0)
(0 -0.0094331 0)
(0 -0.010009 0)
(0 -0.0104636 0)
(0 -0.010922 0)
(0 -0.0112817 0)
(0 -0.011538 0)
(0 -0.0116916 0)
(0 -0.0118545 0)
(0 -0.0119089 0)
(0 -0.0118545 0)
(0 -0.0116916 0)
(0 -0.011538 0)
(0 -0.0112817 0)
(0 -0.010922 0)
(0 -0.0104636 0)
(0 -0.010009 0)
(0 -0.0094331 0)
(0 -0.0108238 0)
(0 -0.0102024 0)
(0 -0.00947107 0)
(0 -0.00867168 0)
(0 -0.00781883 0)
(0 -0.00704826 0)
(0 -0.00617892 0)
(0 -0.00436078 0)
(0 -0.00281549 0)
(0 -0.00144167 0)
(0 -0.00051366 0)
(0 -4.26161e-05 0)
(0 0 0)
(0 0 0)
(0 0 0)
(0 0 0)
(0 0 0)
(0 0 0)
(0 0 0)
(0 0 0)
(0 0 0)
(0 0 0)
(0 0 0)
(0 0 0)
(0 0 0)
(0 0 0)
(0 0 0)
(0 0 0)
(0 -0.000296913 0)
(0 -0.00121338 0)
(0 -0.00259404 0)
(0 -0.0043283 0)
(0 -0.00625987 0)
(0 -0.00822256 0)
(0 -0.00723735 0)
(0 -0.00818272 0)
(0 -0.0090924 0)
(0 -0.00994896 0)
(0 -0.01071 0)
(0 -0.0114818 0)
(0 -0.0121638 0)
(0 -0.0127272 0)
(0 -0.0114358 0)
(0 -0.0119513 0)
(0 -0.0132585 0)
(0 -0.013641 0)
(0 -0.0123613 0)
(0 -0.0127366 0)
(0 -0.0140215 0)
(0 -0.0142893 0)
(0 -0.0130027 0)
(0 -0.0131376 0)
(0 -0.0144445 0)
(0 -0.0145677 0)
(0 -0.0133056 0)
(0 -0.0133616 0)
(0 -0.0146234 0)
(0 -0.0145677 0)
(0 -0.0133056 0)
(0 -0.0131376 0)
(0 -0.0144445 0)
(0 -0.0142893 0)
(0 -0.0130027 0)
(0 -0.0127366 0)
(0 -0.0140215 0)
(0 -0.013641 0)
(0 -0.0123613 0)
(0 -0.0119513 0)
(0 -0.0132585 0)
(0 -0.0127272 0)
(0 -0.0114358 0)
(0 -0.0121638 0)
(0 -0.0114818 0)
(0 -0.01071 0)
(0 -0.00994896 0)
(0 -0.0090924 0)
(0 -0.00818272 0)
(0 -0.00723735 0)
(0 -0.00822256 0)
(0 -0.00625987 0)
(0 -0.00427619 0)
(0 -0.00257356 0)
(0 -0.00121208 0)
(0 -0.000322792 0)
(0 0 0)
(0 0 0)
(0 0 0)
(0 0 0)
(0 0 0)
(0 0 0)
(0 0 0)
(0 0 0)
(0 0 0)
(0 0 0)
(0 0 0)
(0 0 0)
(0 0 0)
(0 0 0)
(0 0 0)
(0 -6.47712e-05 0)
(0 -0.00066544 0)
(0 -0.00191812 0)
(0 -0.00359378 0)
(0 -0.00558586 0)
(0 -0.00786816 0)
(0 -0.0100666 0)
(0 -0.00921101 0)
(0 -0.0102069 0)
(0 -0.00916496 0)
(0 -0.01019 0)
(0 -0.011143 0)
(0 -0.0120821 0)
(0 -0.0110921 0)
(0 -0.0119159 0)
(0 -0.0129288 0)
(0 -0.0133149 0)
(0 -0.0136743 0)
(0 -0.0131856 0)
(0 -0.0126114 0)
(0 -0.0133112 0)
(0 -0.0138131 0)
(0 -0.0141231 0)
(0 -0.0136211 0)
(0 -0.0143749 0)
(0 -0.0148509 0)
(0 -0.0150712 0)
(0 -0.0145985 0)
(0 -0.0150914 0)
(0 -0.0155571 0)
(0 -0.0156732 0)
(0 -0.0152348 0)
(0 -0.0154985 0)
(0 -0.0159252 0)
(0 -0.015986 0)
(0 -0.0155691 0)
(0 -0.015645 0)
(0 -0.0160529 0)
(0 -0.0160406 0)
(0 -0.0156319 0)
(0 -0.0154985 0)
(0 -0.0159252 0)
(0 -0.0158676 0)
(0 -0.0154379 0)
(0 -0.0150914 0)
(0 -0.0155571 0)
(0 -0.0154238 0)
(0 -0.0149592 0)
(0 -0.0143749 0)
(0 -0.0148509 0)
(0 -0.0146564 0)
(0 -0.0141223 0)
(0 -0.0133112 0)
(0 -0.0138131 0)
(0 -0.0134749 0)
(0 -0.0129743 0)
(0 -0.0119159 0)
(0 -0.0129288 0)
(0 -0.0120821 0)
(0 -0.0110921 0)
(0 -0.01019 0)
(0 -0.011143 0)
(0 -0.0102069 0)
(0 -0.00916496 0)
(0 -0.00921101 0)
(0 -0.0100212 0)
(0 -0.00786273 0)
(0 -0.00567589 0)
(0 -0.00356361 0)
(0 -0.00189944 0)
(0 -0.000698791 0)
(0 -7.40692e-05 0)
(0 0 0)
(0 0 0)
(0 0 0)
(0 0 0)
(0 0 0)
(0 0 0)
(0 0 0)
(0 0 0)
(0 0 0)
(0 0 0)
(0 0 0)
(0 0 0)
(0 0 0)
(0 0 0)
(0 -0.000211916 0)
(0 -0.00107252 0)
(0 -0.00251994 0)
(0 -0.00442787 0)
(0 -0.00663277 0)
(0 -0.00905792 0)
(0 -0.0113213 0)
(0 -0.0107629 0)
(0 -0.011828 0)
(0 -0.0111031 0)
(0 -0.0120708 0)
(0 -0.0128158 0)
(0 -0.0137079 0)
(0 -0.0129524 0)
(0 -0.0137333 0)
(0 -0.0141377 0)
(0 -0.0144857 0)
(0 -0.0141373 0)
(0 -0.0151202 0)
(0 -0.0152875 0)
(0 -0.0154226 0)
(0 -0.0152567 0)
(0 -0.0160062 0)
(0 -0.0161401 0)
(0 -0.016227 0)
(0 -0.0160959 0)
(0 -0.0165307 0)
(0 -0.0166283 0)
(0 -0.0166725 0)
(0 -0.0165743 0)
(0 -0.0167606 0)
(0 -0.0168321 0)
(0 -0.0168423 0)
(0 -0.0167729 0)
(0 -0.0168194 0)
(0 -0.016877 0)
(0 -0.016876 0)
(0 -0.016818 0)
(0 -0.0167606 0)
(0 -0.0168321 0)
(0 -0.016818 0)
(0 -0.0167438 0)
(0 -0.0165307 0)
(0 -0.0166283 0)
(0 -0.0165912 0)
(0 -0.0164783 0)
(0 -0.0160062 0)
(0 -0.0161401 0)
(0 -0.0160644 0)
(0 -0.0159087 0)
(0 -0.0151202 0)
(0 -0.0152875 0)
(0 -0.0154407 0)
(0 -0.0151493 0)
(0 -0.0148234 0)
(0 -0.0137333 0)
(0 -0.0141377 0)
(0 -0.0144891 0)
(0 -0.0137079 0)
(0 -0.0129524 0)
(0 -0.0120708 0)
(0 -0.0127865 0)
(0 -0.0118203 0)
(0 -0.0111031 0)
(0 -0.0107757 0)
(0 -0.0113549 0)
(0 -0.00903515 0)
(0 -0.00669884 0)
(0 -0.0044743 0)
(0 -0.00254913 0)
(0 -0.00108782 0)
(0 -0.000217144 0)
(0 0 0)
(0 0 0)
(0 0 0)
(0 0 0)
(0 0 0)
(0 0 0)
(0 0 0)
(0 0 0)
(0 0 0)
(0 0 0)
(0 0 0)
(0 0 0)
(0 0 0)
(0 0 0)
(0 -0.000326769 0)
(0 -0.00133237 0)
(0 -0.00293203 0)
(0 -0.00499067 0)
(0 -0.00733491 0)
(0 -0.00976778 0)
(0 -0.0120856 0)
(0 -0.0117984 0)
(0 -0.0128551 0)
(0 -0.0123646 0)
(0 -0.0133212 0)
(0 -0.0138178 0)
(0 -0.0146676 0)
(0 -0.0142571 0)
(0 -0.0150307 0)
(0 -0.0152218 0)
(0 -0.0155547 0)
(0 -0.0153681 0)
(0 -0.0161697 0)
(0 -0.016258 0)
(0 -0.0163576 0)
(0 -0.0162721 0)
(0 -0.0167841 0)
(0 -0.0168267 0)
(0 -0.0168623 0)
(0 -0.0168247 0)
(0 -0.0169312 0)
(0 -0.0169312 0)
(0 -0.0169312 0)
(0 -0.0169312 0)
(0 -0.0169312 0)
(0 -0.0169312 0)
(0 -0.0169312 0)
(0 -0.0169312 0)
(0 -0.0169312 0)
(0 -0.0169312 0)
(0 -0.0169312 0)
(0 -0.0169312 0)
(0 -0.0169312 0)
(0 -0.0169312 0)
(0 -0.0169312 0)
(0 -0.0169312 0)
(0 -0.0169312 0)
(0 -0.0169312 0)
(0 -0.0169312 0)
(0 -0.0169312 0)
(0 -0.0167841 0)
(0 -0.0168267 0)
(0 -0.0167797 0)
(0 -0.0167352 0)
(0 -0.0161697 0)
(0 -0.016258 0)
(0 -0.0163334 0)
(0 -0.0161031 0)
(0 -0.0159381 0)
(0 -0.015022 0)
(0 -0.015244 0)
(0 -0.0154135 0)
(0 -0.0146472 0)
(0 -0.0142698 0)
(0 -0.0133971 0)
(0 -0.0138006 0)
(0 -0.0128415 0)
(0 -0.0124192 0)
(0 -0.0117884 0)
(0 -0.0120916 0)
(0 -0.00976377 0)
(0 -0.00732325 0)
(0 -0.00497466 0)
(0 -0.00291533 0)
(0 -0.00131855 0)
(0 -0.000318924 0)
(0 0 0)
(0 0 0)
(0 0 0)
(0 0 0)
(0 0 0)
(0 0 0)
(0 0 0)
(0 0 0)
(0 0 0)
(0 0 0)
(0 0 0)
(0 0 0)
(0 0 0)
(0 0 0)
(0 -0.000346449 0)
(0 -0.00137496 0)
(0 -0.00299917 0)
(0 -0.00508259 0)
(0 -0.00745018 0)
(0 -0.00990301 0)
(0 -0.012235 0)
(0 -0.0122393 0)
(0 -0.0132971 0)
(0 -0.0131403 0)
(0 -0.0140958 0)
(0 -0.0142528 0)
(0 -0.0150863 0)
(0 -0.0149328 0)
(0 -0.0156613 0)
(0 -0.0157317 0)
(0 -0.0160238 0)
(0 -0.0159604 0)
(0 -0.0166197 0)
(0 -0.0166468 0)
(0 -0.0167189 0)
(0 -0.0166938 0)
(0 -0.0169312 0)
(0 -0.0169312 0)
(0 -0.0169312 0)
(0 -0.0169312 0)
(0 -0.0169312 0)
(0 -0.0169312 0)
(0 -0.0169312 0)
(0 -0.0169312 0)
(0 -0.0169312 0)
(0 -0.0169312 0)
(0 -0.0169312 0)
(0 -0.0169312 0)
(0 -0.0169312 0)
(0 -0.0169312 0)
(0 -0.0169312 0)
(0 -0.0169312 0)
(0 -0.0169312 0)
(0 -0.0169305 0)
(0 -0.016928 0)
(0 -0.0166197 0)
(0 -0.0166468 0)
(0 -0.0166647 0)
(0 -0.0164954 0)
(0 -0.0164357 0)
(0 -0.0156604 0)
(0 -0.0157327 0)
(0 -0.0157801 0)
(0 -0.0150863 0)
(0 -0.0149545 0)
(0 -0.0141126 0)
(0 -0.0142169 0)
(0 -0.0132558 0)
(0 -0.0131517 0)
(0 -0.0121936 0)
(0 -0.0122076 0)
(0 -0.00987256 0)
(0 -0.00741926 0)
(0 -0.00505387 0)
(0 -0.00297514 0)
(0 -0.00135773 0)
(0 -0.000337521 0)
(0 0 0)
(0 0 0)
(0 0 0)
(0 0 0)
(0 0 0)
(0 0 0)
(0 0 0)
(0 0 0)
(0 0 0)
(0 0 0)
(0 0 0)
(0 0 0)
(0 0 0)
(0 0 0)
(0 -0.000283129 0)
(0 -0.00123739 0)
(0 -0.00278384 0)
(0 -0.00479056 0)
(0 -0.00708767 0)
(0 -0.00948202 0)
(0 -0.0117743 0)
(0 -0.0121051 0)
(0 -0.0131611 0)
(0 -0.0132936 0)
(0 -0.0142502 0)
(0 -0.0141176 0)
(0 -0.0149551 0)
(0 -0.0150847 0)
(0 -0.0157795 0)
(0 -0.0157423 0)
(0 -0.0160343 0)
(0 -0.0160697 0)
(0 -0.0166944 0)
(0 -0.0166856 0)
(0 -0.0167532 0)
(0 -0.0167612 0)
(0 -0.0169312 0)
(0 -0.0169312 0)
(0 -0.0169312 0)
(0 -0.0169312 0)
(0 -0.0169312 0)
(0 -0.0169312 0)
(0 -0.0169312 0)
(0 -0.0169312 0)
(0 -0.0169312 0)
(0 -0.0169312 0)
(0 -0.0169312 0)
(0 -0.0169312 0)
(0 -0.0169312 0)
(0 -0.0169312 0)
(0 -0.0169312 0)
(0 -0.0169312 0)
(0 -0.0166944 0)
(0 -0.0166784 0)
(0 -0.0166696 0)
(0 -0.0165007 0)
(0 -0.0165199 0)
(0 -0.0157648 0)
(0 -0.0157411 0)
(0 -0.0156693 0)
(0 -0.0149653 0)
(0 -0.0150662 0)
(0 -0.0142283 0)
(0 -0.0141251 0)
(0 -0.0131656 0)
(0 -0.0132687 0)
(0 -0.0121066 0)
(0 -0.0118042 0)
(0 -0.009504 0)
(0 -0.00710203 0)
(0 -0.00479847 0)
(0 -0.00278698 0)
(0 -0.0012377 0)
(0 -0.000282511 0)
(0 0 0)
(0 0 0)
(0 0 0)
(0 0 0)
(0 0 0)
(0 0 0)
(0 0 0)
(0 0 0)
(0 0 0)
(0 0 0)
(0 0 0)
(0 0 0)
(0 0 0)
(0 0 0)
(0 -0.000143202 0)
(0 -0.000899481 0)
(0 -0.00223728 0)
(0 -0.00403645 0)
(0 -0.00627554 0)
(0 -0.00856514 0)
(0 -0.0107984 0)
(0 -0.0113907 0)
(0 -0.0124494 0)
(0 -0.0128226 0)
(0 -0.0138399 0)
(0 -0.0134209 0)
(0 -0.0142867 0)
(0 -0.0147028 0)
(0 -0.0154357 0)
(0 -0.01526 0)
(0 -0.0155786 0)
(0 -0.0157491 0)
(0 -0.0164644 0)
(0 -0.0164144 0)
(0 -0.0165052 0)
(0 -0.0165586 0)
(0 -0.0169107 0)
(0 -0.0168933 0)
(0 -0.0169141 0)
(0 -0.0169248 0)
(0 -0.0169312 0)
(0 -0.0169312 0)
(0 -0.0169312 0)
(0 -0.0169312 0)
(0 -0.0169312 0)
(0 -0.0169312 0)
(0 -0.0169312 0)
(0 -0.0169312 0)
(0 -0.0169107 0)
(0 -0.0168908 0)
(0 -0.0168633 0)
(0 -0.0168879 0)
(0 -0.0164644 0)
(0 -0.0164144 0)
(0 -0.0163465 0)
(0 -0.0161311 0)
(0 -0.0162641 0)
(0 -0.0154357 0)
(0 -0.01526 0)
(0 -0.0150606 0)
(0 -0.0142867 0)
(0 -0.0147028 0)
(0 -0.0138141 0)
(0 -0.0134209 0)
(0 -0.0124494 0)
(0 -0.0128562 0)
(0 -0.0113907 0)
(0 -0.0107984 0)
(0 -0.00856514 0)
(0 -0.00619466 0)
(0 -0.00407612 0)
(0 -0.0022633 0)
(0 -0.000913724 0)
(0 -0.000148015 0)
(0 0 0)
(0 0 0)
(0 0 0)
(0 0 0)
(0 0 0)
(0 0 0)
(0 0 0)
(0 0 0)
(0 0 0)
(0 0 0)
(0 0 0)
(0 0 0)
(0 0 0)
(0 0 0)
(0 -1.77192e-05 0)
(0 -0.000525989 0)
(0 -0.0016017 0)
(0 -0.00314959 0)
(0 -0.00502816 0)
(0 -0.00707254 0)
(0 -0.00921779 0)
(0 -0.0100312 0)
(0 -0.011122 0)
(0 -0.0118372 0)
(0 -0.0128477 0)
(0 -0.012077 0)
(0 -0.0130334 0)
(0 -0.0137264 0)
(0 -0.0145338 0)
(0 -0.01421 0)
(0 -0.0145666 0)
(0 -0.0148876 0)
(0 -0.0157541 0)
(0 -0.01561 0)
(0 -0.015741 0)
(0 -0.0158608 0)
(0 -0.0165199 0)
(0 -0.0164251 0)
(0 -0.0164943 0)
(0 -0.0165854 0)
(0 -0.0168623 0)
(0 -0.0168093 0)
(0 -0.0168326 0)
(0 -0.016881 0)
(0 -0.0169312 0)
(0 -0.0169218 0)
(0 -0.0169254 0)
(0 -0.0169312 0)
(0 -0.0169312 0)
(0 -0.0169312 0)
(0 -0.0169312 0)
(0 -0.0169312 0)
(0 -0.0169312 0)
(0 -0.0169312 0)
(0 -0.0169218 0)
(0 -0.0169166 0)
(0 -0.0169306 0)
(0 -0.016931 0)
(0 -0.0168623 0)
(0 -0.0168093 0)
(0 -0.0167805 0)
(0 -0.0168383 0)
(0 -0.0165199 0)
(0 -0.0164251 0)
(0 -0.016348 0)
(0 -0.0164462 0)
(0 -0.0157657 0)
(0 -0.0156334 0)
(0 -0.0154743 0)
(0 -0.0152113 0)
(0 -0.0154973 0)
(0 -0.0144938 0)
(0 -0.0141935 0)
(0 -0.0138428 0)
(0 -0.0130154 0)
(0 -0.0137264 0)
(0 -0.0128477 0)
(0 -0.012077 0)
(0 -0.011122 0)
(0 -0.0118372 0)
(0 -0.0100312 0)
(0 -0.00921779 0)
(0 -0.00707254 0)
(0 -0.00502816 0)
(0 -0.00314959 0)
(0 -0.0016017 0)
(0 -0.000490643 0)
(0 -2.12839e-05 0)
(0 0 0)
(0 0 0)
(0 0 0)
(0 0 0)
(0 0 0)
(0 0 0)
(0 0 0)
(0 0 0)
(0 0 0)
(0 0 0)
(0 0 0)
(0 0 0)
(0 0 0)
(0 0 0)
(0 0 0)
(0 -0.000161674 0)
(0 -0.000851962 0)
(0 -0.00200447 0)
(0 -0.003499 0)
(0 -0.00536631 0)
(0 -0.00729701 0)
(0 -0.00820779 0)
(0 -0.00928252 0)
(0 -0.0102016 0)
(0 -0.0111979 0)
(0 -0.0102501 0)
(0 -0.0111547 0)
(0 -0.0121344 0)
(0 -0.0129823 0)
(0 -0.0119805 0)
(0 -0.0126718 0)
(0 -0.0132459 0)
(0 -0.0137284 0)
(0 -0.0133688 0)
(0 -0.01437 0)
(0 -0.0138683 0)
(0 -0.0141784 0)
(0 -0.0146537 0)
(0 -0.0153639 0)
(0 -0.0149338 0)
(0 -0.0151059 0)
(0 -0.0155517 0)
(0 -0.0159933 0)
(0 -0.0156121 0)
(0 -0.0157241 0)
(0 -0.0160989 0)
(0 -0.0163197 0)
(0 -0.015968 0)
(0 -0.01603 0)
(0 -0.0163629 0)
(0 -0.0164208 0)
(0 -0.016096 0)
(0 -0.0160792 0)
(0 -0.0164075 0)
(0 -0.0163197 0)
(0 -0.015968 0)
(0 -0.0158799 0)
(0 -0.0162519 0)
(0 -0.0159933 0)
(0 -0.0156121 0)
(0 -0.0154722 0)
(0 -0.0158601 0)
(0 -0.0153639 0)
(0 -0.0149338 0)
(0 -0.0147114 0)
(0 -0.0151463 0)
(0 -0.01437 0)
(0 -0.0138683 0)
(0 -0.0135771 0)
(0 -0.0140601 0)
(0 -0.0129823 0)
(0 -0.0119805 0)
(0 -0.0111547 0)
(0 -0.0121344 0)
(0 -0.0111979 0)
(0 -0.0102501 0)
(0 -0.00928252 0)
(0 -0.0102016 0)
(0 -0.00820779 0)
(0 -0.00729701 0)
(0 -0.00536631 0)
(0 -0.003499 0)
(0 -0.00200447 0)
(0 -0.000851962 0)
(0 -0.000161674 0)
(0 0 0)
(0 0 0)
(0 0 0)
(0 0 0)
(0 0 0)
(0 0 0)
(0 0 0)
(0 0 0)
(0 0 0)
(0 0 0)
(0 0 0)
(0 0 0)
(0 0 0)
(0 0 0)
(0 0 0)
(0 0 0)
(0 0 0)
(0 -0.000243636 0)
(0 -0.00100603 0)
(0 -0.00215665 0)
(0 -0.00358363 0)
(0 -0.00514665 0)
(0 -0.00668959 0)
(0 -0.00788695 0)
(0 -0.00916015 0)
(0 -0.00824666 0)
(0 -0.00874382 0)
(0 -0.01002 0)
(0 -0.0107784 0)
(0 -0.00954671 0)
(0 -0.010281 0)
(0 -0.0115524 0)
(0 -0.0122361 0)
(0 -0.0116034 0)
(0 -0.0118476 0)
(0 -0.012541 0)
(0 -0.013319 0)
(0 -0.012697 0)
(0 -0.0129278 0)
(0 -0.0135516 0)
(0 -0.0140817 0)
(0 -0.0134561 0)
(0 -0.0135592 0)
(0 -0.0142021 0)
(0 -0.0145391 0)
(0 -0.0139383 0)
(0 -0.0140085 0)
(0 -0.0146087 0)
(0 -0.0146905 0)
(0 -0.0140935 0)
(0 -0.0140646 0)
(0 -0.0146643 0)
(0 -0.0145391 0)
(0 -0.0139383 0)
(0 -0.01384 0)
(0 -0.0144414 0)
(0 -0.0140817 0)
(0 -0.0134561 0)
(0 -0.0133077 0)
(0 -0.0139332 0)
(0 -0.013319 0)
(0 -0.012697 0)
(0 -0.0124396 0)
(0 -0.013059 0)
(0 -0.0122361 0)
(0 -0.0116034 0)
(0 -0.0108722 0)
(0 -0.010281 0)
(0 -0.0115524 0)
(0 -0.0107784 0)
(0 -0.00954671 0)
(0 -0.00874382 0)
(0 -0.01002 0)
(0 -0.00916015 0)
(0 -0.00788695 0)
(0 -0.00668959 0)
(0 -0.00514665 0)
(0 -0.00824666 0)
(0 -0.00358363 0)
(0 -0.00215665 0)
(0 -0.00100603 0)
(0 -0.000243636 0)
(0 0 0)
(0 0 0)
(0 0 0)
(0 0 0)
(0 0 0)
(0 0 0)
(0 0 0)
(0 0 0)
(0 0 0)
(0 0 0)
(0 0 0)
(0 0 0)
(0 0 0)
(0 0 0)
(0 0 0)
(0 0 0)
(0 0 0)
(0 0 0)
(0 -3.08961e-06 0)
(0 -0.000276779 0)
(0 -0.000937912 0)
(0 -0.00183797 0)
(0 -0.00300836 0)
(0 -0.00425658 0)
(0 -0.00546343 0)
(0 -0.00616796 0)
(0 -0.00747567 0)
(0 -0.00821708 0)
(0 -0.00676184 0)
(0 -0.00743187 0)
(0 -0.00882797 0)
(0 -0.00949779 0)
(0 -0.00877803 0)
(0 -0.00907264 0)
(0 -0.00980408 0)
(0 -0.0105936 0)
(0 -0.00983412 0)
(0 -0.0100437 0)
(0 -0.0108104 0)
(0 -0.0113015 0)
(0 -0.0105409 0)
(0 -0.0107103 0)
(0 -0.0114757 0)
(0 -0.0118409 0)
(0 -0.0110656 0)
(0 -0.011132 0)
(0 -0.0119089 0)
(0 -0.0119986 0)
(0 -0.0112217 0)
(0 -0.0111852 0)
(0 -0.0119635 0)
(0 -0.0118409 0)
(0 -0.0110656 0)
(0 -0.010973 0)
(0 -0.0117458 0)
(0 -0.0113015 0)
(0 -0.0105409 0)
(0 -0.010347 0)
(0 -0.0111695 0)
(0 -0.0105936 0)
(0 -0.00983412 0)
(0 -0.00960179 0)
(0 -0.0103531 0)
(0 -0.00949779 0)
(0 -0.00877803 0)
(0 -0.00804524 0)
(0 -0.00743187 0)
(0 -0.00882797 0)
(0 -0.00821708 0)
(0 -0.00676184 0)
(0 -0.00616796 0)
(0 -0.00747567 0)
(0 -0.00546343 0)
(0 -0.00425658 0)
(0 -0.00300836 0)
(0 -0.00183797 0)
(0 -0.000937912 0)
(0 -0.000276779 0)
(0 -3.08961e-06 0)
(0 0 0)
(0 0 0)
(0 0 0)
(0 0 0)
(0 0 0)
(0 0 0)
(0 0 0)
(0 0 0)
(0 0 0)
(0 0 0)
(0 0 0)
(0 0 0)
(0 0 0)
(0 0 0)
(0 0 0)
(0 0 0)
(0 0 0)
(0 0 0)
(0 0 0)
(0 0 0)
(0 -0.000145355 0)
(0 -0.000605397 0)
(0 -0.00122642 0)
(0 -0.00206505 0)
(0 -0.00305349 0)
(0 -0.00360057 0)
(0 -0.00479774 0)
(0 -0.00542604 0)
(0 -0.00413669 0)
(0 -0.00464838 0)
(0 -0.00602054 0)
(0 -0.00656822 0)
(0 -0.00583815 0)
(0 -0.00607486 0)
(0 -0.00682084 0)
(0 -0.0074786 0)
(0 -0.00669275 0)
(0 -0.00680551 0)
(0 -0.00758021 0)
(0 -0.00815216 0)
(0 -0.00734558 0)
(0 -0.00748685 0)
(0 -0.00830149 0)
(0 -0.00861619 0)
(0 -0.00778492 0)
(0 -0.00784081 0)
(0 -0.00867514 0)
(0 -0.00876103 0)
(0 -0.0079242 0)
(0 -0.00788569 0)
(0 -0.00872246 0)
(0 -0.00861619 0)
(0 -0.00778492 0)
(0 -0.00770704 0)
(0 -0.00853401 0)
(0 -0.00815216 0)
(0 -0.00734558 0)
(0 -0.00718439 0)
(0 -0.00798163 0)
(0 -0.0074786 0)
(0 -0.00669275 0)
(0 -0.00650329 0)
(0 -0.00727717 0)
(0 -0.00656822 0)
(0 -0.00583815 0)
(0 -0.00512321 0)
(0 -0.00464838 0)
(0 -0.00602054 0)
(0 -0.00542604 0)
(0 -0.00413669 0)
(0 -0.00360057 0)
(0 -0.00479774 0)
(0 -0.00305349 0)
(0 -0.00206505 0)
(0 -0.00122642 0)
(0 -0.000605397 0)
(0 -0.000145355 0)
(0 0 0)
(0 0 0)
(0 0 0)
(0 0 0)
(0 0 0)
(0 0 0)
(0 0 0)
(0 0 0)
(0 0 0)
(0 0 0)
(0 0 0)
(0 0 0)
(0 0 0)
(0 0 0)
(0 0 0)
(0 0 0)
(0 0 0)
(0 0 0)
(0 0 0)
(0 0 0)
(0 0 0)
(0 0 0)
(0 0 0)
(0 -1.23781e-05 0)
(0 -0.000209962 0)
(0 -0.000585973 0)
(0 -0.00122925 0)
(0 -0.00156391 0)
(0 -0.00250688 0)
(0 -0.00294601 0)
(0 -0.00190373 0)
(0 -0.00223722 0)
(0 -0.0033699 0)
(0 -0.00376691 0)
(0 -0.00313915 0)
(0 -0.00330614 0)
(0 -0.00395198 0)
(0 -0.00439774 0)
(0 -0.00372194 0)
(0 -0.00387862 0)
(0 -0.00456991 0)
(0 -0.00500375 0)
(0 -0.00427455 0)
(0 -0.004379 0)
(0 -0.00511792 0)
(0 -0.00535972 0)
(0 -0.00460052 0)
(0 -0.00464223 0)
(0 -0.0054052 0)
(0 -0.00547782 0)
(0 -0.00471031 0)
(0 -0.00467577 0)
(0 -0.00544174 0)
(0 -0.00535972 0)
(0 -0.00460052 0)
(0 -0.00454249 0)
(0 -0.00529642 0)
(0 -0.00500375 0)
(0 -0.00427455 0)
(0 -0.00415582 0)
(0 -0.00487383 0)
(0 -0.00439774 0)
(0 -0.00372194 0)
(0 -0.00355455 0)
(0 -0.00421349 0)
(0 -0.00376691 0)
(0 -0.00313915 0)
(0 -0.00255362 0)
(0 -0.00223722 0)
(0 -0.0033699 0)
(0 -0.00294601 0)
(0 -0.00190373 0)
(0 -0.00156391 0)
(0 -0.00250688 0)
(0 -0.00122925 0)
(0 -0.000585973 0)
(0 -0.000209962 0)
(0 -1.23781e-05 0)
(0 0 0)
(0 0 0)
(0 0 0)
(0 0 0)
(0 0 0)
(0 0 0)
(0 0 0)
(0 0 0)
(0 0 0)
(0 0 0)
(0 0 0)
(0 0 0)
(0 0 0)
(0 0 0)
(0 0 0)
(0 0 0)
(0 0 0)
(0 0 0)
(0 0 0)
(0 0 0)
(0 0 0)
(0 0 0)
(0 0 0)
(0 0 0)
(0 0 0)
(0 0 0)
(0 -2.24378e-06 0)
(0 -0.000168574 0)
(0 -0.000293626 0)
(0 -0.000814193 0)
(0 -0.0010549 0)
(0 -0.000437829 0)
(0 -0.000592041 0)
(0 -0.00129773 0)
(0 -0.00153295 0)
(0 -0.00105522 0)
(0 -0.00116325 0)
(0 -0.00159088 0)
(0 -0.00195333 0)
(0 -0.00147004 0)
(0 -0.00156317 0)
(0 -0.00206236 0)
(0 -0.0023412 0)
(0 -0.00180278 0)
(0 -0.00186695 0)
(0 -0.00241549 0)
(0 -0.00257401 0)
(0 -0.00200427 0)
(0 -0.0020303 0)
(0 -0.002604 0)
(0 -0.00265615 0)
(0 -0.00207653 0)
(0 -0.00205127 0)
(0 -0.00262814 0)
(0 -0.00257401 0)
(0 -0.00200427 0)
(0 -0.00196814 0)
(0 -0.00253236 0)
(0 -0.0023412 0)
(0 -0.00180278 0)
(0 -0.00173031 0)
(0 -0.00225711 0)
(0 -0.00195333 0)
(0 -0.00147004 0)
(0 -0.0013717 0)
(0 -0.00183772 0)
(0 -0.00153295 0)
(0 -0.00105522 0)
(0 -0.000709592 0)
(0 -0.000592041 0)
(0 -0.00129773 0)
(0 -0.0010549 0)
(0 -0.000437829 0)
(0 -0.000293626 0)
(0 -0.000814193 0)
(0 -0.000168574 0)
(0 -2.24378e-06 0)
(0 0 0)
(0 0 0)
(0 0 0)
(0 0 0)
(0 0 0)
(0 0 0)
(0 0 0)
(0 0 0)
(0 0 0)
(0 0 0)
(0 0 0)
(0 0 0)
(0 0 0)
(0 0 0)
(0 0 0)
(0 0 0)
(0 0 0)
(0 0 0)
(0 0 0)
(0 0 0)
(0 0 0)
(0 0 0)
(0 0 0)
(0 0 0)
(0 0 0)
(0 0 0)
(0 0 0)
(0 0 0)
(0 0 0)
(0 0 0)
(0 0 0)
(0 -8.24053e-05 0)
(0 -2.9805e-05 0)
(0 0 0)
(0 -0.000129582 0)
(0 -0.000216483 0)
(0 -6.62761e-06 0)
(0 -2.8969e-05 0)
(0 -0.00031197 0)
(0 -0.000408726 0)
(0 -6.10849e-05 0)
(0 -9.72648e-05 0)
(0 -0.00050015 0)
(0 -0.000580509 0)
(0 -0.000132523 0)
(0 -0.000162721 0)
(0 -0.000645062 0)
(0 -0.000690164 0)
(0 -0.000184666 0)
(0 -0.000196189 0)
(0 -0.000713343 0)
(0 -0.000731888 0)
(0 -0.000206033 0)
(0 -0.000196189 0)
(0 -0.000713343 0)
(0 -0.000690164 0)
(0 -0.000184666 0)
(0 -0.000162721 0)
(0 -0.000645062 0)
(0 -0.000580509 0)
(0 -0.000132523 0)
(0 -9.72648e-05 0)
(0 -0.00050015 0)
(0 -0.000408726 0)
(0 -6.10849e-05 0)
(0 -2.8969e-05 0)
(0 -0.00031197 0)
(0 -0.000216483 0)
(0 -6.62761e-06 0)
(0 0 0)
(0 -0.000129582 0)
(0 -8.24053e-05 0)
(0 0 0)
(0 0 0)
(0 0 0)
(0 -2.9805e-05 0)
(0 0 0)
(0 0 0)
(0 0 0)
(0 0 0)
(0 0 0)
(0 0 0)
(0 0 0)
(0 0 0)
(0 0 0)
(0 0 0)
(0 0 0)
(0 0 0)
(0 0 0)
(0 0 0)
(0 0 0)
(0 0 0)
(0 0 0)
(0 0 0)
(0 0 0)
(0 0 0)
(0 0 0)
(0 0 0)
(0 0 0)
(0 0 0)
(0 0 0)
(0 0 0)
(0 0 0)
(0 0 0)
(0 0 0)
(0 0 0)
(0 0 0)
(0 0 0)
(0 0 0)
(0 0 0)
(0 0 0)
(0 0 0)
(0 0 0)
(0 0 0)
(0 0 0)
(0 0 0)
(0 -5.95618e-07 0)
(0 0 0)
(0 0 0)
(0 -2.29213e-06 0)
(0 -1.36378e-06 0)
(0 0 0)
(0 -5.95618e-07 0)
(0 -1.36378e-06 0)
(0 0 0)
(0 0 0)
(0 0 0)
(0 0 0)
(0 0 0)
(0 0 0)
(0 0 0)
(0 0 0)
(0 0 0)
(0 0 0)
(0 0 0)
(0 0 0)
(0 0 0)
(0 0 0)
(0 0 0)
(0 0 0)
(0 0 0)
(0 0 0)
(0 0 0)
(0 0 0)
(0 0 0)
(0 0 0)
(0 0 0)
(0 0 0)
(0 0 0)
(0 0 0)
(0 0 0)
(0 0 0)
(0 0 0)
(0 0 0)
(0 0 0)
(0 0 0)
(0 0 0)
(0 0 0)
(0 0 0)
(0 0 0)
(0 0 0)
(0 0 0)
(0 0 0)
(0 0 0)
(0 0 0)
(0 0 0)
(0 0 0)
(0 0 0)
(0 0 0)
(0 0 0)
(0 0 0)
(0 0 0)
(0 0 0)
(0 0 0)
(0 0 0)
(0 0 0)
(0 0 0)
(0 0 0)
(0 0 0)
(0 0 0)
(0 0 0)
(0 0 0)
(0 0 0)
(0 0 0)
(0 0 0)
(0 0 0)
(0 0 0)
(0 0 0)
(0 0 0)
(0 0 0)
(0 0 0)
(0 0 0)
(0 0 0)
(0 0 0)
(0 0 0)
(0 0 0)
(0 0 0)
(0 0 0)
(0 0 0)
(0 0 0)
(0 0 0)
(0 0 0)
(0 0 0)
(0 0 0)
(0 0 0)
(0 0 0)
(0 0 0)
(0 0 0)
(0 0 0)
(0 0 0)
(0 0 0)
(0 0 0)
(0 0 0)
(0 0 0)
(0 0 0)
(0 0 0)
(0 0 0)
(0 0 0)
(0 0 0)
(0 0 0)
(0 0 0)
(0 0 0)
(0 0 0)
(0 0 0)
(0 0 0)
(0 0 0)
(0 0 0)
(0 0 0)
(0 0 0)
(0 0 0)
(0 0 0)
(0 0 0)
(0 0 0)
(0 0 0)
(0 0 0)
(0 0 0)
(0 0 0)
(0 0 0)
(0 0 0)
(0 0 0)
(0 0 0)
(0 0 0)
(0 0 0)
(0 0 0)
(0 0 0)
(0 0 0)
(0 0 0)
(0 0 0)
(0 0 0)
(0 0 0)
(0 0 0)
(0 0 0)
(0 0 0)
(0 0 0)
(0 0 0)
(0 0 0)
(0 0 0)
(0 0 0)
(0 0 0)
(0 0 0)
(0 0 0)
(0 0 0)
(0 0 0)
(0 0 0)
(0 0 0)
(0 0 0)
(0 0 0)
(0 0 0)
(0 0 0)
(0 0 0)
(0 0 0)
(0 0 0)
(0 0 0)
(0 0 0)
(0 0 0)
(0 0 0)
(0 0 0)
(0 0 0)
(0 0 0)
(0 0 0)
(0 0 0)
(0 0 0)
(0 0 0)
(0 0 0)
(0 0 0)
(0 0 0)
(0 0 0)
(0 0 0)
(0 0 0)
(0 0 0)
(0 0 0)
(0 0 0)
(0 0 0)
(0 0 0)
(0 0 0)
(0 0 0)
(0 0 0)
(0 0 0)
(0 0 0)
(0 0 0)
(0 0 0)
(0 0 0)
(0 0 0)
(0 0 0)
(0 0 0)
(0 0 0)
(0 0 0)
(0 0 0)
(0 0 0)
(0 0 0)
(0 0 0)
(0 0 0)
(0 0 0)
(0 0 0)
(0 0 0)
(0 0 0)
(0 0 0)
(0 0 0)
(0 0 0)
(0 0 0)
(0 0 0)
(0 0 0)
(0 0 0)
(0 0 0)
(0 0 0)
(0 0 0)
(0 0 0)
(0 0 0)
(0 0 0)
(0 0 0)
(0 0 0)
(0 0 0)
(0 0 0)
(0 0 0)
(0 0 0)
(0 0 0)
(0 0 0)
(0 0 0)
(0 0 0)
(0 0 0)
(0 0 0)
(0 0 0)
(0 0 0)
(0 0 0)
(0 0 0)
(0 0 0)
(0 0 0)
(0 0 0)
(0 0 0)
(0 0 0)
(0 0 0)
(0 0 0)
(0 0 0)
(0 0 0)
(0 0 0)
(0 0 0)
(0 0 0)
(0 0 0)
(0 0 0)
(0 0 0)
(0 0 0)
(0 0 0)
(0 0 0)
(0 0 0)
(0 0 0)
(0 0 0)
(0 0 0)
(0 0 0)
(0 0 0)
(0 0 0)
(0 0 0)
(0 0 0)
(0 0 0)
(0 0 0)
(0 0 0)
(0 0 0)
(0 0 0)
(0 0 0)
(0 0 0)
(0 0 0)
(0 0 0)
(0 0 0)
(0 0 0)
(0 0 0)
(0 0 0)
(0 0 0)
(0 0 0)
(0 0 0)
(0 0 0)
(0 0 0)
(0 0 0)
(0 0 0)
(0 0 0)
(0 0 0)
(0 0 0)
(0 0 0)
(0 0 0)
(0 0 0)
(0 0 0)
(0 0 0)
(0 0 0)
(0 0 0)
(0 0 0)
(0 0 0)
(0 0 0)
(0 0 0)
(0 0 0)
(0 0 0)
(0 0 0)
(0 0 0)
(0 0 0)
(0 0 0)
(0 0 0)
(0 0 0)
(0 0 0)
(0 0 0)
(0 0 0)
(0 0 0)
(0 0 0)
(0 0 0)
(0 0 0)
(0 0 0)
(0 0 0)
(0 0 0)
(0 0 0)
(0 0 0)
(0 0 0)
(0 0 0)
(0 0 0)
(0 0 0)
(0 0 0)
(0 0 0)
(0 0 0)
(0 0 0)
(0 0 0)
(0 0 0)
(0 0 0)
(0 0 0)
(0 0 0)
(0 0 0)
(0 0 0)
(0 0 0)
(0 0 0)
(0 0 0)
(0 0 0)
(0 0 0)
(0 0 0)
(0 0 0)
(0 0 0)
(0 0 0)
(0 0 0)
(0 0 0)
(0 0 0)
(0 0 0)
(0 0 0)
(0 0 0)
(0 0 0)
(0 0 0)
(0 0 0)
(0 0 0)
(0 0 0)
(0 0 0)
(0 0 0)
(0 0 0)
(0 0 0)
(0 0 0)
(0 0 0)
(0 0 0)
(0 0 0)
(0 0 0)
(0 0 0)
(0 0 0)
(0 0 0)
(0 0 0)
(0 0 0)
(0 0 0)
(0 0 0)
(0 0 0)
(0 0 0)
(0 0 0)
(0 0 0)
(0 0 0)
(0 0 0)
(0 0 0)
(0 0 0)
(0 0 0)
(0 0 0)
(0 0 0)
(0 0 0)
(0 0 0)
(0 0 0)
(0 0 0)
(0 0 0)
(0 0 0)
(0 0 0)
(0 0 0)
(0 0 0)
(0 0 0)
(0 0 0)
(0 0 0)
(0 0 0)
(0 0 0)
(0 0 0)
(0 0 0)
(0 0 0)
(0 0 0)
(0 0 0)
(0 0 0)
(0 0 0)
(0 0 0)
(0 0 0)
(0 0 0)
(0 0 0)
(0 0 0)
(0 0 0)
(0 0 0)
(0 0 0)
(0 0 0)
(0 0 0)
(0 0 0)
(0 0 0)
(0 0 0)
(0 0 0)
(0 0 0)
(0 0 0)
(0 0 0)
(0 0 0)
(0 0 0)
(0 0 0)
(0 0 0)
(0 0 0)
(0 0 0)
(0 0 0)
(0 0 0)
(0 0 0)
(0 0 0)
(0 0 0)
(0 0 0)
(0 0 0)
(0 0 0)
(0 0 0)
(0 0 0)
(0 0 0)
(0 0 0)
(0 0 0)
(0 0 0)
(0 0 0)
(0 0 0)
(0 0 0)
(0 0 0)
(0 0 0)
(0 0 0)
(0 0 0)
(0 0 0)
(0 0 0)
(0 0 0)
(0 0 0)
(0 0 0)
(0 0 0)
(0 0 0)
(0 0 0)
(0 0 0)
(0 0 0)
(0 0 0)
(0 0 0)
(0 0 0)
(0 0 0)
(0 0 0)
(0 0 0)
(0 0 0)
(0 0 0)
(0 0 0)
(0 0 0)
(0 0 0)
(0 0 0)
(0 0 0)
(0 0 0)
(0 0 0)
(0 0 0)
(0 0 0)
(0 0 0)
(0 0 0)
(0 0 0)
(0 0 0)
(0 0 0)
(0 0 0)
(0 0 0)
(0 0 0)
(0 0 0)
(0 0 0)
(0 0 0)
(0 0 0)
(0 0 0)
(0 0 0)
(0 0 0)
(0 0 0)
(0 0 0)
(0 0 0)
(0 0 0)
(0 0 0)
(0 0 0)
(0 0 0)
(0 0 0)
(0 0 0)
(0 0 0)
(0 0 0)
(0 0 0)
(0 0 0)
(0 0 0)
(0 0 0)
(0 0 0)
(0 0 0)
(0 0 0)
(0 0 0)
(0 0 0)
(0 0 0)
(0 0 0)
(0 0 0)
(0 0 0)
(0 0 0)
(0 0 0)
(0 0 0)
(0 0 0)
(0 0 0)
(0 0 0)
(0 0 0)
(0 0 0)
(0 0 0)
(0 0 0)
(0 0 0)
(0 0 0)
(0 0 0)
(0 0 0)
(0 0 0)
(0 0 0)
(0 0 0)
(0 0 0)
(0 0 0)
(0 0 0)
(0 0 0)
(0 0 0)
(0 0 0)
(0 0 0)
(0 0 0)
(0 0 0)
(0 0 0)
(0 0 0)
(0 0 0)
(0 0 0)
(0 0 0)
(0 0 0)
(0 0 0)
(0 0 0)
(0 0 0)
(0 0 0)
(0 0 0)
(0 0 0)
(0 0 0)
(0 0 0)
(0 0 0)
(0 0 0)
(0 0 0)
(0 0 0)
(0 0 0)
(0 0 0)
(0 0 0)
(0 0 0)
(0 0 0)
(0 0 0)
(0 0 0)
(0 0 0)
(0 0 0)
(0 0 0)
(0 0 0)
(0 0 0)
(0 0 0)
(0 0 0)
(0 0 0)
(0 0 0)
(0 0 0)
(0 0 0)
(0 0 0)
(0 0 0)
(0 0 0)
(0 0 0)
(0 0 0)
(0 0 0)
(0 0 0)
(0 0 0)
(0 0 0)
(0 0 0)
(0 0 0)
(0 0 0)
(0 0 0)
(0 0 0)
(0 0 0)
(0 0 0)
(0 0 0)
(0 0 0)
(0 0 0)
(0 0 0)
(0 0 0)
(0 0 0)
(0 0 0)
(0 0 0)
(0 0 0)
(0 0 0)
(0 0 0)
(0 0 0)
(0 0 0)
(0 0 0)
(0 0 0)
(0 0 0)
(0 0 0)
(0 0 0)
(0 0 0)
(0 0 0)
(0 0 0)
(0 0 0)
(0 0 0)
(0 0 0)
(0 0 0)
(0 0 0)
(0 0 0)
(0 0 0)
(0 0 0)
(0 0 0)
(0 0 0)
(0 0 0)
(0 0 0)
(0 0 0)
(0 0 0)
(0 0 0)
(0 0 0)
(0 0 0)
(0 0 0)
(0 0 0)
(0 0 0)
(0 0 0)
(0 0 0)
(0 0 0)
(0 0 0)
(0 0 0)
(0 0 0)
(0 0 0)
(0 0 0)
(0 0 0)
(0 0 0)
(0 0 0)
(0 0 0)
(0 0 0)
(0 0 0)
(0 0 0)
(0 0 0)
(0 0 0)
(0 0 0)
(0 0 0)
(0 0 0)
(0 0 0)
(0 0 0)
(0 0 0)
(0 0 0)
(0 0 0)
(0 0 0)
(0 0 0)
(0 0 0)
(0 0 0)
(0 0 0)
(0 0 0)
(0 0 0)
(0 0 0)
(0 0 0)
(0 0 0)
(0 0 0)
(0 0 0)
(0 0 0)
(0 0 0)
(0 0 0)
(0 0 0)
(0 0 0)
(0 0 0)
(0 0 0)
(0 0 0)
(0 0 0)
(0 0 0)
(0 0 0)
(0 0 0)
(0 0 0)
(0 0 0)
(0 0 0)
(0 0 0)
(0 0 0)
(0 0 0)
(0 0 0)
(0 0 0)
(0 0 0)
(0 0 0)
(0 0 0)
(0 0 0)
(0 0 0)
(0 0 0)
(0 0 0)
(0 0 0)
(0 0 0)
(0 0 0)
(0 0 0)
(0 0 0)
(0 0 0)
(0 0 0)
(0 0 0)
(0 0 0)
(0 0 0)
(0 0 0)
(0 0 0)
(0 0 0)
(0 0 0)
(0 0 0)
(0 0 0)
(0 0 0)
(0 0 0)
(0 0 0)
(0 0 0)
(0 0 0)
(0 0 0)
(0 0 0)
(0 0 0)
(0 0 0)
(0 0 0)
(0 0 0)
(0 0 0)
(0 0 0)
(0 0 0)
(0 0 0)
(0 0 0)
(0 0 0)
(0 0 0)
(0 0 0)
(0 0 0)
(0 0 0)
(0 0 0)
(0 0 0)
(0 0 0)
(0 0 0)
(0 0 0)
(0 0 0)
(0 0 0)
(0 0 0)
(0 0 0)
(0 0 0)
(0 0 0)
(0 0 0)
(0 0 0)
(0 0 0)
(0 0 0)
(0 0 0)
(0 0 0)
(0 0 0)
(0 0 0)
(0 0 0)
(0 0 0)
(0 0 0)
(0 0 0)
(0 0 0)
(0 0 0)
(0 0 0)
(0 0 0)
(0 0 0)
(0 0 0)
(0 0 0)
(0 0 0)
(0 0 0)
(0 0 0)
(0 0 0)
(0 0 0)
(0 0 0)
(0 0 0)
(0 0 0)
(0 0 0)
(0 0 0)
(0 0 0)
(0 0 0)
(0 0 0)
(0 0 0)
(0 0 0)
(0 0 0)
(0 0 0)
(0 0 0)
(0 0 0)
(0 0 0)
(0 0 0)
(0 0 0)
(0 0 0)
(0 0 0)
(0 0 0)
(0 0 0)
(0 0 0)
(0 0 0)
(0 0 0)
(0 0 0)
(0 0 0)
(0 0 0)
(0 0 0)
(0 0 0)