/*--------------------------------*- C++ -*----------------------------------*\
| =========                 |                                                 |
| \\      /  F ield         | OpenFOAM: The Open Source CFD Toolbox           |
|  \\    /   O peration     | Version:  v2106                                 |
|   \\  /    A nd           | Website:  www.openfoam.com                      |
|    \\/     M anipulation  |                                                 |
\*---------------------------------------------------------------------------*/
FoamFile
{
    version     2.0;
    format      ascii;
    arch        "LSB;label=32;scalar=64";
    class       volScalarField;
    location    "0";
    object      p;
}
// * * * * * * * * * * * * * * * * * * * * * * * * * * * * * * * * * * * * * //

dimensions      [0 2 -2 0 0 0 0];

internalField   nonuniform List<scalar> 
11644
(
0.0683733
0.0676301
0.0661606
0.0640849
0.061062
0.0568643
0.0514837
0.0452556
0.038428
0.0313889
0.0246895
0.0188241
0.0144984
0.0118668
0.0110475
0.0126103
0.0137181
0.0126191
0.0162355
0.0154187
0.00910515
-0.00378895
-0.0136975
-0.0224496
-0.0324325
-0.0400914
-0.0439479
-0.044721
-0.04275
-0.0384013
-0.032687
-0.0262145
-0.019456
-0.0128324
-0.00661974
-0.00123218
0.00297847
0.00623589
0.00857473
0.00973683
0.0719923
0.071462
0.0698513
0.0671883
0.0636869
0.0595864
0.0545618
0.0485692
0.0417508
0.0346116
0.027362
0.0205564
0.0150306
0.0104595
0.00852849
0.00757064
0.00737476
0.00955653
0.00869245
0.0137946
0.0038861
-0.0168847
-0.0234773
-0.031469
-0.0391545
-0.0440475
-0.0465658
-0.0457321
-0.0419336
-0.0365481
-0.0300244
-0.0229209
-0.0158045
-0.00895569
-0.00289204
0.00233417
0.00687288
0.0104715
0.0128549
0.0138511
0.0720118
0.0721571
0.0715938
0.0699297
0.0673384
0.0639402
0.059941
0.055239
0.0498087
0.0436981
0.036922
0.0298826
0.0223206
0.0164576
0.0114208
0.00779331
0.0066256
0.00460626
-0.00211753
0.00284315
-0.0069408
-0.00961016
-0.022741
-0.0335461
-0.0418869
-0.0459059
-0.0450331
-0.0421697
-0.0371688
-0.0305757
-0.0235459
-0.0163719
-0.00952257
-0.00329513
0.00236787
0.00725032
0.0113349
0.014333
0.0159555
0.016392
0.0710545
0.0710936
0.0711064
0.0708608
0.070225
0.0688956
0.0669984
0.0644655
0.0611369
0.0567988
0.0512592
0.0434037
0.0346209
0.0214746
0.0102087
0.00345048
-0.00155639
-0.0075135
-0.0128403
-0.0164315
-0.0208446
-0.00802878
-0.0186815
-0.0293131
-0.035765
-0.0384416
-0.0388875
-0.0343074
-0.0282203
-0.0213737
-0.0143404
-0.00760686
-0.001388
0.00422682
0.00903552
0.013013
0.0159627
0.0179136
0.0190106
0.0194266
0.0697291
0.0700286
0.070324
0.0711116
0.0721251
0.0731242
0.0738567
0.0740712
0.0734453
0.0714272
0.0664971
0.0579551
0.0441187
0.0309433
0.0152065
-7.53593e-05
-0.00684446
-0.0253916
-0.0391192
-0.0446771
-0.0484184
-0.0173439
-0.0194125
-0.0159495
-0.0214276
-0.0220169
-0.0183785
-0.0165747
-0.0124939
-0.00757994
-0.00207692
0.00393381
0.00925275
0.013648
0.0170257
0.0195939
0.0214047
0.0225819
0.0234811
0.0240778
0.0672057
0.0672229
0.0678726
0.0693497
0.0715386
0.0743651
0.0774962
0.0805939
0.082667
0.0827858
0.079714
0.0718198
0.061528
0.0391075
0.0102657
-0.0125743
-0.0276424
-0.0611528
-0.0811027
-0.0821852
-0.0678988
-0.0465234
-0.0318588
-0.000262945
0.0106636
0.009242
0.00937347
0.0126968
0.0111671
0.011558
0.0137183
0.01698
0.0202226
0.0228187
0.0246647
0.0257483
0.0265008
0.0270462
0.0275304
0.0277727
0.0604798
0.0609551
0.062109
0.0635606
0.0660797
0.0696343
0.0741863
0.0793553
0.0840268
0.0857115
0.0827411
0.0753521
0.06276
0.0584763
0.0377648
-0.00890427
-0.0567826
-0.0606518
-0.0728503
-0.0793005
-0.0546443
-0.0345482
-0.00796575
0.0213327
0.0645534
0.0762241
0.0681249
0.0498728
0.038135
0.0315737
0.0285387
0.0280464
0.0284661
0.0291728
0.0295139
0.0295132
0.0293014
0.0293366
0.0293304
0.0294633
0.0497792
0.0504909
0.0512899
0.0531291
0.0555614
0.0586674
0.0629225
0.0680599
0.0732014
0.07481
0.0693109
0.0597016
0.0497518
0.0473647
0.0172789
0.00168114
-0.0489304
-0.0797428
-0.0906967
-0.0865369
-0.0538849
-0.00969096
0.0345295
0.0489793
0.0858881
0.117559
0.090129
0.0761045
0.0548939
0.043826
0.0362223
0.0324545
0.0308518
0.0301762
0.0297085
0.0294283
0.0291981
0.0291534
0.0292696
0.0290248
0.038316
0.0377882
0.037602
0.0382492
0.0392294
0.0410925
0.0437144
0.0468523
0.0484754
0.0446518
0.0330824
0.0166574
-0.00118666
-0.0138806
-0.0440928
-0.0849544
-0.0810355
-0.123681
-0.148618
-0.129512
-0.081146
-0.00640615
0.0573634
0.0995595
0.121918
0.0842614
0.0841169
0.0704784
0.0525341
0.0438257
0.034446
0.0287705
0.0264781
0.0254464
0.0255244
0.0255278
0.0257365
0.0255788
0.0258556
0.02603
0.0234113
0.0228801
0.0228275
0.0215906
0.0206978
0.0204021
0.0200648
0.018497
0.0131279
0.00358688
-0.0141713
-0.0361009
-0.049977
-0.0550836
-0.0854312
-0.139861
-0.182674
-0.233575
-0.246701
-0.215186
-0.0937336
0.0397572
0.111641
0.12022
0.110837
0.102352
0.0905504
0.0453159
0.0345547
0.0274765
0.0229061
0.0193719
0.0176593
0.0172701
0.0184136
0.0188645
0.0191158
0.0196946
0.0198915
0.0207949
0.00814218
0.00740797
0.00571048
0.00413357
0.00223981
-0.000660287
-0.00432927
-0.0107907
-0.0218063
-0.0336106
-0.0440422
-0.064853
-0.074283
-0.0962226
-0.149091
-0.144867
-0.202046
-0.307631
-0.435991
-0.483135
-0.13898
0.246009
0.266066
0.185523
0.12707
0.0760179
0.0321899
0.0248366
0.00729865
0.00669727
0.00749558
0.0070648
0.00777622
0.00862415
0.0100878
0.0111916
0.010805
0.0107839
0.0108825
0.0105128
-0.00421543
-0.00397873
-0.00670061
-0.00926069
-0.0136453
-0.0192089
-0.0252038
-0.0333518
-0.0425341
-0.0549648
-0.0623017
-0.0792278
-0.106703
-0.115717
-0.139952
-0.156439
-0.190441
-0.262194
-0.526965
0.377453
0.127453
0.0202132
-0.0293518
-0.0337858
-0.0323645
-0.015808
-0.0056293
-0.00315498
0.000437207
0.00404452
0.00519314
0.0056209
0.00571704
0.00492489
0.00299593
0.00258221
0.00180211
-0.0148865
-0.0138522
-0.0144743
-0.0175153
-0.0215676
-0.0265174
-0.0326105
-0.0391368
-0.0439761
-0.0512031
-0.0453753
-0.0444139
-0.0428723
-0.0278945
0.00560753
0.00361728
0.0143591
0.0523493
0.117633
-0.209944
-0.122702
-0.0650238
-0.036297
-0.0360314
-0.0215979
-0.00733382
0.00365154
0.0030539
0.0094539
0.011434
0.0101031
0.00763857
0.00558636
0.00433644
0.00253718
-0.00226772
-0.00143588
-0.0154626
-0.0164036
-0.0151826
-0.0159595
-0.0183374
-0.0213561
-0.0240874
-0.0270108
-0.0244438
-0.0372834
0.0140803
0.016802
0.0489668
0.111844
0.115871
0.105262
0.211542
0.404178
0.436401
-0.404736
-0.271668
-0.115512
-0.0520182
-0.00676538
0.0708417
0.0236085
0.0282381
0.020941
0.0365329
0.031612
0.0253787
0.0180206
0.0136774
0.00961632
0.00738557
0.0026642
-0.00974794
-0.0183401
-0.00111839
0.000766618
-0.00516861
-0.0067912
-0.00131579
0.00022126
-0.00606713
0.00900825
-0.00330718
0.0526005
0.0495347
0.0559137
0.105522
0.155986
0.193528
0.372503
0.553275
0.699242
-0.520062
0.0958701
1.04571
-0.523726
-0.336954
0.0204495
0.0529596
0.140983
0.0716281
0.054807
0.0763065
0.0485081
0.0852452
0.0604335
0.048821
0.0337875
0.024705
0.0169517
0.0101496
0.015108
0.0158994
0.0232019
0.0166356
0.0192235
0.0255243
0.0293958
0.0277555
0.0311599
0.0435822
0.0534781
0.0638714
0.08213
0.0752534
0.051162
0.0738723
0.0906954
0.272694
0.463712
0.412396
-0.365699
-2.27978
-0.412749
0.890404
0.11011
0.0412112
0.273161
0.103216
0.182206
0.111904
0.121982
0.119518
0.105
0.099397
0.0816004
0.0689622
0.0443707
0.0261185
0.0192516
0.0196882
0.0280378
0.0373609
0.0519302
0.0454255
0.0555299
0.0548735
0.051793
0.0523858
0.0696352
0.0859915
0.0969517
0.106336
0.102641
0.11798
0.071582
0.157854
0.162511
0.0379193
0.302905
0.285098
0.444436
-0.892226
-0.640878
-1.43109
0.361702
0.614571
0.49985
0.282368
0.247014
0.144397
0.161034
0.131231
0.102612
0.102314
0.108336
0.082554
0.0700468
0.0510993
0.0337838
0.0244587
0.013379
0.0251778
0.0486484
0.0547009
0.0524604
0.0505318
0.0564894
0.0682954
0.085071
0.100424
0.117418
0.115902
0.110252
0.158252
0.0482537
0.094884
-0.0891581
-0.0626273
-0.161027
-0.395085
0.827123
0.255192
0.0852317
0.335043
-0.786141
0.532813
0.402144
0.289772
0.191776
-0.0406083
0.115404
0.129732
0.118436
0.11478
0.102851
0.0862167
0.0807603
0.0733526
0.0608166
0.0507947
0.0355264
0.0344021
0.0502741
0.0500082
0.0519087
0.0578726
0.0694479
0.0876338
0.0943674
0.091322
0.0944132
0.123842
0.165843
0.287151
0.193549
-0.236789
-0.132275
-0.203051
-0.696894
0.131612
-0.560709
-0.396362
-0.15995
-0.350271
0.0318534
0.719127
0.0563972
0.0379049
-0.270261
0.050786
0.158212
0.144475
0.109229
0.0832951
0.0679957
0.0674752
0.078482
0.0759881
0.0736321
0.0714059
0.0669717
0.0660592
0.0509887
0.0533238
0.058516
0.0687891
0.0795925
0.0885242
0.0968059
0.099848
0.108659
0.128651
0.168895
0.436732
-0.197669
0.209543
0.0931395
0.271034
-0.324982
-0.672435
-0.0918162
-0.380082
-0.9245
-0.262656
-0.886118
-1.0048
-0.670658
-0.190159
-0.144093
-0.200899
0.252319
0.119488
0.0905415
0.0650112
0.0549329
0.0715855
0.0771196
0.0733038
0.0735667
0.0725153
0.0677806
0.0684161
0.0518396
0.0543977
0.0579069
0.0619377
0.06432
0.0683143
0.0787862
0.0954707
0.112994
0.133053
0.173583
0.269842
0.0947982
0.113147
0.192279
0.402865
0.693082
0.687553
-1.25683
-0.71781
-0.786889
-0.750943
-1.15009
0.193071
-0.259949
-0.209247
-0.270424
0.019757
0.184789
0.115273
0.0897875
0.0720749
0.0635739
0.0693246
0.0656161
0.0662622
0.0656142
0.0677817
0.0704266
0.0709172
0.0423217
0.0424138
0.0455811
0.0463064
0.0519343
0.0539445
0.0569466
0.0654561
0.0808951
0.0979179
0.135723
0.165441
0.111856
0.00678197
0.202265
0.24388
0.293015
1.36896
1.15154
0.372981
0.185225
-1.01761
0.412656
0.474467
-0.246628
0.0743317
-0.040665
-0.13958
-0.0149135
0.0412313
0.0536926
0.0557604
0.0454999
0.0452483
0.0508595
0.0565211
0.0616657
0.0646612
0.0647352
0.0592222
0.0373579
0.0327476
0.0342191
0.0386689
0.0440405
0.0411782
0.0470537
0.0570949
0.0589782
0.0644065
0.0501653
0.201453
0.19229
0.183155
-0.0639158
-0.0903582
-0.399391
0.235952
-1.20516
-0.0394305
0.450016
1.36126
0.429159
0.269878
-0.0994686
-0.796056
0.0837885
-0.0737822
-0.0441216
0.0121267
0.0135255
0.0141633
0.0185473
0.0322804
0.0457145
0.0481625
0.0496933
0.052201
0.0566404
0.0626373
0.0207419
0.029049
0.0294286
0.0298409
0.0305624
0.0223905
0.0305502
0.0437442
0.0661559
0.082457
0.0734627
0.0690343
0.0304685
-0.0878043
0.128306
0.440687
-0.278596
-0.156171
-0.363632
0.306831
0.440856
-0.191157
-1.2681
-1.49722
-0.689049
-0.061693
-0.209896
-0.118847
-0.0699608
-0.0493885
-0.0216732
-0.00651348
0.0116488
0.027604
0.0463836
0.0481268
0.0516308
0.0559121
0.0576258
0.0529866
0.0137883
0.00921865
0.0108706
0.0117646
0.0140706
0.0110203
0.0114681
0.014526
0.0604484
0.0702755
0.0190455
-0.0397402
-0.0324974
-0.250264
-1.06076
-0.64928
-0.266693
0.60031
1.02158
2.05336
0.138527
0.0578384
0.00825593
-0.678955
-0.719073
-1.23653
-0.541666
-0.127339
-0.128342
-0.0867918
-0.0491369
-0.0161677
-0.00182535
0.0191678
0.0366456
0.0461226
0.050667
0.0546607
0.0551564
0.0538592
0.00382224
0.00575098
0.00515313
0.00431118
0.0065302
-0.000349679
0.00127229
-0.001536
0.00378274
0.0238358
0.0731923
-0.0775899
-0.110973
-0.189718
-0.403251
-0.664165
-1.22515
-0.951648
2.71423
4.04985
4.39635
2.89827
-1.62127
-2.39998
-1.67947
-0.660439
-0.0187953
-0.419328
-0.166818
-0.185708
-0.103493
-0.0610907
-0.00811105
0.0149959
0.0295114
0.0412336
0.0474284
0.0522909
0.0564905
0.0565067
-0.00614648
-0.00388849
-0.00458499
-0.0074764
-0.0140178
-0.0172488
-0.0174618
-0.0569311
-0.0633316
-0.0483867
-0.0808596
-0.20774
-0.361387
-0.376157
-0.33127
-0.0951043
-0.547675
-1.43223
4.42497
4.15473
2.63857
4.33268
-3.34979
-2.22834
0.333207
-0.0984742
-0.499742
-0.379589
-0.212315
-0.131241
-0.0857227
-0.0358444
-0.0125166
0.0122351
0.0256757
0.0357538
0.0449263
0.0517386
0.055187
0.0527798
-0.0177997
-0.0192098
-0.0223191
-0.0268512
-0.0345091
-0.0459821
-0.0603165
-0.0877008
-0.118755
-0.139593
-0.195978
-0.270243
-0.427634
-0.5887
-0.493949
-0.514042
-0.658099
-0.509925
2.31061
1.25373
1.35914
1.59885
-0.395489
-0.896446
-0.59682
-0.460918
-0.194531
-0.200257
-0.165476
-0.112479
-0.0615264
-0.0257433
-0.00371412
0.0132067
0.0260999
0.0349158
0.0403322
0.0444031
0.046246
0.0464814
-0.0233444
-0.0275692
-0.033315
-0.0406795
-0.0485368
-0.0667814
-0.0834306
-0.111279
-0.148457
-0.223532
-0.283104
-0.302431
-0.504256
-0.297024
-0.323434
-0.409688
-0.482799
-0.311948
0.35634
0.658016
-0.136168
0.0141857
-0.232466
-0.456926
-0.330078
-0.172792
-0.207806
-0.147683
-0.0683736
-0.0416209
-0.0151616
0.00171068
0.0166614
0.0216648
0.034224
0.0424256
0.0455727
0.0503778
0.0541522
0.0579863
-0.0211838
-0.0322528
-0.0352727
-0.0405606
-0.0487961
-0.0612979
-0.0757121
-0.0971199
-0.132067
-0.191631
-0.259955
-0.273816
-0.38299
-0.586393
-0.580877
-0.672458
-0.292064
-0.702824
0.139359
-0.444839
0.846318
0.732487
-0.186013
-0.25389
-0.394137
-0.44091
-0.0705139
-0.00266359
-0.0752468
0.0849462
0.0489243
0.0447329
0.058832
0.0455918
0.0548896
0.0599642
0.0630304
0.0645721
0.0643546
0.0687843
-0.0285482
-0.0264438
-0.0305178
-0.0347323
-0.0411945
-0.0493216
-0.058967
-0.0733838
-0.111617
-0.157106
-0.2075
-0.316606
-0.409147
-0.228834
-0.331794
-0.601294
-0.521805
-0.554254
-0.70164
-0.69595
-0.27575
-0.080073
0.174076
0.209417
0.242144
0.317477
0.175193
-0.0491423
0.0267707
0.0752568
0.0901641
0.0935053
0.0934694
0.0813445
0.0752807
0.0712895
0.0690559
0.069337
0.0699932
0.0709572
-0.0212587
-0.0239493
-0.0278645
-0.0299088
-0.0345458
-0.0401914
-0.0341228
-0.0257672
-0.0463025
-0.101838
-0.206107
-0.376366
-0.530328
-0.68106
-0.639512
-0.507189
0.458108
0.483992
-0.351232
-1.14235
0.504887
-0.0988662
1.29914
1.06441
0.379565
0.319817
0.205239
0.136858
0.116708
0.111939
0.170406
0.17056
0.160469
0.120149
0.100397
0.0854919
0.0770638
0.0740946
0.073178
0.0775584
-0.0157068
-0.029374
-0.026634
-0.0267564
-0.0254492
-0.0231068
-0.0168518
-0.00496538
0.00673715
-0.112778
-0.182952
-0.254996
-0.25518
-0.112971
-0.126365
-0.144811
-0.00622492
0.504101
-1.05095
-1.19488
-1.13455
-0.654497
1.51858
0.937373
0.730583
0.596609
0.451478
0.218243
0.221801
0.130664
0.232527
0.229544
0.188977
0.151606
0.123654
0.104215
0.0913048
0.0865739
0.0818954
0.0936312
-0.0249544
-0.0338025
-0.0330853
-0.0317175
-0.0252265
-0.0226693
-0.0232893
-0.0257384
-0.0111525
-0.0104259
-0.180572
-0.140358
-0.164098
-0.0674838
-0.141706
-0.062593
-0.135051
-0.289251
-1.16319
-1.13168
-0.396755
-0.421943
0.385732
0.456032
0.447979
0.201642
0.189607
0.3172
0.232209
0.22423
0.189675
0.173395
0.167092
0.143756
0.119339
0.106751
0.096087
0.094867
0.0882782
0.0902666
-0.0153939
-0.0200668
-0.0236008
-0.0251158
-0.0243375
-0.0247271
-0.0277327
-0.033415
-0.0336779
-0.0544875
-0.119823
-0.0604047
-0.0146643
0.0356642
0.0418209
-0.0384034
0.00411552
-0.440701
-0.722282
-0.70508
-0.295437
-0.324746
-0.216959
0.0436421
0.358068
0.2947
0.255536
0.229982
0.185009
0.153515
0.152459
0.151357
0.143396
0.1299
0.114601
0.102587
0.0943813
0.0921352
0.0889545
0.0846324
-0.00815893
-0.00962928
-0.00650728
-0.00597438
-0.00652123
-0.0124396
-0.0189438
-0.0305746
-0.0377945
-0.0502752
-0.065117
-0.106201
-0.174867
-0.117595
0.0168692
0.20216
0.267538
0.337062
-0.00209309
0.158444
-0.525401
-0.591284
-0.620969
-0.453622
-0.0689097
0.0640164
0.0830783
0.0777832
0.0927753
0.128349
0.150175
0.13758
0.134607
0.123554
0.108221
0.0956109
0.0840322
0.0754999
0.0685807
0.0714194
-0.00612376
0.00146859
0.000314719
-0.00159018
-0.00554492
-0.0124632
-0.0192543
-0.0245928
-0.0324473
-0.0345515
0.00820873
0.0495316
0.124884
0.0477508
-0.117121
0.0236457
-0.0676759
0.107284
0.561085
0.988397
0.121168
0.128096
-0.568348
-0.576172
-0.113645
-0.157463
-0.0305089
0.0904506
0.193143
0.133407
0.114706
0.102989
0.090719
0.0851638
0.0786865
0.0705198
0.0646887
0.0625576
0.0643073
0.0628292
-0.0101714
-0.00635775
-0.00611846
-0.00654215
-0.00981627
-0.0160382
-0.0193092
-0.0171128
-0.0394812
-0.0183341
0.0874395
0.118645
0.153652
0.267429
0.348339
0.32446
0.0309369
0.123979
0.400312
0.893291
0.609543
0.245606
-0.131168
-0.361337
0.109918
0.0404055
0.0397627
-0.0384396
0.0171696
0.0719922
0.0658839
0.0436155
0.0406303
0.0458841
0.0568759
0.046353
0.0543125
0.0562753
0.0572063
0.0540209
-0.00825268
-0.00179756
-0.0076378
-0.00975573
-0.0118464
-0.0152046
-0.0204716
-0.0314023
-0.0399839
0.015283
0.118585
0.268133
0.269865
0.253423
0.296338
0.191925
0.168781
-0.22518
1.64878
1.9662
0.926321
0.981767
-0.973863
-0.488292
-0.687865
-0.286524
-0.190875
-0.0657024
0.0522939
0.0431413
0.0169605
-0.0315525
-0.0281184
0.00597476
0.0266864
0.0342987
0.042748
0.0454053
0.0493031
0.0367169
0.0266783
0.0200494
0.0171776
0.0143861
0.014348
0.0124304
0.00905654
0.0130188
0.0130903
0.00917946
0.0529723
0.172322
0.210325
0.292551
0.449954
0.439277
0.722123
0.536039
1.13988
1.15025
0.164022
-0.362882
-0.988785
-0.804554
-0.909449
-0.563891
-0.0233775
-0.0642228
-0.128907
-0.0563634
-0.0325572
-0.0270681
-0.0278857
-0.00522304
0.010888
0.0131973
0.0228546
0.0248928
0.0279364
0.0346674
0.0471573
0.0491688
0.0489657
0.0476996
0.0457574
0.042818
0.0408217
0.04644
0.0611857
0.0746776
0.0836177
0.124693
0.157988
0.125281
0.092459
0.134467
0.310805
0.458952
0.593748
0.107393
-0.737979
-0.530652
-0.585451
-0.638979
-0.649698
-0.491011
-0.302363
-0.141004
-0.0430555
-0.00429125
-0.0805253
-0.0455507
-0.0291852
-0.0065535
0.000379692
0.00260555
0.00794189
0.0125837
0.0181036
0.031553
0.0498478
0.0580738
0.0609983
0.0618843
0.0614844
0.0621065
0.0661764
0.0707082
0.0844694
0.101032
0.117801
0.246842
0.29674
0.269624
0.139335
0.0475271
-0.0787433
-0.227617
-0.276465
-0.132421
-0.0783917
0.0943734
0.0457612
-0.0464802
-0.0882883
-0.102556
-0.0739446
-0.0525539
-0.040133
-0.0333138
-0.033991
-0.027831
-0.0118368
-0.00217603
0.00774043
0.0146983
0.019866
0.0259554
0.0314347
0.0335502
0.0524584
0.0463781
0.0497929
0.0556228
0.0620334
0.0742784
0.0767013
0.0783786
0.131545
0.145349
0.160013
0.229056
0.275121
0.341919
0.323704
0.237427
0.409161
0.24132
-0.0454859
-0.190552
0.440381
0.463907
0.592422
0.571401
0.270315
0.0920503
-0.0171379
-0.0564201
-0.0373637
-0.027722
-0.00459918
0.0101772
0.013157
0.0237067
0.0289593
0.0368916
0.0426538
0.0444574
0.0436659
0.0462307
0.0646923
0.0620463
0.0609414
0.0639991
0.0712679
0.0830639
0.0952325
0.104934
0.143264
0.148944
0.228007
0.307237
0.326654
0.418407
0.602098
0.723653
0.804984
0.739395
0.51121
0.381844
0.147991
-0.0496316
-0.0737851
-0.0656205
-0.029446
-0.025818
0.014619
0.0783811
0.0371812
0.0202786
0.0117797
0.0350538
0.0360596
0.0391124
0.0447809
0.0487835
0.0514674
0.0526454
0.0498086
0.047285
0.0871026
0.0830255
0.0860664
0.0914445
0.0974395
0.108326
0.126774
0.134637
0.183604
0.124189
0.130509
0.173491
0.194743
0.28694
0.760982
0.89915
0.893974
0.994699
0.386514
-0.000717203
-0.18382
-0.414689
-0.113532
-0.0591049
0.142915
0.22647
0.0480149
0.0352104
0.00620555
0.0587001
0.0879767
0.0941355
0.0743029
0.0631149
0.0505927
0.0477906
0.0414658
0.0354545
0.0313052
0.0429929
0.0783132
0.0940394
0.0979159
0.10141
0.105088
0.111686
0.12986
0.15598
0.135572
0.153649
0.180613
0.215922
0.227908
0.218214
0.297696
0.441124
-0.246469
-0.205824
-1.0436
-0.538092
-0.338868
-0.25619
0.057591
-0.0938074
0.65149
0.477259
0.276338
0.158131
0.131211
0.158177
0.122899
0.096963
0.0840303
0.0768983
0.0592738
0.0477946
0.0370656
0.0313682
0.0337424
0.0358475
0.0698268
0.0743286
0.0786875
0.0825796
0.0888723
0.0982624
0.112866
0.131031
0.143496
0.151185
0.170666
0.179508
0.0842272
0.117164
-0.0343259
-0.255044
-0.660055
-0.835692
-1.27693
-1.24842
-0.268309
-0.0101487
-0.00143677
0.0800495
0.11275
0.259596
0.159145
0.0920533
0.133328
0.162991
0.137093
0.108871
0.112965
0.090847
0.0767923
0.0672982
0.0603148
0.0517999
0.0499696
0.0453183
0.0749087
0.0670848
0.0632436
0.0649884
0.0713318
0.0810671
0.087619
0.113106
0.122867
0.14283
0.155451
0.177748
0.183001
0.222421
0.205221
0.121169
-0.0897428
-0.331819
-0.413149
-0.374243
-0.612576
-0.670743
-0.566657
-0.427652
-0.246993
-0.115197
0.00963658
0.11577
0.137279
0.127628
0.127158
0.113864
0.103753
0.0943032
0.0841106
0.0781934
0.07447
0.0696182
0.0647567
0.0566443
0.0822509
0.0823205
0.0822623
0.0834914
0.0853231
0.0900805
0.0891553
0.0935651
0.102815
0.0941862
0.0832776
0.0981298
0.171576
0.309635
0.415746
0.520792
0.57595
0.566779
0.541851
0.241354
-0.675773
-0.753446
-0.634927
-0.510653
-0.401535
-0.166845
0.0297584
0.107452
0.084564
0.11441
0.11049
0.103702
0.0858328
0.0778045
0.0668575
0.0606242
0.0567475
0.0483905
0.0427964
0.0356936
0.0897758
0.100367
0.102041
0.0996149
0.0937798
0.0877141
0.0756781
0.0780919
0.0620613
0.0758393
0.0951924
0.0559812
-0.023133
-0.0275352
-0.157623
-0.0561221
0.00445708
0.112141
0.129486
0.0384619
0.289177
0.328186
0.193199
0.257109
0.32432
0.316957
0.29815
0.166438
0.135163
0.160125
0.115703
0.0745107
0.052171
0.0421121
0.0295246
0.0195501
0.0159306
0.0137982
0.0154658
0.0206186
0.0784726
0.0870134
0.0890228
0.0852459
0.0762201
0.0652369
0.0502729
0.0437072
0.0274526
0.0201846
-0.00562255
-0.0486718
-0.129989
-0.329135
-0.551462
-0.707866
-0.854722
-0.77184
-0.616133
-0.345487
0.599717
0.829932
0.879216
0.827463
0.6907
0.501252
0.360373
0.240966
0.181575
0.112663
0.0741304
0.0498591
0.0273314
0.0136617
0.0078872
0.00938578
0.0097085
0.0104289
0.0136042
0.0163452
0.0710364
0.0597641
0.0558477
0.0447897
0.0417044
0.0345587
0.0231448
0.00118815
-0.0311809
-0.0216364
-0.0324239
-0.118022
-0.190018
-0.318078
-0.390426
-0.624315
-0.461658
-0.568303
-0.221903
0.262522
-0.375174
-0.114729
0.0703957
0.217823
0.136599
0.103749
0.0627069
0.0918615
0.0709728
0.0652503
0.0446838
0.0311297
-0.0192194
-0.0108443
0.00380229
0.0118928
0.0210736
0.024132
0.0241625
0.0249381
0.0826694
0.0648431
0.0573955
0.0528409
0.0488767
0.0436007
0.0298598
0.0198419
-0.0156069
-0.0346275
-0.106658
-0.135531
-0.180196
-0.253285
-0.00775638
-0.0239727
0.068349
0.0700402
0.126463
0.0057721
-0.70431
-0.95163
-0.944683
-0.812105
-0.603232
-0.378215
-0.296205
0.0028493
0.0617336
-0.00872083
-0.0433101
-0.0397036
-0.0306175
-0.0174322
-0.00399875
0.00630589
0.0164486
0.0161784
0.0133606
0.0142118
0.0983335
0.100152
0.101883
0.100578
0.0948029
0.083589
0.0642273
0.0565437
0.0344253
-0.00692236
-0.0975767
-0.215537
-0.360418
-0.441213
-0.453842
-0.436646
-0.346687
-0.244641
-0.397697
-0.598612
-0.567577
-0.615983
-0.420036
-0.278664
-0.24106
-0.0523276
-0.0255713
-0.0171203
0.00238879
-0.0129119
-0.0167806
-0.0323929
-0.0369353
-0.040326
-0.0316984
-0.0259447
-0.021146
-0.0208082
-0.0179584
-0.010961
0.107237
0.125231
0.129156
0.127151
0.118894
0.106204
0.0842842
0.0703959
0.0445799
0.00911502
-0.0647696
-0.19209
-0.379825
-0.58904
-0.805421
-1.10405
-1.11451
-1.14668
-1.06554
-0.550648
0.331186
0.774877
0.926062
0.881219
0.687917
0.540924
0.360709
0.182245
0.0835935
0.0348949
-0.00523008
-0.021212
-0.0463674
-0.0431948
-0.0393233
-0.0364296
-0.0344229
-0.031758
-0.0264263
-0.0172686
0.0939881
0.0953963
0.0983434
0.0987746
0.0976898
0.0929559
0.0846482
0.0672608
0.0480825
0.0194497
-0.0602307
-0.0855417
-0.143713
-0.208806
-0.31642
-0.47951
-0.530619
-0.570709
-0.419078
0.154709
0.431752
0.804544
1.02072
0.893631
0.701714
0.497874
0.250183
0.111041
0.0203846
-0.018131
-0.0203693
-0.0242196
-0.0238519
-0.0225152
-0.0154008
-0.0100037
-0.00902904
-0.0106884
-0.013408
-0.0132557
0.0886122
0.0770017
0.0702986
0.0682355
0.0712205
0.0758755
0.0854976
0.0877407
0.0848849
0.0933553
0.0936505
0.100712
0.178789
0.328922
0.46378
0.555417
0.663371
0.550924
0.564468
0.622554
0.0997817
-0.115095
-0.240566
-0.425355
-0.3658
-0.349964
-0.287961
-0.198713
-0.113881
-0.082036
-0.0599348
-0.0409713
-0.0245788
-0.0204316
-0.0103034
-0.00396967
0.0014729
0.00198087
-0.000638861
-0.0151616
0.109682
0.100264
0.0987038
0.100149
0.100427
0.105415
0.124994
0.139712
0.140337
0.117599
0.125568
0.141145
0.1992
0.310831
0.455748
0.527823
0.63484
0.527732
0.215465
-0.151656
-0.421294
-0.679627
-0.797759
-0.694272
-0.58092
-0.460927
-0.361098
-0.261326
-0.201603
-0.154722
-0.0777148
-0.0561009
-0.0446241
-0.0412553
-0.0378649
-0.0328058
-0.0316274
-0.0305154
-0.0310754
-0.0334284
0.134022
0.144945
0.147746
0.148379
0.14408
0.142635
0.145281
0.16883
0.199608
0.168799
0.18367
0.0590867
-0.0290163
-0.157344
-0.304126
-0.560726
-0.652238
-1.00734
-0.812039
-1.32545
-0.72746
-0.304735
-0.0424696
0.0520957
0.0581653
0.0180784
0.00468057
-0.0675842
-0.103544
-0.0815283
-0.0608851
-0.0540521
-0.0646882
-0.054849
-0.0736826
-0.07003
-0.0687069
-0.0648467
-0.0564655
-0.04701
0.139426
0.14622
0.151257
0.153501
0.149157
0.151374
0.151827
0.15799
0.168794
0.152953
0.128231
0.0910662
-0.00550512
-0.216813
-0.451834
-0.736191
-0.869868
-1.23593
-1.25929
-1.14507
-1.04193
-0.0333141
0.165284
0.235401
0.122215
0.0302172
-0.0409951
-0.0765876
-0.0952216
-0.0704297
-0.0286742
-0.0313504
-0.0452436
-0.0425822
-0.0420089
-0.0441013
-0.044472
-0.0446963
-0.0413164
-0.0288675
0.125931
0.117744
0.115486
0.115641
0.12013
0.129237
0.137839
0.145407
0.187235
0.20961
0.23792
0.280593
0.359354
0.438134
0.503128
0.50262
0.409357
0.261554
0.0238503
-0.247466
-0.746651
-0.866594
-0.89338
-0.743471
-0.704895
-0.589887
-0.473014
-0.312939
-0.176653
-0.0925254
-0.0436044
-0.0202691
-0.00942282
-0.00526367
-0.00096143
0.00207997
0.00466547
0.00182432
-0.00218426
-0.0119854
0.125031
0.117174
0.116313
0.121823
0.130899
0.144546
0.161195
0.185405
0.220759
0.262551
0.324307
0.455055
0.628784
0.820215
1.04739
1.26733
1.30806
1.1192
0.74433
0.0845693
-0.405496
-0.82311
-1.06979
-1.03307
-0.948708
-0.743452
-0.555389
-0.363698
-0.216547
-0.108595
-0.0726058
-0.0450052
-0.0161017
-0.00904899
-0.00192974
0.00260294
0.00633301
0.00242153
-0.00356573
-0.0211368
0.14655
0.151777
0.158539
0.165962
0.171421
0.179491
0.194364
0.215689
0.236445
0.263243
0.278035
0.301792
0.316729
0.308725
0.304499
0.27027
0.253113
0.104119
0.0658086
-0.0906302
0.0397717
0.0528847
-0.0297068
-0.0253679
0.0103521
0.0554499
0.0617459
0.0232076
-0.0301172
-0.0531845
-0.0468574
-0.0507491
-0.0495439
-0.0474618
-0.0429625
-0.0459179
-0.0479122
-0.0477263
-0.0466365
-0.038358
0.150859
0.169095
0.174319
0.176654
0.177741
0.179933
0.183627
0.18492
0.193972
0.188796
0.189692
0.0929829
-0.0540768
-0.244021
-0.461964
-0.659125
-0.82163
-0.872244
-0.688603
-0.375173
-0.0466693
0.379376
0.673965
0.69069
0.60543
0.477319
0.330735
0.194614
0.0847154
0.0173727
-0.0148047
-0.0387376
-0.0477882
-0.0512559
-0.0623322
-0.0654496
-0.0683333
-0.0668831
-0.0591279
-0.045294
0.127927
0.121685
0.121073
0.123345
0.129223
0.134201
0.138274
0.14241
0.151388
0.160244
0.179466
0.167018
0.178093
0.140197
0.0304425
-0.0664746
-0.208994
-0.283894
-0.201529
-0.504636
-0.407165
-0.499018
-0.384754
-0.278595
-0.193632
-0.193326
-0.135484
-0.0949055
-0.0667624
-0.0297702
-0.0109103
-0.0203332
-0.0186212
-0.0265143
-0.028736
-0.0293379
-0.0305583
-0.0329892
-0.0332358
-0.0271159
0.10635
0.0913859
0.0837908
0.0868769
0.097223
0.110021
0.129599
0.130889
0.163091
0.20807
0.259872
0.362226
0.4888
0.606533
0.720174
0.801517
0.799453
0.71519
0.30468
-0.167365
-0.587528
-0.991723
-1.23407
-1.28822
-1.08626
-0.904216
-0.674385
-0.441114
-0.231064
-0.110818
-0.0835405
-0.0477612
-0.019721
-0.0111607
-0.00670431
-0.0014331
0.00258164
0.000560795
-0.00432947
-0.0185734
0.123372
0.119851
0.123258
0.128136
0.136755
0.145552
0.158803
0.188727
0.208409
0.235998
0.243218
0.24645
0.290633
0.321567
0.350327
0.37466
0.358849
0.302124
0.034399
-0.169167
-0.314142
-0.496653
-0.521141
-0.521574
-0.33852
-0.337662
-0.305486
-0.259924
-0.197633
-0.149326
-0.104497
-0.0667089
-0.0453601
-0.0351976
-0.0280476
-0.0232839
-0.0194006
-0.0170923
-0.017094
-0.029045
0.135859
0.15815
0.16851
0.171962
0.170265
0.16777
0.176579
0.178854
0.179726
0.168211
0.139599
0.0335049
-0.112504
-0.257525
-0.419975
-0.525694
-0.608287
-0.541201
-0.297944
-0.0894936
0.202783
0.525718
0.775097
0.823884
0.737732
0.545984
0.355648
0.185991
0.0435996
-0.0330498
-0.0463937
-0.0483795
-0.0537219
-0.0512557
-0.0515169
-0.0544847
-0.0559867
-0.0545939
-0.0494351
-0.0428326
0.10827
0.12415
0.12934
0.129981
0.126606
0.120498
0.115457
0.106251
0.0998776
0.0862206
0.0990339
0.100875
0.0736557
0.0697528
0.0401732
-0.00771355
-0.0913369
-0.105114
0.0471773
0.239883
0.330886
0.446999
0.500127
0.486653
0.348713
0.289203
0.210565
0.10271
0.0189709
-0.00747174
-0.0226464
-0.0303177
-0.036571
-0.0247833
-0.0323838
-0.0376304
-0.0423986
-0.0469969
-0.0486703
-0.0430827
0.0691969
0.0523955
0.0449749
0.0433417
0.045398
0.047608
0.0552986
0.0652658
0.0855665
0.128467
0.194969
0.362772
0.552498
0.738827
0.896109
1.00912
1.07312
0.918169
0.690989
0.386808
0.0942944
-0.330534
-0.698254
-0.897834
-0.873395
-0.733058
-0.548405
-0.378381
-0.226517
-0.116442
-0.075813
-0.0551678
-0.0298363
-0.0226543
-0.019437
-0.0177624
-0.0138371
-0.00994762
-0.0132052
-0.0210035
0.0594285
0.0355608
0.0272797
0.0277981
0.0346016
0.0426379
0.0572632
0.0807918
0.0854493
0.142741
0.208328
0.324539
0.469821
0.59099
0.768962
0.816609
0.939546
0.762138
0.463599
0.128174
-0.193989
-0.690582
-0.941068
-1.06556
-0.925354
-0.772261
-0.617768
-0.455219
-0.279282
-0.182775
-0.125375
-0.0792097
-0.053667
-0.0458514
-0.0356368
-0.0270719
-0.0193842
-0.0141647
-0.0141723
-0.0200628
0.0765898
0.0809239
0.0823289
0.082708
0.0809108
0.0799455
0.0827906
0.0827169
0.0706307
0.0632131
0.064185
-0.00429228
-0.0874401
-0.207251
-0.288059
-0.331314
-0.556632
-0.473928
-0.304144
-0.21529
-0.198636
-0.0924208
0.00772206
0.0341802
0.060884
0.0340718
0.0290491
-0.00212763
-0.0383688
-0.0762225
-0.0690442
-0.0589809
-0.0653161
-0.0587802
-0.0585177
-0.0593657
-0.0591688
-0.0562031
-0.0503165
-0.0303128
0.075097
0.0986579
0.105149
0.103107
0.094584
0.0804653
0.0680188
0.0416579
0.00277138
-0.0574562
-0.101587
-0.213479
-0.364362
-0.486441
-0.563296
-0.566912
-0.80357
-0.656714
-0.467575
-0.247721
-0.0260113
0.319652
0.493463
0.504401
0.475042
0.361193
0.269164
0.179266
0.0860783
0.0313135
0.00248912
-0.0215763
-0.0318089
-0.0352363
-0.0410276
-0.0386013
-0.0442751
-0.0424382
-0.0367613
-0.0265794
0.03937
0.0478425
0.0463401
0.0420682
0.0330645
0.0216094
0.00656303
-0.00987035
-0.0291369
-0.0516977
-0.0574959
-0.0141887
0.0724928
0.188223
0.33292
0.449296
0.449042
0.365092