/*--------------------------------*- C++ -*----------------------------------*\
| =========                 |                                                 |
| \\      /  F ield         | OpenFOAM: The Open Source CFD Toolbox           |
|  \\    /   O peration     | Version:  v2106                                 |
|   \\  /    A nd           | Website:  www.openfoam.com                      |
|    \\/     M anipulation  |                                                 |
\*---------------------------------------------------------------------------*/
FoamFile
{
    version     2.0;
    format      ascii;
    arch        "LSB;label=32;scalar=64";
    class       volVectorField;
    location    "0";
    object      U;
}
// * * * * * * * * * * * * * * * * * * * * * * * * * * * * * * * * * * * * * //

dimensions      [0 1 -1 0 0 0 0];

internalField   nonuniform List<vector> 
11644
(
(0.00146986 7.35228e-05 1.13519e-20)
(0.00149555 7.96834e-05 3.13052e-20)
(0.00146561 8.15777e-05 1.6796e-20)
(0.00133563 3.58679e-05 0)
(0.00136109 9.01385e-05 0)
(0.001416 -8.3001e-06 0)
(0.00146287 -7.71762e-05 0)
(0.0014501 -0.000266862 0)
(0.00148196 -0.000590457 0)
(0.00148682 -0.00115518 0)
(0.00153034 -0.00189746 0)
(0.00155239 -0.00282414 0)
(0.00158227 -0.00387334 0)
(0.00183084 -0.00496853 0)
(0.00169226 -0.00630992 0)
(0.00335471 -0.00716778 0)
(0.00433225 -0.00904467 0)
(0.00136953 -0.00903848 0)
(-0.000945899 -0.00653509 0)
(0.000744042 -0.00410648 -3.4636e-30)
(0.00331571 -0.00405688 3.48036e-30)
(0.00390553 -0.0053666 0)
(0.00213846 -0.00550592 0)
(0.00125218 -0.00379079 0)
(0.00211307 -0.00237205 0)
(0.00243653 -0.00246531 0)
(0.00221275 -0.00283691 0)
(0.00173044 -0.00303633 0)
(0.00141923 -0.00302404 0)
(0.00132326 -0.00314084 0)
(0.00136083 -0.00310058 0)
(0.00131458 -0.00292387 0)
(0.0012242 -0.00263202 0)
(0.0011989 -0.00228493 0)
(0.0012135 -0.00190478 0)
(0.00115157 -0.00147263 0)
(0.00123389 -0.00116098 0)
(0.00115065 -0.000826209 0)
(0.00112976 -0.000560547 0)
(0.00122433 -0.000215058 2.20102e-21)
(0.00149905 -8.94089e-05 1.45814e-20)
(0.00141295 -0.00017015 1.35071e-20)
(0.00136881 -0.000415498 7.25422e-21)
(0.00146765 -0.000533515 0)
(0.00158813 -0.000900996 0)
(0.00161756 -0.00126777 0)
(0.00169682 -0.00172955 0)
(0.00202817 -0.00235094 0)
(0.00243028 -0.00313104 0)
(0.00290422 -0.00402817 0)
(0.00320551 -0.00523568 0)
(0.00376356 -0.00690045 0)
(0.00401183 -0.00870438 0)
(0.00447535 -0.0108004 0)
(0.00545856 -0.0128422 0)
(0.00426624 -0.0150119 -1.13742e-21)
(0.0010122 -0.0139847 5.053e-21)
(-0.00059514 -0.0127386 -1.8877e-21)
(0.00162317 -0.0137575 -4.80093e-22)
(0.00347769 -0.0154634 1.11217e-19)
(0.00448199 -0.0153593 -1.40559e-19)
(0.00217036 -0.0133068 5.84383e-20)
(-0.000171394 -0.0107358 -2.66996e-20)
(-0.000551403 -0.00909779 -5.91498e-21)
(-8.69492e-05 -0.00843256 1.3289e-21)
(0.00104901 -0.00681751 0)
(0.00153304 -0.00585085 0)
(0.00169559 -0.00553679 0)
(0.00174968 -0.00535877 0)
(0.00145228 -0.00487384 0)
(0.000996444 -0.00431306 0)
(0.000794376 -0.00374216 0)
(0.000677299 -0.00320377 0)
(0.000693859 -0.00273912 0)
(0.000638277 -0.00223009 0)
(0.000718499 -0.00188225 0)
(0.000711997 -0.00145584 0)
(0.000612781 -0.000993105 0)
(0.000630099 -0.000626929 0)
(0.000669129 -0.000165517 0)
(0.00234514 -0.000170979 0)
(0.00220696 -0.000663816 0)
(0.00212083 -0.000992277 0)
(0.00224766 -0.00154649 0)
(0.0024261 -0.00221058 1.33199e-20)
(0.00264892 -0.00284989 0)
(0.00290146 -0.00373976 0)
(0.0033086 -0.0047085 0)
(0.00383816 -0.00571859 0)
(0.0044408 -0.00691658 0)
(0.0055804 -0.00821551 0)
(0.00633554 -0.00974515 0)
(0.00760366 -0.0116601 -6.50114e-22)
(0.00695996 -0.0138672 -3.94917e-21)
(0.00582961 -0.016226 4.31836e-21)
(0.00372426 -0.0172742 -1.96496e-19)
(0.00126593 -0.0172224 4.0952e-19)
(0.00126221 -0.0192866 -5.66416e-19)
(0.00378355 -0.0231242 2.57836e-19)
(0.00197807 -0.0244115 6.65786e-19)
(-0.000497037 -0.0210188 -5.68154e-19)
(-0.00315249 -0.0175516 -2.14897e-19)
(-0.0024442 -0.0132372 4.59884e-19)
(-0.000888509 -0.0112074 -3.19704e-19)
(-8.7856e-05 -0.0105276 7.68508e-20)
(-6.01753e-05 -0.00960884 -1.01279e-20)
(0.000181052 -0.00830725 5.67328e-21)
(0.000616231 -0.00645987 4.56639e-22)
(3.95264e-05 -0.00489583 0)
(1.92471e-05 -0.00364305 0)
(-5.00242e-06 -0.00262094 0)
(-0.000178902 -0.00163339 0)
(-0.000135244 -0.000890969 0)
(-6.87855e-05 -0.000313642 0)
(-4.27048e-05 0.000122295 0)
(0.000256618 0.000339858 0)
(0.000256283 0.000569789 0)
(0.000574037 0.000469144 0)
(0.000684643 0.000420581 0)
(0.000843701 6.10964e-05 0)
(0.00277726 -0.000263059 0)
(0.00289877 -0.000933492 0)
(0.00300093 -0.00148707 0)
(0.00319892 -0.00232172 0)
(0.00332747 -0.00295266 0)
(0.00369379 -0.00361284 0)
(0.00424551 -0.00434053 0)
(0.00491445 -0.00517043 0)
(0.00561696 -0.00609295 0)
(0.00668746 -0.00697159 0)
(0.00745652 -0.00795327 -2.64657e-23)
(0.0084147 -0.0090382 1.41839e-20)
(0.00834029 -0.0102333 3.93879e-20)
(0.00986421 -0.011756 -1.78553e-20)
(0.00905146 -0.0145245 -2.23079e-19)
(0.00423104 -0.0169169 -1.567e-19)
(0.00501574 -0.0216782 8.51051e-20)
(0.00564056 -0.0260399 3.19861e-19)
(0.00390669 -0.0280374 3.63651e-19)
(-0.000780904 -0.0260464 -3.02706e-19)
(-0.00419165 -0.0215097 -9.39687e-20)
(-0.00765145 -0.0172786 -4.65279e-19)
(-0.00536663 -0.0133216 1.84229e-19)
(-0.00391066 -0.0121496 3.61276e-19)
(-0.00344069 -0.0104018 -2.43697e-19)
(-0.00283198 -0.00830087 1.84166e-19)
(-0.00221988 -0.00681905 3.09603e-20)
(-0.00330317 -0.00462348 -8.94137e-20)
(-0.00287192 -0.00269523 1.07786e-20)
(-0.00276805 -0.000683501 -1.30326e-22)
(-0.00229325 0.00101245 0)
(-0.00161317 0.00213267 0)
(-0.00119945 0.00296441 0)
(-0.000727632 0.00329728 0)
(-0.000178508 0.00321975 0)
(0.000200184 0.00301066 0)
(0.000577304 0.00249375 0)
(0.000963602 0.00178393 0)
(0.00124421 0.00112045 0)
(0.0012322 0.00028773 0)
(0.00323754 -0.000665001 0)
(0.00342479 -0.000240954 0)
(0.0037787 -0.00135037 0)
(0.00406144 -0.00151959 0)
(0.00417224 -0.00218421 0)
(0.00448932 -0.00259561 0)
(0.00506034 -0.0031636 0)
(0.00574091 -0.00343695 0)
(0.00667935 -0.00374805 0)
(0.00760644 -0.00401208 3.94722e-21)
(0.00845514 -0.00461304 3.73094e-20)
(0.00895416 -0.00556802 -1.1929e-19)
(0.00954553 -0.00743699 2.70206e-19)
(0.00976939 -0.00954382 1.12072e-19)
(0.0109583 -0.0131683 -1.00034e-19)
(0.0129711 -0.0169284 3.07449e-19)
(0.012332 -0.02429 -5.26036e-19)
(0.00911823 -0.0265881 -1.53914e-19)
(0.00480877 -0.0240149 7.01586e-19)
(-0.000729897 -0.0205785 -1.48168e-18)
(-0.00550812 -0.0198168 1.36118e-18)
(-0.00593684 -0.0170828 -1.85932e-19)
(-0.0044839 -0.0122745 -1.40014e-19)
(-0.00491945 -0.0120197 -2.42167e-19)
(-0.00733698 -0.0106622 2.77033e-19)
(-0.00777518 -0.00856217 1.40577e-19)
(-0.00825383 -0.00606838 -9.53522e-20)
(-0.00684563 -0.00308109 9.1853e-20)
(-0.00563758 -0.00034243 -2.2085e-19)
(-0.00502355 0.00193655 -3.41683e-20)
(-0.00414624 0.00351092 -3.25723e-21)
(-0.00259201 0.00433542 0)
(-0.00105933 0.00428149 0)
(-0.000119945 0.00408723 0)
(0.000888004 0.00333261 0)
(0.00139018 0.00268273 0)
(0.00193852 0.00171889 0)
(0.0021863 0.00141558 0)
(0.0024043 0.000255688 0)
(0.00217105 0.000710279 0)
(0.00364113 0.00115211 0)
(0.0036142 -0.000306289 0)
(0.00405443 0.000706351 0)
(0.00425762 0.000157719 0)
(0.0046464 0.000119073 0)
(0.00499284 -0.000369655 0)
(0.00552629 -0.000641301 0)
(0.00589894 -0.000946315 0)
(0.00667615 -0.000897051 -8.003e-23)
(0.00703986 -0.0011969 7.79154e-20)
(0.00818397 -0.00112077 -9.28222e-20)
(0.0103182 -0.00181414 2.42736e-20)
(0.0142416 -0.00103548 1.60467e-19)
(0.0130721 -0.0046323 8.48487e-20)
(0.0156997 -0.0113468 2.44327e-19)
(0.0201333 -0.0180344 -7.53269e-19)
(0.0201177 -0.0227762 -1.12947e-19)
(0.0116464 -0.0242008 6.14289e-19)
(0.0054275 -0.0226127 6.5505e-19)
(-0.000142618 -0.0192061 -3.69979e-19)
(-0.00639121 -0.0186877 -7.34453e-19)
(-0.00510588 -0.0164055 8.9194e-19)
(-0.00612039 -0.0133417 -1.01145e-18)
(-0.00809635 -0.0130066 3.57871e-19)
(-0.00848061 -0.0104819 3.97305e-19)
(-0.0138175 -0.00896258 -2.41978e-19)
(-0.0129825 -0.00849507 -1.27142e-19)
(-0.0127009 -0.0045858 5.78992e-20)
(-0.0109029 0.000308169 -1.44278e-19)
(-0.00704794 0.00254252 -4.60524e-21)
(-0.00428902 0.00377981 1.96552e-20)
(-0.00260327 0.00400878 6.98381e-21)
(-0.000800937 0.00372885 0)
(0.000581726 0.00333039 0)
(0.00148217 0.00312328 0)
(0.00210872 0.00261261 0)
(0.00243239 0.00238098 0)
(0.00296861 0.00126294 0)
(0.00294256 0.00167148 0)
(0.00307521 -0.000646536 0)
(0.00362964 -0.00115275 0)
(0.00390978 -0.0015401 0)
(0.0037567 -0.00184289 0)
(0.0039096 -0.0018753 0)
(0.0042291 -0.000908509 0)
(0.00463707 -0.00053893 0)
(0.00519167 0.000122233 0)
(0.00583686 0.000661203 4.52617e-21)
(0.00638139 0.000877759 -6.54531e-21)
(0.00760622 0.000629523 3.34465e-20)
(0.00943006 -0.00181464 1.17448e-19)
(0.0106844 -0.0023528 -2.4424e-19)
(0.00999723 -0.00661439 -3.56537e-20)
(0.0216087 -0.00623145 -1.4171e-19)
(0.0139567 -0.00895714 1.10842e-19)
(0.0112543 -0.0162815 2.17074e-19)
(0.0100624 -0.0257129 -6.94333e-19)
(0.0115644 -0.0246 -1.69789e-19)
(0.00458655 -0.0231125 -6.14813e-19)
(6.40329e-06 -0.0222477 -1.59853e-18)
(-0.00769787 -0.0256256 -1.77603e-18)
(-0.00855401 -0.0196468 2.70797e-19)
(-0.0122045 -0.016979 -4.82713e-19)
(-0.0150066 -0.00761284 -5.49581e-19)
(-0.0246046 -0.0113661 -4.03544e-19)
(-0.025117 -0.0118833 -1.57062e-19)
(-0.0210592 -0.00746839 2.48447e-19)
(-0.0230174 -0.00438894 1.10627e-19)
(-0.0153672 -0.0013293 -1.69338e-19)
(-0.0100576 0.00215662 2.62135e-19)
(-0.00479305 0.0034341 -1.7447e-19)
(-0.00193964 0.00361448 5.51079e-20)
(-0.00057373 0.00356638 -2.02676e-21)
(0.000781806 0.00279399 0)
(0.00164502 0.00283807 0)
(0.00250699 0.00271761 0)
(0.00318813 0.00279419 0)
(0.00345419 0.00217944 0)
(0.00384395 0.00165743 0)
(0.00393091 0.00101815 0)
(0.0040224 -0.0016318 0)
(0.00389456 0.00192312 0)
(0.00393301 -0.000738026 0)
(0.00392073 0.0011003 0)
(0.00408729 9.67765e-05 0)
(0.00468534 0.000480828 0)
(0.00502019 0.000208145 0)
(0.00585635 0.00126818 -1.32609e-20)
(0.00752085 0.000987816 -3.13567e-20)
(0.0106566 -0.001141 -8.78938e-20)
(0.015089 -0.00268945 2.49171e-19)
(0.0186553 -0.0081461 -6.48837e-20)
(0.0139747 -0.00669328 -2.97819e-19)
(0.0184382 -0.00481078 -1.69289e-19)
(0.0147566 -0.0196091 -3.9469e-19)
(0.0156483 -0.0182842 3.64373e-19)
(0.0172201 -0.0169943 5.95226e-19)
(0.0135727 -0.0293746 -2.03058e-19)
(0.0101323 -0.0335044 3.76759e-19)
(0.00863644 -0.0353545 2.13343e-18)
(0.0029485 -0.0332111 8.36902e-19)
(-0.00567799 -0.023196 4.87927e-19)
(-0.0155715 -0.018489 2.10189e-19)
(-0.0178653 -0.0172257 1.83509e-20)
(-0.0336675 -0.0149501 1.25479e-18)
(-0.0305525 -0.00563932 -2.59243e-19)
(-0.0321404 -0.00226971 -4.08041e-19)
(-0.0250283 -0.00725527 2.2729e-19)
(-0.0190382 0.00108689 -1.76073e-19)
(-0.0135598 0.00123648 -1.25828e-19)
(-0.00662849 0.00450735 7.82589e-20)
(-0.00184454 0.00523978 1.73707e-20)
(0.000590448 0.00472308 -1.00841e-20)
(0.00170609 0.00379957 0)
(0.00255016 0.0021699 0)
(0.00308595 0.00149656 0)
(0.0038992 -0.000180647 0)
(0.00423904 0.00132005 0)
(0.00455831 -0.00188173 0)
(0.00492529 0.00236841 0)
(0.00387584 0.00500561 0)
(0.00330496 -0.000914397 0)
(0.00247689 0.00349568 0)
(0.00230845 0.0013446 0)
(0.00283894 0.000632467 0)
(0.00373545 4.7071e-05 0)
(0.00438089 0.00069673 -3.51684e-21)
(0.00608635 0.000750062 -1.51902e-20)
(0.0106458 -0.000910662 9.42728e-21)
(0.0166787 -0.00392719 3.95217e-20)
(0.0218813 -0.00930538 -5.44841e-20)
(0.026523 -0.0121146 -5.06944e-20)
(0.0280463 0.00528204 9.0094e-20)
(0.0259248 -0.0114506 -2.77849e-19)
(0.0238464 -0.0186037 2.53255e-21)
(0.0322702 -0.0166336 1.79837e-19)
(0.0164003 -0.0263005 -2.66191e-19)
(0.0203931 -0.0236552 -3.76843e-19)
(0.0170144 -0.0424171 -7.53677e-19)
(0.0105488 -0.0447201 7.59411e-19)
(-0.000571802 -0.0496125 3.64616e-19)
(-0.0163272 -0.042405 4.05381e-19)
(-0.0263153 -0.027919 -4.48403e-19)
(-0.039067 -0.0231355 -2.55746e-19)
(-0.0326504 -0.00830323 -7.21198e-20)
(-0.0312268 -0.00387196 -1.84099e-19)
(-0.024537 -0.0025758 4.30243e-19)
(-0.0231598 -0.0100439 -1.47988e-19)
(-0.0192846 0.00207119 1.57585e-19)
(-0.0143746 0.00452029 1.1964e-21)
(-0.00858307 0.00749932 -3.23944e-22)
(-0.00267666 0.00873935 4.95056e-21)
(0.00173014 0.0088251 -3.28315e-20)
(0.00331042 0.00793195 -6.04443e-21)
(0.00367521 0.00650045 0)
(0.00383845 0.00508351 0)
(0.00372846 0.00383604 0)
(0.00408652 0.000349911 0)
(0.00452685 0.00370121 0)
(0.00522108 -0.00568781 0)
(0.00177863 -0.00407488 0)
(0.00306749 -0.00375932 0)
(0.00426168 -0.0043698 0)
(0.00566304 -0.00572178 0)
(0.00543698 -0.00280985 0)
(0.00486637 -0.00195672 0)
(0.00439052 9.4814e-05 7.45535e-22)
(0.00769287 -0.000436553 1.68801e-21)
(0.016261 -0.00597377 6.98189e-21)
(0.0235733 -0.00943916 -1.70988e-20)
(0.0284695 -0.0122386 -1.05725e-19)
(0.0362716 -0.0238339 9.32035e-20)
(0.0387802 -0.0188446 3.94191e-20)
(0.0255326 -0.0165532 -8.69589e-20)
(0.0281989 -0.0289744 -2.03966e-20)
(0.0315269 -0.00409606 -1.44979e-20)
(0.0322849 -0.0222501 -2.35017e-19)
(0.0403372 -0.0279411 2.56181e-19)
(0.0327663 -0.0418918 9.93544e-20)
(0.0238163 -0.0663921 5.05666e-19)
(-0.00577275 -0.0739464 -2.13835e-19)
(-0.0345001 -0.0595611 -1.45896e-19)
(-0.0516568 -0.0380936 -5.26984e-19)
(-0.0467246 -0.0165588 3.1019e-19)
(-0.0418068 -0.00304781 -8.83385e-20)
(-0.0381524 -0.00825212 -7.91354e-19)
(-0.0328905 0.0208841 6.97411e-20)
(-0.0208502 0.00586078 3.29232e-20)
(-0.0161451 0.00885977 2.70351e-20)
(-0.0150385 0.00744626 -2.80116e-20)
(-0.0107741 0.00794813 -3.19057e-20)
(-0.00372447 0.0105567 -5.5653e-22)
(0.00272029 0.0115175 1.7731e-20)
(0.00547521 0.00978749 -1.44883e-21)
(0.00654516 0.00862087 0)
(0.0073519 0.00738398 0)
(0.00773865 0.00833978 0)
(0.00697354 0.00600276 0)
(0.00640689 0.00441556 0)
(0.0051314 0.00604061 0)
(0.00358259 -0.00727501 0)
(0.00111703 0.00429509 0)
(0.00148398 -0.00194327 0)
(-0.000582059 0.00302696 0)
(-0.000297711 0.002289 0)
(-0.000106382 0.00221431 0)
(0.00349365 0.000487382 -6.35727e-21)
(0.0121187 -0.00272802 8.31569e-21)
(0.0234055 -0.00662373 -9.15592e-21)
(0.0325781 -0.0125075 9.55312e-21)
(0.0343493 -0.00757627 -7.64877e-21)
(0.0411489 -0.0104597 -4.55607e-20)
(0.0510634 -0.0258947 4.88224e-20)
(0.0229184 -0.0110289 4.72294e-20)
(0.0442372 -0.00792252 -1.46352e-21)
(0.0232186 -0.00488983 4.38317e-21)
(0.0274816 0.00400979 8.87201e-21)
(0.0569102 -0.00311263 5.42604e-20)
(0.0829233 -0.0293788 -4.84234e-20)
(0.0757692 -0.0973129 6.54576e-19)
(-0.00583821 -0.149429 8.194e-19)
(-0.0908726 -0.0950844 -1.17594e-19)
(-0.0922249 -0.0262363 7.8175e-20)
(-0.0738468 0.00395852 1.861e-20)
(-0.0547775 0.00961544 8.89467e-21)
(-0.0354057 0.0143271 -4.23157e-20)
(-0.0236294 0.0131751 3.05998e-20)
(-0.00860414 0.0330911 8.67068e-21)
(-0.0132469 0.0159387 -3.69201e-20)
(-0.0154613 0.00884546 4.89401e-20)
(-0.0124934 0.0083443 -1.39997e-20)
(-0.00670973 0.00907241 1.7307e-21)
(0.00151533 0.0105641 -6.23955e-21)
(0.00715123 0.0102119 2.35681e-22)
(0.00649356 0.00743156 0)
(0.00547204 0.00505345 0)
(0.00506436 0.00231449 0)
(0.00665257 0.00590303 0)
(0.0062033 -0.00308378 0)
(0.00886568 0.00748295 0)
(0.00239515 0.018008 0)
(0.00238389 0.000333847 0)
(-0.000991772 0.00664239 0)
(-0.000704373 0.00464581 0)
(0.000755003 0.00186433 0)
(0.00280034 0.00131045 0)
(0.00628302 0.000627225 -1.61657e-22)
(0.0164523 -0.0017435 -1.82635e-21)
(0.0216184 0.00182311 -1.10791e-21)
(0.0274164 0.000746506 6.66957e-21)
(0.0280398 0.00392669 -9.85038e-21)
(0.0241501 0.0118862 5.02369e-21)
(0.0216785 0.00276442 3.08361e-21)
(0.0473147 0.00545686 5.70193e-20)
(0.034464 0.0144485 5.88239e-20)
(0.0364239 0.0237075 -4.99581e-20)
(0.039014 0.0361887 7.73615e-21)
(0.0584205 0.0561122 1.61631e-20)
(0.126764 0.0744794 -1.33964e-18)
(-0.156963 0.0539245 9.03002e-19)
(-0.0770923 0.0599833 2.92349e-20)
(-0.0397452 0.0606099 -1.0485e-19)
(-0.0183968 0.0603613 7.84654e-20)
(-0.0141042 0.0201614 2.39762e-21)
(-0.0222561 0.0421645 5.43029e-21)
(-0.0193934 0.0213457 -6.34878e-21)
(-0.0124571 0.0169392 6.64423e-21)
(-0.0110146 0.0134734 -1.97846e-21)
(-0.00919414 0.00935584 -3.01394e-21)
(-0.00143643 0.00817479 -4.62233e-22)
(0.00885187 0.00987859 -4.04006e-22)
(0.0118342 0.00896834 0)
(0.00981647 0.0065248 0)
(0.00797543 0.00241199 0)
(0.0069706 -0.00230769 0)
(0.00980284 0.00358926 0)
(0.008913 -0.0202558 0)
(-0.00852949 -0.0117296 0)
(-0.00220483 -0.00806842 0)
(0.00211215 -0.00415797 0)
(0.00556756 -0.0057465 0)
(0.00456763 -0.00288541 0)
(0.00304779 -0.000642988 0)
(0.00567312 0.00179349 -1.2465e-21)
(0.011999 0.0028322 -7.77911e-22)
(0.0155618 0.00616429 -6.16871e-22)
(0.0168689 0.0101452 6.93694e-21)
(0.0227667 0.0121563 1.74616e-20)
(0.0198508 0.0131796 3.93444e-21)
(0.00851612 0.00973643 -7.68042e-21)
(0.02092 0.015773 1.89348e-20)
(-0.00429165 0.021337 -2.37479e-20)
(-0.0011311 0.0359771 -6.99699e-20)
(-0.00850885 0.0590918 -6.98378e-21)
(-0.0014883 0.0989356 1.32071e-20)
(-0.0225289 0.147061 5.38042e-18)
(0.0272778 0.149418 -1.41317e-19)
(-0.0343393 0.105775 -6.50602e-21)
(-0.0203018 0.0699071 -2.96181e-20)
(-0.0335272 0.0594994 1.81762e-20)
(-0.0230036 0.0468207 -2.37318e-20)
(-0.0263365 0.0407107 -4.95402e-20)
(-0.019579 0.0326018 8.88752e-20)
(-0.0130075 0.0274615 -8.72735e-21)
(-0.0059442 0.0203433 -1.03214e-20)
(-0.00426713 0.0119358 -2.5229e-21)
(-0.00195114 0.00712141 2.69764e-21)
(0.00632082 0.00611639 2.98744e-23)
(0.0115328 0.00695283 0)
(0.013611 0.00755817 0)
(0.0142438 0.00950684 0)
(0.0117654 0.00669112 0)
(0.00857965 0.00944501 0)
(0.000782322 0.0168913 0)
(-0.00191819 -0.0161093 2.65386e-22)
(-0.0046374 -8.28972e-05 0)
(-0.00492807 -0.00654471 0)
(-0.004508 -0.00301652 0)
(-0.0034254 0.000473772 0)
(-0.00231523 0.000949512 0)
(0.00331945 0.00111994 9.89413e-22)
(0.00915148 0.00386572 7.70591e-21)
(0.0176725 0.00871303 -5.22223e-20)
(0.0186264 0.0110646 2.75839e-20)
(0.0212279 0.00923944 -1.42806e-19)
(0.026347 0.0026297 2.0385e-19)
(0.0253853 0.000432497 -1.08357e-19)
(0.00349738 0.00965346 9.17996e-20)
(0.00201355 0.0132174 -3.65864e-19)
(-0.0139753 0.0262928 -2.20979e-20)
(-0.0405041 0.0445662 3.99265e-20)
(0.0558958 0.0178974 6.76474e-20)
(-0.0566751 -0.0785334 1.07394e-18)
(0.0948046 0.0292024 2.27937e-19)
(-0.03636 0.0767692 -9.79073e-20)
(0.00554067 0.0751194 2.60794e-19)
(0.00250775 0.0667431 -3.65038e-19)
(-0.0113586 0.0607271 -7.80721e-20)
(-0.0122774 0.0464251 2.94604e-20)
(-0.012138 0.0441543 -1.33379e-19)
(-0.00294893 0.0294944 -9.95234e-20)
(0.00129728 0.0198167 -4.32824e-21)
(0.00261845 0.01497 -4.23876e-21)
(0.00504409 0.00832387 7.36892e-21)
(0.00695129 0.00471274 -4.59678e-21)
(0.00919787 0.00313914 0)
(0.00863554 0.00295227 0)
(0.00692592 0.0052398 0)
(0.00647455 0.00835222 0)
(0.00659817 5.60327e-06 0)
(0.0123278 0.0149612 0)
(-0.000163828 0.0219838 -1.57557e-23)
(-0.00256962 0.0143005 0)
(-0.00532263 0.009766 0)
(-0.00692887 0.0083491 0)
(-0.00520536 0.00584549 0)
(0.000441129 0.00428482 0)
(0.00410629 0.00534272 1.67253e-21)
(0.00593402 0.00661336 -2.37875e-20)
(0.0101278 0.00921741 7.06565e-20)
(0.0143451 0.0122835 -6.43464e-20)
(0.0175417 0.0105819 -1.76148e-20)
(0.0189753 0.00339361 1.99013e-19)
(0.0269243 0.00407064 -1.18518e-19)
(0.0144831 0.000326121 2.11966e-19)
(-0.00499947 -0.0100464 3.87276e-19)
(-0.0286525 0.0056865 8.92817e-19)
(-0.0594417 0.0200591 6.2186e-19)
(0.144377 0.0200397 9.07615e-20)
(-0.780324 0.446815 1.35828e-19)
(0.261659 0.601983 -6.61956e-19)
(1.31866 -0.387681 1.12169e-20)
(-0.449668 -1.00568 5.61223e-19)
(-0.401685 -0.282145 2.21617e-19)
(-0.153315 0.036263 -2.92377e-19)
(0.00227699 0.0862154 1.49211e-19)
(0.0139239 0.0752245 4.93961e-19)
(0.0172725 0.0524325 5.54908e-19)
(0.0235959 0.0456085 1.82771e-19)
(0.0286789 0.0355134 -8.38416e-20)
(0.015633 0.031871 -7.05611e-20)
(0.00821776 0.0227751 -6.95082e-21)
(0.0104152 0.0139666 2.21722e-20)
(0.0122484 0.00812778 -1.49988e-20)
(0.014259 0.00112788 2.25826e-21)
(0.0151327 -8.30193e-05 0)
(0.0086346 -0.00225712 0)
(0.00657057 -0.00673649 0)
(0.00697632 -0.00887832 0)
(0.00686685 -0.0145564 0)
(0.0100102 -0.0239386 0)
(-0.00482694 -0.00395096 9.29372e-21)
(0.00093209 -0.00535261 0)
(0.0066904 0.00119034 0)
(0.00697088 -0.000312094 0)
(0.00476137 -0.00145956 0)
(-0.000512147 0.000859557 0)
(-0.00266031 -0.00202228 -7.23818e-23)
(-0.00100152 0.00760437 9.52097e-21)
(0.0062604 0.00811747 1.21582e-21)
(0.0182392 0.0112708 8.31504e-21)
(0.0283978 0.0162211 1.24006e-19)
(0.0366339 0.0152716 -7.07842e-20)
(0.0513083 -0.00616378 -9.24644e-20)
(0.0249961 -0.00793194 -1.84567e-19)
(0.0131601 -0.0246706 2.40674e-19)
(-0.0211028 -0.0762096 -1.87293e-19)
(-0.0751425 -0.0417556 3.65419e-19)
(-0.141216 -0.0152811 5.38403e-18)
(-1.17499 0.401956 2.14809e-18)
(0.94021 0.0418119 -1.83925e-18)
(2.31618 -0.00552513 8.6678e-19)
(-0.262991 -0.00519564 1.51238e-18)
(-1.31096 -0.407041 6.56419e-19)
(-0.382921 0.150342 8.29111e-19)
(0.0215907 0.148727 -4.48674e-19)
(0.0393063 0.112218 3.90863e-19)
(0.0317209 0.0773566 -5.35816e-19)
(0.048633 0.0237892 1.4005e-19)
(0.0318943 0.0232197 -4.8649e-19)
(0.025127 0.0155808 -1.66732e-19)
(0.0225531 0.0107324 -3.98923e-20)
(0.0195032 0.00760153 -4.62354e-21)
(0.0179334 0.00705715 -8.98071e-21)
(0.0189552 0.0014351 -2.54991e-22)
(0.0162642 -0.000903137 0)
(0.0178459 -0.00100383 0)
(0.0193412 -0.00242297 0)
(0.0180073 -0.00295581 0)
(0.0123356 0.00637557 0)
(0.00674882 0.00254329 7.01614e-21)
(0.0129999 0.00114431 4.59621e-21)
(0.0062643 -0.000967637 0)
(0.00645867 0.00151377 0)
(0.00306812 0.0013906 0)
(0.000441535 -0.000637484 0)
(-0.00226766 -0.00223507 0)
(-0.0030274 -0.00508845 0)
(0.00899005 -0.00375236 8.18378e-21)
(0.00711016 0.00719832 2.05016e-20)
(0.0159673 0.00543651 -5.68242e-20)
(0.0213907 0.00342821 1.48929e-19)
(0.0223071 0.0112705 -1.37386e-19)
(0.0407412 0.00763591 -4.73713e-20)
(0.0608406 -0.034965 5.37557e-20)
(0.0399744 -0.0631387 -2.00265e-19)
(0.0492852 -0.120002 -1.01922e-18)
(-0.0895828 -0.192623 1.1394e-19)
(-0.600971 -0.0548836 -6.86171e-18)
(-0.903322 -0.236627 2.92724e-19)
(1.1277 -0.992396 -2.13606e-18)
(1.47546 0.615363 -6.08113e-18)
(-0.258869 0.00849884 -9.94271e-18)
(-1.32801 0.668784 1.33962e-18)
(-0.309397 0.337557 -6.10159e-18)
(0.138922 0.181252 4.22894e-20)
(0.151438 0.0692645 -1.08637e-18)
(0.0957361 -0.00223911 -3.0322e-20)
(0.0525993 0.0239922 4.65638e-19)
(0.0367691 0.00300358 -5.05989e-20)
(0.0290524 -0.00352799 -2.06313e-19)
(0.0221598 -0.00135857 6.14692e-20)
(0.0216613 0.000291596 -1.53734e-20)
(0.0232995 0.000219115 -1.06978e-20)
(0.0220561 -0.00143148 0)
(0.0163351 -0.00171746 0)
(0.0152602 -0.0011551 0)
(0.0146602 -5.76139e-05 0)
(0.0165862 0.000469091 0)
(0.0182088 0.000975827 0)
(0.0224567 -0.000471967 -1.36203e-20)
(6.00572e-05 0.00189789 7.29318e-22)
(-0.00685995 -0.000243092 0)
(-0.00879017 -0.00129039 0)
(-0.0061982 -0.00158042 0)
(-0.00278067 -0.000763394 0)
(-0.00217353 -0.00212535 0)
(-0.00453316 -0.00189529 0)
(-0.00221151 -0.00371401 0)
(0.00436003 -0.000872784 1.12671e-21)
(0.012024 0.00101175 -9.38344e-21)
(0.0176903 0.00714826 -7.25581e-22)
(0.0368929 0.00692788 7.96387e-20)
(0.0287445 0.00711489 4.81872e-20)
(0.0750509 0.0417542 -1.88472e-19)
(0.135697 -0.0199047 -1.90073e-19)
(0.151878 -0.103464 -2.3683e-19)
(-0.224558 -0.0995347 1.90149e-19)
(-0.173362 -0.105236 -2.14236e-18)
(0.357306 -0.356963 -2.56413e-18)
(0.340935 -0.474648 8.00253e-19)
(-0.0218634 -0.308467 -1.15317e-18)
(-0.432934 0.979446 -3.03935e-18)
(-1.16872 0.675112 -1.29858e-18)
(0.180704 0.403543 -4.496e-18)
(0.466648 -0.0802186 -2.55602e-20)
(0.21531 -0.0783731 9.42378e-20)
(0.063934 -0.0595064 -1.4693e-19)
(0.0578271 -0.0142586 8.61345e-20)
(0.0270914 -0.0193715 3.32993e-20)
(0.0237739 -0.01382 -1.63508e-20)
(0.0224127 -0.00568387 8.85511e-21)
(0.027034 -0.00811837 -6.66773e-21)
(0.0291272 -0.0106167 0)
(0.0232927 -0.00646464 0)
(0.0137085 -0.00421956 0)
(0.0098407 -0.00325968 0)
(0.00578797 -0.00212475 2.10261e-20)
(0.00237413 -0.0018519 2.90777e-20)
(0.00332152 -0.00256033 1.73393e-20)
(0.00815756 -0.000710558 0)
(0.00343064 -0.00258415 0)
(0.00270425 0.00075297 0)
(0.00234286 -0.0021868 0)
(0.0034397 -0.0015968 0)
(0.00366825 0.00126909 0)
(0.00478144 0.00243404 0)
(0.00609005 0.00373532 0)
(0.00380999 -0.00165529 0)
(0.0023852 -0.00266049 1.40363e-23)
(0.00395338 0.00508406 4.18035e-22)
(-0.00237868 0.0253909 6.04438e-21)
(0.0263999 0.0390512 -1.30912e-21)
(0.0297706 0.058006 5.70439e-20)
(0.107707 0.12015 -6.14215e-20)
(0.188222 0.06896 2.78676e-18)
(0.174905 0.0515492 2.65004e-19)
(-0.639729 0.0917404 1.32424e-19)
(0.516088 -0.246284 -2.75602e-19)
(0.270725 -0.549179 -1.30112e-18)
(-0.662215 0.336311 -3.32987e-18)
(-0.337641 1.45102 -1.23722e-18)
(-0.0311996 0.0711073 2.22217e-18)
(-1.00346 -0.437462 2.27308e-19)
(0.338494 -0.326265 4.35931e-19)
(0.649361 -0.379884 -3.52767e-19)
(0.0542606 -0.21765 3.084e-19)
(-0.0282079 -0.0333393 -5.45218e-20)
(-0.0092406 -0.0212896 -4.38544e-20)
(0.00398208 -0.0233457 -1.90246e-20)
(0.0112483 -0.0157177 1.09315e-20)
(0.0211766 -0.0199521 -1.66509e-21)
(0.0243714 -0.0224348 -9.02957e-24)
(0.0240375 -0.0195224 0)
(0.0175646 -0.0112547 0)
(0.01385 -0.00684667 0)
(0.0125357 -0.00509906 0)
(0.0111361 -0.00265164 0)
(0.00895355 -0.00108108 0)
(0.00893439 -0.00209547 0)
(0.009187 0.00139289 -3.12283e-21)
(0.00525521 7.34491e-05 0)
(0.00532809 0.00278839 0)
(0.00318061 0.00188075 0)
(0.00195464 0.00224441 0)
(0.000226898 0.00237117 0)
(0.0003571 0.0033979 0)
(0.00208166 0.00551756 0)
(-0.00432591 0.00586374 0)
(-0.0106628 0.0080958 0)
(-0.0203174 0.0169179 0)
(-0.0285226 0.0423455 2.03236e-21)
(-0.033598 0.0663031 4.49251e-22)
(-0.0343325 0.115052 -2.14224e-20)
(0.0138957 0.216577 1.86512e-20)
(0.108721 0.2378 7.13686e-18)
(0.392748 0.266882 -1.35148e-19)
(-0.0301481 -0.283689 3.19332e-18)
(-0.543301 0.353434 -7.32703e-21)
(-0.0959691 0.86685 -1.42683e-18)
(0.0534477 1.22853 4.63835e-18)
(-0.149483 1.16206 1.48601e-19)
(-0.514235 0.789684 -4.4004e-20)
(-0.249321 -0.00860394 1.47563e-18)
(0.931326 -0.742553 1.76202e-19)
(0.0612063 -0.7047 8.02162e-19)
(-0.281706 -0.147186 4.87201e-20)
(-0.0846283 0.0651537 1.4722e-20)
(-0.036878 -0.00113876 -2.00106e-21)
(-1.95503e-05 0.00198203 -1.58997e-20)
(0.0098581 -0.0106414 -1.05096e-21)
(0.0147409 -0.0246901 0)
(0.013087 -0.0220455 0)
(0.00946467 -0.0187033 0)
(0.00730119 -0.0138322 0)
(0.0101608 -0.0111413 0)
(0.0109129 -0.00884768 0)
(0.0121 -0.00708911 0)
(0.012643 -0.00547187 0)
(0.0123567 -0.0049166 0)
(0.0103421 -0.000190705 0)
(-0.000687454 0.000446637 0)
(0.00214322 -0.000255067 0)
(0.00152919 -0.0011167 0)
(0.000394581 -0.00280437 0)
(-0.00108903 -0.0048972 0)
(-0.00105288 -0.0056239 0)
(-0.00182309 -0.00470503 0)
(-0.00988125 -0.000486136 0)
(-0.0220605 0.00570173 0)
(-0.0456131 0.0146769 0)
(-0.0619176 0.0335829 0)
(-0.111317 0.0552987 -3.67894e-22)
(-0.130619 0.118368 9.29216e-22)
(-0.209203 0.178575 -3.26993e-21)
(-0.0588226 0.426845 2.4792e-18)
(0.882661 0.284212 8.51122e-20)
(-0.0785356 0.40976 2.10712e-18)
(-0.946776 0.257003 3.08525e-19)
(-0.645078 0.422769 -1.08019e-18)
(-0.213477 0.249971 4.1384e-19)
(0.00106662 0.0600498 -2.90995e-20)
(0.305908 0.0857418 -1.71093e-19)
(0.941329 -0.0728471 -1.0919e-19)
(1.3295 -0.388667 -2.10722e-19)
(-0.440637 0.187987 1.80438e-19)
(-0.584757 0.128784 -7.61601e-20)
(-0.0513492 0.156328 -2.92246e-19)
(0.0143016 0.0324651 -1.85297e-21)
(0.0418494 0.00876178 5.62451e-22)
(0.0359561 -0.0095091 0)
(0.0247874 -0.0188288 0)
(0.0140969 -0.0141796 0)
(0.00417167 -0.0149406 0)
(0.00328088 -0.0125697 0)
(0.00678553 -0.0114638 0)
(0.00655055 -0.00930888 0)
(0.00640241 -0.00764328 0)
(0.00694011 -0.00463534 0)
(0.00722114 -0.00211339 0)
(0.00625284 0.000658598 0)
(0.00210067 -0.00222672 0)
(0.00550924 -0.0053578 0)
(0.00655961 -0.00703593 0)
(0.00599095 -0.00901923 0)
(0.00449603 -0.0115396 0)
(0.00235833 -0.0131654 0)
(-0.00333645 -0.0139242 0)
(-0.0140864 -0.0100118 0)
(-0.0276651 -0.00828253 0)
(-0.0570647 -0.00018701 0)
(-0.0811463 -0.0113451 2.95206e-21)
(-0.161552 0.0124746 0)
(-0.229042 -0.00165107 0)
(-0.392698 0.0151394 4.30302e-19)
(-0.225234 0.184583 7.72077e-19)
(0.743672 0.57784 4.06748e-18)
(-0.523582 0.645508 8.72856e-20)
(-0.337019 0.528606 -5.76987e-19)
(0.120115 0.259248 1.3386e-19)
(0.313961 0.0527566 -5.78319e-18)
(-0.137433 -0.232087 1.75053e-19)
(-0.142897 -0.137445 -1.43899e-18)
(0.224994 0.533382 -2.49547e-19)
(0.740496 0.837102 -3.26524e-19)
(0.203676 0.632461 -1.25862e-20)
(-0.120468 0.303808 -4.95548e-19)
(0.102148 0.135636 -1.77194e-19)
(0.114207 0.0254789 0)
(0.0783736 0.00516249 0)
(0.051364 -0.0168701 -6.80327e-21)
(0.0293086 -0.0161974 0)
(0.0153157 -0.0141984 0)
(0.00624657 -0.0141517 0)
(0.00523011 -0.0125193 0)
(0.00591544 -0.0101671 0)
(0.00528442 -0.0072053 0)
(0.00438173 -0.00523877 0)
(0.00555633 -0.00331926 -3.46052e-21)
(0.00612749 -0.00140472 -2.48261e-21)
(0.00571436 -0.00170273 0)
(0.00867085 -0.00178041 0)
(0.0107026 -0.00563276 0)
(0.00988843 -0.00774974 0)
(0.00834903 -0.0101306 0)
(0.00680949 -0.0128322 0)
(0.00275905 -0.0152316 0)
(-0.00484787 -0.0188938 0)
(-0.0181068 -0.0220095 0)
(-0.0316654 -0.0311599 0)
(-0.0576866 -0.0337011 0)
(-0.0767827 -0.0709343 2.42169e-20)
(-0.134482 -0.10998 0)
(-0.231448 -0.175477 0)
(-0.442599 -0.289312 -5.23666e-20)
(-0.745743 -0.226462 -1.19074e-18)
(-0.10473 0.119312 -1.07056e-19)
(0.422332 0.384345 0)
(0.63334 -0.027566 -2.15867e-19)
(0.441046 -0.347206 -7.14824e-19)
(0.517604 -0.789353 -4.28719e-19)
(0.309798 -0.657888 -1.132e-18)
(0.0833648 -1.10709 -2.67613e-18)
(-0.37902 -0.588249 1.21703e-19)
(-0.411129 -0.0835413 0)
(-0.138521 0.100303 -2.04882e-19)
(0.242461 0.0193878 -6.2969e-19)
(0.277835 -0.134167 -1.71473e-19)
(0.174762 -0.0572576 0)
(0.085021 -0.0560764 0)
(0.040438 -0.0384339 7.75441e-22)
(0.0214387 -0.0235769 0)
(0.00668826 -0.0208497 0)
(-0.000335459 -0.0158579 0)
(-0.00200387 -0.013419 0)
(-0.00077597 -0.00942809 0)
(0.000628001 -0.0066233 6.26055e-21)
(0.00181404 -0.00464536 -8.13549e-21)
(0.00249884 -0.00367086 0)
(0.00238342 -0.00157035 0)
(0.000890727 -0.00350721 -1.91181e-20)
(0.0118515 -0.000180758 0)
(0.0115905 -0.0031996 0)
(0.0101889 -0.00469725 0)
(0.009355 -0.00713501 0)
(0.00904174 -0.0105911 0)