/*--------------------------------*- C++ -*----------------------------------*\
| =========                 |                                                 |
| \\      /  F ield         | OpenFOAM: The Open Source CFD Toolbox           |
|  \\    /   O peration     | Version:  v2106                                 |
|   \\  /    A nd           | Website:  www.openfoam.com                      |
|    \\/     M anipulation  |                                                 |
\*---------------------------------------------------------------------------*/
FoamFile
{
    version     2.0;
    format      ascii;
    arch        "LSB;label=32;scalar=64";
    class       volScalarField;
    location    "0";
    object      p;
}
// * * * * * * * * * * * * * * * * * * * * * * * * * * * * * * * * * * * * * //

dimensions      [0 2 -2 0 0 0 0];

internalField   nonuniform List<scalar> 
11644
(
0.0400725
0.040494
0.0413854
0.0427655
0.0446364
0.0470099
0.0499022
0.0533255
0.0572825
0.061761
0.0667318
0.07213
0.0778585
0.0837884
0.0897331
0.0955137
0.100889
0.105606
0.109458
0.11224
0.113817
0.114182
0.11344
0.111725
0.109064
0.105648
0.101782
0.0976651
0.0934697
0.0893701
0.0854794
0.081881
0.0786363
0.0757793
0.0733293
0.0712935
0.0696727
0.0684683
0.0676847
0.0673115
0.0393444
0.0397599
0.0406186
0.0419452
0.043759
0.0460786
0.0489239
0.0523145
0.0562634
0.0607718
0.0658217
0.0713679
0.0773308
0.0835668
0.0899173
0.0961321
0.101946
0.107066
0.111243
0.114242
0.115886
0.116131
0.115106
0.113047
0.110067
0.106342
0.102125
0.0976852
0.0932335
0.0889305
0.0848972
0.081211
0.0779164
0.0750396
0.0725907
0.0705707
0.0689763
0.0678011
0.0670362
0.0666658
0.0377213
0.0381431
0.0389796
0.0402461
0.041975
0.0441998
0.0469534
0.0502706
0.0541872
0.0587329
0.063924
0.0697599
0.0761887
0.0831001
0.0902857
0.0974669
0.104305
0.110436
0.115412
0.118854
0.120608
0.120634
0.119016
0.116082
0.112175
0.1076
0.102634
0.0975525
0.0925928
0.0879192
0.0836305
0.0797885
0.0764155
0.0735127
0.0710728
0.069081
0.0675205
0.0663711
0.0656108
0.0652289
0.0352688
0.0356693
0.0364613
0.0376497
0.039266
0.0413543
0.0439647
0.0471555
0.0509933
0.0555532
0.0609149
0.0671385
0.0742345
0.0821215
0.0906626
0.0994435
0.107984
0.115899
0.122278
0.12658
0.128522
0.128018
0.125314
0.120889
0.115427
0.109363
0.10313
0.0970546
0.0913485
0.0861565
0.0815436
0.0775157
0.0740623
0.0711517
0.0687439
0.0668007
0.0652864
0.0641688
0.0634239
0.0630454
0.0320743
0.0324291
0.0331318
0.0341928
0.0356438
0.0375319
0.0399213
0.0428955
0.0465592
0.0510423
0.0564943
0.0630842
0.0709663
0.0802226
0.0907158
0.101941
0.113034
0.123859
0.13257
0.138309
0.140505
0.138928
0.134291
0.127361
0.119446
0.111139
0.103107
0.0956992
0.0890977
0.0833303
0.0783889
0.0742228
0.0707496
0.067888
0.0655633
0.0637112
0.0622796
0.0612278
0.0605306
0.0601806
0.0282453
0.0285238
0.029089
0.0299567
0.0311594
0.032747
0.0347928
0.0373979
0.0407003
0.0448953
0.0502478
0.057086
0.065745
0.0764069
0.0894095
0.10431
0.119434
0.134716
0.147473
0.155917
0.158468
0.154829
0.146528
0.135215
0.123416
0.111886
0.101385
0.0924864
0.0850669
0.0789181
0.073834
0.0696825
0.0663282
0.0636339
0.0614899
0.0598097
0.0585275
0.0575985
0.0569874
0.0566828
0.0238925
0.024082
0.0244649
0.0250616
0.0259082
0.027057
0.0285824
0.0305916
0.0332512
0.0368468
0.0417566
0.0483891
0.0571591
0.0691008
0.0848765
0.104233
0.12041
0.140392
0.159294
0.173361
0.178843
0.174684
0.162929
0.147077
0.125928
0.109813
0.096392
0.0860801
0.0782839
0.0722201
0.0674509
0.0636603
0.0606675
0.0583327
0.0565217
0.0551318
0.0540881
0.0533388
0.0528557
0.0526134
0.0191692
0.0192479
0.0194055
0.0196619
0.0200428
0.0205949
0.0213844
0.0225175
0.0241844
0.0267132
0.0304647
0.0359441
0.0439383
0.0557077
0.0717164
0.0921553
0.120604
0.153338
0.185791
0.210528
0.219013
0.208932
0.185656
0.157862
0.131288
0.108266
0.0924442
0.0751963
0.0678423
0.0626253
0.0588288
0.0559406
0.0536966
0.0519861
0.0507013
0.0497428
0.0490432
0.0485527
0.0482383
0.0480887
0.0142818
0.0142201
0.0141146
0.0139608
0.0137777
0.0135873
0.0134357
0.0133961
0.0136439
0.0144521
0.0160906
0.0189321
0.023623
0.0373427
0.0513074
0.0746845
0.106622
0.153125
0.208595
0.257727
0.278156
0.259115
0.214828
0.167244
0.12665
0.0943288
0.0768152
0.0581613
0.0531363
0.0499589
0.0478998
0.046497
0.04546
0.0446992
0.0441645
0.0437939
0.0435388
0.0433716
0.0432639
0.0432054
0.00941519
0.00923829
0.0088482
0.00824945
0.00743433
0.00638976
0.00512078
0.00363683
0.00201534
0.000342405
-0.0012582
-0.00261744
-0.00380744
0.0059154
0.012896
0.0339207
0.0673481
0.125501
0.219608
0.33328
0.390003
0.338866
0.236477
0.152671
0.0945907
0.0585406
0.0471277
0.0345538
0.0343074
0.0345326
0.0350651
0.0356835
0.0362533
0.0367314
0.0371405
0.0374887
0.0377658
0.0379665
0.0381005
0.0381665
0.00490892
0.00456976
0.00388287
0.00283246
0.00137021
-0.000554154
-0.0030307
-0.00613458
-0.00993609
-0.0146504
-0.0204937
-0.0276216
-0.0363693
-0.0371547
-0.0442426
-0.0441251
-0.0350687
-0.00848585
0.0985447
0.358832
0.579885
0.3838
0.149236
0.0450771
0.00899934
-0.00121361
0.00483563
0.00581755
0.0122428
0.0172743
0.0211817
0.024252
0.0266613
0.0285175
0.0299748
0.0311143
0.0319795
0.0325936
0.0329834
0.0331592
0.00100585
0.000523003
-0.000423706
-0.00190826
-0.00397747
-0.00672879
-0.0103506
-0.0150328
-0.021015
-0.0287788
-0.0389719
-0.0524995
-0.0704793
-0.0791411
-0.110572
-0.13902
-0.1936
-0.308805
-0.606943
-0.413563
-0.201749
-0.1164
-0.0725536
-0.0418277
-0.0242836
-0.0100103
0.000196487
0.00768064
0.0132612
0.0174682
0.0206628
0.0231389
0.0250402
0.0264503
0.027452
0.0280933
0.0284256
-0.00214585
-0.00269258
-0.00384902
-0.00565055
-0.00819689
-0.011608
-0.0161
-0.0220003
-0.0296995
-0.0398304
-0.0532889
-0.0715002
-0.0959254
-0.116075
-0.161846
-0.21396
-0.306406
-0.486245
-0.696484
-0.513903
-0.359629
-0.208688
-0.12592
-0.0789541
-0.0461217
-0.0270978
-0.0134821
-0.00346081
0.00396643
0.00956272
0.0138267
0.0171165
0.0196321
0.0214843
0.0228058
0.0236748
0.024105
-0.00423495
-0.00489217
-0.00618851
-0.00816953
-0.0109655
-0.0147284
-0.0196406
-0.0261119
-0.0346364
-0.0458578
-0.0607375
-0.0806967
-0.10695
-0.133349
-0.182427
-0.239993
-0.326046
-0.443119
-0.488199
-0.437958
-0.356099
-0.22121
-0.135783
-0.0909978
-0.0544279
-0.035465
-0.0213591
-0.0106743
-0.00256232
0.00371334
0.00858433
0.0123505
0.0152203
0.0173413
0.0188621
0.0198618
0.0203358
-0.00528073
-0.00593628
-0.00723177
-0.00923084
-0.0120175
-0.0157519
-0.0205832
-0.0268627
-0.0351413
-0.046031
-0.0601869
-0.0788014
-0.103018
-0.130601
-0.176162
-0.233662
-0.316683
-0.431152
-0.487756
-0.544491
-0.543716
-0.440329
-0.380433
-0.263073
-0.16259
-0.105804
-0.0780767
-0.0494674
-0.0349606
-0.0230736
-0.0135268
-0.00587237
0.000296484
0.00524
0.00912151
0.0120609
0.0142325
0.0157672
0.0167615
0.0173448
-0.00545329
-0.00590644
-0.00704757
-0.00883563
-0.0113192
-0.0146117
-0.0188092
-0.0242189
-0.0312059
-0.0401767
-0.0516642
-0.066514
-0.0856346
-0.111176
-0.148934
-0.204372
-0.28606
-0.433642
-0.653395
-0.783829
-0.756855
-0.458711
-0.153062
-0.044552
-0.0617857
-0.0579368
-0.0518574
-0.0361135
-0.0279194
-0.0197567
-0.0124101
-0.00607523
-0.000700156
0.00382986
0.00746952
0.0102375
0.0123321
0.0138342
0.0147814
0.0150729
-0.00433748
-0.00477825
-0.00566833
-0.00704531
-0.00895448
-0.0114433
-0.0145672
-0.0184376
-0.0232832
-0.0292984
-0.036827
-0.0465003
-0.0589798
-0.0741568
-0.105247
-0.141767
-0.206584
-0.308478
-0.490805
-0.667016
-0.643794
-0.362604
-0.0412888
0.050715
-0.00614389
-0.0251529
-0.0268446
-0.0235782
-0.0192663
-0.0139167
-0.00869905
-0.0038737
0.00045435
0.0042366
0.00729814
0.00970741
0.0115676
0.0128807
0.0136689
0.0139476
-0.00204174
-0.00242422
-0.00301635
-0.00391101
-0.00510716
-0.00663215
-0.00849051
-0.0105221
-0.0128442
-0.0155758
-0.0188011
-0.022751
-0.0279981
-0.0334184
-0.0543016
-0.0689925
-0.10676
-0.151198
-0.227394
-0.314937
-0.331278
-0.225904
-0.0767054
-0.0273806
-0.0358577
-0.0292978
-0.021899
-0.0172047
-0.0126699
-0.00820871
-0.00409992
-0.000308203
0.00307561
0.00596949
0.00833265
0.0102391
0.0117008
0.0127291
0.013403
0.0137767
0.000944877
0.000772662
0.00049249
7.96504e-05
-0.000424533
-0.000999914
-0.001614
-0.00204719
-0.00222688
-0.00205888
-0.00140065
-0.00026628
0.00147667
0.00311067
-0.00428967
-0.00671534
-0.0268722
-0.0563437
-0.113404
-0.20047
-0.274458
-0.277564
-0.227043
-0.16583
-0.0902273
-0.0494347
-0.0248828
-0.0153782
-0.00847039
-0.00337011
0.00048017
0.00364854
0.00627062
0.00841413
0.0101682
0.0115904
0.0126916
0.0135078
0.0140849
0.0144235
0.00429087
0.0042856
0.00424775
0.00423591
0.00430334
0.00453595
0.00498437
0.00576252
0.00713705
0.00941332
0.0129003
0.0175586
0.0253712
0.0311372
0.0313747
0.03626
0.0247944
-0.0121456
-0.104016
-0.246174
-0.362348
-0.391171
-0.334492
-0.223303
-0.104425
-0.0544683
-0.023931
-0.0114454
-0.00360091
0.00159733
0.00510735
0.0077305
0.00975208
0.0113537
0.0126213
0.0136322
0.0144229
0.0150148
0.0154243
0.015642
0.00754925
0.00764246
0.00780885
0.00810486
0.00859727
0.00939441
0.0105978
0.0123115
0.0147505
0.0182618
0.0231918
0.0299722
0.0397618
0.0488421
0.0515092
0.0591348
0.0474241
-0.000866417
-0.103668
-0.240659
-0.332909
-0.333267
-0.258544
-0.158141
-0.0724059
-0.0393906
-0.0122596
-0.00199101
0.00417223
0.00799107
0.0105772
0.0124104
0.013767
0.0147831
0.015536
0.0161206
0.016572
0.0169009
0.0171202
0.0172353
0.0104651
0.0106326
0.0109563
0.0114654
0.0122223
0.0133108
0.0148446
0.01697
0.0198336
0.0236505
0.0286188
0.0347458
0.0432678
0.052498
0.0518792
0.0488714
0.0287292
-0.0179878
-0.0836305
-0.143123
-0.167402
-0.149177
-0.107921
-0.0678613
-0.0378274
-0.00689965
0.00335974
0.0099055
0.0137238
0.0157886
0.0169568
0.0176508
0.0180895
0.018384
0.0185892
0.0187435
0.0188549
0.0189254
0.0189602
0.0189863
0.0130829
0.0132797
0.013666
0.0142551
0.0150844
0.0162082
0.0176869
0.0196159
0.0220985
0.0252257
0.0290557
0.0330814
0.0378294
0.0439908
0.0351826
0.00995165
-0.0301634
-0.0769787
-0.105585
-0.110997
-0.101263
-0.0765159
-0.0471261
-0.0230117
-0.0041874
0.00816927
0.0165073
0.0208398
0.0227798
0.0233045
0.0231067
0.0226474
0.0221351
0.0217078
0.0213905
0.0211654
0.0210059
0.0208901
0.0207934
0.0207172
0.0154503
0.015643
0.0160014
0.0165498
0.0172956
0.018266
0.0194658
0.0208879
0.0225624
0.0243183
0.0260025
0.0268812
0.025181
0.0203309
0.00125289
-0.037093
-0.0806406
-0.126836
-0.156573
-0.155273
-0.12936
-0.0882928
-0.0466999
-0.0152682
0.00718494
0.0202028
0.0267692
0.0297046
0.0301144
0.0293398
0.0281092
0.0267691
0.0255311
0.0245164
0.023751
0.0231908
0.022796
0.0225361
0.0223753
0.0222621
0.0175204
0.0176682
0.0179739
0.0184405
0.0190548
0.0198094
0.0206783
0.0215789
0.0224346
0.0228123
0.022276
0.0199449
0.0127937
-0.00119805
-0.0293279
-0.0719109
-0.125736
-0.186397
-0.230842
-0.232804
-0.189196
-0.131073
-0.0714695
-0.0237237
0.00837535
0.0266416
0.0343548
0.0362374
0.0354855
0.0337074
0.0316744
0.029718
0.028061
0.026694
0.0256317
0.0248155
0.0242175
0.0238058
0.0235657
0.0235136
0.0193127
0.0194139
0.0196682
0.0200531
0.0205512
0.0211262
0.0217263
0.022258
0.022498
0.0220534
0.0201182
0.0161609
0.00729624
-0.00861647
-0.0391504
-0.0824545
-0.13772
-0.193891
-0.240191
-0.244466
-0.198654
-0.140702
-0.0800073
-0.0313544
0.00290851
0.0251393
0.036839
0.0400524
0.0386462
0.0362709
0.0337469
0.031497
0.0296458
0.028157
0.0269765
0.0260644
0.0253815
0.0249183
0.0246431
0.0245971
0.0208441
0.020952
0.0211911
0.0215364
0.0219716
0.0224528
0.0229074
0.0232302
0.0232811
0.0226904
0.0209772
0.0172233
0.00997678
-0.00342557
-0.0274822
-0.0617694
-0.101107
-0.140911
-0.174356
-0.181373
-0.155381
-0.117113
-0.0715523
-0.0314444
-0.00141122
0.0200435
0.0333087
0.0391522
0.0389925
0.0368026
0.0343182
0.0321945
0.0304181
0.0289708
0.0278135
0.0269283
0.026285
0.0258561
0.025598
0.0254637
0.0220818
0.022241
0.0225057
0.0228602
0.0232856
0.02375
0.0241982
0.0245534
0.0247199
0.0245234
0.0236838
0.0214633
0.0172609
0.00962429
-0.00536974
-0.0293112
-0.0568622
-0.0854343
-0.106462
-0.117052
-0.114657
-0.0974497
-0.0696324
-0.0371069
-0.00900424
0.0128288
0.0268348
0.0336744
0.035531
0.0346761
0.0331488
0.0316457
0.0302403
0.0290239
0.028038
0.0272716
0.0266934
0.0262787
0.0260047
0.025854
0.0230882
0.0232787
0.023527
0.0238677
0.0242927
0.0247949
0.0253498
0.025909
0.0264118
0.026726
0.0266067
0.0256486
0.0232077
0.0185754
0.0103899
-0.00485988
-0.0271676
-0.0523434
-0.0749259
-0.091104
-0.0975755
-0.0920644
-0.0730112
-0.0475709
-0.02244
-0.00123787
0.0142589
0.023985
0.0287621
0.0300646
0.0302074
0.0297436
0.0290072
0.0282559
0.0275878
0.0270197
0.0265584
0.0262109
0.0259836
0.0258754
0.0238484
0.0239574
0.0241907
0.0245348
0.0249921
0.0255645
0.0262523
0.0270465
0.0278948
0.0286474
0.0290359
0.0285653
0.0266011
0.0220629
0.0144653
0.00238055
-0.0178006
-0.0432658
-0.0711928
-0.0940502
-0.104125
-0.102807
-0.0896034
-0.0686697
-0.0445161
-0.0216761
-0.00207558
0.0124834
0.0207902
0.0247197
0.0265242
0.0271426
0.0272377
0.0270734
0.0268143
0.0265164
0.0262382
0.0260105
0.0258508
0.0257656
0.0243481
0.0243611
0.0245809
0.0249464
0.0254548
0.0260925
0.0268724
0.0278125
0.0288686
0.0299375
0.030753
0.0309621
0.0294161
0.0246107
0.0147009
-0.00112037
-0.0242293
-0.0530964
-0.087956
-0.118156
-0.135852
-0.13624
-0.122179
-0.0994901
-0.0690399
-0.0388686
-0.013916
0.00350132
0.0144053
0.0203325
0.0232968
0.0248191
0.0256167
0.0259544
0.0260383
0.0259868
0.0258759
0.0257533
0.0256442
0.0255517
0.0246893
0.0247277
0.0249061
0.0252284
0.0257059
0.0263298
0.0271002
0.0280537
0.0291299
0.0303305
0.0313972
0.0319503
0.0301655
0.0243586
0.0131426
-0.00503933
-0.0298573
-0.0602799
-0.0994124
-0.132837
-0.160249
-0.157762
-0.137588
-0.111565
-0.0765429
-0.0444701
-0.0187173
-0.000500833
0.0108778
0.0175234
0.0212727
0.0233434
0.0244987
0.0250489
0.0253135
0.0254093
0.0254163
0.0253792
0.0253292
0.0252557
0.0247717
0.0248895
0.0250656
0.0253381
0.0257383
0.0262774
0.0269557
0.0277809
0.0287327
0.0298332
0.0306342
0.030518
0.0276547
0.0209942
0.00978294
-0.00710611
-0.0302162
-0.0586281
-0.0911975
-0.119428
-0.139753
-0.135502
-0.11505
-0.0904058
-0.0607433
-0.0353365
-0.0145281
0.000854373
0.0110116
0.0170708
0.0206826
0.0227231
0.0238711
0.0244771
0.0247986
0.0249453
0.0249944
0.0249895
0.0249695
0.0249443
0.0244796
0.0245944
0.0247795
0.0250391
0.0253822
0.025819
0.0263558
0.0269835
0.0276475
0.0283032
0.0284462
0.0271588
0.0232424
0.0154279
0.00345177
-0.0125167
-0.0327115
-0.0558958
-0.0775645
-0.0921592
-0.0982035
-0.0925393
-0.0781163
-0.0584898
-0.0378145
-0.0197866
-0.00403758
0.0073906
0.0146487
0.0189398
0.0214961
0.0229785
0.0238379
0.0243366
0.024609
0.0247302
0.024761
0.0247466
0.0247222
0.0247172
0.0239616
0.0240217
0.0241396
0.0243268
0.0245743
0.0248685
0.0251882
0.0254905
0.0256357
0.025437
0.0245556
0.0218857
0.0166447
0.00763827
-0.00527897
-0.0207856
-0.0383195
-0.056217
-0.0699325
-0.0750138
-0.0717928
-0.0637101
-0.0512575
-0.0346967
-0.018447
-0.0039484
0.00781448
0.015201
0.0192577
0.0215661
0.0229024
0.0236993
0.0241775
0.0244478
0.0245816
0.024631
0.0246381
0.024621
0.0245997
0.0245567
0.0233735
0.0233766
0.0234301
0.0235206
0.0236273
0.0237126
0.0237184
0.0235621
0.0230551
0.0218413
0.0194655
0.0147615
0.00707623
-0.0034541
-0.0166132
-0.0316312
-0.0467633
-0.0610953
-0.0711
-0.0722644
-0.0671762
-0.0549836
-0.0384384
-0.020779
-0.00485746
0.00743085
0.0154106
0.020012
0.0225125
0.0238081
0.0243971
0.0245846
0.0246199
0.0245832
0.0245219
0.0244571
0.0244038
0.0243608
0.0243254
0.0242999
0.0227558
0.0227642
0.0227888
0.0228028
0.0227692
0.0226472
0.0223404
0.02174
0.0206501
0.0186153
0.0149646
0.00857785
-0.00156711
-0.0152947
-0.0319326
-0.0492414
-0.0650638
-0.0780067
-0.0862348
-0.0860619
-0.077513
-0.0596036
-0.0382256
-0.0182951
-0.00163985
0.0104029
0.0184014
0.0229135
0.0250213
0.0256861
0.0256015
0.0252986
0.024925
0.0246034
0.024354
0.0241557
0.0240102
0.0239185
0.0238742
0.02391
0.0221473
0.0221988
0.022195
0.0221379
0.021988
0.0217364
0.0212352
0.0203724
0.0189243
0.0164815
0.0121994
0.00497753
-0.00638776
-0.022169
-0.042176
-0.0629815
-0.0829067
-0.0969495
-0.107679
-0.107644
-0.0913992
-0.0685242
-0.0427842
-0.0213779
-0.00357946
0.0095322
0.0187233
0.0238533
0.0261168
0.0266117
0.0259794
0.025443
0.0248816
0.0244225
0.0240709
0.0238059
0.0236192
0.0235115
0.0234739
0.0235177
0.0215412
0.0215911
0.0215608
0.0214757
0.0212962
0.0209897
0.0204551
0.0195537
0.0180231
0.0155426
0.0113684
0.0045389
-0.00584363
-0.0200494
-0.0381583
-0.0587813
-0.079257
-0.0945452
-0.108789
-0.110851
-0.090707
-0.0689561
-0.0431734
-0.0224699
-0.00484955
0.00812766
0.0170081
0.02224
0.024953
0.0257529
0.0253697
0.0248891
0.0243627
0.0239489
0.0236246
0.0233856
0.0232242
0.0231329
0.0230872
0.0230646
0.0209813
0.0209765
0.0209553
0.0208982
0.0207594
0.0205046
0.0200649
0.019337
0.0181197
0.0161111
0.0127184
0.00728391
-0.000831514
-0.0115409
-0.0248507
-0.0407
-0.0577894
-0.0720027
-0.0830952
-0.0857308
-0.0759194
-0.0611178
-0.0422034
-0.024033
-0.00833356
0.0038859
0.0126775
0.0185006
0.0219527
0.0235151
0.0238435
0.0236834
0.0233749
0.0231092
0.0228882
0.0227203
0.022597
0.0225081
0.0224363
0.0223704
0.0205988
0.0205814
0.0205687
0.0205355
0.0204519
0.0202907
0.0200054
0.0195366
0.0187823
0.0175648
0.0155001
0.0120652
0.00641113
-0.00166685
-0.0115344
-0.0230884
-0.0354334
-0.0471558
-0.0557209
-0.0604752
-0.0601692
-0.0536948
-0.0418891
-0.0277928
-0.0147349
-0.00338745
0.00595765
0.0131053
0.017715
0.0202196
0.0213924
0.0217716
0.0218605
0.0218341
0.0217626
0.0216896
0.0216248
0.0215729
0.0215354
0.0215122
0.0203046
0.0203252
0.0203204
0.0203032
0.0202661
0.020205
0.0200988
0.0199102
0.0195927
0.0190722
0.0181289
0.0163903
0.0132629
0.0078559
-6.52745e-05
-0.0100698
-0.0213617
-0.0328829
-0.04328
-0.0501762
-0.0528082
-0.0514687
-0.0433784
-0.0327497
-0.0215912
-0.0109746
-0.00146672
0.00625848
0.0119591
0.0158084
0.0180979
0.0193163
0.0199745
0.020293
0.0204394
0.0205085
0.0205409
0.0205647
0.0205939
0.020626
0.0199103
0.0199008
0.019916
0.0199421
0.0199846
0.0200481
0.020133
0.0202371
0.0203364
0.0203627
0.0201435
0.0193358
0.0175265
0.0139293
0.00723882
-0.00240267
-0.014632
-0.028184
-0.0413742
-0.0514995
-0.0562479
-0.0568767
-0.0514318
-0.0424746
-0.0322285
-0.0213664
-0.0108387
-0.00169774
0.00575233
0.0113277
0.0148569
0.0169311
0.0181335
0.0188168
0.019228
0.0194621
0.0195911
0.0196618
0.019708
0.0197623
0.019443
0.0193818
0.0193963
0.0194579
0.0195716
0.0197406
0.01998
0.0203024
0.0207066
0.0211143
0.0215334
0.0210718
0.0193149
0.0158486
0.00922203
-0.000350943
-0.013047
-0.0279496
-0.0444292
-0.0590923
-0.069521
-0.0712835
-0.0659012
-0.0573566
-0.0461186
-0.0333123
-0.0199967
-0.00803112
0.00144189
0.00820767
0.012499
0.0150993
0.016624
0.0175939
0.0182165
0.0185923
0.0188119
0.0189209
0.0189725
0.0189748
0.0189815
0.0189483
0.0189605
0.0190203
0.0191433
0.0193323
0.0196057
0.0199678
0.0204514
0.0209766
0.0213689
0.0208792
0.0189755
0.0153085
0.00882613
-0.000574003
-0.0129956
-0.0278902
-0.0464302
-0.0629561
-0.0794457
-0.0804869
-0.0729278
-0.0639819
-0.050911
-0.0367342
-0.0220452
-0.00946156
0.000163412
0.00687243
0.0112771
0.0139497
0.0156595
0.0167386
0.0174242
0.0178395
0.0181076
0.0182528
0.0183169
0.0182727
0.0184161
0.0184498
0.0184838
0.0185355
0.0186242
0.0187613
0.018955
0.0192106
0.0195271
0.0197267
0.0196131
0.0187061
0.01651
0.0126432
0.00633625
-0.0025999
-0.0144926
-0.0282598
-0.0441614
-0.057672
-0.0692613
-0.069863
-0.0631863
-0.0538892
-0.0406576
-0.0277883
-0.0156067
-0.00562326
0.00198488
0.00763205
0.0114518
0.0138411
0.0153464
0.0162671
0.0168522
0.0172159
0.0174424
0.0175658
0.0176231
0.0176081
0.0176567
0.0176925
0.0177281
0.0177619
0.0177997
0.0178465
0.0179021
0.0179439
0.0179438
0.0176762
0.0167419
0.0149602
0.0118103
0.00700223
0.000339177
-0.00816666
-0.0183078
-0.0293832
-0.0398902
-0.0474972
-0.0509184
-0.0489386
-0.0431886
-0.0348528
-0.0247848
-0.0152191
-0.00664086
0.000362547
0.00607145
0.0101987
0.0128705
0.0145171
0.0155387
0.016154
0.0165441
0.0167856
0.016929
0.0170003
0.017035
0.0170707
0.0168177
0.0168018
0.0167739
0.0167397
0.0166953
0.0166246
0.0164961
0.0162372
0.0157593
0.0148636
0.0131683
0.0103331
0.00603567
0.000334071
-0.00667004
-0.0146421
-0.0231785
-0.0314986
-0.0376753
-0.0402247
-0.0391403
-0.0347123
-0.0282376
-0.020376
-0.0122614
-0.00473596
0.00166207
0.00687062
0.0108501
0.0132653
0.0146347
0.0154419
0.01593
0.0162482
0.016448
0.016574
0.0166526
0.0166992
0.0167244
0.016732
0.0159933
0.0159295
0.0158586
0.0157696
0.0156436
0.0154405
0.0151052
0.0145101
0.013489
0.0117797
0.00903614
0.00508423
-9.30709e-05
-0.00651403
-0.0139922
-0.021949
-0.0296832
-0.036263
-0.0398174
-0.0391518
-0.0367121
-0.030457
-0.0220666
-0.0129046
-0.00404297
0.00328896
0.00884761
0.0125497
0.0146131
0.0156063
0.0160816
0.0162717
0.016356
0.0163898
0.0164034
0.0164107
0.0164206
0.0164281
0.0164271
0.0164113
0.0152302
0.0151802
0.0151159
0.0150057
0.0148132
0.0144855
0.0139538
0.0130874
0.0116396
0.00926304
0.00551353
0.000193732
-0.00670416
-0.0149271
-0.0238421
-0.0326395
-0.0405314
-0.0463808
-0.0489164
-0.046189
-0.0398431
-0.0307549
-0.0197864
-0.00886911
0.000726982
0.00799373
0.0129677
0.0156578
0.0169669
0.0173154
0.0171283
0.0168547
0.0165817
0.0163523
0.0161873
0.0160739
0.0160007
0.0159601
0.0159453
0.0159696
0.014581
0.0146024
0.014543
0.0144055
0.014151
0.0137331
0.0130781
0.0120572
0.0104153
0.00776255
0.00350617
-0.00265405
-0.0109382
-0.0210239
-0.0316388
-0.0416705
-0.0506557
-0.0564822
-0.0592389
-0.0556854
-0.0442048
-0.0316116
-0.0183584
-0.00662712
0.00270446
0.009506
0.0140076
0.016396
0.0176952
0.0179084
0.0174223
0.0169181
0.0164312
0.0160688
0.0158057
0.0156266
0.0155131
0.015459
0.0154524
0.0155029
0.0140059
0.0140502
0.0139893
0.0138552
0.0135996
0.0131918
0.0125458
0.0115276
0.00995635
0.0074706
0.00357901
-0.00202559
-0.00947432
-0.0189369
-0.0294603
-0.0396788
-0.0492805
-0.0555709
-0.0588513
-0.0558767
-0.0437682
-0.031077
-0.0180308
-0.00694647
0.00180574
0.00836229
0.012697
0.0151519
0.0165163
0.0169031
0.0166407
0.0162767
0.0158705
0.0155551
0.0153264
0.0151719
0.0150774
0.0150335
0.0150208
0.01503
0.013476
0.0134738
0.0134324
0.0133435
0.013171
0.0128793
0.0124055
0.0116377
0.010406
0.00844705
0.00550681
0.00134901
-0.00400545
-0.010941
-0.0191511
-0.0276806
-0.0358845
-0.0418735
-0.0452669
-0.0441492
-0.03812
-0.0293812
-0.0196599
-0.0106184
-0.00268776
0.00372119
0.00845452
0.0115773
0.0134774
0.014485
0.0148952
0.0149679
0.0148525
0.0147272
0.0146283
0.0145586
0.0145124
0.0144803
0.0144498
0.0144131
0.0131083
0.0130766
0.0130547
0.0130114
0.0129263
0.0127731
0.0125178
0.0120901
0.0114025
0.0102538
0.00839434
0.00556023
0.00185013
-0.00274414
-0.00828926
-0.0144762
-0.0206614
-0.0261123
-0.0303579
-0.0324955
-0.0316808
-0.0278484
-0.022172
-0.0155342
-0.0088234
-0.00278086
0.00230303
0.00628888
0.00922368
0.0112309
0.0124397
0.0130493
0.0133353
0.013488
0.0135703
0.0136169
0.0136455
0.0136613
0.0136631
0.0136549
0.0128808
0.012891
0.0128835
0.0128673
0.0128383
0.0127956
0.0127144
0.0125925
0.0123727
0.0119623
0.0111673
0.00972965
0.00732856
0.00402825
-0.000263649
-0.00553
-0.011504
-0.0174506
-0.022826
-0.0268896
-0.0283541
-0.0283528
-0.02568
-0.0207163
-0.0148403
-0.00903159
-0.0036545
0.000999617
0.0047686
0.00760198
0.00958776
0.0108488
0.0116145
0.0120873
0.0123703
0.0125445
0.0126645
0.0127562
0.0128282
0.0128739
0.0125993
0.012611
0.0126283
0.0126537
0.0126925
0.0127551
0.0128424
0.0129596
0.0130873
0.0132087
0.0131996
0.0128522
0.0116387
0.00927653
0.00548694
0.000224747
-0.00644266
-0.0137322
-0.0207175
-0.0264329
-0.0303361
-0.0330535
-0.0322369
-0.0283141
-0.0226922
-0.0164666
-0.0102653
-0.00452554
0.000284737
0.00411347
0.00698569
0.0089321
0.0101635
0.0109225
0.0113875
0.0116768
0.0118576
0.0119783
0.0120655
0.0121413
0.0122079
0.0121764
0.0121934
0.0122456
0.012344
0.012494
0.0127202
0.0130212
0.0134226
0.0138667
0.0143578
0.0144525
0.0137624
0.0122236
0.00914088
0.00434772
-0.00228523
-0.0107977
-0.0199342
-0.0284337
-0.0362043
-0.0412906
-0.0413028
-0.0373356
-0.031722
-0.0246765
-0.0171712
-0.00987604
-0.00345421
0.00153865
0.0051434
0.00759097
0.00910642
0.0100638
0.0106689
0.0110504
0.0112806
0.0114113
0.011481
0.0115107
0.0118055
0.011768
0.0117739
0.0118215
0.0119256
0.0120947
0.0123487
0.0126916
0.0131959
0.0136633
0.0141707
0.0143244
0.0137477
0.0125871
0.0100865
0.00584833
-0.000189266
-0.00896408
-0.0193921
-0.0297761
-0.0390635
-0.0456169
-0.0453703
-0.0404466
-0.0348364
-0.0273261
-0.0192149
-0.0113498
-0.0044987
0.000649949
0.00434031
0.00687176
0.00846868
0.00949353
0.010142
0.0105641
0.0108256
0.0109749
0.0110371
0.0109981
0.0113674
0.0113736
0.0113875
0.0114196
0.011488
0.011599
0.0117697
0.0120019
0.0122991
0.0125079
0.0126129
0.0123538
0.0115026
0.00994026
0.00717963
0.00294457
-0.00271517
-0.0101718
-0.0188205
-0.0278198
-0.0346071
-0.0388266
-0.0380512
-0.0338167
-0.0281849
-0.0212376
-0.0141191
-0.00751219
-0.002154
0.00191659
0.00497363
0.00705502
0.00841238
0.00927908
0.0098245
0.0101802
0.0103985
0.0105167
0.0105689
0.0105406
0.010788
0.0108151
0.0108326
0.0108416
0.0108485
0.0108555
0.0108645
0.0108531
0.010782
0.0105161
0.00988797
0.00878475
0.00707188
0.00456015
0.00116212
-0.00311896
-0.00821292
-0.0135603
-0.0189582
-0.0238377
-0.0265677
-0.0268735
-0.0246978
-0.0210605
-0.0163713
-0.0111747
-0.00614902
-0.00172369
0.001757
0.00454693
0.00662111
0.00796626
0.00887254
0.0094111
0.00973866
0.0099428
0.0100552
0.0101103
0.0101366
0.0101571
0.0101214
0.0101078
0.0100741
0.0100182
0.00993765
0.00981833
0.00963172
0.00933037
0.00884357
0.00801684
0.00666237
0.00467646
0.00205162
-0.00122556
-0.00508037
-0.00930783
-0.0137394
-0.0176326
-0.0200269
-0.0209622
-0.0206869
-0.0183955
-0.0149295
-0.011022
-0.00682703
-0.00282141
0.000628934
0.00345744
0.00567894
0.00740664
0.00849154
0.00911191
0.00948533
0.00968206
0.00980233
0.00987197
0.00990671
0.00992256
0.00993125
0.00994612
0.00946445
0.00940365
0.00931552
0.00919977
0.00904238
0.00880981
0.00844302
0.00786285
0.00694935
0.00554669
0.00353643
0.000857463
-0.00257601
-0.00669285
-0.011243
-0.0157608
-0.0198658
-0.0226961
-0.0230504
-0.0211298
-0.0186504
-0.0148963
-0.01048
-0.00567447
-0.00108279
0.0028265
0.00577781
0.00780952
0.009108
0.00975472
0.00995894
0.01002
0.00999088
0.00993792
0.00989495
0.00986496
0.0098427
0.00982608
0.00981227
0.00979007
0.00887743
0.00881031
0.00872617
0.00860123
0.00840494
0.00809237
0.00759684
0.00680421
0.00552982
0.00359381
0.000854586
-0.00281605
-0.00746408
-0.012844
-0.0184872
-0.0236995
-0.0277435
-0.0298385
-0.0290338
-0.0247109
-0.0193271
-0.0135562
-0.00739927
-0.00144456
0.00349779
0.00720101
0.00964427
0.0109217
0.0114053
0.0112718
0.0109235
0.0105566
0.0102412
0.00999762
0.00981633
0.00968897
0.00960688
0.00955591
0.00952831
0.00952532
0.00840764
0.00839977
0.00833721
0.0082089
0.00797992
0.00761001
0.00702832
0.00611919
0.00467252
0.00239415
-0.000863122
-0.00535131
-0.011042
-0.0174428
-0.0238359
-0.0295732
-0.0335633
-0.0357049
-0.0343537
-0.0284108
-0.020752
-0.0127627
-0.00475554
0.00216617
0.00684917
0.00992759
0.0115798
0.0121993
0.0122042
0.0117262
0.01117
0.0106038
0.0101333
0.00977508
0.00951434
0.00933411
0.00922199
0.00916402
0.00914747
0.00918733
0.00803321
0.00807007
0.00801962
0.0078925
0.0076606
0.0072984
0.00672857
0.00584376
0.00446661
0.00232597
-0.000708946
-0.00479748
-0.0100999
-0.0161451
-0.0223136
-0.0279727
-0.0320579
-0.0342159
-0.0332781
-0.0275992
-0.0204331
-0.0125096
-0.00474865
0.00166074
0.00604337
0.00900122
0.010523
0.0111782
0.0112531
0.010923
0.0105306
0.0100813
0.0096532
0.00933137
0.00910072
0.00895263
0.00886275
0.00882213
0.00881442
0.00883738
0.00770023
0.00771364
0.00767613
0.00759147
0.00743498
0.00717383
0.00675448
0.00608802
0.00505051
0.00351914
0.00133362
-0.0015499
-0.00530572
-0.00979543
-0.0145629
-0.0191395
-0.0227139
-0.0249967
-0.025308
-0.022608
-0.0182952
-0.0129375
-0.00759891
-0.00286113
0.00104958
0.00411164
0.00624709
0.00767099
0.0084855
0.00887772
0.00899946
0.00893393
0.00880067
0.00867271
0.00857368
0.00851098
0.00847315
0.00845345
0.00843945
0.00842195
0.00746185
0.00744294
0.00742743
0.00740135
0.00734276
0.00723392
0.00703759
0.00670772
0.00615359
0.00530392
0.0040039
0.0022625
7.11943e-05
-0.0026673
-0.00578705
-0.00908878
-0.0120959
-0.0147426
-0.0166181
-0.017021
-0.0160215
-0.0140921
-0.0114652
-0.00828319
-0.00494391
-0.00186799
0.000797403
0.00298265
0.00468937
0.00596556
0.0067983
0.00727907
0.00754274
0.00769103
0.00778015
0.00783602
0.00787202
0.00789082
0.00789276
0.00788129
0.00735248
0.00735542
0.00736208
0.00737202
0.00737941
0.00738341
0.00737634
0.00734631
0.00723077
0.00697364
0.00647214
0.00562644
0.00440006
0.00267007
0.000394258
-0.00247074
-0.00554327
-0.00869393
-0.0113727
-0.0134719
-0.0149735
-0.0159142
-0.0154624
-0.0134398
-0.0105452
-0.00731464
-0.0041442
-0.00128424
0.00113384
0.00304357
0.00447634
0.00546701
0.00611431
0.00653871
0.00681201
0.00699343
0.00711737
0.00720566
0.00726612
0.00730001
0.00723866
0.00726316
0.00729215
0.0073327
0.00739004
0.00747675
0.00759766
0.00776076
0.00795844
0.00815698
0.00829795
0.00822813
0.00770693
0.00659255
0.00474919
0.00199994
-0.00138426
-0.0051619
-0.00881586
-0.012662
-0.0162946
-0.0195098
-0.0206906
-0.0196554
-0.0169685
-0.0132497
-0.00924925
-0.00541017
-0.00208241
0.000537162
0.00252931
0.00397517
0.0049639
0.00561975
0.00603246
0.00630186
0.00648178
0.00660777
0.00669974
0.00676626
0.00701378
0.00701152
0.00704167
0.00710011
0.00719871
0.00734707
0.00755716
0.00784394
0.00824168
0.00873515
0.00926046
0.00976563
0.00996519
0.00958681
0.00842001
0.00621994
0.00281782
-0.00181747
-0.00725482
-0.0131336
-0.0189073
-0.0240019
-0.0262994
-0.0259518
-0.0231348
-0.0191068
-0.014326
-0.00943956
-0.00502797
-0.00147212
0.001142
0.00300824
0.00425199
0.00505304
0.0055548
0.00587727
0.00608175
0.00620636
0.00628278
0.00632563
0.00672891
0.00670036
0.00671312
0.00676463
0.00686823
0.00703003
0.00726653
0.00759695
0.00803376
0.00858943
0.00920237
0.00989518
0.0104681
0.0105506
0.00981786
0.00808178
0.00481102