/*--------------------------------*- C++ -*----------------------------------*\
| =========                 |                                                 |
| \\      /  F ield         | OpenFOAM: The Open Source CFD Toolbox           |
|  \\    /   O peration     | Version:  v2106                                 |
|   \\  /    A nd           | Website:  www.openfoam.com                      |
|    \\/     M anipulation  |                                                 |
\*---------------------------------------------------------------------------*/
FoamFile
{
    version     2.0;
    format      ascii;
    arch        "LSB;label=32;scalar=64";
    class       pointVectorField;
    location    "0";
    object      pointDisplacement;
}
// * * * * * * * * * * * * * * * * * * * * * * * * * * * * * * * * * * * * * //

dimensions      [0 1 0 0 0 0 0];

internalField   nonuniform List<vector> 
24440
(
(0 0 0)
(0 0 0)
(0 0 0)
(0 0 0)
(0 0 0)
(0 0 0)
(0 0 0)
(0 0 0)
(0 0 0)
(0 0 0)
(0 0 0)
(0 0 0)
(0 0 0)
(0 0 0)
(0 0 0)
(0 0 0)
(0 0 0)
(0 0 0)
(0 0 0)
(0 0 0)
(0 0 0)
(0 0 0)
(0 0 0)
(0 0 0)
(0 0 0)
(0 0 0)
(0 0 0)
(0 0 0)
(0 0 0)
(0 0 0)
(0 0 0)
(0 0 0)
(0 0 0)
(0 0 0)
(0 0 0)
(0 0 0)
(0 0 0)
(0 0 0)
(0 0 0)
(0 0 0)
(0 0 0)
(0 0 0)
(0 0 0)
(0 0 0)
(0 0 0)
(0 0 0)
(0 0 0)
(0 0 0)
(0 0 0)
(0 0 0)
(0 0 0)
(0 0 0)
(0 0 0)
(0 0 0)
(0 0 0)
(0 0 0)
(0 0 0)
(0 0 0)
(0 0 0)
(0 0 0)
(0 0 0)
(0 0 0)
(0 0 0)
(0 0 0)
(0 0 0)
(0 0 0)
(0 0 0)
(0 0 0)
(0 0 0)
(0 0 0)
(0 0 0)
(0 0 0)
(0 0 0)
(0 0 0)
(0 0 0)
(0 0 0)
(0 0 0)
(0 0 0)
(0 0 0)
(0 0 0)
(0 0 0)
(0 0 0)
(0 0 0)
(0 0 0)
(0 0 0)
(0 0 0)
(0 0 0)
(0 0 0)
(0 0 0)
(0 0 0)
(0 0 0)
(0 0 0)
(0 0 0)
(0 0 0)
(0 0 0)
(0 0 0)
(0 0 0)
(0 0 0)
(0 4.9626e-06 0)
(0 3.12944e-05 0)
(0 8.60531e-05 0)
(0 0.000132603 0)
(0 0.000150468 0)
(0 0.000132603 0)
(0 8.60531e-05 0)
(0 3.12944e-05 0)
(0 4.9626e-06 0)
(0 0 0)
(0 0 0)
(0 0 0)
(0 0 0)
(0 0 0)
(0 0 0)
(0 0 0)
(0 0 0)
(0 0 0)
(0 0 0)
(0 0 0)
(0 0 0)
(0 0 0)
(0 0 0)
(0 0 0)
(0 0 0)
(0 0 0)
(0 0 0)
(0 0 0)
(0 0 0)
(0 0 0)
(0 0 0)
(0 0 0)
(0 0 0)
(0 0 0)
(0 0 0)
(0 0 0)
(0 0 0)
(0 0 0)
(0 8.31101e-06 0)
(0 0.000109941 0)
(0 0.000323548 0)
(0 0.00058285 0)
(0 0.000831381 0)
(0 0.00100464 0)
(0 0.00116571 0)
(0 0.00122238 0)
(0 0.00116571 0)
(0 0.00100464 0)
(0 0.000831381 0)
(0 0.00058285 0)
(0 0.000323548 0)
(0 0.000109941 0)
(0 8.31101e-06 0)
(0 0 0)
(0 0 0)
(0 0 0)
(0 0 0)
(0 0 0)
(0 0 0)
(0 0 0)
(0 0 0)
(0 0 0)
(0 0 0)
(0 0 0)
(0 0 0)
(0 0 0)
(0 0 0)
(0 0 0)
(0 0 0)
(0 0 0)
(0 0 0)
(0 0 0)
(0 0 0)
(0 0 0)
(0 0 0)
(0 0 0)
(0 0 0)
(0 3.48944e-06 0)
(0 0.000144583 0)
(0 0.000493072 0)
(0 0.000972332 0)
(0 0.00146597 0)
(0 0.00201668 0)
(0 0.00249365 0)
(0 0.00278904 0)
(0 0.0030715 0)
(0 0.00316912 0)
(0 0.0030715 0)
(0 0.00278904 0)
(0 0.00249365 0)
(0 0.00201668 0)
(0 0.00146597 0)
(0 0.000972332 0)
(0 0.000493072 0)
(0 0.000144583 0)
(0 3.48944e-06 0)
(0 0 0)
(0 0 0)
(0 0 0)
(0 0 0)
(0 0 0)
(0 0 0)
(0 0 0)
(0 0 0)
(0 0 0)
(0 0 0)
(0 0 0)
(0 0 0)
(0 0 0)
(0 0 0)
(0 0 0)
(0 0 0)
(0 0 0)
(0 0 0)
(0 0 0)
(0 0 0)
(0 0 0)
(0 3.29943e-05 0)
(0 0.000343123 0)
(0 0.000911867 0)
(0 0.00159988 0)
(0 0.00245412 0)
(0 0.00331571 0)
(0 0.00406211 0)
(0 0.0047613 0)
(0 0.00525747 0)
(0 0.00555391 0)
(0 0.00568998 0)
(0 0.00555391 0)
(0 0.00525747 0)
(0 0.0047613 0)
(0 0.00406211 0)
(0 0.00331571 0)
(0 0.00245412 0)
(0 0.00159988 0)
(0 0.000911867 0)
(0 0.000343123 0)
(0 3.49301e-05 0)
(0 0 0)
(0 0 0)
(0 0 0)
(0 0 0)
(0 0 0)
(0 0 0)
(0 0 0)
(0 0 0)
(0 0 0)
(0 0 0)
(0 0 0)
(0 0 0)
(0 0 0)
(0 0 0)
(0 0 0)
(0 0 0)
(0 0 0)
(0 0 0)
(0 0 0)
(0 6.48925e-05 0)
(0 0.000455026 0)
(0 0.00113569 0)
(0 0.00208494 0)
(0 0.00321311 0)
(0 0.00438544 0)
(0 0.00546126 0)
(0 0.00648115 0)
(0 0.00686439 0)
(0 0.00727883 0)
(0 0.00762549 0)
(0 0.00789862 0)
(0 0.00809394 0)
(0 0.008229 0)
(0 0.00835376 0)
(0 0.00839554 0)
(0 0.00835376 0)
(0 0.008229 0)
(0 0.00809394 0)
(0 0.00789862 0)
(0 0.00762549 0)
(0 0.00727883 0)
(0 0.00686439 0)
(0 0.00648115 0)
(0 0.00546126 0)
(0 0.00438544 0)
(0 0.00321311 0)
(0 0.00208494 0)
(0 0.00111211 0)
(0 0.000411162 0)
(0 5.18534e-05 0)
(0 0 0)
(0 0 0)
(0 0 0)
(0 0 0)
(0 0 0)
(0 0 0)
(0 0 0)
(0 0 0)
(0 0 0)
(0 0 0)
(0 0 0)
(0 0 0)
(0 0 0)
(0 0 0)
(0 0 0)
(0 0 0)
(0 0 0)
(0 3.81687e-05 0)
(0 0.0004368 0)
(0 0.001217 0)
(0 0.00229004 0)
(0 0.00354694 0)
(0 0.00502576 0)
(0 0.00573285 0)
(0 0.00635961 0)
(0 0.00705329 0)
(0 0.0077035 0)
(0 0.00829838 0)
(0 0.00880376 0)
(0 0.00767261 0)
(0 0.00814107 0)
(0 0.00851078 0)
(0 0.00888368 0)
(0 0.00917622 0)
(0 0.00938468 0)
(0 0.00950965 0)
(0 0.0096421 0)
(0 0.00968639 0)
(0 0.0096421 0)
(0 0.00950965 0)
(0 0.00938468 0)
(0 0.00917622 0)
(0 0.00888368 0)
(0 0.00851078 0)
(0 0.00814107 0)
(0 0.00767261 0)
(0 0.00880376 0)
(0 0.00829838 0)
(0 0.0077035 0)
(0 0.00705329 0)
(0 0.00635961 0)
(0 0.00573285 0)
(0 0.00502576 0)
(0 0.00354694 0)
(0 0.00229004 0)
(0 0.00117261 0)
(0 0.000417796 0)
(0 3.46627e-05 0)
(0 0 0)
(0 0 0)
(0 0 0)
(0 0 0)
(0 0 0)
(0 0 0)
(0 0 0)
(0 0 0)
(0 0 0)
(0 0 0)
(0 0 0)
(0 0 0)
(0 0 0)
(0 0 0)
(0 0 0)
(0 0 0)
(0 0.0002415 0)
(0 0.000986927 0)
(0 0.00210991 0)
(0 0.00352051 0)
(0 0.0050916 0)
(0 0.00668799 0)
(0 0.00588665 0)
(0 0.00665559 0)
(0 0.0073955 0)
(0 0.0080922 0)
(0 0.00871118 0)
(0 0.00933893 0)
(0 0.00989365 0)
(0 0.0103519 0)
(0 0.00930153 0)
(0 0.00972081 0)
(0 0.0107841 0)
(0 0.0110952 0)
(0 0.0100544 0)
(0 0.0103596 0)
(0 0.0114047 0)
(0 0.0116225 0)
(0 0.010576 0)
(0 0.0106858 0)
(0 0.0117488 0)
(0 0.011849 0)
(0 0.0108224 0)
(0 0.0108679 0)
(0 0.0118942 0)
(0 0.011849 0)
(0 0.0108224 0)
(0 0.0106858 0)
(0 0.0117488 0)
(0 0.0116225 0)
(0 0.010576 0)
(0 0.0103596 0)
(0 0.0114047 0)
(0 0.0110952 0)
(0 0.0100544 0)
(0 0.00972081 0)
(0 0.0107841 0)
(0 0.0103519 0)
(0 0.00930153 0)
(0 0.00989365 0)
(0 0.00933893 0)
(0 0.00871118 0)
(0 0.0080922 0)
(0 0.0073955 0)
(0 0.00665559 0)
(0 0.00588665 0)
(0 0.00668799 0)
(0 0.0050916 0)
(0 0.00347813 0)
(0 0.00209326 0)
(0 0.000985873 0)
(0 0.000262549 0)
(0 0 0)
(0 0 0)
(0 0 0)
(0 0 0)
(0 0 0)
(0 0 0)
(0 0 0)
(0 0 0)
(0 0 0)
(0 0 0)
(0 0 0)
(0 0 0)
(0 0 0)
(0 0 0)
(0 0 0)
(0 5.2683e-05 0)
(0 0.000541249 0)
(0 0.00156014 0)
(0 0.00292308 0)
(0 0.00454337 0)
(0 0.00639974 0)
(0 0.00818785 0)
(0 0.00749197 0)
(0 0.00830202 0)
(0 0.00745452 0)
(0 0.00828825 0)
(0 0.00906343 0)
(0 0.00982726 0)
(0 0.00902199 0)
(0 0.00969209 0)
(0 0.0105159 0)
(0 0.01083 0)
(0 0.0111223 0)
(0 0.0107248 0)
(0 0.0102577 0)
(0 0.010827 0)
(0 0.0112352 0)
(0 0.0114874 0)
(0 0.011079 0)
(0 0.0116921 0)
(0 0.0120793 0)
(0 0.0122585 0)
(0 0.011874 0)
(0 0.0122749 0)
(0 0.0126537 0)
(0 0.0127481 0)
(0 0.0123916 0)
(0 0.012606 0)
(0 0.0129531 0)
(0 0.0130025 0)
(0 0.0126634 0)
(0 0.0127252 0)
(0 0.0130569 0)
(0 0.0130469 0)
(0 0.0127145 0)
(0 0.012606 0)
(0 0.0129531 0)
(0 0.0129063 0)
(0 0.0125567 0)
(0 0.0122749 0)
(0 0.0126537 0)
(0 0.0125453 0)
(0 0.0121674 0)
(0 0.0116921 0)
(0 0.0120793 0)
(0 0.0119211 0)
(0 0.0114867 0)
(0 0.010827 0)
(0 0.0112352 0)
(0 0.0109601 0)
(0 0.0105529 0)
(0 0.00969209 0)
(0 0.0105159 0)
(0 0.00982726 0)
(0 0.00902199 0)
(0 0.00828825 0)
(0 0.00906343 0)
(0 0.00830202 0)
(0 0.00745452 0)
(0 0.00749197 0)
(0 0.00815096 0)
(0 0.00639532 0)
(0 0.0046166 0)
(0 0.00289853 0)
(0 0.00154495 0)
(0 0.000568377 0)
(0 6.02457e-05 0)
(0 0 0)
(0 0 0)
(0 0 0)
(0 0 0)
(0 0 0)
(0 0 0)
(0 0 0)
(0 0 0)
(0 0 0)
(0 0 0)
(0 0 0)
(0 0 0)
(0 0 0)
(0 0 0)
(0 0.000172367 0)
(0 0.000872357 0)
(0 0.00204965 0)
(0 0.0036015 0)
(0 0.0053949 0)
(0 0.00736745 0)
(0 0.00920843 0)
(0 0.0087542 0)
(0 0.00962053 0)
(0 0.00903093 0)
(0 0.00981807 0)
(0 0.010424 0)
(0 0.0111496 0)
(0 0.0105351 0)
(0 0.0111702 0)
(0 0.0114992 0)
(0 0.0117822 0)
(0 0.0114988 0)
(0 0.0122983 0)
(0 0.0124344 0)
(0 0.0125443 0)
(0 0.0124094 0)
(0 0.013019 0)
(0 0.0131279 0)
(0 0.0131986 0)
(0 0.0130919 0)
(0 0.0134456 0)
(0 0.013525 0)
(0 0.013561 0)
(0 0.013481 0)
(0 0.0136326 0)
(0 0.0136908 0)
(0 0.0136991 0)
(0 0.0136426 0)
(0 0.0136804 0)
(0 0.0137273 0)
(0 0.0137265 0)
(0 0.0136793 0)
(0 0.0136326 0)
(0 0.0136908 0)
(0 0.0136793 0)
(0 0.013619 0)
(0 0.0134456 0)
(0 0.013525 0)
(0 0.0134948 0)
(0 0.013403 0)
(0 0.013019 0)
(0 0.0131279 0)
(0 0.0130664 0)
(0 0.0129397 0)
(0 0.0122983 0)
(0 0.0124344 0)
(0 0.012559 0)
(0 0.012322 0)
(0 0.012057 0)
(0 0.0111702 0)
(0 0.0114992 0)
(0 0.011785 0)
(0 0.0111496 0)
(0 0.0105351 0)
(0 0.00981807 0)
(0 0.0104002 0)
(0 0.00961433 0)
(0 0.00903093 0)
(0 0.00876468 0)
(0 0.00923571 0)
(0 0.00734893 0)
(0 0.00544864 0)
(0 0.00363927 0)
(0 0.00207339 0)
(0 0.000884805 0)
(0 0.000176619 0)
(0 0 0)
(0 0 0)
(0 0 0)
(0 0 0)
(0 0 0)
(0 0 0)
(0 0 0)
(0 0 0)
(0 0 0)
(0 0 0)
(0 0 0)
(0 0 0)
(0 0 0)
(0 0 0)
(0 0.000265785 0)
(0 0.00108371 0)
(0 0.00238483 0)
(0 0.00405927 0)
(0 0.005966 0)
(0 0.00794483 0)
(0 0.00983009 0)
(0 0.00959652 0)
(0 0.010456 0)
(0 0.010057 0)
(0 0.0108351 0)
(0 0.011239 0)
(0 0.0119302 0)
(0 0.0115963 0)
(0 0.0122256 0)
(0 0.012381 0)
(0 0.0126518 0)
(0 0.0124999 0)
(0 0.013152 0)
(0 0.0132238 0)
(0 0.0133048 0)
(0 0.0132352 0)
(0 0.0136517 0)
(0 0.0136863 0)
(0 0.0137153 0)
(0 0.0136847 0)
(0 0.0137713 0)
(0 0.0137713 0)
(0 0.0137713 0)
(0 0.0137713 0)
(0 0.0137713 0)
(0 0.0137713 0)
(0 0.0137713 0)
(0 0.0137713 0)
(0 0.0137713 0)
(0 0.0137713 0)
(0 0.0137713 0)
(0 0.0137713 0)
(0 0.0137713 0)
(0 0.0137713 0)
(0 0.0137713 0)
(0 0.0137713 0)
(0 0.0137713 0)
(0 0.0137713 0)
(0 0.0137713 0)
(0 0.0137713 0)
(0 0.0136517 0)
(0 0.0136863 0)
(0 0.0136482 0)
(0 0.013612 0)
(0 0.013152 0)
(0 0.0132238 0)
(0 0.0132851 0)
(0 0.0130978 0)
(0 0.0129636 0)
(0 0.0122184 0)
(0 0.012399 0)
(0 0.0125369 0)
(0 0.0119136 0)
(0 0.0116067 0)
(0 0.0108968 0)
(0 0.011225 0)
(0 0.0104449 0)
(0 0.0101014 0)
(0 0.00958837 0)
(0 0.00983499 0)
(0 0.00794157 0)
(0 0.00595652 0)
(0 0.00404625 0)
(0 0.00237125 0)
(0 0.00107247 0)
(0 0.000259404 0)
(0 0 0)
(0 0 0)
(0 0 0)
(0 0 0)
(0 0 0)
(0 0 0)
(0 0 0)
(0 0 0)
(0 0 0)
(0 0 0)
(0 0 0)
(0 0 0)
(0 0 0)
(0 0 0)
(0 0.000281792 0)
(0 0.00111835 0)
(0 0.00243943 0)
(0 0.00413403 0)
(0 0.00605976 0)
(0 0.00805482 0)
(0 0.00995159 0)
(0 0.00995509 0)
(0 0.0108154 0)
(0 0.0106879 0)
(0 0.0114651 0)
(0 0.0115928 0)
(0 0.0122708 0)
(0 0.0121459 0)
(0 0.0127385 0)
(0 0.0127957 0)
(0 0.0130333 0)
(0 0.0129817 0)
(0 0.013518 0)
(0 0.01354 0)
(0 0.0135987 0)
(0 0.0135783 0)
(0 0.0137713 0)
(0 0.0137713 0)
(0 0.0137713 0)
(0 0.0137713 0)
(0 0.0137713 0)
(0 0.0137713 0)
(0 0.0137713 0)
(0 0.0137713 0)
(0 0.0137713 0)
(0 0.0137713 0)
(0 0.0137713 0)
(0 0.0137713 0)
(0 0.0137713 0)
(0 0.0137713 0)
(0 0.0137713 0)
(0 0.0137713 0)
(0 0.0137713 0)
(0 0.0137708 0)
(0 0.0137688 0)
(0 0.013518 0)
(0 0.01354 0)
(0 0.0135546 0)
(0 0.0134169 0)
(0 0.0133683 0)
(0 0.0127377 0)
(0 0.0127965 0)
(0 0.0128351 0)
(0 0.0122708 0)
(0 0.0121636 0)
(0 0.0114788 0)
(0 0.0115636 0)
(0 0.0107819 0)
(0 0.0106973 0)
(0 0.00991795 0)
(0 0.00992934 0)
(0 0.00803005 0)
(0 0.00603461 0)
(0 0.00411068 0)
(0 0.0024199 0)
(0 0.00110434 0)
(0 0.00027453 0)
(0 0 0)
(0 0 0)
(0 0 0)
(0 0 0)
(0 0 0)
(0 0 0)
(0 0 0)
(0 0 0)
(0 0 0)
(0 0 0)
(0 0 0)
(0 0 0)
(0 0 0)
(0 0 0)
(0 0.000230289 0)
(0 0.00100646 0)
(0 0.0022643 0)
(0 0.00389651 0)
(0 0.00576491 0)
(0 0.0077124 0)
(0 0.00957685 0)
(0 0.00984594 0)
(0 0.0107049 0)
(0 0.0108126 0)
(0 0.0115907 0)
(0 0.0114829 0)
(0 0.012164 0)
(0 0.0122695 0)
(0 0.0128346 0)
(0 0.0128043 0)
(0 0.0130419 0)
(0 0.0130707 0)
(0 0.0135788 0)
(0 0.0135716 0)
(0 0.0136266 0)
(0 0.0136331 0)
(0 0.0137713 0)
(0 0.0137713 0)
(0 0.0137713 0)
(0 0.0137713 0)
(0 0.0137713 0)
(0 0.0137713 0)
(0 0.0137713 0)
(0 0.0137713 0)
(0 0.0137713 0)
(0 0.0137713 0)
(0 0.0137713 0)
(0 0.0137713 0)
(0 0.0137713 0)
(0 0.0137713 0)
(0 0.0137713 0)
(0 0.0137713 0)
(0 0.0135788 0)
(0 0.0135657 0)
(0 0.0135586 0)
(0 0.0134212 0)
(0 0.0134368 0)
(0 0.0128226 0)
(0 0.0128034 0)
(0 0.012745 0)
(0 0.0121723 0)
(0 0.0122545 0)
(0 0.0115729 0)
(0 0.0114889 0)
(0 0.0107085 0)
(0 0.0107924 0)
(0 0.00984713 0)
(0 0.00960119 0)
(0 0.00773028 0)
(0 0.00577659 0)
(0 0.00390294 0)
(0 0.00226685 0)
(0 0.00100671 0)
(0 0.000229786 0)
(0 0 0)
(0 0 0)
(0 0 0)
(0 0 0)
(0 0 0)
(0 0 0)
(0 0 0)
(0 0 0)
(0 0 0)
(0 0 0)
(0 0 0)
(0 0 0)
(0 0 0)
(0 0 0)
(0 0.000116477 0)
(0 0.000731612 0)
(0 0.00181974 0)
(0 0.00328313 0)
(0 0.00510434 0)
(0 0.00696664 0)
(0 0.00878314 0)
(0 0.00926487 0)
(0 0.010126 0)
(0 0.0104295 0)
(0 0.011257 0)
(0 0.0109161 0)
(0 0.0116204 0)
(0 0.0119588 0)
(0 0.0125549 0)
(0 0.0124121 0)
(0 0.0126712 0)
(0 0.0128099 0)
(0 0.0133916 0)
(0 0.013351 0)
(0 0.0134249 0)
(0 0.0134683 0)
(0 0.0137547 0)
(0 0.0137405 0)
(0 0.0137574 0)
(0 0.0137662 0)
(0 0.0137713 0)
(0 0.0137713 0)
(0 0.0137713 0)
(0 0.0137713 0)
(0 0.0137713 0)
(0 0.0137713 0)
(0 0.0137713 0)
(0 0.0137713 0)
(0 0.0137547 0)
(0 0.0137385 0)
(0 0.0137161 0)
(0 0.0137361 0)
(0 0.0133916 0)
(0 0.013351 0)
(0 0.0132957 0)
(0 0.0131206 0)
(0 0.0132288 0)
(0 0.0125549 0)
(0 0.0124121 0)
(0 0.0122498 0)
(0 0.0116204 0)
(0 0.0119588 0)
(0 0.011236 0)
(0 0.0109161 0)
(0 0.010126 0)
(0 0.0104569 0)
(0 0.00926487 0)
(0 0.00878314 0)
(0 0.00696664 0)
(0 0.00503856 0)
(0 0.0033154 0)
(0 0.0018409 0)
(0 0.000743197 0)
(0 0.000120391 0)
(0 0 0)
(0 0 0)
(0 0 0)
(0 0 0)
(0 0 0)
(0 0 0)
(0 0 0)
(0 0 0)
(0 0 0)
(0 0 0)
(0 0 0)
(0 0 0)
(0 0 0)
(0 0 0)
(0 1.44123e-05 0)
(0 0.000427825 0)
(0 0.00130277 0)
(0 0.00256179 0)
(0 0.00408976 0)
(0 0.0057526 0)
(0 0.00749749 0)
(0 0.0081591 0)
(0 0.00904631 0)
(0 0.00962806 0)
(0 0.0104499 0)
(0 0.00982306 0)
(0 0.010601 0)
(0 0.0111646 0)
(0 0.0118213 0)
(0 0.011558 0)
(0 0.0118481 0)
(0 0.0121092 0)
(0 0.0128139 0)
(0 0.0126967 0)
(0 0.0128033 0)
(0 0.0129007 0)
(0 0.0134368 0)
(0 0.0133597 0)
(0 0.013416 0)
(0 0.0134901 0)
(0 0.0137153 0)
(0 0.0136722 0)
(0 0.0136911 0)
(0 0.0137305 0)
(0 0.0137713 0)
(0 0.0137637 0)
(0 0.0137667 0)
(0 0.0137713 0)
(0 0.0137713 0)
(0 0.0137713 0)
(0 0.0137713 0)
(0 0.0137713 0)
(0 0.0137713 0)
(0 0.0137713 0)
(0 0.0137637 0)
(0 0.0137595 0)
(0 0.0137709 0)
(0 0.0137712 0)
(0 0.0137153 0)
(0 0.0136722 0)
(0 0.0136488 0)
(0 0.0136958 0)
(0 0.0134368 0)
(0 0.0133597 0)
(0 0.013297 0)
(0 0.0133769 0)
(0 0.0128234 0)
(0 0.0127157 0)
(0 0.0125864 0)
(0 0.0123725 0)
(0 0.012605 0)
(0 0.0117889 0)
(0 0.0115446 0)
(0 0.0112593 0)
(0 0.0105864 0)
(0 0.0111646 0)
(0 0.0104499 0)
(0 0.00982306 0)
(0 0.00904631 0)
(0 0.00962806 0)
(0 0.0081591 0)
(0 0.00749749 0)
(0 0.0057526 0)
(0 0.00408976 0)
(0 0.00256179 0)
(0 0.00130277 0)
(0 0.000399075 0)
(0 1.73117e-05 0)
(0 0 0)
(0 0 0)
(0 0 0)
(0 0 0)
(0 0 0)
(0 0 0)
(0 0 0)
(0 0 0)
(0 0 0)
(0 0 0)
(0 0 0)
(0 0 0)
(0 0 0)
(0 0 0)
(0 0 0)
(0 0.000131501 0)
(0 0.000692961 0)
(0 0.00163038 0)
(0 0.00284598 0)
(0 0.00436481 0)
(0 0.00593518 0)
(0 0.00667598 0)
(0 0.00755013 0)
(0 0.00829766 0)
(0 0.00910806 0)
(0 0.0083371 0)
(0 0.0090729 0)
(0 0.00986977 0)
(0 0.0105594 0)
(0 0.0097446 0)
(0 0.0103069 0)
(0 0.0107738 0)
(0 0.0111663 0)
(0 0.0108738 0)
(0 0.0116881 0)
(0 0.0112801 0)
(0 0.0115323 0)
(0 0.0119189 0)
(0 0.0124966 0)
(0 0.0121467 0)
(0 0.0122867 0)
(0 0.0126493 0)
(0 0.0130085 0)
(0 0.0126985 0)
(0 0.0127895 0)
(0 0.0130944 0)
(0 0.013274 0)
(0 0.0129879 0)
(0 0.0130384 0)
(0 0.0133091 0)
(0 0.0133562 0)
(0 0.013092 0)
(0 0.0130784 0)
(0 0.0133454 0)
(0 0.013274 0)
(0 0.0129879 0)
(0 0.0129163 0)
(0 0.0132188 0)
(0 0.0130085 0)
(0 0.0126985 0)
(0 0.0125846 0)
(0 0.0129002 0)
(0 0.0124966 0)
(0 0.0121467 0)
(0 0.0119658 0)
(0 0.0123195 0)
(0 0.0116881 0)
(0 0.0112801 0)
(0 0.0110433 0)
(0 0.0114361 0)
(0 0.0105594 0)
(0 0.0097446 0)
(0 0.0090729 0)
(0 0.00986977 0)
(0 0.00910806 0)
(0 0.0083371 0)
(0 0.00755013 0)
(0 0.00829766 0)
(0 0.00667598 0)
(0 0.00593518 0)
(0 0.00436481 0)
(0 0.00284598 0)
(0 0.00163038 0)
(0 0.000692961 0)
(0 0.000131501 0)
(0 0 0)
(0 0 0)
(0 0 0)
(0 0 0)
(0 0 0)
(0 0 0)
(0 0 0)
(0 0 0)
(0 0 0)
(0 0 0)
(0 0 0)
(0 0 0)
(0 0 0)
(0 0 0)
(0 0 0)
(0 0 0)
(0 0 0)
(0 0.000198166 0)
(0 0.000818278 0)
(0 0.00175416 0)
(0 0.00291482 0)
(0 0.00418614 0)
(0 0.00544112 0)
(0 0.00641502 0)
(0 0.00745061 0)
(0 0.0067076 0)
(0 0.00711197 0)
(0 0.00814997 0)
(0 0.00876684 0)
(0 0.00776502 0)
(0 0.0083623 0)
(0 0.00939638 0)
(0 0.00995246 0)
(0 0.00943789 0)
(0 0.0096365 0)
(0 0.0102005 0)
(0 0.0108333 0)
(0 0.0103274 0)
(0 0.0105151 0)
(0 0.0110225 0)
(0 0.0114537 0)
(0 0.0109448 0)
(0 0.0110287 0)
(0 0.0115516 0)
(0 0.0118257 0)
(0 0.011337 0)
(0 0.0113941 0)
(0 0.0118823 0)
(0 0.0119488 0)
(0 0.0114632 0)
(0 0.0114397 0)
(0 0.0119275 0)
(0 0.0118257 0)
(0 0.011337 0)
(0 0.0112571 0)
(0 0.0117462 0)
(0 0.0114537 0)
(0 0.0109448 0)
(0 0.0108241 0)
(0 0.0113328 0)
(0 0.0108333 0)
(0 0.0103274 0)
(0 0.010118 0)
(0 0.0106218 0)
(0 0.00995246 0)
(0 0.00943789 0)
(0 0.00884317 0)
(0 0.0083623 0)
(0 0.00939638 0)
(0 0.00876684 0)
(0 0.00776502 0)
(0 0.00711197 0)
(0 0.00814997 0)
(0 0.00745061 0)
(0 0.00641502 0)
(0 0.00544112 0)
(0 0.00418614 0)
(0 0.0067076 0)
(0 0.00291482 0)
(0 0.00175416 0)
(0 0.000818278 0)
(0 0.000198166 0)
(0 0 0)
(0 0 0)
(0 0 0)
(0 0 0)
(0 0 0)
(0 0 0)
(0 0 0)
(0 0 0)
(0 0 0)
(0 0 0)
(0 0 0)
(0 0 0)
(0 0 0)
(0 0 0)
(0 0 0)
(0 0 0)
(0 0 0)
(0 0 0)
(0 2.513e-06 0)
(0 0.000225124 0)
(0 0.000762871 0)
(0 0.00149495 0)
(0 0.00244692 0)
(0 0.00346218 0)
(0 0.0044438 0)
(0 0.00501684 0)
(0 0.00608049 0)
(0 0.00668353 0)
(0 0.00549988 0)
(0 0.00604487 0)
(0 0.00718042 0)
(0 0.00772523 0)
(0 0.0071398 0)
(0 0.00737943 0)
(0 0.00797436 0)
(0 0.00861656 0)
(0 0.00799879 0)
(0 0.00816925 0)
(0 0.00879285 0)
(0 0.0091923 0)
(0 0.00857369 0)
(0 0.00871141 0)
(0 0.00933404 0)
(0 0.00963102 0)
(0 0.00900047 0)
(0 0.00905444 0)
(0 0.00968638 0)
(0 0.00975932 0)
(0 0.00912742 0)
(0 0.00909772 0)
(0 0.00973076 0)
(0 0.00963102 0)
(0 0.00900047 0)
(0 0.00892515 0)
(0 0.0095537 0)
(0 0.0091923 0)
(0 0.00857369 0)
(0 0.00841599 0)
(0 0.00908495 0)
(0 0.00861656 0)
(0 0.00799879 0)
(0 0.00780982 0)
(0 0.00842089 0)
(0 0.00772523 0)
(0 0.0071398 0)
(0 0.00654377 0)
(0 0.00604487 0)
(0 0.00718042 0)
(0 0.00668353 0)
(0 0.00549988 0)
(0 0.00501684 0)
(0 0.00608049 0)
(0 0.0044438 0)
(0 0.00346218 0)
(0 0.00244692 0)
(0 0.00149495 0)
(0 0.000762871 0)
(0 0.000225124 0)
(0 2.513e-06 0)
(0 0 0)
(0 0 0)
(0 0 0)
(0 0 0)
(0 0 0)
(0 0 0)
(0 0 0)
(0 0 0)
(0 0 0)
(0 0 0)
(0 0 0)
(0 0 0)
(0 0 0)
(0 0 0)
(0 0 0)
(0 0 0)
(0 0 0)
(0 0 0)
(0 0 0)
(0 0 0)
(0 0.000118227 0)
(0 0.000492412 0)
(0 0.000997532 0)
(0 0.00167966 0)
(0 0.00248362 0)
(0 0.0029286 0)
(0 0.00390234 0)
(0 0.00441338 0)
(0 0.00336467 0)
(0 0.00378086 0)
(0 0.00489693 0)
(0 0.0053424 0)
(0 0.00474858 0)
(0 0.00494112 0)
(0 0.00554788 0)
(0 0.00608288 0)
(0 0.00544369 0)
(0 0.0055354 0)
(0 0.00616552 0)
(0 0.00663073 0)
(0 0.00597468 0)
(0 0.00608959 0)
(0 0.00675219 0)
(0 0.00700816 0)
(0 0.00633203 0)
(0 0.00637749 0)
(0 0.00705611 0)
(0 0.00712597 0)
(0 0.00644532 0)
(0 0.00641399 0)
(0 0.0070946 0)
(0 0.00700816 0)
(0 0.00633203 0)
(0 0.00626869 0)
(0 0.00694132 0)
(0 0.00663073 0)
(0 0.00597468 0)
(0 0.00584358 0)
(0 0.00649203 0)
(0 0.00608288 0)
(0 0.00544369 0)
(0 0.00528959 0)
(0 0.00591904 0)
(0 0.0053424 0)
(0 0.00474858 0)
(0 0.00416707 0)
(0 0.00378086 0)
(0 0.00489693 0)
(0 0.00441338 0)
(0 0.00336467 0)
(0 0.0029286 0)
(0 0.00390234 0)
(0 0.00248362 0)
(0 0.00167966 0)
(0 0.000997532 0)
(0 0.000492412 0)
(0 0.000118227 0)
(0 0 0)
(0 0 0)
(0 0 0)
(0 0 0)
(0 0 0)
(0 0 0)
(0 0 0)
(0 0 0)
(0 0 0)
(0 0 0)
(0 0 0)
(0 0 0)
(0 0 0)
(0 0 0)
(0 0 0)
(0 0 0)
(0 0 0)
(0 0 0)
(0 0 0)
(0 0 0)
(0 0 0)
(0 0 0)
(0 0 0)
(0 1.0068e-05 0)
(0 0.000170777 0)
(0 0.000476614 0)
(0 0.000999833 0)
(0 0.00127204 0)
(0 0.00203902 0)
(0 0.0023962 0)
(0 0.00154844 0)
(0 0.00181969 0)
(0 0.00274098 0)
(0 0.00306389 0)
(0 0.00255329 0)
(0 0.00268912 0)
(0 0.00321443 0)
(0 0.003577 0)
(0 0.00302732 0)
(0 0.00315476 0)
(0 0.00371703 0)
(0 0.00406991 0)
(0 0.0034768 0)
(0 0.00356175 0)
(0 0.00416277 0)
(0 0.00435944 0)
(0 0.00374193 0)
(0 0.00377586 0)
(0 0.00439643 0)
(0 0.0044555 0)
(0 0.00383123 0)
(0 0.00380313 0)
(0 0.00442616 0)
(0 0.00435944 0)
(0 0.00374193 0)
(0 0.00369473 0)
(0 0.00430796 0)
(0 0.00406991 0)
(0 0.0034768 0)
(0 0.00338023 0)
(0 0.00396423 0)
(0 0.003577 0)
(0 0.00302732 0)
(0 0.00289117 0)
(0 0.00342713 0)
(0 0.00306389 0)
(0 0.00255329 0)
(0 0.00207704 0)
(0 0.00181969 0)
(0 0.00274098 0)
(0 0.0023962 0)
(0 0.00154844 0)
(0 0.00127204 0)
(0 0.00203902 0)
(0 0.000999833 0)
(0 0.000476614 0)
(0 0.000170777 0)
(0 1.0068e-05 0)
(0 0 0)
(0 0 0)
(0 0 0)
(0 0 0)
(0 0 0)
(0 0 0)
(0 0 0)
(0 0 0)
(0 0 0)
(0 0 0)
(0 0 0)
(0 0 0)
(0 0 0)
(0 0 0)
(0 0 0)
(0 0 0)
(0 0 0)
(0 0 0)
(0 0 0)
(0 0 0)
(0 0 0)
(0 0 0)
(0 0 0)
(0 0 0)
(0 0 0)
(0 0 0)
(0 1.82503e-06 0)
(0 0.000137113 0)
(0 0.000238827 0)
(0 0.000662241 0)
(0 0.000858022 0)
(0 0.000356118 0)
(0 0.000481549 0)
(0 0.00105554 0)
(0 0.00124686 0)
(0 0.000858288 0)
(0 0.000946151 0)
(0 0.00129397 0)
(0 0.00158878 0)
(0 0.00119569 0)
(0 0.00127144 0)
(0 0.00167747 0)
(0 0.00190426 0)
(0 0.00146633 0)
(0 0.00151852 0)
(0 0.00196469 0)
(0 0.00209363 0)
(0 0.00163021 0)
(0 0.00165139 0)
(0 0.00211802 0)
(0 0.00216044 0)
(0 0.00168899 0)
(0 0.00166845 0)
(0 0.00213765 0)
(0 0.00209363 0)
(0 0.00163021 0)
(0 0.00160083 0)
(0 0.00205975 0)
(0 0.00190426 0)
(0 0.00146633 0)
(0 0.00140739 0)
(0 0.00183587 0)
(0 0.00158878 0)
(0 0.00119569 0)
(0 0.0011157 0)
(0 0.00149475 0)
(0 0.00124686 0)
(0 0.000858288 0)
(0 0.000577162 0)
(0 0.000481549 0)
(0 0.00105554 0)
(0 0.000858022 0)
(0 0.000356118 0)
(0 0.000238827 0)
(0 0.000662241 0)
(0 0.000137113 0)
(0 1.82503e-06 0)
(0 0 0)
(0 0 0)
(0 0 0)
(0 0 0)
(0 0 0)
(0 0 0)
(0 0 0)
(0 0 0)
(0 0 0)
(0 0 0)
(0 0 0)
(0 0 0)
(0 0 0)
(0 0 0)
(0 0 0)
(0 0 0)
(0 0 0)
(0 0 0)
(0 0 0)
(0 0 0)
(0 0 0)
(0 0 0)
(0 0 0)
(0 0 0)
(0 0 0)
(0 0 0)
(0 0 0)
(0 0 0)
(0 0 0)
(0 0 0)
(0 0 0)
(0 6.70261e-05 0)
(0 2.42426e-05 0)
(0 0 0)
(0 0.000105398 0)
(0 0.000176081 0)
(0 5.39071e-06 0)
(0 2.35625e-05 0)
(0 0.000253747 0)
(0 0.000332446 0)
(0 4.96847e-05 0)
(0 7.91124e-05 0)
(0 0.000406808 0)
(0 0.000472169 0)
(0 0.00010779 0)
(0 0.000132352 0)
(0 0.000524675 0)
(0 0.00056136 0)
(0 0.000150202 0)
(0 0.000159575 0)
(0 0.000580213 0)
(0 0.000595297 0)
(0 0.000167581 0)
(0 0.000159575 0)
(0 0.000580213 0)
(0 0.00056136 0)
(0 0.000150202 0)
(0 0.000132352 0)
(0 0.000524675 0)
(0 0.000472169 0)
(0 0.00010779 0)
(0 7.91124e-05 0)
(0 0.000406808 0)
(0 0.000332446 0)
(0 4.96847e-05 0)
(0 2.35625e-05 0)
(0 0.000253747 0)
(0 0.000176081 0)
(0 5.39071e-06 0)
(0 0 0)
(0 0.000105398 0)
(0 6.70261e-05 0)
(0 0 0)
(0 0 0)
(0 0 0)
(0 2.42426e-05 0)
(0 0 0)
(0 0 0)
(0 0 0)
(0 0 0)
(0 0 0)
(0 0 0)
(0 0 0)
(0 0 0)
(0 0 0)
(0 0 0)
(0 0 0)
(0 0 0)
(0 0 0)
(0 0 0)
(0 0 0)
(0 0 0)
(0 0 0)
(0 0 0)
(0 0 0)
(0 0 0)
(0 0 0)
(0 0 0)
(0 0 0)
(0 0 0)
(0 0 0)
(0 0 0)
(0 0 0)
(0 0 0)
(0 0 0)
(0 0 0)
(0 0 0)
(0 0 0)
(0 0 0)
(0 0 0)
(0 0 0)
(0 0 0)
(0 0 0)
(0 0 0)
(0 0 0)
(0 0 0)
(0 4.84458e-07 0)
(0 0 0)
(0 0 0)
(0 1.86435e-06 0)
(0 1.10926e-06 0)
(0 0 0)
(0 4.84458e-07 0)
(0 1.10926e-06 0)
(0 0 0)
(0 0 0)
(0 0 0)
(0 0 0)
(0 0 0)
(0 0 0)
(0 0 0)
(0 0 0)
(0 0 0)
(0 0 0)
(0 0 0)
(0 0 0)
(0 0 0)
(0 0 0)
(0 0 0)
(0 0 0)
(0 0 0)
(0 0 0)
(0 0 0)
(0 0 0)
(0 0 0)
(0 0 0)
(0 0 0)
(0 0 0)
(0 0 0)
(0 0 0)
(0 0 0)
(0 0 0)
(0 0 0)
(0 0 0)
(0 0 0)
(0 0 0)
(0 0 0)
(0 0 0)
(0 0 0)
(0 0 0)
(0 0 0)
(0 0 0)
(0 0 0)
(0 0 0)
(0 0 0)
(0 0 0)
(0 0 0)
(0 0 0)
(0 0 0)
(0 0 0)
(0 0 0)
(0 0 0)
(0 0 0)
(0 0 0)
(0 0 0)
(0 0 0)
(0 0 0)
(0 0 0)
(0 0 0)
(0 0 0)
(0 0 0)
(0 0 0)
(0 0 0)
(0 0 0)
(0 0 0)
(0 0 0)
(0 0 0)
(0 0 0)
(0 0 0)
(0 0 0)
(0 0 0)
(0 0 0)
(0 0 0)
(0 0 0)
(0 0 0)
(0 0 0)
(0 0 0)
(0 0 0)
(0 0 0)
(0 0 0)
(0 0 0)
(0 0 0)
(0 0 0)
(0 0 0)
(0 0 0)
(0 0 0)
(0 0 0)
(0 0 0)
(0 0 0)
(0 0 0)
(0 0 0)
(0 0 0)
(0 0 0)
(0 0 0)
(0 0 0)
(0 0 0)
(0 0 0)
(0 0 0)
(0 0 0)
(0 0 0)
(0 0 0)
(0 0 0)
(0 0 0)
(0 0 0)
(0 0 0)
(0 0 0)
(0 0 0)
(0 0 0)
(0 0 0)
(0 0 0)
(0 0 0)
(0 0 0)
(0 0 0)
(0 0 0)
(0 0 0)
(0 0 0)
(0 0 0)
(0 0 0)
(0 0 0)
(0 0 0)
(0 0 0)
(0 0 0)
(0 0 0)
(0 0 0)
(0 0 0)
(0 0 0)
(0 0 0)
(0 0 0)
(0 0 0)
(0 0 0)
(0 0 0)
(0 0 0)
(0 0 0)
(0 0 0)
(0 0 0)
(0 0 0)
(0 0 0)
(0 0 0)
(0 0 0)
(0 0 0)
(0 0 0)
(0 0 0)
(0 0 0)
(0 0 0)
(0 0 0)
(0 0 0)
(0 0 0)
(0 0 0)
(0 0 0)
(0 0 0)
(0 0 0)
(0 0 0)
(0 0 0)
(0 0 0)
(0 0 0)
(0 0 0)
(0 0 0)
(0 0 0)
(0 0 0)
(0 0 0)
(0 0 0)
(0 0 0)
(0 0 0)
(0 0 0)
(0 0 0)
(0 0 0)
(0 0 0)
(0 0 0)
(0 0 0)
(0 0 0)
(0 0 0)
(0 0 0)
(0 0 0)
(0 0 0)
(0 0 0)
(0 0 0)
(0 0 0)
(0 0 0)
(0 0 0)
(0 0 0)
(0 0 0)
(0 0 0)
(0 0 0)
(0 0 0)
(0 0 0)
(0 0 0)
(0 0 0)
(0 0 0)
(0 0 0)
(0 0 0)
(0 0 0)
(0 0 0)
(0 0 0)
(0 0 0)
(0 0 0)
(0 0 0)
(0 0 0)
(0 0 0)
(0 0 0)
(0 0 0)
(0 0 0)
(0 0 0)
(0 0 0)
(0 0 0)
(0 0 0)
(0 0 0)
(0 0 0)
(0 0 0)
(0 0 0)
(0 0 0)
(0 0 0)
(0 0 0)
(0 0 0)
(0 0 0)
(0 0 0)
(0 0 0)
(0 0 0)
(0 0 0)
(0 0 0)
(0 0 0)
(0 0 0)
(0 0 0)
(0 0 0)
(0 0 0)
(0 0 0)
(0 0 0)
(0 0 0)
(0 0 0)
(0 0 0)
(0 0 0)
(0 0 0)
(0 0 0)
(0 0 0)
(0 0 0)
(0 0 0)
(0 0 0)
(0 0 0)
(0 0 0)
(0 0 0)
(0 0 0)
(0 0 0)
(0 0 0)
(0 0 0)
(0 0 0)
(0 0 0)
(0 0 0)
(0 0 0)
(0 0 0)
(0 0 0)
(0 0 0)
(0 0 0)
(0 0 0)
(0 0 0)
(0 0 0)
(0 0 0)
(0 0 0)
(0 0 0)
(0 0 0)
(0 0 0)
(0 0 0)
(0 0 0)
(0 0 0)
(0 0 0)
(0 0 0)
(0 0 0)
(0 0 0)
(0 0 0)
(0 0 0)
(0 0 0)
(0 0 0)
(0 0 0)
(0 0 0)
(0 0 0)
(0 0 0)
(0 0 0)
(0 0 0)
(0 0 0)
(0 0 0)
(0 0 0)
(0 0 0)
(0 0 0)
(0 0 0)
(0 0 0)
(0 0 0)
(0 0 0)
(0 0 0)
(0 0 0)
(0 0 0)
(0 0 0)
(0 0 0)
(0 0 0)
(0 0 0)
(0 0 0)
(0 0 0)
(0 0 0)
(0 0 0)
(0 0 0)
(0 0 0)
(0 0 0)
(0 0 0)
(0 0 0)
(0 0 0)
(0 0 0)
(0 0 0)
(0 0 0)
(0 0 0)
(0 0 0)
(0 0 0)
(0 0 0)
(0 0 0)
(0 0 0)
(0 0 0)
(0 0 0)
(0 0 0)
(0 0 0)
(0 0 0)
(0 0 0)
(0 0 0)
(0 0 0)
(0 0 0)
(0 0 0)
(0 0 0)
(0 0 0)
(0 0 0)
(0 0 0)
(0 0 0)
(0 0 0)
(0 0 0)
(0 0 0)
(0 0 0)
(0 0 0)
(0 0 0)
(0 0 0)
(0 0 0)
(0 0 0)
(0 0 0)
(0 0 0)
(0 0 0)
(0 0 0)
(0 0 0)
(0 0 0)
(0 0 0)
(0 0 0)
(0 0 0)
(0 0 0)
(0 0 0)
(0 0 0)
(0 0 0)
(0 0 0)
(0 0 0)
(0 0 0)
(0 0 0)
(0 0 0)
(0 0 0)
(0 0 0)
(0 0 0)
(0 0 0)
(0 0 0)
(0 0 0)
(0 0 0)
(0 0 0)
(0 0 0)
(0 0 0)
(0 0 0)
(0 0 0)
(0 0 0)
(0 0 0)
(0 0 0)
(0 0 0)
(0 0 0)
(0 0 0)
(0 0 0)
(0 0 0)
(0 0 0)
(0 0 0)
(0 0 0)
(0 0 0)
(0 0 0)
(0 0 0)
(0 0 0)
(0 0 0)
(0 0 0)
(0 0 0)
(0 0 0)
(0 0 0)
(0 0 0)
(0 0 0)
(0 0 0)
(0 0 0)
(0 0 0)
(0 0 0)
(0 0 0)
(0 0 0)
(0 0 0)
(0 0 0)
(0 0 0)
(0 0 0)
(0 0 0)
(0 0 0)
(0 0 0)
(0 0 0)
(0 0 0)
(0 0 0)
(0 0 0)
(0 0 0)
(0 0 0)
(0 0 0)
(0 0 0)
(0 0 0)
(0 0 0)
(0 0 0)
(0 0 0)
(0 0 0)
(0 0 0)
(0 0 0)
(0 0 0)
(0 0 0)
(0 0 0)
(0 0 0)
(0 0 0)
(0 0 0)
(0 0 0)
(0 0 0)
(0 0 0)
(0 0 0)
(0 0 0)
(0 0 0)
(0 0 0)
(0 0 0)
(0 0 0)
(0 0 0)
(0 0 0)
(0 0 0)
(0 0 0)
(0 0 0)
(0 0 0)
(0 0 0)
(0 0 0)
(0 0 0)
(0 0 0)
(0 0 0)
(0 0 0)
(0 0 0)
(0 0 0)
(0 0 0)
(0 0 0)
(0 0 0)
(0 0 0)
(0 0 0)
(0 0 0)
(0 0 0)
(0 0 0)
(0 0 0)
(0 0 0)
(0 0 0)
(0 0 0)
(0 0 0)
(0 0 0)
(0 0 0)
(0 0 0)
(0 0 0)
(0 0 0)
(0 0 0)
(0 0 0)
(0 0 0)
(0 0 0)
(0 0 0)
(0 0 0)
(0 0 0)
(0 0 0)
(0 0 0)
(0 0 0)
(0 0 0)
(0 0 0)
(0 0 0)
(0 0 0)
(0 0 0)
(0 0 0)
(0 0 0)
(0 0 0)
(0 0 0)
(0 0 0)
(0 0 0)
(0 0 0)
(0 0 0)
(0 0 0)
(0 0 0)
(0 0 0)
(0 0 0)
(0 0 0)
(0 0 0)
(0 0 0)
(0 0 0)
(0 0 0)
(0 0 0)
(0 0 0)
(0 0 0)
(0 0 0)
(0 0 0)
(0 0 0)
(0 0 0)
(0 0 0)
(0 0 0)
(0 0 0)
(0 0 0)
(0 0 0)
(0 0 0)
(0 0 0)
(0 0 0)
(0 0 0)
(0 0 0)
(0 0 0)
(0 0 0)
(0 0 0)
(0 0 0)
(0 0 0)
(0 0 0)
(0 0 0)
(0 0 0)
(0 0 0)
(0 0 0)
(0 0 0)
(0 0 0)
(0 0 0)
(0 0 0)
(0 0 0)
(0 0 0)
(0 0 0)
(0 0 0)
(0 0 0)
(0 0 0)
(0 0 0)
(0 0 0)
(0 0 0)
(0 0 0)
(0 0 0)
(0 0 0)
(0 0 0)
(0 0 0)
(0 0 0)
(0 0 0)
(0 0 0)
(0 0 0)
(0 0 0)
(0 0 0)
(0 0 0)
(0 0 0)
(0 0 0)
(0 0 0)
(0 0 0)
(0 0 0)
(0 0 0)
(0 0 0)
(0 0 0)
(0 0 0)
(0 0 0)
(0 0 0)
(0 0 0)
(0 0 0)
(0 0 0)
(0 0 0)
(0 0 0)
(0 0 0)
(0 0 0)
(0 0 0)
(0 0 0)
(0 0 0)
(0 0 0)
(0 0 0)
(0 0 0)
(0 0 0)
(0 0 0)
(0 0 0)
(0 0 0)
(0 0 0)
(0 0 0)
(0 0 0)
(0 0 0)
(0 0 0)
(0 0 0)
(0 0 0)
(0 0 0)
(0 0 0)
(0 0 0)
(0 0 0)
(0 0 0)
(0 0 0)
(0 0 0)
(0 0 0)
(0 0 0)
(0 0 0)
(0 0 0)
(0 0 0)
(0 0 0)
(0 0 0)
(0 0 0)
(0 0 0)
(0 0 0)
(0 0 0)
(0 0 0)
(0 0 0)
(0 0 0)
(0 0 0)
(0 0 0)
(0 0 0)
(0 0 0)
(0 0 0)
(0 0 0)
(0 0 0)
(0 0 0)
(0 0 0)
(0 0 0)
(0 0 0)
(0 0 0)
(0 0 0)
(0 0 0)
(0 0 0)
(0 0 0)
(0 0 0)
(0 0 0)
(0 0 0)
(0 0 0)
(0 0 0)
(0 0 0)
(0 0 0)
(0 0 0)
(0 0 0)
(0 0 0)
(0 0 0)
(0 0 0)
(0 0 0)
(0 0 0)
(0 0 0)
(0 0 0)
(0 0 0)
(0 0 0)
(0 0 0)
(0 0 0)
(0 0 0)
(0 0 0)
(0 0 0)
(0 0 0)
(0 0 0)
(0 0 0)
(0 0 0)
(0 0 0)
(0 0 0)
(0 0 0)
(0 0 0)
(0 0 0)
(0 0 0)
(0 0 0)
(0 0 0)
(0 0 0)
(0 0 0)
(0 0 0)
(0 0 0)
(0 0 0)
(0 0 0)
(0 0 0)
(0 0 0)
(0 0 0)
(0 0 0)
(0 0 0)
(0 0 0)
(0 0 0)
(0 0 0)
(0 0 0)
(0 0 0)
(0 0 0)
(0 0 0)
(0 0 0)
(0 0 0)
(0 0 0)
(0 0 0)
(0 0 0)
(0 0 0)
(0 0 0)
(0 0 0)
(0 0 0)
(0 0 0)
(0 0 0)
(0 0 0)
(0 0 0)
(0 0 0)
(0 0 0)
(0 0 0)
(0 0 0)
(0 0 0)
(0 0 0)
(0 0 0)
(0 0 0)
(0 0 0)
(0 0 0)
(0 0 0)
(0 0 0)
(0 0 0)
(0 0 0)
(0 0 0)
(0 0 0)
(0 0 0)
(0 0 0)
(0 0 0)
(0 0 0)
(0 0 0)
(0 0 0)
(0 0 0)
(0 0 0)
(0 0 0)
(0 0 0)
(0 0 0)
(0 0 0)
(0 0 0)
(0 0 0)
(0 0 0)
(0 0 0)
(0 0 0)
(0 0 0)
(0 0 0)
(0 0 0)
(0 0 0)
(0 0 0)
(0 0 0)
(0 0 0)
(0 0 0)
(0 0 0)
(0 0 0)
(0 0 0)
(0 0 0)
(0 0 0)
(0 0 0)
(0 0 0)
(0 0 0)
(0 0 0)
(0 0 0)
(0 0 0)
(0 0 0)
(0 0 0)
(0 0 0)
(0 0 0)
(0 0 0)
(0 0 0)
(0 0 0)
(0 0 0)
(0 0 0)
(0 0 0)
(0 0 0)
(0 0 0)
(0 0 0)
(0 0 0)
(0 0 0)
(0 0 0)
(0 0 0)
(0 0 0)
(0 0 0)
(0 0 0)
(0 0 0)
(0 0 0)
(0 0 0)
(0 0 0)
(0 0 0)
(0 0 0)
(0 0 0)
(0 0 0)
(0 0 0)
(0 0 0)
(0 0 0)
(0 0 0)
(0 0 0)
(0 0 0)
(0 0 0)
(0 0 0)
(0 0 0)
(0 0 0)
(0 0 0)
(0 0 0)
(0 0 0)
(0 0 0)
(0 0 0)
(0 0 0)
(0 0 0)
(0 0 0)
(0 0 0)
(0 0 0)
(0 0 0)
(0 0 0)
(0 0 0)
(0 0 0)
(0 0 0)
(0 0 0)
(0 0 0)
(0 0 0)
(0 0 0)
(0 0 0)
(0 0 0)
(0 0 0)
(0 0 0)
(0 0 0)
(0 0 0)
(0 0 0)
(0 0 0)
(0 0 0)
(0 0 0)
(0 0 0)
(0 0 0)
(0 0 0)
(0 0 0)
(0 0 0)
(0 0 0)
(0 0 0)
(0 0 0)
(0 0 0)
(0 0 0)
(0 0 0)
(0 0 0)
(0 0 0)
(0 0 0)
(0 0 0)
(0 0 0)
(0 0 0)
(0 0 0)
(0 0 0)
(0 0 0)
(0 0 0)
(0 0 0)
(0 0 0)
(0 0 0)
(0 0 0)
(0 0 0)
(0 0 0)
(0 0 0)
(0 0 0)
(0 0 0)
(0 0 0)
(0 0 0)
(0 0 0)
(0 0 0)
(0 0 0)
(0 0 0)
(0 0 0)
(0 0 0)
(0 0 0)
(0 0 0)
(0 0 0)
(0 0 0)
(0 0 0)
(0 0 0)
(0 0 0)
(0 0 0)
(0 0 0)
(0 0 0)
(0 0 0)
(0 0 0)
(0 0 0)
(0 0 0)
(0 0 0)
(0 0 0)
(0 0 0)
(0 0 0)
(0 0 0)
(0 0 0)
(0 0 0)
(0 0 0)
(0 0 0)
(0 0 0)
(0 0 0)
(0 0 0)
(0 0 0)
(0 0 0)
(0 0 0)
(0 0 0)
(0 0 0)
(0 0 0)
(0 0 0)
(0 0 0)
(0 0 0)
(0 0 0)
(0 0 0)
(0 0 0)
(0 0 0)
(0 0 0)
(0 0 0)
(0 0 0)
(0 0 0)
(0 0 0)
(0 0 0)
(0 0 0)
(0 0 0)
(0 0 0)
(0 0 0)
(0 0 0)
(0 0 0)
(0 0 0)
(0 0 0)
(0 0 0)
(0 0 0)
(0 0 0)
(0 0 0)
(0 0 0)
(0 0 0)