/*--------------------------------*- C++ -*----------------------------------*\
| =========                 |                                                 |
| \\      /  F ield         | OpenFOAM: The Open Source CFD Toolbox           |
|  \\    /   O peration     | Version:  v2106                                 |
|   \\  /    A nd           | Website:  www.openfoam.com                      |
|    \\/     M anipulation  |                                                 |
\*---------------------------------------------------------------------------*/
FoamFile
{
    version     2.0;
    format      ascii;
    arch        "LSB;label=32;scalar=64";
    class       pointVectorField;
    location    "0";
    object      pointDisplacement;
}
// * * * * * * * * * * * * * * * * * * * * * * * * * * * * * * * * * * * * * //

dimensions      [0 1 0 0 0 0 0];

internalField   nonuniform List<vector> 
24440
(
(0 0 0)
(0 0 0)
(0 0 0)
(0 0 0)
(0 0 0)
(0 0 0)
(0 0 0)
(0 0 0)
(0 0 0)
(0 0 0)
(0 0 0)
(0 0 0)
(0 0 0)
(0 0 0)
(0 0 0)
(0 0 0)
(0 0 0)
(0 0 0)
(0 0 0)
(0 0 0)
(0 0 0)
(0 0 0)
(0 0 0)
(0 0 0)
(0 0 0)
(0 0 0)
(0 0 0)
(0 0 0)
(0 0 0)
(0 0 0)
(0 0 0)
(0 0 0)
(0 0 0)
(0 0 0)
(0 0 0)
(0 0 0)
(0 0 0)
(0 0 0)
(0 0 0)
(0 0 0)
(0 0 0)
(0 0 0)
(0 0 0)
(0 0 0)
(0 0 0)
(0 0 0)
(0 0 0)
(0 0 0)
(0 0 0)
(0 0 0)
(0 0 0)
(0 0 0)
(0 0 0)
(0 0 0)
(0 0 0)
(0 0 0)
(0 0 0)
(0 0 0)
(0 0 0)
(0 0 0)
(0 0 0)
(0 0 0)
(0 0 0)
(0 0 0)
(0 0 0)
(0 0 0)
(0 0 0)
(0 0 0)
(0 0 0)
(0 0 0)
(0 0 0)
(0 0 0)
(0 0 0)
(0 0 0)
(0 0 0)
(0 0 0)
(0 0 0)
(0 0 0)
(0 0 0)
(0 0 0)
(0 0 0)
(0 0 0)
(0 0 0)
(0 0 0)
(0 0 0)
(0 0 0)
(0 0 0)
(0 0 0)
(0 0 0)
(0 0 0)
(0 0 0)
(0 0 0)
(0 0 0)
(0 0 0)
(0 0 0)
(0 0 0)
(0 0 0)
(0 0 0)
(0 -6.52943e-07 0)
(0 -4.1175e-06 0)
(0 -1.13222e-05 0)
(0 -1.7447e-05 0)
(0 -1.97975e-05 0)
(0 -1.7447e-05 0)
(0 -1.13222e-05 0)
(0 -4.1175e-06 0)
(0 -6.52943e-07 0)
(0 0 0)
(0 0 0)
(0 0 0)
(0 0 0)
(0 0 0)
(0 0 0)
(0 0 0)
(0 0 0)
(0 0 0)
(0 0 0)
(0 0 0)
(0 0 0)
(0 0 0)
(0 0 0)
(0 0 0)
(0 0 0)
(0 0 0)
(0 0 0)
(0 0 0)
(0 0 0)
(0 0 0)
(0 0 0)
(0 0 0)
(0 0 0)
(0 0 0)
(0 0 0)
(0 0 0)
(0 0 0)
(0 0 0)
(0 -1.0935e-06 0)
(0 -1.44652e-05 0)
(0 -4.25701e-05 0)
(0 -7.66872e-05 0)
(0 -0.000109387 0)
(0 -0.000132183 0)
(0 -0.000153375 0)
(0 -0.000160832 0)
(0 -0.000153375 0)
(0 -0.000132183 0)
(0 -0.000109387 0)
(0 -7.66872e-05 0)
(0 -4.25701e-05 0)
(0 -1.44652e-05 0)
(0 -1.0935e-06 0)
(0 0 0)
(0 0 0)
(0 0 0)
(0 0 0)
(0 0 0)
(0 0 0)
(0 0 0)
(0 0 0)
(0 0 0)
(0 0 0)
(0 0 0)
(0 0 0)
(0 0 0)
(0 0 0)
(0 0 0)
(0 0 0)
(0 0 0)
(0 0 0)
(0 0 0)
(0 0 0)
(0 0 0)
(0 0 0)
(0 0 0)
(0 0 0)
(0 -4.59115e-07 0)
(0 -1.90231e-05 0)
(0 -6.48749e-05 0)
(0 -0.000127932 0)
(0 -0.000192881 0)
(0 -0.000265341 0)
(0 -0.000328096 0)
(0 -0.000366962 0)
(0 -0.000404126 0)
(0 -0.00041697 0)
(0 -0.000404126 0)
(0 -0.000366962 0)
(0 -0.000328096 0)
(0 -0.000265341 0)
(0 -0.000192881 0)
(0 -0.000127932 0)
(0 -6.48749e-05 0)
(0 -1.90231e-05 0)
(0 -4.59115e-07 0)
(0 0 0)
(0 0 0)
(0 0 0)
(0 0 0)
(0 0 0)
(0 0 0)
(0 0 0)
(0 0 0)
(0 0 0)
(0 0 0)
(0 0 0)
(0 0 0)
(0 0 0)
(0 0 0)
(0 0 0)
(0 0 0)
(0 0 0)
(0 0 0)
(0 0 0)
(0 0 0)
(0 0 0)
(0 -4.34116e-06 0)
(0 -4.51456e-05 0)
(0 -0.000119977 0)
(0 -0.000210501 0)
(0 -0.000322896 0)
(0 -0.000436257 0)
(0 -0.000534463 0)
(0 -0.000626458 0)
(0 -0.000691739 0)
(0 -0.000730743 0)
(0 -0.000748647 0)
(0 -0.000730743 0)
(0 -0.000691739 0)
(0 -0.000626458 0)
(0 -0.000534463 0)
(0 -0.000436257 0)
(0 -0.000322896 0)
(0 -0.000210501 0)
(0 -0.000119977 0)
(0 -4.51456e-05 0)
(0 -4.59585e-06 0)
(0 0 0)
(0 0 0)
(0 0 0)
(0 0 0)
(0 0 0)
(0 0 0)
(0 0 0)
(0 0 0)
(0 0 0)
(0 0 0)
(0 0 0)
(0 0 0)
(0 0 0)
(0 0 0)
(0 0 0)
(0 0 0)
(0 0 0)
(0 0 0)
(0 0 0)
(0 -8.53809e-06 0)
(0 -5.9869e-05 0)
(0 -0.000149426 0)
(0 -0.000274322 0)
(0 -0.000422757 0)
(0 -0.000577004 0)
(0 -0.000718553 0)
(0 -0.000852743 0)
(0 -0.000903167 0)
(0 -0.000957696 0)
(0 -0.00100331 0)
(0 -0.00103924 0)
(0 -0.00106494 0)
(0 -0.00108271 0)
(0 -0.00109913 0)
(0 -0.00110463 0)
(0 -0.00109913 0)
(0 -0.00108271 0)
(0 -0.00106494 0)
(0 -0.00103924 0)
(0 -0.00100331 0)
(0 -0.000957696 0)
(0 -0.000903167 0)
(0 -0.000852743 0)
(0 -0.000718553 0)
(0 -0.000577004 0)
(0 -0.000422757 0)
(0 -0.000274322 0)
(0 -0.000146324 0)
(0 -5.40977e-05 0)
(0 -6.82249e-06 0)
(0 0 0)
(0 0 0)
(0 0 0)
(0 0 0)
(0 0 0)
(0 0 0)
(0 0 0)
(0 0 0)
(0 0 0)
(0 0 0)
(0 0 0)
(0 0 0)
(0 0 0)
(0 0 0)
(0 0 0)
(0 0 0)
(0 0 0)
(0 -5.02196e-06 0)
(0 -5.7471e-05 0)
(0 -0.000160125 0)
(0 -0.000301307 0)
(0 -0.00046668 0)
(0 -0.000661253 0)
(0 -0.000754288 0)
(0 -0.000836751 0)
(0 -0.000928021 0)
(0 -0.00101357 0)
(0 -0.00109184 0)
(0 -0.00115834 0)
(0 -0.00100951 0)
(0 -0.00107114 0)
(0 -0.00111979 0)
(0 -0.00116885 0)
(0 -0.00120734 0)
(0 -0.00123477 0)
(0 -0.00125121 0)
(0 -0.00126864 0)
(0 -0.00127447 0)
(0 -0.00126864 0)
(0 -0.00125121 0)
(0 -0.00123477 0)
(0 -0.00120734 0)
(0 -0.00116885 0)
(0 -0.00111979 0)
(0 -0.00107114 0)
(0 -0.00100951 0)
(0 -0.00115834 0)
(0 -0.00109184 0)
(0 -0.00101357 0)
(0 -0.000928021 0)
(0 -0.000836751 0)
(0 -0.000754288 0)
(0 -0.000661253 0)
(0 -0.00046668 0)
(0 -0.000301307 0)
(0 -0.000154284 0)
(0 -5.49706e-05 0)
(0 -4.56067e-06 0)
(0 0 0)
(0 0 0)
(0 0 0)
(0 0 0)
(0 0 0)
(0 0 0)
(0 0 0)
(0 0 0)
(0 0 0)
(0 0 0)
(0 0 0)
(0 0 0)
(0 0 0)
(0 0 0)
(0 0 0)
(0 0 0)
(0 -3.17749e-05 0)
(0 -0.000129853 0)
(0 -0.000277607 0)
(0 -0.000463203 0)
(0 -0.000669915 0)
(0 -0.000879958 0)
(0 -0.000774523 0)
(0 -0.000875694 0)
(0 -0.000973046 0)
(0 -0.00106471 0)
(0 -0.00114615 0)
(0 -0.00122875 0)
(0 -0.00130173 0)
(0 -0.00136203 0)
(0 -0.00122383 0)
(0 -0.00127899 0)
(0 -0.00141889 0)
(0 -0.00145983 0)
(0 -0.00132288 0)
(0 -0.00136304 0)
(0 -0.00150055 0)
(0 -0.00152921 0)
(0 -0.00139152 0)
(0 -0.00140596 0)
(0 -0.00154582 0)
(0 -0.001559 0)
(0 -0.00142393 0)
(0 -0.00142992 0)
(0 -0.00156496 0)
(0 -0.001559 0)
(0 -0.00142393 0)
(0 -0.00140596 0)
(0 -0.00154582 0)
(0 -0.00152921 0)
(0 -0.00139152 0)
(0 -0.00136304 0)
(0 -0.00150055 0)
(0 -0.00145983 0)
(0 -0.00132288 0)
(0 -0.00127899 0)
(0 -0.00141889 0)
(0 -0.00136203 0)
(0 -0.00122383 0)
(0 -0.00130173 0)
(0 -0.00122875 0)
(0 -0.00114615 0)
(0 -0.00106471 0)
(0 -0.000973046 0)
(0 -0.000875694 0)
(0 -0.000774523 0)
(0 -0.000879958 0)
(0 -0.000669915 0)
(0 -0.000457628 0)
(0 -0.000275416 0)
(0 -0.000129714 0)
(0 -3.45443e-05 0)
(0 0 0)
(0 0 0)
(0 0 0)
(0 0 0)
(0 0 0)
(0 0 0)
(0 0 0)
(0 0 0)
(0 0 0)
(0 0 0)
(0 0 0)
(0 0 0)
(0 0 0)
(0 0 0)
(0 0 0)
(0 -6.93165e-06 0)
(0 -7.12137e-05 0)
(0 -0.000205272 0)
(0 -0.000384598 0)
(0 -0.000597784 0)
(0 -0.000842031 0)
(0 -0.0010773 0)
(0 -0.00098574 0)
(0 -0.00109232 0)
(0 -0.000980812 0)
(0 -0.00109051 0)
(0 -0.0011925 0)
(0 -0.001293 0)
(0 -0.00118705 0)
(0 -0.00127521 0)
(0 -0.00138361 0)
(0 -0.00142493 0)
(0 -0.00146339 0)
(0 -0.00141109 0)
(0 -0.00134964 0)
(0 -0.00142453 0)
(0 -0.00147824 0)
(0 -0.00151142 0)
(0 -0.00145769 0)
(0 -0.00153836 0)
(0 -0.00158931 0)
(0 -0.00161288 0)
(0 -0.0015623 0)
(0 -0.00161504 0)
(0 -0.00166488 0)
(0 -0.00167731 0)
(0 -0.00163039 0)
(0 -0.00165861 0)
(0 -0.00170428 0)
(0 -0.00171078 0)
(0 -0.00166616 0)
(0 -0.00167429 0)
(0 -0.00171794 0)
(0 -0.00171662 0)
(0 -0.00167289 0)
(0 -0.00165861 0)
(0 -0.00170428 0)
(0 -0.00169811 0)
(0 -0.00165212 0)
(0 -0.00161504 0)
(0 -0.00166488 0)
(0 -0.00165062 0)
(0 -0.00160089 0)
(0 -0.00153836 0)
(0 -0.00158931 0)
(0 -0.0015685 0)
(0 -0.00151134 0)
(0 -0.00142453 0)
(0 -0.00147824 0)
(0 -0.00144205 0)
(0 -0.00138848 0)
(0 -0.00127521 0)
(0 -0.00138361 0)
(0 -0.001293 0)
(0 -0.00118705 0)
(0 -0.00109051 0)
(0 -0.0011925 0)
(0 -0.00109232 0)
(0 -0.000980812 0)
(0 -0.00098574 0)
(0 -0.00107244 0)
(0 -0.00084145 0)
(0 -0.000607419 0)
(0 -0.000381368 0)
(0 -0.000203274 0)
(0 -7.47829e-05 0)
(0 -7.9267e-06 0)
(0 0 0)
(0 0 0)
(0 0 0)
(0 0 0)
(0 0 0)
(0 0 0)
(0 0 0)
(0 0 0)
(0 0 0)
(0 0 0)
(0 0 0)
(0 0 0)
(0 0 0)
(0 0 0)
(0 -2.26787e-05 0)
(0 -0.000114778 0)
(0 -0.000269678 0)
(0 -0.00047386 0)
(0 -0.000709822 0)
(0 -0.000969356 0)
(0 -0.00121158 0)
(0 -0.00115181 0)
(0 -0.0012658 0)
(0 -0.00118822 0)
(0 -0.00129179 0)
(0 -0.00137151 0)
(0 -0.00146698 0)
(0 -0.00138613 0)
(0 -0.0014697 0)
(0 -0.00151299 0)
(0 -0.00155022 0)
(0 -0.00151293 0)
(0 -0.00161812 0)
(0 -0.00163603 0)
(0 -0.00165049 0)
(0 -0.00163274 0)
(0 -0.00171295 0)
(0 -0.00172727 0)
(0 -0.00173657 0)
(0 -0.00172254 0)
(0 -0.00176908 0)
(0 -0.00177952 0)
(0 -0.00178425 0)
(0 -0.00177374 0)
(0 -0.00179368 0)
(0 -0.00180133 0)
(0 -0.00180243 0)
(0 -0.00179499 0)
(0 -0.00179997 0)
(0 -0.00180614 0)
(0 -0.00180603 0)
(0 -0.00179982 0)
(0 -0.00179368 0)
(0 -0.00180133 0)
(0 -0.00179982 0)
(0 -0.00179188 0)
(0 -0.00176908 0)
(0 -0.00177952 0)
(0 -0.00177554 0)
(0 -0.00176347 0)
(0 -0.00171295 0)
(0 -0.00172727 0)
(0 -0.00171918 0)
(0 -0.00170251 0)
(0 -0.00161812 0)
(0 -0.00163603 0)
(0 -0.00165242 0)
(0 -0.00162124 0)
(0 -0.00158637 0)
(0 -0.0014697 0)
(0 -0.00151299 0)
(0 -0.00155059 0)
(0 -0.00146698 0)
(0 -0.00138613 0)
(0 -0.00129179 0)
(0 -0.00136838 0)
(0 -0.00126498 0)
(0 -0.00118822 0)
(0 -0.00115319 0)
(0 -0.00121517 0)
(0 -0.00096692 0)
(0 -0.000716893 0)
(0 -0.000478829 0)
(0 -0.000272802 0)
(0 -0.000116416 0)
(0 -2.32382e-05 0)
(0 0 0)
(0 0 0)
(0 0 0)
(0 0 0)
(0 0 0)
(0 0 0)
(0 0 0)
(0 0 0)
(0 0 0)
(0 0 0)
(0 0 0)
(0 0 0)
(0 0 0)
(0 0 0)
(0 -3.497e-05 0)
(0 -0.000142587 0)
(0 -0.000313778 0)
(0 -0.000534089 0)
(0 -0.000784963 0)
(0 -0.00104532 0)
(0 -0.00129337 0)
(0 -0.00126264 0)
(0 -0.00137572 0)
(0 -0.00132323 0)
(0 -0.0014256 0)
(0 -0.00147875 0)
(0 -0.00156969 0)
(0 -0.00152576 0)
(0 -0.00160855 0)
(0 -0.001629 0)
(0 -0.00166463 0)
(0 -0.00164465 0)
(0 -0.00173044 0)
(0 -0.00173989 0)
(0 -0.00175055 0)
(0 -0.0017414 0)
(0 -0.00179619 0)
(0 -0.00180075 0)
(0 -0.00180456 0)
(0 -0.00180053 0)
(0 -0.00181193 0)
(0 -0.00181193 0)
(0 -0.00181193 0)
(0 -0.00181193 0)
(0 -0.00181193 0)
(0 -0.00181193 0)
(0 -0.00181193 0)
(0 -0.00181193 0)
(0 -0.00181193 0)
(0 -0.00181193 0)
(0 -0.00181193 0)
(0 -0.00181193 0)
(0 -0.00181193 0)
(0 -0.00181193 0)
(0 -0.00181193 0)
(0 -0.00181193 0)
(0 -0.00181193 0)
(0 -0.00181193 0)
(0 -0.00181193 0)
(0 -0.00181193 0)
(0 -0.00179619 0)
(0 -0.00180075 0)
(0 -0.00179573 0)
(0 -0.00179096 0)
(0 -0.00173044 0)
(0 -0.00173989 0)
(0 -0.00174796 0)
(0 -0.00172331 0)
(0 -0.00170566 0)
(0 -0.00160762 0)
(0 -0.00163137 0)
(0 -0.00164952 0)
(0 -0.00156751 0)
(0 -0.00152712 0)
(0 -0.00143372 0)
(0 -0.00147691 0)
(0 -0.00137426 0)
(0 -0.00132907 0)
(0 -0.00126157 0)
(0 -0.00129402 0)
(0 -0.00104489 0)
(0 -0.000783716 0)
(0 -0.000532376 0)
(0 -0.000311992 0)
(0 -0.000141108 0)
(0 -3.41305e-05 0)
(0 0 0)
(0 0 0)
(0 0 0)
(0 0 0)
(0 0 0)
(0 0 0)
(0 0 0)
(0 0 0)
(0 0 0)
(0 0 0)
(0 0 0)
(0 0 0)
(0 0 0)
(0 0 0)
(0 -3.70761e-05 0)
(0 -0.000147145 0)
(0 -0.000320963 0)
(0 -0.000543926 0)
(0 -0.0007973 0)
(0 -0.0010598 0)
(0 -0.00130936 0)
(0 -0.00130982 0)
(0 -0.00142302 0)
(0 -0.00140624 0)
(0 -0.0015085 0)
(0 -0.0015253 0)
(0 -0.0016145 0)
(0 -0.00159807 0)
(0 -0.00167604 0)
(0 -0.00168357 0)
(0 -0.00171483 0)
(0 -0.00170804 0)
(0 -0.00177859 0)
(0 -0.0017815 0)
(0 -0.00178922 0)
(0 -0.00178653 0)
(0 -0.00181193 0)
(0 -0.00181193 0)
(0 -0.00181193 0)
(0 -0.00181193 0)
(0 -0.00181193 0)
(0 -0.00181193 0)
(0 -0.00181193 0)
(0 -0.00181193 0)
(0 -0.00181193 0)
(0 -0.00181193 0)
(0 -0.00181193 0)
(0 -0.00181193 0)
(0 -0.00181193 0)
(0 -0.00181193 0)
(0 -0.00181193 0)
(0 -0.00181193 0)
(0 -0.00181193 0)
(0 -0.00181186 0)
(0 -0.0018116 0)
(0 -0.00177859 0)
(0 -0.0017815 0)
(0 -0.00178342 0)
(0 -0.0017653 0)
(0 -0.00175891 0)
(0 -0.00167593 0)
(0 -0.00168368 0)
(0 -0.00168875 0)
(0 -0.0016145 0)
(0 -0.00160039 0)
(0 -0.0015103 0)
(0 -0.00152145 0)
(0 -0.00141861 0)
(0 -0.00140747 0)
(0 -0.00130493 0)
(0 -0.00130643 0)
(0 -0.00105654 0)
(0 -0.00079399 0)
(0 -0.000540853 0)
(0 -0.000318393 0)
(0 -0.000145301 0)
(0 -3.61206e-05 0)
(0 0 0)
(0 0 0)
(0 0 0)
(0 0 0)
(0 0 0)
(0 0 0)
(0 0 0)
(0 0 0)
(0 0 0)
(0 0 0)
(0 0 0)
(0 0 0)
(0 0 0)
(0 0 0)
(0 -3.02998e-05 0)
(0 -0.000132422 0)
(0 -0.00029792 0)
(0 -0.000512674 0)
(0 -0.000758505 0)
(0 -0.00101474 0)
(0 -0.00126005 0)
(0 -0.00129546 0)
(0 -0.00140847 0)
(0 -0.00142265 0)
(0 -0.00152502 0)
(0 -0.00151083 0)
(0 -0.00160045 0)
(0 -0.00161433 0)
(0 -0.00168868 0)
(0 -0.0016847 0)
(0 -0.00171595 0)
(0 -0.00171974 0)
(0 -0.0017866 0)
(0 -0.00178565 0)
(0 -0.00179288 0)
(0 -0.00179374 0)
(0 -0.00181193 0)
(0 -0.00181193 0)
(0 -0.00181193 0)
(0 -0.00181193 0)
(0 -0.00181193 0)
(0 -0.00181193 0)
(0 -0.00181193 0)
(0 -0.00181193 0)
(0 -0.00181193 0)
(0 -0.00181193 0)
(0 -0.00181193 0)
(0 -0.00181193 0)
(0 -0.00181193 0)
(0 -0.00181193 0)
(0 -0.00181193 0)
(0 -0.00181193 0)
(0 -0.0017866 0)
(0 -0.00178488 0)
(0 -0.00178394 0)
(0 -0.00176586 0)
(0 -0.00176792 0)
(0 -0.00168711 0)
(0 -0.00168458 0)
(0 -0.00167689 0)
(0 -0.00160155 0)
(0 -0.00161235 0)
(0 -0.00152268 0)
(0 -0.00151163 0)
(0 -0.00140895 0)
(0 -0.00141998 0)
(0 -0.00129561 0)
(0 -0.00126326 0)
(0 -0.00101709 0)
(0 -0.000760041 0)
(0 -0.00051352 0)
(0 -0.000298256 0)
(0 -0.000132455 0)
(0 -3.02336e-05 0)
(0 0 0)
(0 0 0)
(0 0 0)
(0 0 0)
(0 0 0)
(0 0 0)
(0 0 0)
(0 0 0)
(0 0 0)
(0 0 0)
(0 0 0)
(0 0 0)
(0 0 0)
(0 0 0)
(0 -1.53252e-05 0)
(0 -9.62602e-05 0)
(0 -0.000239428 0)
(0 -0.00043197 0)
(0 -0.000671592 0)
(0 -0.00091662 0)
(0 -0.00115562 0)
(0 -0.001219 0)
(0 -0.0013323 0)
(0 -0.00137224 0)
(0 -0.00148111 0)
(0 -0.00143627 0)
(0 -0.00152893 0)
(0 -0.00157346 0)
(0 -0.00165189 0)
(0 -0.00163309 0)
(0 -0.00166718 0)
(0 -0.00168543 0)
(0 -0.00176197 0)
(0 -0.00175663 0)
(0 -0.00176635 0)
(0 -0.00177206 0)
(0 -0.00180974 0)
(0 -0.00180788 0)
(0 -0.0018101 0)
(0 -0.00181125 0)
(0 -0.00181193 0)
(0 -0.00181193 0)
(0 -0.00181193 0)
(0 -0.00181193 0)
(0 -0.00181193 0)
(0 -0.00181193 0)
(0 -0.00181193 0)
(0 -0.00181193 0)
(0 -0.00180974 0)
(0 -0.00180761 0)
(0 -0.00180466 0)
(0 -0.0018073 0)
(0 -0.00176197 0)
(0 -0.00175663 0)
(0 -0.00174936 0)
(0 -0.00172632 0)
(0 -0.00174054 0)
(0 -0.00165189 0)
(0 -0.00163309 0)
(0 -0.00161175 0)
(0 -0.00152893 0)
(0 -0.00157346 0)
(0 -0.00147835 0)
(0 -0.00143627 0)
(0 -0.0013323 0)
(0 -0.00137584 0)
(0 -0.001219 0)
(0 -0.00115562 0)
(0 -0.00091662 0)
(0 -0.000662937 0)
(0 -0.000436217 0)
(0 -0.000242212 0)
(0 -9.77845e-05 0)
(0 -1.58402e-05 0)
(0 0 0)
(0 0 0)
(0 0 0)
(0 0 0)
(0 0 0)
(0 0 0)
(0 0 0)
(0 0 0)
(0 0 0)
(0 0 0)
(0 0 0)
(0 0 0)
(0 0 0)
(0 0 0)
(0 -1.89626e-06 0)
(0 -5.62901e-05 0)
(0 -0.00017141 0)
(0 -0.000337062 0)
(0 -0.000538101 0)
(0 -0.000756885 0)
(0 -0.000986465 0)
(0 -0.00107352 0)
(0 -0.00119025 0)
(0 -0.00126679 0)
(0 -0.00137493 0)
(0 -0.00129245 0)
(0 -0.0013948 0)
(0 -0.00146896 0)
(0 -0.00155537 0)
(0 -0.00152072 0)
(0 -0.00155889 0)
(0 -0.00159324 0)
(0 -0.00168597 0)
(0 -0.00167054 0)
(0 -0.00168457 0)
(0 -0.00169738 0)
(0 -0.00176792 0)
(0 -0.00175777 0)
(0 -0.00176518 0)
(0 -0.00177493 0)
(0 -0.00180456 0)
(0 -0.00179889 0)
(0 -0.00180138 0)
(0 -0.00180656 0)
(0 -0.00181193 0)
(0 -0.00181092 0)
(0 -0.00181132 0)
(0 -0.00181193 0)
(0 -0.00181193 0)
(0 -0.00181193 0)
(0 -0.00181193 0)
(0 -0.00181193 0)
(0 -0.00181193 0)
(0 -0.00181193 0)
(0 -0.00181092 0)
(0 -0.00181037 0)
(0 -0.00181187 0)
(0 -0.00181192 0)
(0 -0.00180456 0)
(0 -0.00179889 0)
(0 -0.00179581 0)
(0 -0.00180199 0)
(0 -0.00176792 0)
(0 -0.00175777 0)
(0 -0.00174952 0)
(0 -0.00176003 0)
(0 -0.00168721 0)
(0 -0.00167304 0)
(0 -0.00165602 0)
(0 -0.00162788 0)
(0 -0.00165848 0)
(0 -0.00155109 0)
(0 -0.00151896 0)
(0 -0.00148142 0)
(0 -0.00139288 0)
(0 -0.00146896 0)
(0 -0.00137493 0)
(0 -0.00129245 0)
(0 -0.00119025 0)
(0 -0.00126679 0)
(0 -0.00107352 0)
(0 -0.000986465 0)
(0 -0.000756885 0)
(0 -0.000538101 0)
(0 -0.000337062 0)
(0 -0.00017141 0)
(0 -5.25074e-05 0)
(0 -2.27775e-06 0)
(0 0 0)
(0 0 0)
(0 0 0)
(0 0 0)
(0 0 0)
(0 0 0)
(0 0 0)
(0 0 0)
(0 0 0)
(0 0 0)
(0 0 0)
(0 0 0)
(0 0 0)
(0 0 0)
(0 0 0)
(0 -1.7302e-05 0)
(0 -9.11748e-05 0)
(0 -0.000214514 0)
(0 -0.000374454 0)
(0 -0.00057429 0)
(0 -0.000780908 0)
(0 -0.000878377 0)
(0 -0.000993392 0)
(0 -0.00109175 0)
(0 -0.00119837 0)
(0 -0.00109694 0)
(0 -0.00119375 0)
(0 -0.00129859 0)
(0 -0.00138934 0)
(0 -0.00128212 0)
(0 -0.00135611 0)
(0 -0.00141754 0)
(0 -0.00146918 0)
(0 -0.00143069 0)
(0 -0.00153784 0)
(0 -0.00148415 0)
(0 -0.00151734 0)
(0 -0.0015682 0)
(0 -0.00164421 0)
(0 -0.00159818 0)
(0 -0.00161659 0)
(0 -0.0016643 0)
(0 -0.00171156 0)
(0 -0.00167077 0)
(0 -0.00168275 0)
(0 -0.00172286 0)
(0 -0.00174649 0)
(0 -0.00170885 0)
(0 -0.0017155 0)
(0 -0.00175112 0)
(0 -0.00175731 0)
(0 -0.00172255 0)
(0 -0.00172076 0)
(0 -0.00175589 0)
(0 -0.00174649 0)
(0 -0.00170885 0)
(0 -0.00169943 0)
(0 -0.00173923 0)
(0 -0.00171156 0)
(0 -0.00167077 0)
(0 -0.0016558 0)
(0 -0.00169731 0)
(0 -0.00164421 0)
(0 -0.00159818 0)
(0 -0.00157438 0)
(0 -0.00162091 0)
(0 -0.00153784 0)
(0 -0.00148415 0)
(0 -0.00145299 0)
(0 -0.00150467 0)
(0 -0.00138934 0)
(0 -0.00128212 0)
(0 -0.00119375 0)
(0 -0.00129859 0)
(0 -0.00119837 0)
(0 -0.00109694 0)
(0 -0.000993392 0)
(0 -0.00109175 0)
(0 -0.000878377 0)
(0 -0.000780908 0)
(0 -0.00057429 0)
(0 -0.000374454 0)
(0 -0.000214514 0)
(0 -9.11748e-05 0)
(0 -1.7302e-05 0)
(0 0 0)
(0 0 0)
(0 0 0)
(0 0 0)
(0 0 0)
(0 0 0)
(0 0 0)
(0 0 0)
(0 0 0)
(0 0 0)
(0 0 0)
(0 0 0)
(0 0 0)
(0 0 0)
(0 0 0)
(0 0 0)
(0 0 0)
(0 -2.60733e-05 0)
(0 -0.000107663 0)
(0 -0.000230799 0)
(0 -0.000383512 0)
(0 -0.000550782 0)
(0 -0.000715903 0)
(0 -0.000844042 0)
(0 -0.000980297 0)
(0 -0.000882537 0)
(0 -0.000935742 0)
(0 -0.00107231 0)
(0 -0.00115348 0)
(0 -0.00102166 0)
(0 -0.00110025 0)
(0 -0.00123631 0)
(0 -0.00130947 0)
(0 -0.00124177 0)
(0 -0.0012679 0)
(0 -0.00134211 0)
(0 -0.00142537 0)
(0 -0.0013588 0)
(0 -0.0013835 0)
(0 -0.00145026 0)
(0 -0.00150699 0)
(0 -0.00144004 0)
(0 -0.00145108 0)
(0 -0.00151987 0)
(0 -0.00155594 0)
(0 -0.00149164 0)
(0 -0.00149915 0)
(0 -0.00156338 0)
(0 -0.00157214 0)
(0 -0.00150825 0)
(0 -0.00150516 0)
(0 -0.00156933 0)
(0 -0.00155594 0)
(0 -0.00149164 0)
(0 -0.00148112 0)
(0 -0.00154548 0)
(0 -0.00150699 0)
(0 -0.00144004 0)
(0 -0.00142415 0)
(0 -0.00149109 0)
(0 -0.00142537 0)
(0 -0.0013588 0)
(0 -0.00133125 0)
(0 -0.00139754 0)
(0 -0.00130947 0)
(0 -0.00124177 0)
(0 -0.00116352 0)
(0 -0.00110025 0)
(0 -0.00123631 0)
(0 -0.00115348 0)
(0 -0.00102166 0)
(0 -0.000935742 0)
(0 -0.00107231 0)
(0 -0.000980297 0)
(0 -0.000844042 0)
(0 -0.000715903 0)
(0 -0.000550782 0)
(0 -0.000882537 0)
(0 -0.000383512 0)
(0 -0.000230799 0)
(0 -0.000107663 0)
(0 -2.60733e-05 0)
(0 0 0)
(0 0 0)
(0 0 0)
(0 0 0)
(0 0 0)
(0 0 0)
(0 0 0)
(0 0 0)
(0 0 0)
(0 0 0)
(0 0 0)
(0 0 0)
(0 0 0)
(0 0 0)
(0 0 0)
(0 0 0)
(0 0 0)
(0 0 0)
(0 -3.30643e-07 0)
(0 -2.96202e-05 0)
(0 -0.000100373 0)
(0 -0.000196695 0)
(0 -0.000321948 0)
(0 -0.000455529 0)
(0 -0.000584683 0)
(0 -0.000660079 0)
(0 -0.000800027 0)
(0 -0.000879371 0)
(0 -0.000723635 0)
(0 -0.00079534 0)
(0 -0.000944748 0)
(0 -0.00101643 0)
(0 -0.000939403 0)
(0 -0.000970932 0)
(0 -0.00104921 0)
(0 -0.00113371 0)
(0 -0.00105242 0)
(0 -0.00107485 0)
(0 -0.0011569 0)
(0 -0.00120946 0)
(0 -0.00112806 0)
(0 -0.00114618 0)
(0 -0.0012281 0)
(0 -0.00126718 0)
(0 -0.00118422 0)
(0 -0.00119132 0)
(0 -0.00127446 0)
(0 -0.00128406 0)
(0 -0.00120092 0)
(0 -0.00119701 0)
(0 -0.0012803 0)
(0 -0.00126718 0)
(0 -0.00118422 0)
(0 -0.00117431 0)
(0 -0.00125701 0)
(0 -0.00120946 0)
(0 -0.00112806 0)
(0 -0.00110732 0)
(0 -0.00119533 0)
(0 -0.00113371 0)
(0 -0.00105242 0)
(0 -0.00102756 0)
(0 -0.00110796 0)
(0 -0.00101643 0)
(0 -0.000939403 0)
(0 -0.000860982 0)
(0 -0.00079534 0)
(0 -0.000944748 0)
(0 -0.000879371 0)
(0 -0.000723635 0)
(0 -0.000660079 0)
(0 -0.000800027 0)
(0 -0.000584683 0)
(0 -0.000455529 0)
(0 -0.000321948 0)
(0 -0.000196695 0)
(0 -0.000100373 0)
(0 -2.96202e-05 0)
(0 -3.30643e-07 0)
(0 0 0)
(0 0 0)
(0 0 0)
(0 0 0)
(0 0 0)
(0 0 0)
(0 0 0)
(0 0 0)
(0 0 0)
(0 0 0)
(0 0 0)
(0 0 0)
(0 0 0)
(0 0 0)
(0 0 0)
(0 0 0)
(0 0 0)
(0 0 0)
(0 0 0)
(0 0 0)
(0 -1.55555e-05 0)
(0 -6.47881e-05 0)
(0 -0.000131248 0)
(0 -0.000220997 0)
(0 -0.000326777 0)
(0 -0.000385324 0)
(0 -0.000513442 0)
(0 -0.000580681 0)
(0 -0.000442699 0)
(0 -0.000497458 0)
(0 -0.000644303 0)
(0 -0.000702915 0)
(0 -0.000624784 0)
(0 -0.000650116 0)
(0 -0.00072995 0)
(0 -0.000800341 0)
(0 -0.000716241 0)
(0 -0.000728308 0)
(0 -0.000811215 0)
(0 -0.000872424 0)
(0 -0.000786106 0)
(0 -0.000801224 0)
(0 -0.000888405 0)
(0 -0.000922083 0)
(0 -0.000833123 0)
(0 -0.000839104 0)
(0 -0.000928392 0)
(0 -0.000937584 0)
(0 -0.000848028 0)
(0 -0.000843907 0)
(0 -0.000933456 0)
(0 -0.000922083 0)
(0 -0.000833123 0)
(0 -0.000824788 0)
(0 -0.000913289 0)
(0 -0.000872424 0)
(0 -0.000786106 0)
(0 -0.000768856 0)
(0 -0.000854175 0)
(0 -0.000800341 0)
(0 -0.000716241 0)
(0 -0.000695966 0)
(0 -0.000778784 0)
(0 -0.000702915 0)
(0 -0.000624784 0)
(0 -0.000548274 0)
(0 -0.000497458 0)
(0 -0.000644303 0)
(0 -0.000580681 0)
(0 -0.000442699 0)
(0 -0.000385324 0)
(0 -0.000513442 0)
(0 -0.000326777 0)
(0 -0.000220997 0)
(0 -0.000131248 0)
(0 -6.47881e-05 0)
(0 -1.55555e-05 0)
(0 0 0)
(0 0 0)
(0 0 0)
(0 0 0)
(0 0 0)
(0 0 0)
(0 0 0)
(0 0 0)
(0 0 0)
(0 0 0)
(0 0 0)
(0 0 0)
(0 0 0)
(0 0 0)
(0 0 0)
(0 0 0)
(0 0 0)
(0 0 0)
(0 0 0)
(0 0 0)
(0 0 0)
(0 0 0)
(0 0 0)
(0 -1.32467e-06 0)
(0 -2.24696e-05 0)
(0 -6.27094e-05 0)
(0 -0.000131551 0)
(0 -0.000167366 0)
(0 -0.00026828 0)
(0 -0.000315275 0)
(0 -0.000203733 0)
(0 -0.000239422 0)
(0 -0.000360638 0)
(0 -0.000403125 0)
(0 -0.000335944 0)
(0 -0.000353815 0)
(0 -0.000422931 0)
(0 -0.000470635 0)
(0 -0.000398313 0)
(0 -0.00041508 0)
(0 -0.00048906 0)
(0 -0.000535489 0)
(0 -0.000457452 0)
(0 -0.000468629 0)
(0 -0.000547707 0)
(0 -0.000573584 0)
(0 -0.000492337 0)
(0 -0.0004968 0)
(0 -0.000578451 0)
(0 -0.000586223 0)
(0 -0.000504086 0)
(0 -0.000500389 0)
(0 -0.000582362 0)
(0 -0.000573584 0)
(0 -0.000492337 0)
(0 -0.000486126 0)
(0 -0.00056681 0)
(0 -0.000535489 0)
(0 -0.000457452 0)
(0 -0.000444746 0)
(0 -0.000521585 0)
(0 -0.000470635 0)
(0 -0.000398313 0)
(0 -0.000380399 0)
(0 -0.000450917 0)
(0 -0.000403125 0)
(0 -0.000335944 0)
(0 -0.000273283 0)
(0 -0.000239422 0)
(0 -0.000360638 0)
(0 -0.000315275 0)
(0 -0.000203733 0)
(0 -0.000167366 0)
(0 -0.00026828 0)
(0 -0.000131551 0)
(0 -6.27094e-05 0)
(0 -2.24696e-05 0)
(0 -1.32467e-06 0)
(0 0 0)
(0 0 0)
(0 0 0)
(0 0 0)
(0 0 0)
(0 0 0)
(0 0 0)
(0 0 0)
(0 0 0)
(0 0 0)
(0 0 0)
(0 0 0)
(0 0 0)
(0 0 0)
(0 0 0)
(0 0 0)
(0 0 0)
(0 0 0)
(0 0 0)
(0 0 0)
(0 0 0)
(0 0 0)
(0 0 0)
(0 0 0)
(0 0 0)
(0 0 0)
(0 -2.40124e-07 0)
(0 -1.80404e-05 0)
(0 -3.14231e-05 0)
(0 -8.71329e-05 0)
(0 -0.000112892 0)
(0 -4.68554e-05 0)
(0 -6.33587e-05 0)
(0 -0.00013888 0)
(0 -0.000164053 0)
(0 -0.000112927 0)
(0 -0.000124488 0)
(0 -0.000170252 0)
(0 -0.00020904 0)
(0 -0.00015732 0)
(0 -0.000167286 0)
(0 -0.000220709 0)
(0 -0.000250549 0)
(0 -0.000192929 0)
(0 -0.000199796 0)
(0 -0.0002585 0)
(0 -0.000275464 0)
(0 -0.000214492 0)
(0 -0.000217278 0)
(0 -0.000278673 0)
(0 -0.000284254 0)
(0 -0.000222225 0)
(0 -0.000219522 0)
(0 -0.000281257 0)
(0 -0.000275464 0)
(0 -0.000214492 0)
(0 -0.000210625 0)
(0 -0.000271007 0)
(0 -0.000250549 0)
(0 -0.000192929 0)
(0 -0.000185174 0)
(0 -0.00024155 0)
(0 -0.00020904 0)
(0 -0.00015732 0)
(0 -0.000146796 0)
(0 -0.000196669 0)
(0 -0.000164053 0)
(0 -0.000112927 0)
(0 -7.59388e-05 0)
(0 -6.33587e-05 0)
(0 -0.00013888 0)
(0 -0.000112892 0)
(0 -4.68554e-05 0)
(0 -3.14231e-05 0)
(0 -8.71329e-05 0)
(0 -1.80404e-05 0)
(0 -2.40124e-07 0)
(0 0 0)
(0 0 0)
(0 0 0)
(0 0 0)
(0 0 0)
(0 0 0)
(0 0 0)
(0 0 0)
(0 0 0)
(0 0 0)
(0 0 0)
(0 0 0)
(0 0 0)
(0 0 0)
(0 0 0)
(0 0 0)
(0 0 0)
(0 0 0)
(0 0 0)
(0 0 0)
(0 0 0)
(0 0 0)
(0 0 0)
(0 0 0)
(0 0 0)
(0 0 0)
(0 0 0)
(0 0 0)
(0 0 0)
(0 0 0)
(0 0 0)
(0 -8.81881e-06 0)
(0 -3.18966e-06 0)
(0 0 0)
(0 -1.38675e-05 0)
(0 -2.31675e-05 0)
(0 -7.0927e-07 0)
(0 -3.10019e-06 0)
(0 -3.33862e-05 0)
(0 -4.37408e-05 0)
(0 -6.53716e-06 0)
(0 -1.0409e-05 0)
(0 -5.35248e-05 0)
(0 -6.21246e-05 0)
(0 -1.41823e-05 0)
(0 -1.7414e-05 0)
(0 -6.9033e-05 0)
(0 -7.38597e-05 0)
(0 -1.97625e-05 0)
(0 -2.09957e-05 0)
(0 -7.63402e-05 0)
(0 -7.83249e-05 0)
(0 -2.20491e-05 0)
(0 -2.09957e-05 0)
(0 -7.63402e-05 0)
(0 -7.38597e-05 0)
(0 -1.97625e-05 0)
(0 -1.7414e-05 0)
(0 -6.9033e-05 0)
(0 -6.21246e-05 0)
(0 -1.41823e-05 0)
(0 -1.0409e-05 0)
(0 -5.35248e-05 0)
(0 -4.37408e-05 0)
(0 -6.53716e-06 0)
(0 -3.10019e-06 0)
(0 -3.33862e-05 0)
(0 -2.31675e-05 0)
(0 -7.0927e-07 0)
(0 0 0)
(0 -1.38675e-05 0)
(0 -8.81881e-06 0)
(0 0 0)
(0 0 0)
(0 0 0)
(0 -3.18966e-06 0)
(0 0 0)
(0 0 0)
(0 0 0)
(0 0 0)
(0 0 0)
(0 0 0)
(0 0 0)
(0 0 0)
(0 0 0)
(0 0 0)
(0 0 0)
(0 0 0)
(0 0 0)
(0 0 0)
(0 0 0)
(0 0 0)
(0 0 0)
(0 0 0)
(0 0 0)
(0 0 0)
(0 0 0)
(0 0 0)
(0 0 0)
(0 0 0)
(0 0 0)
(0 0 0)
(0 0 0)
(0 0 0)
(0 0 0)
(0 0 0)
(0 0 0)
(0 0 0)
(0 0 0)
(0 0 0)
(0 0 0)
(0 0 0)
(0 0 0)
(0 0 0)
(0 0 0)
(0 0 0)
(0 -6.37415e-08 0)
(0 0 0)
(0 0 0)
(0 -2.45298e-07 0)
(0 -1.45949e-07 0)
(0 0 0)
(0 -6.37415e-08 0)
(0 -1.45949e-07 0)
(0 0 0)
(0 0 0)
(0 0 0)
(0 0 0)
(0 0 0)
(0 0 0)
(0 0 0)
(0 0 0)
(0 0 0)
(0 0 0)
(0 0 0)
(0 0 0)
(0 0 0)
(0 0 0)
(0 0 0)
(0 0 0)
(0 0 0)
(0 0 0)
(0 0 0)
(0 0 0)
(0 0 0)
(0 0 0)
(0 0 0)
(0 0 0)
(0 0 0)
(0 0 0)
(0 0 0)
(0 0 0)
(0 0 0)
(0 0 0)
(0 0 0)
(0 0 0)
(0 0 0)
(0 0 0)
(0 0 0)
(0 0 0)
(0 0 0)
(0 0 0)
(0 0 0)
(0 0 0)
(0 0 0)
(0 0 0)
(0 0 0)
(0 0 0)
(0 0 0)
(0 0 0)
(0 0 0)
(0 0 0)
(0 0 0)
(0 0 0)
(0 0 0)
(0 0 0)
(0 0 0)
(0 0 0)
(0 0 0)
(0 0 0)
(0 0 0)
(0 0 0)
(0 0 0)
(0 0 0)
(0 0 0)
(0 0 0)
(0 0 0)
(0 0 0)
(0 0 0)
(0 0 0)
(0 0 0)
(0 0 0)
(0 0 0)
(0 0 0)
(0 0 0)
(0 0 0)
(0 0 0)
(0 0 0)
(0 0 0)
(0 0 0)
(0 0 0)
(0 0 0)
(0 0 0)
(0 0 0)
(0 0 0)
(0 0 0)
(0 0 0)
(0 0 0)
(0 0 0)
(0 0 0)
(0 0 0)
(0 0 0)
(0 0 0)
(0 0 0)
(0 0 0)
(0 0 0)
(0 0 0)
(0 0 0)
(0 0 0)
(0 0 0)
(0 0 0)
(0 0 0)
(0 0 0)
(0 0 0)
(0 0 0)
(0 0 0)
(0 0 0)
(0 0 0)
(0 0 0)
(0 0 0)
(0 0 0)
(0 0 0)
(0 0 0)
(0 0 0)
(0 0 0)
(0 0 0)
(0 0 0)
(0 0 0)
(0 0 0)
(0 0 0)
(0 0 0)
(0 0 0)
(0 0 0)
(0 0 0)
(0 0 0)
(0 0 0)
(0 0 0)
(0 0 0)
(0 0 0)
(0 0 0)
(0 0 0)
(0 0 0)
(0 0 0)
(0 0 0)
(0 0 0)
(0 0 0)
(0 0 0)
(0 0 0)
(0 0 0)
(0 0 0)
(0 0 0)
(0 0 0)
(0 0 0)
(0 0 0)
(0 0 0)
(0 0 0)
(0 0 0)
(0 0 0)
(0 0 0)
(0 0 0)
(0 0 0)
(0 0 0)
(0 0 0)
(0 0 0)
(0 0 0)
(0 0 0)
(0 0 0)
(0 0 0)
(0 0 0)
(0 0 0)
(0 0 0)
(0 0 0)
(0 0 0)
(0 0 0)
(0 0 0)
(0 0 0)
(0 0 0)
(0 0 0)
(0 0 0)
(0 0 0)
(0 0 0)
(0 0 0)
(0 0 0)
(0 0 0)
(0 0 0)
(0 0 0)
(0 0 0)
(0 0 0)
(0 0 0)
(0 0 0)
(0 0 0)
(0 0 0)
(0 0 0)
(0 0 0)
(0 0 0)
(0 0 0)
(0 0 0)
(0 0 0)
(0 0 0)
(0 0 0)
(0 0 0)
(0 0 0)
(0 0 0)
(0 0 0)
(0 0 0)
(0 0 0)
(0 0 0)
(0 0 0)
(0 0 0)
(0 0 0)
(0 0 0)
(0 0 0)
(0 0 0)
(0 0 0)
(0 0 0)
(0 0 0)
(0 0 0)
(0 0 0)
(0 0 0)
(0 0 0)
(0 0 0)
(0 0 0)
(0 0 0)
(0 0 0)
(0 0 0)
(0 0 0)
(0 0 0)
(0 0 0)
(0 0 0)
(0 0 0)
(0 0 0)
(0 0 0)
(0 0 0)
(0 0 0)
(0 0 0)
(0 0 0)
(0 0 0)
(0 0 0)
(0 0 0)
(0 0 0)
(0 0 0)
(0 0 0)
(0 0 0)
(0 0 0)
(0 0 0)
(0 0 0)
(0 0 0)
(0 0 0)
(0 0 0)
(0 0 0)
(0 0 0)
(0 0 0)
(0 0 0)
(0 0 0)
(0 0 0)
(0 0 0)
(0 0 0)
(0 0 0)
(0 0 0)
(0 0 0)
(0 0 0)
(0 0 0)
(0 0 0)
(0 0 0)
(0 0 0)
(0 0 0)
(0 0 0)
(0 0 0)
(0 0 0)
(0 0 0)
(0 0 0)
(0 0 0)
(0 0 0)
(0 0 0)
(0 0 0)
(0 0 0)
(0 0 0)
(0 0 0)
(0 0 0)
(0 0 0)
(0 0 0)
(0 0 0)
(0 0 0)
(0 0 0)
(0 0 0)
(0 0 0)
(0 0 0)
(0 0 0)
(0 0 0)
(0 0 0)
(0 0 0)
(0 0 0)
(0 0 0)
(0 0 0)
(0 0 0)
(0 0 0)
(0 0 0)
(0 0 0)
(0 0 0)
(0 0 0)
(0 0 0)
(0 0 0)
(0 0 0)
(0 0 0)
(0 0 0)
(0 0 0)
(0 0 0)
(0 0 0)
(0 0 0)
(0 0 0)
(0 0 0)
(0 0 0)
(0 0 0)
(0 0 0)
(0 0 0)
(0 0 0)
(0 0 0)
(0 0 0)
(0 0 0)
(0 0 0)
(0 0 0)
(0 0 0)
(0 0 0)
(0 0 0)
(0 0 0)
(0 0 0)
(0 0 0)
(0 0 0)
(0 0 0)
(0 0 0)
(0 0 0)
(0 0 0)
(0 0 0)
(0 0 0)
(0 0 0)
(0 0 0)
(0 0 0)
(0 0 0)
(0 0 0)
(0 0 0)
(0 0 0)
(0 0 0)
(0 0 0)
(0 0 0)
(0 0 0)
(0 0 0)
(0 0 0)
(0 0 0)
(0 0 0)
(0 0 0)
(0 0 0)
(0 0 0)
(0 0 0)
(0 0 0)
(0 0 0)
(0 0 0)
(0 0 0)
(0 0 0)
(0 0 0)
(0 0 0)
(0 0 0)
(0 0 0)
(0 0 0)
(0 0 0)
(0 0 0)
(0 0 0)
(0 0 0)
(0 0 0)
(0 0 0)
(0 0 0)
(0 0 0)
(0 0 0)
(0 0 0)
(0 0 0)
(0 0 0)
(0 0 0)
(0 0 0)
(0 0 0)
(0 0 0)
(0 0 0)
(0 0 0)
(0 0 0)
(0 0 0)
(0 0 0)
(0 0 0)
(0 0 0)
(0 0 0)
(0 0 0)
(0 0 0)
(0 0 0)
(0 0 0)
(0 0 0)
(0 0 0)
(0 0 0)
(0 0 0)
(0 0 0)
(0 0 0)
(0 0 0)
(0 0 0)
(0 0 0)
(0 0 0)
(0 0 0)
(0 0 0)
(0 0 0)
(0 0 0)
(0 0 0)
(0 0 0)
(0 0 0)
(0 0 0)
(0 0 0)
(0 0 0)
(0 0 0)
(0 0 0)
(0 0 0)
(0 0 0)
(0 0 0)
(0 0 0)
(0 0 0)
(0 0 0)
(0 0 0)
(0 0 0)
(0 0 0)
(0 0 0)
(0 0 0)
(0 0 0)
(0 0 0)
(0 0 0)
(0 0 0)
(0 0 0)
(0 0 0)
(0 0 0)
(0 0 0)
(0 0 0)
(0 0 0)
(0 0 0)
(0 0 0)
(0 0 0)
(0 0 0)
(0 0 0)
(0 0 0)
(0 0 0)
(0 0 0)
(0 0 0)
(0 0 0)
(0 0 0)
(0 0 0)
(0 0 0)
(0 0 0)
(0 0 0)
(0 0 0)
(0 0 0)
(0 0 0)
(0 0 0)
(0 0 0)
(0 0 0)
(0 0 0)
(0 0 0)
(0 0 0)
(0 0 0)
(0 0 0)
(0 0 0)
(0 0 0)
(0 0 0)
(0 0 0)
(0 0 0)
(0 0 0)
(0 0 0)
(0 0 0)
(0 0 0)
(0 0 0)
(0 0 0)
(0 0 0)
(0 0 0)
(0 0 0)
(0 0 0)
(0 0 0)
(0 0 0)
(0 0 0)
(0 0 0)
(0 0 0)
(0 0 0)
(0 0 0)
(0 0 0)
(0 0 0)
(0 0 0)
(0 0 0)
(0 0 0)
(0 0 0)
(0 0 0)
(0 0 0)
(0 0 0)
(0 0 0)
(0 0 0)
(0 0 0)
(0 0 0)
(0 0 0)
(0 0 0)
(0 0 0)
(0 0 0)
(0 0 0)
(0 0 0)
(0 0 0)
(0 0 0)
(0 0 0)
(0 0 0)
(0 0 0)
(0 0 0)
(0 0 0)
(0 0 0)
(0 0 0)
(0 0 0)
(0 0 0)
(0 0 0)
(0 0 0)
(0 0 0)
(0 0 0)
(0 0 0)
(0 0 0)
(0 0 0)
(0 0 0)
(0 0 0)
(0 0 0)
(0 0 0)
(0 0 0)
(0 0 0)
(0 0 0)
(0 0 0)
(0 0 0)
(0 0 0)
(0 0 0)
(0 0 0)
(0 0 0)
(0 0 0)
(0 0 0)
(0 0 0)
(0 0 0)
(0 0 0)
(0 0 0)
(0 0 0)
(0 0 0)
(0 0 0)
(0 0 0)
(0 0 0)
(0 0 0)
(0 0 0)
(0 0 0)
(0 0 0)
(0 0 0)
(0 0 0)
(0 0 0)
(0 0 0)
(0 0 0)
(0 0 0)
(0 0 0)
(0 0 0)
(0 0 0)
(0 0 0)
(0 0 0)
(0 0 0)
(0 0 0)
(0 0 0)
(0 0 0)
(0 0 0)
(0 0 0)
(0 0 0)
(0 0 0)
(0 0 0)
(0 0 0)
(0 0 0)
(0 0 0)
(0 0 0)
(0 0 0)
(0 0 0)
(0 0 0)
(0 0 0)
(0 0 0)
(0 0 0)
(0 0 0)
(0 0 0)
(0 0 0)
(0 0 0)
(0 0 0)
(0 0 0)
(0 0 0)
(0 0 0)
(0 0 0)
(0 0 0)
(0 0 0)
(0 0 0)
(0 0 0)
(0 0 0)
(0 0 0)
(0 0 0)
(0 0 0)
(0 0 0)
(0 0 0)
(0 0 0)
(0 0 0)
(0 0 0)
(0 0 0)
(0 0 0)
(0 0 0)
(0 0 0)
(0 0 0)
(0 0 0)
(0 0 0)
(0 0 0)
(0 0 0)
(0 0 0)
(0 0 0)
(0 0 0)
(0 0 0)
(0 0 0)
(0 0 0)
(0 0 0)
(0 0 0)
(0 0 0)
(0 0 0)
(0 0 0)
(0 0 0)
(0 0 0)
(0 0 0)
(0 0 0)
(0 0 0)
(0 0 0)
(0 0 0)
(0 0 0)
(0 0 0)
(0 0 0)
(0 0 0)
(0 0 0)
(0 0 0)
(0 0 0)
(0 0 0)
(0 0 0)
(0 0 0)
(0 0 0)
(0 0 0)
(0 0 0)
(0 0 0)
(0 0 0)
(0 0 0)
(0 0 0)
(0 0 0)
(0 0 0)
(0 0 0)
(0 0 0)
(0 0 0)
(0 0 0)
(0 0 0)
(0 0 0)
(0 0 0)
(0 0 0)
(0 0 0)
(0 0 0)
(0 0 0)
(0 0 0)
(0 0 0)
(0 0 0)
(0 0 0)
(0 0 0)
(0 0 0)
(0 0 0)
(0 0 0)
(0 0 0)
(0 0 0)
(0 0 0)
(0 0 0)
(0 0 0)
(0 0 0)
(0 0 0)
(0 0 0)
(0 0 0)
(0 0 0)
(0 0 0)
(0 0 0)
(0 0 0)
(0 0 0)