/*--------------------------------*- C++ -*----------------------------------*\
| =========                 |                                                 |
| \\      /  F ield         | OpenFOAM: The Open Source CFD Toolbox           |
|  \\    /   O peration     | Version:  v2106                                 |
|   \\  /    A nd           | Website:  www.openfoam.com                      |
|    \\/     M anipulation  |                                                 |
\*---------------------------------------------------------------------------*/
FoamFile
{
    version     2.0;
    format      ascii;
    arch        "LSB;label=32;scalar=64";
    class       volScalarField;
    location    "0";
    object      p;
}
// * * * * * * * * * * * * * * * * * * * * * * * * * * * * * * * * * * * * * //

dimensions      [0 2 -2 0 0 0 0];

internalField   nonuniform List<scalar> 
11644
(
0.0469791
0.0473876
0.0482461
0.0495678
0.0513546
0.0536119
0.0563465
0.0595591
0.0632381
0.0673553
0.0718632
0.0766828
0.0817021
0.0867745
0.0917156
0.096349
0.100458
0.103834
0.106286
0.10765
0.107895
0.107079
0.105253
0.102467
0.0988428
0.0946322
0.0900861
0.0853867
0.0807072
0.0762017
0.0719769
0.0681092
0.0646508
0.0616277
0.0590511
0.0569215
0.0552346
0.053985
0.0531716
0.0527822
0.0462473
0.04665
0.0474838
0.048769
0.0505172
0.0527395
0.0554487
0.0586532
0.0623513
0.0665264
0.0711441
0.0761362
0.0813963
0.0867918
0.0921291
0.0971687
0.101686
0.105404
0.108117
0.109661
0.10994
0.108935
0.106795
0.103703
0.0997647
0.0951909
0.090272
0.0852472
0.0803032
0.0756033
0.0712543
0.067317
0.063827
0.0608003
0.0582378
0.0561342
0.0544781
0.0532589
0.0524652
0.0520806
0.0447004
0.0451067
0.0459184
0.0471516
0.0488319
0.0509857
0.0536357
0.0568056
0.060516
0.0647809
0.0695911
0.0749209
0.080701
0.086775
0.0929396
0.0989088
0.104347
0.108942
0.112364
0.11429
0.114557
0.113148
0.110266
0.106265
0.101444
0.0960483
0.090363
0.0847061
0.0792894
0.0742539
0.0696876
0.0656379
0.0621102
0.0590957
0.0565758
0.0545287
0.0529303
0.0517571
0.0509855
0.0506024
0.0423695
0.0427597
0.0435345
0.0446989
0.0462827
0.048326
0.0508708
0.0539643
0.0576593
0.0620091
0.0670727
0.0728842
0.0793873
0.0865029
0.0940172
0.101513
0.108545
0.114766
0.119429
0.122007
0.122267
0.120177
0.116064
0.110429
0.103969
0.0970824
0.0901646
0.0835308
0.0774146
0.0719378
0.0671245
0.062963
0.0594277
0.0564704
0.0540419
0.0520941
0.0505863
0.0494813
0.0487502
0.0483814
0.0393245
0.0396765
0.0403755
0.0414303
0.0428714
0.0447457
0.0471141
0.0500522
0.0536538
0.0580304
0.0633042
0.0695749
0.0769519
0.085407
0.0948136
0.104664
0.114135
0.123164
0.129985
0.133762
0.134031
0.130681
0.124416
0.116121
0.107146
0.0979346
0.0891698
0.0812434
0.0742829
0.0683262
0.0633178
0.0591398
0.0556926
0.0528841
0.0506255
0.0488428
0.0474771
0.046481
0.0458244
0.0454953
0.035655
0.0359433
0.0365235
0.0374125
0.038641
0.0402589
0.0423391
0.0449821
0.0483235
0.0525265
0.0577836
0.0643683
0.0725307
0.0825406
0.0945397
0.107987
0.121377
0.134768
0.145366
0.151489
0.151761
0.1461
0.13596
0.123053
0.110077
0.097591
0.0863851
0.0769402
0.0692421
0.0629884
0.0579685
0.0539757
0.0508065
0.0482967
0.0463294
0.0448094
0.0436631
0.0428394
0.0422994
0.0420324
0.0314765
0.0316802
0.0320987
0.0327475
0.0336666
0.0349057
0.0365403
0.0386797
0.0414831
0.0451686
0.0500609
0.0565177
0.0649908
0.0762304
0.0910539
0.109161
0.123682
0.141544
0.157999
0.169423
0.172324
0.165704
0.151828
0.134283
0.111115
0.093934
0.0798911
0.0692333
0.0613455
0.0553428
0.0507837
0.0473204
0.0447069
0.0427209
0.0412149
0.040083
0.0392459
0.0386524
0.0382715
0.0380792
0.0269066
0.0270202
0.0272366
0.0275851
0.0280888
0.0288002
0.0297863
0.0311582
0.0330708
0.0357839
0.0396648
0.0452052
0.0529088
0.0642318
0.0795357
0.0988513
0.125603
0.155574
0.184907
0.206235
0.21143
0.198369
0.172619
0.143011
0.114639
0.0910048
0.0747562
0.0567669
0.0497525
0.0448791
0.0415262
0.0391388
0.0374466
0.0362532
0.0353965
0.0347862
0.0343577
0.0340627
0.0338798
0.0337952
0.022158
0.0221332
0.0221102
0.0220878
0.0220827
0.0221269
0.0222667
0.0225868
0.0232082
0.0243759
0.0263627
0.0295458
0.0345384
0.0478628
0.0615139
0.0837845
0.113758
0.158096
0.209158
0.253912
0.270009
0.247117
0.199943
0.149926
0.108166
0.0745976
0.0571405
0.0382517
0.0339834
0.0315232
0.0302223
0.0295487
0.0292065
0.0290883
0.0290749
0.0291166
0.0291814
0.0292492
0.0292937
0.0293111
0.0173648
0.0172329
0.016952
0.0165144
0.015933
0.0151958
0.0143225
0.0133279
0.0122433
0.0111809
0.010276
0.00970128
0.00934349
0.0191105
0.0263268
0.0469455
0.0788335
0.134082
0.223016
0.329721
0.379928
0.324009
0.218163
0.131988
0.0725084
0.0359087
0.0254078
0.0135582
0.0145088
0.0158255
0.0174211
0.0189835
0.0203644
0.0215585
0.0225407
0.0233301
0.0239405
0.0243861
0.0246769
0.0248262
0.0127949
0.0125339
0.0119772
0.0111328
0.00995245
0.00839474
0.00640621
0.00390974
0.000814668
-0.0030369
-0.00784835
-0.0136472
-0.0209085
-0.0209781
-0.0261709
-0.0249978
-0.0155758
0.00986389
0.110756
0.358319
0.566834
0.364779
0.125451
0.0185532
-0.0177833
-0.0267201
-0.0188347
-0.0157199
-0.00756492
-0.00104659
0.00414389
0.00827003
0.0115458
0.0141272
0.0161506
0.0177183
0.0189062
0.0197457
0.0202865
0.0205304
0.00876662
0.00834045
0.00752887
0.00626517
0.00450348
0.00216044
-0.000923965
-0.00492749
-0.0100872
-0.0167999
-0.0256911
-0.0374422
-0.0531167
-0.060311
-0.0876889
-0.112929
-0.162243
-0.269353
-0.553147
-0.457337
-0.239849
-0.149423
-0.101038
-0.06652
-0.0453951
-0.0288264
-0.0169004
-0.00811314
-0.00150208
0.00352933
0.00738249
0.0103603
0.012631
0.0143246
0.0155196
0.0162791
0.0166577
0.00532737
0.00484404
0.00383528
0.00224019
-9.30416e-06
-0.00303113
-0.00702538
-0.0122808
-0.0191683
-0.0282394
-0.0403333
-0.0566871
-0.0786987
-0.0960497
-0.136795
-0.182799
-0.264932
-0.424983
-0.60395
-0.589095
-0.412386
-0.247457
-0.15573
-0.103399
-0.065398
-0.0439356
-0.0286713
-0.0174541
-0.00912161
-0.00284797
0.00192759
0.00560272
0.00839645
0.010454
0.0119147
0.012857
0.013356
0.00272522
0.00216041
0.000988695
-0.000809812
-0.00336544
-0.00681137
-0.0113494
-0.0173355
-0.0251936
-0.0355638
-0.0493235
-0.0677887
-0.0920967
-0.115525
-0.159683
-0.210136
-0.284346
-0.382013
-0.41387
-0.505136
-0.413262
-0.261284
-0.163205
-0.112442
-0.0701526
-0.0493962
-0.0339689
-0.0223623
-0.0136076
-0.00690071
-0.00174644
0.00222807
0.00526634
0.00751272
0.00911821
0.0101657
0.0105978
0.00104553
0.000426263
-0.00079558
-0.0026749
-0.0053101
-0.00884099
-0.0134638
-0.0194863
-0.0273875
-0.0377804
-0.0513844
-0.0693102
-0.0926442
-0.117742
-0.160335
-0.21212
-0.284501
-0.377143
-0.402692
-0.464365
-0.480783
-0.475849
-0.478324
-0.329556
-0.197122
-0.12508
-0.0929639
-0.0604623
-0.0450971
-0.032537
-0.0225503
-0.0146494
-0.00836626
-0.00341706
0.000441721
0.00338732
0.00556164
0.00709903
0.00808881
0.00864273
0.000177898
-0.000299213
-0.00141499
-0.00318004
-0.00564511
-0.00891076
-0.0131112
-0.0185342
-0.0255471
-0.0345963
-0.0462475
-0.0613879
-0.0811412
-0.105424
-0.14337
-0.19861
-0.277319
-0.418904
-0.597181
-0.711958
-0.686078
-0.458282
-0.201096
-0.0770144
-0.0728257
-0.0612419
-0.056155
-0.0403023
-0.0329202
-0.0255116
-0.0186068
-0.012575
-0.00746204
-0.00321785
0.000206821
0.00282687
0.00478194
0.00617652
0.00708431
0.00750921
0.000468132
1.76133e-05
-0.000900096
-0.00232949
-0.00433279
-0.0069759
-0.0103386
-0.0145932
-0.0199435
-0.0266118
-0.0350272
-0.0460087
-0.0602154
-0.0791403
-0.110507
-0.153282
-0.222078
-0.338703
-0.537814
-0.711307
-0.687561
-0.392926
-0.0358113
0.0862074
0.0251552
-0.00694578
-0.0178944
-0.0192089
-0.0184464
-0.0156319
-0.0119737
-0.0082063
-0.00463096
-0.00138278
0.00132769
0.00347313
0.00515488
0.00637761
0.00713015
0.0073353
0.00190241
0.00152105
0.000840539
-0.000194538
-0.00160997
-0.00343392
-0.00567591
-0.00831386
-0.0114635
-0.0152367
-0.0198629
-0.0257958
-0.0337031
-0.0432178
-0.0677528
-0.0897757
-0.135157
-0.191997
-0.283968
-0.388034
-0.392107
-0.235694
-0.0267283
0.064732
0.0253709
0.00554883
-0.00403827
-0.00723703
-0.00797053
-0.00694028
-0.00516306
-0.00298535
-0.000646853
0.00156355
0.00346331
0.00502998
0.00627495
0.00715592
0.0077061
0.00797682
0.00408825
0.00386534
0.00346968
0.00286878
0.00208978
0.0011473
8.59361e-05
-0.00093523
-0.00192801
-0.00290839
-0.00385173
-0.00482885
-0.00624172
-0.00798773
-0.0207383
-0.0292486
-0.0556226
-0.0912769
-0.141827
-0.200369
-0.234463
-0.202876
-0.125228
-0.0676454
-0.037749
-0.0170742
-0.00774439
-0.0058026
-0.00334301
-0.00136943
0.000261617
0.00188078
0.00345157
0.00485682
0.00607185
0.00709074
0.00790161
0.00849728
0.00892758
0.00920651
0.00672985
0.00665872
0.00650489
0.00630772
0.00611683
0.00599708
0.00599256
0.00623194
0.00688656
0.00817052
0.0102263
0.0131528
0.0178061
0.0211479
0.0169252
0.0153309
7.52207e-05
-0.0323072
-0.106518
-0.213476
-0.302772
-0.3241
-0.276228
-0.188111
-0.0901933
-0.0412639
-0.0161627
-0.00716476
-0.00115434
0.00234555
0.00450171
0.00605378
0.00720442
0.00810073
0.00886148
0.00949913
0.0100183
0.0104242
0.0107282
0.0109018
0.00947394
0.00949338
0.00954575
0.00968846
0.00997252
0.0104918
0.0113227
0.01256
0.014416
0.017235
0.0212371
0.0268881
0.0346331
0.0419725
0.041088
0.0437101
0.0306202
-0.013044
-0.110561
-0.250072
-0.356465
-0.37398
-0.308996
-0.201094
-0.0926362
-0.0448362
-0.0156214
-0.00399636
0.00268389
0.00652218
0.00868283
0.0100295
0.0108613
0.0114252
0.0118474
0.012182
0.0124536
0.0126638
0.0128119
0.0128842
0.0120284
0.0121386
0.0123722
0.012769
0.013385
0.0143155
0.0156699
0.0175686
0.0201927
0.0238023
0.0286197
0.034763
0.0436306
0.052012
0.0549245
0.0498871
0.0239041
-0.0295523
-0.112781
-0.205759
-0.255884
-0.24283
-0.185567
-0.115097
-0.0602036
-0.0191827
-0.00463838
0.00449009
0.00946575
0.0122174
0.013603
0.0143412
0.0147122
0.0148945
0.0149601
0.0149736
0.0149741
0.0149662
0.0149595
0.0149761
0.0143185
0.0145021
0.0148469
0.0153864
0.0161698
0.0172689
0.0187817
0.0208193
0.0235085
0.0269776
0.0314015
0.0362698
0.0432397
0.0512903
0.0447837
0.0268972
-0.0114219
-0.060638
-0.0983718
-0.115669
-0.112687
-0.0911991
-0.0635752
-0.0359799
-0.0159487
-0.00158601
0.00897354
0.0146542
0.0175815
0.0187639
0.0190374
0.0188992
0.0185931
0.0182555
0.0179248
0.0176397
0.0174102
0.017226
0.0170858
0.0170207
0.0163265
0.0165238
0.0168963
0.017469
0.0182593
0.0193075
0.0206555
0.0223395
0.0244524
0.0269154
0.0297633
0.0320413
0.0332082
0.0323144
0.018431
-0.0103582
-0.0495308
-0.0914024
-0.116294
-0.116716
-0.102767
-0.0725162
-0.0399675
-0.0138023
0.0031173
0.0142097
0.0207616
0.0241029
0.0251452
0.0249348
0.0241716
0.0231646
0.0221363
0.0212375
0.02051
0.0199579
0.019548
0.0192543
0.0190536
0.0189074
0.0180614
0.0182327
0.0185679
0.019077
0.0197496
0.0205989
0.0216156
0.0227176
0.0239597
0.0249226
0.025427
0.0243471
0.0192153
0.00817504
-0.0157094
-0.0519102
-0.0948488
-0.142768
-0.174077
-0.175217
-0.148124
-0.101725
-0.0539064
-0.0162903
0.00827804
0.0225422
0.0287801
0.0309639
0.0310244
0.0298548
0.0282727
0.0265735
0.0250231
0.0237014
0.0226654
0.0218707
0.0212793
0.0208653
0.0206105
0.020483
0.0195533
0.0196881
0.0199499
0.0203434
0.0208542
0.021459
0.0221236
0.0227249
0.023094
0.0227912
0.0211083
0.0176031
0.00860766
-0.00743168
-0.0376677
-0.0787644
-0.132217
-0.184856
-0.224444
-0.225524
-0.184365
-0.128702
-0.0724258
-0.028153
0.00273885
0.0228553
0.0328643
0.0356752
0.0348686
0.0331533
0.030962
0.0288626
0.0270445
0.0255383
0.0243375
0.0233924
0.0226684
0.0221648
0.0218608
0.0217995
0.0208037
0.0208911
0.0211025
0.0214125
0.0218067
0.0222356
0.0226356
0.0229001
0.0227864
0.0219571
0.0196227
0.0150221
0.0058295
-0.0104126
-0.0397643
-0.0788913
-0.12773
-0.172546
-0.210244
-0.213041
-0.175235
-0.12638
-0.0746804
-0.0330254
-0.00213589
0.0195169
0.0321395
0.037145
0.0368284
0.0346961
0.0322663
0.0301069
0.0282879
0.026778
0.0255471
0.0245738
0.023846
0.023347
0.0230441
0.0229533
0.0218195
0.0219043
0.0221144
0.0224032
0.0227494
0.0231032
0.0233967
0.0235326
0.0233555
0.0226068
0.0207598
0.0170976
0.0102617
-0.00150302
-0.022907
-0.0535314
-0.0878615
-0.121904
-0.14874
-0.156357
-0.139266
-0.109446
-0.0723883
-0.0360141
-0.0064907
0.0148833
0.0279242
0.0343589
0.0357107
0.0341774
0.0322157
0.0303949
0.0287618
0.0273756
0.026237
0.0253472
0.0246822
0.0242185
0.0239203
0.0237547
0.0226821
0.0228246
0.0230264
0.0232977
0.0236151
0.0239546
0.0242702
0.0244824
0.0245215
0.024204
0.0232698
0.0211443
0.0170623
0.0099491
-0.0024356
-0.0223679
-0.0457333
-0.0717292
-0.0921059
-0.103727
-0.106239
-0.0936561
-0.0698458
-0.0412472
-0.0157268
0.00505772
0.0194256
0.0277244
0.0311983
0.0314062
0.0305886
0.0294899
0.0282849
0.0271895
0.0262602
0.0255162
0.0249367
0.0245155
0.0242364
0.0240808
0.0233435
0.0234946
0.0236814
0.0239378
0.0242545
0.0246357
0.025063
0.0254884
0.0258739
0.0260823
0.025937
0.0247529
0.0223954
0.0176234
0.00964935
-0.00389656
-0.0230677
-0.0464347
-0.0671648
-0.0839374
-0.0919377
-0.0890781
-0.0745784
-0.0522537
-0.0302035
-0.00955941
0.00677319
0.018084
0.0243105
0.0268084
0.0275466
0.0274265
0.026918
0.0263224
0.0257302
0.0251987
0.0247518
0.0244085
0.0241801
0.0240824
0.02371
0.023759
0.0239516
0.0242438
0.0246273
0.0250989
0.0256709
0.0263334
0.0270493
0.0276689
0.0279853
0.02763
0.0260211
0.0218838
0.013928
0.000331566
-0.0202422
-0.0459224
-0.0736434
-0.0969979
-0.106998
-0.106977
-0.0954338
-0.0755879
-0.0517601
-0.0275666
-0.0073355
0.00777276
0.0170807
0.0217969
0.0239833
0.0248918
0.0251759
0.025152
0.0249568
0.0246949
0.0244304
0.0242086
0.0240469
0.0239582
0.0239297
0.0239245
0.0240827
0.0243715
0.024791
0.0253257
0.025986
0.0267982
0.0277188
0.0286521
0.0293896
0.0295847
0.0279566
0.0230216
0.0134187
-0.00230039
-0.0249991
-0.0535178
-0.0884078
-0.118983
-0.138355
-0.137659
-0.122936
-0.101026
-0.0715861
-0.0419665
-0.0177279
0.000131079
0.0111859
0.0175306
0.0209449
0.0227223
0.0236296
0.0240248
0.0241386
0.024119
0.0240324
0.0239311
0.0238317
0.0237282
0.0240698
0.0241157
0.02426
0.0245104
0.0248929
0.0254031
0.0260466
0.0268243
0.0277365
0.028809
0.0296177
0.029681
0.0272216
0.0211792
0.0104414
-0.00588217
-0.0286255
-0.0575136
-0.092134
-0.124744
-0.148057
-0.146651
-0.127387
-0.10365
-0.0726703
-0.0438941
-0.0206884
-0.00316683
0.00834671
0.0151484
0.0190895
0.021272
0.0224713
0.0230923
0.0233845
0.0235072
0.0235273
0.023495
0.0234431
0.023376
0.0239394
0.0240521
0.0242188
0.0244571
0.0247928
0.0252327
0.0257862
0.0264384
0.0271762
0.0279826
0.0284518
0.0277422
0.0243696
0.0174343
0.00597051
-0.0104134
-0.0318256
-0.0573618
-0.0846762
-0.108263
-0.124094
-0.120328
-0.103838
-0.0822041
-0.0565629
-0.0337994
-0.0144458
0.000151895
0.00966642
0.0153938
0.0188176
0.0207912
0.0219153
0.022535
0.022865
0.023022
0.0230715
0.0230642
0.0230446
0.0230339
0.0234672
0.0235739
0.0237219
0.0239311
0.0242103
0.024559
0.0249818
0.0254378
0.0258509
0.026112
0.0257421
0.0238512
0.0194548
0.0112962
-0.00074843
-0.0164708
-0.0356403
-0.0565281
-0.074852
-0.0864365
-0.0888769
-0.0829125
-0.0699648
-0.0522114
-0.0338248
-0.0169556
-0.00291687
0.00724433
0.0135708
0.0174179
0.0197014
0.0210897
0.0219112
0.0223946
0.0226568
0.0227856
0.0228312
0.0228311
0.0228225
0.0228103
0.0228
0.0228315
0.0229202
0.0230623
0.0232515
0.0234599
0.023664
0.0237906
0.0236861
0.023092
0.0215643
0.0181105
0.0121434
0.00282147
-0.00919966
-0.0236062
-0.0394661
-0.0558363
-0.0676273
-0.0712757
-0.066968
-0.0581356
-0.0458649
-0.0297222
-0.014839
-0.00193283
0.00764267
0.0140409
0.0177602
0.0199076
0.0211442
0.0218307
0.022238
0.0224762
0.0225962
0.0226493
0.0226683
0.0226638
0.0226488
0.0226151
0.0220919
0.0220775
0.0221156
0.022176
0.0222343
0.022243
0.0221433
0.0218362
0.0211368
0.0196479
0.0168248
0.0115617
0.00336304
-0.00775412
-0.0211914
-0.0359502
-0.0500611
-0.0632943
-0.0715574
-0.0717511
-0.0665853
-0.0539064
-0.0378391
-0.0205889
-0.00553821
0.00621688
0.0141915
0.0188986
0.0211567
0.0221695
0.0226059
0.0226876
0.0226604
0.0225814
0.0225056
0.0224328
0.0223739
0.022326
0.0222914
0.0222841
0.0214163
0.0214349
0.0214378
0.0214088
0.0213194
0.0211321
0.0207399
0.0200228
0.0187992
0.0166128
0.0127286
0.00601526
-0.00441036
-0.0184952
-0.0354885
-0.0529896
-0.0688378
-0.0812829
-0.0896
-0.0894641
-0.0801765
-0.0614789
-0.039839
-0.0202257
-0.00372994
0.0086078
0.0168721
0.0213802
0.0233025
0.023855
0.02361
0.0232752
0.0229045
0.0225587
0.0222978
0.0220992
0.0219563
0.021871
0.0218421
0.0218866
0.0207143
0.0207724
0.0207518
0.0206663
0.0204855
0.0201611
0.0195988
0.0186487
0.0170796
0.0144916
0.0101075
0.00279823
-0.00815159
-0.0231914
-0.0419891
-0.0623529
-0.0810393
-0.0949402
-0.106778
-0.107262
-0.0885039
-0.0666053
-0.0415786
-0.0210776
-0.00397158
0.00831311
0.0166294
0.0213049
0.0236062
0.0242286
0.0237937
0.0233032
0.0227718
0.0223299
0.0219979
0.021752
0.0215829
0.0214927
0.021463
0.0215005
0.0199901
0.0200115
0.0199749
0.0198784
0.0196892
0.0193508
0.0187884
0.0178868
0.0163707
0.0138775
0.00975142
0.00314114
-0.0067249
-0.0199242
-0.0364294
-0.0548235
-0.0738167
-0.0881246
-0.0993886
-0.100434
-0.084505
-0.0641975
-0.0422978
-0.0229645
-0.00690328
0.00525161
0.0137537
0.0190372
0.0219799
0.0230853
0.023018
0.0226776
0.0222227
0.0218618
0.0215753
0.0213581
0.021203
0.0211034
0.0210403
0.0210067
0.0193953
0.0193725
0.0193302
0.0192518
0.0191003
0.0188313
0.0183902
0.0176769
0.0165117
0.0146234
0.0115477
0.00664537
-0.00085838
-0.0109808
-0.0231849
-0.0374132
-0.0522777
-0.0648268
-0.0741449
-0.0771471
-0.0709377
-0.0588535
-0.0431221
-0.0268755
-0.0124976
-0.000586038
0.00853903
0.0149637
0.0188052
0.0206701
0.0213183
0.0213597
0.0211726
0.0209811
0.0207995
0.0206513
0.0205381
0.0204522
0.0203821
0.0203111
0.018992
0.0189815
0.0189514
0.0188936
0.0187883
0.0186103
0.0183222
0.0178712
0.0171625
0.0160315
0.0141859
0.0112073
0.00647163
-0.000485875
-0.00911806
-0.019805
-0.0312179
-0.0423474
-0.0506376
-0.0557723
-0.0578636
-0.0531035
-0.0429089
-0.0302338
-0.0180209
-0.00694044
0.00218209
0.0092769
0.0141229
0.0170459
0.0186409
0.0193173
0.0195779
0.0196416
0.0196161
0.0195714
0.0195268
0.0194941
0.019473
0.0194505
0.0186188
0.018629
0.0186208
0.018595
0.0185483
0.0184817
0.0183768
0.0182169
0.0179526
0.017523
0.0166884
0.0151892
0.0125334
0.00782161
0.000911811
-0.00837907
-0.0191275
-0.0307303
-0.0405625
-0.0479592
-0.0513449
-0.0511248
-0.0449123
-0.0349493
-0.0247292
-0.0144048
-0.00518133
0.00253201
0.00849672
0.0127516
0.015429
0.0168975
0.017702
0.0181025
0.0183035
0.0183954
0.0184324
0.0184529
0.0184767
0.0185262
0.01816
0.0181306
0.018135
0.018156
0.0181959
0.0182627
0.0183557
0.0184809
0.0186244
0.0187548
0.0187218
0.0180795
0.0163082
0.0125413
0.00594545
-0.00338489
-0.0150796
-0.0283319
-0.0414581
-0.0524607
-0.0576774
-0.0588508
-0.0543396
-0.0460396
-0.0363913
-0.025591
-0.0147901
-0.00506472
0.00283634
0.00869185
0.0124097
0.0146158
0.0158986
0.0166525
0.0171058
0.0173662
0.0175077
0.0175844
0.017629
0.0176763
0.0176795
0.0176238
0.0176214
0.017665
0.0177653
0.0179254
0.0181581
0.0184679
0.0188819
0.0193448
0.0196965
0.0193175
0.0177261
0.0144047
0.00815536
-0.00106813
-0.0132977
-0.0277909
-0.0444291
-0.0592926
-0.0715977
-0.0733519
-0.0678721
-0.0596822
-0.048483
-0.0357373
-0.0224371
-0.0103493
-0.00090927
0.00579477
0.0101696
0.0128014
0.0144561
0.015483
0.01613
0.0165197
0.0167616
0.0168922
0.0169489
0.0169241
0.0171936
0.0171712
0.0171902
0.0172487
0.017361
0.0175353
0.0177817
0.018113
0.0185402
0.0189077
0.019137
0.0185723
0.0167501
0.0134712
0.00760757
-0.00103024
-0.0128983
-0.0272617
-0.0445549
-0.0605886
-0.0749394
-0.077246
-0.071515
-0.0626628
-0.049513
-0.0358808
-0.0223767
-0.0106281
-0.00181728
0.00473914
0.00916688
0.0118714
0.0135883
0.0146382
0.0153235
0.0157535
0.0160202
0.0161642
0.0162221
0.016181
0.0165863
0.0166263
0.0166736
0.0167347
0.0168205
0.0169403
0.0170996
0.017297
0.0175197
0.0175602
0.0172079
0.0159844
0.0134155
0.00923008
0.00297479
-0.0055713
-0.0162626
-0.0287832
-0.0423296
-0.0544343
-0.0633182
-0.0639532
-0.0582497
-0.0497817
-0.038354
-0.0266102
-0.0157195
-0.00652868
0.000663195
0.006073
0.00964722
0.0118914
0.0132957
0.0141729
0.0147307
0.0150837
0.015296
0.0154134
0.0154754
0.0154879
0.0158184
0.0158606
0.0158825
0.0159007
0.0159203
0.0159425
0.015952
0.0159132
0.0157586
0.0152767
0.0141116
0.01195
0.008364
0.00315221
-0.00363284
-0.0119356
-0.0213109
-0.0311231
-0.0399434
-0.0460351
-0.0472251
-0.0446984
-0.0391293
-0.0315056
-0.0227765
-0.0140803
-0.00644474
1.37398e-05
0.00511654
0.00878104
0.0111137
0.0125765
0.0134957
0.0140752
0.0144468
0.0146824
0.0148264
0.0149086
0.0149594
0.0149938
0.0149416
0.0149158
0.0148807
0.0148383
0.0147855
0.0146961
0.0145277
0.0141831
0.0135493
0.0124012
0.0104112
0.00730342
0.00298785
-0.00264321
-0.00954562
-0.0174173
-0.025518
-0.0330911
-0.0379421
-0.0394397
-0.0376446
-0.032923
-0.0264451
-0.018744
-0.0110046
-0.00384941
0.00190547
0.00641999
0.0095335
0.0115304
0.0127641
0.013482
0.0139268
0.0142057
0.0143881
0.0145087
0.0145882
0.0146355
0.0146596
0.0146634
0.0140687
0.0139951
0.0139349
0.0138535
0.0137304
0.0135134
0.0131481
0.0124987
0.0113825
0.00948674
0.00650925
0.00226057
-0.00320947
-0.00983434
-0.0172701
-0.0250695
-0.0323533
-0.0383498
-0.040988
-0.039767
-0.0368359
-0.0302955
-0.0219478
-0.012934
-0.00443886
0.00251444
0.00766077
0.0111013
0.0129726
0.0138388
0.0142025
0.0142933
0.0143127
0.0143068
0.0143014
0.0142971
0.0143008
0.0143027
0.0143008
0.0142949
0.0133338
0.0133034
0.0132356
0.0131116
0.0128994
0.0125446
0.0119801
0.011068
0.00957586
0.00711257
0.00318955
-0.00239532
-0.00967287
-0.0182702
-0.0272727
-0.03598
-0.0436034
-0.0490509
-0.0513372
-0.0483965
-0.0410103
-0.0313043
-0.0202605
-0.00956924
-0.000505222
0.00637567
0.0110961
0.01377
0.01509
0.0153953
0.0151167
0.0147733
0.0144602
0.0142188
0.0140446
0.013922
0.0138502
0.0138171
0.0138159
0.0138507
0.0126828
0.0127203
0.0126577
0.0125136
0.0122418
0.0118038
0.0111169
0.0100355
0.00835293
0.00568893
0.00144745
-0.00454431
-0.0125145
-0.0224403
-0.0329352
-0.0429207
-0.051779
-0.0575404
-0.0599435
-0.0559271
-0.0436756
-0.0313127
-0.0184315
-0.00708657
0.00169187
0.00814506
0.0122491
0.0143709
0.0154499
0.0156104
0.01517
0.0147132
0.0142822
0.0139374
0.0136839
0.0135109
0.0134056
0.01336
0.0133581
0.0134064
0.0120411
0.0120687
0.0120105
0.0118785
0.0116306
0.0112276
0.0105952
0.00960365
0.00803271
0.00558313
0.00187061
-0.00340549
-0.0102655
-0.019038
-0.0288258
-0.0384675
-0.0472164
-0.0531165
-0.0557177
-0.0522012
-0.0421633
-0.0304969
-0.0186468
-0.00846414
-0.000395072
0.00576321
0.00991626
0.0123311
0.0137564
0.0143194
0.0142589
0.0140441
0.0137187
0.013449
0.0132447
0.0131012
0.013006
0.0129505
0.0129221
0.0129208
0.0115088
0.0114839
0.0114287
0.0113327
0.0111606
0.0108762
0.0104267
0.0097131
0.00858091
0.00678857
0.00408104
0.000178064
-0.00473904
-0.0109708
-0.0181063
-0.0255379
-0.0325809
-0.0380105
-0.0412675
-0.0409561
-0.0370314
-0.0297797
-0.02155
-0.0136578
-0.00648281
-0.000365624
0.00439146
0.0078774
0.0102717
0.0116936
0.0123685
0.0126132
0.0126166
0.0125567
0.0125006
0.0124511
0.0124132
0.0123809
0.0123481
0.0123056
0.0111779
0.0111525
0.0111175
0.0110632
0.0109682
0.0108117
0.0105617
0.0101759
0.0095559
0.00856123
0.0069429
0.00452441
0.00137684
-0.00271867
-0.00761753
-0.0131613
-0.0189386
-0.0241349
-0.0284781
-0.0311349
-0.0312467
-0.0286461
-0.0242846
-0.0185155
-0.0121831
-0.00632454
-0.00121922
0.00293589
0.00606991
0.00833366
0.0097741
0.0105874
0.0110207
0.0112603
0.011392
0.011463
0.0115115
0.0115464
0.0115666
0.0115558
0.0109405
0.0109476
0.0109418
0.0109265
0.0108959
0.0108524
0.0107797
0.01068
0.010489
0.0101602
0.00946335
0.00827467
0.00637358
0.00342876
-0.000546665
-0.00555693
-0.0114533
-0.0171916
-0.0224747
-0.0266459
-0.0285567
-0.0293588
-0.0277351
-0.0234484
-0.0177969
-0.0120766
-0.00667396
-0.0019189
0.00189763
0.00489929
0.00706915
0.00848732
0.00937463
0.00991283
0.0102279
0.0104142
0.0105298
0.0106152
0.0106833
0.0107448
0.0106225
0.010622
0.0106333
0.0106564
0.0106944
0.0107581
0.0108504
0.0109852
0.0111489
0.0113124
0.0113616
0.0110218
0.00987267
0.00770902
0.00421464
-0.000652306
-0.00695483
-0.014181
-0.0212809
-0.0272608
-0.032058
-0.0350817
-0.0347135
-0.0312296
-0.0259994
-0.0199866
-0.0136898
-0.00775262
-0.00256656
0.00157064
0.00459727
0.00667321
0.00798302
0.00878293
0.00926792
0.00956787
0.00975084
0.00986844
0.00994808
0.0100246
0.0102419
0.010206
0.0102087
0.0102482
0.0103354
0.0104794
0.0106877
0.0109772
0.011395
0.0118296
0.0123026
0.0124641
0.0118767
0.0105451
0.00782268
0.00341863
-0.00275475
-0.0112175
-0.0205603
-0.0293392
-0.0376026
-0.0433225
-0.0436423
-0.0397557
-0.034446
-0.0275439
-0.0199383
-0.0125489
-0.00592396
-0.000821342
0.00282464
0.00534649
0.00694229
0.00794042
0.00856736
0.00897373
0.00922616
0.00937596
0.00945026
0.00945164
0.00985944
0.00982751
0.00983574
0.00988095
0.00998012
0.0101378
0.0103686
0.0106836
0.0110924
0.0115008
0.0118991
0.0120058
0.0115905
0.0105653
0.00824007
0.00424846
-0.00145322
-0.00973346
-0.0195688
-0.0298276
-0.0386898
-0.0446543
-0.0450152
-0.0412128
-0.0355817
-0.0282344
-0.0203289
-0.0126996
-0.006231
-0.00135496
0.00227258
0.00477486
0.00638445
0.00739911
0.00806047
0.00849708
0.00876525
0.00891079
0.00897153
0.0089345
0.00941764
0.00943391
0.00946451
0.00950853
0.00957368
0.0096681
0.00980243
0.00997043
0.010148
0.0102043
0.0100825
0.00950111
0.00836857
0.00652966
0.00367415
-0.00040177
-0.00570941
-0.0121708
-0.0197873
-0.0274203
-0.0329597
-0.036384
-0.035559
-0.0320167
-0.0270018
-0.020814
-0.0144172
-0.00846848
-0.00358681
0.000235537
0.00312772
0.00508109
0.00636551
0.00720293
0.00773875
0.00807337
0.00828063
0.00839773
0.00845492
0.00845098
0.00885722
0.00888955
0.00890016
0.00889711
0.00888311
0.00885751
0.00880962
0.00871287
0.00850849
0.00804075
0.00714605
0.00564581
0.00352411
0.000733665
-0.00276681
-0.00692134
-0.0116523
-0.0163507
-0.0205947
-0.0241051
-0.025722
-0.0253809
-0.0228761
-0.0194567
-0.0152196
-0.0107104
-0.00638838
-0.0025616
0.000514651
0.00302089
0.00485599
0.00605355
0.00684872
0.00734373
0.007661
0.00786159
0.00798362
0.00805639
0.00810005
0.00812962
0.00818891
0.00817171
0.00812497
0.00805481
0.00795765
0.00781091
0.0075755
0.00719571
0.00658506
0.00560978
0.0040909
0.00197567
-0.000780191
-0.00422312
-0.00826601
-0.0124853
-0.0168144
-0.0201781
-0.0216317
-0.0217059
-0.0208565
-0.0183159
-0.014958
-0.0112214
-0.00712685
-0.00329975
-7.51984e-05
0.00244576
0.00433487
0.00575699
0.00663793
0.00717565
0.00750639
0.00768379
0.00779757
0.00787744
0.00792766
0.00795024
0.00796092
0.00796967
0.00751556
0.00743936
0.00736214
0.00725744
0.00710595
0.00686561
0.00647312
0.00584282
0.00483534
0.00332929
0.00117397
-0.0016841
-0.00532336
-0.00964431
-0.0143674
-0.0188557
-0.0227572
-0.0249705
-0.0249522
-0.0227218
-0.019663
-0.015766
-0.0113458
-0.00664421
-0.00214898
0.00155502
0.00434303
0.00614549
0.00728164
0.0078765
0.00802585
0.00805205
0.00800718
0.00794612
0.00790091
0.00787437
0.00786211
0.00784809
0.00783609
0.00782077
0.00698207
0.00693142
0.00684873
0.00671515
0.00650463
0.00617306
0.00565163
0.00481881
0.00348083
0.00142887
-0.00150023
-0.00542836
-0.0103542
-0.0159051
-0.0216055
-0.0267205
-0.0305479
-0.0323772
-0.0313039
-0.0268122
-0.0208231
-0.0147363
-0.00834368
-0.00231355
0.00238024
0.00574676
0.00791272
0.00898828
0.00939596
0.00924522
0.0088891
0.00852856
0.00820953
0.00796883
0.00779771
0.00768151
0.00761313
0.00757467
0.0075601
0.0075709
0.00656021
0.00657458
0.00651144
0.00636943
0.00611772
0.00572603
0.00511577
0.00416476
0.00266203
0.000338691
-0.00291451
-0.00735726
-0.0130736
-0.0194261
-0.0258899
-0.0315786
-0.0356498
-0.0373778
-0.0356697
-0.0295646
-0.0218274
-0.0137398
-0.00587043
0.000729268
0.0052605
0.0082001
0.00970953
0.0102338
0.0101277
0.00958601
0.00906466
0.00854746
0.00809634
0.00776724
0.00753108
0.00737328
0.00727893
0.00723636
0.007233
0.00726894
0.00616119
0.00618881
0.00613798
0.00601384
0.00578563
0.00541747
0.00484217
0.00395102
0.00259509
0.000532474
-0.00235486
-0.00622775
-0.0112364
-0.0169144
-0.0227661
-0.0280274
-0.0319097
-0.0337906
-0.0327727
-0.0278659
-0.0212072
-0.0138231
-0.00676178
-0.00100792
0.00321264
0.00607931
0.00774434
0.00856457
0.00877144
0.00858636
0.00834311
0.00800362
0.00768077
0.00741716
0.00721982
0.00708642
0.00700409
0.00696274
0.00694898
0.00696549
0.00584014
0.0058268
0.00577831
0.00568993
0.00553697
0.00528333
0.00488268
0.00425865
0.00329494
0.00186678
-0.000152455
-0.00278382
-0.00611822
-0.00999911
-0.0141675
-0.0181025
-0.0213634
-0.0235459
-0.0243711
-0.0226043
-0.0193507
-0.0150417
-0.0106264
-0.0064913
-0.00274645
0.000263614
0.00258607
0.00430861
0.00550668
0.00627852
0.00668078
0.00680798
0.00681051
0.00676267
0.00671275
0.0066777
0.00665388
0.00663571
0.00661553
0.00659333
0.00567814
0.00565163
0.00562312
0.00558345
0.00551585
0.00540607
0.00522467
0.0049303
0.00445024
0.00370371
0.00258996
0.00109758
-0.000819882
-0.00319259
-0.00600235
-0.00906606
-0.0119842
-0.0146605
-0.0167502
-0.0175354
-0.0172726
-0.016129
-0.0143604
-0.0116525
-0.00839986
-0.00526382
-0.00241699
-2.49737e-05
0.00193258
0.00343867
0.00448089
0.00513388
0.00552552
0.00576003
0.00590317
0.00599654
0.00605895
0.00609915
0.00611557
0.00610374
0.00562807
0.00563044
0.00563621
0.00564135
0.00564113
0.00564201
0.00563498
0.00560313
0.00551382
0.00529481
0.00488822
0.00414128
0.00299881
0.00139395
-0.000804787
-0.00363318
-0.00668296
-0.00964256
-0.0122707
-0.0147055
-0.0166266
-0.0180361
-0.0181002
-0.0164215
-0.013588
-0.0102233
-0.00681096
-0.00372762
-0.0011329
0.000883351
0.00241986
0.00350094
0.00422906
0.00471794
0.00502611
0.00522317
0.00535133
0.00544142
0.00550374
0.0055518
0.00554934
0.00556895
0.0055902
0.0056225
0.00567127
0.0057483
0.00585708
0.00600385
0.00619362
0.00637034
0.00649706
0.00639327
0.00593856
0.00496602
0.00326986
0.000736736
-0.00267188
-0.00645242
-0.0103577
-0.0144746
-0.0185052
-0.0219163
-0.0232802
-0.0224308
-0.0197731
-0.0161013
-0.0119767
-0.00792245
-0.0043619
-0.00152116
0.000626584
0.0021703
0.00322526
0.00391419
0.00434679
0.00462527
0.00480685
0.0049319
0.005022
0.00508847
0.00536802
0.005359