/*--------------------------------*- C++ -*----------------------------------*\
| =========                 |                                                 |
| \\      /  F ield         | OpenFOAM: The Open Source CFD Toolbox           |
|  \\    /   O peration     | Version:  v2106                                 |
|   \\  /    A nd           | Website:  www.openfoam.com                      |
|    \\/     M anipulation  |                                                 |
\*---------------------------------------------------------------------------*/
FoamFile
{
    version     2.0;
    format      ascii;
    arch        "LSB;label=32;scalar=64";
    class       pointVectorField;
    location    "0";
    object      pointDisplacement;
}
// * * * * * * * * * * * * * * * * * * * * * * * * * * * * * * * * * * * * * //

dimensions      [0 1 0 0 0 0 0];

internalField   nonuniform List<vector> 
24440
(
(0 0 0)
(0 0 0)
(0 0 0)
(0 0 0)
(0 0 0)
(0 0 0)
(0 0 0)
(0 0 0)
(0 0 0)
(0 0 0)
(0 0 0)
(0 0 0)
(0 0 0)
(0 0 0)
(0 0 0)
(0 0 0)
(0 0 0)
(0 0 0)
(0 0 0)
(0 0 0)
(0 0 0)
(0 0 0)
(0 0 0)
(0 0 0)
(0 0 0)
(0 0 0)
(0 0 0)
(0 0 0)
(0 0 0)
(0 0 0)
(0 0 0)
(0 0 0)
(0 0 0)
(0 0 0)
(0 0 0)
(0 0 0)
(0 0 0)
(0 0 0)
(0 0 0)
(0 0 0)
(0 0 0)
(0 0 0)
(0 0 0)
(0 0 0)
(0 0 0)
(0 0 0)
(0 0 0)
(0 0 0)
(0 0 0)
(0 0 0)
(0 0 0)
(0 0 0)
(0 0 0)
(0 0 0)
(0 0 0)
(0 0 0)
(0 0 0)
(0 0 0)
(0 0 0)
(0 0 0)
(0 0 0)
(0 0 0)
(0 0 0)
(0 0 0)
(0 0 0)
(0 0 0)
(0 0 0)
(0 0 0)
(0 0 0)
(0 0 0)
(0 0 0)
(0 0 0)
(0 0 0)
(0 0 0)
(0 0 0)
(0 0 0)
(0 0 0)
(0 0 0)
(0 0 0)
(0 0 0)
(0 0 0)
(0 0 0)
(0 0 0)
(0 0 0)
(0 0 0)
(0 0 0)
(0 0 0)
(0 0 0)
(0 0 0)
(0 0 0)
(0 0 0)
(0 0 0)
(0 0 0)
(0 0 0)
(0 0 0)
(0 0 0)
(0 0 0)
(0 0 0)
(0 6.33698e-06 0)
(0 3.99614e-05 0)
(0 0.000109885 0)
(0 0.000169328 0)
(0 0.00019214 0)
(0 0.000169328 0)
(0 0.000109885 0)
(0 3.99614e-05 0)
(0 6.33698e-06 0)
(0 0 0)
(0 0 0)
(0 0 0)
(0 0 0)
(0 0 0)
(0 0 0)
(0 0 0)
(0 0 0)
(0 0 0)
(0 0 0)
(0 0 0)
(0 0 0)
(0 0 0)
(0 0 0)
(0 0 0)
(0 0 0)
(0 0 0)
(0 0 0)
(0 0 0)
(0 0 0)
(0 0 0)
(0 0 0)
(0 0 0)
(0 0 0)
(0 0 0)
(0 0 0)
(0 0 0)
(0 0 0)
(0 0 0)
(0 1.06127e-05 0)
(0 0.000140389 0)
(0 0.000413154 0)
(0 0.00074427 0)
(0 0.00106163 0)
(0 0.00128288 0)
(0 0.00148855 0)
(0 0.00156091 0)
(0 0.00148855 0)
(0 0.00128288 0)
(0 0.00106163 0)
(0 0.00074427 0)
(0 0.000413154 0)
(0 0.000140389 0)
(0 1.06127e-05 0)
(0 0 0)
(0 0 0)
(0 0 0)
(0 0 0)
(0 0 0)
(0 0 0)
(0 0 0)
(0 0 0)
(0 0 0)
(0 0 0)
(0 0 0)
(0 0 0)
(0 0 0)
(0 0 0)
(0 0 0)
(0 0 0)
(0 0 0)
(0 0 0)
(0 0 0)
(0 0 0)
(0 0 0)
(0 0 0)
(0 0 0)
(0 0 0)
(0 4.45584e-06 0)
(0 0.000184624 0)
(0 0.000629628 0)
(0 0.00124162 0)
(0 0.00187197 0)
(0 0.0025752 0)
(0 0.00318426 0)
(0 0.00356147 0)
(0 0.00392215 0)
(0 0.00404681 0)
(0 0.00392215 0)
(0 0.00356147 0)
(0 0.00318426 0)
(0 0.0025752 0)
(0 0.00187197 0)
(0 0.00124162 0)
(0 0.000629628 0)
(0 0.000184624 0)
(0 4.45584e-06 0)
(0 0 0)
(0 0 0)
(0 0 0)
(0 0 0)
(0 0 0)
(0 0 0)
(0 0 0)
(0 0 0)
(0 0 0)
(0 0 0)
(0 0 0)
(0 0 0)
(0 0 0)
(0 0 0)
(0 0 0)
(0 0 0)
(0 0 0)
(0 0 0)
(0 0 0)
(0 0 0)
(0 0 0)
(0 4.21321e-05 0)
(0 0.00043815 0)
(0 0.00116441 0)
(0 0.00204297 0)
(0 0.00313379 0)
(0 0.00423399 0)
(0 0.0051871 0)
(0 0.00607994 0)
(0 0.00671351 0)
(0 0.00709205 0)
(0 0.00726582 0)
(0 0.00709205 0)
(0 0.00671351 0)
(0 0.00607994 0)
(0 0.0051871 0)
(0 0.00423399 0)
(0 0.00313379 0)
(0 0.00204297 0)
(0 0.00116441 0)
(0 0.00043815 0)
(0 4.46039e-05 0)
(0 0 0)
(0 0 0)
(0 0 0)
(0 0 0)
(0 0 0)
(0 0 0)
(0 0 0)
(0 0 0)
(0 0 0)
(0 0 0)
(0 0 0)
(0 0 0)
(0 0 0)
(0 0 0)
(0 0 0)
(0 0 0)
(0 0 0)
(0 0 0)
(0 0 0)
(0 8.28644e-05 0)
(0 0.000581045 0)
(0 0.00145021 0)
(0 0.00266237 0)
(0 0.00410297 0)
(0 0.00559998 0)
(0 0.00697374 0)
(0 0.0082761 0)
(0 0.00876547 0)
(0 0.00929469 0)
(0 0.00973736 0)
(0 0.0100861 0)
(0 0.0103355 0)
(0 0.010508 0)
(0 0.0106673 0)
(0 0.0107207 0)
(0 0.0106673 0)
(0 0.010508 0)
(0 0.0103355 0)
(0 0.0100861 0)
(0 0.00973736 0)
(0 0.00929469 0)
(0 0.00876547 0)
(0 0.0082761 0)
(0 0.00697374 0)
(0 0.00559998 0)
(0 0.00410297 0)
(0 0.00266237 0)
(0 0.00142011 0)
(0 0.000525032 0)
(0 6.62141e-05 0)
(0 0 0)
(0 0 0)
(0 0 0)
(0 0 0)
(0 0 0)
(0 0 0)
(0 0 0)
(0 0 0)
(0 0 0)
(0 0 0)
(0 0 0)
(0 0 0)
(0 0 0)
(0 0 0)
(0 0 0)
(0 0 0)
(0 0 0)
(0 4.87395e-05 0)
(0 0.000557771 0)
(0 0.00155405 0)
(0 0.00292427 0)
(0 0.00452926 0)
(0 0.00641763 0)
(0 0.00732056 0)
(0 0.00812089 0)
(0 0.00900669 0)
(0 0.00983697 0)
(0 0.0105966 0)
(0 0.011242 0)
(0 0.00979753 0)
(0 0.0103957 0)
(0 0.0108678 0)
(0 0.011344 0)
(0 0.0117176 0)
(0 0.0119838 0)
(0 0.0121433 0)
(0 0.0123125 0)
(0 0.012369 0)
(0 0.0123125 0)
(0 0.0121433 0)
(0 0.0119838 0)
(0 0.0117176 0)
(0 0.011344 0)
(0 0.0108678 0)
(0 0.0103957 0)
(0 0.00979753 0)
(0 0.011242 0)
(0 0.0105966 0)
(0 0.00983697 0)
(0 0.00900669 0)
(0 0.00812089 0)
(0 0.00732056 0)
(0 0.00641763 0)
(0 0.00452926 0)
(0 0.00292427 0)
(0 0.00149736 0)
(0 0.000533504 0)
(0 4.42625e-05 0)
(0 0 0)
(0 0 0)
(0 0 0)
(0 0 0)
(0 0 0)
(0 0 0)
(0 0 0)
(0 0 0)
(0 0 0)
(0 0 0)
(0 0 0)
(0 0 0)
(0 0 0)
(0 0 0)
(0 0 0)
(0 0 0)
(0 0.000308383 0)
(0 0.00126026 0)
(0 0.00269425 0)
(0 0.00449551 0)
(0 0.00650171 0)
(0 0.00854022 0)
(0 0.00751695 0)
(0 0.00849884 0)
(0 0.00944367 0)
(0 0.0103333 0)
(0 0.0111237 0)
(0 0.0119253 0)
(0 0.0126337 0)
(0 0.0132189 0)
(0 0.0118776 0)
(0 0.012413 0)
(0 0.0137707 0)
(0 0.014168 0)
(0 0.0128389 0)
(0 0.0132286 0)
(0 0.0145632 0)
(0 0.0148414 0)
(0 0.0135051 0)
(0 0.0136452 0)
(0 0.0150026 0)
(0 0.0151305 0)
(0 0.0138196 0)
(0 0.0138778 0)
(0 0.0151883 0)
(0 0.0151305 0)
(0 0.0138196 0)
(0 0.0136452 0)
(0 0.0150026 0)
(0 0.0148414 0)
(0 0.0135051 0)
(0 0.0132286 0)
(0 0.0145632 0)
(0 0.014168 0)
(0 0.0128389 0)
(0 0.012413 0)
(0 0.0137707 0)
(0 0.0132189 0)
(0 0.0118776 0)
(0 0.0126337 0)
(0 0.0119253 0)
(0 0.0111237 0)
(0 0.0103333 0)
(0 0.00944367 0)
(0 0.00849884 0)
(0 0.00751695 0)
(0 0.00854022 0)
(0 0.00650171 0)
(0 0.0044414 0)
(0 0.00267298 0)
(0 0.00125891 0)
(0 0.000335262 0)
(0 0 0)
(0 0 0)
(0 0 0)
(0 0 0)
(0 0 0)
(0 0 0)
(0 0 0)
(0 0 0)
(0 0 0)
(0 0 0)
(0 0 0)
(0 0 0)
(0 0 0)
(0 0 0)
(0 0 0)
(0 6.72735e-05 0)
(0 0.000691148 0)
(0 0.00199222 0)
(0 0.00373262 0)
(0 0.00580166 0)
(0 0.00817214 0)
(0 0.0104555 0)
(0 0.00956686 0)
(0 0.0106013 0)
(0 0.00951904 0)
(0 0.0105837 0)
(0 0.0115735 0)
(0 0.0125489 0)
(0 0.0115206 0)
(0 0.0123763 0)
(0 0.0134283 0)
(0 0.0138293 0)
(0 0.0142025 0)
(0 0.013695 0)
(0 0.0130986 0)
(0 0.0138255 0)
(0 0.0143467 0)
(0 0.0146688 0)
(0 0.0141473 0)
(0 0.0149302 0)
(0 0.0154247 0)
(0 0.0156535 0)
(0 0.0151625 0)
(0 0.0156744 0)
(0 0.0161581 0)
(0 0.0162787 0)
(0 0.0158234 0)
(0 0.0160972 0)
(0 0.0165405 0)
(0 0.0166036 0)
(0 0.0161705 0)
(0 0.0162494 0)
(0 0.016673 0)
(0 0.0166603 0)
(0 0.0162358 0)
(0 0.0160972 0)
(0 0.0165405 0)
(0 0.0164807 0)
(0 0.0160343 0)
(0 0.0156744 0)
(0 0.0161581 0)
(0 0.0160197 0)
(0 0.0155371 0)
(0 0.0149302 0)
(0 0.0154247 0)
(0 0.0152227 0)
(0 0.0146679 0)
(0 0.0138255 0)
(0 0.0143467 0)
(0 0.0139955 0)
(0 0.0134756 0)
(0 0.0123763 0)
(0 0.0134283 0)
(0 0.0125489 0)
(0 0.0115206 0)
(0 0.0105837 0)
(0 0.0115735 0)
(0 0.0106013 0)
(0 0.00951904 0)
(0 0.00956686 0)
(0 0.0104084 0)
(0 0.00816649 0)
(0 0.00589516 0)
(0 0.00370128 0)
(0 0.00197282 0)
(0 0.000725788 0)
(0 7.69307e-05 0)
(0 0 0)
(0 0 0)
(0 0 0)
(0 0 0)
(0 0 0)
(0 0 0)
(0 0 0)
(0 0 0)
(0 0 0)
(0 0 0)
(0 0 0)
(0 0 0)
(0 0 0)
(0 0 0)
(0 0.000220103 0)
(0 0.00111396 0)
(0 0.0026173 0)
(0 0.00459893 0)
(0 0.00688901 0)
(0 0.00940786 0)
(0 0.0117587 0)
(0 0.0111787 0)
(0 0.0122849 0)
(0 0.011532 0)
(0 0.0125372 0)
(0 0.0133109 0)
(0 0.0142375 0)
(0 0.0134528 0)
(0 0.0142638 0)
(0 0.0146839 0)
(0 0.0150453 0)
(0 0.0146834 0)
(0 0.0157043 0)
(0 0.0158781 0)
(0 0.0160184 0)
(0 0.0158462 0)
(0 0.0166246 0)
(0 0.0167636 0)
(0 0.0168539 0)
(0 0.0167177 0)
(0 0.0171694 0)
(0 0.0172707 0)
(0 0.0173166 0)
(0 0.0172146 0)
(0 0.0174081 0)
(0 0.0174824 0)
(0 0.017493 0)
(0 0.0174209 0)
(0 0.0174692 0)
(0 0.017529 0)
(0 0.017528 0)
(0 0.0174677 0)
(0 0.0174081 0)
(0 0.0174824 0)
(0 0.0174677 0)
(0 0.0173907 0)
(0 0.0171694 0)
(0 0.0172707 0)
(0 0.0172321 0)
(0 0.0171149 0)
(0 0.0166246 0)
(0 0.0167636 0)
(0 0.0166851 0)
(0 0.0165233 0)
(0 0.0157043 0)
(0 0.0158781 0)
(0 0.0160372 0)
(0 0.0157345 0)
(0 0.0153961 0)
(0 0.0142638 0)
(0 0.0146839 0)
(0 0.0150489 0)
(0 0.0142375 0)
(0 0.0134528 0)
(0 0.0125372 0)
(0 0.0132805 0)
(0 0.012277 0)
(0 0.011532 0)
(0 0.011192 0)
(0 0.0117935 0)
(0 0.00938421 0)
(0 0.00695764 0)
(0 0.00464716 0)
(0 0.00264762 0)
(0 0.00112985 0)
(0 0.000225533 0)
(0 0 0)
(0 0 0)
(0 0 0)
(0 0 0)
(0 0 0)
(0 0 0)
(0 0 0)
(0 0 0)
(0 0 0)
(0 0 0)
(0 0 0)
(0 0 0)
(0 0 0)
(0 0 0)
(0 0.000339393 0)
(0 0.00138384 0)
(0 0.0030453 0)
(0 0.00518348 0)
(0 0.00761828 0)
(0 0.0101451 0)
(0 0.0125525 0)
(0 0.0122543 0)
(0 0.0133518 0)
(0 0.0128423 0)
(0 0.0138358 0)
(0 0.0143516 0)
(0 0.0152342 0)
(0 0.0148079 0)
(0 0.0156114 0)
(0 0.0158099 0)
(0 0.0161557 0)
(0 0.0159618 0)
(0 0.0167944 0)
(0 0.0168861 0)
(0 0.0169895 0)
(0 0.0169007 0)
(0 0.0174325 0)
(0 0.0174767 0)
(0 0.0175137 0)
(0 0.0174746 0)
(0 0.0175853 0)
(0 0.0175853 0)
(0 0.0175853 0)
(0 0.0175853 0)
(0 0.0175853 0)
(0 0.0175853 0)
(0 0.0175853 0)
(0 0.0175853 0)
(0 0.0175853 0)
(0 0.0175853 0)
(0 0.0175853 0)
(0 0.0175853 0)
(0 0.0175853 0)
(0 0.0175853 0)
(0 0.0175853 0)
(0 0.0175853 0)
(0 0.0175853 0)
(0 0.0175853 0)
(0 0.0175853 0)
(0 0.0175853 0)
(0 0.0174325 0)
(0 0.0174767 0)
(0 0.017428 0)
(0 0.0173818 0)
(0 0.0167944 0)
(0 0.0168861 0)
(0 0.0169644 0)
(0 0.0167252 0)
(0 0.0165539 0)
(0 0.0156023 0)
(0 0.0158329 0)
(0 0.016009 0)
(0 0.0152131 0)
(0 0.0148211 0)
(0 0.0139147 0)
(0 0.0143338 0)
(0 0.0133376 0)
(0 0.012899 0)
(0 0.0122439 0)
(0 0.0125588 0)
(0 0.010141 0)
(0 0.00760617 0)
(0 0.00516685 0)
(0 0.00302796 0)
(0 0.00136949 0)
(0 0.000331246 0)
(0 0 0)
(0 0 0)
(0 0 0)
(0 0 0)
(0 0 0)
(0 0 0)
(0 0 0)
(0 0 0)
(0 0 0)
(0 0 0)
(0 0 0)
(0 0 0)
(0 0 0)
(0 0 0)
(0 0.000359833 0)
(0 0.00142808 0)
(0 0.00311503 0)
(0 0.00527895 0)
(0 0.00773801 0)
(0 0.0102856 0)
(0 0.0127077 0)
(0 0.0127121 0)
(0 0.0138108 0)
(0 0.0136479 0)
(0 0.0146404 0)
(0 0.0148034 0)
(0 0.0156691 0)
(0 0.0155097 0)
(0 0.0162664 0)
(0 0.0163395 0)
(0 0.0166429 0)
(0 0.016577 0)
(0 0.0172617 0)
(0 0.0172899 0)
(0 0.0173648 0)
(0 0.0173388 0)
(0 0.0175853 0)
(0 0.0175853 0)
(0 0.0175853 0)
(0 0.0175853 0)
(0 0.0175853 0)
(0 0.0175853 0)
(0 0.0175853 0)
(0 0.0175853 0)
(0 0.0175853 0)
(0 0.0175853 0)
(0 0.0175853 0)
(0 0.0175853 0)
(0 0.0175853 0)
(0 0.0175853 0)
(0 0.0175853 0)
(0 0.0175853 0)
(0 0.0175853 0)
(0 0.0175846 0)
(0 0.017582 0)
(0 0.0172617 0)
(0 0.0172899 0)
(0 0.0173085 0)
(0 0.0171327 0)
(0 0.0170706 0)
(0 0.0162654 0)
(0 0.0163405 0)
(0 0.0163898 0)
(0 0.0156691 0)
(0 0.0155322 0)
(0 0.0146578 0)
(0 0.0147661 0)
(0 0.0137679 0)
(0 0.0136598 0)
(0 0.0126647 0)
(0 0.0126793 0)
(0 0.010254 0)
(0 0.00770589 0)
(0 0.00524912 0)
(0 0.00309008 0)
(0 0.00141018 0)
(0 0.00035056 0)
(0 0 0)
(0 0 0)
(0 0 0)
(0 0 0)
(0 0 0)
(0 0 0)
(0 0 0)
(0 0 0)
(0 0 0)
(0 0 0)
(0 0 0)
(0 0 0)
(0 0 0)
(0 0 0)
(0 0.000294067 0)
(0 0.00128519 0)
(0 0.00289139 0)
(0 0.00497564 0)
(0 0.00736149 0)
(0 0.00984834 0)
(0 0.0122291 0)
(0 0.0125728 0)
(0 0.0136696 0)
(0 0.0138072 0)
(0 0.0148008 0)
(0 0.014663 0)
(0 0.0155328 0)
(0 0.0156675 0)
(0 0.0163891 0)
(0 0.0163505 0)
(0 0.0166538 0)
(0 0.0166906 0)
(0 0.0173394 0)
(0 0.0173302 0)
(0 0.0174004 0)
(0 0.0174087 0)
(0 0.0175853 0)
(0 0.0175853 0)
(0 0.0175853 0)
(0 0.0175853 0)
(0 0.0175853 0)
(0 0.0175853 0)
(0 0.0175853 0)
(0 0.0175853 0)
(0 0.0175853 0)
(0 0.0175853 0)
(0 0.0175853 0)
(0 0.0175853 0)
(0 0.0175853 0)
(0 0.0175853 0)
(0 0.0175853 0)
(0 0.0175853 0)
(0 0.0173394 0)
(0 0.0173227 0)
(0 0.0173136 0)
(0 0.0171382 0)
(0 0.0171581 0)
(0 0.0163738 0)
(0 0.0163493 0)
(0 0.0162747 0)
(0 0.0155435 0)
(0 0.0156483 0)
(0 0.014778 0)
(0 0.0146708 0)
(0 0.0136742 0)
(0 0.0137813 0)
(0 0.0125743 0)
(0 0.0122602 0)
(0 0.00987118 0)
(0 0.0073764 0)
(0 0.00498385 0)
(0 0.00289465 0)
(0 0.00128551 0)
(0 0.000293425 0)
(0 0 0)
(0 0 0)
(0 0 0)
(0 0 0)
(0 0 0)
(0 0 0)
(0 0 0)
(0 0 0)
(0 0 0)
(0 0 0)
(0 0 0)
(0 0 0)
(0 0 0)
(0 0 0)
(0 0.000148735 0)
(0 0.000934231 0)
(0 0.00232371 0)
(0 0.00419239 0)
(0 0.00651798 0)
(0 0.00889604 0)
(0 0.0112156 0)
(0 0.0118308 0)
(0 0.0129304 0)
(0 0.013318 0)
(0 0.0143745 0)
(0 0.0139394 0)
(0 0.0148386 0)
(0 0.0152708 0)
(0 0.016032 0)
(0 0.0158496 0)
(0 0.0161804 0)
(0 0.0163576 0)
(0 0.0171004 0)
(0 0.0170485 0)
(0 0.0171429 0)
(0 0.0171983 0)
(0 0.017564 0)
(0 0.017546 0)
(0 0.0175675 0)
(0 0.0175787 0)
(0 0.0175853 0)
(0 0.0175853 0)
(0 0.0175853 0)
(0 0.0175853 0)
(0 0.0175853 0)
(0 0.0175853 0)
(0 0.0175853 0)
(0 0.0175853 0)
(0 0.017564 0)
(0 0.0175433 0)
(0 0.0175147 0)
(0 0.0175403 0)
(0 0.0171004 0)
(0 0.0170485 0)
(0 0.016978 0)
(0 0.0167543 0)
(0 0.0168924 0)
(0 0.016032 0)
(0 0.0158496 0)
(0 0.0156424 0)
(0 0.0148386 0)
(0 0.0152708 0)
(0 0.0143478 0)
(0 0.0139394 0)
(0 0.0129304 0)
(0 0.0133529 0)
(0 0.0118308 0)
(0 0.0112156 0)
(0 0.00889604 0)
(0 0.00643398 0)
(0 0.0042336 0)
(0 0.00235074 0)
(0 0.000949025 0)
(0 0.000153733 0)
(0 0 0)
(0 0 0)
(0 0 0)
(0 0 0)
(0 0 0)
(0 0 0)
(0 0 0)
(0 0 0)
(0 0 0)
(0 0 0)
(0 0 0)
(0 0 0)
(0 0 0)
(0 0 0)
(0 1.84037e-05 0)
(0 0.00054631 0)
(0 0.00166358 0)
(0 0.00327127 0)
(0 0.00522241 0)
(0 0.00734577 0)
(0 0.00957391 0)
(0 0.0104188 0)
(0 0.0115517 0)
(0 0.0122945 0)
(0 0.013344 0)
(0 0.0125435 0)
(0 0.0135369 0)
(0 0.0142567 0)
(0 0.0150952 0)
(0 0.014759 0)
(0 0.0151294 0)
(0 0.0154628 0)
(0 0.0163627 0)
(0 0.016213 0)
(0 0.0163492 0)
(0 0.0164736 0)
(0 0.0171581 0)
(0 0.0170596 0)
(0 0.0171315 0)
(0 0.0172262 0)
(0 0.0175138 0)
(0 0.0174587 0)
(0 0.0174829 0)
(0 0.0175332 0)
(0 0.0175853 0)
(0 0.0175755 0)
(0 0.0175793 0)
(0 0.0175853 0)
(0 0.0175853 0)
(0 0.0175853 0)
(0 0.0175853 0)
(0 0.0175853 0)
(0 0.0175853 0)
(0 0.0175853 0)
(0 0.0175755 0)
(0 0.0175701 0)
(0 0.0175847 0)
(0 0.0175851 0)
(0 0.0175138 0)
(0 0.0174587 0)
(0 0.0174288 0)
(0 0.0174888 0)
(0 0.0171581 0)
(0 0.0170596 0)
(0 0.0169795 0)
(0 0.0170816 0)
(0 0.0163748 0)
(0 0.0162373 0)
(0 0.0160721 0)
(0 0.015799 0)
(0 0.016096 0)
(0 0.0150538 0)
(0 0.0147419 0)
(0 0.0143776 0)
(0 0.0135183 0)
(0 0.0142567 0)
(0 0.013344 0)
(0 0.0125435 0)
(0 0.0115517 0)
(0 0.0122945 0)
(0 0.0104188 0)
(0 0.00957391 0)
(0 0.00734577 0)
(0 0.00522241 0)
(0 0.00327127 0)
(0 0.00166358 0)
(0 0.000509598 0)
(0 2.21062e-05 0)
(0 0 0)
(0 0 0)
(0 0 0)
(0 0 0)
(0 0 0)
(0 0 0)
(0 0 0)
(0 0 0)
(0 0 0)
(0 0 0)
(0 0 0)
(0 0 0)
(0 0 0)
(0 0 0)
(0 0 0)
(0 0.00016792 0)
(0 0.000884876 0)
(0 0.00208191 0)
(0 0.00363418 0)
(0 0.00557363 0)
(0 0.00757892 0)
(0 0.00852488 0)
(0 0.00964113 0)
(0 0.0105957 0)
(0 0.0116305 0)
(0 0.0106461 0)
(0 0.0115856 0)
(0 0.0126032 0)
(0 0.0134839 0)
(0 0.0124433 0)
(0 0.0131614 0)
(0 0.0137576 0)
(0 0.0142588 0)
(0 0.0138853 0)
(0 0.0149251 0)
(0 0.0144041 0)
(0 0.0147262 0)
(0 0.0152198 0)
(0 0.0159575 0)
(0 0.0155108 0)
(0 0.0156894 0)
(0 0.0161525 0)
(0 0.0166112 0)
(0 0.0162153 0)
(0 0.0163316 0)
(0 0.0167209 0)
(0 0.0169502 0)
(0 0.0165849 0)
(0 0.0166493 0)
(0 0.0169951 0)
(0 0.0170552 0)
(0 0.0167178 0)
(0 0.0167004 0)
(0 0.0170414 0)
(0 0.0169502 0)
(0 0.0165849 0)
(0 0.0164934 0)
(0 0.0168797 0)
(0 0.0166112 0)
(0 0.0162153 0)
(0 0.0160699 0)
(0 0.0164729 0)
(0 0.0159575 0)
(0 0.0155108 0)
(0 0.0152798 0)
(0 0.0157314 0)
(0 0.0149251 0)
(0 0.0144041 0)
(0 0.0141017 0)
(0 0.0146033 0)
(0 0.0134839 0)
(0 0.0124433 0)
(0 0.0115856 0)
(0 0.0126032 0)
(0 0.0116305 0)
(0 0.0106461 0)
(0 0.00964113 0)
(0 0.0105957 0)
(0 0.00852488 0)
(0 0.00757892 0)
(0 0.00557363 0)
(0 0.00363418 0)
(0 0.00208191 0)
(0 0.000884876 0)
(0 0.00016792 0)
(0 0 0)
(0 0 0)
(0 0 0)
(0 0 0)
(0 0 0)
(0 0 0)
(0 0 0)
(0 0 0)
(0 0 0)
(0 0 0)
(0 0 0)
(0 0 0)
(0 0 0)
(0 0 0)
(0 0 0)
(0 0 0)
(0 0 0)
(0 0.000253048 0)
(0 0.0010449 0)
(0 0.00223997 0)
(0 0.00372208 0)
(0 0.00534549 0)
(0 0.00694803 0)
(0 0.00819165 0)
(0 0.00951404 0)
(0 0.00856526 0)
(0 0.00908162 0)
(0 0.0104071 0)
(0 0.0111948 0)
(0 0.00991553 0)
(0 0.0106782 0)
(0 0.0119987 0)
(0 0.0127088 0)
(0 0.0120517 0)
(0 0.0123053 0)
(0 0.0130255 0)
(0 0.0138336 0)
(0 0.0131875 0)
(0 0.0134273 0)
(0 0.0140752 0)
(0 0.0146257 0)
(0 0.0139759 0)
(0 0.0140831 0)
(0 0.0147508 0)
(0 0.0151008 0)
(0 0.0144768 0)
(0 0.0145496 0)
(0 0.015173 0)
(0 0.015258 0)
(0 0.014638 0)
(0 0.0146079 0)
(0 0.0152308 0)
(0 0.0151008 0)
(0 0.0144768 0)
(0 0.0143747 0)
(0 0.0149993 0)
(0 0.0146257 0)
(0 0.0139759 0)
(0 0.0138218 0)
(0 0.0144714 0)
(0 0.0138336 0)
(0 0.0131875 0)
(0 0.0129202 0)
(0 0.0135635 0)
(0 0.0127088 0)
(0 0.0120517 0)
(0 0.0112923 0)
(0 0.0106782 0)
(0 0.0119987 0)
(0 0.0111948 0)
(0 0.00991553 0)
(0 0.00908162 0)
(0 0.0104071 0)
(0 0.00951404 0)
(0 0.00819165 0)
(0 0.00694803 0)
(0 0.00534549 0)
(0 0.00856526 0)
(0 0.00372208 0)
(0 0.00223997 0)
(0 0.0010449 0)
(0 0.000253048 0)
(0 0 0)
(0 0 0)
(0 0 0)
(0 0 0)
(0 0 0)
(0 0 0)
(0 0 0)
(0 0 0)
(0 0 0)
(0 0 0)
(0 0 0)
(0 0 0)
(0 0 0)
(0 0 0)
(0 0 0)
(0 0 0)
(0 0 0)
(0 0 0)
(0 3.20897e-06 0)
(0 0.000287471 0)
(0 0.000974147 0)
(0 0.00190898 0)
(0 0.00312459 0)
(0 0.00442103 0)
(0 0.0056745 0)
(0 0.00640625 0)
(0 0.00776448 0)
(0 0.00853453 0)
(0 0.00702307 0)
(0 0.00771899 0)
(0 0.00916903 0)
(0 0.00986472 0)
(0 0.00911715 0)
(0 0.00942315 0)
(0 0.0101828 0)
(0 0.0110029 0)
(0 0.010214 0)
(0 0.0104317 0)
(0 0.011228 0)
(0 0.0117381 0)
(0 0.0109482 0)
(0 0.011124 0)
(0 0.0119191 0)
(0 0.0122983 0)
(0 0.0114931 0)
(0 0.0115621 0)
(0 0.012369 0)
(0 0.0124621 0)
(0 0.0116552 0)
(0 0.0116173 0)
(0 0.0124257 0)
(0 0.0122983 0)
(0 0.0114931 0)
(0 0.011397 0)
(0 0.0121996 0)
(0 0.0117381 0)
(0 0.0109482 0)
(0 0.0107468 0)
(0 0.011601 0)
(0 0.0110029 0)
(0 0.010214 0)
(0 0.00997274 0)
(0 0.010753 0)
(0 0.00986472 0)
(0 0.00911715 0)
(0 0.00835606 0)
(0 0.00771899 0)
(0 0.00916903 0)
(0 0.00853453 0)
(0 0.00702307 0)
(0 0.00640625 0)
(0 0.00776448 0)
(0 0.0056745 0)
(0 0.00442103 0)
(0 0.00312459 0)
(0 0.00190898 0)
(0 0.000974147 0)
(0 0.000287471 0)
(0 3.20897e-06 0)
(0 0 0)
(0 0 0)
(0 0 0)
(0 0 0)
(0 0 0)
(0 0 0)
(0 0 0)
(0 0 0)
(0 0 0)
(0 0 0)
(0 0 0)
(0 0 0)
(0 0 0)
(0 0 0)
(0 0 0)
(0 0 0)
(0 0 0)
(0 0 0)
(0 0 0)
(0 0 0)
(0 0.00015097 0)
(0 0.000628785 0)
(0 0.0012738 0)
(0 0.00214483 0)
(0 0.00317146 0)
(0 0.00373967 0)
(0 0.00498309 0)
(0 0.00563566 0)
(0 0.00429651 0)
(0 0.00482796 0)
(0 0.00625313 0)
(0 0.00682198 0)
(0 0.00606369 0)
(0 0.00630955 0)
(0 0.00708435 0)
(0 0.00776752 0)
(0 0.00695131 0)
(0 0.00706843 0)
(0 0.00787306 0)
(0 0.0084671 0)
(0 0.00762936 0)
(0 0.00777609 0)
(0 0.0086222 0)
(0 0.00894906 0)
(0 0.00808568 0)
(0 0.00814373 0)
(0 0.00901029 0)
(0 0.0090995 0)
(0 0.00823034 0)
(0 0.00819034 0)
(0 0.00905944 0)
(0 0.00894906 0)
(0 0.00808568 0)
(0 0.00800479 0)
(0 0.00886371 0)
(0 0.0084671 0)
(0 0.00762936 0)
(0 0.00746195 0)
(0 0.00828999 0)
(0 0.00776752 0)
(0 0.00695131 0)
(0 0.00675453 0)
(0 0.00755831 0)
(0 0.00682198 0)
(0 0.00606369 0)
(0 0.00532114 0)
(0 0.00482796 0)
(0 0.00625313 0)
(0 0.00563566 0)
(0 0.00429651 0)
(0 0.00373967 0)
(0 0.00498309 0)
(0 0.00317146 0)
(0 0.00214483 0)
(0 0.0012738 0)
(0 0.000628785 0)
(0 0.00015097 0)
(0 0 0)
(0 0 0)
(0 0 0)
(0 0 0)
(0 0 0)
(0 0 0)
(0 0 0)
(0 0 0)
(0 0 0)
(0 0 0)
(0 0 0)
(0 0 0)
(0 0 0)
(0 0 0)
(0 0 0)
(0 0 0)
(0 0 0)
(0 0 0)
(0 0 0)
(0 0 0)
(0 0 0)
(0 0 0)
(0 0 0)
(0 1.28563e-05 0)
(0 0.000218073 0)
(0 0.000608611 0)
(0 0.00127674 0)
(0 0.00162433 0)
(0 0.00260373 0)
(0 0.00305982 0)
(0 0.00197728 0)
(0 0.00232365 0)
(0 0.00350009 0)
(0 0.00391243 0)
(0 0.00326043 0)
(0 0.00343387 0)
(0 0.00410466 0)
(0 0.00456764 0)
(0 0.00386573 0)
(0 0.00402847 0)
(0 0.00474646 0)
(0 0.00519706 0)
(0 0.00443969 0)
(0 0.00454817 0)
(0 0.00531564 0)
(0 0.00556679 0)
(0 0.00477826 0)
(0 0.00482158 0)
(0 0.00561402 0)
(0 0.00568945 0)
(0 0.00489229 0)
(0 0.00485641 0)
(0 0.00565198 0)
(0 0.00556679 0)
(0 0.00477826 0)
(0 0.00471798 0)
(0 0.00550104 0)
(0 0.00519706 0)
(0 0.00443969 0)
(0 0.00431638 0)
(0 0.00506212 0)
(0 0.00456764 0)
(0 0.00386573 0)
(0 0.00369188 0)
(0 0.00437627 0)
(0 0.00391243 0)
(0 0.00326043 0)
(0 0.00265228 0)
(0 0.00232365 0)
(0 0.00350009 0)
(0 0.00305982 0)
(0 0.00197728 0)
(0 0.00162433 0)
(0 0.00260373 0)
(0 0.00127674 0)
(0 0.000608611 0)
(0 0.000218073 0)
(0 1.28563e-05 0)
(0 0 0)
(0 0 0)
(0 0 0)
(0 0 0)
(0 0 0)
(0 0 0)
(0 0 0)
(0 0 0)
(0 0 0)
(0 0 0)
(0 0 0)
(0 0 0)
(0 0 0)
(0 0 0)
(0 0 0)
(0 0 0)
(0 0 0)
(0 0 0)
(0 0 0)
(0 0 0)
(0 0 0)
(0 0 0)
(0 0 0)
(0 0 0)
(0 0 0)
(0 0 0)
(0 2.33047e-06 0)
(0 0.000175087 0)
(0 0.000304969 0)
(0 0.000845648 0)
(0 0.00109565 0)
(0 0.000454744 0)
(0 0.000614913 0)
(0 0.00134787 0)
(0 0.00159218 0)
(0 0.00109599 0)
(0 0.00120819 0)
(0 0.00165234 0)
(0 0.00202879 0)
(0 0.00152683 0)
(0 0.00162356 0)
(0 0.00214204 0)
(0 0.00243165 0)
(0 0.00187243 0)
(0 0.00193907 0)
(0 0.00250881 0)
(0 0.00267345 0)
(0 0.0020817 0)
(0 0.00210874 0)
(0 0.0027046 0)
(0 0.00275876 0)
(0 0.00215675 0)
(0 0.00213052 0)
(0 0.00272967 0)
(0 0.00267345 0)
(0 0.0020817 0)
(0 0.00204417 0)
(0 0.0026302 0)
(0 0.00243165 0)
(0 0.00187243 0)
(0 0.00179716 0)
(0 0.00234431 0)
(0 0.00202879 0)
(0 0.00152683 0)
(0 0.00142469 0)
(0 0.00190872 0)
(0 0.00159218 0)
(0 0.00109599 0)
(0 0.000737006 0)
(0 0.000614913 0)
(0 0.00134787 0)
(0 0.00109565 0)
(0 0.000454744 0)
(0 0.000304969 0)
(0 0.000845648 0)
(0 0.000175087 0)
(0 2.33047e-06 0)
(0 0 0)
(0 0 0)
(0 0 0)
(0 0 0)
(0 0 0)
(0 0 0)
(0 0 0)
(0 0 0)
(0 0 0)
(0 0 0)
(0 0 0)
(0 0 0)
(0 0 0)
(0 0 0)
(0 0 0)
(0 0 0)
(0 0 0)
(0 0 0)
(0 0 0)
(0 0 0)
(0 0 0)
(0 0 0)
(0 0 0)
(0 0 0)
(0 0 0)
(0 0 0)
(0 0 0)
(0 0 0)
(0 0 0)
(0 0 0)
(0 0 0)
(0 8.55889e-05 0)
(0 3.09565e-05 0)
(0 0 0)
(0 0.000134588 0)
(0 0.000224847 0)
(0 6.88366e-06 0)
(0 3.00881e-05 0)
(0 0.000324022 0)
(0 0.000424516 0)
(0 6.34448e-05 0)
(0 0.000101023 0)
(0 0.000519473 0)
(0 0.000602936 0)
(0 0.000137643 0)
(0 0.000169007 0)
(0 0.000669983 0)
(0 0.000716828 0)
(0 0.0001918 0)
(0 0.000203769 0)
(0 0.000740902 0)
(0 0.000760164 0)
(0 0.000213993 0)
(0 0.000203769 0)
(0 0.000740902 0)
(0 0.000716828 0)
(0 0.0001918 0)
(0 0.000169007 0)
(0 0.000669983 0)
(0 0.000602936 0)
(0 0.000137643 0)
(0 0.000101023 0)
(0 0.000519473 0)
(0 0.000424516 0)
(0 6.34448e-05 0)
(0 3.00881e-05 0)
(0 0.000324022 0)
(0 0.000224847 0)
(0 6.88366e-06 0)
(0 0 0)
(0 0.000134588 0)
(0 8.55889e-05 0)
(0 0 0)
(0 0 0)
(0 0 0)
(0 3.09565e-05 0)
(0 0 0)
(0 0 0)
(0 0 0)
(0 0 0)
(0 0 0)
(0 0 0)
(0 0 0)
(0 0 0)
(0 0 0)
(0 0 0)
(0 0 0)
(0 0 0)
(0 0 0)
(0 0 0)
(0 0 0)
(0 0 0)
(0 0 0)
(0 0 0)
(0 0 0)
(0 0 0)
(0 0 0)
(0 0 0)
(0 0 0)
(0 0 0)
(0 0 0)
(0 0 0)
(0 0 0)
(0 0 0)
(0 0 0)
(0 0 0)
(0 0 0)
(0 0 0)
(0 0 0)
(0 0 0)
(0 0 0)
(0 0 0)
(0 0 0)
(0 0 0)
(0 0 0)
(0 0 0)
(0 6.18628e-07 0)
(0 0 0)
(0 0 0)
(0 2.38069e-06 0)
(0 1.41647e-06 0)
(0 0 0)
(0 6.18628e-07 0)
(0 1.41647e-06 0)
(0 0 0)
(0 0 0)
(0 0 0)
(0 0 0)
(0 0 0)
(0 0 0)
(0 0 0)
(0 0 0)
(0 0 0)
(0 0 0)
(0 0 0)
(0 0 0)
(0 0 0)
(0 0 0)
(0 0 0)
(0 0 0)
(0 0 0)
(0 0 0)
(0 0 0)
(0 0 0)
(0 0 0)
(0 0 0)
(0 0 0)
(0 0 0)
(0 0 0)
(0 0 0)
(0 0 0)
(0 0 0)
(0 0 0)
(0 0 0)
(0 0 0)
(0 0 0)
(0 0 0)
(0 0 0)
(0 0 0)
(0 0 0)
(0 0 0)
(0 0 0)
(0 0 0)
(0 0 0)
(0 0 0)
(0 0 0)
(0 0 0)
(0 0 0)
(0 0 0)
(0 0 0)
(0 0 0)
(0 0 0)
(0 0 0)
(0 0 0)
(0 0 0)
(0 0 0)
(0 0 0)
(0 0 0)
(0 0 0)
(0 0 0)
(0 0 0)
(0 0 0)
(0 0 0)
(0 0 0)
(0 0 0)
(0 0 0)
(0 0 0)
(0 0 0)
(0 0 0)
(0 0 0)
(0 0 0)
(0 0 0)
(0 0 0)
(0 0 0)
(0 0 0)
(0 0 0)
(0 0 0)
(0 0 0)
(0 0 0)
(0 0 0)
(0 0 0)
(0 0 0)
(0 0 0)
(0 0 0)
(0 0 0)
(0 0 0)
(0 0 0)
(0 0 0)
(0 0 0)
(0 0 0)
(0 0 0)
(0 0 0)
(0 0 0)
(0 0 0)
(0 0 0)
(0 0 0)
(0 0 0)
(0 0 0)
(0 0 0)
(0 0 0)
(0 0 0)
(0 0 0)
(0 0 0)
(0 0 0)
(0 0 0)
(0 0 0)
(0 0 0)
(0 0 0)
(0 0 0)
(0 0 0)
(0 0 0)
(0 0 0)
(0 0 0)
(0 0 0)
(0 0 0)
(0 0 0)
(0 0 0)
(0 0 0)
(0 0 0)
(0 0 0)
(0 0 0)
(0 0 0)
(0 0 0)
(0 0 0)
(0 0 0)
(0 0 0)
(0 0 0)
(0 0 0)
(0 0 0)
(0 0 0)
(0 0 0)
(0 0 0)
(0 0 0)
(0 0 0)
(0 0 0)
(0 0 0)
(0 0 0)
(0 0 0)
(0 0 0)
(0 0 0)
(0 0 0)
(0 0 0)
(0 0 0)
(0 0 0)
(0 0 0)
(0 0 0)
(0 0 0)
(0 0 0)
(0 0 0)
(0 0 0)
(0 0 0)
(0 0 0)
(0 0 0)
(0 0 0)
(0 0 0)
(0 0 0)
(0 0 0)
(0 0 0)
(0 0 0)
(0 0 0)
(0 0 0)
(0 0 0)
(0 0 0)
(0 0 0)
(0 0 0)
(0 0 0)
(0 0 0)
(0 0 0)
(0 0 0)
(0 0 0)
(0 0 0)
(0 0 0)
(0 0 0)
(0 0 0)
(0 0 0)
(0 0 0)
(0 0 0)
(0 0 0)
(0 0 0)
(0 0 0)
(0 0 0)
(0 0 0)
(0 0 0)
(0 0 0)
(0 0 0)
(0 0 0)
(0 0 0)
(0 0 0)
(0 0 0)
(0 0 0)
(0 0 0)
(0 0 0)
(0 0 0)
(0 0 0)
(0 0 0)
(0 0 0)
(0 0 0)
(0 0 0)
(0 0 0)
(0 0 0)
(0 0 0)
(0 0 0)
(0 0 0)
(0 0 0)
(0 0 0)
(0 0 0)
(0 0 0)
(0 0 0)
(0 0 0)
(0 0 0)
(0 0 0)
(0 0 0)
(0 0 0)
(0 0 0)
(0 0 0)
(0 0 0)
(0 0 0)
(0 0 0)
(0 0 0)
(0 0 0)
(0 0 0)
(0 0 0)
(0 0 0)
(0 0 0)
(0 0 0)
(0 0 0)
(0 0 0)
(0 0 0)
(0 0 0)
(0 0 0)
(0 0 0)
(0 0 0)
(0 0 0)
(0 0 0)
(0 0 0)
(0 0 0)
(0 0 0)
(0 0 0)
(0 0 0)
(0 0 0)
(0 0 0)
(0 0 0)
(0 0 0)
(0 0 0)
(0 0 0)
(0 0 0)
(0 0 0)
(0 0 0)
(0 0 0)
(0 0 0)
(0 0 0)
(0 0 0)
(0 0 0)
(0 0 0)
(0 0 0)
(0 0 0)
(0 0 0)
(0 0 0)
(0 0 0)
(0 0 0)
(0 0 0)
(0 0 0)
(0 0 0)
(0 0 0)
(0 0 0)
(0 0 0)
(0 0 0)
(0 0 0)
(0 0 0)
(0 0 0)
(0 0 0)
(0 0 0)
(0 0 0)
(0 0 0)
(0 0 0)
(0 0 0)
(0 0 0)
(0 0 0)
(0 0 0)
(0 0 0)
(0 0 0)
(0 0 0)
(0 0 0)
(0 0 0)
(0 0 0)
(0 0 0)
(0 0 0)
(0 0 0)
(0 0 0)
(0 0 0)
(0 0 0)
(0 0 0)
(0 0 0)
(0 0 0)
(0 0 0)
(0 0 0)
(0 0 0)
(0 0 0)
(0 0 0)
(0 0 0)
(0 0 0)
(0 0 0)
(0 0 0)
(0 0 0)
(0 0 0)
(0 0 0)
(0 0 0)
(0 0 0)
(0 0 0)
(0 0 0)
(0 0 0)
(0 0 0)
(0 0 0)
(0 0 0)
(0 0 0)
(0 0 0)
(0 0 0)
(0 0 0)
(0 0 0)
(0 0 0)
(0 0 0)
(0 0 0)
(0 0 0)
(0 0 0)
(0 0 0)
(0 0 0)
(0 0 0)
(0 0 0)
(0 0 0)
(0 0 0)
(0 0 0)
(0 0 0)
(0 0 0)
(0 0 0)
(0 0 0)
(0 0 0)
(0 0 0)
(0 0 0)
(0 0 0)
(0 0 0)
(0 0 0)
(0 0 0)
(0 0 0)
(0 0 0)
(0 0 0)
(0 0 0)
(0 0 0)
(0 0 0)
(0 0 0)
(0 0 0)
(0 0 0)
(0 0 0)
(0 0 0)
(0 0 0)
(0 0 0)
(0 0 0)
(0 0 0)
(0 0 0)
(0 0 0)
(0 0 0)
(0 0 0)
(0 0 0)
(0 0 0)
(0 0 0)
(0 0 0)
(0 0 0)
(0 0 0)
(0 0 0)
(0 0 0)
(0 0 0)
(0 0 0)
(0 0 0)
(0 0 0)
(0 0 0)
(0 0 0)
(0 0 0)
(0 0 0)
(0 0 0)
(0 0 0)
(0 0 0)
(0 0 0)
(0 0 0)
(0 0 0)
(0 0 0)
(0 0 0)
(0 0 0)
(0 0 0)
(0 0 0)
(0 0 0)
(0 0 0)
(0 0 0)
(0 0 0)
(0 0 0)
(0 0 0)
(0 0 0)
(0 0 0)
(0 0 0)
(0 0 0)
(0 0 0)
(0 0 0)
(0 0 0)
(0 0 0)
(0 0 0)
(0 0 0)
(0 0 0)
(0 0 0)
(0 0 0)
(0 0 0)
(0 0 0)
(0 0 0)
(0 0 0)
(0 0 0)
(0 0 0)
(0 0 0)
(0 0 0)
(0 0 0)
(0 0 0)
(0 0 0)
(0 0 0)
(0 0 0)
(0 0 0)
(0 0 0)
(0 0 0)
(0 0 0)
(0 0 0)
(0 0 0)
(0 0 0)
(0 0 0)
(0 0 0)
(0 0 0)
(0 0 0)
(0 0 0)
(0 0 0)
(0 0 0)
(0 0 0)
(0 0 0)
(0 0 0)
(0 0 0)
(0 0 0)
(0 0 0)
(0 0 0)
(0 0 0)
(0 0 0)
(0 0 0)
(0 0 0)
(0 0 0)
(0 0 0)
(0 0 0)
(0 0 0)
(0 0 0)
(0 0 0)
(0 0 0)
(0 0 0)
(0 0 0)
(0 0 0)
(0 0 0)
(0 0 0)
(0 0 0)
(0 0 0)
(0 0 0)
(0 0 0)
(0 0 0)
(0 0 0)
(0 0 0)
(0 0 0)
(0 0 0)
(0 0 0)
(0 0 0)
(0 0 0)
(0 0 0)
(0 0 0)
(0 0 0)
(0 0 0)
(0 0 0)
(0 0 0)
(0 0 0)
(0 0 0)
(0 0 0)
(0 0 0)
(0 0 0)
(0 0 0)
(0 0 0)
(0 0 0)
(0 0 0)
(0 0 0)
(0 0 0)
(0 0 0)
(0 0 0)
(0 0 0)
(0 0 0)
(0 0 0)
(0 0 0)
(0 0 0)
(0 0 0)
(0 0 0)
(0 0 0)
(0 0 0)
(0 0 0)
(0 0 0)
(0 0 0)
(0 0 0)
(0 0 0)
(0 0 0)
(0 0 0)
(0 0 0)
(0 0 0)
(0 0 0)
(0 0 0)
(0 0 0)
(0 0 0)
(0 0 0)
(0 0 0)
(0 0 0)
(0 0 0)
(0 0 0)
(0 0 0)
(0 0 0)
(0 0 0)
(0 0 0)
(0 0 0)
(0 0 0)
(0 0 0)
(0 0 0)
(0 0 0)
(0 0 0)
(0 0 0)
(0 0 0)
(0 0 0)
(0 0 0)
(0 0 0)
(0 0 0)
(0 0 0)
(0 0 0)
(0 0 0)
(0 0 0)
(0 0 0)
(0 0 0)
(0 0 0)
(0 0 0)
(0 0 0)
(0 0 0)
(0 0 0)
(0 0 0)
(0 0 0)
(0 0 0)
(0 0 0)
(0 0 0)
(0 0 0)
(0 0 0)
(0 0 0)
(0 0 0)
(0 0 0)
(0 0 0)
(0 0 0)
(0 0 0)
(0 0 0)
(0 0 0)
(0 0 0)
(0 0 0)
(0 0 0)
(0 0 0)
(0 0 0)
(0 0 0)
(0 0 0)
(0 0 0)
(0 0 0)
(0 0 0)
(0 0 0)
(0 0 0)
(0 0 0)
(0 0 0)
(0 0 0)
(0 0 0)
(0 0 0)
(0 0 0)
(0 0 0)
(0 0 0)
(0 0 0)
(0 0 0)
(0 0 0)
(0 0 0)
(0 0 0)
(0 0 0)
(0 0 0)
(0 0 0)
(0 0 0)
(0 0 0)
(0 0 0)
(0 0 0)
(0 0 0)
(0 0 0)
(0 0 0)
(0 0 0)
(0 0 0)
(0 0 0)
(0 0 0)
(0 0 0)
(0 0 0)
(0 0 0)
(0 0 0)
(0 0 0)
(0 0 0)
(0 0 0)
(0 0 0)
(0 0 0)
(0 0 0)
(0 0 0)
(0 0 0)
(0 0 0)
(0 0 0)
(0 0 0)
(0 0 0)
(0 0 0)
(0 0 0)
(0 0 0)
(0 0 0)
(0 0 0)
(0 0 0)
(0 0 0)
(0 0 0)
(0 0 0)
(0 0 0)
(0 0 0)
(0 0 0)
(0 0 0)
(0 0 0)
(0 0 0)
(0 0 0)
(0 0 0)
(0 0 0)
(0 0 0)
(0 0 0)
(0 0 0)
(0 0 0)
(0 0 0)
(0 0 0)
(0 0 0)
(0 0 0)
(0 0 0)
(0 0 0)
(0 0 0)
(0 0 0)
(0 0 0)
(0 0 0)
(0 0 0)
(0 0 0)
(0 0 0)
(0 0 0)
(0 0 0)
(0 0 0)
(0 0 0)
(0 0 0)
(0 0 0)
(0 0 0)
(0 0 0)
(0 0 0)
(0 0 0)
(0 0 0)
(0 0 0)
(0 0 0)
(0 0 0)
(0 0 0)
(0 0 0)
(0 0 0)
(0 0 0)
(0 0 0)
(0 0 0)
(0 0 0)
(0 0 0)
(0 0 0)
(0 0 0)
(0 0 0)
(0 0 0)
(0 0 0)
(0 0 0)
(0 0 0)
(0 0 0)
(0 0 0)
(0 0 0)
(0 0 0)
(0 0 0)
(0 0 0)
(0 0 0)
(0 0 0)
(0 0 0)
(0 0 0)
(0 0 0)
(0 0 0)
(0 0 0)
(0 0 0)
(0 0 0)
(0 0 0)
(0 0 0)
(0 0 0)
(0 0 0)
(0 0 0)
(0 0 0)
(0 0 0)
(0 0 0)
(0 0 0)
(0 0 0)
(0 0 0)
(0 0 0)
(0 0 0)
(0 0 0)
(0 0 0)
(0 0 0)
(0 0 0)
(0 0 0)
(0 0 0)
(0 0 0)
(0 0 0)
(0 0 0)
(0 0 0)
(0 0 0)
(0 0 0)
(0 0 0)
(0 0 0)
(0 0 0)
(0 0 0)
(0 0 0)
(0 0 0)
(0 0 0)
(0 0 0)
(0 0 0)
(0 0 0)
(0 0 0)
(0 0 0)
(0 0 0)
(0 0 0)
(0 0 0)
(0 0 0)
(0 0 0)
(0 0 0)
(0 0 0)
(0 0 0)
(0 0 0)
(0 0 0)
(0 0 0)
(0 0 0)
(0 0 0)
(0 0 0)
(0 0 0)
(0 0 0)
(0 0 0)
(0 0 0)
(0 0 0)
(0 0 0)
(0 0 0)
(0 0 0)
(0 0 0)
(0 0 0)
(0 0 0)
(0 0 0)
(0 0 0)
(0 0 0)
(0 0 0)
(0 0 0)
(0 0 0)
(0 0 0)
(0 0 0)
(0 0 0)
(0 0 0)
(0 0 0)
(0 0 0)
(0 0 0)
(0 0 0)
(0 0 0)
(0 0 0)
(0 0 0)
(0 0 0)
(0 0 0)
(0 0 0)
(0 0 0)
(0 0 0)
(0 0 0)
(0 0 0)
(0 0 0)
(0 0 0)
(0 0 0)
(0 0 0)
(0 0 0)
(0 0 0)
(0 0 0)
(0 0 0)
(0 0 0)
(0 0 0)
(0 0 0)
(0 0 0)
(0 0 0)
(0 0 0)
(0 0 0)
(0 0 0)
(0 0 0)
(0 0 0)
(0 0 0)
(0 0 0)
(0 0 0)
(0 0 0)
(0 0 0)
(0 0 0)
(0 0 0)
(0 0 0)
(0 0 0)
(0 0 0)
(0 0 0)
(0 0 0)
(0 0 0)
(0 0 0)
(0 0 0)
(0 0 0)
(0 0 0)
(0 0 0)
(0 0 0)
(0 0 0)
(0 0 0)
(0 0 0)
(0 0 0)
(0 0 0)
(0 0 0)
(0 0 0)
(0 0 0)
(0 0 0)
(0 0 0)
(0 0 0)
(0 0 0)
(0 0 0)
(0 0 0)
(0 0 0)
(0 0 0)
(0 0 0)
(0 0 0)
(0 0 0)
(0 0 0)
(0 0 0)
(0 0 0)
(0 0 0)
(0 0 0)
(0 0 0)
(0 0 0)
(0 0 0)
(0 0 0)
(0 0 0)
(0 0 0)
(0 0 0)
(0 0 0)
(0 0 0)
(0 0 0)
(0 0 0)
(0 0 0)
(0 0 0)
(0 0 0)
(0 0 0)
(0 0 0)
(0 0 0)
(0 0 0)
(0 0 0)
(0 0 0)
(0 0 0)
(0 0 0)
(0 0 0)
(0 0 0)
(0 0 0)
(0 0 0)
(0 0 0)
(0 0 0)
(0 0 0)
(0 0 0)
(0 0 0)
(0 0 0)
(0 0 0)
(0 0 0)
(0 0 0)
(0 0 0)
(0 0 0)
(0 0 0)
(0 0 0)
(0 0 0)
(0 0 0)
(0 0 0)
(0 0 0)
(0 0 0)
(0 0 0)
(0 0 0)
(0 0 0)
(0 0 0)
(0 0 0)
(0 0 0)
(0 0 0)
(0 0 0)
(0 0 0)
(0 0 0)
(0 0 0)
(0 0 0)
(0 0 0)
(0 0 0)
(0 0 0)
(0 0 0)
(0 0 0)
(0 0 0)
(0 0 0)
(0 0 0)
(0 0 0)
(0 0 0)
(0 0 0)
(0 0 0)
(0 0 0)
(0 0 0)
(0 0 0)
(0 0 0)
(0 0 0)
(0 0 0)
(0 0 0)
(0 0 0)