/*--------------------------------*- C++ -*----------------------------------*\
| =========                 |                                                 |
| \\      /  F ield         | OpenFOAM: The Open Source CFD Toolbox           |
|  \\    /   O peration     | Version:  v2106                                 |
|   \\  /    A nd           | Website:  www.openfoam.com                      |
|    \\/     M anipulation  |                                                 |
\*---------------------------------------------------------------------------*/
FoamFile
{
    version     2.0;
    format      ascii;
    arch        "LSB;label=32;scalar=64";
    class       volVectorField;
    location    "0";
    object      U;
}
// * * * * * * * * * * * * * * * * * * * * * * * * * * * * * * * * * * * * * //

dimensions      [0 1 -1 0 0 0 0];

internalField   nonuniform List<vector> 
11644
(
(0.99832 -0.000230815 4.90955e-24)
(0.998214 -0.000615656 1.35391e-23)
(0.998146 -0.000918585 7.26406e-24)
(0.998127 -0.00122848 0)
(0.998122 -0.00156023 0)
(0.998121 -0.00191088 0)
(0.998122 -0.00227865 0)
(0.998123 -0.00265753 0)
(0.998121 -0.00304066 0)
(0.998128 -0.00340787 0)
(0.998108 -0.00375399 0)
(0.998077 -0.00405221 0)
(0.998146 -0.00425511 0)
(0.998307 -0.00437066 0)
(0.998126 -0.00436544 0)
(0.998103 -0.00422889 0)
(0.998195 -0.00403084 0)
(0.998275 -0.00377499 0)
(0.998136 -0.00332943 0)
(0.997802 -0.00252613 3.31933e-30)
(0.997533 -0.0014471 -3.30232e-30)
(0.997503 -0.00028729 0)
(0.997719 0.000686553 0)
(0.997967 0.00139889 0)
(0.998038 0.00192237 0)
(0.998048 0.00232637 0)
(0.998222 0.00264351 0)
(0.998076 0.00279884 0)
(0.998058 0.00284999 0)
(0.998088 0.00279402 0)
(0.998088 0.00266087 0)
(0.998099 0.00246399 0)
(0.998102 0.00222648 0)
(0.998106 0.00196022 0)
(0.99811 0.0016786 0)
(0.998113 0.00139284 0)
(0.99812 0.00111332 0)
(0.998136 0.000843846 0)
(0.998199 0.000579642 0)
(0.998309 0.000222668 9.51912e-25)
(0.999106 -0.00045656 6.30629e-24)
(0.999043 -0.00138924 5.84164e-24)
(0.999008 -0.00234078 3.13736e-24)
(0.999022 -0.00330472 0)
(0.999066 -0.00429528 0)
(0.999119 -0.00532629 0)
(0.999172 -0.00639643 0)
(0.999216 -0.00749607 0)
(0.999242 -0.0086036 0)
(0.99922 -0.00969091 0)
(0.999171 -0.0106915 0)
(0.999079 -0.0115508 0)
(0.998787 -0.0122151 0)
(0.998264 -0.0125731 0)
(0.998057 -0.0125413 0)
(0.997684 -0.0121726 9.56019e-24)
(0.997226 -0.0113178 -1.05986e-23)
(0.996531 -0.00980099 -4.87357e-23)
(0.995716 -0.00751236 6.74764e-24)
(0.995207 -0.00484807 1.12999e-22)
(0.99511 -0.00215535 9.41111e-23)
(0.995341 0.000376773 -1.57782e-22)
(0.995743 0.00267935 3.71872e-25)
(0.996163 0.00475198 1.30705e-23)
(0.996661 0.00651356 -1.09923e-23)
(0.997163 0.00780285 0)
(0.997352 0.00862869 0)
(0.997956 0.0090112 0)
(0.998308 0.00901761 0)
(0.998519 0.00873382 0)
(0.998689 0.0082124 0)
(0.998793 0.00753013 0)
(0.998864 0.00673774 0)
(0.9989 0.00588145 0)
(0.998912 0.00499424 0)
(0.99891 0.00409781 0)
(0.998903 0.003202 0)
(0.998919 0.0023009 0)
(0.998984 0.00138082 0)
(0.99907 0.000457629 0)
(1.00065 -0.000702606 0)
(1.00063 -0.00214556 0)
(1.00066 -0.00365319 0)
(1.00074 -0.00520339 0)
(1.00087 -0.00680073 5.76068e-24)
(1.00102 -0.00846203 0)
(1.00117 -0.0101901 0)
(1.00129 -0.0119732 0)
(1.00135 -0.0137818 0)
(1.00131 -0.0155592 0)
(1.00111 -0.0172333 0)
(1.00064 -0.0187107 0)
(0.999984 -0.0197952 3.92479e-24)
(0.99927 -0.0203852 -1.22825e-22)
(0.997894 -0.0203385 1.6725e-22)
(0.996469 -0.0194731 1.63377e-21)
(0.994739 -0.0175393 -1.94735e-21)
(0.992727 -0.0143368 5.35625e-22)
(0.99117 -0.0103367 2.66771e-22)
(0.990335 -0.00592608 -4.26928e-21)
(0.990209 -0.0013621 4.80741e-21)
(0.990716 0.00313582 -1.72958e-21)
(0.991713 0.00727035 2.62499e-22)
(0.993 0.0108106 -7.71725e-22)
(0.994316 0.0135462 1.19392e-21)
(0.995629 0.0154455 -2.25607e-22)
(0.997303 0.0165332 1.96156e-22)
(0.99811 0.016867 -4.75348e-24)
(0.99892 0.0165674 0)
(0.9996 0.0157502 0)
(1.00007 0.0145864 0)
(1.00036 0.0131993 0)
(1.00051 0.0116848 0)
(1.00058 0.0101051 0)
(1.00058 0.00850867 0)
(1.00056 0.00692017 0)
(1.00054 0.00534581 0)
(1.00053 0.00378102 0)
(1.00057 0.00222932 0)
(1.00063 0.000725551 0)
(1.00291 -0.000934342 0)
(1.00293 -0.00285249 0)
(1.00303 -0.00484678 0)
(1.00321 -0.00690605 0)
(1.00346 -0.00905438 0)
(1.00374 -0.0112984 0)
(1.00402 -0.0136474 0)
(1.00426 -0.0160919 0)
(1.00438 -0.0186023 0)
(1.00431 -0.0211142 0)
(1.00389 -0.0235445 6.73259e-26)
(1.00316 -0.0257061 1.44799e-22)
(1.00185 -0.0274524 -6.2075e-22)
(0.99966 -0.0285101 -1.76321e-22)
(0.997421 -0.0283484 3.85786e-22)
(0.994188 -0.026808 1.20058e-21)
(0.990292 -0.0234904 -1.51468e-22)
(0.986566 -0.018705 -1.56452e-21)
(0.983837 -0.0126614 -6.00838e-23)
(0.982268 -0.00582528 4.49967e-21)
(0.981915 0.00136545 -3.0373e-21)
(0.982699 0.0083613 -7.74025e-22)
(0.984699 0.0147162 9.82255e-22)
(0.9875 0.0198886 7.60103e-23)
(0.990594 0.0236545 -1.10023e-21)
(0.993761 0.0259925 -5.17986e-22)
(0.996025 0.0270728 2.68972e-22)
(0.998822 0.0267625 4.18813e-22)
(1.00064 0.0256664 1.62935e-23)
(1.00182 0.023968 7.91205e-25)
(1.00257 0.0218459 0)
(1.00302 0.0194874 0)
(1.00323 0.0170368 0)
(1.00328 0.0145814 0)
(1.00324 0.0121671 0)
(1.00315 0.00981744 0)
(1.00306 0.00753393 0)
(1.003 0.00531142 0)
(1.00299 0.00313784 0)
(1.00303 0.00103766 0)
(1.00579 -0.00116133 0)
(1.00585 -0.00351108 0)
(1.00604 -0.00592028 0)
(1.00635 -0.00843077 0)
(1.00675 -0.0110608 0)
(1.0072 -0.0138404 0)
(1.00767 -0.0167829 0)
(1.00807 -0.0198907 0)
(1.00832 -0.0231401 0)
(1.00824 -0.0265129 1.95157e-23)
(1.00779 -0.0298817 2.33237e-22)
(1.00666 -0.0331328 -6.19894e-22)
(1.0046 -0.0358655 3.82163e-22)
(1.00179 -0.0375246 -2.16427e-21)
(0.996637 -0.0377836 2.5817e-21)
(0.990807 -0.0357703 -1.64476e-21)
(0.984618 -0.0317363 -6.769e-22)
(0.977651 -0.0251514 -1.71477e-21)
(0.972456 -0.0160355 7.6314e-21)
(0.969401 -0.00493971 3.3087e-21)
(0.96908 0.00688582 -5.01934e-21)
(0.971466 0.0179296 -9.29374e-21)
(0.975791 0.0270332 4.87905e-21)
(0.981156 0.0335185 2.04221e-23)
(0.986656 0.0378316 2.70638e-21)
(0.992136 0.040111 -3.49644e-21)
(0.997604 0.0400863 2.51152e-21)
(1.00062 0.0389644 -8.2918e-22)
(1.00338 0.0365687 1.58782e-21)
(1.00537 0.0334072 -4.12074e-22)
(1.00652 0.0298997 1.78159e-23)
(1.00704 0.0262691 0)
(1.00722 0.022669 0)
(1.00716 0.0191877 0)
(1.00698 0.0158614 0)
(1.00675 0.0126957 0)
(1.00653 0.00968194 0)
(1.00636 0.00679908 0)
(1.00626 0.00401569 0)
(1.00626 0.00131524 0)
(1.0092 -0.00134207 0)
(1.00932 -0.00407593 0)
(1.00961 -0.00689025 0)
(1.01007 -0.00979731 0)
(1.01066 -0.0128566 0)
(1.01135 -0.0161217 0)
(1.01208 -0.0196242 0)
(1.01276 -0.0233898 0)
(1.01325 -0.0274618 1.24208e-23)
(1.01348 -0.0318272 2.52321e-22)
(1.01319 -0.03647 2.8058e-22)
(1.0119 -0.0411519 -3.92074e-23)
(1.00908 -0.0454499 -1.37633e-21)
(1.00338 -0.0492661 1.50591e-21)
(0.996559 -0.0501853 1.37348e-22)
(0.986684 -0.048401 1.79107e-22)
(0.974988 -0.0440792 3.25369e-21)
(0.96367 -0.035253 -3.93781e-21)
(0.954305 -0.0211122 2.28973e-22)
(0.949075 -0.00425062 -3.67816e-21)
(0.948735 0.0136001 3.81849e-21)
(0.953566 0.0305627 -8.15948e-21)
(0.96215 0.0445777 1.26756e-20)
(0.972878 0.0533015 -5.41136e-21)
(0.983199 0.057135 1.15195e-21)
(0.992309 0.0585378 -1.94846e-22)
(0.998705 0.0575456 -1.24371e-21)
(1.00516 0.053099 -1.86576e-22)
(1.00867 0.0485037 5.97585e-22)
(1.01092 0.0435328 -1.37565e-22)
(1.01228 0.0383182 3.16106e-22)
(1.01279 0.0331573 -5.03138e-23)
(1.01271 0.0282297 0)
(1.01236 0.0236131 0)
(1.01188 0.0193262 0)
(1.01138 0.0153453 0)
(1.01092 0.0116389 0)
(1.01055 0.00814899 0)
(1.01032 0.00482874 0)
(1.01023 0.00159529 0)
(1.01306 -0.00150195 0)
(1.01323 -0.0045177 0)
(1.01366 -0.00762231 0)
(1.01431 -0.0108636 0)
(1.01516 -0.014318 0)
(1.01616 -0.0180261 0)
(1.01726 -0.0220541 0)
(1.01836 -0.0264814 9.77252e-24)
(1.01946 -0.0314475 -2.97114e-23)
(1.02032 -0.0370751 1.1177e-22)
(1.02037 -0.0433134 -8.60466e-22)
(1.01904 -0.0500146 1.40427e-21)
(1.01556 -0.0571755 -4.11135e-22)
(1.01048 -0.0626003 -5.65482e-22)
(0.998789 -0.068379 2.66565e-21)
(0.984427 -0.0691989 -2.46969e-21)
(0.972361 -0.059173 -3.55142e-22)
(0.955809 -0.050123 1.21204e-21)
(0.940013 -0.0332886 7.46977e-23)
(0.929703 -0.00976123 1.05224e-20)
(0.927807 0.0166789 1.25789e-20)
(0.934618 0.0409203 1.09615e-21)
(0.947065 0.0596745 4.05969e-21)
(0.962538 0.0710802 -6.26853e-22)
(0.981323 0.0847846 3.19773e-21)
(0.995765 0.0830012 -4.2601e-21)
(1.00783 0.0760774 2.03126e-21)
(1.01273 0.0696475 -5.43779e-22)
(1.01692 0.0614515 1.11809e-21)
(1.01919 0.0535497 -1.80731e-21)
(1.02022 0.0462748 5.27602e-22)
(1.02037 0.0394963 -3.74521e-24)
(1.01985 0.0332101 9.69841e-24)
(1.01893 0.0274626 0)
(1.01793 0.0222701 0)
(1.01696 0.0175693 0)
(1.01613 0.0132639 0)
(1.01547 0.00927071 0)
(1.01503 0.00545831 0)
(1.01484 0.00182059 0)
(1.01725 -0.00161716 0)
(1.0175 -0.00488508 0)
(1.01808 -0.00822989 0)
(1.01896 -0.0117285 0)
(1.02012 -0.0154551 0)
(1.02153 -0.0195051 0)
(1.02313 -0.0239761 0)
(1.02495 -0.0290448 -1.26812e-22)
(1.02705 -0.0349428 2.5647e-22)
(1.02881 -0.0418544 6.41509e-23)
(1.02971 -0.0497746 3.47597e-22)
(1.02926 -0.0585818 -1.83533e-21)
(1.02706 -0.067871 1.09969e-21)
(1.01692 -0.0769196 6.50524e-22)
(1.00821 -0.0817842 6.55674e-22)
(0.992556 -0.0880071 -1.889e-22)
(0.966612 -0.0899616 -1.72657e-21)
(0.937906 -0.0807793 5.92032e-21)
(0.907782 -0.0590155 1.07511e-20)
(0.886123 -0.0222011 -4.7371e-21)
(0.881327 0.0227931 -2.44607e-21)
(0.895365 0.0641565 -1.11263e-20)
(0.921238 0.0931822 -9.62105e-23)
(0.951058 0.107165 8.49663e-21)
(0.977407 0.111207 -6.1925e-21)
(0.998712 0.104744 2.61519e-21)
(1.01247 0.0948321 1.54618e-21)
(1.02645 0.0851058 -1.45298e-21)
(1.0297 0.073375 2.07135e-21)
(1.0308 0.0624922 -7.94015e-22)
(1.03068 0.0528011 -3.94402e-22)
(1.02981 0.0443727 1.3967e-22)
(1.02851 0.0369061 2.04343e-22)
(1.02678 0.0302177 0)
(1.02496 0.0242694 0)
(1.02333 0.0189841 0)
(1.02197 0.0142221 0)
(1.02092 0.00987094 0)
(1.02021 0.00581305 0)
(1.01989 0.00188147 0)
(1.02167 -0.0016317 0)
(1.02201 -0.00503245 0)
(1.02275 -0.00852094 0)
(1.02391 -0.0122118 0)
(1.02545 -0.0161526 0)
(1.02735 -0.0204662 0)
(1.02962 -0.025279 -8.53683e-24)
(1.0325 -0.03086 5.27232e-23)
(1.03583 -0.037533 1.05693e-22)
(1.03888 -0.0453733 -3.57495e-23)
(1.04137 -0.0545432 5.46243e-24)
(1.04289 -0.0656501 3.32005e-22)
(1.0424 -0.0807761 -2.63338e-22)
(1.03227 -0.0937236 -1.40691e-21)
(1.02274 -0.106067 8.15979e-22)
(1.00392 -0.122755 -1.39721e-21)
(0.974136 -0.129542 1.07725e-21)
(0.927973 -0.131306 -3.63185e-21)
(0.872625 -0.108389 3.92832e-21)
(0.824729 -0.0538608 9.82762e-22)
(0.809379 0.0247623 -1.28367e-21)
(0.835053 0.0967635 -1.34579e-20)
(0.885108 0.141048 -3.66363e-22)
(0.938259 0.156863 -5.78097e-21)
(0.981333 0.15154 -4.09017e-21)
(1.01436 0.139358 2.23689e-22)
(1.02995 0.12063 -2.24557e-21)
(1.04607 0.101683 7.86316e-23)
(1.04732 0.083685 1.11279e-21)
(1.04605 0.0691058 -5.48486e-22)
(1.04375 0.0569908 -6.19764e-22)
(1.04105 0.0470115 2.53071e-22)
(1.03836 0.0386337 -1.44162e-22)
(1.03557 0.0313584 2.42519e-23)
(1.03271 0.0249972 0)
(1.03022 0.01944 0)
(1.02819 0.0145251 0)
(1.02665 0.0100424 0)
(1.02563 0.00593288 0)
(1.02514 0.00197703 0)
(1.02623 -0.0017857 0)
(1.02666 -0.00515005 0)
(1.0276 -0.00868483 0)
(1.02905 -0.0123651 0)
(1.031 -0.0163566 0)
(1.03348 -0.0207402 0)
(1.0366 -0.0257008 -1.62481e-23)
(1.04073 -0.0315378 1.22459e-22)
(1.04534 -0.0384236 4.06309e-23)
(1.05007 -0.0465306 -4.09921e-23)
(1.05494 -0.0563664 -8.76943e-23)
(1.05992 -0.068803 1.28579e-22)
(1.0645 -0.0866925 -1.40669e-22)
(1.05996 -0.106065 -1.07008e-22)
(1.05415 -0.128204 1.31721e-22)
(1.03328 -0.160465 -8.87695e-23)
(0.99949 -0.18826 8.32227e-22)
(0.936765 -0.219053 -2.12599e-21)
(0.831942 -0.22121 9.24707e-22)
(0.7075 -0.144136 -5.02251e-21)
(0.652339 0.0210751 1.36123e-21)
(0.720431 0.178165 -2.00819e-21)
(0.843304 0.244285 1.17839e-21)
(0.942009 0.239521 8.21795e-23)
(1.00913 0.210744 -6.04799e-22)
(1.05004 0.175842 -2.11077e-22)
(1.0622 0.141268 -1.19876e-23)
(1.0744 0.111709 -6.16026e-23)
(1.07037 0.0888953 -5.35524e-22)
(1.06493 0.0715889 1.28869e-22)
(1.05924 0.0578137 4.05739e-22)
(1.05376 0.046688 -1.57854e-23)
(1.04896 0.0377859 -2.49189e-23)
(1.04478 0.0304317 -9.25318e-23)
(1.04071 0.0240879 0)
(1.03722 0.0186331 0)
(1.03444 0.0138639 0)
(1.03236 0.00961408 0)
(1.03097 0.0055741 0)
(1.03031 0.00186777 0)
(1.03079 -0.00155153 0)
(1.0313 -0.00496368 0)
(1.03245 -0.00841902 0)
(1.0342 -0.0120679 0)
(1.03661 -0.0159948 0)
(1.0397 -0.0202745 0)
(1.04379 -0.0251215 -9.24887e-24)
(1.04906 -0.0307593 3.77385e-23)
(1.05488 -0.0371442 3.99314e-23)
(1.06147 -0.0445038 1.44171e-22)
(1.06939 -0.0538028 -2.60999e-22)
(1.07914 -0.0657763 1.69797e-22)
(1.09036 -0.0810079 -2.41821e-22)
(1.09589 -0.105762 6.79853e-22)
(1.10269 -0.136993 -1.11156e-22)
(1.10193 -0.184756 -7.34104e-22)
(1.08411 -0.250911 -2.52684e-22)
(1.02942 -0.35575 1.27985e-23)
(0.859235 -0.475905 -1.57492e-21)
(0.47538 -0.461633 -5.82674e-20)
(0.187965 0.0264209 1.3449e-20)
(0.506544 0.480923 -4.3854e-20)
(0.865504 0.476383 2.18498e-21)
(1.02579 0.360185 -2.91476e-22)
(1.08613 0.265538 3.65367e-23)
(1.10987 0.195575 1.09347e-22)
(1.10768 0.151613 -1.15901e-22)
(1.10846 0.108335 2.60752e-22)
(1.09755 0.0861032 -1.52524e-22)
(1.0866 0.0682688 -7.22671e-23)
(1.07631 0.0539715 -7.14452e-23)
(1.06726 0.0427163 1.33019e-22)
(1.0597 0.0339879 -4.17829e-23)
(1.0537 0.0271004 1.4095e-23)
(1.04838 0.0213508 0)
(1.0438 0.0164145 0)
(1.04022 0.0121278 0)
(1.0376 0.0083355 0)
(1.03593 0.00493536 0)
(1.03508 0.00155387 0)
(1.0352 -0.0015705 0)
(1.03583 -0.00472306 0)
(1.03716 -0.0079195 0)
(1.03923 -0.0113731 0)
(1.04208 -0.0150407 0)
(1.04577 -0.0190236 0)
(1.05068 -0.0234257 2.50608e-23)
(1.05672 -0.0282726 5.44729e-23)
(1.06343 -0.0333757 8.31465e-23)
(1.07166 -0.0389655 4.87777e-23)
(1.08225 -0.0456657 2.02495e-22)
(1.09645 -0.0540086 3.05351e-22)
(1.11578 -0.0647476 -7.91911e-22)
(1.12905 -0.0873727 -3.14206e-22)
(1.15831 -0.114273 2.58125e-22)
(1.18631 -0.16462 -3.64309e-22)
(1.22454 -0.243561 -2.29283e-22)
(1.28141 -0.394781 1.70356e-21)
(0.992312 -0.542369 -1.11177e-19)
(1.03904 0.538792 4.38091e-20)
(1.2408 0.395225 -1.67732e-22)
(1.2046 0.260102 -1.83003e-22)
(1.18315 0.178988 1.46211e-22)
(1.16029 0.139481 1.45316e-22)
(1.14477 0.0923671 7.697e-23)
(1.12579 0.0733991 -3.4922e-23)
(1.10855 0.0573583 -5.29645e-23)
(1.09325 0.0445966 -7.27032e-24)
(1.08036 0.0347186 -8.06909e-24)
(1.06984 0.0271868 1.88887e-23)
(1.06172 0.0214465 2.82698e-23)
(1.05515 0.0168739 0)
(1.04965 0.0130133 0)
(1.04539 0.00968449 0)
(1.04224 0.00667568 0)
(1.04018 0.00392952 0)
(1.03917 0.00132504 0)
(1.03933 -0.0015768 0)
(1.04011 -0.004345 0)
(1.04167 -0.00732565 0)
(1.04402 -0.010331 0)
(1.04722 -0.0135392 0)
(1.05135 -0.0169998 0)
(1.05674 -0.020685 -8.20497e-24)
(1.06295 -0.0242711 1.103e-24)
(1.06989 -0.0275198 3.04173e-24)
(1.07891 -0.030574 1.44873e-22)
(1.09079 -0.0335058 -2.49093e-22)
(1.10679 -0.036137 3.37567e-22)
(1.12945 -0.0381134 4.58698e-22)
(1.1528 -0.0518423 -1.02758e-22)
(1.19598 -0.0610988 6.15469e-21)
(1.24789 -0.0884174 -3.74136e-22)
(1.3308 -0.126188 6.59738e-23)
(1.46669 -0.17021 2.82243e-21)
(0.02406 -0.0126731 6.36424e-19)
(0.0280039 -0.019561 -1.15471e-19)
(1.38087 0.245871 -1.97376e-22)
(1.29851 0.187165 -1.13377e-22)
(1.24614 0.131088 1.24814e-21)
(1.20705 0.101755 2.19747e-21)
(1.17589 0.0629002 1.05677e-22)
(1.14966 0.0499823 9.85792e-23)
(1.1271 0.0387351 -1.56058e-22)
(1.10769 0.0298531 6.70327e-23)
(1.09147 0.0229028 -1.31695e-23)
(1.07819 0.017583 3.89482e-24)
(1.06795 0.0136841 1.28399e-23)
(1.06017 0.0107949 0)
(1.05388 0.0084068 0)
(1.04908 0.00631575 0)
(1.04559 0.00440531 0)
(1.04326 0.00256374 0)
(1.0421 0.000885108 0)
(1.04318 -0.000996819 -2.0408e-24)
(1.04392 -0.00355079 0)
(1.04558 -0.0060503 0)
(1.04816 -0.00866252 0)
(1.0517 -0.0114418 0)
(1.05618 -0.0143559 0)
(1.06155 -0.0171785 -3.08082e-23)
(1.06724 -0.0193771 -7.41793e-23)
(1.07371 -0.0207693 2.58464e-22)
(1.08231 -0.0213141 -1.40346e-22)
(1.09389 -0.020621 6.20925e-22)
(1.10918 -0.0177957 -4.11971e-23)
(1.13023 -0.00986572 -8.04514e-22)
(1.15586 -0.0100677 1.93759e-21)
(1.19672 0.000987854 1.19599e-21)
(1.25399 0.00684623 -1.07861e-21)
(1.33897 0.0171467 3.66787e-21)
(1.41035 0.0470188 -7.04607e-22)
(0.247556 0.014998 -8.42115e-21)
(0.0378511 0.0266909 1.05266e-20)
(1.33512 0.11149 -1.32116e-22)
(1.33992 0.101298 -1.27534e-21)
(1.28343 0.0677489 1.34133e-21)
(1.23804 0.0503666 -8.62617e-22)
(1.19516 0.0231491 5.45041e-22)
(1.16481 0.0186849 -6.00958e-22)
(1.13905 0.0142678 1.39699e-22)
(1.11723 0.0108824 -1.01056e-22)
(1.09891 0.00811665 -7.85891e-23)
(1.08372 0.00597149 4.50486e-23)
(1.0718 0.00451462 -2.23704e-23)
(1.06297 0.0036907 0)
(1.05629 0.00305024 0)
(1.05127 0.00240128 0)
(1.04772 0.00177571 0)
(1.04552 0.00111849 0)
(1.04454 0.000369803 0)
(1.04633 -0.000945323 6.96972e-26)
(1.04728 -0.00287434 0)
(1.04909 -0.004821 0)
(1.05185 -0.00693726 0)
(1.05557 -0.00910937 0)
(1.06017 -0.0113469 0)
(1.0649 -0.0132519 1.82028e-23)
(1.06963 -0.0143765 7.2911e-23)
(1.0751 -0.014519 -2.40059e-22)
(1.0824 -0.0134001 6.96294e-22)
(1.09146 -0.0104248 -6.71133e-22)
(1.10162 -0.00440271 -1.52268e-21)
(1.11376 0.00683377 1.64098e-21)
(1.13333 0.0218233 -3.5896e-21)
(1.15975 0.0475414 -2.04139e-21)
(1.2024 0.0872306 -3.01492e-21)
(1.27157 0.144267 -1.73218e-21)
(1.3307 0.236566 -6.94145e-22)
(0.580769 0.169748 -2.8676e-21)
(-0.0550188 0.0715425 4.89883e-22)
(-0.245294 0.217352 2.83142e-22)
(-0.0274686 0.345077 5.00871e-22)
(0.223149 0.149333 -2.24119e-22)
(1.29212 0.0491023 -2.8701e-21)
(1.36542 0.0219292 -1.8321e-22)
(1.3016 -0.0031578 6.46608e-22)
(1.25002 -0.00809206 -4.57104e-21)
(1.19987 -0.0216526 -2.97849e-22)
(1.16815 -0.0167293 -4.88803e-22)
(1.14172 -0.0134139 6.05859e-22)
(1.11949 -0.0103457 1.03625e-22)
(1.10078 -0.00822623 -4.6893e-24)
(1.08518 -0.00666133 6.30015e-23)
(1.07254 -0.00523282 -4.98268e-24)
(1.06321 -0.00370134 0)
(1.05656 -0.00248555 0)
(1.05162 -0.00167157 0)
(1.04813 -0.00110706 0)
(1.04588 -0.0006819 0)
(1.04458 -0.00033932 0)
(1.04905 -0.0010461 -2.70402e-24)
(1.05002 -0.00231109 0)
(1.05199 -0.00369433 0)
(1.05482 -0.00510066 0)
(1.05852 -0.0065282 0)
(1.06296 -0.0080264 0)
(1.06698 -0.00928416 -2.07599e-24)
(1.07061 -0.0098578 -1.11456e-22)
(1.07495 -0.00984093 -2.2263e-22)
(1.07992 -0.00891999 8.24047e-22)
(1.0851 -0.00697802 -8.13983e-22)
(1.08956 -0.00338648 1.27032e-21)
(1.09261 0.00388074 -9.20402e-22)
(1.101 0.0233915 1.3757e-21)
(1.09944 0.054208 1.75002e-21)
(1.09217 0.119732 3.1661e-21)
(1.10989 0.21427 -4.5319e-21)
(1.07809 0.396425 -2.09567e-21)
(0.594081 0.60832 -3.87256e-21)
(-0.191355 0.728717 -7.29481e-21)
(-0.306345 0.691058 3.73573e-21)
(0.223884 0.478316 -1.94916e-21)
(0.690732 0.173396 -4.52848e-22)
(1.40375 -0.0529116 6.31414e-21)
(1.38536 -0.0809232 7.09627e-21)
(1.30019 -0.0879264 1.86996e-21)
(1.24261 -0.0710791 3.21594e-21)
(1.18747 -0.0675696 5.37653e-22)
(1.15756 -0.0519142 -1.62893e-21)
(1.13335 -0.0403751 9.63273e-22)
(1.11307 -0.030887 -8.48558e-22)
(1.09592 -0.0237752 3.08083e-22)
(1.08138 -0.0183473 -3.62156e-24)
(1.06921 -0.0139524 -1.07153e-24)
(1.06041 -0.0101978 0)
(1.05441 -0.00727963 0)
(1.04997 -0.00506531 0)
(1.04676 -0.00331585 0)
(1.04468 -0.00181771 0)
(1.04358 -0.000540243 1.7242e-23)
(1.05082 -0.000169915 -1.92925e-23)
(1.05173 -0.0010989 0)
(1.0535 -0.00194931 0)
(1.0563 -0.00273818 0)
(1.06011 -0.00352171 0)
(1.06455 -0.00438783 0)
(1.06829 -0.00531326 0)
(1.07107 -0.00605048 -3.34697e-23)
(1.07479 -0.00683707 -9.58167e-23)
(1.07934 -0.00836629 1.94038e-22)
(1.08311 -0.0102699 1.70967e-22)
(1.08454 -0.0121437 -1.99262e-22)
(1.08088 -0.0137976 -1.08107e-22)
(1.06273 -0.0153658 3.84403e-22)
(1.04467 0.0164226 -1.20756e-21)
(0.994692 0.0504887 7.81758e-22)
(0.933221 0.138373 -5.40467e-22)
(0.769412 0.289016 -1.15213e-20)
(0.251875 0.578631 1.01319e-20)
(-0.205525 0.665762 -2.48549e-20)
(0.0323354 0.437731 2.01087e-20)
(0.63669 0.132363 4.52487e-20)
(1.11409 -0.143092 1.04616e-21)
(1.45808 -0.267924 1.15536e-20)
(1.3375 -0.226929 -1.9865e-21)
(1.26415 -0.177812 3.1066e-21)
(1.19018 -0.14105 -9.77076e-22)
(1.15661 -0.107316 -7.40448e-22)
(1.133 -0.0813067 5.93522e-22)
(1.11414 -0.0621211 -6.09046e-23)
(1.09834 -0.0469038 -1.96627e-22)
(1.08471 -0.035577 8.68955e-23)
(1.07266 -0.0268929 4.04126e-23)
(1.06219 -0.0201938 0)
(1.05492 -0.0148683 0)
(1.0502 -0.01074 0)
(1.0467 -0.00750207 0)
(1.04416 -0.00488819 0)
(1.04248 -0.00268781 0)
(1.0417 -0.000783683 1.55613e-23)
(1.05078 0.000190377 2.0483e-24)
(1.05197 0.000222634 0)
(1.05392 0.000203428 0)
(1.05681 6.001e-05 0)
(1.06072 -0.000116928 0)
(1.06533 -0.000386316 0)
(1.06937 -0.00103138 0)
(1.07248 -0.00233714 0)
(1.07683 -0.00461155 -2.72832e-24)
(1.08233 -0.0083675 -5.31828e-25)
(1.08763 -0.014147 -8.32055e-23)
(1.09109 -0.0229724 1.77095e-22)
(1.08908 -0.03474 -2.54784e-22)
(1.07473 -0.0596318 -2.87789e-22)
(1.03536 -0.0580877 -6.66347e-23)
(0.962797 -0.0782353 1.62182e-22)
(0.835041 -0.0548682 1.43742e-21)
(0.448765 0.103491 5.72165e-21)
(0.0864223 0.190881 -1.74303e-21)
(0.0743501 -0.00296748 5.41941e-21)
(0.454087 -0.307765 3.86987e-21)
(0.937329 -0.517244 5.74686e-21)
(1.29242 -0.562275 5.90262e-21)
(1.33185 -0.452457 -1.57443e-20)
(1.23118 -0.327084 1.48322e-21)
(1.18652 -0.248512 -3.65749e-21)
(1.12647 -0.177835 1.45154e-22)
(1.10983 -0.131945 -3.62367e-22)
(1.09714 -0.0994445 1.45689e-22)
(1.08672 -0.0748351 4.23039e-22)
(1.07762 -0.0556442 -1.93703e-22)
(1.06918 -0.0415129 1.49512e-23)
(1.06081 -0.0308672 0)
(1.05305 -0.0229199 0)
(1.04787 -0.0169118 0)
(1.04469 -0.0123176 0)
(1.04235 -0.00866419 9.09351e-24)
(1.04062 -0.00572094 1.25757e-23)
(1.03953 -0.00320198 7.49903e-24)
(1.03911 -0.00104201 0)
(1.05012 0.000358074 0)
(1.05135 0.00127167 0)
(1.05345 0.00219878 0)
(1.05646 0.00296009 0)
(1.06048 0.00360029 0)
(1.06538 0.00409579 0)
(1.07031 0.00405122 0)
(1.0749 0.00269581 0)
(1.08106 -0.000266621 1.01076e-25)
(1.08932 -0.00516357 5.6396e-24)
(1.09898 -0.0128759 -2.4345e-23)
(1.10986 -0.0259519 3.72891e-23)
(1.11927 -0.0451081 -7.52489e-23)
(1.12226 -0.0778131 2.9252e-22)
(1.08836 -0.118234 1.844e-21)
(1.04129 -0.193454 -1.61182e-21)
(0.775497 -0.232657 -2.41435e-21)
(0.353708 -0.210292 3.36548e-21)
(0.344596 -0.377671 -5.02864e-21)
(0.476634 -0.627841 8.33584e-21)
(0.725848 -0.804457 5.50327e-21)
(0.953736 -0.823287 3.0443e-20)
(1.07264 -0.685121 -7.74657e-21)
(1.10936 -0.49564 -2.67398e-21)
(1.09387 -0.358318 1.5532e-21)
(1.08 -0.269258 3.0878e-22)
(1.05244 -0.184454 -4.2222e-22)
(1.05443 -0.135987 2.61058e-22)
(1.05455 -0.102437 -4.27233e-22)
(1.05451 -0.0761782 -3.0438e-23)
(1.05344 -0.0560936 1.2342e-23)
(1.05108 -0.04123 7.9363e-26)
(1.0473 -0.0300552 0)
(1.04317 -0.0219085 0)
(1.04044 -0.0161839 0)
(1.0389 -0.0119024 0)
(1.03773 -0.00845929 0)
(1.03683 -0.00568119 0)
(1.03627 -0.00329146 0)
(1.03607 -0.00106844 -1.35059e-24)
(1.04869 0.000686229 0)
(1.04979 0.00228815 0)
(1.05183 0.00398905 0)
(1.05486 0.00570849 0)
(1.05898 0.0074021 0)
(1.06428 0.00905491 0)
(1.07044 0.0103501 0)
(1.07728 0.0103258 0)
(1.08619 0.00855794 0)
(1.09802 0.00494736 0)
(1.11332 -0.000936384 3.76277e-24)
(1.13312 -0.0114477 1.11389e-22)
(1.15842 -0.0289131 -2.93121e-22)
(1.18666 -0.051975 5.11656e-22)
(1.19012 -0.112598 2.00183e-21)
(1.18551 -0.203844 1.0706e-21)
(0.851928 -0.318893 7.49311e-22)
(0.569142 -0.517438 4.06902e-21)
(0.570041 -0.670021 1.36125e-21)
(0.641817 -0.739463 1.85937e-20)
(0.739628 -0.726544 -5.63343e-21)
(0.826179 -0.647024 -3.3932e-21)
(0.88383 -0.548867 4.04975e-21)
(0.933286 -0.460952 -1.94106e-21)
(0.946196 -0.33457 3.05978e-21)
(0.973165 -0.242579 -3.27077e-22)
(0.980292 -0.161697 -8.97579e-23)
(0.99906 -0.11714 1.05369e-22)
(1.0128 -0.0877707 -1.8505e-23)
(1.02268 -0.0645578 -6.29526e-24)
(1.02914 -0.0471095 0)
(1.03264 -0.0339648 0)
(1.03382 -0.0240944 0)
(1.0338 -0.017233 0)
(1.03376 -0.0127811 0)
(1.03377 -0.00952092 0)
(1.0336 -0.00688916 0)
(1.03333 -0.00470688 0)
(1.03314 -0.00278918 0)
(1.03313 -0.000916884 0)
(1.04618 0.00109073 0)
(1.0471 0.00336104 0)
(1.04895 0.00576491 0)
(1.05182 0.00834656 0)
(1.05585 0.0111576 0)
(1.06126 0.0142529 0)
(1.06829 0.0175398 0)
(1.07704 0.0202354 0)
(1.08823 0.0218996 0)
(1.10272 0.0225947 0)
(1.12185 0.0227026 0)
(1.1474 0.0215819 3.41769e-24)
(1.183 0.0165795 4.21413e-23)
(1.231 0.0156777 -6.33171e-23)
(1.2777 -0.030179 1.11001e-21)
(1.33479 -0.087735 2.23311e-22)
(1.12767 -0.231505 2.03404e-21)
(0.860599 -0.464025 4.87137e-22)
(0.720234 -0.660867 -3.46603e-21)
(0.661163 -0.755428 4.78452e-21)
(0.647432 -0.744089 -5.17808e-21)
(0.676812 -0.647864 2.36856e-21)
(0.74003 -0.512528 -1.66599e-21)
(0.80291 -0.37803 -1.01897e-21)
(0.815907 -0.251212 1.1943e-21)
(0.88353 -0.180209 1.00304e-21)
(0.920724 -0.10653 -1.64077e-23)
(0.953754 -0.0750387 -2.66509e-23)
(0.979747 -0.0549489 -6.23429e-24)
(0.997687 -0.0397506 0)
(1.01009 -0.0284097 0)
(1.01828 -0.0198666 0)
(1.02359 -0.0136006 0)
(1.02707 -0.00958404 0)
(1.02926 -0.00724072 0)
(1.03035 -0.00553664 0)
(1.03075 -0.00410975 0)
(1.03082 -0.00282997 0)
(1.03078 -0.00167124 0)
(1.0308 -0.000552417 0)
(1.04261 0.00136897 0)
(1.04338 0.00420289 0)
(1.04494 0.00723951 0)
(1.04741 0.0106094 0)
(1.05092 0.0144907 0)
(1.05576 0.0190298 0)
(1.06256 0.0243498 0)
(1.07176 0.0301024 0)
(1.0835 0.0361528 0)
(1.09816 0.0427774 0)
(1.11701 0.0510101 -1.18673e-23)
(1.14216 0.0620127 0)
(1.1759 0.0749049 0)
(1.22551 0.0967762 2.1855e-21)
(1.31118 0.128103 -2.34828e-22)
(1.39298 0.112182 1.83072e-21)
(1.34426 0.0791435 -5.44959e-23)
(1.17076 -0.0548734 2.65388e-21)
(0.964306 -0.216567 2.39244e-21)
(0.777079 -0.341324 5.41607e-20)
(0.602348 -0.398719 -2.33549e-22)
(0.516401 -0.384509 -3.5564e-21)
(0.523527 -0.313802 1.58948e-21)
(0.599376 -0.212736 2.17413e-22)
(0.717238 -0.124285 -1.85742e-23)
(0.831669 -0.0493035 7.95837e-21)
(0.886653 -0.0244352 1.49267e-21)
(0.929521 -0.0141124 0)
(0.963174 -0.00832041 0)
(0.985821 -0.00565119 6.34297e-23)
(1.0012 -0.00362585 0)
(1.01177 -0.00205943 0)
(1.01925 -0.00102353 0)
(1.02461 -0.000728191 0)
(1.02782 -0.000883967 0)
(1.02921 -0.000977441 0)
(1.02972 -0.000907531 0)
(1.02984 -0.000705109 -1.49663e-24)
(1.02981 -0.0004446 -1.0737e-24)
(1.0298 -0.000130219 0)
(1.03849 0.00143616 0)
(1.03902 0.00465426 0)
(1.04009 0.00814471 0)
(1.04183 0.0121412 0)
(1.04434 0.0168327 0)
(1.04793 0.0224405 0)
(1.05345 0.0292211 0)
(1.06147 0.0371853 0)
(1.07158 0.0467374 0)
(1.08348 0.0584536 0)
(1.09786 0.0737809 -3.86816e-23)
(1.11627 0.0944666 0)
(1.13925 0.122364 0)
(1.17273 0.160501 -5.02577e-22)
(1.22459 0.220933 -3.0663e-22)
(1.29518 0.317708 -6.72741e-22)
(1.30688 0.423843 0)
(1.22126 0.491056 -1.44252e-21)
(1.06625 0.501909 4.13105e-20)
(0.883251 0.480242 4.07133e-20)
(0.70641 0.408007 3.83448e-21)
(0.602027 0.31475 -6.56203e-22)
(0.5772 0.204999 -2.83476e-23)
(0.606005 0.111368 0)
(0.688756 0.0610163 -2.00328e-21)
(0.787352 0.0801034 -9.95661e-21)
(0.874318 0.0724249 -2.05418e-21)
(0.932774 0.058031 0)
(0.969512 0.0431599 0)
(0.991031 0.0299014 9.57997e-23)
(1.00498 0.0210391 0)
(1.01448 0.0150088 0)
(1.02145 0.0106386 0)
(1.0266 0.00730672 0)
(1.02943 0.00475438 0)
(1.03027 0.00294231 2.70761e-24)
(1.03032 0.00172668 -3.5185e-24)
(1.03017 0.000944997 0)
(1.03001 0.000420704 0)
(1.02991 9.18948e-05 -8.26835e-24)
(1.03419 0.00155434 0)
(1.03426 0.00485742 0)
(1.03466 0.00848692 0)
(1.0355 0.012655 0)
(1.03679 0.0175468 0)
(1.03879 0.0234503 0)
(1.04241 0.0307399 -1.33136e-24)
(1.04814 0.0396319 0)
(1.05491 0.0509079 0)
(1.06187 0.0653667 0)
(1.06916 0.0845476 0)
(1.07726 0.109842 0)
(1.08598 0.144294 0)
(1.09761 0.189165 -2.22961e-22)
(1.1083 0.250165 -2.74449e-23)
(1.12801 0.338341 -3.19971e-23)
(1.13759 0.451384 0)
(1.10259 0.549532 0)
(1.01708 0.610936 4.38835e-21)
(0.906398 0.627441 1.15849e-20)
(0.79822 0.602939 1.74786e-20)
(0.750765 0.538032 -1.98159e-21)
(0.74458 0.452326 0)
(0.75482 0.354954 0)
(0.756344 0.257563 0)
(0.807819 0.215624 1.06821e-22)
(0.901003 0.17045 9.01285e-21)
(0.973616 0.122892 1.98294e-22)
(1.00305 0.0860858 0)
(1.01475 0.0579129 0)
(1.02149 0.0397389 0)
(1.02581 0.0273236 0)
(1.02939 0.0186892 1.18818e-23)
(1.03238 0.0126012 4.86919e-24)
(1.0336 0.00829089 2.45304e-25)
(1.03315 0.00529517 0)
(1.03224 0.00323988 0)
(1.03145 0.00183616 0)
(1.03085 0.00086491 0)
(1.03042 0.000195211 0)
(1.02968 0.00168227 0)
(1.02943 0.00471175 0)
(1.0293 0.0080278 0)
(1.02935 0.0117223 0)
(1.02947 0.016066 0)
(1.02984 0.0213496 0)
(1.03126 0.0280792 0)
(1.03405 0.0366877 0)
(1.03667 0.047985 -7.94248e-24)
(1.03795 0.0627027 0)
(1.03768 0.0821442 0)
(1.03544 0.107505 0)
(1.03037 0.14045 -4.60586e-22)
(1.0252 0.183407 -1.53437e-21)
(1.01786 0.235127 0)
(1.00569 0.296725 0)
(0.996577 0.376948 0)
(0.975352 0.462179 0)
(0.926455 0.537864 -7.22003e-21)
(0.869249 0.587267 -1.9682e-20)
(0.820414 0.601164 9.51912e-21)
(0.81387 0.573762 -7.6383e-21)
(0.823709 0.535217 0)
(0.857047 0.476376 0)
(0.862933 0.392041 0)
(0.902081 0.304265 0)
(0.991261 0.217821 7.27215e-22)
(1.04935 0.15029 -3.04654e-23)
(1.05786 0.103021 0)
(1.05249 0.0689209 -3.40513e-25)
(1.04702 0.0468295 1.63666e-24)
(1.04307 0.0314883 -7.26414e-24)
(1.0412 0.0209412 0)
(1.04056 0.0136696 0)
(1.03919 0.00879249 0)
(1.03695 0.00554683 0)
(1.03482 0.00338333 0)
(1.0332 0.00194615 0)
(1.03204 0.000985936 0)
(1.03123 0.000294908 0)
(1.02547 0.00128767 0)
(1.02526 0.00372398 0)
(1.02491 0.00623939 0)
(1.02439 0.00896375 0)
(1.02353 0.0121741 0)
(1.02237 0.016089 0)
(1.02148 0.0212688 0)
(1.02102 0.0283999 0)
(1.01939 0.0381999 0)
(1.0153 0.0511258 0)
(1.00812 0.0681825 9.0736e-23)
(0.997137 0.0907888 -1.16935e-22)
(0.981633 0.119601 -4.45262e-22)
(0.965375 0.157198 3.71786e-21)
(0.94817 0.206467 0)
(0.920505 0.264131 0)
(0.89241 0.335672 0)
(0.863922 0.416776 0)
(0.831734 0.492719 1.2085e-20)
(0.811801 0.559628 -1.13346e-20)
(0.809229 0.578687 5.11513e-21)
(0.832562 0.566877 -2.74402e-20)
(0.866164 0.530796 0)
(0.929394 0.474585 0)
(0.980975 0.391407 0)
(1.04269 0.290041 0)
(1.11255 0.190071 -3.69075e-23)
(1.1355 0.125567 1.98583e-22)
(1.11561 0.0853633 -2.4665e-22)
(1.0919 0.057541 1.05797e-22)
(1.07367 0.0388394 0)