/*--------------------------------*- C++ -*----------------------------------*\
| =========                 |                                                 |
| \\      /  F ield         | OpenFOAM: The Open Source CFD Toolbox           |
|  \\    /   O peration     | Version:  v2106                                 |
|   \\  /    A nd           | Website:  www.openfoam.com                      |
|    \\/     M anipulation  |                                                 |
\*---------------------------------------------------------------------------*/
FoamFile
{
    version     2.0;
    format      ascii;
    arch        "LSB;label=32;scalar=64";
    class       volScalarField;
    location    "0";
    object      p;
}
// * * * * * * * * * * * * * * * * * * * * * * * * * * * * * * * * * * * * * //

dimensions      [0 2 -2 0 0 0 0];

internalField   nonuniform List<scalar> 
11644
(
0.0707678
0.0711374
0.0719161
0.0731138
0.0747197
0.0767286
0.0791359
0.0819307
0.0850919
0.0885825
0.0923399
0.0962788
0.100281
0.104167
0.107755
0.110827
0.113048
0.114281
0.114499
0.113468
0.111084
0.107427
0.102712
0.0971459
0.0909338
0.0843601
0.077705
0.0711519
0.0648854
0.0590358
0.0536912
0.0489094
0.0447103
0.0410966
0.0380577
0.0355733
0.0336198
0.0321829
0.0312582
0.0308229
0.07015
0.0705191
0.0712796
0.0724461
0.0740264
0.0760246
0.0784383
0.081262
0.084483
0.0880733
0.0919835
0.0961315
0.100396
0.104593
0.108518
0.111894
0.114461
0.116051
0.116511
0.115574
0.113132
0.109247
0.104144
0.0981115
0.0914388
0.084429
0.0773577
0.0704962
0.0640062
0.0580181
0.0526064
0.0478075
0.043629
0.0400606
0.0370807
0.0346611
0.032777
0.0314042
0.0305181
0.0300893
0.0687005
0.0690895
0.0698584
0.0710139
0.0725771
0.0745654
0.0769939
0.0798722
0.0832037
0.08698
0.0911743
0.0957182
0.1005
0.105357
0.110034
0.114277
0.117797
0.120219
0.121163
0.120371
0.117815
0.113506
0.107577
0.100435
0.0926279
0.0845977
0.0766806
0.0691358
0.062182
0.0559223
0.050391
0.0455771
0.0414536
0.0379792
0.0351092
0.0327995
0.0310112
0.0297037
0.0288389
0.0284005
0.0664717
0.0668646
0.0676326
0.0687809
0.0703296
0.0723078
0.0747477
0.0776829
0.0811453
0.0851598
0.0897259
0.0948204
0.100379
0.106216
0.112156
0.117884
0.122928
0.126789
0.128804
0.128513
0.125688
0.120418
0.11301
0.104034
0.0944618
0.0847513
0.0754062
0.0668699
0.059252
0.0526217
0.0469545
0.0421632
0.0381506
0.0348302
0.0321244
0.0299674
0.0283013
0.0270767
0.0262591
0.0258444
0.0635222
0.0638923
0.0646284
0.0657367
0.0672417
0.0691794
0.0715959
0.074549
0.0781019
0.0823221
0.0872668
0.0929735
0.0994337
0.106666
0.114432
0.122394
0.129923
0.136255
0.140151
0.14083
0.137646
0.130811
0.120916
0.108934
0.0967468
0.0845092
0.0731582
0.063202
0.0547967
0.0478197
0.0420939
0.0374266
0.0336325
0.030564
0.0281071
0.0261711
0.0246857
0.0236007
0.0228829
0.0225212
0.0598848
0.0602161
0.0608803
0.0618912
0.0632836
0.0651004
0.0674032
0.0702707
0.0737954
0.0780827
0.0832381
0.0893794
0.0967428
0.105435
0.115651
0.126839
0.138332
0.149006
0.156558
0.159282
0.15564
0.145874
0.131712
0.115069
0.0987963
0.0827275
0.0687892
0.0574622
0.0482681
0.0410788
0.0355037
0.0311701
0.0277887
0.0251396
0.0230674
0.0214635
0.020252
0.0193809
0.0188169
0.0185387
0.0556001
0.0558747
0.0564245
0.057279
0.0584647
0.0600368
0.0620689
0.0646598
0.0679195
0.0719494
0.0768879
0.0830647
0.0908367
0.101123
0.114375
0.129926
0.141222
0.158279
0.17209
0.179805
0.178051
0.166716
0.148196
0.12686
0.0983247
0.0776138
0.0608568
0.0481612
0.0388962
0.031966
0.0268954
0.023226
0.0205477
0.0185581
0.0170629
0.0159449
0.0151287
0.0145583
0.0141961
0.0140182
0.0507681
0.0509516
0.051342
0.0519489
0.0528167
0.0539932
0.0555502
0.0575829
0.0601815
0.0634231
0.0675307
0.073009
0.0806511
0.09054
0.104675
0.123821
0.14937
0.176282
0.202747
0.21975
0.219291
0.200042
0.167812
0.132488
0.0983898
0.0738116
0.0547602
0.0339563
0.0254958
0.0198524
0.01604
0.0135419
0.0119505
0.0109203
0.0102371
0.00977825
0.00947492
0.00928284
0.0091691
0.0091149
0.0454618
0.0455598
0.0457462
0.046041
0.0464774
0.0470864
0.047927
0.0490523
0.0505097
0.0523673
0.0548978
0.0585488
0.0640557
0.0762547
0.0906892
0.112354
0.141066
0.185328
0.232268
0.272502
0.281045
0.249173
0.194042
0.134333
0.0905141
0.05192
0.0327756
0.0119882
0.00724577
0.00443766
0.00289684
0.00226999
0.00223512
0.0024906
0.00284307
0.00320241
0.00351763
0.00376896
0.00394212
0.00403883
0.0399072
0.0398753
0.0398117
0.0397346
0.0396307
0.0395244
0.0394279
0.039328
0.0392162
0.0391347
0.0392208
0.0396253
0.0405705
0.0503293
0.0588979
0.0795751
0.112377
0.168647
0.256761
0.358317
0.396938
0.324539
0.20413
0.109225
0.0447687
0.00566
-0.00475023
-0.0176993
-0.0160171
-0.0142208
-0.0122128
-0.010132
-0.00812589
-0.00629717
-0.00472605
-0.00343721
-0.00243124
-0.0016949
-0.00120838
-0.000986386
0.0343153
0.0341496
0.0338191
0.0333005
0.0325852
0.0316621
0.0304899
0.0289936
0.027036
0.0245167
0.0213458
0.0171725
0.0116574
0.013293
0.0100214
0.014618
0.0275046
0.0593579
0.16588
0.411322
0.592752
0.344642
0.080906
-0.0295909
-0.0625773
-0.0678811
-0.0573982
-0.0528567
-0.0429251
-0.0348087
-0.0281545
-0.0227697
-0.0184039
-0.0148283
-0.0119585
-0.0097263
-0.00803263
-0.00680727
-0.00601094
-0.00559771
0.0288866
0.0285819
0.0279878
0.0270627
0.0257628
0.0240143
0.0217559
0.0188467
0.0150292
0.00994563
0.00317016
-0.0060462
-0.0188406
-0.0244034
-0.0471474
-0.0688872
-0.109712
-0.195715
-0.420005
-0.638513
-0.338228
-0.217043
-0.156261
-0.115011
-0.0892721
-0.0693254
-0.0542581
-0.0429193
-0.0342695
-0.0275765
-0.0223375
-0.018269
-0.0151697
-0.0128511
-0.0111867
-0.0101217
-0.00959095
0.0238739
0.0234845
0.0226389
0.0213576
0.0195569
0.0171177
0.0139431
0.00983757
0.00450042
-0.00254605
-0.0119954
-0.0247841
-0.0422718
-0.0557956
-0.0911353
-0.13289
-0.208177
-0.347827
-0.481664
-0.790155
-0.532339
-0.327759
-0.222286
-0.161158
-0.115491
-0.0887276
-0.0686835
-0.0539714
-0.0428801
-0.0344363
-0.0279768
-0.0230424
-0.0192983
-0.016514
-0.0145572
-0.0133024
-0.0127505
0.0195138
0.0190535
0.0180845
0.016572
0.0144471
0.011563
0.00777261
0.00289673
-0.00333477
-0.0113425
-0.0217512
-0.0354389
-0.0535422
-0.0707312
-0.104495
-0.147909
-0.219673
-0.336027
-0.396888
-0.576416
-0.494481
-0.350256
-0.243156
-0.179293
-0.124996
-0.0965258
-0.0750269
-0.0591281
-0.047093
-0.0379522
-0.0310307
-0.0257435
-0.0217166
-0.018736
-0.0166378
-0.0152883
-0.0145944
0.0161173
0.0155772
0.0145834
0.0130154
0.0107655
0.00771003
0.00366301
-0.00147929
-0.00785966
-0.0157485
-0.0255205
-0.0376616
-0.0525039
-0.0681597
-0.0913828
-0.120941
-0.162797
-0.226844
-0.322656
-0.460565
-0.632411
-0.641683
-0.594306
-0.475951
-0.332238
-0.227919
-0.169618
-0.116922
-0.0916279
-0.0722495
-0.0575276
-0.0462134
-0.0376083
-0.0310937
-0.0260386
-0.0221233
-0.0192072
-0.017117
-0.0157653
-0.015117
0.0136836
0.0133683
0.0123773
0.0107906
0.00856007
0.00560588
0.00168339
-0.0032399
-0.00912434
-0.0161485
-0.0244414
-0.0341183
-0.044629
-0.0565869
-0.0688417
-0.0767263
-0.0735438
-0.0446381
-0.178003
-0.544228
-0.852343
-0.831965
-0.644425
-0.409584
-0.276534
-0.184052
-0.138591
-0.0940396
-0.0752689
-0.0606442
-0.0493166
-0.0404307
-0.0334906
-0.0281193
-0.0239262
-0.0205805
-0.0180444
-0.0162126
-0.0150183
-0.0145089
0.0124842
0.0120766
0.0111993
0.00977289
0.0077416
0.0050703
0.00163908
-0.00265805
-0.00778919
-0.0138248
-0.0208352
-0.0289106
-0.0376761
-0.0476605
-0.0559878
-0.0626208
-0.0562687
-0.0263154
-0.116235
-0.387549
-0.602739
-0.573409
-0.402088
-0.261219
-0.159256
-0.118681
-0.0739349
-0.0619628
-0.0514144
-0.0428788
-0.0361312
-0.0306538
-0.0262081
-0.0226504
-0.0197204
-0.0173269
-0.0154551
-0.0140783
-0.0131634
-0.0126563
0.0121504
0.0117117
0.0109102
0.00971081
0.00802552
0.0058085
0.00301151
-0.000503752
-0.00480521
-0.0100197
-0.0162268
-0.023835
-0.0330577
-0.0454759
-0.0590427
-0.0855645
-0.115286
-0.156262
-0.201011
-0.285174
-0.314538
-0.254212
-0.173924
-0.109885
-0.0608388
-0.0482564
-0.0297217
-0.0282216
-0.025652
-0.0232726
-0.0211173
-0.0190287
-0.0172006
-0.0155292
-0.0139297
-0.0125847
-0.0115032
-0.0106725
-0.0101147
-0.00969585
0.0125907
0.0122386
0.0115499
0.0105508
0.00920666
0.00747528
0.00530895
0.00256154
-0.000882278
-0.00522553
-0.0107129
-0.018075
-0.0280265
-0.0429339
-0.0626774
-0.101641
-0.162726
-0.271404
-0.360171
-0.395804
-0.342683
-0.207765
-0.0784861
-0.0139497
0.0117124
0.00919467
0.00681856
0.00206244
-0.00238016
-0.00527806
-0.0069568
-0.0077386
-0.00801036
-0.00786935
-0.00751341
-0.0071365
-0.00676681
-0.00643785
-0.0062116
-0.00609806
0.0135866
0.0133394
0.0128601
0.0121497
0.0111845
0.0099435
0.00838534
0.00638288
0.00384798
0.000574341
-0.00365506
-0.00968851
-0.0183316
-0.0316507
-0.0509643
-0.0834312
-0.14099
-0.249058
-0.3651
-0.422622
-0.37835
-0.229409
-0.0695934
0.0178977
0.051587
0.0451852
0.0339829
0.0252901
0.015447
0.00934535
0.00500975
0.00211401
0.000290758
-0.000798897
-0.00148015
-0.00186595
-0.00205189
-0.00212216
-0.00215444
-0.00221425
0.014995
0.0148491
0.0145933
0.0142054
0.0136619
0.0129525
0.0120519
0.0108785
0.00940936
0.00751274
0.00505857
0.00138316
-0.00396494
-0.0126556
-0.028667
-0.0478322
-0.0816547
-0.137643
-0.214929
-0.274444
-0.270514
-0.188271
-0.0748401
0.010208
0.0546314
0.0570438
0.0459013
0.0362437
0.0259295
0.0189133
0.0135644
0.00965571
0.00692349
0.00501294
0.00369496
0.00280374
0.00222393
0.00184487
0.00159938
0.00146651
0.0166455
0.0166243
0.0165592
0.0164376
0.0162631
0.0160547
0.0158373
0.0156017
0.0153392
0.0149285
0.0142301
0.0130122
0.009985
0.00570443
-0.00282763
-0.0189422
-0.0362786
-0.0581859
-0.0898377
-0.120807
-0.132035
-0.114703
-0.0655723
-0.00837976
0.0260301
0.0351222
0.0425307
0.0348836
0.0277692
0.0223895
0.017799
0.0141658
0.011407
0.0093412
0.00781714
0.00670648
0.00590901
0.00535519
0.00499913
0.00481882
0.0183036
0.0183678
0.0184272
0.0185113
0.0186571
0.0188888
0.0192796
0.0198837
0.0206821
0.0215751
0.0223761
0.0229934
0.022028
0.0188454
0.0141006
8.0183e-05
-0.0197697
-0.0492355
-0.0912088
-0.129214
-0.151589
-0.152213
-0.120885
-0.0733889
-0.0278707
0.0144351
0.0264282
0.0252886
0.0240056
0.0212334
0.0185703
0.0161182
0.0140259
0.012313
0.0109283
0.00985219
0.00903468
0.00844805
0.00807308
0.00789209
0.0197894
0.0198428
0.0199921
0.0202621
0.020694
0.0212966
0.0221428
0.0233158
0.0247779
0.0265521
0.0284063
0.030189
0.0308382
0.0290942
0.0230197
0.00669256
-0.0237148
-0.0691532
-0.130592
-0.192749
-0.238002
-0.232836
-0.183911
-0.124287
-0.0708272
-0.0207111
0.00332649
0.0132339
0.0178875
0.0184981
0.0180158
0.0169171
0.0156032
0.014402
0.0133275
0.012438
0.011728
0.0111989
0.0108526
0.0106855
0.0211037
0.0211245
0.0213615
0.0217741
0.0223963
0.0232461
0.0243552
0.0258159
0.0276489
0.029975
0.0326197
0.0353296
0.0375669
0.036061
0.0268272
0.00559454
-0.0310149
-0.0841229
-0.151187
-0.219061
-0.275338
-0.270544
-0.216777
-0.150238
-0.0899839
-0.0420977
-0.0108364
0.00558937
0.0135321
0.0166232
0.0177497
0.0176484
0.0169817
0.0161828
0.015377
0.0146631
0.0140715
0.0136235
0.0133294
0.0131867
0.0222352
0.0223215
0.0225959
0.0230533
0.023732
0.0246701
0.025903
0.0274823
0.0294719
0.0320101
0.0350849
0.0383395
0.0406123
0.0376223
0.0249006
0.0020302
-0.0333025
-0.0824022
-0.139119
-0.191805
-0.22973
-0.222937
-0.179775
-0.127561
-0.0762199
-0.0356618
-0.00881359
0.00598502
0.01356
0.0170363
0.0186052
0.0188521
0.0185282
0.0179554
0.0173099
0.0166891
0.0161505
0.0157328
0.0154461
0.0153264
0.0230149
0.0231809
0.0234577
0.0239034
0.0245521
0.0254453
0.0266297
0.0281442
0.0299831
0.0321554
0.0346427
0.0369522
0.0370796
0.0316744
0.0189956
-0.00317536
-0.0351134
-0.0754355
-0.114527
-0.141628
-0.150242
-0.138743
-0.110859
-0.0748952
-0.0423855
-0.0140912
0.00308073
0.0123163
0.0172553
0.019629
0.0205295
0.0205857
0.0202245
0.0197009
0.0190987
0.0185055
0.0179795
0.0175568
0.0172523
0.0170973
0.0233367
0.0234839
0.0237522
0.0241653
0.0247315
0.0254699
0.0263978
0.0275242
0.0287719
0.0299905
0.0308695
0.0307448
0.027611
0.0189121
0.00383678
-0.0175885
-0.0449562
-0.0752677
-0.0994961
-0.108352
-0.101725
-0.0862488
-0.0633284
-0.0365194
-0.0130607
0.00434299
0.0142676
0.0195776
0.0221186
0.0230549
0.0230407
0.0225781
0.0219667
0.0212963
0.0206303
0.0200189
0.0195019
0.0190911
0.0187922
0.0185705
0.023358
0.0234594
0.0236798
0.0240044
0.0244277
0.0249229
0.0254499
0.0259583
0.026312
0.026245
0.0252127
0.022392
0.0155639
0.0025221
-0.0173644
-0.0424588
-0.0700379
-0.0948813
-0.111381
-0.113131
-0.105157
-0.0823582
-0.0533692
-0.0254013
-0.00195642
0.012006
0.0198506
0.0240831
0.025755
0.0260231
0.025452
0.0245084
0.0235519
0.0226409
0.0218412
0.021166
0.0206261
0.0202107
0.0199202
0.0197408
0.0232768
0.0233786
0.0235335
0.0237315
0.0239579
0.0241653
0.0242858
0.0242291
0.0237499
0.0226009
0.0199838
0.0147869
0.00461167
-0.013084
-0.0383484
-0.069545
-0.103702
-0.129799
-0.148337
-0.14944
-0.132942
-0.100858
-0.0621468
-0.0306011
-0.00479621
0.0113796
0.0213393
0.0264926
0.0283308
0.0280165
0.027189
0.0259633
0.0247381
0.0236444
0.0227223
0.0219684
0.021376
0.0209442
0.0206763
0.0206209
0.0231391
0.0232417
0.0233284
0.0234113
0.0234736
0.0234654
0.0233062
0.022864
0.0218812
0.0200395
0.0165266
0.00997681
-0.00212519
-0.0216527
-0.0499909
-0.0851057
-0.124004
-0.154322
-0.176641
-0.178635
-0.153494
-0.114955
-0.0714099
-0.0372811
-0.0097499
0.00954748
0.0218172
0.027906
0.0298635
0.0291913
0.0281305
0.0267222
0.0254296
0.0242757
0.0233301
0.022556
0.0219599
0.021545
0.0213087
0.0212826
0.0229058
0.0229562
0.0230063
0.0230472
0.0230404
0.0229433
0.022685
0.022149
0.0210324
0.0189987
0.0153476
0.00899307
-0.00213823
-0.0196512
-0.0451418
-0.0764263
-0.113385
-0.143235
-0.167015
-0.171839
-0.144694
-0.111537
-0.0721353
-0.0395087
-0.0126933
0.0071263
0.0200768
0.0271863
0.0298417
0.0293794
0.0282181
0.026788
0.0255767
0.0245183
0.0236543
0.0229469
0.0224147
0.0220508
0.0218289
0.0217156
0.0226774
0.0226866
0.0227142
0.0227435
0.0227337
0.0226416
0.0223967
0.0219226
0.0210036
0.019349
0.0165348
0.0117112
0.00354659
-0.0094457
-0.028259
-0.0512691
-0.0783399
-0.103163
-0.122798
-0.129281
-0.11795
-0.0968508
-0.0687352
-0.0407478
-0.0165014
0.00246137
0.0160327
0.0239795
0.0274078
0.0279292
0.027186
0.0261368
0.0251666
0.0242797
0.023546
0.0229467
0.0224941
0.0221655
0.02194
0.0217744
0.0225261
0.0225517
0.0225732
0.022596
0.0225955
0.0225414
0.0223832
0.0220768
0.0215373
0.0205893
0.0189632
0.016041
0.010992
0.00242962
-0.0104487
-0.0265254
-0.0450566
-0.0646376
-0.0800495
-0.0888659
-0.0913949
-0.0833469
-0.0650731
-0.0427721
-0.0220389
-0.00494716
0.00826187
0.0172026
0.0221708
0.0243783
0.0247929
0.024514
0.0239985
0.0234014
0.0228646
0.0223999
0.0220258
0.0217389
0.0215455
0.0214379
0.0223292
0.022363
0.022403
0.0224498
0.0224909
0.0225291
0.0225353
0.0224979
0.022376
0.022096
0.0213081
0.01996
0.0170504
0.0114652
0.00188497
-0.0118237
-0.0284742
-0.0473245
-0.063789
-0.0759793
-0.0821698
-0.080143
-0.0683847
-0.0514594
-0.0344998
-0.0179473
-0.00352453
0.00765404
0.0151728
0.0193562
0.0212448
0.0220022
0.0221432
0.0220017
0.0217715
0.0215081
0.0212649
0.0210758
0.0209573
0.0209364
0.0220168
0.0220027
0.0220479
0.0221336
0.0222559
0.0224262
0.0226321
0.0229043
0.0231882
0.0234203
0.0233643
0.0226042
0.0203516
0.0156394
0.00676473
-0.00688693
-0.0258586
-0.0470339
-0.0698429
-0.0879142
-0.0957518
-0.0954831
-0.085399
-0.0708717
-0.0532917
-0.0342937
-0.0163657
-0.00216553
0.00807513
0.0142171
0.0175309
0.0192953
0.0201368
0.0205181
0.0206578
0.0206481
0.0205748
0.0204931
0.0204316
0.0204153
0.0216461
0.0216025
0.0216414
0.0217534
0.0219427
0.0222152
0.0225674
0.0230345
0.0235851
0.0240934
0.0245918
0.0240477
0.0215164
0.0162643
0.00669107
-0.0074657
-0.0273807
-0.0508173
-0.0790994
-0.104189
-0.11834
-0.118382
-0.106346
-0.0909181
-0.069051
-0.0466467
-0.0255625
-0.00890548
0.00294721
0.0103682
0.014673
0.0171288
0.0185111
0.0192515
0.0196725
0.0198723
0.0199537
0.0199612
0.0199388
0.0198717
0.021223
0.0212156
0.0212762
0.0214044
0.021611
0.0218991
0.0222742
0.0227654
0.0234123
0.0239707
0.0245369
0.0237925
0.0209215
0.0152886
0.00528575
-0.00899705
-0.028496
-0.0518795
-0.0805241
-0.105324
-0.126863
-0.12546
-0.110913
-0.0939747
-0.070249
-0.0470743
-0.0263896
-0.0101593
0.00146341
0.00888139
0.0133724
0.0159431
0.0174661
0.0183509
0.0188407
0.0191204
0.0192783
0.0193374
0.0193366
0.0192628
0.0206534
0.0207219
0.0208022
0.0209201
0.0210907
0.0213345
0.0216398
0.0220322
0.0225281
0.0229168
0.0230333
0.0218256
0.0182408
0.0117535
0.00160884
-0.0120438
-0.0299203
-0.050789
-0.0737397
-0.0924049
-0.108475
-0.105139
-0.0911793
-0.075113
-0.0547393
-0.0353881
-0.0186973
-0.00568276
0.00370598
0.00976872
0.0135089
0.0157066
0.0170262
0.017791
0.018233
0.0184868
0.0186212
0.0186698
0.018687
0.0186671
0.0198692
0.019941
0.020011
0.0201001
0.0202179
0.0203734
0.0205547
0.0207389
0.0208547
0.0207556
0.0199711
0.0177712
0.013484
0.00629435
-0.00393062
-0.0170763
-0.0329053
-0.0500241
-0.0658228
-0.0753087
-0.0777796
-0.0732982
-0.0622584
-0.0483187
-0.0331163
-0.0190919
-0.0076971
0.00156403
0.00803918
0.0122176
0.014714
0.0161529
0.0170401
0.0175631
0.0178756
0.0180579
0.0181479
0.0181862
0.0182066
0.0182209
0.0189333
0.0189223
0.0189422
0.0189808
0.0190261
0.0190636
0.0190599
0.01892
0.0185097
0.0176133
0.0156039
0.0120221
0.00634297
-0.00167565
-0.0120323
-0.0240816
-0.0375249
-0.0509322
-0.0606755
-0.0633693
-0.0601286
-0.0533149
-0.0427766
-0.029949
-0.0175083
-0.00657285
0.00215259
0.008586
0.0126126
0.014896
0.0162008
0.0169036
0.0173276
0.01759
0.0177445
0.0178275
0.0178723
0.0178899
0.017892
0.0178894
0.0180001
0.0179445
0.0179171
0.0178854
0.0178294
0.0177034
0.0174319
0.0169201
0.0159318
0.014123
0.0108802
0.00555907
-0.0022516
-0.0121714
-0.0238997
-0.0359787
-0.0481024
-0.0588316
-0.0652891
-0.0650589
-0.061794
-0.0517291
-0.0380489
-0.0237196
-0.0104345
0.000393841
0.0085926
0.0134904
0.0160191
0.0171614
0.0175909
0.0176898
0.0176928
0.0176544
0.0176233
0.0175896
0.0175652
0.0175448
0.0175292
0.0175256
0.0171582
0.017146
0.0171059
0.0170189
0.0168487
0.0165532
0.0160256
0.0151535
0.0136869
0.011136
0.00693064
4.68366e-05
-0.00979562
-0.0222875
-0.0367591
-0.05089
-0.0639698
-0.0740214
-0.0811229
-0.0804412
-0.0721334
-0.0574468
-0.0388897
-0.0225374
-0.00776978
0.00335546
0.0113208
0.0156653
0.0178988
0.018585
0.0185047
0.0182066
0.0178532
0.0175824
0.0173605
0.0172097
0.0171135
0.0170627
0.0170524
0.0170872
0.0163628
0.0164191
0.0163741
0.0162471
0.0159997
0.0155928
0.0149181
0.0138526
0.0121706
0.0093959
0.00465103
-0.00269703
-0.0131922
-0.0269784
-0.0431293
-0.0592627
-0.074326
-0.0852753
-0.0936711
-0.0925142
-0.0785475
-0.0602908
-0.039268
-0.021976
-0.0070574
0.00394665
0.0116897
0.0159644
0.018272
0.0190277
0.0186342
0.0181721
0.0177188
0.0173209
0.0170134
0.0167934
0.016648
0.0165716
0.0165523
0.016595
0.0155747
0.015613
0.0155628
0.0154381
0.0152011
0.0148074
0.0141801
0.0131919
0.0116052
0.00899526
0.00470323
-0.0017148
-0.0109466
-0.0230996
-0.0381705
-0.0534514
-0.0684787
-0.0794869
-0.0884242
-0.0881333
-0.0739851
-0.0573295
-0.0386084
-0.0224331
-0.00861323
0.00187137
0.00943484
0.0140224
0.0167283
0.0178609
0.0178966
0.0175392
0.0171227
0.0167719
0.0165074
0.0163112
0.0161754
0.0160879
0.0160416
0.0160318
0.0148841
0.0148627
0.0148087
0.0147129
0.0145401
0.0142529
0.0137968
0.0130523
0.0118666
0.00993969
0.00679221
0.00196957
-0.00484106
-0.0136851
-0.0246921
-0.0367814
-0.0491505
-0.0591676
-0.0669705
-0.0688907
-0.0628887
-0.0524475
-0.0388532
-0.0254053
-0.0132837
-0.00334931
0.00444162
0.0099434
0.0135434
0.0153214
0.0160424
0.0161011
0.0159682
0.0158168
0.015682
0.0155718
0.0154956
0.0154386
0.0153898
0.015328
0.0143884
0.0143569
0.0143171
0.0142479
0.0141398
0.0139674
0.0136949
0.0132777
0.0125982
0.0114884
0.00958628
0.00654761
0.00196472
-0.00398207
-0.0114314
-0.0202712
-0.0299751
-0.0391331
-0.0465071
-0.0507965
-0.0521728
-0.0484196
-0.0400145
-0.0296219
-0.0190532
-0.00966299
-0.0016312
0.00448767
0.00882387
0.0115692
0.0132106
0.0139654
0.0143082
0.0144531
0.0144953
0.0145009
0.0144953
0.0144867
0.0144755
0.0144565
0.0139885
0.0139864
0.0139756
0.0139504
0.0139075
0.0138462
0.013749
0.0136252
0.013394
0.0129971
0.012134
0.0105927
0.00768787
0.00320278
-0.00299943
-0.0109254
-0.0202762
-0.0300464
-0.0387183
-0.0448909
-0.0479686
-0.0481413
-0.0436032
-0.0356217
-0.0265429
-0.0175933
-0.00932251
-0.00243741
0.00317793
0.00727417
0.00995731
0.0115254
0.0124104
0.0128907
0.0131463
0.0132862
0.0133621
0.0134116
0.0134572
0.0135203
0.0135434
0.0135346
0.0135384
0.0135522
0.0135786
0.0136311
0.0137072
0.0138218
0.013941
0.0140163
0.013859
0.0131026
0.0111258
0.00739294
0.0013976
-0.00679426
-0.0172559
-0.0286015
-0.0400995
-0.0490921
-0.0537513
-0.0559226
-0.0526296
-0.0458477
-0.0373898
-0.0279644
-0.0184092
-0.00968946
-0.00224998
0.00323056
0.00697348
0.00929968
0.0106835
0.0114935
0.011977
0.0122625
0.0124287
0.0125277
0.0125974
0.0126607
0.0130368
0.012989
0.0129859
0.0130228
0.0131071
0.0132489
0.0134632
0.0137474
0.0141022
0.0144486
0.0146946
0.0141868
0.0125319
0.00949172
0.00403023
-0.00400033
-0.0147434
-0.0274594
-0.0414683
-0.0540011
-0.063921
-0.067337
-0.0638468
-0.057107
-0.0476166
-0.0367575
-0.0254005
-0.0147936
-0.00606924
0.00041479
0.00488035
0.00764874
0.00936768
0.0104254
0.0110897
0.011487
0.0117346
0.0118706
0.0119311
0.011921
0.0124714
0.0124333
0.0124473
0.012505
0.0126157
0.0127845
0.0130244
0.0133469
0.013739
0.0140749
0.0142613
0.0137462
0.0120918
0.00923746
0.00416808
-0.00327495
-0.0131088
-0.0255033
-0.0397645
-0.0534655
-0.0665062
-0.0699826
-0.0662356
-0.0592557
-0.0489534
-0.0374215
-0.0257398
-0.0150826
-0.00664311
-0.00029658
0.00409272
0.00685718
0.0085989
0.00967785
0.0103751
0.0108038
0.0110805
0.0112269
0.0112799
0.0112261
0.011849
0.0118704
0.0119011
0.0119459
0.0120191
0.0121265
0.0122757
0.0124755
0.0126773
0.0127182
0.0123699
0.0112089
0.00892519
0.00556441
0.000411399
-0.00658241
-0.0153143
-0.0257266
-0.0374841
-0.0484757
-0.0568762
-0.0584103
-0.0546676
-0.0479386
-0.0384906
-0.0286021
-0.0188841
-0.0104135
-0.00378564
0.00125189
0.0047245
0.006973
0.0083822
0.00927293
0.00983676
0.0101913
0.0104054
0.010523
0.0105787
0.0105686
0.0111083
0.0111516
0.0111645
0.0111662
0.0111612
0.0111528
0.0111225
0.011054
0.0108718
0.010366
0.00923896
0.00728609
0.0041463
-0.000197436
-0.00593889
-0.0129111
-0.0207646
-0.0287769
-0.036033
-0.04155
-0.0433266
-0.0417248
-0.0372532
-0.0309739
-0.0235401
-0.0161456
-0.00940093
-0.00381502
0.000605605
0.00396544
0.00628505
0.00773452
0.00863009
0.00918737
0.00954144
0.00976126
0.00989691
0.00997444
0.0100246
0.0100614
0.0102419
0.0102212
0.0101841
0.0101281
0.0100447
0.00991694
0.00969875
0.00929858
0.00862669
0.00743722
0.00547198
0.0025871
-0.00139929
-0.00649292
-0.0127269
-0.0196602
-0.0266923
-0.0328425
-0.0363589
-0.0369444
-0.0354137
-0.0314041
-0.0256972
-0.0192448
-0.0126831
-0.00668858
-0.00174957
0.00203362
0.00487061
0.00680858
0.00803297
0.00870092
0.00909273
0.00932858
0.00948654
0.00958278
0.00964478
0.00968413
0.00970798
0.00972695
0.00938351
0.00930036
0.00921531
0.00910777
0.00895128
0.00870098
0.00830208
0.00761672
0.00647029
0.00458635
0.00171589
-0.00234068
-0.00759141
-0.0136512
-0.0205044
-0.0275329
-0.033828
-0.0388778
-0.0406517
-0.0384685
-0.0353223
-0.0298152
-0.0225397
-0.0147192
-0.00761898
-0.00165646
0.00290931
0.00608223
0.00809986
0.00901818
0.0093878
0.00948269
0.00948135
0.00946648
0.0094555
0.00944281
0.00943851
0.00943395
0.00942583
0.00942055
0.00864984
0.00859728
0.00851271
0.00837499
0.00815607
0.00779778
0.00722623
0.00628985
0.00477563
0.0022876
-0.0013666
-0.00651514
-0.013336
-0.0210614
-0.0291926
-0.0370494
-0.0435412
-0.048407
-0.0497396
-0.0455746
-0.0388687
-0.0307673
-0.0210773
-0.011559
-0.00399521
0.00196914
0.00606788
0.00849441
0.00990276
0.010238
0.0100829
0.0098479
0.00959233
0.00937955
0.00922084
0.00911643
0.00905861
0.00903278
0.00902701
0.00904152
0.00803767
0.00806138
0.00799725
0.00784813
0.00758202
0.00714956
0.00647476
0.00540153
0.00373504
0.00100044
-0.0030738
-0.00869275
-0.0162188
-0.0249911
-0.0341389
-0.0428764
-0.0499211
-0.0549739
-0.0559843
-0.0505945
-0.0406575
-0.0300949
-0.0189132
-0.0086718
-0.00140612
0.00414942
0.00761349
0.00944339
0.0104119
0.0105446
0.0101703
0.00979948
0.00940506
0.00909164
0.00884302
0.00868614
0.00859274
0.00855078
0.0085497
0.00859618
0.00746752
0.00750903
0.00745559
0.00731444
0.007062
0.00665311
0.00602034
0.00502301
0.00348071
0.0010548
-0.00263182
-0.00762794
-0.0141943
-0.0221247
-0.0305788
-0.0390138
-0.0456052
-0.051013
-0.0521885
-0.0474152
-0.0388714
-0.0285433
-0.0180098
-0.00941078
-0.0026807
0.00245482
0.00580747
0.00781163
0.00895549
0.00940006
0.00935822
0.00916344
0.00884077
0.0085788
0.00837124
0.00823317
0.00814764
0.00809979
0.00808291
0.00810314
0.00696443
0.00695633
0.00690251
0.00679767
0.00661756
0.00633023
0.0058757
0.00515426
0.00403453
0.00232066
-0.000319874
-0.00388202
-0.00845904
-0.0141573
-0.0205172
-0.0270617
-0.0327793
-0.0374803
-0.0398135
-0.0382817
-0.034321
-0.0279901
-0.0209088
-0.0142373
-0.00825514
-0.00314265
0.00070689
0.00355013
0.00555871
0.00685409
0.00750816
0.00775375
0.00776593
0.00770472
0.00766205
0.00762871
0.00761089
0.00759815
0.0075806
0.00754779
0.00662669
0.0065889
0.00654653
0.00648699
0.0063924
0.00623848
0.00600391
0.00563635
0.00502971
0.00409147
0.00257582
0.000379281
-0.0023985
-0.00596362
-0.0102661
-0.0151084
-0.0200433
-0.0243308
-0.0279419
-0.0299906
-0.0300363
-0.0285349
-0.0252262
-0.0204334
-0.0150112
-0.00979775
-0.00523869
-0.00144487
0.00145241
0.00351778
0.00492707
0.00576048
0.00622442
0.00649675
0.00666205
0.00676
0.00683016
0.00687296
0.00688835
0.00687369
0.0064138
0.00640373
0.00639482
0.00637996
0.00635383
0.00631428
0.00625634
0.00617406
0.0060081
0.00567426
0.00506589
0.00392094
0.00209991
-0.000487146
-0.00397284
-0.00839135
-0.0133723
-0.018308
-0.0229095
-0.0265391
-0.028893
-0.0302792
-0.0295321
-0.0264203
-0.0215319
-0.0163224
-0.0111668
-0.00659962
-0.0028325
5.51953e-05
0.00221185
0.00366056
0.00459518
0.00517785
0.00553475
0.00575051
0.00589227
0.00599191
0.00606601
0.0061268
0.00618827
0.00619406
0.00620334
0.00621958
0.00624205
0.00628492
0.0063605
0.00646306
0.00657569
0.00662525
0.00658446
0.00615071
0.00491233
0.00288469
-0.000207837
-0.00452845
-0.00974729
-0.0160272
-0.0221608
-0.0273879
-0.0319775
-0.0357057
-0.0360973
-0.0333685
-0.0289342
-0.0233711
-0.0174572
-0.0118222
-0.00687431
-0.00300334
-8.5122e-05
0.00194521
0.00327294
0.00410048
0.00461124
0.0049294
0.00513543
0.00527534
0.00538194
0.00546648
0.00588779
0.00586571
0.00586101
0.0058801
0.0059377
0.00604121
0.00620008
0.00641804
0.00672234
0.00702433
0.00727832
0.00736943
0.00682188
0.00552778
0.00310546
-0.000786839
-0.00614381
-0.0134279
-0.0213285
-0.028721
-0.0360473
-0.0417577
-0.0428856
-0.0403815
-0.0359023
-0.0296193
-0.0227523
-0.0159
-0.00982541
-0.00510812
-0.00161957
0.000829187
0.00241189
0.0034076
0.00403017
0.00443603
0.0046913
0.00484352
0.00492677
0.00495169
0.00552296
0.00547764
0.00547388
0.00550254
0.00557907
0.00570283
0.00589026
0.00613206
0.00644158
0.00678228
0.00704598
0.00727639
0.00693343
0.00590918
0.00394425
0.000531829
-0.00444474
-0.0114823
-0.0199767
-0.0283
-0.0363269
-0.0423514
-0.0434993
-0.0410416
-0.0365166
-0.0301335
-0.023244
-0.0163584
-0.0102601
-0.00551074
-0.0020355
0.000407215
0.00199778
0.00300078
0.00365306
0.00409095
0.00436248
0.00451262
0.00457466
0.00453834
0.00514816
0.00513551
0.00513883
0.00515435
0.00519345
0.00525983
0.00536295
0.00549145
0.00560969
0.00564769
0.00543612
0.00497719
0.0040767
0.00251704
0.000295719
-0.00311221
-0.00755925
-0.013178
-0.0198136
-0.0262573
-0.0316944
-0.0356372
-0.0354442
-0.0328639
-0.0286641
-0.0232935
-0.0176575
-0.0122208
-0.00752961
-0.00386156
-0.00114537
0.000782808
0.00204744
0.0028892
0.00343795
0.0037919
0.00401539
0.00414502
0.00420244
0.00418106
0.00472899
0.0047505
0.00474408
0.00471426
0.00466952
0.00461225
0.00453015
0.00438992
0.00414734
0.00364408
0.00276913
0.00135957
-0.000552704
-0.00309597
-0.0061206
-0.00983426
-0.0138952
-0.0178444
-0.0212176
-0.0239945
-0.025792
-0.0261151
-0.0242963
-0.0212613
-0.0176004
-0.0135418
-0.00965669
-0.00614535
-0.0032838
-0.00106261
0.000634216
0.0018023
0.00258594
0.00309268
0.00341811
0.00362845
0.00376179
0.00384509
0.00389669
0.00392645
0.00420845
0.00419684
0.00415045
0.00406691
0.00394065
0.00375544
0.00347445
0.00303294
0.00235652
0.00130963
-0.000219856
-0.00236277
-0.00515162
-0.00859069
-0.0124176
-0.0164784
-0.0202104
-0.0229174
-0.023645
-0.023224
-0.0220286
-0.0199059
-0.016874
-0.0133106
-0.00971895
-0.00622712
-0.00338151
-0.00112114
0.000527367
0.00171013
0.00252128
0.00302202
0.00332964
0.00350733
0.00361562
0.0036859
0.00373647
0.00376949
0.00379561
0.00382174
0.00367586
0.00360607
0.00351101
0.00337744
0.00318769
0.0029022
0.00247094
0.00178584
0.000740904
-0.000794913
-0.00296617
-0.00581523
-0.00945653
-0.0137568
-0.0182873
-0.0226604
-0.0261898
-0.0280549
-0.0274447
-0.0248893
-0.021649
-0.0179938
-0.0139648
-0.00965341
-0.00562117
-0.00219161
0.000315816
0.00209425
0.00319466
0.00374948
0.00390068
0.00394908
0.00392734
0.00388409
0.00384621
0.00382104
0.00381094
0.00380108
0.00379361
0.00378549
0.00325344
0.00319087
0.00308681
0.00293241
0.00270242
0.00235033
0.0018117
0.000962748
-0.000362864
-0.00232408
-0.0050467
-0.00875386
-0.0134561
-0.0188649
-0.024341
-0.029292
-0.0330569
-0.0344856
-0.0329991
-0.0283661
-0.0228786
-0.0172111
-0.0114929
-0.00615366
-0.00176305
0.00134988
0.00332943
0.00445632
0.00488923
0.00487617
0.00463992
0.0043919
0.00416946
0.00398843
0.0038644
0.00378187
0.00373634
0.00371153
0.00370185
0.00369427
0.00296291
0.00295401
0.00288075
0.00273806
0.00249245
0.00210804
0.0015125
0.000595094
-0.000874447
-0.00306582
-0.00613441
-0.010384
-0.0157557
-0.0217729
-0.0277444
-0.0328647
-0.0372288
-0.0381862
-0.0361382
-0.0304185
-0.0235146
-0.0164981
-0.00937099
-0.00325335
0.00105785
0.00379067
0.00528666
0.00586386
0.00573869
0.00534134
0.00488321
0.00447495
0.00412411
0.00387597
0.00370094
0.00358338
0.0035125
0.00348044