/*--------------------------------*- C++ -*----------------------------------*\
| =========                 |                                                 |
| \\      /  F ield         | OpenFOAM: The Open Source CFD Toolbox           |
|  \\    /   O peration     | Version:  v2106                                 |
|   \\  /    A nd           | Website:  www.openfoam.com                      |
|    \\/     M anipulation  |                                                 |
\*---------------------------------------------------------------------------*/
FoamFile
{
    version     2.0;
    format      ascii;
    arch        "LSB;label=32;scalar=64";
    class       volScalarField;
    location    "0";
    object      p;
}
// * * * * * * * * * * * * * * * * * * * * * * * * * * * * * * * * * * * * * //

dimensions      [0 2 -2 0 0 0 0];

internalField   nonuniform List<scalar> 
11644
(
0.0468751
0.0472677
0.0480896
0.0493549
0.0510697
0.0532423
0.0558823
0.0589942
0.0625721
0.0665962
0.0710195
0.0757692
0.0807476
0.085802
0.0907583
0.0954415
0.0996279
0.10305
0.105504
0.10692
0.10728
0.106559
0.104729
0.101895
0.0982493
0.0940098
0.0893937
0.0845838
0.0797757
0.0751197
0.0707358
0.0667099
0.0630953
0.0599264
0.0572188
0.0549755
0.0531949
0.0518738
0.0510146
0.0506056
0.0461676
0.0465527
0.0473504
0.0485805
0.0502568
0.0523938
0.0550079
0.0581109
0.0617074
0.0657858
0.0703193
0.0752535
0.0804807
0.0858652
0.0912172
0.0963042
0.100834
0.104535
0.107266
0.10893
0.109353
0.108477
0.106367
0.103195
0.09916
0.0945193
0.0895104
0.0843774
0.0793077
0.0744649
0.069959
0.065864
0.0622214
0.059052
0.0563618
0.0541482
0.0524023
0.0511158
0.0502792
0.049875
0.0446888
0.0450701
0.0458385
0.047011
0.0486135
0.0506747
0.053222
0.0562843
0.0598861
0.0640459
0.068766
0.0740097
0.0797142
0.0857424
0.091894
0.0978424
0.103263
0.107891
0.111445
0.113586
0.114061
0.112801
0.11001
0.105989
0.101063
0.0955154
0.0896778
0.0838509
0.0782566
0.0730504
0.0683242
0.0641144
0.0604355
0.0572811
0.0546343
0.0524772
0.0507887
0.0495471
0.0487284
0.0483192
0.0424781
0.0428409
0.0435621
0.0446517
0.0461422
0.048075
0.0504969
0.0534604
0.0570244
0.0612455
0.0661679
0.071836
0.0782348
0.0852822
0.092724
0.100186
0.107288
0.113642
0.118534
0.121399
0.121897
0.119991
0.115964
0.110323
0.103824
0.0967601
0.0896116
0.0827725
0.0764384
0.0707345
0.0657177
0.0613825
0.0576845
0.0545749
0.0520082
0.0499403
0.0483332
0.04715
0.0463628
0.0459655
0.0396191
0.0399375
0.0405733
0.0415383
0.0428622
0.0445967
0.0468063
0.0495706
0.0529875
0.0571685
0.0622575
0.0683906
0.0756546
0.0840039
0.0933084
0.103155
0.112836
0.121996
0.129164
0.133307
0.133844
0.130778
0.124603
0.116134
0.107179
0.0977587
0.0887096
0.0805292
0.0733494
0.067178
0.0619324
0.057527
0.0538757
0.0508814
0.0484575
0.0465321
0.0450482
0.0439606
0.0432382
0.042873
0.0362042
0.0364567
0.0369647
0.0377408
0.0388224
0.0402615
0.0421326
0.0445383
0.047616
0.0515637
0.0566228
0.0630291
0.0710168
0.0809185
0.0927822
0.106035
0.119691
0.133607
0.14475
0.151284
0.1518
0.146358
0.136412
0.123611
0.110573
0.0975742
0.0860095
0.076315
0.0683422
0.0618586
0.056608
0.0523431
0.0489005
0.0461508
0.0439756
0.0422785
0.0409867
0.0400498
0.0394362
0.0391311
0.0323414
0.03251
0.0328471
0.0333725
0.0341209
0.0351402
0.036508
0.0383363
0.0408038
0.0441689
0.0487301
0.0548525
0.0630475
0.0741374
0.0888353
0.107123
0.121677
0.140491
0.157654
0.169423
0.172396
0.165829
0.152031
0.134883
0.111661
0.0942718
0.0798497
0.0689097
0.0606721
0.054288
0.0493865
0.045603
0.0426563
0.0403624
0.0385941
0.0372463
0.0362409
0.0355271
0.0350657
0.0348403
0.0281841
0.0282453
0.0283738
0.028587
0.0289034
0.02937
0.0300476
0.0310411
0.0325394
0.0347773
0.0380754
0.0430061
0.0502206
0.0615884
0.0766732
0.0970309
0.124967
0.155281
0.185338
0.206806
0.211716
0.198452
0.172393
0.142832
0.114166
0.0917178
0.0755009
0.0571017
0.0495171
0.044014
0.0400826
0.0372201
0.0351239
0.0335633
0.0324077
0.0315603
0.0309495
0.0305235
0.0302559
0.0301182
0.0238888
0.0238377
0.0237312
0.0235711
0.0233745
0.0231612
0.022958
0.0228439
0.0229491
0.0234216
0.0245853
0.0269751
0.0312804
0.0445844
0.0587481
0.0815078
0.112642
0.159748
0.211252
0.256118
0.270817
0.246344
0.19886
0.148519
0.108443
0.0752874
0.0580357
0.039055
0.0340462
0.0307785
0.0286608
0.027302
0.0264556
0.02592
0.0255832
0.0253818
0.0252675
0.0252044
0.0251724
0.0251654
0.0196432
0.0194623
0.0191054
0.018553
0.0177994
0.0168189
0.0155969
0.014142
0.0124711
0.010604
0.00870966
0.00711057
0.00585707
0.0152072
0.0223888
0.0441108
0.0782582
0.137587
0.230454
0.337139
0.381654
0.319473
0.212278
0.128509
0.0719008
0.0370191
0.026893
0.0142087
0.0143406
0.0146852
0.0153372
0.0161472
0.0169739
0.0177427
0.0184105
0.018981
0.0194407
0.0197917
0.0200167
0.0201287
0.0156198
0.0153448
0.0147425
0.013805
0.0124813
0.0107208
0.00845065
0.00557425
0.00193583
-0.00263047
-0.00838564
-0.0155627
-0.0245738
-0.0253974
-0.0319117
-0.029666
-0.0165504
0.0180578
0.133261
0.387622
0.569818
0.33934
0.103495
0.00937795
-0.0184526
-0.0243922
-0.0171254
-0.0156609
-0.00891524
-0.00358102
0.000823023
0.00436215
0.00718394
0.00945891
0.0112562
0.0126667
0.0137431
0.0145139
0.0150234
0.0152535
0.0120817
0.0116745
0.0108545
0.0095716
0.00775451
0.00531159
0.00210409
-0.00205835
-0.00752958
-0.0147221
-0.0243127
-0.0372911
-0.055351
-0.0644596
-0.0951986
-0.122921
-0.171231
-0.265054
-0.496016
-0.521556
-0.249383
-0.145438
-0.0967179
-0.0655706
-0.0474135
-0.0328338
-0.0218195
-0.0134544
-0.00709428
-0.00220279
0.00161761
0.00455734
0.00679799
0.00849036
0.0097002
0.0104812
0.0108842
0.00913194
0.00861799
0.00763943
0.00611182
0.00395939
0.00103263
-0.00283465
-0.00790011
-0.0146449
-0.0236747
-0.0359021
-0.0525411
-0.0759687
-0.0972861
-0.142891
-0.197554
-0.291577
-0.463374
-0.643006
-0.561748
-0.384629
-0.230982
-0.152611
-0.106487
-0.0734086
-0.0527222
-0.0372127
-0.0256841
-0.0169608
-0.0102861
-0.00513301
-0.00119083
0.00179558
0.00402686
0.00561471
0.00662519
0.00713647
0.00674667
0.00629363
0.00523187
0.00359901
0.00129976
-0.00181742
-0.0059178
-0.011288
-0.0183854
-0.0277929
-0.0404595
-0.0573782
-0.0800236
-0.106519
-0.152735
-0.214928
-0.316838
-0.478639
-0.556411
-0.375814
-0.339064
-0.24893
-0.176153
-0.1288
-0.0882907
-0.0651344
-0.0473682
-0.0340935
-0.0239447
-0.0161772
-0.0101647
-0.005562
-0.00206311
0.000543235
0.00238999
0.0035886
0.00415588
0.00519868
0.00467429
0.00364991
0.00208182
-0.000115219
-0.00307261
-0.00694419
-0.011942
-0.0184017
-0.0266887
-0.0374587
-0.0512215
-0.0682478
-0.0910356
-0.122483
-0.172999
-0.256474
-0.414195
-0.57779
-0.522758
-0.453282
-0.400652
-0.344086
-0.331353
-0.251989
-0.179741
-0.133048
-0.0912879
-0.0686895
-0.0510303
-0.037528
-0.0271486
-0.0191428
-0.0129417
-0.00815875
-0.00450298
-0.00178049
0.000147147
0.00138264
0.00197903
0.00451386
0.00400305
0.00310848
0.00174363
-0.000173252
-0.00273273
-0.00602291
-0.010108
-0.0151237
-0.0211078
-0.0279857
-0.0355
-0.0435491
-0.0577913
-0.0664184
-0.073686
-0.100729
-0.14498
-0.315527
-0.516031
-0.655456
-0.62666
-0.516701
-0.36418
-0.249384
-0.168038
-0.123893
-0.0830419
-0.0630738
-0.0475964
-0.035596
-0.0261983
-0.0188594
-0.0131409
-0.00868848
-0.00525233
-0.00267621
-0.000850983
0.000299898
0.000816702
0.00459299
0.00441712
0.0036975
0.00255702
0.000996883
-0.000989131
-0.00345813
-0.00634417
-0.00945216
-0.0125701
-0.0151926
-0.0165779
-0.0155002
-0.0132346
-0.0106816
0.0123938
0.0426873
0.0758177
-0.114611
-0.485716
-0.723791
-0.700785
-0.518401
-0.323649
-0.196663
-0.138687
-0.0864085
-0.0654842
-0.0498427
-0.0379017
-0.0286665
-0.0213342
-0.0154474
-0.0107757
-0.0070937
-0.00422159
-0.00204492
-0.000487173
0.000517315
0.00100212
0.00563769
0.00542847
0.00494252
0.00414284
0.00303825
0.00168996
0.000107779
-0.00160517
-0.00317146
-0.00423709
-0.00438586
-0.00321698
0.000897594
0.00901372
0.0165587
0.0435161
0.0823941
0.0965018
-0.067938
-0.318256
-0.471562
-0.434831
-0.310135
-0.2089
-0.128887
-0.0930406
-0.0535449
-0.0406569
-0.0309512
-0.0236163
-0.0179328
-0.0133101
-0.00946556
-0.0063218
-0.00374317
-0.00167522
-7.75105e-05
0.00107889
0.00184571
0.00224988
0.0072314
0.00698408
0.0066435
0.00616961
0.00552858
0.00475455
0.00389037
0.00299081
0.00219073
0.00166984
0.00161196
0.00198389
0.00297317
0.00746969
0.0109955
0.0116199
0.017038
-0.00161341
-0.0929961
-0.19727
-0.241274
-0.215306
-0.159337
-0.10864
-0.0607081
-0.0414534
-0.0183915
-0.0134452
-0.00986088
-0.00737172
-0.00534562
-0.00357521
-0.00199814
-0.00057592
0.000755197
0.00189898
0.00282953
0.00353217
0.00400292
0.00424773
0.009251
0.0090964
0.008859
0.0085676
0.00821688
0.00781
0.00736619
0.00689991
0.00630879
0.00553199
0.00441233
0.00260096
-0.00120332
-0.00545622
-0.0118946
-0.0391052
-0.0788127
-0.145963
-0.216264
-0.260101
-0.244015
-0.175715
-0.0997635
-0.0454507
-0.0101416
0.00102807
0.0124407
0.0113864
0.00921069
0.00765577
0.00650484
0.00580787
0.00545586
0.0054239
0.00560719
0.00587899
0.00617864
0.00645144
0.00664737
0.00673642
0.0115296
0.0114822
0.0113856
0.0112544
0.0110919
0.0109004
0.0106699
0.0103747
0.00985479
0.00887833
0.00706789
0.0036146
-0.00310116
-0.0139202
-0.026027
-0.0654376
-0.132601
-0.240004
-0.333245
-0.369406
-0.325363
-0.210564
-0.0902588
-0.0153861
0.0245235
0.0315274
0.0355738
0.0303099
0.0240441
0.0195524
0.0160471
0.0135598
0.0118803
0.010833
0.0101369
0.00971315
0.00949346
0.00939891
0.00938272
0.00939351
0.0139152
0.0139243
0.0139579
0.0140076
0.0140618
0.0141169
0.0141311
0.0140263
0.0137002
0.0129286
0.0113632
0.00810107
0.00236553
-0.00955672
-0.0272653
-0.0538568
-0.114771
-0.20704
-0.294377
-0.334629
-0.299376
-0.194971
-0.0838188
-0.00533329
0.0362182
0.0537015
0.0508467
0.042259
0.0338877
0.0277648
0.0230518
0.0195467
0.0170548
0.0152838
0.0140028
0.0131197
0.0125483
0.0121888
0.0119927
0.0119256
0.016215
0.0162775
0.0164335
0.0166565
0.0169375
0.0172644
0.0176113
0.0178965
0.0180494
0.0178922
0.0171677
0.0152147
0.0114622
0.0036925
-0.00979622
-0.0278526
-0.0547511
-0.0918918
-0.124321
-0.144253
-0.141051
-0.107345
-0.0568525
-0.0046533
0.0318191
0.0504453
0.0542601
0.0454338
0.0376445
0.0319084
0.0271763
0.0234772
0.0206898
0.018597
0.0170567
0.0159646
0.0152013
0.0146806
0.0143591
0.0141957
0.0182884
0.0184306
0.0186775
0.0190224
0.0194733
0.0200337
0.0207179
0.0214882
0.0223185
0.0230182
0.0233668
0.0229112
0.0210753
0.016724
0.00934166
-0.00187097
-0.0190726
-0.046522
-0.0778407
-0.104346
-0.117381
-0.108985
-0.0770733
-0.0325436
0.00538704
0.0296731
0.0400991
0.0381225
0.0349357
0.0315147
0.0279245
0.0249448
0.0225431
0.0206529
0.0192078
0.0181136
0.0173074
0.0167331
0.0163635
0.016167
0.0200721
0.0202573
0.0205313
0.0209493
0.0215308
0.0222967
0.02329
0.0245031
0.0259343
0.02739
0.0286805
0.0294303
0.0289207
0.0260221
0.0196085
0.00676153
-0.0121518
-0.0418156
-0.0803526
-0.117354
-0.138567
-0.135622
-0.109713
-0.0705583
-0.0341051
-0.00378545
0.0158621
0.0239767
0.0272087
0.0272597
0.0259553
0.0244668
0.022956
0.0216605
0.0205497
0.0196334
0.0189221
0.0183913
0.0180423
0.0178601
0.0215118
0.0216288
0.0219372
0.0224408
0.0231504
0.0240795
0.0252783
0.0267619
0.0285395
0.030508
0.0324719
0.033947
0.0342897
0.0313005
0.0232008
0.00593503
-0.0220271
-0.0610727
-0.111
-0.159553
-0.192744
-0.192261
-0.161583
-0.116293
-0.0690222
-0.0317456
-0.00321904
0.0111746
0.0193551
0.0221686
0.0232951
0.0232988
0.0227878
0.022102
0.0213789
0.0207202
0.0201652
0.0197394
0.0194505
0.0192964
0.0226839
0.0227338
0.023063
0.0235963
0.0243549
0.025353
0.0266041
0.0281336
0.0299641
0.0321308
0.0343784
0.0364122
0.0369149
0.0329158
0.0214336
0.000144551
-0.0314609
-0.0736744
-0.126889
-0.178942
-0.221296
-0.22107
-0.181927
-0.137392
-0.0815043
-0.0414509
-0.0111556
0.00539683
0.0149612
0.0195185
0.0218818
0.0225889
0.0227322
0.0224442
0.0220291
0.0215866
0.0211793
0.0208531
0.020625
0.0205197
0.0236103
0.0237364
0.024026
0.0244979
0.0251891
0.026114
0.0272815
0.0286939
0.0303797
0.0323337
0.0344031
0.0364836
0.0358393
0.0298076
0.0178352
-0.00285292
-0.0319114
-0.0698612
-0.114594
-0.153898
-0.185209
-0.179231
-0.147514
-0.108741
-0.0678325
-0.0339197
-0.00846369
0.00630198
0.0151027
0.0196115
0.0219675
0.0229017
0.0231584
0.023047
0.0227703
0.0224383
0.0221107
0.0218429
0.0216536
0.0215731
0.0241041
0.0242769
0.0245573
0.0249772
0.0255613
0.0263313
0.0273054
0.0284747
0.0298198
0.0312524
0.0326788
0.0334283
0.0313116
0.0240881
0.0107778
-0.0093175
-0.0351178
-0.0665385
-0.0954265
-0.115744
-0.123076
-0.11447
-0.0935809
-0.0659702
-0.0397381
-0.0150405
0.00259564
0.0127112
0.0186316
0.0218318
0.0233281
0.0239351
0.0240499
0.0239158
0.0236441
0.0233241
0.0230098
0.022745
0.0225492
0.0224416
0.0241464
0.0242697
0.024507
0.0248655
0.0253372
0.0259248
0.0266255
0.0274031
0.0281997
0.0287671
0.0288692
0.0276688
0.0233299
0.0143269
-0.00038664
-0.0206508
-0.0441569
-0.0691712
-0.0878322
-0.0947889
-0.089558
-0.0769817
-0.0586193
-0.0349304
-0.013902
0.00363932
0.0140139
0.0196905
0.022887
0.0245515
0.0251494
0.0252474
0.0250709
0.0247701
0.0244091
0.0240515
0.0237316
0.023466
0.0232683
0.023118
0.0239717
0.0240361
0.0242073
0.0244651
0.0247857
0.0251385
0.0254827
0.0257401
0.0257929
0.0252907
0.0236756
0.0201694
0.0126121
-0.000117598
-0.0171192
-0.0376899
-0.0593452
-0.0793839
-0.0933646
-0.095704
-0.0868965
-0.0680675
-0.0447603
-0.0208064
-0.00129082
0.011787
0.0192266
0.0237964
0.0260556
0.0268777
0.0268443
0.026459
0.025928
0.0253995
0.0249074
0.0244884
0.0241467
0.023884
0.023698
0.0235869
0.023747
0.023825
0.023936
0.0240775
0.0242186
0.0243149
0.0243076
0.0240549
0.0233943
0.021946
0.0188968
0.0133272
0.0028954
-0.0135146
-0.0349218
-0.060104
-0.0848506
-0.104222
-0.11667
-0.117653
-0.104859
-0.0791621
-0.049283
-0.0227619
-0.00168424
0.0126997
0.0216492
0.0264803
0.0283252
0.0286126
0.0281103
0.0273454
0.0265237
0.0257921
0.0251778
0.0246866
0.0242924
0.0240112
0.0238355
0.023811
0.0234831
0.0235735
0.0236401
0.023694
0.0236935
0.0236018
0.0233375
0.0227417
0.0215996
0.0195382
0.0157205
0.00905259
-0.00268848
-0.0207085
-0.0450207
-0.0743901
-0.103907
-0.125535
-0.142404
-0.143745
-0.123399
-0.092633
-0.0578009
-0.0290326
-0.00599272
0.0106346
0.0213176
0.0271494
0.0294313
0.0294027
0.0285318
0.027573
0.02666
0.025879
0.0252251
0.0247086
0.0243086
0.0240461
0.0238998
0.0238921
0.0231503
0.0232113
0.0232415
0.023247
0.023189
0.023026
0.0226854
0.0220194
0.0207557
0.0185489
0.0146862
0.00825815
-0.00231689
-0.0184501
-0.0399927
-0.0665096
-0.0956935
-0.118664
-0.136553
-0.140162
-0.119529
-0.090764
-0.0587936
-0.0314763
-0.00916718
0.00753754
0.0188531
0.0253682
0.0283716
0.0287224
0.0279734
0.0271158
0.0263033
0.0256076
0.0250328
0.0245795
0.024245
0.0240292
0.0239005
0.023834
0.0228457
0.0228531
0.0228755
0.0228864
0.0228476
0.0227125
0.0224271
0.0218814
0.0209012
0.019172
0.0161182
0.0109844
0.00277157
-0.00960694
-0.0255393
-0.0447367
-0.0666484
-0.086503
-0.101431
-0.106831
-0.0965133
-0.0789867
-0.0556838
-0.0324299
-0.0127494
0.00281898
0.0138523
0.0211952
0.0251727
0.0265381
0.0265145
0.025996
0.0254452
0.0249459
0.024509
0.0241619
0.0238947
0.0236967
0.0235519
0.02345
0.0226362
0.022654
0.0226772
0.0226988
0.0226975
0.0226388
0.0224823
0.0221529
0.0215708
0.0205584
0.0188023
0.015826
0.0107708
0.00211884
-0.00989671
-0.0240537
-0.0398238
-0.0559778
-0.067215
-0.0744889
-0.0759789
-0.068997
-0.0547499
-0.0365387
-0.0197697
-0.00502532
0.00686682
0.0154956
0.020535
0.0230576
0.0239568
0.0241104
0.023998
0.0237644
0.0235172
0.0232963
0.0231113
0.0229662
0.0228662
0.0227987
0.0224097
0.022444
0.022479
0.022517
0.0225573
0.022589
0.022596
0.022538
0.0223777
0.022027
0.0212554
0.0197302
0.0169806
0.011738
0.00306707
-0.00914357
-0.0235741
-0.0395405
-0.0531389
-0.0632148
-0.0685911
-0.0671619
-0.0572129
-0.0430675
-0.0286598
-0.0145863
-0.00236024
0.00734867
0.014174
0.0183792
0.020564
0.0216411
0.0221181
0.0222638
0.022276
0.0222246
0.022153
0.0220897
0.022056
0.0220613
0.0220518
0.0220453
0.0220855
0.0221535
0.0222593
0.0223992
0.0225818
0.0227942
0.023034
0.0231859
0.023077
0.0223325
0.0203646
0.0161556
0.00871317
-0.0027562
-0.0180392
-0.0359235
-0.0539344
-0.0688448
-0.0762397
-0.0758669
-0.0682329
-0.056244
-0.0426361
-0.0275846
-0.0133279
-0.00134608
0.00776104
0.0137871
0.0172462
0.0191796
0.0202368
0.0208078
0.0211129
0.0212534
0.021304
0.0213134
0.0213174
0.0213414
0.0216046
0.0215469
0.0215842
0.0216784
0.0218395
0.0220598
0.0223721
0.0227676
0.023253
0.0236907
0.0240175
0.0235156
0.0215689
0.0171089
0.00894399
-0.00311533
-0.0194167
-0.0389697
-0.0615884
-0.0803835
-0.0943459
-0.0940041
-0.0852267
-0.0733576
-0.0576714
-0.0396813
-0.0218644
-0.0073732
0.00345565
0.0106023
0.0148581
0.017269
0.018735
0.0196346
0.0201694
0.0204667
0.0206266
0.0206888
0.0207058
0.0206781
0.021119
0.0210953
0.0211224
0.0212043
0.0213615
0.021586
0.0218943
0.0222908
0.0228063
0.0232468
0.0236558
0.0230246
0.0204407
0.0154607
0.00697088
-0.00509109
-0.0211301
-0.0405837
-0.0635343
-0.0850414
-0.101903
-0.10151
-0.0914762
-0.0783486
-0.0600969
-0.0412013
-0.0225953
-0.00826567
0.00242997
0.00926602
0.0135918
0.0162495
0.0178572
0.0188403
0.0194398
0.0197746
0.0199853
0.0200788
0.0201104
0.020052
0.0204967
0.0205441
0.0205905
0.0206576
0.0207663
0.0209219
0.0211342
0.0213889
0.0217118
0.0218804
0.0217383
0.0204393
0.0173575
0.0120261
0.00377156
-0.00785894
-0.0227207
-0.0400863
-0.0590257
-0.075075
-0.0879282
-0.0864431
-0.0763281
-0.0633076
-0.0464312
-0.0300065
-0.0156169
-0.00419917
0.00439857
0.0101752
0.0139267
0.0162046
0.017572
0.0183882
0.0188888
0.0191838
0.0193538
0.0194331
0.0194643
0.0194411
0.0196915
0.0197338
0.0197744
0.0198181
0.0198686
0.0199258
0.0199888
0.0200186
0.0199872
0.0196825
0.0186615
0.016452
0.012376
0.00600123
-0.00244183
-0.0133676
-0.0260877
-0.0403666
-0.0525483
-0.0609163
-0.0633061
-0.0594803
-0.0519901
-0.0404773
-0.0278666
-0.0158648
-0.00584678
0.00249154
0.00874361
0.0127766
0.015328
0.0168373
0.0177264
0.0182614
0.0185855
0.0187715
0.0188712
0.0189151
0.018934
0.0189572
0.0187944
0.0187804
0.0187593
0.0187376
0.0187039
0.0186416
0.0185164
0.0182473
0.01771
0.0167057
0.014719
0.0113742
0.00621846
-0.00110076
-0.0100369
-0.0202882
-0.0311367
-0.0419445
-0.0496008
-0.0519031
-0.0489515
-0.0432356
-0.0348499
-0.0240539
-0.0136249
-0.00391436
0.0038658
0.00980537
0.0135757
0.0157195
0.0169697
0.0176695
0.0180873
0.0183349
0.0184786
0.0185546
0.0185927
0.0186096
0.018613
0.018609
0.0179073
0.0178409
0.0177841
0.0177114
0.0175968
0.017397
0.0170528
0.0164559
0.0153676
0.0135407
0.0104281
0.00558315
-0.000954873
-0.00925436
-0.0189006
-0.0290751
-0.0388699
-0.0476805
-0.0528307
-0.0525959
-0.0481751
-0.0394957
-0.0283732
-0.0161829
-0.00514142
0.00412319
0.0107514
0.0147954
0.0168904
0.0178893
0.0183022
0.0184145
0.0184114
0.0183794
0.0183411
0.0183076
0.0182851
0.01827
0.0182542
0.0182425
0.0171139
0.0170822
0.0170239
0.0169142
0.0167187
0.0163846
0.0158342
0.0149588
0.0134838
0.0110103
0.0069629
0.000753231
-0.00764993
-0.0180686
-0.0298069
-0.0411704
-0.0514723
-0.0596125
-0.064196
-0.0627304
-0.0549321
-0.0426406
-0.0281274
-0.0141365
-0.0020439
0.00733043
0.013666
0.0171971
0.0188389
0.0192974
0.0191276
0.0188069
0.0184893
0.018225
0.0180272
0.0178884
0.0177982
0.0177488
0.0177317
0.0177629
0.0164353
0.0164739
0.0164231
0.0162907
0.0160375
0.0156159
0.0149563
0.01393
0.0122966
0.0095627
0.00510821
-0.00167336
-0.0110435
-0.0231377
-0.0366913
-0.0496829
-0.061807
-0.0700695
-0.0758108
-0.074468
-0.0607319
-0.0453071
-0.0283463
-0.0136986
-0.0016074
0.0075582
0.0137455
0.0172145
0.0189755
0.0194269
0.0190748
0.0186265
0.0181752
0.0178206
0.0175558
0.0173698
0.0172474
0.017186
0.0171748
0.0172278
0.0158037
0.0158494
0.0157988
0.0156842
0.015449
0.0150663
0.0144566
0.0134697
0.0119047
0.00939638
0.00534513
-0.000692571
-0.00888844
-0.0197989
-0.0325755
-0.0457753
-0.0582828
-0.0670445
-0.0732126
-0.0720443
-0.0584267
-0.0439543
-0.0282561
-0.0146007
-0.00332825
0.00538235
0.0114269
0.0151148
0.0172601
0.0181399
0.0180101
0.0177664
0.0174266
0.017153
0.0169464
0.0168018
0.0167084
0.0166639
0.0166494
0.0166504
0.0152253
0.0152154
0.0151795
0.0151051
0.0149534
0.0146908
0.0142596
0.0135479
0.0123784
0.0104672
0.00738547
0.00279372
-0.00328214
-0.0110907
-0.020635
-0.0311344
-0.0416541
-0.0497778
-0.0554571
-0.0563406
-0.0499004
-0.0405101
-0.0291312
-0.0178444
-0.00788509
0.000427436
0.00663988
0.0110587
0.0137952
0.0153559
0.016072
0.0162707
0.0162464
0.0161762
0.016113
0.0160634
0.0160281
0.0159991
0.0159698
0.0159305
0.0148072
0.0147801
0.0147575
0.0147195
0.0146479
0.0145175
0.0142948
0.0139168
0.013293
0.0122389
0.0105047
0.00759992
0.00332044
-0.00200618
-0.00853878
-0.0162106
-0.0241536
-0.0316748
-0.037466
-0.0410327
-0.0414967
-0.0377456
-0.0311567
-0.0227161
-0.0142326
-0.00640292
0.000165869
0.00547537
0.00929267
0.011855
0.0134036
0.0141954
0.0146015
0.0148219
0.0149396
0.0150106
0.0150557
0.0150817
0.015096
0.0150894
0.0144861
0.0144956
0.0144997
0.014494
0.0144824
0.0144599
0.0144142
0.014321
0.0141422
0.0138
0.013078
0.0117443
0.00923959
0.00535282
8.34212e-05
-0.00661358
-0.0142778
-0.0222758
-0.0294474
-0.0350153
-0.0377845
-0.0379446
-0.0344766
-0.0282121
-0.0208355
-0.0133461
-0.00639529
-0.000364826
0.00435801
0.00793468
0.0103955
0.0119103
0.0128211
0.0133607
0.0136767
0.0138726
0.0140005
0.0140917
0.0141637
0.0142194
0.0141081
0.0141147
0.0141298
0.0141539
0.0142001
0.0142755
0.0143833
0.0145211
0.0146796
0.0148247
0.0147931
0.0142822
0.0128407
0.00998644
0.00527728
-0.00142687
-0.00999958
-0.0195726
-0.0289307
-0.0364864
-0.0413538
-0.0437233
-0.0417508
-0.0364901
-0.0294188
-0.0215614
-0.0137184
-0.00647776
-0.000429986
0.00434708
0.00775751
0.00996084
0.0113141
0.0121358
0.0126384
0.0129482
0.0131374
0.0132575
0.013342
0.0134162
0.0136222
0.013586
0.0135964
0.0136425
0.0137354
0.0138825
0.0140982
0.0143926
0.0147524
0.0151505
0.0155366
0.0153614
0.0142427
0.0118783
0.00758599
0.00109838
-0.00757709
-0.0182924
-0.029731
-0.0400867
-0.0493255
-0.0530116
-0.0513172
-0.0462707
-0.0386157
-0.0297911
-0.0204607
-0.0114247
-0.00386937
0.00192064
0.00600799
0.00862867
0.0102299
0.011242
0.0118881
0.0122947
0.0125364
0.0126732
0.0127403
0.0127491
0.0131056
0.0130597
0.0130616
0.013103
0.0131952
0.0133459
0.0135691
0.013875
0.0142752
0.0146407
0.0149716
0.0146312
0.0134461
0.0113301
0.00746521
0.00156305
-0.00644001
-0.0169775
-0.0292722
-0.0413238
-0.0521654
-0.056286
-0.0543795
-0.049043
-0.0408923
-0.0313857
-0.0213787
-0.0119203
-0.00424155
0.00145848
0.00542372
0.0079982
0.00965901
0.0107044
0.011368
0.0117891
0.0120459
0.0121872
0.0122417
0.0121888
0.012534
0.0125425
0.0125513
0.0125725
0.012619
0.0126962
0.0128155
0.0129738
0.0131536
0.0131773
0.012981
0.012193
0.010609
0.00798027
0.00396436
-0.00172442
-0.00895111
-0.0177828
-0.0278306
-0.0375248
-0.0451089
-0.0476276
-0.0453286
-0.0400035
-0.0322996
-0.023705
-0.0151679
-0.00753722
-0.00158843
0.00292208
0.00613443
0.00828708
0.00965282
0.0104879
0.011023
0.011353
0.0115525
0.0116492
0.0116939
0.0116655
0.0118451
0.0118661
0.0118719
0.0118636
0.0118411
0.0118028
0.0117434
0.0116425
0.0114338
0.0109463
0.00990348
0.00822947
0.0057903
0.00222347
-0.00236551
-0.00804906
-0.0144953
-0.0210822
-0.0272993
-0.0321729
-0.0341284
-0.0329624
-0.0296335
-0.0247359
-0.0185391
-0.0121723
-0.00627247
-0.00131466
0.00256523
0.00569574
0.00785429
0.00922639
0.0100557
0.0105558
0.0108563
0.0110382
0.0111359
0.0111832
0.0112102
0.0112362
0.0110806
0.011059
0.0110056
0.0109275
0.0108166
0.0106549
0.0103985
0.00999116
0.00932773
0.00823523
0.00644451
0.00382849
0.000416882
-0.00398032
-0.00908367
-0.0146541
-0.0203832
-0.0251165
-0.0277971
-0.0283383
-0.0271209
-0.0234439
-0.0188215
-0.0135926
-0.00807463
-0.00308782
0.00111523
0.00443135
0.00695722
0.00873179
0.00974916
0.0102952
0.0106012
0.0107662
0.0108608
0.0109087
0.0109288
0.0109371
0.0109429
0.0109534
0.0103261
0.0102512
0.0101564
0.0100322
0.00985656
0.00959089
0.00916741
0.0084859
0.00738045
0.00566761
0.00312458
-0.000317157
-0.00465291
-0.0099047
-0.0156848
-0.0214681
-0.0268025
-0.030648
-0.0314915
-0.0292111
-0.0261333
-0.0207825
-0.0145935
-0.0082195
-0.00224283
0.00259879
0.00623895
0.00869069
0.0101963
0.0108422
0.0110406
0.0110513
0.0109902
0.0109131
0.0108499
0.010801
0.0107669
0.0107433
0.0107237
0.0107071
0.00967659
0.0096145
0.00952749
0.00939295
0.00917802
0.00883355
0.00828229
0.00740652
0.00597842
0.00374583
0.000479487
-0.00395607
-0.00961908
-0.0161743
-0.0230497
-0.0296356
-0.0350078
-0.0385989
-0.0386322
-0.0341652
-0.0279901
-0.0208235
-0.0128768
-0.00504197
0.00135882
0.00612769
0.00937036
0.0111166
0.0119919
0.0120561
0.0117236
0.0113817
0.0110598
0.0108154
0.0106268
0.0104981
0.0104179
0.0103732
0.0103525
0.0103535
0.0091719
0.00918296
0.00912526
0.00899114
0.00874271
0.00834948
0.00771815
0.00675151
0.00519892
0.00271053
-0.000976553
-0.00598312
-0.0125765
-0.0201763
-0.0278765
-0.0352279
-0.0406711
-0.0447369
-0.0447181
-0.0385874
-0.0300866
-0.0205913
-0.0108085
-0.00236652
0.00366337
0.00791038
0.0105295
0.0117418
0.012279
0.0121218
0.0116368
0.0111974
0.0107587
0.0104421
0.0102042
0.0100388
0.00993391
0.00988328
0.00987255
0.00991672
0.00874811
0.00879758
0.00875673
0.00863897
0.00841274
0.00805149
0.00746662
0.00655651
0.00513082
0.00288822
-0.000419679
-0.00488851
-0.0108431
-0.017926
-0.025324
-0.0324984
-0.0379829
-0.0421021
-0.042376
-0.0369011
-0.0289321
-0.0198222
-0.0107725
-0.00324958
0.0022904
0.00625975
0.00874612
0.0100683
0.0107496
0.01092
0.0106975
0.010435
0.0100894
0.00984532
0.00966069
0.00953794
0.00946384
0.00943565
0.00943709
0.00945787
0.00835532
0.00836963
0.00833988
0.00826896
0.00812593
0.00788125
0.0074804
0.00682961
0.00577764
0.00419446
0.00180532
-0.00138413
-0.00547384
-0.0105607
-0.016174
-0.0218196
-0.0266229
-0.0302584
-0.0317798
-0.0298905
-0.0257393
-0.0198263
-0.0136459
-0.00810958
-0.00308566
0.00091722
0.003949
0.00611721
0.00754912
0.00843329
0.00887431
0.00905214
0.00905399
0.00902245
0.00899079
0.00897431
0.00896628
0.00896254
0.00895411
0.00893227
0.0080679
0.00804513
0.00803233
0.00801161
0.00796312
0.00786725
0.00769844
0.00740978
0.00688524
0.00608932
0.00475656
0.00283399
0.00045237
-0.00261713
-0.00633719
-0.0104371
-0.0145892
-0.0182033
-0.0211165
-0.0226017
-0.0222766
-0.0205898
-0.0178367
-0.0141124
-0.00977182
-0.00571476
-0.0020549
0.00100484
0.00339699
0.00522406
0.00644783
0.00719085
0.00762427
0.00788712
0.00805471
0.00816954
0.008248
0.00829067
0.00830654
0.00830144
0.00789285
0.00789333
0.00790641
0.00792363
0.00793908
0.00795288
0.00796081
0.0079567
0.00787266
0.00766319
0.00722978
0.00633721
0.00490271
0.002869
6.3982e-05
-0.00346147
-0.00751724
-0.0115663
-0.0154994
-0.0189451
-0.0210304
-0.0225313
-0.0221314
-0.0195284
-0.01573
-0.011622
-0.00743194
-0.00366979
-0.000466845
0.00208382
0.0039509
0.00525344
0.00610212
0.00665089
0.00700504
0.00723789
0.00739943
0.00751353
0.00759489
0.00764277
0.00770908
0.00773043
0.0077547
0.00778859
0.00784073
0.00792511
0.00804718
0.00821341
0.00841255
0.00860143
0.00871931
0.00858295
0.00786362
0.00648066
0.00408222
0.000653246
-0.00377672
-0.00876533
-0.0137513
-0.0187283
-0.0229007
-0.0267707
-0.0277212
-0.0259168
-0.02234
-0.0177546
-0.0127259
-0.00797065
-0.00383403
-0.000537063
0.00195861
0.00375472
0.00494696
0.00571289
0.00620039
0.00651182
0.0067164
0.00685631
0.00695853
0.00703687
0.00740121
0.00739076
0.0074092
0.00745298
0.00753643
0.00766801
0.00785798
0.00811741
0.00846458
0.0088903
0.00933821
0.00971236
0.00952496
0.00875798
0.00696432
0.004036
-0.000344853
-0.00626155
-0.0128569
-0.0196812
-0.0260067
-0.0318861
-0.0333899
-0.032062
-0.0285109
-0.0234044
-0.0175848
-0.0117691
-0.00656103
-0.00238412
0.000670924
0.00285091
0.00424845
0.0051538
0.00572067
0.00608141
0.00630811
0.00644231
0.00651952
0.00655495
0.00702447
0.0069851
0.0069864
0.00702137
0.00710161
0.00723208
0.0074249
0.00769908
0.00805412
0.00849959
0.0088979
0.0093208
0.00937809
0.00892509
0.00759408
0.00511607
0.00105177
-0.00491486
-0.0122857
-0.0198764
-0.0270249
-0.0326524
-0.0343952
-0.0332331
-0.0294493
-0.0242409
-0.0183249
-0.0123864
-0.00701336
-0.0027426
0.000345969
0.00254419
0.00397573
0.00487768
0.00545507
0.00583108
0.00606374
0.0061836
0.00623092
0.00620218
0.00664673
0.00663151
0.0066247
0.00663106
0.00666301
0.00672611
0.00683289
0.00697896
0.00714564
0.00730012
0.0073214
0.00720742
0.0067417
0.00579648
0.00415425
0.0016356
-0.00198246
-0.0067432
-0.0125168
-0.0184473
-0.023677
-0.0272799
-0.0279632
-0.0264475
-0.0229544
-0.0184692
-0.0134965
-0.0086763
-0.00447671
-0.00119015
0.00121771
0.00296206
0.00411023
0.00484829
0.00532774
0.0056284
0.00580768
0.00590533
0.00594109
0.00590444
0.00620868
0.00621766
0.00621142
0.00618898
0.00615389
0.00610877
0.00604585
0.00594022
0.00574851
0.0053757
0.00473012
0.0036928
0.00224497
0.000371709
-0.00199614
-0.00482808
-0.00805578
-0.0112531
-0.0142679
-0.0168494
-0.0185964
-0.0189581
-0.0178315
-0.0156052
-0.0126468
-0.00928596
-0.00593645
-0.00294506
-0.000478134
0.00145684
0.00296313
0.00399563
0.00466832
0.00508773
0.00534618
0.00549575
0.00557811
0.00562113
0.00564172
0.0056505
0.00570505
0.00568895
0.00564584
0.00556887
0.00545189
0.00528155
0.0050273
0.00463929
0.00405114
0.00313882
0.00182522
-6.88351e-06
-0.0023002
-0.00496423
-0.00794543
-0.0109965
-0.013823
-0.0157408
-0.0163238
-0.0158865
-0.0149264
-0.0130894
-0.0106732
-0.00783493
-0.00496118
-0.00220171
0.000108149
0.0019145
0.00322812
0.0041718
0.00483905
0.00519532
0.00537671
0.0054671
0.00550113
0.00550869
0.00550341
0.00549404
0.00548884
0.00550586
0.0052174
0.00516133
0.00506695
0.00493453
0.00475015
0.00448157
0.00408009
0.00346709
0.00255712
0.00122083
-0.000599122
-0.00300964
-0.0060154
-0.0094812
-0.0131838
-0.0166528
-0.0193633
-0.0205464
-0.0196711
-0.0169612
-0.0139256
-0.0104001
-0.00714956
-0.0037685
-0.000571143
0.00204501
0.00390668
0.00510698
0.00578691
0.00606958
0.00609469
0.00599985
0.00586895
0.00574696
0.00564566
0.00557111
0.00552234
0.00548754
0.00546525
0.00544514
0.00480603
0.00474382
0.00464695
0.00450802
0.00430224
0.00399005
0.00351137