/*--------------------------------*- C++ -*----------------------------------*\
| =========                 |                                                 |
| \\      /  F ield         | OpenFOAM: The Open Source CFD Toolbox           |
|  \\    /   O peration     | Version:  v2106                                 |
|   \\  /    A nd           | Website:  www.openfoam.com                      |
|    \\/     M anipulation  |                                                 |
\*---------------------------------------------------------------------------*/
FoamFile
{
    version     2.0;
    format      ascii;
    arch        "LSB;label=32;scalar=64";
    class       volScalarField;
    location    "0";
    object      p;
}
// * * * * * * * * * * * * * * * * * * * * * * * * * * * * * * * * * * * * * //

dimensions      [0 2 -2 0 0 0 0];

internalField   nonuniform List<scalar> 
11644
(
0.0337228
0.0341621
0.0350974
0.0365539
0.038533
0.0410525
0.0441378
0.0478131
0.0520956
0.0569886
0.0624806
0.0685188
0.0750187
0.0818672
0.08887
0.0958387
0.1025
0.108547
0.113744
0.117873
0.120716
0.122169
0.122345
0.12149
0.119605
0.116814
0.113463
0.109772
0.105919
0.102099
0.0984329
0.0950105
0.0919014
0.0891464
0.086771
0.0847881
0.0832022
0.0820212
0.0812541
0.0808915
0.0329959
0.0334288
0.0343226
0.0357062
0.0376076
0.0400534
0.04307
0.046688
0.0509351
0.0558309
0.0613725
0.067537
0.0742709
0.0814108
0.0888321
0.0962653
0.103398
0.109931
0.115548
0.119929
0.122821
0.124186
0.124142
0.122926
0.120694
0.117619
0.113924
0.10991
0.10581
0.10178
0.0979561
0.0944315
0.0912583
0.0884715
0.0860884
0.0841151
0.0825557
0.0814061
0.080659
0.0802979
0.0312739
0.0317175
0.0325904
0.0339069
0.0357069
0.0380311
0.0409233
0.0444299
0.0486021
0.0534847
0.0591204
0.0655329
0.0726842
0.0805099
0.0887882
0.0972451
0.105537
0.113226
0.119725
0.12462
0.127724
0.129023
0.128512
0.126458
0.123249
0.119267
0.114811
0.110126
0.105473
0.101039
0.096927
0.0932106
0.0899256
0.087082
0.0846812
0.0827136
0.0811679
0.080026
0.079266
0.0788792
0.0286625
0.0290807
0.0299031
0.0311347
0.0328086
0.0349729
0.0376865
0.0410193
0.0450523
0.049884
0.0556145
0.0623268
0.0701013
0.0788433
0.088505
0.098667
0.108784
0.11843
0.126524
0.132509
0.136008
0.136912
0.135388
0.131927
0.127221
0.121735
0.115951
0.110237
0.10478
0.099748
0.0952391
0.0912707
0.0878421
0.0849339
0.0825123
0.0805473
0.0790063
0.0778607
0.077091
0.0766972
0.0252655
0.0256313
0.0263529
0.0274421
0.0289317
0.0308689
0.0333217
0.0363821
0.0401667
0.0448243
0.0505302
0.0575233
0.066
0.0761674
0.0878688
0.100598
0.113417
0.126137
0.136795
0.144469
0.148458
0.148473
0.145171
0.139266
0.13211
0.12441
0.116846
0.109733
0.103321
0.0976159
0.0926485
0.0884283
0.0848807
0.0819291
0.0795098
0.0775657
0.0760504
0.0749291
0.0741816
0.0738054
0.0212078
0.0214849
0.0220516
0.0229219
0.0241302
0.0257271
0.0277865
0.0304114
0.0337415
0.038002
0.0435293
0.0507064
0.059966
0.0713823
0.0855257
0.10206
0.11913
0.136478
0.151525
0.162323
0.167022
0.165142
0.158308
0.148164
0.137179
0.126216
0.116105
0.107524
0.100198
0.0940256
0.088789
0.0844195
0.0808393
0.0779314
0.075588
0.0737289
0.0722964
0.0712503
0.0705605
0.0702139
0.0165927
0.0167763
0.0171401
0.0177095
0.0185169
0.0196178
0.0210866
0.0230294
0.0256168
0.0291988
0.0342053
0.0411061
0.0502679
0.0630515
0.0799648
0.100741
0.118766
0.141254
0.16283
0.17967
0.187653
0.185667
0.175592
0.160961
0.141228
0.125701
0.112544
0.102305
0.0944154
0.0881579
0.0830915
0.0789215
0.0755165
0.0728113
0.070679
0.0690182
0.0677583
0.0668466
0.0662565
0.0659621
0.0116082
0.0116592
0.0117739
0.011961
0.0122518
0.0126859
0.0133317
0.0142895
0.0157813
0.0182009
0.0219007
0.0274019
0.0358383
0.0481402
0.0650665
0.0869442
0.11755
0.153492
0.189552
0.217986
0.229698
0.222197
0.200708
0.173959
0.148345
0.125546
0.10975
0.0928581
0.0849563
0.0792805
0.074962
0.0715299
0.0687116
0.0664726
0.0647538
0.0634437
0.0624703
0.0617835
0.0613364
0.0611212
0.00645139
0.0063625
0.00618722
0.0059222
0.00558661
0.00519498
0.00479581
0.00444894
0.00438396
0.00489828
0.00626371
0.00885432
0.0133596
0.027607
0.0421775
0.067058
0.101377
0.150977
0.211555
0.265726
0.290595
0.274789
0.232315
0.1859
0.145689
0.113868
0.0958394
0.0770027
0.0710734
0.0670939
0.0642201
0.062061
0.0603248
0.0589269
0.0578826
0.0571114
0.0565458
0.056149
0.0558936
0.0557598
0.00137874
0.00115815
0.000665547
-8.5626e-05
-0.00112356
-0.00245808
-0.00410026
-0.00604504
-0.00816846
-0.0104147
-0.012666
-0.0147637
-0.0167345
-0.00688979
9.37235e-05
0.0218634
0.0574458
0.119512
0.220297
0.342723
0.406606
0.358907
0.257686
0.174441
0.116499
0.0802235
0.0676065
0.0538841
0.0524486
0.0515933
0.0510723
0.0507726
0.0505638
0.0503602
0.0502338
0.0501732
0.0501442
0.0501201
0.050109
0.0500971
-0.00321139
-0.00362853
-0.00444763
-0.00571288
-0.00746605
-0.00976843
-0.012744
-0.0164656
-0.0209845
-0.026577
-0.0334684
-0.0419647
-0.0522634
-0.0534692
-0.0625044
-0.0632249
-0.0542443
-0.0257279
0.089424
0.366628
0.603181
0.408419
0.17368
0.0700998
0.0335537
0.0218187
0.0261836
0.0247738
0.02973
0.0334395
0.0362035
0.0383379
0.0399792
0.0411923
0.0421558
0.0429266
0.0435135
0.0439372
0.0441966
0.0443164
-0.00714171
-0.00768318
-0.00878631
-0.0105156
-0.0129263
-0.0161312
-0.0203417
-0.0257625
-0.032634
-0.0415303
-0.0531166
-0.0685321
-0.0888993
-0.0990906
-0.134699
-0.166465
-0.226585
-0.350514
-0.664728
-0.384147
-0.171397
-0.0887915
-0.048584
-0.0210839
-0.00665305
0.00572259
0.0145607
0.0210351
0.025817
0.0293836
0.0320606
0.0341455
0.0357671
0.0369613
0.037819
0.0383779
0.0386745
-0.0101118
-0.0107573
-0.0121033
-0.0141602
-0.0170653
-0.0209415
-0.0260287
-0.0326837
-0.0413112
-0.0526387
-0.0676168
-0.0878832
-0.114912
-0.137859
-0.189085
-0.2476
-0.351053
-0.551955
-0.795108
-0.457204
-0.318723
-0.177993
-0.102595
-0.059945
-0.0314214
-0.0141404
-0.00158325
0.00770555
0.0145796
0.0197614
0.0237106
0.0267623
0.0291116
0.0308466
0.0320963
0.0329423
0.0333375
-0.0118007
-0.012596
-0.0140652
-0.0163041
-0.0194286
-0.0236115
-0.0290364
-0.0361434
-0.0454805
-0.0577282
-0.0739104
-0.0955728
-0.12412
-0.153598
-0.207843
-0.272807
-0.371298
-0.509081
-0.570546
-0.383664
-0.309619
-0.191171
-0.116757
-0.0764853
-0.0440459
-0.0260032
-0.0124154
-0.00204118
0.00586618
0.0120164
0.0168317
0.0205647
0.0233985
0.0254962
0.0270068
0.0280073
0.0285795
-0.0124313
-0.0131087
-0.0145178
-0.0167042
-0.0197364
-0.0238003
-0.0289877
-0.0356925
-0.0445202
-0.0560595
-0.0710518
-0.0906076
-0.11592
-0.146141
-0.194773
-0.25809
-0.351765
-0.487628
-0.581462
-0.633999
-0.61101
-0.43086
-0.309008
-0.213898
-0.14284
-0.0971862
-0.0710472
-0.0443166
-0.0294494
-0.017303
-0.0074957
0.000331053
0.00667797
0.0118299
0.0159045
0.0189791
0.0212615
0.0228837
0.0239436
0.0245266
-0.012002
-0.0124517
-0.0136511
-0.0155165
-0.0181107
-0.0215566
-0.0258898
-0.0314323
-0.0385675
-0.0476516
-0.0591829
-0.0739474
-0.0926181
-0.119686
-0.157309
-0.212953
-0.298626
-0.451389
-0.698632
-0.846965
-0.800919
-0.443228
-0.126501
-0.0460027
-0.0724887
-0.0665963
-0.0556579
-0.0372301
-0.0268199
-0.0171863
-0.0089295
-0.00193447
0.00395624
0.0089498
0.0129351
0.0159746
0.0182979
0.0199595
0.0209702
0.0211894
-0.0100635
-0.0105122
-0.0114224
-0.012816
-0.0147245
-0.0171701
-0.0201733
-0.0237869
-0.0282932
-0.0338481
-0.040664
-0.0491645
-0.0600461
-0.0717725
-0.102542
-0.13377
-0.196357
-0.286456
-0.446137
-0.605121
-0.575881
-0.317801
-0.0690063
-0.0257794
-0.0559467
-0.0532919
-0.0405868
-0.0306606
-0.0223043
-0.0143055
-0.00743429
-0.0014102
0.00379447
0.0081946
0.0116833
0.0144314
0.0165188
0.0179564
0.0188151
0.0191749
-0.00687519
-0.00728115
-0.00782382
-0.00862421
-0.00966444
-0.010968
-0.0125488
-0.0141367
-0.0158539
-0.0177888
-0.0197992
-0.0219505
-0.0244846
-0.0264467
-0.0427622
-0.0511729
-0.0817042
-0.121779
-0.190035
-0.271134
-0.312165
-0.257366
-0.172035
-0.140435
-0.0978821
-0.0650127
-0.0395728
-0.027416
-0.018106
-0.0104392
-0.00421763
0.00107792
0.00547965
0.00907651
0.011936
0.0142083
0.0159167
0.0171286
0.0179478
0.0184257
-0.00299079
-0.00311784
-0.00331368
-0.00356837
-0.00383311
-0.00408259
-0.00429962
-0.00425353
-0.00379497
-0.00269488
-0.000673756
0.0023646
0.00705325
0.0115734
0.00911353
0.0141135
0.00164908
-0.0218861
-0.0997527
-0.234144
-0.351731
-0.380245
-0.331906
-0.238895
-0.12674
-0.0741427
-0.0384695
-0.0235883
-0.0131402
-0.00551862
0.000192491
0.00471155
0.00829296
0.0111417
0.0134016
0.0152017
0.016579
0.017606
0.0183232
0.0187269
0.0011739
0.00123745
0.0013124
0.001473
0.00178121
0.00232819
0.00321166
0.00454161
0.00662324
0.00977138
0.0144556
0.0206051
0.0307964
0.0390763
0.0424195
0.0541905
0.0473798
0.00806657
-0.0970746
-0.265969
-0.394544
-0.413093
-0.337394
-0.216466
-0.104395
-0.0603797
-0.0273412
-0.0138057
-0.00500044
0.00128795
0.00582657
0.00930426
0.0120321
0.0141937
0.015867
0.0171879
0.0182003
0.0189449
0.0194441
0.0197068
0.00507268
0.00523169
0.00552155
0.00597503
0.00666418
0.00770021
0.00920691
0.0113269
0.0143037
0.0184205
0.0240913
0.0313536
0.0422548
0.0519291
0.0572092
0.0668067
0.0536275
0.00306648
-0.0915167
-0.206364
-0.273728
-0.260698
-0.192753
-0.116976
-0.0564243
-0.0327328
-0.00780285
0.000733664
0.00634437
0.010116
0.012876
0.0149645
0.0166345
0.0179557
0.0189584
0.0197395
0.0203275
0.0207397
0.0210014
0.0211452
0.00854964
0.00875618
0.0091575
0.00976539
0.0106364
0.0118419
0.013474
0.0156749
0.018592
0.0224097
0.0272554
0.0330329
0.0402848
0.0494013
0.0425798
0.0391716
0.0235539
-0.0222689
-0.0786549
-0.112558
-0.119013
-0.0987027
-0.0672544
-0.0422032
-0.0231139
0.00216268
0.0102748
0.0153465
0.0182859
0.0197328
0.020608
0.0211467
0.0215395
0.0218629
0.0221488
0.0224039
0.0226032
0.0227373
0.0228001
0.0228134
0.0116901
0.011887
0.0122924
0.0129124
0.0137628
0.0148832
0.0162988
0.0180613
0.0202228
0.0228418
0.0257586
0.0289684
0.0306626
0.0330363
0.0223612
-0.0182061
-0.0614011
-0.107775
-0.136853
-0.135545
-0.114685
-0.080697
-0.0425875
-0.015256
0.00458473
0.0176785
0.023678
0.027356
0.0283597
0.0281152
0.0274625
0.0266703
0.0259329
0.0253665
0.0250056
0.0247851
0.0246515
0.0245791
0.0245252
0.0244482
0.0145484
0.0147242
0.0150698
0.0155972
0.016306
0.0172055
0.0182749
0.0194934
0.0207661
0.0218993
0.0224275
0.0220045
0.0176401
0.00863742
-0.0146154
-0.0633206
-0.114964
-0.173137
-0.220836
-0.224977
-0.179099
-0.120961
-0.0619228
-0.0182708
0.0117189
0.0274157
0.0337535
0.036011
0.0356726
0.0342258
0.0324764
0.0307628
0.0293198
0.0281698
0.0273446
0.0267257
0.026293
0.0260204
0.0258668
0.02581
0.0170957
0.017229
0.017517
0.0179543
0.0185364
0.0192357
0.0199983
0.0207802
0.0213531
0.0213835
0.0201257
0.0168852
0.00878484
-0.00718192
-0.0375429
-0.0839256
-0.144689
-0.211484
-0.266924
-0.271251
-0.213401
-0.147245
-0.0799523
-0.0269343
0.00935623
0.0311659
0.0409978
0.0428068
0.0408411
0.0383172
0.0357172
0.0334392
0.0316372
0.0302073
0.0290993
0.0282443
0.0276283
0.0272141
0.0269757
0.0269607
0.0192823
0.0193828
0.0196636
0.0200784
0.0206114
0.0212152
0.021815
0.022347
0.0225871
0.02226
0.0206112
0.0168915
0.00924731
-0.00486574
-0.03264
-0.0736955
-0.124246
-0.176091
-0.21981
-0.226691
-0.18559
-0.133488
-0.0761984
-0.028023
0.00714463
0.0297149
0.042216
0.0456682
0.0436397
0.0404377
0.0374558
0.0349807
0.0330251
0.0314929
0.0302854
0.0293785
0.0287228
0.0282877
0.028029
0.0279445
0.0211364
0.0212922
0.0215989
0.0220249
0.022547
0.0231364
0.0237229
0.0242114
0.0245377
0.0244536
0.023622
0.0212848
0.0166422
0.00774768
-0.00895821
-0.0369651
-0.0694439
-0.103886
-0.132459
-0.143276
-0.131435
-0.106075
-0.0671739
-0.0287915
0.00228987
0.0236709
0.0364811
0.0420851
0.041968
0.0397192
0.0372947
0.035172
0.0333853
0.0319415
0.0308075
0.0299659
0.0293589
0.0289473
0.0286918
0.0285358
0.0226999
0.0229385
0.0232493
0.0236719
0.0241962
0.0248136
0.0254896
0.0261727
0.0268101
0.0272888
0.0274109
0.0265334
0.0242724
0.0194135
0.0102451
-0.00611656
-0.0289706
-0.054551
-0.0753067
-0.0901821
-0.0960418
-0.0881591
-0.0656808
-0.0371547
-0.0112047
0.0099924
0.0248901
0.0330739
0.0357393
0.0356966
0.0348017
0.0336345
0.0324668
0.0314228
0.0305738
0.0299038
0.02939
0.0290147
0.0287699
0.0286473
0.0239211
0.0241232
0.024426
0.0248553
0.0254199
0.0261255
0.0269646
0.0279325
0.0289601
0.0299502
0.0305847
0.0304474
0.028944
0.0250324
0.0178787
0.00523969
-0.0166958
-0.0422777
-0.0692864
-0.0908823
-0.0973974
-0.0966125
-0.0812459
-0.0580809
-0.0325481
-0.00976213
0.00856317
0.020958
0.0271683
0.0297049
0.0307423
0.0308562
0.0306091
0.0302181
0.0298091
0.0294092
0.0290659
0.0287912
0.0286057
0.0285224
0.0248338
0.0248864
0.0251813
0.0256427
0.0262761
0.0270702
0.0280365
0.0292078
0.0304975
0.0317559
0.0326139
0.033213
0.0315661
0.0269869
0.0177365
0.00301728
-0.021107
-0.0504957
-0.0874818
-0.11743
-0.13158
-0.13085
-0.11481
-0.0920783
-0.0608059
-0.0323373
-0.00796432
0.00939429
0.0192477
0.0242005
0.0268319
0.0280879
0.028706
0.0288899
0.0289155
0.0288194
0.0286853
0.0285518
0.0284414
0.0283502
0.0255724
0.0256003
0.0258405
0.0262636
0.0268816
0.0276783
0.0286546
0.0298448
0.0311973
0.0326825
0.0339351
0.034785
0.0330625
0.0273476
0.0158842
-0.00207193
-0.0279874
-0.0601949
-0.102255
-0.139079
-0.165626
-0.164389
-0.143917
-0.116577
-0.0790697
-0.0446483
-0.0165763
0.00217019
0.0140256
0.0206385
0.0242025
0.0261786
0.0273198
0.0278812
0.0281539
0.0282552
0.0282629
0.0282229
0.0281673
0.0280839
0.0260469
0.026162
0.0263842
0.0267461
0.0272734
0.0279753
0.0288439
0.0299204
0.0311364
0.0325959
0.0338836
0.0345496
0.0323153
0.0256319
0.0134893
-0.0052465
-0.0304187
-0.061173
-0.100078
-0.132136
-0.161674
-0.157472
-0.134097
-0.105987
-0.070065
-0.0400298
-0.0153108
0.00197172
0.0131268
0.0195471
0.0233334
0.0254405
0.0266684
0.0272734
0.0276208
0.0277757
0.0278339
0.0278298
0.0278121
0.0277861
0.0260488
0.0262131
0.0264338
0.0267549
0.0271974
0.0277828
0.0285095
0.0293957
0.0303778
0.0314921
0.0322754
0.0319684
0.0288678
0.0215606
0.00924134
-0.00851803
-0.0313133
-0.0577547
-0.0852183
-0.104794
-0.117279
-0.110972
-0.0929065
-0.0699095
-0.0444259
-0.0228435
-0.00440883
0.0083045
0.0163579
0.0210731
0.0239731
0.025629
0.026608
0.0271377
0.0274411
0.0275703
0.0276168
0.0276132
0.0276044
0.0276005
0.0256743
0.0257644
0.0259385
0.0262019
0.026549
0.0269882
0.0275078
0.0281
0.0286474
0.0290171
0.0287692
0.0269322
0.0224475
0.014046
0.0016494
-0.0141572
-0.0332151
-0.0539685
-0.0711735
-0.077778
-0.0753645
-0.0674375
-0.0539721
-0.0358495
-0.0186175
-0.0036948
0.00840021
0.0163461
0.0210978
0.0238491
0.0254971
0.0264476
0.0270132
0.0273439
0.0275189
0.0275835
0.0275953
0.0275764
0.0275475
0.0275104
0.0251896
0.0251953
0.0252876
0.0254456
0.0256465
0.0258659
0.0260514
0.0261595
0.0260021
0.0252944
0.0237222
0.0199872
0.0133092
0.00339051
-0.00979246
-0.0248395
-0.040455
-0.0559518
-0.0669743
-0.0678841
-0.0622648
-0.0511981
-0.0365932
-0.0194126
-0.00367196
0.00873116
0.0177347
0.022804
0.025359
0.0266293
0.0272952
0.0275264
0.0276196
0.0276276
0.0275982
0.027543
0.0274916
0.0274422
0.0273947
0.0273442
0.0247209
0.0247247
0.0247598
0.024806
0.0248235
0.0247767
0.024581
0.0241457
0.0232667
0.0215522
0.018413
0.0126163
0.00295305
-0.00980627
-0.0259279
-0.0432446
-0.0588529
-0.071923
-0.0811125
-0.080832
-0.074294
-0.0577418
-0.0360588
-0.0162555
0.00131467
0.0138703
0.0220567
0.0262656
0.0281952
0.0288201
0.0287973
0.0284926
0.0281368
0.0278052
0.0275421
0.0273333
0.027177
0.0270729
0.0270119
0.0270209
0.0242336
0.0242888
0.024293
0.0242563
0.0241324
0.0238993
0.0234284
0.0226008
0.0211811
0.018736
0.0145256
0.00744626
-0.00412424
-0.0202992
-0.040746
-0.0619453
-0.0815158
-0.0955517
-0.105882
-0.106171
-0.0917462
-0.0681673
-0.0408742
-0.0182424
0.000552328
0.0138561
0.0227977
0.0275158
0.0297009
0.0301185
0.029517
0.0289125
0.0282517
0.0277318
0.027327
0.0270142
0.026792
0.026666
0.0266191
0.0266699
0.023691
0.0237521
0.0237411
0.0236711
0.0234908
0.0232069
0.0226609
0.0217501
0.0201785
0.0176085
0.0131738
0.00587674
-0.00547859
-0.0212132
-0.0418304
-0.0642934
-0.087631
-0.103708
-0.116988
-0.117662
-0.0958246
-0.0708432
-0.0428098
-0.0201638
-0.0013197
0.0120379
0.0213682
0.0266825
0.0293374
0.0299481
0.0291828
0.0285501
0.0278726
0.027364
0.0269657
0.0266656
0.0264568
0.0263333
0.0262732
0.0262756
0.0232198
0.0232314
0.0232077
0.0231525
0.0230111
0.02276
0.0223044
0.0215382
0.0202008
0.0180555
0.0143871
0.00846164
-0.000846198
-0.0134406
-0.0293573
-0.047837
-0.0675692
-0.0828769
-0.09649
-0.0994964
-0.0833613
-0.0651546
-0.0419716
-0.0220518
-0.00481221
0.00841055
0.0178316
0.023825
0.0270384
0.0280929
0.0279096
0.0274652
0.0269747
0.0266132
0.026312
0.0260869
0.0259275
0.0258181
0.0257396
0.0256671
0.0229371
0.0229306
0.0229241
0.0229016
0.0228191
0.0226598
0.022359
0.0218395
0.020977
0.0195599
0.0171548
0.0133027
0.00708796
-0.00148482
-0.0123766
-0.0254744
-0.0397435
-0.0527457
-0.0627235
-0.0669556
-0.0642781
-0.0558103
-0.0406724
-0.0243954
-0.00950522
0.00275609
0.0123479
0.0189657
0.0229776
0.0248867
0.0255662
0.0256235
0.0255003
0.0253434
0.0251893
0.025067
0.024978
0.0249136
0.0248616
0.0248017
0.0227652
0.022785
0.0228028
0.0228083
0.0227865
0.0227329
0.0226045
0.0223865
0.0220188
0.0213854
0.0202127
0.0181797
0.0145318
0.0087397
0.000635366
-0.00937796
-0.0207047
-0.0323967
-0.0416311
-0.0479349
-0.0506563
-0.0484867
-0.0393892
-0.0271617
-0.0151384
-0.00438296
0.00484187
0.0120848
0.0172582
0.0204983
0.0222925
0.0231138
0.0235389
0.0237119
0.023772
0.0237902
0.0237889
0.0237891
0.0238018
0.0238379
0.0225042
0.0225257
0.0225564
0.0225968
0.0226494
0.0227239
0.0228093
0.0229005
0.0229802
0.0230046
0.0227559
0.0218819
0.0198134
0.0156629
0.00816354
-0.00170807
-0.0138318
-0.0267735
-0.0395102
-0.0486258
-0.0508295
-0.0514799
-0.0454117
-0.0360353
-0.0255807
-0.0151209
-0.00489396
0.00378521
0.010674
0.0156613
0.0187012
0.0204573
0.0214984
0.0220907
0.0224315
0.0226285
0.0227403
0.0228087
0.0228652
0.0229412
0.0221343
0.0220923
0.0221235
0.0222023
0.0223405
0.0225382
0.0228088
0.023158
0.0236346
0.0240673
0.0244297
0.0240867
0.0224034
0.0189854
0.0118422
0.00160138
-0.0121256
-0.0274488
-0.0443126
-0.0580367
-0.0657592
-0.0665694
-0.0609776
-0.0525372
-0.041221
-0.0289166
-0.0159514
-0.00443575
0.00482853
0.0115804
0.0157466
0.018278
0.0198006
0.0207506
0.0213467
0.0217279
0.0219566
0.0220847
0.0221522
0.0221736
0.0217426
0.0216911
0.0217169
0.0218051
0.0219704
0.0222138
0.0225604
0.0230183
0.0236064
0.0241479
0.0248515
0.0244415
0.0226226
0.0193789
0.0126752
0.00275202
-0.010883
-0.0270634
-0.046577
-0.0642813
-0.0799706
-0.0818029
-0.0745849
-0.0652085
-0.0515846
-0.0365702
-0.0211635
-0.00782497
0.00238438
0.00951859
0.0141165
0.0169668
0.0186661
0.0197912
0.0205292
0.0209946
0.0212855
0.0214322
0.0215009
0.0214549
0.0212657
0.0212797
0.0213261
0.0214086
0.0215439
0.0217384
0.0220145
0.0223764
0.0228509
0.0232941
0.0235176
0.0228125
0.020636
0.0167525
0.0102451
0.000747167
-0.0117537
-0.0265511
-0.0448274
-0.0606277
-0.0771654
-0.0774799
-0.0689084
-0.0593257
-0.0451487
-0.0307947
-0.0165364
-0.00513828
0.00366114
0.00989592
0.0140616
0.0166385
0.0182596
0.0192828
0.0199361
0.0203362
0.0205913
0.0207267
0.0207897
0.0207671
0.0205861
0.0206485
0.0206909
0.0207363
0.0208005
0.0208932
0.021021
0.021182
0.0213584
0.0213813
0.0208988
0.0195271
0.016635
0.0118549
0.0049388
-0.00414504
-0.0155149
-0.027917
-0.0408993
-0.0502709
-0.0566772
-0.0549322
-0.0479993
-0.0391176
-0.0274515
-0.0165391
-0.00651889
0.00148763
0.00794625
0.012492
0.0154458
0.0173124
0.0184664
0.0191823
0.0196309
0.019905
0.0200726
0.0201629
0.0202139
0.0202373
0.0197403
0.0197433
0.0197331
0.019716
0.0196935
0.0196608
0.0196045
0.019463
0.0191875
0.0185883
0.0172369
0.0148963
0.0111985
0.0059097
-0.00112995
-0.00952003
-0.0190384
-0.0286083
-0.0363362
-0.0397316
-0.0388936
-0.0345268
-0.0282381
-0.0199996
-0.0111628
-0.00321441
0.00356429
0.0088422
0.0130131
0.0157257
0.0174195
0.0184132
0.0190299
0.0194008
0.0196339
0.0197729
0.0198586
0.0198965
0.019911
0.019928
0.0188814
0.0188011
0.0187319
0.0186528
0.0185475
0.018379
0.0181083
0.0176136
0.0167942
0.015427
0.0131565
0.00966186
0.00494254
-0.000945918
-0.00810608
-0.0159082
-0.0239407
-0.0312495
-0.0355294
-0.0353633
-0.0336243
-0.0277968
-0.0198436
-0.010947
-0.00219733
0.00500747
0.0107946
0.0147738
0.0173872
0.0186316
0.0192247
0.0194752
0.0195907
0.0196523
0.0196853
0.019699
0.0197076
0.0197073
0.0196959
0.0196747
0.018147
0.0180709
0.0179874
0.0178674
0.0176717
0.017351
0.0168468
0.0160321
0.0146868
0.0124968
0.00901077
0.00404715
-0.0024469
-0.0102094
-0.0187335
-0.0271137
-0.0348697
-0.0408503
-0.0439414
-0.0418036
-0.0377222
-0.0293428
-0.0184638
-0.00752035
0.00258854
0.0101907
0.0157364
0.0188195
0.0203809
0.0207266
0.0205376
0.0202363
0.0199474
0.0197282
0.0195657
0.0194475
0.0193712
0.0193278
0.0193021
0.0192987
0.017548
0.0175535
0.0174785
0.0173294
0.0170579
0.0166242
0.0159389
0.0149006
0.013203
0.0105485
0.00626546
7.34333e-05
-0.00825034
-0.0183102
-0.0291642
-0.039311
-0.0482842
-0.0543462
-0.0576645
-0.0540741
-0.0432516
-0.0308317
-0.016933
-0.00436382
0.0059334
0.0133738
0.0183036
0.0205505
0.0216975
0.0217274
0.0210853
0.020494
0.0199631
0.0195434
0.0192409
0.0190313
0.0188932
0.0188235
0.0188061
0.0188548
0.016972
0.0170267
0.0169716
0.0168292
0.0165551
0.0161143
0.0154244
0.0143661
0.0126752
0.0100258
0.00584424
-0.000220186
-0.00843312
-0.0189393
-0.0305089
-0.0416004
-0.05203
-0.0584585
-0.0618627
-0.0582095
-0.0442651
-0.0300162
-0.0154385
-0.0032045
0.00637361
0.0131869
0.0176018
0.0197943
0.0209795
0.0211319
0.0206186
0.020083
0.0195243
0.0191074
0.0188005
0.018596
0.0184599
0.0183898
0.0183658
0.0183947
0.0164665
0.0164767
0.0164274
0.0163289
0.0161316
0.0158061
0.0152771
0.0144359
0.0131186
0.0109917
0.00774553
0.0029271
-0.00336711
-0.0113139
-0.020765
-0.0302569
-0.0396384
-0.0460423
-0.049947
-0.0486325
-0.0394779
-0.028423
-0.0166871
-0.00651218
0.00204571
0.00871674
0.0134793
0.0164556
0.0182567
0.0190175
0.019071
0.0188841
0.0185639
0.0183193
0.0181445
0.0180258
0.0179469
0.0178961
0.0178588
0.0178246
0.0161412
0.016117
0.0160921
0.0160453
0.0159521
0.0157837
0.0154938
0.0150091
0.014214
0.0128998
0.0108431
0.00779047
0.00369553
-0.00138938
-0.00776684
-0.014696
-0.021755
-0.0275624
-0.0318502
-0.0336382
-0.0317864
-0.0264079
-0.0192276
-0.0115129
-0.00401788
0.00243762
0.00770776
0.0115757
0.0141706
0.0157388
0.0165656
0.0169275
0.0170235
0.0170661
0.0170829
0.0170951
0.0171083
0.0171175
0.0171102
0.0170714
0.0159694
0.0159696
0.0159814
0.0159846
0.0159737
0.0159408
0.0158608
0.015714
0.0154402
0.0149324
0.0139189
0.0122637
0.00966388
0.00625528
0.00164633
-0.00389054
-0.0100391
-0.015835
-0.0211234
-0.0250383
-0.0257738
-0.0247738
-0.0212343
-0.0155652
-0.00917001
-0.00322156
0.00210052
0.00637948
0.00960317
0.0119925
0.0136461
0.0146254
0.0151998
0.0155791
0.0157959
0.0159397
0.0160409
0.0161201
0.0161778
0.0162219
0.0157621
0.0157942
0.015826
0.015862
0.0159148
0.0159956
0.0160957
0.0162201
0.0163637
0.0164728
0.0163903
0.0158381
0.0141775
0.0114933
0.00735258
0.00192339
-0.00482928
-0.0118918
-0.0184919
-0.0237752
-0.026339
-0.0282948
-0.0267811
-0.0224152
-0.0167902
-0.0107738
-0.00490302
0.000359166
0.00478249
0.00822694
0.0107876
0.0124915
0.0135776
0.0142577
0.0146728
0.0149437
0.0151176
0.0152407
0.0153372
0.0154347
0.0154194
0.0154131
0.0154478
0.0155168
0.0156347
0.0158126
0.0160712
0.0164095
0.0168613
0.0173769
0.0179802
0.0181684
0.0173108
0.0154943
0.0119283
0.00659725
-0.000549318
-0.00950422
-0.0187034
-0.0266363
-0.0332501
-0.0374968
-0.0369335
-0.0330381
-0.0273586
-0.020463
-0.0130854
-0.00607181
0.000107867
0.00492872
0.00846288
0.0108595
0.0123561
0.0132928
0.0138872
0.0142741
0.014521
0.0146708
0.0147616
0.0148147
0.0150281
0.0149858
0.0150064
0.0150786
0.0152241
0.0154444
0.0157789
0.0162112
0.0168056
0.017437
0.0182478
0.0186546
0.018264
0.017203
0.0144879
0.00979502
0.00302081
-0.00640946
-0.0174287
-0.0283913
-0.0384168
-0.0449701
-0.0449682
-0.0402798
-0.0341149
-0.0260418
-0.0174771
-0.00912323
-0.00193211
0.00346526
0.00737344
0.010011
0.0116185
0.0126817
0.013378
0.013825
0.0141022
0.0142532
0.0143216
0.0142861
0.0146011
0.0145915
0.0146192
0.0146823
0.0147969
0.0149726
0.015241
0.0155887
0.0160796
0.0164916
0.0168933
0.0169249
0.0162836
0.0150005
0.0123588
0.00804814
0.0019994
-0.00623606
-0.0164845
-0.0270812
-0.0355738
-0.041525
-0.0405419
-0.0352283
-0.0293487
-0.0216913
-0.0137739
-0.00629752
-0.000201976
0.00435885
0.00774639
0.0100312
0.0114899
0.0124409
0.0130412
0.0134241
0.0136563
0.0137816
0.0138291
0.0137865
0.0140496
0.0140857
0.0141103
0.0141348
0.0141724
0.01423
0.0143249
0.0144498
0.0145864
0.0145525
0.0142785
0.0134777
0.0119792
0.00970763
0.00640121
0.00197808
-0.00349673
-0.00978663
-0.0164499
-0.0230554
-0.0268081
-0.028206
-0.0259861
-0.0217257
-0.0165827
-0.0107257
-0.00505544
-1.78744e-05
0.00396922
0.00715053
0.00947137
0.0109626
0.0119394
0.0125561
0.012921
0.0131493
0.013286
0.0133564
0.0133915
0.0133968
0.0133486
0.0133576
0.013334
0.0132878
0.0132291
0.0131498
0.0130327
0.0128414
0.0125348
0.0119627
0.0109233
0.00937384
0.00714806
0.00413846
0.000378439
-0.00399926
-0.00880398
-0.0133822
-0.0166428
-0.0186602
-0.0191425
-0.0168311
-0.0134795
-0.00949127
-0.00506932
-0.000703116
0.00306769
0.00615659
0.00850605
0.0103379
0.0115522
0.0122621
0.0127154
0.0129411
0.0130627
0.0131344
0.0131626
0.0131662
0.0131635
0.0131797
0.0126078
0.0125393
0.0124588
0.0123561
0.0122214
0.0120261
0.0117244
0.0112457
0.0104923
0.00935416
0.00766952
0.00540811
0.00246565
-0.00121879
-0.0054661
-0.00990097
-0.0142098
-0.0175041
-0.0184979
-0.0173346
-0.0157213
-0.01215
-0.00800842
-0.00334441
0.00122779
0.00529716
0.00838186
0.0105673
0.0120694
0.0129472
0.0132923
0.0133796
0.0133609
0.0132931
0.0132304
0.0131748
0.0131261
0.0130828
0.01305
0.0130291
0.0119789
0.0118911
0.0117929
0.0116615
0.0114687
0.0111755
0.0107157
0.00998076
0.00880933
0.00701176
0.00449687
0.00112988
-0.00314738
-0.0080921
-0.0132812
-0.0182562
-0.0222088
-0.0247063
-0.0244813
-0.0208223
-0.0164398
-0.0112668
-0.00532405
0.000798272
0.00590382
0.00987408
0.0125576
0.014104
0.0148371
0.0147899
0.0144271
0.0140368
0.013669
0.0133892
0.0131815
0.0130259
0.0129163
0.0128496
0.0128088
0.0127802
0.0115015
0.0114799
0.0113981
0.0112546
0.0110141
0.0106398
0.0100762
0.00917109
0.00773124
0.00544563
0.00220406
-0.00222248
-0.00787104
-0.0142404
-0.0206827
-0.0265767
-0.0307448
-0.0332939
-0.0320973
-0.0258595
-0.0181951
-0.0102281
-0.00206181
0.00519314
0.0103164
0.0138073
0.0157151
0.0164422
0.0163676
0.0156339
0.0148957
0.0141944
0.0136215
0.0131999
0.0128831
0.0126574
0.0125063
0.0124237
0.012388
0.0124059
0.0110681
0.0111024
0.0110566
0.010938
0.0107064
0.0103287
0.00973619
0.00882699
0.00741516
0.0051567
0.00195278
-0.00251398
-0.00829604
-0.0149681
-0.0216376
-0.0278011
-0.0319824
-0.0346168
-0.0333282
-0.0266963
-0.0184289
-0.00925994
-0.000496129
0.00665516
0.011266
0.0142493
0.0156183
0.0160166
0.0157774
0.0151092
0.0144475
0.0137622
0.013196
0.0127632
0.0124393
0.0122165
0.0120729
0.0119985
0.0119732
0.0120123
0.0106861
0.0107116
0.0106778
0.0105917
0.0104262
0.0101538
0.00971016
0.00900386
0.00790643
0.00621176
0.00373073
0.000453327
-0.00377506
-0.00885663
-0.0141165
-0.0192245
-0.0230135
-0.0255055
-0.025809
-0.021704
-0.0163166
-0.00967363
-0.00303509
0.00253034
0.00664161
0.00966896
0.0114765
0.0125331
0.0130264
0.0131083
0.0129554
0.0126569
0.0123323
0.0120643
0.0118648
0.011736
0.0116505
0.0116014
0.0115725
0.0115645
0.0104337
0.010427
0.0104103
0.0103794
0.0103177
0.0102001
0.00999398
0.00964055
0.00902569
0.00811445
0.00669883
0.00482409
0.00243158
-0.000638024
-0.00402237
-0.00765749
-0.0107516
-0.0135199
-0.0152737
-0.0149499
-0.0132427
-0.0103632
-0.00697838
-0.00326281
0.000198502
0.00328412
0.00576992
0.0077133
0.00914005
0.0101097
0.0106436
0.0108841
0.0109632
0.0109851
0.010994
0.0110054
0.0110135
0.0110177
0.0110101
0.0109782
0.0102913
0.0102971
0.0103198
0.0103518
0.010382
0.0104102
0.0104196
0.010395
0.0102742
0.00999608
0.00943471
0.00851571
0.00724549
0.00537583
0.00302119
1.14383e-05
-0.0030004
-0.00607445
-0.00855987
-0.0103474
-0.0111296
-0.0113546
-0.0104022
-0.0080099
-0.0051126
-0.00196615
0.00094127
0.00343366
0.00544478
0.00698214
0.00811114
0.00887748
0.00936317
0.00968606
0.00989851
0.0100406
0.0101387
0.0102088
0.010255
0.010275
0.0101427
0.0101829
0.010232
0.0102988
0.0103847
0.0105037
0.0106601
0.0108685
0.0111005
0.0113121
0.0114122
0.0112178
0.0105991
0.00936016
0.00747071
0.00467898
0.00137886
-0.00225995
-0.00552153
-0.00884392
-0.0118771
-0.0146492
-0.0153463
-0.014001
-0.0114682
-0.00805242
-0.00448372
-0.00107361
0.00182264
0.00409035
0.0058524
0.00711713
0.00797552
0.00854544
0.00891537
0.0091578
0.00932028
0.00943789
0.00952957
0.00960693
0.00986754
0.00989483
0.0099442
0.0100264
0.0101527
0.0103359
0.0105931
0.0109509
0.0114225
0.0120183
0.0126438
0.0132474
0.0134468
0.0129775
0.0117244
0.00937269
0.00585627
0.00104112
-0.0041086
-0.00956536
-0.0150919
-0.0199407
-0.0220211
-0.021597
-0.0190278
-0.0150949
-0.010591
-0.00597362
-0.00183574
0.00151056
0.00399306
0.00578851
0.00700392
0.00776697
0.00825535
0.00857617
0.00878886
0.00892925
0.00902637
0.00908301
0.00948321
0.00945911
0.00949516
0.00957662
0.00972053
0.00993598
0.0102487
0.0106717
0.0112489
0.0120205
0.0128852
0.0139449
0.0147624
0.0149901
0.0144084
0.0126283
0.00946021
0.00415307
-0.00254339
-0.00983157
-0.0169289
-0.0232608
-0.0262578
-0.02628
-0.0233078
-0.0191389
-0.0140048
-0.00867203
-0.00376444
0.000216592
0.00307603
0.00513622
0.00648602
0.00734061
0.00788695
0.00823938
0.00846252
0.00858466
0.00864134
0.00863919
0.00908207
0.00905797
0.00908005
0.00913882
0.00925448
0.00943418
0.00969788
0.0100645
0.0105273
0.011131
0.0117531
0.0124714
0.0130563
0.0131988
0.0126242
0.0110626
0.00824053
0.00362616
-0.00244222
-0.00894243
-0.0150203
-0.0203269
-0.0224186
-0.0220332
-0.0194057
-0.0157656
-0.0113224
-0.00670149
-0.00246804
0.000924215
0.00336905
0.00519274
0.00640207
0.00715279
0.00764121
0.0079558
0.00814712
0.00824843
0.00828627
0.00825782
0.00862615
0.00863827