/*--------------------------------*- C++ -*----------------------------------*\
| =========                 |                                                 |
| \\      /  F ield         | OpenFOAM: The Open Source CFD Toolbox           |
|  \\    /   O peration     | Version:  v2106                                 |
|   \\  /    A nd           | Website:  www.openfoam.com                      |
|    \\/     M anipulation  |                                                 |
\*---------------------------------------------------------------------------*/
FoamFile
{
    version     2.0;
    format      ascii;
    arch        "LSB;label=32;scalar=64";
    class       volScalarField;
    location    "0";
    object      p;
}
// * * * * * * * * * * * * * * * * * * * * * * * * * * * * * * * * * * * * * //

dimensions      [0 2 -2 0 0 0 0];

internalField   nonuniform List<scalar> 
11644
(
-0.0116217
-0.0112193
-0.0103913
-0.00915777
-0.00737264
-0.00507029
-0.00210827
0.00157033
0.00565524
0.0097058
0.0133311
0.0163086
0.0185591
0.0192514
0.018497
0.0164567
0.0138454
0.0138336
0.0171623
0.00935741
0.0130923
0.0262092
0.0269703
0.0311342
0.0373506
0.0426993
0.0462321
0.0479144
0.0479656
0.0468879
0.0450001
0.0425137
0.039801
0.0372754
0.0351678
0.0333769
0.0318914
0.0307546
0.0299296
0.0295132
-0.0135032
-0.0131543
-0.0122551
-0.0107961
-0.00881781
-0.00638949
-0.00351507
-0.000254045
0.00338921
0.00725307
0.0111964
0.0147721
0.0174006
0.0194485
0.0200252
0.0189328
0.0174648
0.0157203
0.0192853
0.0187322
0.0214951
0.0265662
0.0284351
0.0354066
0.0405372
0.0438414
0.0460337
0.0468397
0.0460267
0.0444254
0.0423674
0.0401471
0.0379151
0.0357326
0.0336156
0.0317047
0.0301071
0.0288143
0.0280005
0.0277443
-0.0136281
-0.0136287
-0.0131783
-0.0121082
-0.0105735
-0.00860606
-0.00632351
-0.00383514
-0.00113209
0.00191647
0.00528847
0.00884901
0.0125609
0.0154448
0.0177599
0.0188921
0.0195778
0.0185415
0.0250553
0.0219418
0.0235209
0.0292407
0.0268586
0.034373
0.0389721
0.0419477
0.042233
0.0419861
0.0412028
0.0397251
0.0379846
0.0361936
0.0344083
0.0326643
0.0309483
0.0295051
0.0283467
0.0275504
0.0272143
0.0273033
-0.01299
-0.0130345
-0.0128599
-0.0125028
-0.0118671
-0.0109069
-0.00972461
-0.00834696
-0.00671915
-0.00472166
-0.0020537
0.00188728
0.00602588
0.0120525
0.0178398
0.0208686
0.022599
0.0251183
0.0296108
0.0240825
0.0257686
0.026404
0.0286426
0.0313622
0.0338722
0.0354741
0.0362503
0.0353077
0.034329
0.0333913
0.0323186
0.0311065
0.029971
0.0289739
0.0281436
0.0275184
0.0270986
0.0269294
0.0268999
0.026893
-0.0127502
-0.0124932
-0.0122835
-0.012258
-0.0123309
-0.012354
-0.0122536
-0.0119621
-0.0113767
-0.0102145
-0.00804546
-0.0047799
0.000458625
0.00603962
0.0133314
0.019558
0.018637
0.0263818
0.030731
0.0445531
0.0448655
0.0259601
0.0255836
0.0224743
0.0248201
0.0244142
0.023959
0.0250079
0.0254874
0.0258138
0.0260876
0.0260082
0.0258891
0.0258537
0.0259428
0.0260611
0.0262448
0.0263547
0.0263861
0.0263907
-0.0119529
-0.0118387
-0.0116688
-0.0114923
-0.0115945
-0.0118774
-0.0123009
-0.0127285
-0.0128642
-0.0126293
-0.0119114
-0.0100787
-0.00789522
-0.000310793
0.0120992
0.0242102
0.0285943
0.0420278
0.0483333
0.051457
0.0455774
0.0374028
0.0262724
0.0123682
0.00706791
0.0078941
0.00940118
0.0114948
0.0160815
0.0190696
0.0209256
0.0222589
0.0232835
0.0240372
0.0247283
0.0254026
0.0260476
0.0265388
0.0267342
0.0267046
-0.00982987
-0.00981026
-0.00945846
-0.00937508
-0.00913311
-0.00904296
-0.00916691
-0.00954381
-0.00999279
-0.0100696
-0.00904462
-0.00656057
-0.00372921
-0.00980387
-0.00159763
0.0178487
0.0442553
0.0351749
0.0332549
0.0336864
0.030129
0.0181322
0.00488458
-0.00616776
-0.0294523
-0.0281746
-0.0207564
-0.00247176
0.00893672
0.0152158
0.0190412
0.0214054
0.0233636
0.0248228
0.0259574
0.0269015
0.0274661
0.0278497
0.0278553
0.0278241
-0.00784065
-0.00691558
-0.00622159
-0.00510603
-0.00399143
-0.0029611
-0.00202629
-0.00131418
-0.000838868
0.000909072
0.00570641
0.0123104
0.0179704
0.0177024
0.0256061
0.0169665
0.0315758
0.0419902
0.0325163
0.0186748
0.00154705
-0.015759
-0.0278656
-0.0267029
-0.0294035
-0.0417014
-0.0159022
-0.00313766
0.00959188
0.0174643
0.0229836
0.02587
0.0276272
0.0290104
0.0298494
0.0303827
0.0307154
0.0307594
0.0309365
0.0309492
-0.00335608
-0.00333369
-0.00248346
-0.000595988
0.00159814
0.00450803
0.00777778
0.0114155
0.0157096
0.0231327
0.0341385
0.0474212
0.0646399
0.0616933
0.076378
0.0930211
0.0728819
0.0642238
0.0579556
0.0256414
-0.00620129
-0.0328686
-0.0448011
-0.04344
-0.0422329
-0.00768554
-0.00311845
0.013905
0.0229182
0.0282015
0.0334005
0.0359139
0.0363495
0.0364924
0.0361191
0.0356785
0.0356521
0.035626
0.0356993
0.0353463
-0.00160586
-0.000811268
0.00137936
0.00386428
0.00777372
0.0127459
0.018866
0.0266545
0.0368541
0.0509279
0.0699836
0.0889592
0.107929
0.104276
0.119758
0.143959
0.150161
0.140693
0.0991343
0.0336122
-0.0474573
-0.0854553
-0.0774755
-0.0428756
-0.0142922
0.00316417
0.0122176
0.0515986
0.0488908
0.0495573
0.0498806
0.0492592
0.0477919
0.0462522
0.0443385
0.0425893
0.0410754
0.0403188
0.0394577
0.0400545
-0.00388411
-0.00200283
0.000826238
0.00525939
0.0113048
0.0184815
0.0272963
0.0386202
0.054301
0.0719884
0.0911745
0.114417
0.122067
0.155347
0.179745
0.179535
0.207869
0.240144
0.240056
0.136049
-0.114393
-0.193829
-0.101386
-0.0217477
0.0129935
0.043963
0.0659328
0.0652493
0.073395
0.0701801
0.0654083
0.0614834
0.0576773
0.0541011
0.0508781
0.048462
0.0466338
0.0452983
0.0445112
0.0427783
-0.0059591
-0.00478475
-0.00268181
0.00202647
0.00850956
0.0174444
0.0279616
0.0409168
0.0572905
0.0769538
0.0937768
0.117612
0.147716
0.158625
0.208529
0.236713
0.287123
0.387501
0.654519
0.105055
0.110967
0.121802
0.128211
0.117471
0.10712
0.0920792
0.0806801
0.0733253
0.0669324
0.0615308
0.0574286
0.054082
0.0514222
0.0499389
0.0481177
0.0474154
0.046498
-0.0158956
-0.0158062
-0.0105758
-0.00528311
0.00109136
0.00932656
0.0186279
0.0286179
0.0406715
0.05924
0.0720421
0.0809985
0.0955104
0.122149
0.152907
0.198923
0.269501
0.38895
0.520193
0.364862
0.270874
0.191248
0.145859
0.123122
0.0955215
0.0794524
0.0737306
0.0689544
0.0609823
0.0558058
0.053771
0.05171
0.049761
0.0482737
0.0471934
0.0457287
0.0488512
-0.0401508
-0.0302115
-0.0274678
-0.0227062
-0.016462
-0.00842361
-0.00245817
-0.000518381
0.000716782
0.0277604
0.0288814
0.0489853
-0.00712206
-0.0260574
0.0732835
0.125408
0.217031
0.275509
0.265207
0.419446
0.338582
0.204919
0.129531
0.0916651
0.0188768
0.0729142
0.0517343
0.0618193
0.0405324
0.0419956
0.0445846
0.0443951
0.0428646
0.0420172
0.0430453
0.0443021
0.0367975
-0.0410357
-0.0421835
-0.0489018
-0.0421097
-0.038257
-0.030659
-0.0323439
-0.0448804
-0.0461624
-0.063058
-0.0286409
-0.0918964
-0.134251
-0.106968
0.0198106
0.076332
0.183592
0.480308
0.124887
-0.236406
-0.87905
-0.165642
0.521155
0.434577
0.161951
0.0535343
-0.00282188
-0.0838631
-0.0311873
0.0407861
0.00110313
0.00980561
0.0249203
0.0357791
0.0394012
0.0345738
0.0317937
0.0278675
0.0351714
0.0347782
-0.0532506
-0.0486395
-0.0578931
-0.0611698
-0.0581187
-0.0534329
-0.0611013
-0.0839195
-0.0930958
-0.109318
-0.12351
-0.128344
-0.213925
-0.158543
0.0103765
-0.0369069
0.0222197
0.401193
0.0498452
0.961794
-1.11399
1.06484
-0.349407
0.145735
-0.0471183
0.0564332
0.0917048
-0.146948
0.00234635
-0.000665237
-0.0114146
-0.00448458
0.00537995
0.0300015
0.0343676
0.0282093
0.0249787
0.0256962
0.0340914
0.0294883
-0.0787479
-0.0690158
-0.0727642
-0.074591
-0.070785
-0.0692273
-0.0773337
-0.0992776
-0.130105
-0.160384
-0.199678
-0.232287
-0.206646
-0.148838
-0.404369
-0.426523
-0.288715
-0.247351
-0.796541
1.03551
2.63367
-1.0781
0.291516
-0.316518
-0.360798
-0.238469
-0.0301956
-0.0171992
-0.0465257
-0.0529848
-0.0233722
-0.00930938
0.016072
0.0344368
0.0390006
0.0352859
0.0321426
0.0339705
0.038469
0.0273746
-0.0720559
-0.0786199
-0.0718425
-0.0686407
-0.0696923
-0.079601
-0.0891434
-0.0832406
-0.0978832
-0.15417
-0.221163
-0.265201
-0.330615
-0.3342
-0.169081
-0.327898
-0.780089
-0.748925
1.7737
-0.211744
-1.88322
1.38874
1.52615
-0.634625
-0.49955
0.0305076
-0.138442
-0.0619764
-0.0570794
-0.0535436
-0.00280969
0.0456138
0.0557827
0.0459098
0.0499978
0.056523
0.0543238
0.0494948
0.041168
0.0500214
-0.0545679
-0.0608763
-0.0615378
-0.0670156
-0.078708
-0.0920309
-0.10615
-0.10614
-0.106398
-0.104264
-0.125708
-0.203112
-0.307169
-0.105521
-0.037408
-0.0892188
0.202047
-1.73282
-1.86172
-0.346057
-0.0414454
0.527608
-2.00225
-1.05014
0.139988
-0.117191
0.114223
-0.0622988
0.0422661
0.0721673
0.0775719
0.0609494
0.0510164
0.0439283
0.0527009
0.0578109
0.0622927
0.0627557
0.0632725
0.0696136
-0.0552515
-0.0573465
-0.0557224
-0.0608916
-0.0718385
-0.0780762
-0.0885256
-0.125637
-0.136002
-0.127745
-0.121913
-0.192218
-0.182454
-0.0818083
0.0329506
0.0510123
-0.379409
2.17738
0.279999
-2.2298
-2.17043
-2.41865
0.751267
2.44034
-0.122045
0.474399
0.225332
-0.0630349
0.188082
0.0976056
0.0704786
0.0412109
0.0376828
0.0661517
0.0662603
0.0685448
0.0712728
0.0687582
0.0648762
0.0654766
-0.0586772
-0.0642267
-0.0693014
-0.0713681
-0.0700533
-0.0686032
-0.0728489
-0.0925006
-0.108489
-0.107066
-0.0990183
-0.0891209
0.0841002
0.139457
0.150842
0.427597
-0.00881904
-1.15642
0.655003
1.76191
1.03303
2.45413
1.35033
-0.91044
0.955577
0.33308
0.354403
0.321398
0.183191
0.124536
0.0874507
0.0647847
0.0661209
0.0770854
0.0728988
0.0669301
0.0611311
0.0609539
0.0635261
0.0674533
-0.0706226
-0.0638769
-0.0659928
-0.0731731
-0.0793334
-0.0785176
-0.0765891
-0.0733435
-0.0610875
-0.0825566
-0.104923
-0.108239
-0.0927564
0.568613
1.40039
0.777149
1.32026
2.48676
1.05964
-1.28539
-1.22393
-1.07761
1.28072
2.14389
0.347898
1.35067
0.763418
0.246276
0.194848
0.129478
0.107824
0.100783
0.0881541
0.0720526
0.0641931
0.0618413
0.062562
0.0662679
0.0653453
0.058041
-0.0771972
-0.0778873
-0.0744367
-0.0717308
-0.0694535
-0.0702077
-0.0786285
-0.0841255
-0.0875515
-0.0667854
-0.032832
-0.139636
-0.106238
-0.125343
-1.21302
0.791548
1.41434
2.84868
-4.67716
-4.10317
-2.83434
-4.10644
3.28847
1.01607
0.241945
-1.34223
0.33003
0.199109
0.142788
0.17892
0.120083
0.0789948
0.0704024
0.0647354
0.0718775
0.0658704
0.0608009
0.0554209
0.0503291
0.0553227
-0.0717111
-0.0760491
-0.0821418
-0.0835735
-0.0826875
-0.0782608
-0.0782745
-0.0910972
-0.0926996
-0.109794
-0.123634
-0.14043
-0.12828
0.0055838
-0.225839
-2.27051
-3.38717
-0.714681
1.41074
2.83043
4.21403
1.7027
-1.17872
-3.88413
-2.54469
-0.167161
0.0352265
-0.00888321
0.003545
0.0320277
0.0500574
0.0599552
0.0594317
0.06311
0.0531697
0.0517191
0.0504661
0.0525719
0.0589965
0.0613244
-0.0638677
-0.0685752
-0.0689513
-0.0725156
-0.0754294
-0.0767027
-0.0772435
-0.0688466
-0.0861339
-0.0833655
-0.0811873
-0.094814
-0.0842553
-0.201678
0.758262
1.79121
0.828642
-0.907746
-1.67366
-0.830605
-0.749939
-1.71581
-1.19086
0.458691
1.37264
0.278585
-0.339249
-0.0310064
-0.0150467
0.00912831
0.0403247
0.0429163
0.0615376
0.0538218
0.0531363
0.0537766
0.0577607
0.0595301
0.0579752
0.0617103
-0.0741556
-0.0672933
-0.0670777
-0.0679044
-0.0689788
-0.0690451
-0.0703628
-0.0722799
-0.0616457
-0.0409727
0.000680312
0.0175452
0.112348
-0.169575
-0.958859
-0.648824
0.99069
1.93987
1.46297
0.281061
0.270779
0.541159
0.0497164
-0.582673
-1.42371
-1.00843
0.012519
-0.00190085
-0.0392725
-0.00219361
0.00737656
0.0238517
0.0364564
0.0484149
0.0519722
0.0502429
0.0524325
0.0522682
0.0521809
0.046985
-0.0691176
-0.0791944
-0.0773878
-0.0741412
-0.0750279
-0.0697594
-0.0629497
-0.0589348
-0.0532513
-0.0145765
-0.0165673
0.0102696
0.0741845
0.734336
1.32022
0.592738
-0.54633
-0.323564
0.111672
0.735061
-0.184586
-1.25344
-1.33674
-1.39979
0.687076
0.947415
0.225554
-0.111207
-0.0588389
-0.030245
0.00417528
0.0203625
0.0315756
0.0439683
0.0446049
0.0450422
0.0472048
0.0457878
0.044395
0.0559997
-0.0721915
-0.0654558
-0.0661359
-0.0672709
-0.0673984
-0.0654739
-0.0604392
-0.0487606
-0.0257293
0.0119757
0.0875895
0.101423
0.235369
-0.230296
0.238158
1.372
1.72534
1.7518
0.175868
-0.308573
-0.410839
-0.747993
0.112089
0.0749207
-0.0173095
-0.684777
-0.59795
0.0231874
-0.00217696
0.0153054
0.00850003
0.0191182
0.0254859
0.0339673
0.0419074
0.0459006
0.0512994
0.0564539
0.0596717
0.0507498
-0.0689309
-0.071784
-0.0706365
-0.0686064
-0.0660941
-0.0655722
-0.0625862
-0.057354
-0.0357279
-0.0122897
0.0112861
0.071136
0.215646
0.842092
0.680237
0.309442
0.437852
0.585073
1.62367
1.13106
-0.105478
-0.0148408
-0.974506
-1.05701
-0.672514
0.0432197
0.309283
-0.10809
-0.108144
-0.0544314
-0.0050204
0.00991667
0.0172944
0.0275115
0.0365621
0.0418901
0.0435314
0.0443879
0.0445033
0.0501038
-0.0742172
-0.071301
-0.0698796
-0.0690168
-0.0684325
-0.0667995
-0.0618425
-0.053973
-0.0346675
-0.00118953
0.0596332
0.00556366
-0.0347695
-0.223689
0.399143
0.910367
1.37456
0.950291
0.658278
0.614602
0.137967
-0.198153
-0.0952796
0.437823
0.27811
-0.141947
-0.688443
-0.333797
-0.169557
0.0560551
0.0220108
0.0125577
0.0145209
0.0266952
0.0331515
0.0387618
0.0421886
0.0433061
0.042944
0.0477797
-0.0745767
-0.074093
-0.0744347
-0.0733875
-0.0717669
-0.0703206
-0.0696106
-0.0676048
-0.0610053
-0.0489705
-0.0161853
0.0283511
0.246796
0.574334
0.191162
-0.067799
0.121489
0.232361
1.05496
0.312924
0.198742
0.535672
-0.406682
-0.752237
-0.916723
-0.449415
0.215164
0.0766876
-0.0595123
-0.0189411
-0.03271
-0.0179632
0.0077284
0.0216163
0.0337161
0.0409317
0.0465019
0.0519183
0.0571189
0.0554803
-0.0813832
-0.0831393
-0.0803885
-0.0794538
-0.0776009
-0.0750085
-0.0759972
-0.0748187
-0.0572711
-0.0245501
0.00632271
-0.0010113
-0.099939
0.0680942
0.614991
0.805958
0.844133
0.610948
-0.322263
-0.168286
-0.443837
-1.0161
-0.186506
0.0569723
0.367717
0.403598
-0.102249
-0.281478
-0.0822318
-0.0223679
-0.00223154
0.00501805
0.0099357
0.0298642
0.0388878
0.046393
0.0509948
0.0508713
0.047724
0.0512966
-0.0775694
-0.0782974
-0.079258
-0.0784855
-0.0763486
-0.0749383
-0.0737895
-0.0715144
-0.0663888
-0.0298671
-0.0101943
0.0794369
0.207786
0.0498441
-0.228391
-0.181314
0.185019
0.365723
1.06697
0.362368
0.523092
0.811727
-0.0149739
-0.158269
-0.47843
-0.573455
-0.237093
0.106077
0.0564361
0.011305
-0.000191045
0.0109274
0.0236532
0.0356339
0.0422606
0.0469702
0.0495315
0.0537969
0.0576092
0.0553979
-0.0813019
-0.0780837
-0.0750781
-0.0724102
-0.0696739
-0.0715981
-0.0709904
-0.0667918
-0.0511012
-0.0282561
0.0142076
-0.0198825
-0.0649648
0.300407
0.497211
0.336566
0.06105
-0.116512
-0.536661
-0.26692
-0.38712
-0.859749
-0.475912
-0.289048
0.110154
0.384906
0.34726
0.0374356
-0.00010722
0.0484698
0.0432833
0.0539652
0.0552546
0.0582006
0.0593007
0.0632083
0.0629579
0.0614837
0.0601805
0.0558034
-0.0830568
-0.0848499
-0.0840228
-0.0840154
-0.0803512
-0.0770176
-0.074397
-0.073043
-0.066025
-0.0621593
-0.0489159
0.0199175
-0.0239412
-0.248901
-0.320834
-0.244412
0.409206
0.276828
0.375128
-0.300104
0.444589
0.755254
0.445441
0.56951
-0.0272356
-0.129668
-0.147953
0.0585797
0.117509
0.0595608
0.0620735
0.0631675
0.0666093
0.065402
0.0655253
0.0645231
0.0622844
0.0609332
0.0616523
0.0656612
-0.0982363
-0.0926193
-0.0901082
-0.0880997
-0.0847496
-0.0817349
-0.0803788
-0.0825708
-0.081284
-0.0830753
-0.0861984
-0.0977636
0.0563112
0.354621
0.430245
0.410449
0.0789346
0.313048
-0.734551
-0.577341
-0.374924
-0.198841
0.866608
0.479282
0.493136
0.541797
0.490262
0.252211
0.0941899
0.0886479
0.088556
0.0814759
0.0778557
0.0747095
0.0731685
0.0725082
0.073459
0.0740984
0.0738183
0.0667919
-0.103129
-0.109779
-0.107658
-0.105784
-0.103103
-0.102251
-0.10296
-0.107052
-0.104534
-0.104584
-0.105068
-0.116012
-0.280547
-0.410508
-0.248198
-0.0704469
0.178586
0.196765
0.123305
-0.0337782
0.238298
0.633071
0.617866
0.628838
0.308618
0.135359
-0.0143873
0.108434
0.178964
0.118748
0.102248
0.0952929
0.0881311
0.0856047
0.0812535
0.0757459
0.0712528
0.067182
0.0632318
0.0691416
-0.108619
-0.100717
-0.106384
-0.112479
-0.118557
-0.118698
-0.122612
-0.129034
-0.145191
-0.170213
-0.159233
-0.125703
-0.0284834
-0.0486796
-0.211839
-0.313975
-0.643078
-0.606773
-0.610298
-0.342893
0.367093
0.111156
0.0166082
-0.0217421
0.471443
0.483621
0.522396
0.405341
0.207302
0.147833
0.0987033
0.0967062
0.0939769
0.0865182
0.0760695
0.0687013
0.0699272
0.0735446
0.0777773
0.0717158
-0.119008
-0.128778
-0.124192
-0.122207
-0.123361
-0.129446
-0.136014
-0.143508
-0.151316
-0.176057
-0.251805
-0.393779
-0.555882
-0.565877
-0.52655
-0.52593
-0.650484
-0.598527
-0.667193
-1.19054
0.668159
0.384571
0.20054
0.356014
0.398415
0.220781
0.0650312
0.0111731
0.0976669
0.13482
0.124693
0.114371
0.110114
0.0961229
0.0873339
0.0800172
0.0745178
0.0706884
0.0651328
0.0746239
-0.125305
-0.120764
-0.128817
-0.137792
-0.141649
-0.148193
-0.159563
-0.175622
-0.201174
-0.245362
-0.247371
-0.164233
-0.243375
-0.531638
-0.876244
-0.929449
-1.05957
-1.01036
-0.790189
-0.593058
0.0911157
0.0934547
-0.108998
-0.0369367
0.0591247
0.0274847
0.342313
0.404712
0.31632
0.167179
0.130033
0.117226
0.104075
0.0987759
0.0924993
0.080673
0.079445
0.0802621
0.08504
0.0791783
-0.13014
-0.13725
-0.134029
-0.132823
-0.136264
-0.141861
-0.148156
-0.179818
-0.202558
-0.25288
-0.344418
-0.455676
-0.483931
-0.479267
-0.559763
-0.688666
-0.785558
-0.687531
-0.895452
-0.774723
-0.204026
-0.0420835
0.236802
0.273127
0.314657
0.31893
0.255126
0.167839
0.119452
0.126493
0.180362
0.134871
0.111596
0.105982
0.0985585
0.093411
0.0892543
0.0836534
0.0770964
0.0823025
-0.13308
-0.127964
-0.134791
-0.14023
-0.147107
-0.154461
-0.171276
-0.204199
-0.25869
-0.277583
-0.27184
-0.199618
-0.341013
-0.55592
-0.613125
-0.546031
-0.512977
-0.436748
-0.247703
-0.188172
0.345416
0.585628
0.398343
0.456925
0.382032
0.301144
0.293511
0.37297
0.355065
0.24386
0.150713
0.0832042
0.0914747
0.0838432
0.0858511
0.0842395
0.0810598
0.0827857
0.0873608
0.0795831
-0.132152
-0.13467
-0.132794
-0.134054
-0.139603
-0.151369
-0.166215
-0.178074
-0.240544
-0.272662
-0.357816
-0.459134
-0.394032
-0.355653
-0.405724
-0.466457
-0.374149
-0.252899
-0.184094
0.255925
0.586698
0.577823
0.66013
0.712055
0.599835
0.596491
0.526541
0.317783
0.116943
0.128201
0.136553
0.114313
0.100116
0.0850891
0.0877618
0.0855703
0.082533
0.0762726
0.0700455
0.0763704
-0.129761
-0.132102
-0.136966
-0.141522
-0.147395
-0.15711
-0.174063
-0.199498
-0.221931
-0.258871
-0.224399
-0.282712
-0.453389
-0.586081
-0.578303
-0.534859
-0.444534
-0.352143
-0.0562059
-0.0307866
0.470363
0.804579
0.784653
0.761715
0.537689
0.338883
0.186027
0.163887
0.245164
0.207746
0.113709
0.094824
0.0690416
0.0666071
0.0700104
0.0702872
0.0707806
0.0730376
0.0775005
0.0795559
-0.128076
-0.128087
-0.129506
-0.133161
-0.139859
-0.148293
-0.161147
-0.17915
-0.201597
-0.237962
-0.295317
-0.362769
-0.317661
-0.370649
-0.435253
-0.584251
-0.655845
-0.459186
-0.579948
-0.187043
0.122892
0.0271646
0.369289
0.274918
0.228914
0.257704
0.323926
0.277672
0.114996
0.0443584
0.0522614
0.0777948
0.0737055
0.0740764
0.0758324
0.0783471
0.0795449
0.0798653
0.0781201
0.0753213
-0.116472
-0.124298
-0.126559
-0.128079
-0.130461
-0.136074
-0.14631
-0.157688
-0.163472
-0.180516
-0.187633
-0.305316
-0.481774
-0.55479
-0.549449
-0.566347
-0.479677
-0.524681
-0.321443
-0.666422
-0.305232
0.00873792
0.167349
0.26601
0.0612146
0.0414015
-0.0267506
-0.0570333
0.0292443
0.0793203
0.0757407
0.0591785
0.0579742
0.0666114
0.0688496
0.069623
0.068892
0.0689322
0.0693344
0.0767119
-0.107999
-0.101919
-0.103624
-0.10436
-0.10784
-0.112256
-0.117699
-0.123353
-0.133935
-0.149673
-0.181186
-0.171678
-0.177269
-0.264884
-0.43167
-0.572083
-0.675631
-0.630287
-0.623495
-0.415018
-0.262141
-0.494436
-0.265714
-0.284827
-0.227854
-0.0629806
0.042339
0.115987
0.105357
0.0498464
0.0517638
0.0561867
0.0598682
0.0636792
0.0682007
0.0724031
0.0737869
0.0753605
0.0783457
0.0706255
-0.0941587
-0.0987225
-0.0958241
-0.0934191
-0.0916821
-0.0928222
-0.0953482
-0.0863928
-0.0886201
-0.0921694
-0.131246
-0.181044
-0.242868
-0.215879
-0.169035
-0.167644
-0.109452
-0.159153
-0.121809
-0.33355
-0.386661
-0.0565569
-0.0340272
0.0918409
0.117647
0.131915
0.0380012
-0.0175027
-0.00981031
0.0498766
0.0607181
0.067454
0.0646112
0.069395
0.0746472
0.0773535
0.0742613
0.0696781
0.0659611
0.0775012
-0.0938571
-0.0835336
-0.085161
-0.0845039
-0.0831679
-0.0799232
-0.0752575
-0.0688999
-0.0641162
-0.0511364
-0.0137377
0.0514153
0.0811465
0.0848345
0.0950738
0.12061
-0.122486
-0.0166575
-0.0114163
0.387834
0.105533
-0.108913
-0.00339183
-0.146213
0.290338
0.18997
0.153605
0.153832
0.137547
0.0938307
0.0707476
0.0675044
0.0724752
0.0728251
0.0736684
0.0760778
0.0788652
0.0762907
0.0799526
0.0703369
-0.0878004
-0.0924013
-0.0869806
-0.0813513
-0.0759535
-0.0712668
-0.0621406
-0.0546139
-0.0353291
-0.0409174
-0.0666566
-0.0841153
-0.0194091
0.0567333
0.179573
0.216435
0.258345
0.253506
0.264781
0.0624528
-0.0817203
0.15997
0.204566
0.186333
0.161699
0.137494
0.0570383
0.0313421
0.0047278
0.0400612
0.0737998
0.0794953
0.0782141
0.0765672
0.0753839
0.0787012
0.077176
0.0728392
0.068032
0.0733559
-0.0770062
-0.0711123
-0.0760435
-0.0787862
-0.0781299
-0.0741603
-0.0685691
-0.0612375
-0.0522073
-0.0292392
0.0149544
0.0392552
0.0130044
0.00807581
0.0245155
0.0319528
-0.191768
-0.212308
-0.13731
-0.00894603
0.122609
-0.157679
-0.240444
-0.236428
-0.095189
-0.0206435
0.0436821
0.106431
0.135564
0.114326
0.0775442
0.067469
0.0705857
0.072046
0.0708203
0.0668924
0.0693947
0.0727945
0.0768983
0.0735593
-0.0739443
-0.0768078
-0.0717117
-0.0650903
-0.0624436
-0.0600171
-0.0556156
-0.0460945
-0.0566699
-0.0799752
-0.119224
-0.11546
-0.0973782
-0.128538
-0.202435
-0.27049
-0.380297
-0.433156
-0.569182
-0.804375
-0.421529
-0.343723
-0.195253
-0.102818
-0.153374
-0.0635831
-0.00333903
0.0242756
0.00976811
0.0188912
0.0563196
0.0728483
0.0816717
0.0787947
0.0752896
0.0731481
0.0736542
0.0712284
0.0667589
0.07188
-0.0671272
-0.0675578
-0.0712073
-0.0720036
-0.0710687
-0.0695497
-0.0692808
-0.0676463
-0.0596963
-0.0446892
-0.0233064
-0.0992465
-0.202154
-0.246131
-0.331077
-0.453532
-0.625597
-0.758625
-0.784824
-0.658046
-0.431898
-0.461497
-0.415186
-0.294963
-0.181162
-0.0994209
-0.0241916
0.0289044
0.116093
0.154798
0.0989569
0.0806323
0.0743476
0.0778784
0.0762328
0.0721153
0.0700896
0.0726656
0.076448
0.0760288
-0.069622
-0.0672682
-0.064125
-0.0613941
-0.0605287
-0.0599819
-0.0565097
-0.064896
-0.0717318
-0.0985576
-0.122196
-0.0992426
-0.11523
-0.202677
-0.243633
-0.311187
-0.334471
-0.387643
-0.520471
-0.626432
-0.586265
-0.356947
-0.164217
-0.0681469
-0.0553409
-0.0298995
0.0301218
0.0956181
0.0921432
0.0660234
0.0826333
0.091558
0.0897574
0.0888645
0.088134
0.0854061
0.0835121
0.080943
0.0755429
0.0716385
-0.0623265
-0.0650209
-0.0662753
-0.0647568
-0.063431
-0.0634997
-0.0665184
-0.0594103
-0.0602017
-0.038423
-0.0213525
-0.0887498
-0.0997651
-0.00864543
0.0350117
-0.0539237
-0.0110174
-0.132609
-0.27175
-0.0739174
-0.032223
-0.0480569
0.0088453
0.0869796
0.159084
0.183665
0.163295
0.123425
0.131817
0.166994
0.149631
0.111745
0.0812604
0.076619
0.0768126
0.0745691
0.0733785
0.0748179
0.0762366
0.0738989
-0.0642911
-0.0584505
-0.0572991
-0.0559286
-0.0560891
-0.0564859
-0.0570849
-0.0580302
-0.0718642
-0.0896462
-0.0910508
-0.0342457
-0.0160164
-0.0439546
-0.0284435
0.00426449
0.0660497
0.165575
0.28531
0.230381
0.28025
0.333602
0.30113
0.290112
0.2753
0.252186
0.199859
0.242776
0.193613
0.100978
0.0827598
0.0861875
0.0836454
0.0785243
0.0762183
0.0746199
0.0715713
0.0679641
0.065059
0.063355
-0.0596865
-0.0621335
-0.0612826
-0.0608267
-0.0604233
-0.0607119
-0.0589885
-0.0607973
-0.0557002
-0.0416249
-0.0488705
-0.0920683
-0.0828537
-0.0311691
-0.000291432
-0.0060745
-0.0485612
-0.0411111
-0.0225382
0.10312
0.196602
0.241949
0.261024
0.322666
0.338628
0.316684
0.225158
0.121826
0.0737257
0.107994
0.110418
0.0842985
0.0669136
0.0601337
0.0560816
0.0551661
0.0535558
0.0538411
0.0536721
0.0600264
-0.0578403
-0.0550866
-0.0571867
-0.0586665
-0.0600699
-0.0601118
-0.058232
-0.0610915
-0.0684336
-0.0873654
-0.0560105
-0.00923355
-0.0401558
-0.103208
-0.157739
-0.196935
-0.172529
-0.1945
-0.118324
0.0212618
0.0372561
-0.116222
-0.163576
0.0631196
-0.0112061
-0.00460383
0.0204599
0.071108
0.105433
0.0644012
0.0350664
0.0460864
0.0477649
0.0506553
0.0528853
0.0541109
0.054252
0.0570285
0.0596978
0.0550846
-0.0545848
-0.0613259
-0.0592855
-0.0573213
-0.0553984
-0.0546204
-0.0530317
-0.0566587
-0.0583948
-0.0518158
-0.0788577
-0.0920132
-0.0782995
-0.0711901
-0.0808953
-0.106813
-0.202087
-0.18454
-0.337991
-0.242739
-0.348663
-0.388672
-0.312489
-0.264965
-0.18647
-0.11828
-0.0812048
-0.0695305
-0.05638
-0.0222925
0.0183564
0.0333229
0.0375422
0.0431328
0.0498297
0.0494726
0.0484018
0.047328
0.0439005
0.0489461
-0.05002
-0.0464715
-0.0488932
-0.0505161
-0.0500787
-0.0478383
-0.0478591
-0.0469869
-0.0429619
-0.0427962
-0.0126167
-0.002629
-0.0437755
-0.0797974
-0.102678
-0.143882
-0.0942351
-0.189442
-0.156291
-0.122652
-0.139642
-0.316344
-0.360094
-0.337767
-0.337537
-0.278566
-0.208574
-0.125271
-0.036536
0.00835499
0.012912
0.0198384
0.0156264
0.0265938
0.0363977
0.0350572
0.0396285
0.0447717
0.0489962
0.0422847
-0.0476307
-0.0494156
-0.0436525
-0.0410484
-0.0382335
-0.0379996
-0.0396369
-0.0373019
-0.0334988
-0.0348352
-0.0485826
-0.0344901
0.00214836
0.0324029
0.0686699
0.0904283
0.0613279
0.157568
0.052746
-0.0997878
-0.136117
0.0308233
0.121181
-0.193502
-0.0575072
-0.0665427
-0.0442456
-0.0369737
-0.0429329
-0.033233
0.00469489
0.0185983
0.0222069
0.026196
0.0374863
0.0389684
0.0391373
0.0364605
0.0333257
0.0368479
-0.0467242
-0.0416942
-0.044572
-0.0471987
-0.0472478
-0.0468779
-0.0446606
-0.041322
-0.0155186
0.0106771
0.0382954
0.0643124
0.0903455
0.13061
0.172468
0.148487
0.187968
0.230176
0.354789
0.403191
0.415184
0.303477
0.194886
0.0534219
0.0376546
0.0157351
-0.000884388
0.0252822
0.0359552
0.0539527
0.0415582
0.0410438
0.0137338
0.0189494
0.0261377
0.0292055
0.0311999
0.0336696
0.0380841
0.0341962
-0.05123
-0.0550102
-0.0521529
-0.048011
-0.0446578
-0.0421187
-0.0402321
-0.033874
-0.0316985
-0.0202102
-0.00226014
0.0338781
0.10551
0.177458
0.242611
0.3076
0.334883
0.356455
0.363906
0.240459
0.226868
0.26601
0.275926
0.253868
0.218047
0.149854
0.0973743
0.0515366
0.0171696
0.0169325
0.0222221
0.0272412
0.0307134
0.028692
0.0328563
0.0353765
0.0352813
0.0326456
0.0295106
0.0332951
-0.0501851
-0.0533797
-0.0562611
-0.0580425
-0.0579583
-0.0569783
-0.0554581
-0.0452747
-0.0263051
-0.0050357
0.0123768
0.0306273
0.0584795
0.0788246
0.0897337
0.071394
0.0619697
0.0617073
0.194149
0.275847
0.297199
0.224244
0.0664385
0.0328405
0.00311818
0.0556227
0.0683083
0.0722636
0.0765595
0.0672403
0.0504463
0.0365222
0.0313537
0.0259481
0.0244373
0.026096
0.0266681
0.0284909
0.0310272
0.0315156
-0.0497973
-0.047776
-0.0475338
-0.0471649
-0.0472731
-0.0477803
-0.0480163
-0.0491665
-0.0486657
-0.0553926
-0.0483942
-0.0569461
-0.079272
-0.0978876
-0.0930833
-0.0797577
-0.0728123
-0.158525
-0.242653
-0.219404
-0.256248
0.0715673
0.0726932
0.133399
0.12025
0.0983422
0.0738697
0.0524534
0.0477097
0.025136
0.018607
0.0209659
0.0334545
0.0322289
0.0301137
0.0299722
0.0307346
0.0305973
0.0297178
0.0284185
-0.0493057
-0.0509113
-0.0499539
-0.0500585
-0.0505587
-0.0517832
-0.0544766
-0.0537499
-0.0420564
-0.0453116
-0.0688263
-0.0908689
-0.108352
-0.156504
-0.215956
-0.292112
-0.35561
-0.363415
-0.306816
-0.173729
-0.0834158
-0.00127464
0.00319838
-0.0266582
0.019495
0.0515452
0.0635641
0.068906
0.0613103
0.0439271
0.0507097
0.0437915
0.0355948
0.0303451
0.0273084
0.0262686
0.0253458
0.0253392
0.0249414
0.0274278
-0.0531496
-0.0496957
-0.0507458
-0.0522225
-0.0525197
-0.053759
-0.0570225
-0.0550515
-0.0599257
-0.0723917
-0.0624209
-0.0683172
-0.0946705
-0.0999855
-0.0769247
-0.0385661
-0.0207021
-0.0332938
-0.11623
-0.209542
-0.181766
-0.0321233
0.105731
0.16667
0.0972586
0.0466915
0.0194019
0.0195387
0.039153
0.0364309
0.0176125
0.0185261
0.0264889
0.0298225
0.0308925
0.0297843
0.0292793
0.0282346
0.0269846
0.0222259
-0.0518422
-0.0596136
-0.0583004
-0.0571979
-0.0550792
-0.0546469
-0.0485925
-0.0473918
-0.0377365
-0.0351394
-0.04243
0.00460177
0.0647405
0.110588
0.135944
0.13888
0.0585968
0.106468
0.147142
0.159015
0.214026
0.186368
0.145174
0.0908157
0.0973812
0.105529
0.11141
0.0856786
0.0421979
0.0321686
0.0184197
0.0218349
0.0178302
0.0181605
0.0203843
0.0203601
0.0203983
0.0198862
0.0183292
0.0220506
-0.0510537
-0.0510967
-0.0542405
-0.0555401
-0.0556117
-0.0512864
-0.0480948
-0.0427077
-0.0409767
-0.0269703
-0.0012925
0.0274284
0.0475067
0.09586
0.169195
0.263195
0.364429
0.435675
0.395004
0.318163
0.350254
0.336524
0.30909
0.285635
0.215128
0.136034
0.087345
0.0575737
0.0675228
0.0564913
0.0181602
0.00491296
0.00655659
0.0114655
0.0117697
0.0110019
0.0103246
0.0136278
0.0173288
0.0138667
-0.0478581
-0.053155
-0.0507676
-0.0481217
-0.0460187
-0.0443224
-0.0441875
-0.0379098
-0.0263974
-0.0181546
-0.0140421
0.0197547
0.0869328
0.150571
0.184386
0.172518
0.21662
0.24434
0.306188
0.407669
0.411283
0.312343
0.203081
0.14078
0.144276
0.150984
0.12742
0.0803626
0.030056
0.00826086
0.0145914
0.0169995
0.00698806
0.00749821
0.0067707
0.00727146
0.00432992
0.00140618
-0.000689739
0.00748739
-0.0448601
-0.0443441
-0.0463127
-0.0478009
-0.0482698
-0.047701
-0.0487642
-0.0403462
-0.0392772
-0.0264101
0.00224379
0.0237398
0.0212015
0.00909848
0.0445881
0.0968447
0.198148
0.239941
0.24876
0.205487
0.152662
0.15903
0.0703267
0.010451
-0.00488001
-0.0595692
-0.0643159
-0.0336759
0.00688933
0.0203179
0.00370873
-0.00492439
0.000492604
0.000751421
4.26563e-05
0.00178235
0.0037067
0.00719053
0.0118277
0.0101057
-0.0461925
-0.0436198
-0.0424228
-0.0415311
-0.040657
-0.0432027
-0.0439967
-0.0437472
-0.0425315
-0.0421592
-0.0451777
-0.0269873
0.00722874
0.041315
0.058942
0.0171203
0.0601856
0.0736876
0.00270287
-0.0248852
-0.0536079
-0.125695
-0.182205
-0.216076
-0.18128
-0.126058
-0.0668049
-0.057414
-0.0463392
-0.0365889
-0.0205163
-0.00673807
0.00275729
0.0112832
0.0132045
0.0164911
0.0161138
0.0135057
0.00968147
0.00465891
-0.0465885
-0.0460071
-0.0462216
-0.0467604
-0.0465945
-0.0471492
-0.0479511
-0.0460175
-0.0472908
-0.0439374
-0.035768
-0.0372744
-0.0457575
-0.0629785
-0.0415621
0.0275723
-0.0208019
-0.00329216