/*--------------------------------*- C++ -*----------------------------------*\
| =========                 |                                                 |
| \\      /  F ield         | OpenFOAM: The Open Source CFD Toolbox           |
|  \\    /   O peration     | Version:  v2106                                 |
|   \\  /    A nd           | Website:  www.openfoam.com                      |
|    \\/     M anipulation  |                                                 |
\*---------------------------------------------------------------------------*/
FoamFile
{
    version     2.0;
    format      ascii;
    arch        "LSB;label=32;scalar=64";
    class       volVectorField;
    location    "0";
    object      U;
}
// * * * * * * * * * * * * * * * * * * * * * * * * * * * * * * * * * * * * * //

dimensions      [0 1 -1 0 0 0 0];

internalField   nonuniform List<vector> 
11644
(
(-0.00065481 -9.42173e-05 -6.9598e-22)
(-0.000667613 -0.000259731 -1.91931e-21)
(-0.000666227 -0.000415582 -1.02976e-21)
(-0.000629781 -0.000556833 0)
(-0.000641013 -0.000734275 0)
(-0.000678204 -0.000902834 0)
(-0.000710613 -0.00106716 0)
(-0.000708466 -0.00116806 0)
(-0.000737774 -0.00118194 0)
(-0.000777846 -0.00113766 0)
(-0.000823966 -0.00101079 0)
(-0.000872347 -0.000784168 0)
(-0.000789174 -0.000483443 0)
(-0.00126847 -0.000176668 0)
(-0.00119658 0.000313658 0)
(-0.00106335 0.000268524 0)
(-0.00113311 0.00079545 0)
(-0.000576574 0.000832867 0)
(-0.00222619 0.000372468 0)
(-0.000124137 0.00202482 1.13709e-29)
(-0.000372448 -0.00179557 -1.13795e-29)
(-0.00233176 6.21975e-05 0)
(-0.000413942 8.04241e-05 0)
(-0.000910177 4.72066e-05 0)
(-0.00112174 0.000350738 0)
(-0.00103472 8.42617e-05 0)
(-0.00112079 0.000477812 0)
(-0.000817917 0.000691318 0)
(-0.00090195 0.000901035 0)
(-0.00083873 0.00106579 0)
(-0.000765001 0.00114642 0)
(-0.000714098 0.00117142 0)
(-0.000700397 0.0011535 0)
(-0.000674854 0.0010517 0)
(-0.000649607 0.000901024 0)
(-0.000631754 0.000754145 0)
(-0.00062532 0.000583847 0)
(-0.000600185 0.000434679 0)
(-0.000598499 0.000274544 0)
(-0.000623626 0.000106574 -1.34943e-22)
(-0.000420169 -0.000111683 -8.93982e-22)
(-0.000382731 -0.000334557 -8.28114e-22)
(-0.000347481 -0.00056942 -4.44753e-22)
(-0.00028585 -0.000800729 0)
(-0.000281521 -0.00105693 0)
(-0.000249144 -0.00131431 0)
(-0.000208842 -0.00159615 0)
(-0.000211874 -0.00186372 0)
(-0.0002134 -0.00203786 0)
(-0.000189131 -0.00204696 0)
(-0.000278305 -0.00187167 0)
(-0.000335767 -0.00140639 0)
(-0.00062151 -0.000833446 0)
(-0.000390686 0.000240328 0)
(-0.000558149 0.000971676 0)
(-0.00122735 0.00187428 -6.46037e-22)
(-0.00142083 0.0021605 3.64428e-21)
(-0.00207131 0.00265483 -7.39978e-21)
(-0.00151718 0.00254937 -6.17554e-21)
(-0.00111869 -0.000772799 -3.77267e-20)
(-0.00108459 0.00135117 3.89971e-20)
(-0.00180296 -0.00144726 -7.7117e-22)
(-0.00217694 -0.0010769 1.29517e-20)
(-0.00121304 -0.000373166 -3.28488e-21)
(-0.00091932 -0.000315096 3.00277e-22)
(-0.000571288 0.000422565 0)
(-0.000325994 0.000912758 0)
(-0.00044443 0.00157845 0)
(-0.00017439 0.00197956 0)
(-0.000113451 0.00221 0)
(-0.000161878 0.00228115 0)
(-0.000162751 0.00220253 0)
(-0.000133901 0.00199913 0)
(-0.000150507 0.00176206 0)
(-0.000204676 0.00152046 0)
(-0.000201508 0.00126356 0)
(-0.000245413 0.00100564 0)
(-0.000210104 0.000733119 0)
(-0.000231691 0.000458353 0)
(-0.000286031 0.000145477 0)
(-0.000392508 -0.000114651 0)
(-0.000317972 -0.000362397 0)
(-0.000196244 -0.000671024 0)
(-9.32353e-05 -0.000996628 0)
(-2.81759e-05 -0.00130569 -8.16636e-22)
(0.000110701 -0.00163295 0)
(0.000272791 -0.00194689 0)
(0.00045967 -0.00222317 0)
(0.000596528 -0.00247614 0)
(0.000668299 -0.00263573 0)
(0.000684675 -0.00256658 0)
(0.00026584 -0.00231195 0)
(-3.17269e-05 -0.00163218 6.07106e-22)
(-0.00138914 -0.000782177 -7.00231e-21)
(-0.00221595 0.000390161 7.74407e-21)
(-0.00192615 0.00172592 3.57407e-20)
(-0.00247659 0.00221109 -1.79185e-19)
(-0.00283546 0.00288698 1.06643e-19)
(-0.0018554 0.00146426 1.0279e-19)
(-0.0024017 -6.14691e-05 -1.81529e-19)
(-0.0020761 0.00151991 1.33968e-19)
(-0.0010995 0.000126824 -1.66244e-19)
(-0.00180889 -0.00125236 9.51037e-21)
(-0.00165431 -0.000893647 1.31931e-19)
(-0.00118466 -0.000482522 1.09848e-20)
(-0.000914467 0.000586206 -1.30689e-20)
(-0.000499859 0.0013409 7.66054e-21)
(0.000279479 0.00216348 -6.84795e-22)
(0.000463691 0.00267294 0)
(0.000642509 0.00293201 0)
(0.000754962 0.00289817 0)
(0.000706272 0.00276603 0)
(0.000611811 0.0025546 0)
(0.000473138 0.00228721 0)
(0.000384945 0.00195198 0)
(0.000243737 0.00157872 0)
(0.000156695 0.00120751 0)
(9.87016e-05 0.000822943 0)
(2.49449e-05 0.000461225 0)
(-6.87215e-05 0.000162889 0)
(-0.000355959 -3.86837e-05 0)
(-0.000289093 -0.00025574 0)
(-0.00015153 -0.000613661 0)
(6.97476e-06 -0.000980051 0)
(0.00020979 -0.00136126 0)
(0.000469338 -0.00177165 0)
(0.000812587 -0.00220497 0)
(0.00116655 -0.00265211 0)
(0.00155792 -0.0030549 0)
(0.00185428 -0.00335018 0)
(0.00178653 -0.00361357 1.011e-22)
(0.00160652 -0.00340352 -4.30984e-21)
(0.000626836 -0.00315952 -1.04578e-19)
(0.000418201 -0.0019066 1.19609e-19)
(-0.000337313 -4.52824e-05 1.17739e-19)
(-0.00216417 0.00141936 -8.32898e-20)
(-0.00249907 0.00218544 1.83387e-19)
(-0.00274027 0.00233142 -2.10146e-19)
(-0.00360154 0.00234118 -1.41379e-19)
(-0.00375118 0.00186018 2.50467e-19)
(-0.00337546 0.000743092 -1.92308e-19)
(-0.00231763 -0.000245246 1.60022e-19)
(-0.00190011 -0.000641585 1.36992e-19)
(-0.00165113 -0.000294424 -2.39782e-19)
(-0.00131121 2.52822e-05 1.25274e-19)
(1.51543e-05 0.00138672 -9.43497e-20)
(0.00141723 0.00260992 -1.35292e-19)
(0.00162788 0.00336356 1.16013e-19)
(0.00218204 0.00374445 -3.73796e-21)
(0.00216123 0.00394887 5.87052e-24)
(0.00195852 0.00392174 0)
(0.00179641 0.00363318 0)
(0.00156188 0.0032115 0)
(0.00125648 0.00273921 0)
(0.000996928 0.00225592 0)
(0.000714695 0.00180981 0)
(0.000505749 0.00137569 0)
(0.00038389 0.000950093 0)
(0.000299243 0.000495535 0)
(0.000207017 0.00010511 0)
(-0.000294009 -0.000124566 0)
(-0.000237808 -0.000357892 0)
(-0.000138297 -0.0006348 0)
(5.69497e-05 -0.000942973 0)
(0.000317581 -0.00126423 0)
(0.000683501 -0.00165265 0)
(0.00114461 -0.00209068 0)
(0.00165741 -0.00261193 0)
(0.00214167 -0.0032239 0)
(0.00248791 -0.00397179 1.77801e-21)
(0.00272364 -0.00471137 -1.43001e-20)
(0.00250132 -0.00534408 -1.51557e-20)
(0.00257644 -0.00464014 -6.30407e-20)
(0.000692155 -0.00358129 2.61698e-19)
(-0.00130815 -0.00142316 -2.68205e-19)
(-0.000741278 0.00123229 8.82829e-20)
(-0.0017685 0.00184615 1.542e-19)
(-0.00468216 0.00161502 3.24826e-20)
(-0.00609314 0.00291709 -2.801e-19)
(-0.00601218 0.00327297 3.65424e-19)
(-0.00588746 -0.000116584 -4.99511e-19)
(-0.00547078 -0.000410021 4.77956e-19)
(-0.00361847 0.000479085 -7.95632e-20)
(-0.00234623 2.7113e-05 -2.89092e-19)
(-0.00118627 0.000634452 7.63409e-21)
(-0.000612026 0.00250286 2.74462e-19)
(0.000343889 0.00394906 -2.12977e-19)
(0.0025673 0.00468309 9.13158e-20)
(0.00323678 0.00492235 -5.61329e-20)
(0.0036072 0.00463671 2.17577e-20)
(0.00339275 0.00432744 8.1744e-22)
(0.00290907 0.00390859 0)
(0.00243574 0.00334379 0)
(0.00191649 0.00279188 0)
(0.00148375 0.00227611 0)
(0.00113768 0.00178565 0)
(0.000884502 0.00131792 0)
(0.000733107 0.000847413 0)
(0.000602618 0.000431092 0)
(0.000538545 0.000172742 0)
(-0.000299048 -4.6003e-05 0)
(-0.000241036 -0.000353248 0)
(-0.000180777 -0.000643249 0)
(-5.52883e-05 -0.000931139 0)
(0.000195186 -0.00118191 0)
(0.000562493 -0.00151563 0)
(0.001028 -0.00193642 0)
(0.0015859 -0.00252585 0)
(0.00214259 -0.00331625 2.34098e-22)
(0.00292405 -0.00430759 -2.05975e-20)
(0.00389869 -0.00518106 -4.93735e-20)
(0.00497315 -0.00529568 1.3156e-20)
(0.00481907 -0.00634789 -5.101e-20)
(0.00459224 -0.00628986 2.47413e-19)
(0.00336522 -0.00342726 2.81223e-20)
(-0.00128293 -0.00050687 5.05526e-20)
(-0.00332795 -0.000970573 -3.58387e-19)
(-0.00449237 -0.00139469 2.01667e-19)
(-0.00599147 0.00106849 3.16127e-19)
(-0.00752315 0.00208859 -9.18362e-19)
(-0.00752577 5.24649e-05 3.9735e-19)
(-0.00617572 0.000463898 4.12516e-19)
(-0.00434596 0.00166823 -4.15441e-19)
(-0.002735 0.00202542 4.33423e-20)
(-0.000393205 0.00181821 1.96577e-19)
(0.0013158 0.00340835 1.35655e-19)
(0.00288085 0.00523954 -3.61309e-19)
(0.00313279 0.00609383 1.57229e-19)
(0.00388125 0.00541272 -3.07344e-20)
(0.0043183 0.00481234 -2.16326e-20)
(0.00422288 0.00413894 2.92879e-20)
(0.00354786 0.00363607 -4.80783e-21)
(0.00278846 0.00312864 0)
(0.00217684 0.0025759 0)
(0.00167985 0.00209676 0)
(0.00131368 0.00165529 0)
(0.00105724 0.00129678 0)
(0.000875805 0.000945078 0)
(0.000797174 0.000595354 0)
(0.000770027 7.20648e-05 0)
(-0.000380838 -0.000192162 0)
(-0.000362141 -0.000290297 0)
(-0.000308694 -0.000627707 0)
(-0.00024327 -0.000768861 0)
(-0.000112919 -0.00106908 0)
(0.000157617 -0.0013652 0)
(0.000541227 -0.00177813 0)
(0.00107091 -0.00242767 2.18791e-22)
(0.00190628 -0.00326717 -4.99638e-21)
(0.00327687 -0.00410775 -4.48594e-20)
(0.00476836 -0.00521015 -1.48774e-20)
(0.00580838 -0.00736223 3.13841e-20)
(0.0062389 -0.00848211 1.08453e-20)
(0.00598246 -0.00847558 2.41756e-20)
(0.00410314 -0.0104526 1.00704e-19)
(0.00226301 -0.00770668 -5.38507e-20)
(-0.00310737 -0.0019442 -6.7367e-19)
(-0.00326255 -0.00200282 -2.24622e-19)
(-0.00364611 -0.00104125 -1.62997e-19)
(-0.00494619 -0.00159573 1.1214e-20)
(-0.00529923 0.00243642 1.78131e-19)
(-0.00471976 0.00117349 -3.67539e-19)
(-0.00369694 0.00199557 -4.41651e-20)
(-0.00287319 0.00140197 -8.68677e-19)
(0.00138153 0.0026105 -5.78233e-21)
(0.00341853 0.00472313 -1.01802e-19)
(0.00167576 0.00554645 9.78284e-20)
(0.00360777 0.00575005 3.00774e-20)
(0.0031903 0.00533235 -1.57963e-19)
(0.0032799 0.00485322 1.06851e-19)
(0.00345166 0.00400219 -1.45104e-20)
(0.00326765 0.00325269 8.92296e-21)
(0.00260077 0.00286995 -1.07308e-21)
(0.00195718 0.0025397 0)
(0.00153859 0.00214165 0)
(0.00120921 0.0017877 0)
(0.00104901 0.00137054 0)
(0.000935912 0.00102726 0)
(0.000871746 0.000488737 0)
(0.000857372 0.000350293 0)
(-0.000584026 -8.60093e-05 0)
(-0.000591279 -0.000584307 0)
(-0.00062078 -0.000704632 0)
(-0.000628133 -0.00101251 0)
(-0.000592585 -0.00124077 0)
(-0.000506037 -0.00150145 0)
(-0.000270745 -0.00189902 0)
(0.000173116 -0.00245663 -2.97381e-21)
(0.00133109 -0.00303837 4.94082e-21)
(0.00292331 -0.00392569 -6.08982e-20)
(0.00443515 -0.00530347 -2.49229e-21)
(0.00580276 -0.00650423 9.99579e-20)
(0.00796189 -0.00842747 -2.23339e-20)
(0.00325598 -0.010601 7.42026e-20)
(0.00597619 -0.00999639 2.5258e-19)
(0.00672957 -0.00867588 -2.33361e-20)
(0.00259718 -0.0116393 2.31395e-19)
(-0.00224479 -0.00452508 -4.77701e-19)
(-0.00373654 -0.00328141 -1.19168e-19)
(-0.00419548 -0.00129429 -9.89308e-19)
(-0.00325611 0.00150063 3.13807e-19)
(-0.00315802 0.000432968 -8.85818e-20)
(-0.0031989 0.00133122 -6.87422e-19)
(-0.00334282 0.00357986 1.92931e-19)
(-7.24001e-05 0.00525052 3.43083e-19)
(0.00331842 0.00382554 8.46921e-21)
(0.00379354 0.00193389 -1.01315e-19)
(0.00242108 0.00409852 1.14231e-19)
(0.00106123 0.00389559 -6.49756e-20)
(0.00106615 0.0044251 3.47613e-20)
(0.00117562 0.00397141 -7.90446e-20)
(0.00149589 0.00332945 2.13714e-20)
(0.00164206 0.00283745 -5.53806e-21)
(0.00133197 0.00268777 0)
(0.0010832 0.00233915 0)
(0.000946305 0.00186181 0)
(0.000848144 0.00146094 0)
(0.000822223 0.00105047 0)
(0.000806723 0.000767599 0)
(0.000845464 2.30214e-06 0)
(-0.000778262 -0.000117781 0)
(-0.000837597 -0.000419285 0)
(-0.000894308 -0.000882063 0)
(-0.000980292 -0.00130397 0)
(-0.00110968 -0.00151849 0)
(-0.00125702 -0.00184175 0)
(-0.00135351 -0.00214038 6.08083e-22)
(-0.000979861 -0.00268526 -1.19417e-20)
(0.000229442 -0.00329003 8.27637e-22)
(0.00142116 -0.00436648 3.35543e-20)
(0.00231177 -0.00635812 -2.0563e-20)
(0.0030362 -0.0081505 -3.64595e-21)
(0.00362751 -0.0145836 -9.7333e-21)
(0.00400458 -0.0155479 1.78017e-20)
(0.00187676 -0.0116231 2.55943e-19)
(-0.00226428 -0.0118398 1.43927e-19)
(-0.00119836 -0.0149535 -9.01004e-20)
(-0.0027331 -0.0121597 3.94969e-19)
(-0.0059231 -0.00529943 -2.51966e-20)
(-0.00548909 -0.00349092 3.0451e-19)
(-0.00487256 -0.000674522 1.17602e-19)
(-0.00516698 0.000959169 -2.05744e-19)
(-0.00406764 0.00244365 1.39891e-19)
(-0.0062841 0.000380902 1.50104e-19)
(-0.00178913 0.00519564 -2.97714e-20)
(-0.00739013 0.00420927 3.05751e-19)
(-0.00392337 0.00156062 2.90985e-20)
(-0.0041857 0.00569586 -2.39286e-20)
(-0.00335859 0.00218319 3.49587e-20)
(-0.00296375 0.00358776 2.93093e-20)
(-0.00227796 0.00379642 -5.0744e-20)
(-0.00123256 0.00373172 2.14057e-20)
(-0.000101647 0.00336163 -1.18002e-20)
(0.000362193 0.00321572 3.3853e-22)
(0.000489097 0.00307005 0)
(0.000609328 0.00264184 0)
(0.000707955 0.00223385 0)
(0.000750832 0.00159407 0)
(0.000788444 0.000985371 0)
(0.000790457 0.000467858 0)
(-0.000719286 -0.000552703 0)
(-0.000830011 -0.000896177 0)
(-0.000973718 -0.00138111 0)
(-0.00135967 -0.00140971 0)
(-0.00171227 -0.00178847 0)
(-0.00215612 -0.00209242 0)
(-0.00247385 -0.00274067 2.22415e-21)
(-0.00207867 -0.00347365 -1.38961e-20)
(-0.00105917 -0.00439882 9.98425e-21)
(-0.00061505 -0.00609175 1.24074e-20)
(-0.000684605 -0.00742901 2.59187e-20)
(0.000118147 -0.00972395 -5.54049e-20)
(0.00208468 -0.0204632 2.35314e-20)
(-0.00294388 -0.0171178 1.01145e-20)
(-0.000924395 -0.0160421 3.01807e-20)
(-0.00199023 -0.0194664 3.87866e-20)
(-0.0085646 -0.0122898 5.16693e-20)
(-0.0101077 -0.0100937 -1.54096e-19)
(-0.00827792 -0.00551959 6.12976e-20)
(-0.00772091 -0.00132957 -2.27068e-19)
(-0.00472741 0.000195395 -2.65983e-19)
(-0.00542397 -0.00114489 -1.90062e-20)
(-0.00685489 -0.0014857 9.22795e-20)
(-0.00993228 -0.00054991 -2.19154e-19)
(-0.0118087 0.00108737 4.61027e-22)
(-0.0111792 0.0043468 7.97837e-20)
(-0.00990467 0.00275721 -4.15984e-20)
(-0.0112739 0.00920049 -3.5158e-20)
(-0.0104768 0.00397423 3.27191e-20)
(-0.00883277 0.00416965 -3.77134e-21)
(-0.00657759 0.00440655 -1.591e-20)
(-0.00434917 0.00485163 -1.97607e-21)
(-0.00218233 0.00463057 2.77768e-21)
(-0.000715524 0.0042323 3.38062e-21)
(-0.00015413 0.00388272 0)
(0.00018292 0.00332557 0)
(0.000460702 0.00258389 0)
(0.000743762 0.00216501 0)
(0.000888839 0.0011935 0)
(0.00102152 0.00059747 0)
(-0.000385447 -2.84208e-05 0)
(-0.000565639 -0.000791538 0)
(-0.000828217 -0.00130138 0)
(-0.00117837 -0.00197831 0)
(-0.00161476 -0.00256092 0)
(-0.00214376 -0.0031979 0)
(-0.00253962 -0.00416403 1.30242e-23)
(-0.0022649 -0.00506274 4.00131e-21)
(-0.00162994 -0.00605676 -1.05861e-20)
(-0.00114547 -0.00847622 8.86307e-21)
(-0.00146796 -0.0106257 -2.17786e-21)
(-0.00292522 -0.0108444 1.2762e-21)
(-0.00357059 -0.015606 1.10921e-21)
(0.00334837 -0.0190099 2.91994e-20)
(-0.00589695 -0.0176691 -4.20713e-21)
(-0.00450364 -0.0170129 -4.61918e-21)
(-0.00905101 -0.0170168 -5.30143e-21)
(-0.0149592 -0.0110009 -1.1152e-20)
(-0.0169051 -0.00356547 -3.7746e-21)
(-0.0129526 0.00606645 1.91697e-19)
(-0.00192121 0.00724974 -8.2456e-19)
(0.000313276 -0.00360698 4.30976e-19)
(-0.00863055 -0.00738242 2.12884e-20)
(-0.0147042 -0.00461776 -7.05554e-21)
(-0.0161468 0.00305283 1.75672e-20)
(-0.017968 0.00713014 -1.19299e-20)
(-0.0181884 0.00290965 5.11752e-20)
(-0.018975 0.00704572 2.37798e-21)
(-0.0173884 0.00591508 -1.40984e-20)
(-0.014088 0.00690061 -1.72579e-20)
(-0.0100456 0.00745152 2.36447e-20)
(-0.00685157 0.00723882 -1.59906e-21)
(-0.00378402 0.00655404 7.31412e-22)
(-0.00118108 0.00601465 -2.29777e-21)
(-6.30813e-05 0.00538668 0)
(0.000411764 0.00439372 0)
(0.000753977 0.00330714 0)
(0.00109964 0.00220572 0)
(0.00139993 0.00148176 0)
(0.001609 5.32014e-05 0)
(5.01633e-05 -0.000220325 0)
(0.000162046 -0.00139935 0)
(-7.70685e-05 -0.00179992 0)
(-0.00015518 -0.00263782 0)
(-0.000619939 -0.00327031 0)
(-0.00127603 -0.00412617 0)
(-0.00152232 -0.00540345 -5.7081e-23)
(-0.00061402 -0.00672455 -2.78328e-22)
(0.000189808 -0.00830275 1.20671e-21)
(0.000518088 -0.0107547 -2.24761e-22)
(0.00140965 -0.0145442 -4.98021e-21)
(0.000493911 -0.0154895 5.31452e-22)
(-0.00108094 -0.018701 2.04666e-21)
(-0.00241093 -0.0215599 1.22691e-20)
(-0.00652928 -0.0222402 -2.05735e-20)
(-0.00872149 -0.0252714 -5.51675e-20)
(-0.0164303 -0.0234681 1.50641e-20)
(-0.0247189 -0.0186938 -2.97741e-21)
(-0.0256654 -0.00993435 -6.96403e-19)
(-0.024656 -0.0312601 8.86725e-19)
(-0.0273266 -0.00571797 -6.48727e-21)
(-0.0271905 -0.00056035 5.14366e-20)
(-0.0281163 0.000781771 -1.74351e-20)
(-0.0289255 0.00810133 4.85005e-22)
(-0.0253273 0.00616412 -2.62745e-21)
(-0.0211391 0.00826655 2.83159e-22)
(-0.0160839 0.0114198 -6.7092e-22)
(-0.0108908 0.0114588 1.76692e-21)
(-0.00706213 0.0103073 -8.14607e-22)
(-0.0035736 0.00916211 3.6471e-22)
(-0.000460333 0.00805799 1.4098e-22)
(0.00123381 0.00708778 0)
(0.00185454 0.00584875 0)
(0.00221352 0.00472122 0)
(0.00234567 0.00342785 0)
(0.0025637 0.00246291 0)
(0.0023897 0.00107821 0)
(0.00147724 -0.00158384 0)
(0.00146427 -0.00142196 0)
(0.00167509 -0.00229501 0)
(0.00146247 -0.00279268 0)
(0.00128908 -0.00361126 0)
(0.00129796 -0.00480099 0)
(0.00183638 -0.00644449 -5.95908e-22)
(0.00325223 -0.00798288 6.07586e-23)
(0.00627208 -0.0105813 7.0971e-21)
(0.0102387 -0.0136689 -3.46089e-21)
(0.0109343 -0.0188467 -1.18526e-20)
(0.0137237 -0.0224307 1.13712e-20)
(0.0112497 -0.0243788 1.12925e-20)
(0.00825053 -0.024877 -4.04806e-21)
(0.00377075 -0.0256511 -3.0901e-20)
(-0.00023717 -0.0302754 -1.55386e-20)
(-0.012965 -0.0329342 1.6287e-20)
(-0.0170375 -0.0339977 -6.47877e-21)
(-0.000681695 -0.0258713 -8.48219e-18)
(-0.0110781 -0.0212223 -6.34069e-19)
(-0.0439659 0.00488019 -4.89763e-21)
(-0.0298991 0.00891845 -9.88882e-21)
(-0.024956 0.00537644 -1.82773e-20)
(-0.0262778 0.0120266 -3.58316e-21)
(-0.0218896 0.00890102 -1.56616e-20)
(-0.0161875 0.0138256 1.07161e-22)
(-0.0141261 0.0155184 1.10941e-20)
(-0.00676726 0.0142714 -4.79472e-21)
(-0.00478025 0.0127881 -5.94909e-22)
(-0.000970896 0.0117698 5.2588e-21)
(0.00233113 0.0100309 -2.86243e-22)
(0.00363473 0.00822902 0)
(0.00391147 0.00639829 0)
(0.00416753 0.00492909 0)
(0.00452329 0.00398755 0)
(0.00442471 0.00219646 0)
(0.00463701 0.00141574 0)
(0.00413957 0.00077863 1.9291e-23)
(0.00386253 -0.000543615 0)
(0.00382883 -0.00150189 0)
(0.00429496 -0.00213252 0)
(0.00529657 -0.00306858 0)
(0.00636495 -0.0043901 0)
(0.00782761 -0.00603841 9.74291e-22)
(0.0105441 -0.00758528 2.22729e-21)
(0.0159211 -0.00899063 9.99001e-21)
(0.0225729 -0.0145264 -4.97483e-20)
(0.0276472 -0.0187706 4.40735e-20)
(0.0258099 -0.0245991 1.0084e-20)
(0.0242424 -0.0315103 -4.81441e-21)
(0.0222214 -0.0267997 -8.26847e-20)
(0.0217642 -0.033323 -2.23773e-19)
(-0.00182186 -0.0464246 -8.71105e-20)
(-0.00193733 -0.0482809 -1.16228e-19)
(-0.0584819 -0.0363931 4.21706e-20)
(-0.0194588 0.0101923 1.10824e-19)
(-0.0515645 -0.0157667 3.86435e-19)
(-0.0598898 0.0206634 8.40329e-20)
(-0.0230238 0.0225495 -5.09152e-20)
(-0.0119027 0.0135062 -1.44693e-19)
(-0.00867371 0.0142554 -7.39003e-20)
(-0.018307 0.0172346 3.04255e-20)
(-0.0148111 0.0171737 7.48885e-20)
(-0.00559465 0.0146735 -4.99519e-20)
(-0.00310766 0.0149208 -6.83573e-21)
(-0.000522001 0.0117987 1.92289e-21)
(0.00358005 0.0133037 4.87347e-21)
(0.00763769 0.0113844 1.85771e-22)
(0.00903618 0.00912791 0)
(0.00816009 0.00686219 0)
(0.00763908 0.00494557 0)
(0.00744057 0.00344785 0)
(0.0074715 0.00204609 0)
(0.00772829 -7.43788e-05 0)
(0.00612336 0.00196265 -3.26406e-25)
(0.00631091 0.000162873 0)
(0.00625164 -0.000402745 0)
(0.0069075 -0.000607273 0)
(0.00825177 -0.00117721 0)
(0.0102714 -0.00267779 0)
(0.0137907 -0.00414458 -1.47787e-21)
(0.0184467 -0.00633329 -1.58932e-22)
(0.0277216 -0.00637128 1.53581e-21)
(0.0383769 -0.00731721 -2.15411e-20)
(0.047879 -0.0131104 -3.1709e-20)
(0.0444283 -0.0197246 -1.49165e-20)
(0.0565439 -0.0315383 6.6249e-20)
(0.0631361 -0.00234373 1.66271e-20)
(0.0524228 -0.0365882 2.4306e-19)
(0.0190514 -0.0766223 9.17042e-20)
(0.0186267 -0.0585604 4.98183e-19)
(-0.108021 -0.0685547 -3.21896e-20)
(0.10593 -0.0952627 -1.66971e-20)
(-0.25795 0.15204 1.22797e-19)
(0.0682 -0.0196648 -7.55017e-21)
(-0.37347 -0.121414 -1.74059e-19)
(-0.0911364 0.0148147 2.21586e-19)
(-0.0550382 0.0308488 -1.50896e-20)
(-0.00279877 0.0364381 -7.8976e-20)
(0.006127 0.00981927 2.14468e-21)
(0.0295891 -0.010763 5.29551e-20)
(0.00228003 0.0161669 1.39696e-19)
(-0.00412384 0.00980732 -1.00506e-19)
(0.00489209 0.00987286 -5.35764e-20)
(0.00455672 0.00913348 2.99021e-20)
(0.00637292 0.0114661 -4.32776e-20)
(0.00881015 0.0145681 2.45697e-20)
(0.0138894 0.0117225 1.95545e-21)
(0.014013 0.00923321 0)
(0.0131547 0.00655364 0)
(0.0125342 0.00501218 0)
(0.011958 0.00363291 0)
(0.0122907 0.00206457 0)
(0.0124122 -0.000425068 0)
(0.00717216 0.00138676 7.13247e-21)
(0.00830994 0.000878674 0)
(0.0098742 0.00110035 0)
(0.0111716 0.00201253 0)
(0.0134555 0.00237392 0)
(0.0153186 0.00318335 0)
(0.0170224 -0.00043323 3.22992e-23)
(0.0248721 -0.00145925 1.0344e-21)
(0.0354449 -0.00376453 -1.50885e-20)
(0.0402881 -0.002544 -5.31565e-21)
(0.0463751 -0.0261179 2.13227e-20)
(0.0639469 -0.0236043 -1.0083e-19)
(0.0808629 0.0223481 1.37211e-19)
(0.0602802 -0.0352924 5.20005e-21)
(0.0428528 -0.0554381 7.36018e-20)
(0.0751014 -0.0409028 1.11478e-19)
(0.0104945 -0.0959226 9.59086e-20)
(-0.316727 -0.220466 5.18345e-19)
(-0.628808 0.290534 -4.73569e-19)
(0.785128 -0.998151 -2.7143e-18)
(-0.632484 0.0189021 5.98977e-19)
(-0.475818 -0.105353 7.0071e-19)
(-0.0559486 0.115436 -7.88226e-19)
(-0.112953 0.0348517 -2.56454e-19)
(0.0230787 0.0283793 -9.17786e-20)
(-0.00194535 0.0669163 2.84058e-19)
(-0.0522213 0.0534423 2.58679e-20)
(0.0172071 -0.047588 1.7287e-19)
(-0.00361919 0.0118825 -1.0276e-19)
(-0.0112493 0.0232902 -1.01376e-20)
(-0.00160581 0.00627719 -6.46384e-21)
(0.00860085 0.0116609 1.55678e-20)
(0.0134403 0.0118082 -3.53743e-21)
(0.0178715 0.0104423 -4.05281e-23)
(0.0199314 0.0055733 0)
(0.019171 0.00466241 0)
(0.0180959 0.00320717 0)
(0.0174415 0.00231376 0)
(0.0161006 0.000879331 0)
(0.0147612 -0.00110115 6.21205e-21)
(0.0100001 -0.00125804 1.09586e-20)
(0.00850616 0.00253873 0)
(0.0103503 0.00451458 0)
(0.0122003 0.0064119 0)
(0.0129078 0.00646215 0)
(0.013997 0.00536322 0)
(0.0224319 0.00525488 0)
(0.0346279 0.0072069 -1.56738e-21)
(0.0495102 0.0120703 -2.99378e-21)
(0.0633974 -0.00445545 2.14178e-20)
(0.0687106 -0.00443411 -3.35499e-20)
(0.0706871 -0.0401283 -2.35111e-20)
(0.0578714 -0.0438579 2.41118e-20)
(0.0893544 0.00439678 -1.82628e-20)
(0.129285 -0.00223352 7.65478e-20)
(0.058071 -0.171531 -1.23428e-19)
(0.183219 -0.0419147 3.75078e-19)
(0.637396 0.540205 6.57689e-18)
(-0.0492457 -1.09021 1.67403e-18)
(0.0275949 2.2428 7.27708e-19)
(-1.59637 -1.0245 1.30287e-19)
(0.917503 -0.870245 -5.26218e-19)
(-2.05734 0.465661 -1.20167e-18)
(0.33247 0.0284295 4.01951e-18)
(-0.0768797 0.0545559 -5.70377e-20)
(0.0333062 0.0292809 2.307e-19)
(0.00956829 -0.0305234 4.53955e-20)
(-0.0278204 0.0225633 -7.19052e-21)
(-0.0142886 0.0273099 -7.71258e-20)
(0.00089558 0.00168465 4.63993e-20)
(0.0121546 0.00867242 -1.51543e-20)
(0.0181628 -0.00341859 1.02071e-20)
(0.0232195 0.00486105 -6.42057e-22)
(0.0236213 0.00693772 0)
(0.0203664 0.004624 0)
(0.0207331 0.00177256 0)
(0.0204796 6.03824e-05 0)
(0.018881 2.80258e-05 0)
(0.0175758 0.000196372 0)
(0.019326 0.00149719 -1.22332e-20)
(0.00767558 -0.000330218 -6.48996e-22)
(0.00703259 0.00260431 0)
(0.00772186 0.00339029 0)
(0.00849979 0.00517709 0)
(0.0102008 0.00737456 0)
(0.0124202 0.00842948 0)
(0.0133535 0.00646121 0)
(0.0202648 0.0122451 0)
(0.0376843 0.0135499 -9.81093e-22)
(0.0601346 0.0213681 -3.90422e-21)
(0.0862576 0.0185741 -4.5356e-21)
(0.0989885 0.0152781 5.51739e-20)
(0.111674 -0.0459971 -7.69778e-20)
(0.0819903 -0.0251905 4.63798e-20)
(0.0600586 -0.00315472 -1.9416e-19)
(0.14539 0.0981879 -7.41492e-20)
(-0.260469 -0.117117 -3.5682e-19)
(0.763408 -0.443267 -6.279e-19)
(-2.02319 0.743846 1.73107e-18)
(-1.39049 -4.21162 -8.36212e-19)
(3.86618 0.637349 2.41717e-19)
(-3.2273 3.63092 9.58787e-19)
(0.265146 -1.77216 -5.1816e-19)
(0.134177 0.207523 -4.23408e-18)
(0.141052 0.0420163 2.75474e-20)
(0.0161541 -0.0742274 2.62323e-19)
(-0.028097 -0.000778395 6.02948e-20)
(0.00334625 0.0283483 6.41577e-20)
(0.00358606 -0.0220844 -7.97267e-20)
(0.00874481 -0.0153898 -1.71742e-20)
(0.00154354 -0.0123475 6.68331e-21)
(0.00273908 0.000104462 3.53171e-21)
(0.00656233 0.0043297 0)
(0.0165113 0.0077694 0)
(0.0224509 0.00303635 0)
(0.0218706 0.00188552 0)
(0.0205998 0.00176488 -1.2891e-21)
(0.0202534 0.00152438 -1.78274e-21)
(0.0195959 0.000446579 -1.06307e-21)
(0.0195947 0.00140068 0)
(0.00444749 0.00165791 0)
(0.00372749 0.00408804 0)
(0.0047892 0.00730703 0)
(0.00625526 0.00853862 0)
(0.00738416 0.0111035 0)
(0.010995 0.0153765 0)
(0.0185467 0.0174948 0)
(0.0258886 0.010586 0)
(0.0311695 0.00366453 9.87736e-25)
(0.0414608 0.00627986 9.61479e-22)
(0.0570346 0.017758 -9.32385e-22)
(0.0870664 0.0172712 -4.50324e-21)
(0.0951538 0.00692598 -8.66718e-20)
(0.0998263 -0.0103927 -3.92215e-20)
(0.168541 -0.0161319 -6.11071e-20)
(-0.00660729 -0.159231 1.11774e-19)
(0.0136606 -0.00373528 -6.38576e-19)
(-0.865918 -0.810057 -7.2798e-19)
(2.28868 0.927847 -2.30887e-20)
(-0.115714 4.94224 -4.32265e-19)
(-3.5122 -0.58796 6.88894e-19)
(1.01919 -5.09583 3.87428e-19)
(1.47904 0.0772349 -1.47066e-19)
(-0.948827 0.0532164 3.02277e-20)
(-0.28524 -0.0844359 -1.38811e-19)
(0.0115467 0.0551135 3.55987e-20)
(-0.021235 -0.00527266 -1.05405e-21)
(-0.0144367 -0.00966446 -4.89903e-20)
(-0.0067665 -0.010516 1.53097e-21)
(-0.0225169 -0.00463377 -7.83586e-21)
(-0.0171342 0.00818269 -1.87422e-22)
(-0.00328937 0.013511 9.14765e-24)
(0.0147972 0.00552349 0)
(0.0261919 -0.0031135 0)
(0.0264019 -0.00311609 0)
(0.0243276 -0.00125045 0)
(0.0230565 -0.00128534 0)
(0.0214583 -0.00218714 0)
(0.0199849 -0.000944189 0)
(0.0205523 -0.000593386 1.9146e-22)
(-0.00368117 0.00120398 0)
(-0.00252186 0.00247017 0)
(-0.00513843 0.00517826 0)
(-0.00474364 0.0093213 0)
(-0.00214698 0.0136196 0)
(0.00145937 0.0189271 0)
(0.0104457 0.0262862 0)
(0.0287517 0.030196 0)
(0.041716 0.0253697 0)
(0.0541833 0.023053 0)
(0.0689919 0.0146455 -6.11553e-22)
(0.086564 0.0199705 1.42843e-21)
(0.11905 0.043583 -4.84711e-21)
(0.10886 0.0046954 1.56571e-20)
(0.041458 -0.0209582 -3.7429e-19)
(0.418553 0.120395 -1.11308e-19)
(1.23603 0.157821 1.102e-20)
(-1.32448 -0.0541105 6.88473e-19)
(-1.35404 -2.34546 -3.19773e-19)
(0.858613 -2.99872 -1.40388e-18)
(1.59347 0.330539 -2.35728e-19)
(0.270709 3.21449 -1.24259e-18)
(-1.63628 1.71939 1.32918e-19)
(-0.72971 -0.0797202 -2.16553e-20)
(0.643346 -0.453735 -1.05582e-18)
(0.0456525 -0.118691 -9.13385e-20)
(0.0014122 -0.00606099 -7.1135e-21)
(0.0203792 -0.0312155 -2.41937e-21)
(-0.000966197 -0.00368747 1.23547e-20)
(-0.00658865 0.0013365 2.1931e-22)
(-5.90574e-05 -0.00486744 0)
(0.0104139 -0.00833725 0)
(0.0210138 -0.0141695 0)
(0.0225818 -0.0116242 0)
(0.0217892 -0.00655757 0)
(0.019286 -0.00366008 0)
(0.016337 -0.00192051 0)
(0.0156943 3.07357e-05 0)
(0.0176181 0.000652104 0)
(0.0161116 -8.49141e-05 0)
(-0.00486766 0.00196857 0)
(-0.00309143 0.00542268 0)
(-0.00246634 0.00687934 0)
(-0.00488724 0.00800918 0)
(-0.00696471 0.0108232 0)
(-0.00733811 0.0146941 0)
(-0.000871724 0.0198342 0)
(0.0159041 0.0289516 0)
(0.0303652 0.0335297 0)
(0.0378695 0.0378949 0)
(0.0484462 0.0368913 0)
(0.0545518 0.040966 2.42276e-22)
(0.0829768 0.0529972 4.80681e-22)
(0.151036 0.109909 -7.39756e-21)
(0.155453 0.0250239 -1.70656e-19)
(0.026393 -0.340432 4.37155e-19)
(-0.20696 -0.180569 -1.23781e-19)
(1.90285 1.22982 -1.73609e-19)
(-0.490363 1.5278 1.15535e-20)
(-1.30954 0.791266 -9.38906e-19)
(-1.34972 -0.1556 3.01271e-19)
(-1.29801 -1.16548 5.08818e-19)
(-0.0480557 -1.54661 3.6814e-19)
(2.06335 -1.0933 -5.86979e-21)
(-1.16015 0.576061 1.33634e-19)
(-0.0560884 -0.0213152 -7.03735e-20)
(0.0414577 -0.0707676 1.25045e-20)
(-0.0113406 -0.0260719 4.26358e-21)
(-0.0282736 -0.0181303 -3.43629e-22)
(-0.0225594 -0.0190538 0)
(-0.0116991 -0.0186781 0)
(0.0035164 -0.0167149 0)
(0.0130002 -0.0132695 0)
(0.0152519 -0.00636012 0)
(0.0171705 -0.00371689 0)
(0.0181109 -0.00240475 0)
(0.0191481 -0.00197625 0)
(0.0205709 -0.00285366 0)
(0.0193596 -0.00303089 0)
(0.0179779 -0.00120589 0)
(-0.0140089 4.40178e-05 0)
(-0.0139581 0.004423 0)
(-0.0118259 0.00943252 0)
(-0.0096434 0.013331 0)
(-0.00900171 0.0153416 0)
(-0.00886535 0.017457 0)
(-0.00712237 0.0184804 0)
(0.00281116 0.0247613 0)
(0.0239503 0.0350037 0)
(0.0446794 0.0445997 0)
(0.0548204 0.0490545 -8.53049e-21)
(0.0765399 0.0651374 0)
(0.0570514 0.0577264 0)
(0.0267908 0.0569869 -1.61219e-19)
(-0.0563483 0.0603652 -2.21124e-19)
(1.16082 0.391432 -2.46972e-19)
(-1.25992 -1.45484 -3.27008e-20)
(-2.6716 -2.17014 2.62712e-20)
(-0.870244 -0.841777 -2.11631e-19)
(0.825158 -0.308974 -3.39218e-18)
(1.50276 0.278671 -4.11106e-19)
(-0.137968 0.492007 -2.27478e-19)
(-2.08061 1.86094 8.46191e-20)
(-2.54229 2.64733 1.63289e-20)
(0.971434 0.336572 2.22857e-21)
(-0.211563 -0.0225153 1.00775e-19)
(-0.0764527 -0.0268576 -3.21752e-19)
(-0.0236992 -0.0162388 0)
(-0.00623301 -0.0431115 0)
(-0.0116831 -0.0286885 -3.60418e-21)
(-0.003191 -0.0261014 0)
(-0.00100891 -0.0206087 0)
(0.00227451 -0.0121787 0)
(0.0125606 -0.008189 0)
(0.0185177 -0.00934914 0)
(0.0183404 -0.00899672 0)
(0.0162275 -0.00867745 0)
(0.0131037 -0.00614815 2.12163e-22)
(0.0104633 -0.00256234 1.52208e-22)
(0.00968282 0.000358081 0)
(-0.00934878 0.00180371 0)
(-0.011264 0.00220944 0)
(-0.0139333 0.00485821 0)
(-0.0151352 0.00960702 0)
(-0.0157719 0.0154655 0)
(-0.0146919 0.0212617 0)
(-0.00838126 0.0260909 0)
(-0.000175952 0.0265746 0)
(0.00672027 0.0299747 0)
(0.0169989 0.0417577 0)
(0.0291305 0.0646542 -1.87397e-20)
(0.0303395 0.065099 0)
(0.0672565 0.112181 0)
(0.167424 0.205275 -1.09185e-19)
(-0.0134849 0.00214046 2.01932e-18)
(-1.28539 -0.299036 -3.95907e-19)
(-0.172103 2.09762 0)
(1.06742 2.62262 -4.24825e-20)
(1.52867 1.77628 1.38207e-18)
(2.12116 0.662592 2.74644e-18)
(1.96954 -0.583247 8.57938e-19)
(1.39972 -1.7851 6.28918e-19)
(0.904597 -2.53074 -1.81737e-20)
(-0.262373 -1.87262 0)
(-1.31601 0.433566 -4.45979e-19)
(-0.0980387 0.0308068 1.08234e-18)
(0.0719578 -0.122651 -5.80727e-20)
(-0.0180468 -0.0626704 0)
(-0.0485783 -0.0358719 0)
(-0.0333783 -0.0383481 -7.03576e-21)
(-0.0287433 -0.0233235 0)
(-0.0159399 -0.0181468 0)