/*--------------------------------*- C++ -*----------------------------------*\
| =========                 |                                                 |
| \\      /  F ield         | OpenFOAM: The Open Source CFD Toolbox           |
|  \\    /   O peration     | Version:  v2106                                 |
|   \\  /    A nd           | Website:  www.openfoam.com                      |
|    \\/     M anipulation  |                                                 |
\*---------------------------------------------------------------------------*/
FoamFile
{
    version     2.0;
    format      ascii;
    arch        "LSB;label=32;scalar=64";
    class       pointVectorField;
    location    "0";
    object      pointDisplacement;
}
// * * * * * * * * * * * * * * * * * * * * * * * * * * * * * * * * * * * * * //

dimensions      [0 1 0 0 0 0 0];

internalField   nonuniform List<vector> 
24440
(
(0 0 0)
(0 0 0)
(0 0 0)
(0 0 0)
(0 0 0)
(0 0 0)
(0 0 0)
(0 0 0)
(0 0 0)
(0 0 0)
(0 0 0)
(0 0 0)
(0 0 0)
(0 0 0)
(0 0 0)
(0 0 0)
(0 0 0)
(0 0 0)
(0 0 0)
(0 0 0)
(0 0 0)
(0 0 0)
(0 0 0)
(0 0 0)
(0 0 0)
(0 0 0)
(0 0 0)
(0 0 0)
(0 0 0)
(0 0 0)
(0 0 0)
(0 0 0)
(0 0 0)
(0 0 0)
(0 0 0)
(0 0 0)
(0 0 0)
(0 0 0)
(0 0 0)
(0 0 0)
(0 0 0)
(0 0 0)
(0 0 0)
(0 0 0)
(0 0 0)
(0 0 0)
(0 0 0)
(0 0 0)
(0 0 0)
(0 0 0)
(0 0 0)
(0 0 0)
(0 0 0)
(0 0 0)
(0 0 0)
(0 0 0)
(0 0 0)
(0 0 0)
(0 0 0)
(0 0 0)
(0 0 0)
(0 0 0)
(0 0 0)
(0 0 0)
(0 0 0)
(0 0 0)
(0 0 0)
(0 0 0)
(0 0 0)
(0 0 0)
(0 0 0)
(0 0 0)
(0 0 0)
(0 0 0)
(0 0 0)
(0 0 0)
(0 0 0)
(0 0 0)
(0 0 0)
(0 0 0)
(0 0 0)
(0 0 0)
(0 0 0)
(0 0 0)
(0 0 0)
(0 0 0)
(0 0 0)
(0 0 0)
(0 0 0)
(0 0 0)
(0 0 0)
(0 0 0)
(0 0 0)
(0 0 0)
(0 0 0)
(0 0 0)
(0 0 0)
(0 0 0)
(0 2.46131e-06 0)
(0 1.55212e-05 0)
(0 4.26799e-05 0)
(0 6.57676e-05 0)
(0 7.4628e-05 0)
(0 6.57676e-05 0)
(0 4.26799e-05 0)
(0 1.55212e-05 0)
(0 2.46131e-06 0)
(0 0 0)
(0 0 0)
(0 0 0)
(0 0 0)
(0 0 0)
(0 0 0)
(0 0 0)
(0 0 0)
(0 0 0)
(0 0 0)
(0 0 0)
(0 0 0)
(0 0 0)
(0 0 0)
(0 0 0)
(0 0 0)
(0 0 0)
(0 0 0)
(0 0 0)
(0 0 0)
(0 0 0)
(0 0 0)
(0 0 0)
(0 0 0)
(0 0 0)
(0 0 0)
(0 0 0)
(0 0 0)
(0 0 0)
(0 4.12203e-06 0)
(0 5.45275e-05 0)
(0 0.00016047 0)
(0 0.000289077 0)
(0 0.000412341 0)
(0 0.000498274 0)
(0 0.000578157 0)
(0 0.000606265 0)
(0 0.000578157 0)
(0 0.000498274 0)
(0 0.000412341 0)
(0 0.000289077 0)
(0 0.00016047 0)
(0 5.45275e-05 0)
(0 4.12203e-06 0)
(0 0 0)
(0 0 0)
(0 0 0)
(0 0 0)
(0 0 0)
(0 0 0)
(0 0 0)
(0 0 0)
(0 0 0)
(0 0 0)
(0 0 0)
(0 0 0)
(0 0 0)
(0 0 0)
(0 0 0)
(0 0 0)
(0 0 0)
(0 0 0)
(0 0 0)
(0 0 0)
(0 0 0)
(0 0 0)
(0 0 0)
(0 0 0)
(0 1.73066e-06 0)
(0 7.17088e-05 0)
(0 0.00024455 0)
(0 0.000482249 0)
(0 0.000727079 0)
(0 0.00100022 0)
(0 0.00123678 0)
(0 0.00138329 0)
(0 0.00152338 0)
(0 0.0015718 0)
(0 0.00152338 0)
(0 0.00138329 0)
(0 0.00123678 0)
(0 0.00100022 0)
(0 0.000727079 0)
(0 0.000482249 0)
(0 0.00024455 0)
(0 7.17088e-05 0)
(0 1.73066e-06 0)
(0 0 0)
(0 0 0)
(0 0 0)
(0 0 0)
(0 0 0)
(0 0 0)
(0 0 0)
(0 0 0)
(0 0 0)
(0 0 0)
(0 0 0)
(0 0 0)
(0 0 0)
(0 0 0)
(0 0 0)
(0 0 0)
(0 0 0)
(0 0 0)
(0 0 0)
(0 0 0)
(0 0 0)
(0 1.63643e-05 0)
(0 0.000170179 0)
(0 0.00045226 0)
(0 0.000793497 0)
(0 0.00121718 0)
(0 0.0016445 0)
(0 0.00201469 0)
(0 0.00236147 0)
(0 0.00260755 0)
(0 0.00275458 0)
(0 0.00282207 0)
(0 0.00275458 0)
(0 0.00260755 0)
(0 0.00236147 0)
(0 0.00201469 0)
(0 0.0016445 0)
(0 0.00121718 0)
(0 0.000793497 0)
(0 0.00045226 0)
(0 0.000170179 0)
(0 1.73243e-05 0)
(0 0 0)
(0 0 0)
(0 0 0)
(0 0 0)
(0 0 0)
(0 0 0)
(0 0 0)
(0 0 0)
(0 0 0)
(0 0 0)
(0 0 0)
(0 0 0)
(0 0 0)
(0 0 0)
(0 0 0)
(0 0 0)
(0 0 0)
(0 0 0)
(0 0 0)
(0 3.21848e-05 0)
(0 0.00022568 0)
(0 0.000563269 0)
(0 0.00103407 0)
(0 0.00159361 0)
(0 0.00217505 0)
(0 0.00270863 0)
(0 0.00321447 0)
(0 0.00340454 0)
(0 0.00361009 0)
(0 0.00378203 0)
(0 0.00391749 0)
(0 0.00401436 0)
(0 0.00408135 0)
(0 0.00414323 0)
(0 0.00416395 0)
(0 0.00414323 0)
(0 0.00408135 0)
(0 0.00401436 0)
(0 0.00391749 0)
(0 0.00378203 0)
(0 0.00361009 0)
(0 0.00340454 0)
(0 0.00321447 0)
(0 0.00270863 0)
(0 0.00217505 0)
(0 0.00159361 0)
(0 0.00103407 0)
(0 0.000551577 0)
(0 0.000203925 0)
(0 2.57178e-05 0)
(0 0 0)
(0 0 0)
(0 0 0)
(0 0 0)
(0 0 0)
(0 0 0)
(0 0 0)
(0 0 0)
(0 0 0)
(0 0 0)
(0 0 0)
(0 0 0)
(0 0 0)
(0 0 0)
(0 0 0)
(0 0 0)
(0 0 0)
(0 1.89306e-05 0)
(0 0.000216641 0)
(0 0.000603599 0)
(0 0.0011358 0)
(0 0.00175918 0)
(0 0.00249263 0)
(0 0.00284333 0)
(0 0.00315419 0)
(0 0.00349823 0)
(0 0.00382072 0)
(0 0.00411576 0)
(0 0.00436642 0)
(0 0.0038054 0)
(0 0.00403774 0)
(0 0.00422111 0)
(0 0.00440605 0)
(0 0.00455114 0)
(0 0.00465454 0)
(0 0.00471652 0)
(0 0.00478221 0)
(0 0.00480418 0)
(0 0.00478221 0)
(0 0.00471652 0)
(0 0.00465454 0)
(0 0.00455114 0)
(0 0.00440605 0)
(0 0.00422111 0)
(0 0.00403774 0)
(0 0.0038054 0)
(0 0.00436642 0)
(0 0.00411576 0)
(0 0.00382072 0)
(0 0.00349823 0)
(0 0.00315419 0)
(0 0.00284333 0)
(0 0.00249263 0)
(0 0.00175918 0)
(0 0.0011358 0)
(0 0.000581582 0)
(0 0.000207215 0)
(0 1.71917e-05 0)
(0 0 0)
(0 0 0)
(0 0 0)
(0 0 0)
(0 0 0)
(0 0 0)
(0 0 0)
(0 0 0)
(0 0 0)
(0 0 0)
(0 0 0)
(0 0 0)
(0 0 0)
(0 0 0)
(0 0 0)
(0 0 0)
(0 0.000119777 0)
(0 0.000489488 0)
(0 0.00104646 0)
(0 0.00174607 0)
(0 0.00252529 0)
(0 0.00331705 0)
(0 0.00291961 0)
(0 0.00330098 0)
(0 0.00366796 0)
(0 0.0040135 0)
(0 0.0043205 0)
(0 0.00463184 0)
(0 0.00490697 0)
(0 0.00513427 0)
(0 0.0046133 0)
(0 0.00482125 0)
(0 0.0053486 0)
(0 0.00550292 0)
(0 0.00498668 0)
(0 0.00513805 0)
(0 0.00565641 0)
(0 0.00576445 0)
(0 0.00524542 0)
(0 0.00529984 0)
(0 0.00582706 0)
(0 0.00587676 0)
(0 0.00536758 0)
(0 0.00539019 0)
(0 0.0058992 0)
(0 0.00587676 0)
(0 0.00536758 0)
(0 0.00529984 0)
(0 0.00582706 0)
(0 0.00576445 0)
(0 0.00524542 0)
(0 0.00513805 0)
(0 0.00565641 0)
(0 0.00550292 0)
(0 0.00498668 0)
(0 0.00482125 0)
(0 0.0053486 0)
(0 0.00513427 0)
(0 0.0046133 0)
(0 0.00490697 0)
(0 0.00463184 0)
(0 0.0043205 0)
(0 0.0040135 0)
(0 0.00366796 0)
(0 0.00330098 0)
(0 0.00291961 0)
(0 0.00331705 0)
(0 0.00252529 0)
(0 0.00172506 0)
(0 0.0010382 0)
(0 0.000488965 0)
(0 0.000130217 0)
(0 0 0)
(0 0 0)
(0 0 0)
(0 0 0)
(0 0 0)
(0 0 0)
(0 0 0)
(0 0 0)
(0 0 0)
(0 0 0)
(0 0 0)
(0 0 0)
(0 0 0)
(0 0 0)
(0 0 0)
(0 2.61293e-05 0)
(0 0.000268444 0)
(0 0.000773787 0)
(0 0.00144977 0)
(0 0.00225339 0)
(0 0.00317409 0)
(0 0.00406094 0)
(0 0.00371581 0)
(0 0.00411757 0)
(0 0.00369723 0)
(0 0.00411074 0)
(0 0.00449521 0)
(0 0.00487404 0)
(0 0.00447465 0)
(0 0.004807 0)
(0 0.00521561 0)
(0 0.00537135 0)
(0 0.00551632 0)
(0 0.00531921 0)
(0 0.00508755 0)
(0 0.00536986 0)
(0 0.00557233 0)
(0 0.0056974 0)
(0 0.00549487 0)
(0 0.00579895 0)
(0 0.005991 0)
(0 0.00607987 0)
(0 0.00588917 0)
(0 0.00608799 0)
(0 0.00627588 0)
(0 0.00632271 0)
(0 0.00614586 0)
(0 0.00625222 0)
(0 0.00642438 0)
(0 0.0064489 0)
(0 0.0062807 0)
(0 0.00631132 0)
(0 0.00647587 0)
(0 0.00647091 0)
(0 0.00630605 0)
(0 0.00625222 0)
(0 0.00642438 0)
(0 0.00640115 0)
(0 0.00622779 0)
(0 0.00608799 0)
(0 0.00627588 0)
(0 0.0062221 0)
(0 0.00603467 0)
(0 0.00579895 0)
(0 0.005991 0)
(0 0.00591254 0)
(0 0.00569707 0)
(0 0.00536986 0)
(0 0.00557233 0)
(0 0.0054359 0)
(0 0.00523396 0)
(0 0.004807 0)
(0 0.00521561 0)
(0 0.00487404 0)
(0 0.00447465 0)
(0 0.00411074 0)
(0 0.00449521 0)
(0 0.00411757 0)
(0 0.00369723 0)
(0 0.00371581 0)
(0 0.00404265 0)
(0 0.0031719 0)
(0 0.0022897 0)
(0 0.00143759 0)
(0 0.000766253 0)
(0 0.000281899 0)
(0 2.98802e-05 0)
(0 0 0)
(0 0 0)
(0 0 0)
(0 0 0)
(0 0 0)
(0 0 0)
(0 0 0)
(0 0 0)
(0 0 0)
(0 0 0)
(0 0 0)
(0 0 0)
(0 0 0)
(0 0 0)
(0 8.54889e-05 0)
(0 0.000432665 0)
(0 0.00101657 0)
(0 0.00178624 0)
(0 0.00267572 0)
(0 0.00365405 0)
(0 0.00456712 0)
(0 0.00434184 0)
(0 0.00477151 0)
(0 0.00447909 0)
(0 0.00486949 0)
(0 0.00517 0)
(0 0.00552989 0)
(0 0.0052251 0)
(0 0.00554012 0)
(0 0.00570329 0)
(0 0.00584365 0)
(0 0.0057031 0)
(0 0.00609962 0)
(0 0.00616713 0)
(0 0.00622161 0)
(0 0.00615471 0)
(0 0.00645706 0)
(0 0.00651106 0)
(0 0.00654611 0)
(0 0.00649322 0)
(0 0.00666864 0)
(0 0.00670799 0)
(0 0.00672585 0)
(0 0.00668621 0)
(0 0.00676137 0)
(0 0.00679023 0)
(0 0.00679435 0)
(0 0.00676633 0)
(0 0.00678509 0)
(0 0.00680834 0)
(0 0.00680795 0)
(0 0.00678452 0)
(0 0.00676137 0)
(0 0.00679023 0)
(0 0.00678454 0)
(0 0.00675462 0)
(0 0.00666864 0)
(0 0.00670799 0)
(0 0.00669302 0)
(0 0.00664751 0)
(0 0.00645706 0)
(0 0.00651106 0)
(0 0.00648054 0)
(0 0.00641771 0)
(0 0.00609962 0)
(0 0.00616713 0)
(0 0.0062289 0)
(0 0.00611136 0)
(0 0.00597991 0)
(0 0.00554012 0)
(0 0.00570329 0)
(0 0.00584504 0)
(0 0.00552989 0)
(0 0.0052251 0)
(0 0.00486949 0)
(0 0.00515819 0)
(0 0.00476844 0)
(0 0.00447909 0)
(0 0.00434703 0)
(0 0.00458065 0)
(0 0.00364486 0)
(0 0.00270237 0)
(0 0.00180497 0)
(0 0.00102834 0)
(0 0.000438838 0)
(0 8.75979e-05 0)
(0 0 0)
(0 0 0)
(0 0 0)
(0 0 0)
(0 0 0)
(0 0 0)
(0 0 0)
(0 0 0)
(0 0 0)
(0 0 0)
(0 0 0)
(0 0 0)
(0 0 0)
(0 0 0)
(0 0.000131822 0)
(0 0.000537489 0)
(0 0.00118281 0)
(0 0.00201328 0)
(0 0.00295897 0)
(0 0.00394041 0)
(0 0.00487545 0)
(0 0.0047596 0)
(0 0.00518588 0)
(0 0.00498798 0)
(0 0.00537389 0)
(0 0.00557422 0)
(0 0.00591704 0)
(0 0.00575146 0)
(0 0.00606353 0)
(0 0.00614061 0)
(0 0.00627492 0)
(0 0.00619961 0)
(0 0.006523 0)
(0 0.00655861 0)
(0 0.00659879 0)
(0 0.0065643 0)
(0 0.00677084 0)
(0 0.00678803 0)
(0 0.00680239 0)
(0 0.00678722 0)
(0 0.00683019 0)
(0 0.00683019 0)
(0 0.00683019 0)
(0 0.00683019 0)
(0 0.00683019 0)
(0 0.00683019 0)
(0 0.00683019 0)
(0 0.00683019 0)
(0 0.00683019 0)
(0 0.00683019 0)
(0 0.00683019 0)
(0 0.00683019 0)
(0 0.00683019 0)
(0 0.00683019 0)
(0 0.00683019 0)
(0 0.00683019 0)
(0 0.00683019 0)
(0 0.00683019 0)
(0 0.00683019 0)
(0 0.00683019 0)
(0 0.00677084 0)
(0 0.00678803 0)
(0 0.0067691 0)
(0 0.00675115 0)
(0 0.006523 0)
(0 0.00655861 0)
(0 0.00658904 0)
(0 0.00649614 0)
(0 0.00642959 0)
(0 0.00606001 0)
(0 0.00614957 0)
(0 0.00621796 0)
(0 0.00590883 0)
(0 0.00575658 0)
(0 0.00540451 0)
(0 0.0055673 0)
(0 0.00518037 0)
(0 0.00501003 0)
(0 0.00475556 0)
(0 0.00487788 0)
(0 0.00393879 0)
(0 0.00295427 0)
(0 0.00200682 0)
(0 0.00117607 0)
(0 0.000531917 0)
(0 0.000128657 0)
(0 0 0)
(0 0 0)
(0 0 0)
(0 0 0)
(0 0 0)
(0 0 0)
(0 0 0)
(0 0 0)
(0 0 0)
(0 0 0)
(0 0 0)
(0 0 0)
(0 0 0)
(0 0 0)
(0 0.000139761 0)
(0 0.000554671 0)
(0 0.00120989 0)
(0 0.00205036 0)
(0 0.00300547 0)
(0 0.00399496 0)
(0 0.00493571 0)
(0 0.00493744 0)
(0 0.00536415 0)
(0 0.00530091 0)
(0 0.00568639 0)
(0 0.0057497 0)
(0 0.00608596 0)
(0 0.00602403 0)
(0 0.00631793 0)
(0 0.00634633 0)
(0 0.00646416 0)
(0 0.00643855 0)
(0 0.00670452 0)
(0 0.00671548 0)
(0 0.00674456 0)
(0 0.00673445 0)
(0 0.00683019 0)
(0 0.00683019 0)
(0 0.00683019 0)
(0 0.00683019 0)
(0 0.00683019 0)
(0 0.00683019 0)
(0 0.00683019 0)
(0 0.00683019 0)
(0 0.00683019 0)
(0 0.00683019 0)
(0 0.00683019 0)
(0 0.00683019 0)
(0 0.00683019 0)
(0 0.00683019 0)
(0 0.00683019 0)
(0 0.00683019 0)
(0 0.00683019 0)
(0 0.00682991 0)
(0 0.00682893 0)
(0 0.00670452 0)
(0 0.00671548 0)
(0 0.00672271 0)
(0 0.00665441 0)
(0 0.0066303 0)
(0 0.00631754 0)
(0 0.00634673 0)
(0 0.00636584 0)
(0 0.00608596 0)
(0 0.00603278 0)
(0 0.00569317 0)
(0 0.00573522 0)
(0 0.00534752 0)
(0 0.00530553 0)
(0 0.00491902 0)
(0 0.00492467 0)
(0 0.00398268 0)
(0 0.002993 0)
(0 0.00203878 0)
(0 0.0012002 0)
(0 0.00054772 0)
(0 0.000136159 0)
(0 0 0)
(0 0 0)
(0 0 0)
(0 0 0)
(0 0 0)
(0 0 0)
(0 0 0)
(0 0 0)
(0 0 0)
(0 0 0)
(0 0 0)
(0 0 0)
(0 0 0)
(0 0 0)
(0 0.000114217 0)
(0 0.000499174 0)
(0 0.00112303 0)
(0 0.00193256 0)
(0 0.00285923 0)
(0 0.00382513 0)
(0 0.00474984 0)
(0 0.00488331 0)
(0 0.00530931 0)
(0 0.00536276 0)
(0 0.00574867 0)
(0 0.00569517 0)
(0 0.00603301 0)
(0 0.00608532 0)
(0 0.00636558 0)
(0 0.00635059 0)
(0 0.00646839 0)
(0 0.00648268 0)
(0 0.00673469 0)
(0 0.00673112 0)
(0 0.00675839 0)
(0 0.00676162 0)
(0 0.00683019 0)
(0 0.00683019 0)
(0 0.00683019 0)
(0 0.00683019 0)
(0 0.00683019 0)
(0 0.00683019 0)
(0 0.00683019 0)
(0 0.00683019 0)
(0 0.00683019 0)
(0 0.00683019 0)
(0 0.00683019 0)
(0 0.00683019 0)
(0 0.00683019 0)
(0 0.00683019 0)
(0 0.00683019 0)
(0 0.00683019 0)
(0 0.00673469 0)
(0 0.00672821 0)
(0 0.00672467 0)
(0 0.00665652 0)
(0 0.00666427 0)
(0 0.00635966 0)
(0 0.00635011 0)
(0 0.00632114 0)
(0 0.00603714 0)
(0 0.00607786 0)
(0 0.00573983 0)
(0 0.00569818 0)
(0 0.00531111 0)
(0 0.00535271 0)
(0 0.0048839 0)
(0 0.00476192 0)
(0 0.003834 0)
(0 0.00286502 0)
(0 0.00193575 0)
(0 0.00112429 0)
(0 0.000499298 0)
(0 0.000113967 0)
(0 0 0)
(0 0 0)
(0 0 0)
(0 0 0)
(0 0 0)
(0 0 0)
(0 0 0)
(0 0 0)
(0 0 0)
(0 0 0)
(0 0 0)
(0 0 0)
(0 0 0)
(0 0 0)
(0 5.77691e-05 0)
(0 0.000362859 0)
(0 0.000902537 0)
(0 0.00162834 0)
(0 0.00253161 0)
(0 0.00345525 0)
(0 0.00435619 0)
(0 0.00459511 0)
(0 0.0050222 0)
(0 0.00517275 0)
(0 0.00558313 0)
(0 0.0054141 0)
(0 0.00576338 0)
(0 0.00593124 0)
(0 0.00622689 0)
(0 0.00615604 0)
(0 0.00628454 0)
(0 0.00635334 0)
(0 0.00664187 0)
(0 0.00662171 0)
(0 0.00665836 0)
(0 0.00667988 0)
(0 0.00682193 0)
(0 0.00681492 0)
(0 0.00682329 0)
(0 0.00682762 0)
(0 0.00683019 0)
(0 0.00683019 0)
(0 0.00683019 0)
(0 0.00683019 0)
(0 0.00683019 0)
(0 0.00683019 0)
(0 0.00683019 0)
(0 0.00683019 0)
(0 0.00682193 0)
(0 0.0068139 0)
(0 0.00680279 0)
(0 0.00681272 0)
(0 0.00664187 0)
(0 0.00662171 0)
(0 0.00659431 0)
(0 0.00650745 0)
(0 0.00656109 0)
(0 0.00622689 0)
(0 0.00615604 0)
(0 0.00607558 0)
(0 0.00576338 0)
(0 0.00593124 0)
(0 0.00557272 0)
(0 0.0054141 0)
(0 0.0050222 0)
(0 0.00518632 0)
(0 0.00459511 0)
(0 0.00435619 0)
(0 0.00345525 0)
(0 0.00249898 0)
(0 0.00164435 0)
(0 0.000913035 0)
(0 0.000368605 0)
(0 5.97106e-05 0)
(0 0 0)
(0 0 0)
(0 0 0)
(0 0 0)
(0 0 0)
(0 0 0)
(0 0 0)
(0 0 0)
(0 0 0)
(0 0 0)
(0 0 0)
(0 0 0)
(0 0 0)
(0 0 0)
(0 7.14808e-06 0)
(0 0.000212189 0)
(0 0.00064614 0)
(0 0.00127058 0)
(0 0.0020284 0)
(0 0.00285313 0)
(0 0.00371854 0)
(0 0.00404668 0)
(0 0.00448671 0)
(0 0.00477525 0)
(0 0.00518287 0)
(0 0.00487196 0)
(0 0.00525777 0)
(0 0.00553734 0)
(0 0.00586305 0)
(0 0.00573245 0)
(0 0.00587631 0)
(0 0.00600581 0)
(0 0.00635535 0)
(0 0.0062972 0)
(0 0.00635008 0)
(0 0.00639839 0)
(0 0.00666428 0)
(0 0.00662603 0)
(0 0.00665394 0)
(0 0.00669071 0)
(0 0.00680241 0)
(0 0.00678102 0)
(0 0.00679042 0)
(0 0.00680995 0)
(0 0.00683019 0)
(0 0.00682639 0)
(0 0.00682788 0)
(0 0.00683019 0)
(0 0.00683019 0)
(0 0.00683019 0)
(0 0.00683019 0)
(0 0.00683019 0)
(0 0.00683019 0)
(0 0.00683019 0)
(0 0.00682639 0)
(0 0.0068243 0)
(0 0.00682996 0)
(0 0.00683013 0)
(0 0.00680241 0)
(0 0.00678102 0)
(0 0.00676941 0)
(0 0.00679271 0)
(0 0.00666428 0)
(0 0.00662603 0)
(0 0.00659491 0)
(0 0.00663456 0)
(0 0.00636004 0)
(0 0.00630664 0)
(0 0.00624248 0)
(0 0.0061364 0)
(0 0.00625174 0)
(0 0.00584695 0)
(0 0.00572581 0)
(0 0.0055843 0)
(0 0.00525055 0)
(0 0.00553734 0)
(0 0.00518287 0)
(0 0.00487196 0)
(0 0.00448671 0)
(0 0.00477525 0)
(0 0.00404668 0)
(0 0.00371854 0)
(0 0.00285313 0)
(0 0.0020284 0)
(0 0.00127058 0)
(0 0.00064614 0)
(0 0.00019793 0)
(0 8.58613e-06 0)
(0 0 0)
(0 0 0)
(0 0 0)
(0 0 0)
(0 0 0)
(0 0 0)
(0 0 0)
(0 0 0)
(0 0 0)
(0 0 0)
(0 0 0)
(0 0 0)
(0 0 0)
(0 0 0)
(0 0 0)
(0 6.52208e-05 0)
(0 0.000343689 0)
(0 0.000808623 0)
(0 0.00141153 0)
(0 0.00216482 0)
(0 0.00294368 0)
(0 0.0033111 0)
(0 0.00374465 0)
(0 0.0041154 0)
(0 0.00451734 0)
(0 0.00413497 0)
(0 0.0044999 0)
(0 0.00489513 0)
(0 0.00523719 0)
(0 0.00483304 0)
(0 0.00511194 0)
(0 0.00534351 0)
(0 0.00553816 0)
(0 0.00539309 0)
(0 0.00579698 0)
(0 0.00559461 0)
(0 0.0057197 0)
(0 0.00591144 0)
(0 0.00619795 0)
(0 0.00602444 0)
(0 0.00609384 0)
(0 0.00627369 0)
(0 0.00645184 0)
(0 0.00629808 0)
(0 0.00634325 0)
(0 0.00649444 0)
(0 0.00658351 0)
(0 0.00644163 0)
(0 0.00646667 0)
(0 0.00660096 0)
(0 0.0066243 0)
(0 0.00649327 0)
(0 0.0064865 0)
(0 0.00661895 0)
(0 0.00658351 0)
(0 0.00644163 0)
(0 0.00640611 0)
(0 0.00655615 0)
(0 0.00645184 0)
(0 0.00629808 0)
(0 0.00624163 0)
(0 0.00639812 0)
(0 0.00619795 0)
(0 0.00602444 0)
(0 0.00593472 0)
(0 0.00611014 0)
(0 0.00579698 0)
(0 0.00559461 0)
(0 0.00547715 0)
(0 0.00567196 0)
(0 0.00523719 0)
(0 0.00483304 0)
(0 0.0044999 0)
(0 0.00489513 0)
(0 0.00451734 0)
(0 0.00413497 0)
(0 0.00374465 0)
(0 0.0041154 0)
(0 0.0033111 0)
(0 0.00294368 0)
(0 0.00216482 0)
(0 0.00141153 0)
(0 0.000808623 0)
(0 0.000343689 0)
(0 6.52208e-05 0)
(0 0 0)
(0 0 0)
(0 0 0)
(0 0 0)
(0 0 0)
(0 0 0)
(0 0 0)
(0 0 0)
(0 0 0)
(0 0 0)
(0 0 0)
(0 0 0)
(0 0 0)
(0 0 0)
(0 0 0)
(0 0 0)
(0 0 0)
(0 9.82849e-05 0)
(0 0.000405843 0)
(0 0.000870012 0)
(0 0.00144567 0)
(0 0.00207621 0)
(0 0.00269864 0)
(0 0.00318167 0)
(0 0.00369529 0)
(0 0.00332678 0)
(0 0.00352734 0)
(0 0.00404216 0)
(0 0.00434811 0)
(0 0.00385123 0)
(0 0.00414747 0)
(0 0.00466034 0)
(0 0.00493614 0)
(0 0.00468093 0)
(0 0.00477943 0)
(0 0.00505915 0)
(0 0.00537302 0)
(0 0.00512209 0)
(0 0.0052152 0)
(0 0.00546685 0)
(0 0.0056807 0)
(0 0.00542831 0)
(0 0.00546992 0)
(0 0.00572926 0)
(0 0.0058652 0)
(0 0.00562283 0)
(0 0.00565114 0)
(0 0.00589327 0)
(0 0.00592627 0)
(0 0.00568544 0)
(0 0.00567378 0)
(0 0.0059157 0)
(0 0.0058652 0)
(0 0.00562283 0)
(0 0.00558319 0)
(0 0.0058258 0)
(0 0.0056807 0)
(0 0.00542831 0)
(0 0.00536844 0)
(0 0.00562076 0)
(0 0.00537302 0)
(0 0.00512209 0)
(0 0.00501824 0)
(0 0.00526812 0)
(0 0.00493614 0)
(0 0.00468093 0)
(0 0.00438596 0)
(0 0.00414747 0)
(0 0.00466034 0)
(0 0.00434811 0)
(0 0.00385123 0)
(0 0.00352734 0)
(0 0.00404216 0)
(0 0.00369529 0)
(0 0.00318167 0)
(0 0.00269864 0)
(0 0.00207621 0)
(0 0.00332678 0)
(0 0.00144567 0)
(0 0.000870012 0)
(0 0.000405843 0)
(0 9.82849e-05 0)
(0 0 0)
(0 0 0)
(0 0 0)
(0 0 0)
(0 0 0)
(0 0 0)
(0 0 0)
(0 0 0)
(0 0 0)
(0 0 0)
(0 0 0)
(0 0 0)
(0 0 0)
(0 0 0)
(0 0 0)
(0 0 0)
(0 0 0)
(0 0 0)
(0 1.24638e-06 0)
(0 0.000111655 0)
(0 0.000378362 0)
(0 0.000741455 0)
(0 0.0012136 0)
(0 0.00171714 0)
(0 0.002204 0)
(0 0.00248821 0)
(0 0.00301575 0)
(0 0.00331484 0)
(0 0.00272779 0)
(0 0.00299809 0)
(0 0.00356129 0)
(0 0.0038315 0)
(0 0.00354114 0)
(0 0.00365999 0)
(0 0.00395505 0)
(0 0.00427357 0)
(0 0.00396718 0)
(0 0.00405172 0)
(0 0.00436101 0)
(0 0.00455912 0)
(0 0.00425231 0)
(0 0.00432061 0)
(0 0.00462942 0)
(0 0.00477671 0)
(0 0.00446398 0)
(0 0.00449074 0)
(0 0.00480417 0)
(0 0.00484035 0)
(0 0.00452694 0)
(0 0.00451221 0)
(0 0.00482618 0)
(0 0.00477671 0)
(0 0.00446398 0)
(0 0.00442662 0)
(0 0.00473836 0)
(0 0.00455912 0)
(0 0.00425231 0)
(0 0.00417409 0)
(0 0.00450588 0)
(0 0.00427357 0)
(0 0.00396718 0)
(0 0.00387345 0)
(0 0.00417652 0)
(0 0.0038315 0)
(0 0.00354114 0)
(0 0.00324553 0)
(0 0.00299809 0)
(0 0.00356129 0)
(0 0.00331484 0)
(0 0.00272779 0)
(0 0.00248821 0)
(0 0.00301575 0)
(0 0.002204 0)
(0 0.00171714 0)
(0 0.0012136 0)
(0 0.000741455 0)
(0 0.000378362 0)
(0 0.000111655 0)
(0 1.24638e-06 0)
(0 0 0)
(0 0 0)
(0 0 0)
(0 0 0)
(0 0 0)
(0 0 0)
(0 0 0)
(0 0 0)
(0 0 0)
(0 0 0)
(0 0 0)
(0 0 0)
(0 0 0)
(0 0 0)
(0 0 0)
(0 0 0)
(0 0 0)
(0 0 0)
(0 0 0)
(0 0 0)
(0 5.86374e-05 0)
(0 0.000244223 0)
(0 0.000494748 0)
(0 0.000833062 0)
(0 0.00123181 0)
(0 0.0014525 0)
(0 0.00193545 0)
(0 0.00218891 0)
(0 0.00166878 0)
(0 0.0018752 0)
(0 0.00242874 0)
(0 0.00264968 0)
(0 0.00235516 0)
(0 0.00245065 0)
(0 0.00275159 0)
(0 0.00301694 0)
(0 0.00269992 0)
(0 0.0027454 0)
(0 0.00305793 0)
(0 0.00328866 0)
(0 0.00296327 0)
(0 0.00302026 0)
(0 0.0033489 0)
(0 0.00347585 0)
(0 0.00314051 0)
(0 0.00316306 0)
(0 0.00349963 0)
(0 0.00353428 0)
(0 0.00319669 0)
(0 0.00318116 0)
(0 0.00351872 0)
(0 0.00347585 0)
(0 0.00314051 0)
(0 0.00310909 0)
(0 0.0034427 0)
(0 0.00328866 0)
(0 0.00296327 0)
(0 0.00289825 0)
(0 0.00321986 0)
(0 0.00301694 0)
(0 0.00269992 0)
(0 0.00262349 0)
(0 0.00293568 0)
(0 0.00264968 0)
(0 0.00235516 0)
(0 0.00206675 0)
(0 0.0018752 0)
(0 0.00242874 0)
(0 0.00218891 0)
(0 0.00166878 0)
(0 0.0014525 0)
(0 0.00193545 0)
(0 0.00123181 0)
(0 0.000833062 0)
(0 0.000494748 0)
(0 0.000244223 0)
(0 5.86374e-05 0)
(0 0 0)
(0 0 0)
(0 0 0)
(0 0 0)
(0 0 0)
(0 0 0)
(0 0 0)
(0 0 0)
(0 0 0)
(0 0 0)
(0 0 0)
(0 0 0)
(0 0 0)
(0 0 0)
(0 0 0)
(0 0 0)
(0 0 0)
(0 0 0)
(0 0 0)
(0 0 0)
(0 0 0)
(0 0 0)
(0 0 0)
(0 4.99343e-06 0)
(0 8.47005e-05 0)
(0 0.000236387 0)
(0 0.000495889 0)
(0 0.000630895 0)
(0 0.0010113 0)
(0 0.00118845 0)
(0 0.000767983 0)
(0 0.000902515 0)
(0 0.00135945 0)
(0 0.0015196 0)
(0 0.00126636 0)
(0 0.00133373 0)
(0 0.00159427 0)
(0 0.00177409 0)
(0 0.00150146 0)
(0 0.00156467 0)
(0 0.00184354 0)
(0 0.00201856 0)
(0 0.00172439 0)
(0 0.00176653 0)
(0 0.00206462 0)
(0 0.00216216 0)
(0 0.00185589 0)
(0 0.00187272 0)
(0 0.00218051 0)
(0 0.0022098 0)
(0 0.00190018 0)
(0 0.00188625 0)
(0 0.00219525 0)
(0 0.00216216 0)
(0 0.00185589 0)
(0 0.00183248 0)
(0 0.00213663 0)
(0 0.00201856 0)
(0 0.00172439 0)
(0 0.0016765 0)
(0 0.00196615 0)
(0 0.00177409 0)
(0 0.00150146 0)
(0 0.00143394 0)
(0 0.00169976 0)
(0 0.0015196 0)
(0 0.00126636 0)
(0 0.00103016 0)
(0 0.000902515 0)
(0 0.00135945 0)
(0 0.00118845 0)
(0 0.000767983 0)
(0 0.000630895 0)
(0 0.0010113 0)
(0 0.000495889 0)
(0 0.000236387 0)
(0 8.47005e-05 0)
(0 4.99343e-06 0)
(0 0 0)
(0 0 0)
(0 0 0)
(0 0 0)
(0 0 0)
(0 0 0)
(0 0 0)
(0 0 0)
(0 0 0)
(0 0 0)
(0 0 0)
(0 0 0)
(0 0 0)
(0 0 0)
(0 0 0)
(0 0 0)
(0 0 0)
(0 0 0)
(0 0 0)
(0 0 0)
(0 0 0)
(0 0 0)
(0 0 0)
(0 0 0)
(0 0 0)
(0 0 0)
(0 9.05162e-07 0)
(0 6.80043e-05 0)
(0 0.000118451 0)
(0 0.000328453 0)
(0 0.000425555 0)
(0 0.000176624 0)
(0 0.000238835 0)
(0 0.000523518 0)
(0 0.000618408 0)
(0 0.000425686 0)
(0 0.000469264 0)
(0 0.000641774 0)
(0 0.00078799 0)
(0 0.000593028 0)
(0 0.000630597 0)
(0 0.000831976 0)
(0 0.000944461 0)
(0 0.000727259 0)
(0 0.000753143 0)
(0 0.000974431 0)
(0 0.00103838 0)
(0 0.00080854 0)
(0 0.000819043 0)
(0 0.00105048 0)
(0 0.00107151 0)
(0 0.00083769 0)
(0 0.000827503 0)
(0 0.00106021 0)
(0 0.00103838 0)
(0 0.00080854 0)
(0 0.000793964 0)
(0 0.00102158 0)
(0 0.000944461 0)
(0 0.000727259 0)
(0 0.000698024 0)
(0 0.000910538 0)
(0 0.00078799 0)
(0 0.000593028 0)
(0 0.000553356 0)
(0 0.000741354 0)
(0 0.000618408 0)
(0 0.000425686 0)
(0 0.000286256 0)
(0 0.000238835 0)
(0 0.000523518 0)
(0 0.000425555 0)
(0 0.000176624 0)
(0 0.000118451 0)
(0 0.000328453 0)
(0 6.80043e-05 0)
(0 9.05162e-07 0)
(0 0 0)
(0 0 0)
(0 0 0)
(0 0 0)
(0 0 0)
(0 0 0)
(0 0 0)
(0 0 0)
(0 0 0)
(0 0 0)
(0 0 0)
(0 0 0)
(0 0 0)
(0 0 0)
(0 0 0)
(0 0 0)
(0 0 0)
(0 0 0)
(0 0 0)
(0 0 0)
(0 0 0)
(0 0 0)
(0 0 0)
(0 0 0)
(0 0 0)
(0 0 0)
(0 0 0)
(0 0 0)
(0 0 0)
(0 0 0)
(0 0 0)
(0 3.32431e-05 0)
(0 1.20236e-05 0)
(0 0 0)
(0 5.22745e-05 0)
(0 8.73313e-05 0)
(0 2.67364e-06 0)
(0 1.16863e-05 0)
(0 0.000125851 0)
(0 0.000164884 0)
(0 2.46422e-05 0)
(0 3.92375e-05 0)
(0 0.000201765 0)
(0 0.000234183 0)
(0 5.3461e-05 0)
(0 6.5643e-05 0)
(0 0.000260224 0)
(0 0.000278419 0)
(0 7.4496e-05 0)
(0 7.91445e-05 0)
(0 0.000287769 0)
(0 0.000295251 0)
(0 8.31156e-05 0)
(0 7.91445e-05 0)
(0 0.000287769 0)
(0 0.000278419 0)
(0 7.4496e-05 0)
(0 6.5643e-05 0)
(0 0.000260224 0)
(0 0.000234183 0)
(0 5.3461e-05 0)
(0 3.92375e-05 0)
(0 0.000201765 0)
(0 0.000164884 0)
(0 2.46422e-05 0)
(0 1.16863e-05 0)
(0 0.000125851 0)
(0 8.73313e-05 0)
(0 2.67364e-06 0)
(0 0 0)
(0 5.22745e-05 0)
(0 3.32431e-05 0)
(0 0 0)
(0 0 0)
(0 0 0)
(0 1.20236e-05 0)
(0 0 0)
(0 0 0)
(0 0 0)
(0 0 0)
(0 0 0)
(0 0 0)
(0 0 0)
(0 0 0)
(0 0 0)
(0 0 0)
(0 0 0)
(0 0 0)
(0 0 0)
(0 0 0)
(0 0 0)
(0 0 0)
(0 0 0)
(0 0 0)
(0 0 0)
(0 0 0)
(0 0 0)
(0 0 0)
(0 0 0)
(0 0 0)
(0 0 0)
(0 0 0)
(0 0 0)
(0 0 0)
(0 0 0)
(0 0 0)
(0 0 0)
(0 0 0)
(0 0 0)
(0 0 0)
(0 0 0)
(0 0 0)
(0 0 0)
(0 0 0)
(0 0 0)
(0 0 0)
(0 2.40278e-07 0)
(0 0 0)
(0 0 0)
(0 9.24667e-07 0)
(0 5.50162e-07 0)
(0 0 0)
(0 2.40278e-07 0)
(0 5.50162e-07 0)
(0 0 0)
(0 0 0)
(0 0 0)
(0 0 0)
(0 0 0)
(0 0 0)
(0 0 0)
(0 0 0)
(0 0 0)
(0 0 0)
(0 0 0)
(0 0 0)
(0 0 0)
(0 0 0)
(0 0 0)
(0 0 0)
(0 0 0)
(0 0 0)
(0 0 0)
(0 0 0)
(0 0 0)
(0 0 0)
(0 0 0)
(0 0 0)
(0 0 0)
(0 0 0)
(0 0 0)
(0 0 0)
(0 0 0)
(0 0 0)
(0 0 0)
(0 0 0)
(0 0 0)
(0 0 0)
(0 0 0)
(0 0 0)
(0 0 0)
(0 0 0)
(0 0 0)
(0 0 0)
(0 0 0)
(0 0 0)
(0 0 0)
(0 0 0)
(0 0 0)
(0 0 0)
(0 0 0)
(0 0 0)
(0 0 0)
(0 0 0)
(0 0 0)
(0 0 0)
(0 0 0)
(0 0 0)
(0 0 0)
(0 0 0)
(0 0 0)
(0 0 0)
(0 0 0)
(0 0 0)
(0 0 0)
(0 0 0)
(0 0 0)
(0 0 0)
(0 0 0)
(0 0 0)
(0 0 0)
(0 0 0)
(0 0 0)
(0 0 0)
(0 0 0)
(0 0 0)
(0 0 0)
(0 0 0)
(0 0 0)
(0 0 0)
(0 0 0)
(0 0 0)
(0 0 0)
(0 0 0)
(0 0 0)
(0 0 0)
(0 0 0)
(0 0 0)
(0 0 0)
(0 0 0)
(0 0 0)
(0 0 0)
(0 0 0)
(0 0 0)
(0 0 0)
(0 0 0)
(0 0 0)
(0 0 0)
(0 0 0)
(0 0 0)
(0 0 0)
(0 0 0)
(0 0 0)
(0 0 0)
(0 0 0)
(0 0 0)
(0 0 0)
(0 0 0)
(0 0 0)
(0 0 0)
(0 0 0)
(0 0 0)
(0 0 0)
(0 0 0)
(0 0 0)
(0 0 0)
(0 0 0)
(0 0 0)
(0 0 0)
(0 0 0)
(0 0 0)
(0 0 0)
(0 0 0)
(0 0 0)
(0 0 0)
(0 0 0)
(0 0 0)
(0 0 0)
(0 0 0)
(0 0 0)
(0 0 0)
(0 0 0)
(0 0 0)
(0 0 0)
(0 0 0)
(0 0 0)
(0 0 0)
(0 0 0)
(0 0 0)
(0 0 0)
(0 0 0)
(0 0 0)
(0 0 0)
(0 0 0)
(0 0 0)
(0 0 0)
(0 0 0)
(0 0 0)
(0 0 0)
(0 0 0)
(0 0 0)
(0 0 0)
(0 0 0)
(0 0 0)
(0 0 0)
(0 0 0)
(0 0 0)
(0 0 0)
(0 0 0)
(0 0 0)
(0 0 0)
(0 0 0)
(0 0 0)
(0 0 0)
(0 0 0)
(0 0 0)
(0 0 0)
(0 0 0)
(0 0 0)
(0 0 0)
(0 0 0)
(0 0 0)
(0 0 0)
(0 0 0)
(0 0 0)
(0 0 0)
(0 0 0)
(0 0 0)
(0 0 0)
(0 0 0)
(0 0 0)
(0 0 0)
(0 0 0)
(0 0 0)
(0 0 0)
(0 0 0)
(0 0 0)
(0 0 0)
(0 0 0)
(0 0 0)
(0 0 0)
(0 0 0)
(0 0 0)
(0 0 0)
(0 0 0)
(0 0 0)
(0 0 0)
(0 0 0)
(0 0 0)
(0 0 0)
(0 0 0)
(0 0 0)
(0 0 0)
(0 0 0)
(0 0 0)
(0 0 0)
(0 0 0)
(0 0 0)
(0 0 0)
(0 0 0)
(0 0 0)
(0 0 0)
(0 0 0)
(0 0 0)
(0 0 0)
(0 0 0)
(0 0 0)
(0 0 0)
(0 0 0)
(0 0 0)
(0 0 0)
(0 0 0)
(0 0 0)
(0 0 0)
(0 0 0)
(0 0 0)
(0 0 0)
(0 0 0)
(0 0 0)
(0 0 0)
(0 0 0)
(0 0 0)
(0 0 0)
(0 0 0)
(0 0 0)
(0 0 0)
(0 0 0)
(0 0 0)
(0 0 0)
(0 0 0)
(0 0 0)
(0 0 0)
(0 0 0)
(0 0 0)
(0 0 0)
(0 0 0)
(0 0 0)
(0 0 0)
(0 0 0)
(0 0 0)
(0 0 0)
(0 0 0)
(0 0 0)
(0 0 0)
(0 0 0)
(0 0 0)
(0 0 0)
(0 0 0)
(0 0 0)
(0 0 0)
(0 0 0)
(0 0 0)
(0 0 0)
(0 0 0)
(0 0 0)
(0 0 0)
(0 0 0)
(0 0 0)
(0 0 0)
(0 0 0)
(0 0 0)
(0 0 0)
(0 0 0)
(0 0 0)
(0 0 0)
(0 0 0)
(0 0 0)
(0 0 0)
(0 0 0)
(0 0 0)
(0 0 0)
(0 0 0)
(0 0 0)
(0 0 0)
(0 0 0)
(0 0 0)
(0 0 0)
(0 0 0)
(0 0 0)
(0 0 0)
(0 0 0)
(0 0 0)
(0 0 0)
(0 0 0)
(0 0 0)
(0 0 0)
(0 0 0)
(0 0 0)
(0 0 0)
(0 0 0)
(0 0 0)
(0 0 0)
(0 0 0)
(0 0 0)
(0 0 0)
(0 0 0)
(0 0 0)
(0 0 0)
(0 0 0)
(0 0 0)
(0 0 0)
(0 0 0)
(0 0 0)
(0 0 0)
(0 0 0)
(0 0 0)
(0 0 0)
(0 0 0)
(0 0 0)
(0 0 0)
(0 0 0)
(0 0 0)
(0 0 0)
(0 0 0)
(0 0 0)
(0 0 0)
(0 0 0)
(0 0 0)
(0 0 0)
(0 0 0)
(0 0 0)
(0 0 0)
(0 0 0)
(0 0 0)
(0 0 0)
(0 0 0)
(0 0 0)
(0 0 0)
(0 0 0)
(0 0 0)
(0 0 0)
(0 0 0)
(0 0 0)
(0 0 0)
(0 0 0)
(0 0 0)
(0 0 0)
(0 0 0)
(0 0 0)
(0 0 0)
(0 0 0)
(0 0 0)
(0 0 0)
(0 0 0)
(0 0 0)
(0 0 0)
(0 0 0)
(0 0 0)
(0 0 0)
(0 0 0)
(0 0 0)
(0 0 0)
(0 0 0)
(0 0 0)
(0 0 0)
(0 0 0)
(0 0 0)
(0 0 0)
(0 0 0)
(0 0 0)
(0 0 0)
(0 0 0)
(0 0 0)
(0 0 0)
(0 0 0)
(0 0 0)
(0 0 0)
(0 0 0)
(0 0 0)
(0 0 0)
(0 0 0)
(0 0 0)
(0 0 0)
(0 0 0)
(0 0 0)
(0 0 0)
(0 0 0)
(0 0 0)
(0 0 0)
(0 0 0)
(0 0 0)
(0 0 0)
(0 0 0)
(0 0 0)
(0 0 0)
(0 0 0)
(0 0 0)
(0 0 0)
(0 0 0)
(0 0 0)
(0 0 0)
(0 0 0)
(0 0 0)
(0 0 0)
(0 0 0)
(0 0 0)
(0 0 0)
(0 0 0)
(0 0 0)
(0 0 0)
(0 0 0)
(0 0 0)
(0 0 0)
(0 0 0)
(0 0 0)
(0 0 0)
(0 0 0)
(0 0 0)
(0 0 0)
(0 0 0)
(0 0 0)
(0 0 0)
(0 0 0)
(0 0 0)
(0 0 0)
(0 0 0)
(0 0 0)
(0 0 0)
(0 0 0)
(0 0 0)
(0 0 0)
(0 0 0)
(0 0 0)
(0 0 0)
(0 0 0)
(0 0 0)
(0 0 0)
(0 0 0)
(0 0 0)
(0 0 0)
(0 0 0)
(0 0 0)
(0 0 0)
(0 0 0)
(0 0 0)
(0 0 0)
(0 0 0)
(0 0 0)
(0 0 0)
(0 0 0)
(0 0 0)
(0 0 0)
(0 0 0)
(0 0 0)
(0 0 0)
(0 0 0)
(0 0 0)
(0 0 0)
(0 0 0)
(0 0 0)
(0 0 0)
(0 0 0)
(0 0 0)
(0 0 0)
(0 0 0)
(0 0 0)
(0 0 0)
(0 0 0)
(0 0 0)
(0 0 0)
(0 0 0)
(0 0 0)
(0 0 0)
(0 0 0)
(0 0 0)
(0 0 0)
(0 0 0)
(0 0 0)
(0 0 0)
(0 0 0)
(0 0 0)
(0 0 0)
(0 0 0)
(0 0 0)
(0 0 0)
(0 0 0)
(0 0 0)
(0 0 0)
(0 0 0)
(0 0 0)
(0 0 0)
(0 0 0)
(0 0 0)
(0 0 0)
(0 0 0)
(0 0 0)
(0 0 0)
(0 0 0)
(0 0 0)
(0 0 0)
(0 0 0)
(0 0 0)
(0 0 0)
(0 0 0)
(0 0 0)
(0 0 0)
(0 0 0)
(0 0 0)
(0 0 0)
(0 0 0)
(0 0 0)
(0 0 0)
(0 0 0)
(0 0 0)
(0 0 0)
(0 0 0)
(0 0 0)
(0 0 0)
(0 0 0)
(0 0 0)
(0 0 0)
(0 0 0)
(0 0 0)
(0 0 0)
(0 0 0)
(0 0 0)
(0 0 0)
(0 0 0)
(0 0 0)
(0 0 0)
(0 0 0)
(0 0 0)
(0 0 0)
(0 0 0)
(0 0 0)
(0 0 0)
(0 0 0)
(0 0 0)
(0 0 0)
(0 0 0)
(0 0 0)
(0 0 0)
(0 0 0)
(0 0 0)
(0 0 0)
(0 0 0)
(0 0 0)
(0 0 0)
(0 0 0)
(0 0 0)
(0 0 0)
(0 0 0)
(0 0 0)
(0 0 0)
(0 0 0)
(0 0 0)
(0 0 0)
(0 0 0)
(0 0 0)
(0 0 0)
(0 0 0)
(0 0 0)
(0 0 0)
(0 0 0)
(0 0 0)
(0 0 0)
(0 0 0)
(0 0 0)
(0 0 0)
(0 0 0)
(0 0 0)
(0 0 0)
(0 0 0)
(0 0 0)
(0 0 0)
(0 0 0)
(0 0 0)
(0 0 0)
(0 0 0)
(0 0 0)
(0 0 0)
(0 0 0)
(0 0 0)
(0 0 0)
(0 0 0)
(0 0 0)
(0 0 0)
(0 0 0)
(0 0 0)
(0 0 0)
(0 0 0)
(0 0 0)
(0 0 0)
(0 0 0)
(0 0 0)
(0 0 0)
(0 0 0)
(0 0 0)
(0 0 0)
(0 0 0)
(0 0 0)
(0 0 0)
(0 0 0)
(0 0 0)
(0 0 0)
(0 0 0)
(0 0 0)
(0 0 0)
(0 0 0)
(0 0 0)
(0 0 0)
(0 0 0)
(0 0 0)
(0 0 0)
(0 0 0)
(0 0 0)
(0 0 0)
(0 0 0)
(0 0 0)
(0 0 0)
(0 0 0)
(0 0 0)
(0 0 0)
(0 0 0)
(0 0 0)
(0 0 0)
(0 0 0)
(0 0 0)
(0 0 0)
(0 0 0)
(0 0 0)
(0 0 0)
(0 0 0)
(0 0 0)
(0 0 0)
(0 0 0)
(0 0 0)
(0 0 0)
(0 0 0)
(0 0 0)
(0 0 0)
(0 0 0)
(0 0 0)
(0 0 0)
(0 0 0)
(0 0 0)
(0 0 0)
(0 0 0)
(0 0 0)
(0 0 0)
(0 0 0)
(0 0 0)
(0 0 0)
(0 0 0)
(0 0 0)
(0 0 0)
(0 0 0)
(0 0 0)
(0 0 0)
(0 0 0)
(0 0 0)
(0 0 0)
(0 0 0)
(0 0 0)
(0 0 0)
(0 0 0)
(0 0 0)
(0 0 0)
(0 0 0)
(0 0 0)
(0 0 0)
(0 0 0)
(0 0 0)
(0 0 0)
(0 0 0)
(0 0 0)
(0 0 0)
(0 0 0)
(0 0 0)
(0 0 0)
(0 0 0)
(0 0 0)
(0 0 0)
(0 0 0)
(0 0 0)
(0 0 0)
(0 0 0)
(0 0 0)
(0 0 0)
(0 0 0)
(0 0 0)
(0 0 0)
(0 0 0)
(0 0 0)
(0 0 0)
(0 0 0)
(0 0 0)
(0 0 0)
(0 0 0)
(0 0 0)
(0 0 0)
(0 0 0)
(0 0 0)
(0 0 0)
(0 0 0)
(0 0 0)
(0 0 0)
(0 0 0)
(0 0 0)
(0 0 0)
(0 0 0)
(0 0 0)
(0 0 0)
(0 0 0)
(0 0 0)
(0 0 0)
(0 0 0)
(0 0 0)
(0 0 0)
(0 0 0)
(0 0 0)
(0 0 0)
(0 0 0)
(0 0 0)
(0 0 0)
(0 0 0)
(0 0 0)
(0 0 0)
(0 0 0)
(0 0 0)
(0 0 0)
(0 0 0)
(0 0 0)
(0 0 0)
(0 0 0)
(0 0 0)
(0 0 0)
(0 0 0)
(0 0 0)
(0 0 0)
(0 0 0)
(0 0 0)
(0 0 0)
(0 0 0)
(0 0 0)
(0 0 0)
(0 0 0)
(0 0 0)
(0 0 0)
(0 0 0)
(0 0 0)
(0 0 0)
(0 0 0)
(0 0 0)
(0 0 0)
(0 0 0)
(0 0 0)
(0 0 0)
(0 0 0)
(0 0 0)
(0 0 0)
(0 0 0)
(0 0 0)
(0 0 0)
(0 0 0)
(0 0 0)
(0 0 0)
(0 0 0)
(0 0 0)
(0 0 0)
(0 0 0)
(0 0 0)
(0 0 0)
(0 0 0)
(0 0 0)
(0 0 0)
(0 0 0)
(0 0 0)
(0 0 0)
(0 0 0)
(0 0 0)
(0 0 0)
(0 0 0)
(0 0 0)
(0 0 0)
(0 0 0)
(0 0 0)
(0 0 0)
(0 0 0)
(0 0 0)
(0 0 0)
(0 0 0)
(0 0 0)
(0 0 0)
(0 0 0)
(0 0 0)
(0 0 0)
(0 0 0)
(0 0 0)
(0 0 0)
(0 0 0)
(0 0 0)
(0 0 0)
(0 0 0)
(0 0 0)
(0 0 0)
(0 0 0)
(0 0 0)
(0 0 0)
(0 0 0)
(0 0 0)
(0 0 0)
(0 0 0)
(0 0 0)
(0 0 0)
(0 0 0)
(0 0 0)
(0 0 0)
(0 0 0)
(0 0 0)
(0 0 0)
(0 0 0)
(0 0 0)
(0 0 0)
(0 0 0)
(0 0 0)
(0 0 0)
(0 0 0)
(0 0 0)
(0 0 0)
(0 0 0)
(0 0 0)
(0 0 0)
(0 0 0)
(0 0 0)