/*--------------------------------*- C++ -*----------------------------------*\
| =========                 |                                                 |
| \\      /  F ield         | OpenFOAM: The Open Source CFD Toolbox           |
|  \\    /   O peration     | Version:  v2106                                 |
|   \\  /    A nd           | Website:  www.openfoam.com                      |
|    \\/     M anipulation  |                                                 |
\*---------------------------------------------------------------------------*/
FoamFile
{
    version     2.0;
    format      ascii;
    arch        "LSB;label=32;scalar=64";
    class       volVectorField;
    location    "0";
    object      U;
}
// * * * * * * * * * * * * * * * * * * * * * * * * * * * * * * * * * * * * * //

dimensions      [0 1 -1 0 0 0 0];

internalField   nonuniform List<vector> 
11644
(
(0.998192 -0.000244593 3.12776e-23)
(0.998079 -0.000653983 8.62543e-23)
(0.998006 -0.000976211 4.62776e-23)
(0.997985 -0.00130617 0)
(0.997981 -0.00166047 0)
(0.99798 -0.00203888 0)
(0.997979 -0.00243852 0)
(0.997977 -0.0028538 0)
(0.997973 -0.00327657 0)
(0.997975 -0.00369063 0)
(0.997964 -0.00408065 0)
(0.997926 -0.00443445 0)
(0.997971 -0.00469613 0)
(0.998152 -0.00486021 0)
(0.99801 -0.00492065 0)
(0.997961 -0.00483254 0)
(0.997925 -0.0045817 0)
(0.997961 -0.00421287 0)
(0.998112 -0.00385519 0)
(0.998058 -0.00339631 3.37283e-30)
(0.997716 -0.00263451 -3.3644e-30)
(0.99737 -0.00150362 0)
(0.997338 -0.000259912 0)
(0.997616 0.000727927 0)
(0.997853 0.00134943 0)
(0.997913 0.0017978 0)
(0.998086 0.00219754 0)
(0.997964 0.00240292 0)
(0.997926 0.00251501 0)
(0.997945 0.00251706 0)
(0.997954 0.00243411 0)
(0.997962 0.00228344 0)
(0.997963 0.00208499 0)
(0.997965 0.00185233 0)
(0.997967 0.00159854 0)
(0.997971 0.00133744 0)
(0.997978 0.0010744 0)
(0.997995 0.000816877 0)
(0.998056 0.000561516 0)
(0.998163 0.000215456 6.0644e-24)
(0.999027 -0.000485295 4.01758e-23)
(0.99896 -0.00147955 3.72157e-23)
(0.998923 -0.00250278 1.99874e-23)
(0.998938 -0.00354302 0)
(0.998987 -0.00461831 0)
(0.999051 -0.00574555 0)
(0.999118 -0.00692996 0)
(0.999178 -0.00816301 0)
(0.999218 -0.00942717 0)
(0.999221 -0.0106891 0)
(0.999166 -0.0118995 0)
(0.99909 -0.0129733 0)
(0.99885 -0.0138676 0)
(0.998297 -0.0145003 0)
(0.998012 -0.0146627 0)
(0.997493 -0.0144316 6.88912e-24)
(0.997023 -0.0137686 7.57768e-24)
(0.996724 -0.0127096 -2.63648e-23)
(0.996163 -0.0109439 -6.13637e-23)
(0.995475 -0.00843826 -5.08326e-22)
(0.994978 -0.00551222 7.04215e-22)
(0.994878 -0.00260954 -1.51625e-22)
(0.995216 -2.14358e-05 4.69011e-23)
(0.995754 0.0022497 -9.49702e-24)
(0.996304 0.00426431 -6.54424e-24)
(0.996809 0.00585592 0)
(0.997011 0.00692929 0)
(0.99759 0.00760171 0)
(0.997984 0.00785309 0)
(0.998226 0.0077794 0)
(0.998399 0.0074527 0)
(0.998532 0.00693255 0)
(0.998624 0.00627801 0)
(0.99868 0.00553493 0)
(0.99871 0.00473757 0)
(0.998721 0.00390993 0)
(0.998728 0.00306879 0)
(0.998751 0.00221197 0)
(0.998816 0.00133072 0)
(0.998901 0.000442287 0)
(1.00066 -0.000744295 0)
(1.00065 -0.00227802 0)
(1.00069 -0.003887 0)
(1.0008 -0.00555988 0)
(1.00096 -0.00730219 3.66999e-23)
(1.00115 -0.00913657 0)
(1.00135 -0.0110698 0)
(1.00153 -0.013097 0)
(1.00165 -0.0151914 0)
(1.00167 -0.0173143 0)
(1.00157 -0.0193633 0)
(1.00115 -0.021285 0)
(1.00047 -0.0228689 3.12332e-24)
(0.999775 -0.0239195 -7.23729e-23)
(0.998297 -0.0244452 -5.29122e-23)
(0.996901 -0.0241735 1.01971e-21)
(0.995485 -0.0230361 -1.12129e-21)
(0.993536 -0.0205591 1.12123e-21)
(0.991627 -0.0167651 -5.07148e-22)
(0.990204 -0.0121258 -2.41295e-21)
(0.989616 -0.00719904 2.45118e-21)
(0.989895 -0.00235664 -8.18532e-22)
(0.990865 0.00201198 6.54016e-24)
(0.992069 0.00584892 -3.53556e-22)
(0.993366 0.00913226 5.78129e-22)
(0.994711 0.0116198 4.17634e-23)
(0.996376 0.0133177 1.16581e-22)
(0.997272 0.0141478 -3.93077e-24)
(0.998112 0.0143293 0)
(0.998861 0.0139489 0)
(0.999435 0.0131552 0)
(0.999801 0.0120879 0)
(1.00004 0.0108342 0)
(1.00017 0.00946607 0)
(1.00024 0.00803728 0)
(1.00026 0.0065788 0)
(1.00027 0.00510889 0)
(1.00029 0.00362864 0)
(1.00034 0.00214663 0)
(1.00041 0.000700226 0)
(1.00306 -0.000984929 0)
(1.0031 -0.00300698 0)
(1.00323 -0.00512068 0)
(1.00347 -0.00732265 0)
(1.00379 -0.00964592 0)
(1.00416 -0.0121112 0)
(1.00456 -0.0147344 0)
(1.00493 -0.0175163 0)
(1.0052 -0.0204431 0)
(1.0053 -0.0234387 0)
(1.00503 -0.0264778 4.85068e-25)
(1.00441 -0.029347 2.16343e-23)
(1.00323 -0.0318748 -3.40022e-22)
(1.00109 -0.0338954 1.49104e-22)
(0.998973 -0.0346539 6.76019e-23)
(0.995858 -0.0341902 6.06485e-22)
(0.991904 -0.0318734 -2.73754e-22)
(0.987739 -0.0276655 -2.41406e-21)
(0.984315 -0.0217709 1.55594e-21)
(0.981936 -0.0149494 1.4814e-21)
(0.980971 -0.0076539 1.03025e-22)
(0.981471 -0.000287816 -4.68272e-22)
(0.983413 0.00655372 -1.41207e-22)
(0.985963 0.0123223 -6.96215e-22)
(0.988782 0.0168762 1.83781e-22)
(0.991803 0.0200993 -6.51854e-23)
(0.994188 0.0220195 -3.03507e-25)
(0.997088 0.0226603 1.592e-22)
(0.999062 0.0223589 7.04793e-23)
(1.00041 0.0213423 -4.03206e-25)
(1.00133 0.0197981 0)
(1.00198 0.0179065 0)
(1.00237 0.0158423 0)
(1.00257 0.0136921 0)
(1.00265 0.0115189 0)
(1.00267 0.00935606 0)
(1.00266 0.00721944 0)
(1.00265 0.00511069 0)
(1.00268 0.00303141 0)
(1.00273 0.00100159 0)
(1.00607 -0.00119918 0)
(1.00617 -0.00362854 0)
(1.00643 -0.00614179 0)
(1.00683 -0.00878193 0)
(1.00736 -0.0115919 0)
(1.00798 -0.0146034 0)
(1.00865 -0.017849 0)
(1.0093 -0.0213479 0)
(1.00982 -0.025091 0)
(1.01003 -0.0291023 4.44176e-24)
(1.00991 -0.033277 2.84885e-22)
(1.00917 -0.0374995 -3.02617e-22)
(1.00741 -0.0414117 6.8349e-22)
(1.00504 -0.0442615 -4.75681e-21)
(0.999981 -0.046031 3.22085e-21)
(0.994211 -0.0453722 1.38092e-21)
(0.987653 -0.0424222 -9.61138e-22)
(0.97969 -0.0365491 -3.69659e-21)
(0.973501 -0.0279316 9.39588e-21)
(0.969279 -0.0171628 -3.07952e-21)
(0.967923 -0.00541708 2.70541e-21)
(0.969495 0.00589264 -1.00937e-20)
(0.9733 0.0157093 4.56785e-21)
(0.978088 0.0232877 8.51071e-22)
(0.98324 0.0287995 -1.59344e-21)
(0.988649 0.0322937 -3.4781e-21)
(0.99405 0.0336441 5.84664e-21)
(0.997444 0.0336617 -1.43871e-21)
(1.00059 0.0323794 8.64505e-22)
(1.00302 0.0301855 -4.33389e-22)
(1.00453 0.0274678 3.47713e-23)
(1.00536 0.0244575 0)
(1.00584 0.0213274 0)
(1.00604 0.0182215 0)
(1.00607 0.0151848 0)
(1.00602 0.012242 0)
(1.00593 0.00939241 0)
(1.00586 0.00663188 0)
(1.00584 0.00392731 0)
(1.00586 0.00129773 0)
(1.00957 -0.00136037 0)
(1.00973 -0.00413141 0)
(1.01013 -0.0069905 0)
(1.01074 -0.00998185 0)
(1.01153 -0.0131676 0)
(1.01248 -0.0166222 0)
(1.01353 -0.0203973 0)
(1.01459 -0.0245426 0)
(1.01552 -0.0291327 7.64573e-25)
(1.01629 -0.0342315 -6.45861e-23)
(1.01671 -0.039838 5.24668e-22)
(1.01617 -0.0457631 3.19739e-22)
(1.014 -0.0515138 -1.56903e-21)
(1.00873 -0.0572902 1.3035e-22)
(1.00203 -0.0597617 -1.974e-21)
(0.991601 -0.0594263 4.93398e-21)
(0.979221 -0.056407 1.72142e-21)
(0.966596 -0.0485034 -5.26901e-21)
(0.956046 -0.0350108 1.39375e-21)
(0.949464 -0.0186374 -3.30771e-22)
(0.947613 -0.000912384 -1.38189e-21)
(0.95104 0.0162487 -2.67199e-21)
(0.958414 0.0308502 8.72575e-21)
(0.967984 0.0408438 -4.08372e-21)
(0.977957 0.0463388 -3.25537e-21)
(0.986593 0.0492652 2.3731e-21)
(0.993091 0.049753 -1.3972e-22)
(0.999957 0.0471456 -3.64797e-22)
(1.00413 0.0439841 3.82672e-22)
(1.00717 0.0402279 2.02454e-22)
(1.0093 0.0359713 4.53966e-22)
(1.01037 0.0315254 -6.75106e-23)
(1.01074 0.0271261 0)
(1.01079 0.0228841 0)
(1.01064 0.0188698 0)
(1.0104 0.0150762 0)
(1.01015 0.0114886 0)
(1.00994 0.00807092 0)
(1.0098 0.00479232 0)
(1.00978 0.001573 0)
(1.01341 -0.00145959 0)
(1.01365 -0.00443857 0)
(1.01421 -0.00751521 0)
(1.01507 -0.0107628 0)
(1.01619 -0.0142545 0)
(1.01755 -0.0180627 0)
(1.01909 -0.0222676 0)
(1.02073 -0.0269796 5.27485e-24)
(1.02255 -0.0324386 -1.10153e-22)
(1.02441 -0.0388325 2.39797e-22)
(1.02563 -0.0462038 -6.07386e-22)
(1.02545 -0.0544214 9.08101e-22)
(1.02287 -0.0634497 -3.68891e-22)
(1.01851 -0.0704417 -2.75423e-22)
(1.00658 -0.0785879 8.44919e-23)
(0.991633 -0.08119 7.64882e-22)
(0.977747 -0.0720498 -1.06392e-22)
(0.960048 -0.0641103 1.68641e-21)
(0.942857 -0.0482844 2.30347e-21)
(0.930886 -0.0254409 1.01102e-20)
(0.926972 0.000885144 7.10864e-21)
(0.931938 0.0254623 -3.54129e-21)
(0.942727 0.0448724 1.85087e-21)
(0.956969 0.0577287 2.88566e-21)
(0.973455 0.0727326 -2.6331e-22)
(0.987674 0.0729134 -9.72519e-22)
(0.999575 0.0684616 2.15008e-21)
(1.00524 0.0635722 -1.28078e-22)
(1.01026 0.0572281 -1.34179e-22)
(1.01367 0.0508371 -6.46835e-22)
(1.01596 0.0446672 1.30802e-22)
(1.01713 0.0386254 -7.93434e-23)
(1.01735 0.0328181 7.92294e-24)
(1.01698 0.0273592 0)
(1.01642 0.0223322 0)
(1.01582 0.0177115 0)
(1.01527 0.013435 0)
(1.01482 0.00941281 0)
(1.01452 0.00557143 0)
(1.0144 0.00185954 0)
(1.01746 -0.00156758 0)
(1.0178 -0.00464159 0)
(1.01854 -0.00784459 0)
(1.01966 -0.0111966 0)
(1.02116 -0.0148276 0)
(1.02301 -0.0188197 0)
(1.02516 -0.023299 0)
(1.02774 -0.0284981 -1.76743e-23)
(1.03106 -0.0348064 -5.17491e-27)
(1.03438 -0.042543 3.89159e-22)
(1.03693 -0.0517254 -1.16655e-22)
(1.03799 -0.0621768 -2.80182e-22)
(1.03697 -0.0732894 -1.11851e-21)
(1.02695 -0.0849357 4.22757e-23)
(1.0178 -0.091451 8.4404e-22)
(1.00226 -0.0990299 -1.09842e-21)
(0.974879 -0.103156 -2.39294e-21)
(0.944114 -0.0956082 2.56608e-21)
(0.912063 -0.0752922 7.87002e-21)
(0.888217 -0.0393639 -2.17045e-21)
(0.880506 0.00554794 3.55482e-21)
(0.891925 0.0474607 -6.2259e-21)
(0.915132 0.0775961 -5.41258e-22)
(0.94292 0.0932122 4.87662e-22)
(0.967385 0.0988052 -3.59223e-21)
(0.988483 0.0946669 2.37399e-21)
(1.00249 0.0868541 -1.86252e-22)
(1.01616 0.0802768 -7.60956e-22)
(1.02079 0.070317 6.63355e-22)
(1.02341 0.0609787 -4.07091e-22)
(1.02502 0.0525196 -2.78988e-22)
(1.0257 0.0448423 -4.58217e-23)
(1.02562 0.0377086 1.84912e-22)
(1.02465 0.031119 0)
(1.02341 0.0251394 0)
(1.02223 0.0197672 0)
(1.02121 0.0148722 0)
(1.0204 0.0103769 0)
(1.01986 0.00609136 0)
(1.01962 0.00200586 0)
(1.02159 -0.00145033 0)
(1.02201 -0.00458202 0)
(1.02293 -0.00776689 0)
(1.02435 -0.0111627 0)
(1.02626 -0.0148184 0)
(1.02867 -0.0188613 0)
(1.03158 -0.0234466 -1.03291e-24)
(1.03559 -0.0289718 6.11304e-23)
(1.04078 -0.0359672 -3.21557e-23)
(1.04592 -0.0446204 -2.86892e-23)
(1.05054 -0.0550263 3.83851e-23)
(1.05405 -0.067674 3.89407e-22)
(1.05529 -0.0846958 -3.10555e-22)
(1.04504 -0.0998117 5.62516e-22)
(1.0358 -0.114139 -1.14633e-22)
(1.01652 -0.132514 -1.58083e-21)
(0.984913 -0.142172 -1.51096e-21)
(0.937227 -0.146704 6.4689e-22)
(0.87882 -0.125566 -3.95738e-22)
(0.828065 -0.0725449 1.58425e-22)
(0.808681 0.0059679 -3.74351e-21)
(0.830621 0.0788503 -7.88769e-21)
(0.877589 0.125093 6.1747e-21)
(0.927679 0.142635 -3.04279e-21)
(0.968904 0.140064 -2.2507e-21)
(1.00037 0.130914 -6.1899e-22)
(1.01651 0.114336 -4.36398e-22)
(1.0331 0.0984184 -4.81975e-24)
(1.03608 0.0825438 5.03402e-22)
(1.0368 0.0694411 -5.96508e-23)
(1.03679 0.0584175 -7.53789e-22)
(1.0362 0.0491254 1.31579e-22)
(1.03528 0.0409523 9.40048e-23)
(1.03362 0.0335057 2.58514e-23)
(1.0314 0.026836 0)
(1.02939 0.0209319 0)
(1.02773 0.0156556 0)
(1.02646 0.0108304 0)
(1.02562 0.00642401 0)
(1.02522 0.00208966 0)
(1.02563 -0.00153695 0)
(1.02615 -0.00447207 0)
(1.02726 -0.00751987 0)
(1.02897 -0.0107542 0)
(1.03129 -0.0142399 0)
(1.03427 -0.0181151 0)
(1.03815 -0.0225702 -2.87833e-23)
(1.04392 -0.028109 9.01444e-23)
(1.05105 -0.0351723 6.52003e-23)
(1.05841 -0.0439196 -2.75646e-23)
(1.06586 -0.0546262 -5.88164e-23)
(1.0733 -0.0682201 1.34717e-22)
(1.08002 -0.0875718 -1.85051e-22)
(1.07575 -0.109125 -1.01214e-22)
(1.0705 -0.133298 1.81043e-24)
(1.04929 -0.168361 3.17949e-22)
(1.01445 -0.199326 1.02826e-21)
(0.950043 -0.233696 -1.72924e-21)
(0.841931 -0.239769 9.81508e-22)
(0.712979 -0.16566 -2.05932e-21)
(0.651536 -0.00141478 4.1097e-22)
(0.713424 0.157204 -1.83499e-21)
(0.83165 0.226791 1.61297e-22)
(0.927419 0.226297 -1.08673e-21)
(0.992693 0.201665 1.65547e-22)
(1.03261 0.169979 -1.88761e-21)
(1.04547 0.138673 7.30958e-23)
(1.05876 0.112387 -2.56176e-22)
(1.0571 0.090776 1.91879e-22)
(1.05411 0.0743129 -2.12318e-22)
(1.05123 0.0612971 1.36753e-22)
(1.04841 0.0506301 -3.74124e-24)
(1.04596 0.0417501 7.33376e-23)
(1.04339 0.033974 -6.30205e-23)
(1.04005 0.0270297 0)
(1.03703 0.0209769 0)
(1.03458 0.0156615 0)
(1.03274 0.0108455 0)
(1.03151 0.00632618 0)
(1.03092 0.0021349 0)
(1.0295 -0.00138148 0)
(1.03009 -0.00412729 0)
(1.03138 -0.00702163 0)
(1.03335 -0.00996156 0)
(1.03606 -0.0131369 0)
(1.03957 -0.0165997 0)
(1.04457 -0.0206365 1.69154e-24)
(1.05205 -0.0256988 4.9889e-24)
(1.0609 -0.0319123 4.98052e-23)
(1.07058 -0.0394338 1.26882e-22)
(1.08149 -0.048992 -1.19073e-22)
(1.09406 -0.0613963 -6.804e-24)
(1.10757 -0.0774394 -4.41548e-23)
(1.11394 -0.10432 4.18455e-22)
(1.12239 -0.137259 5.29986e-24)
(1.12233 -0.188089 -3.4161e-22)
(1.10487 -0.258105 -6.71152e-23)
(1.04996 -0.368491 4.80035e-23)
(0.876996 -0.496178 -1.21912e-21)
(0.486099 -0.489966 -5.0452e-20)
(0.187397 -0.00503725 -1.93247e-21)
(0.494129 0.452244 -3.46556e-20)
(0.845637 0.456423 2.10622e-21)
(1.00351 0.348909 -2.14776e-22)
(1.06401 0.261004 -1.11737e-23)
(1.0886 0.196151 1.81002e-22)
(1.08812 0.15324 4.67927e-23)
(1.0913 0.11392 1.49586e-22)
(1.08293 0.0914649 -5.39729e-23)
(1.07484 0.0739233 -1.46233e-22)
(1.06775 0.0597961 1.81977e-23)
(1.06177 0.0484868 8.09145e-23)
(1.05708 0.0394619 -1.99183e-23)
(1.05322 0.0319165 3.75374e-24)
(1.04874 0.0252598 0)
(1.04456 0.0194587 0)
(1.04124 0.0144096 0)
(1.0388 0.00995419 0)
(1.03719 0.00582073 0)
(1.03641 0.0018945 0)
(1.03309 -0.00110767 0)
(1.03371 -0.00364569 0)
(1.03509 -0.00609005 0)
(1.03726 -0.00873633 0)
(1.0403 -0.011523 0)
(1.04429 -0.0144561 0)
(1.05031 -0.0177633 1.02898e-23)
(1.05901 -0.0217123 2.47966e-23)
(1.06909 -0.0261327 3.8489e-23)
(1.08059 -0.0310672 3.60391e-24)
(1.09449 -0.0371747 9.29825e-23)
(1.11199 -0.0450028 1.33459e-22)
(1.1339 -0.0551084 -3.66124e-22)
(1.14863 -0.0797187 5.66948e-23)
(1.18086 -0.107891 -1.41733e-23)
(1.21058 -0.160714 -1.7435e-22)
(1.25153 -0.243192 -1.427e-22)
(1.31262 -0.400541 1.86134e-21)
(1.02877 -0.564896 -1.20617e-19)
(0.995799 0.514142 2.28682e-20)
(1.20676 0.390812 -1.47786e-22)
(1.17592 0.263268 7.7306e-23)
(1.15839 0.187044 2.74761e-23)
(1.1389 0.148688 4.158e-23)
(1.12686 0.103372 -3.10099e-23)
(1.11114 0.0834346 -4.41329e-24)
(1.09704 0.0665815 -9.21591e-24)
(1.08502 0.0529149 1.14633e-23)
(1.07539 0.0422537 -3.24796e-24)
(1.06801 0.0339451 1.29893e-23)
(1.06247 0.0272459 1.42496e-23)
(1.05686 0.0215115 0)
(1.05155 0.0165467 0)
(1.0474 0.0122584 0)
(1.04435 0.00844751 0)
(1.04239 0.00500856 0)
(1.0414 0.00163465 0)
(1.03624 -0.00117948 0)
(1.037 -0.0032521 0)
(1.0385 -0.00538785 0)
(1.04084 -0.00757102 0)
(1.04404 -0.00975528 0)
(1.04826 -0.0119695 0)
(1.05477 -0.0142699 -6.48166e-24)
(1.06389 -0.0165889 1.11077e-23)
(1.0742 -0.0184736 2.50071e-24)
(1.08643 -0.0198682 2.24567e-23)
(1.10142 -0.0209966 -2.25868e-24)
(1.12088 -0.021884 1.24335e-23)
(1.14656 -0.0216549 3.48634e-22)
(1.17326 -0.0366175 -4.18326e-22)
(1.22 -0.0460894 2.62378e-21)
(1.27461 -0.0751095 -8.31083e-23)
(1.36146 -0.114474 3.52832e-22)
(1.50646 -0.159721 3.04807e-21)
(0.0253352 -0.0181543 6.76179e-19)
(0.0268234 -0.0253995 -9.85804e-20)
(1.33489 0.254737 -1.41584e-22)
(1.26471 0.201692 -5.88519e-23)
(1.21883 0.149627 4.51519e-22)
(1.18492 0.120202 8.126e-22)
(1.1599 0.0814166 1.75943e-22)
(1.13713 0.0655271 -1.60785e-22)
(1.11751 0.0517719 3.56497e-24)
(1.10103 0.0406367 1.06812e-23)
(1.08786 0.0319437 -2.62991e-24)
(1.07774 0.02523 3.13501e-24)
(1.07031 0.0200322 1.2802e-23)
(1.06361 0.0157972 0)
(1.05734 0.0121754 0)
(1.05247 0.00904888 0)
(1.04887 0.00620357 0)
(1.04646 0.00358182 0)
(1.04525 0.0011333 0)
(1.03905 -0.000930285 -8.4128e-25)
(1.03978 -0.0026412 0)
(1.04137 -0.004455 0)
(1.04374 -0.00613284 0)
(1.04696 -0.00780276 0)
(1.05119 -0.00936774 0)
(1.05758 -0.0106794 -2.69434e-23)
(1.06607 -0.0111851 -4.40498e-23)
(1.07539 -0.0104716 1.68627e-22)
(1.08658 -0.0083297 6.8148e-23)
(1.10079 -0.00423961 6.24987e-22)
(1.11895 0.00239172 -9.64338e-22)
(1.14339 0.0145374 -1.533e-22)
(1.17433 0.0143545 1.7132e-21)
(1.22039 0.0265472 1.47155e-21)
(1.28186 0.02969 -1.30674e-21)
(1.37048 0.0378555 2.40011e-21)
(1.4599 0.0664998 -7.70669e-22)
(0.276283 0.0148736 -4.19319e-21)
(0.023098 -0.010075 7.91899e-21)
(1.25146 0.121242 6.85017e-23)
(1.3011 0.129079 -1.59688e-21)
(1.25568 0.100154 8.53927e-22)
(1.2184 0.0799863 -4.76517e-23)
(1.18427 0.0496182 -4.85133e-23)
(1.15693 0.0396944 -3.26618e-23)
(1.13352 0.03091 -6.19591e-22)
(1.11384 0.0238412 1.62068e-22)
(1.09784 0.0182471 -4.49654e-23)
(1.08526 0.0139294 -5.56214e-24)
(1.07597 0.0107978 -4.21189e-24)
(1.06813 0.0085133 0)
(1.06123 0.00666105 0)
(1.05594 0.0050411 0)
(1.05213 0.00357246 0)
(1.04968 0.00219195 0)
(1.04861 0.000902071 0)
(1.0416 -0.000445712 7.73928e-26)
(1.04222 -0.00198191 0)
(1.04365 -0.00327568 0)
(1.04595 -0.00462721 0)
(1.04915 -0.00592164 0)
(1.05324 -0.00704383 0)
(1.05868 -0.00751308 1.18659e-23)
(1.06553 -0.0065976 5.1465e-23)
(1.07291 -0.00388862 -1.74341e-22)
(1.08173 0.00108066 4.54518e-22)
(1.09229 0.0091735 -6.57571e-22)
(1.10446 0.0210913 -5.9785e-22)
(1.12035 0.0397121 5.03795e-22)
(1.14754 0.0571768 -1.30978e-21)
(1.18173 0.086593 -2.81965e-21)
(1.23448 0.123087 -7.21175e-22)
(1.31228 0.17221 2.80286e-22)
(1.40028 0.24429 -3.51118e-21)
(0.688432 0.124275 -7.36288e-23)
(0.183949 -0.165163 3.23507e-21)
(-0.190292 -0.18398 8.33602e-24)
(-0.186183 0.0511777 -8.10484e-22)
(0.0632812 0.0426323 -4.83187e-22)
(1.11313 0.0655129 2.04745e-22)
(1.31881 0.0753013 -1.62675e-21)
(1.27872 0.0493216 1.52801e-21)
(1.23798 0.0344969 -4.60345e-21)
(1.19779 0.0119549 -1.10044e-21)
(1.16809 0.00858421 6.968e-22)
(1.14265 0.00570707 -8.21793e-23)
(1.12124 0.00372288 3.59288e-23)
(1.10363 0.00209529 -3.06082e-23)
(1.08965 0.00090288 -1.14872e-24)
(1.07899 0.000267396 -1.10302e-23)
(1.0701 0.000296632 0)
(1.06288 0.00043595 0)
(1.05743 0.000427122 0)
(1.05358 0.000324275 0)
(1.05114 0.000103122 0)
(1.04978 -0.000169701 0)
(1.04329 -0.000712356 4.97554e-23)
(1.04417 -0.00164564 0)
(1.04575 -0.0026472 0)
(1.04802 -0.00369064 0)
(1.05101 -0.00459319 0)
(1.05466 -0.00532908 0)
(1.05848 -0.00533969 -1.8326e-24)
(1.06302 -0.00385906 -2.63347e-23)
(1.06771 -0.000563655 -1.82577e-22)
(1.07236 0.00511057 3.50161e-22)
(1.07722 0.0132463 -1.38184e-22)
(1.08171 0.0251393 1.04017e-21)
(1.08579 0.0457517 -8.21782e-22)
(1.10269 0.0726911 2.05396e-21)
(1.11381 0.114585 3.12823e-21)
(1.1276 0.1865 -8.51736e-22)
(1.17135 0.276825 6.82007e-22)
(1.20765 0.447426 -1.03784e-20)
(0.96975 0.602277 -3.16387e-21)
(0.2872 0.541053 6.15827e-20)
(-0.296836 0.519284 -4.44893e-22)
(-0.236111 0.439708 -7.32826e-21)
(0.363345 0.255757 5.00979e-21)
(1.15604 0.0717532 2.47089e-21)
(1.35423 0.0201583 2.25454e-21)
(1.29866 -0.0130314 -2.64144e-21)
(1.24727 -0.0179829 5.11638e-21)
(1.19935 -0.0310847 -1.36207e-21)
(1.1684 -0.02573 -4.29908e-22)
(1.14287 -0.0217528 8.43316e-23)
(1.12146 -0.0179057 2.37178e-23)
(1.10374 -0.0150227 4.11504e-23)
(1.08963 -0.0127067 1.31776e-23)
(1.0782 -0.0104404 -2.01241e-26)
(1.06892 -0.00790829 0)
(1.0619 -0.00577378 0)
(1.05664 -0.00414217 0)
(1.05287 -0.00280573 0)
(1.05038 -0.00157147 0)
(1.04903 -0.000486676 -2.03487e-23)
(1.04496 -0.000581664 -8.56176e-23)
(1.0457 -0.00133783 0)
(1.04722 -0.00212492 0)
(1.0494 -0.00281937 0)
(1.05215 -0.00344419 0)
(1.05524 -0.00402179 0)
(1.05768 -0.00418702 0)
(1.05957 -0.00311597 -1.94859e-23)
(1.06162 -0.000936653 -2.41438e-23)
(1.06355 0.00209577 1.49986e-22)
(1.06372 0.00703629 2.8742e-23)
(1.06096 0.0147215 -6.91374e-23)
(1.05427 0.0269224 1.62257e-22)
(1.03605 0.0507337 1.89653e-22)
(1.03397 0.0987479 -1.10473e-21)
(1.00707 0.159458 2.26786e-21)
(0.981631 0.269683 -1.27846e-21)
(0.912543 0.417461 -2.98045e-20)
(0.707963 0.64349 4.88722e-21)
(0.210081 0.883673 -1.10378e-20)
(-0.121775 0.856294 1.35714e-20)
(0.13142 0.538023 7.35455e-21)
(0.717421 0.224081 -5.80724e-21)
(1.33008 -0.03287 -9.14048e-21)
(1.38317 -0.104675 -1.64287e-21)
(1.30152 -0.0969803 4.72752e-21)
(1.2266 -0.0939068 2.47977e-23)
(1.18639 -0.0763481 -1.12011e-21)
(1.15659 -0.0601965 6.84769e-22)
(1.13306 -0.0484819 -2.3926e-22)
(1.11363 -0.0386327 4.57206e-23)
(1.0977 -0.0310789 -2.07046e-23)
(1.08444 -0.0249829 3.25056e-23)
(1.07312 -0.0196075 0)
(1.0645 -0.014788 0)
(1.05836 -0.0108876 0)
(1.05378 -0.00775699 0)
(1.05047 -0.00513422 0)
(1.04834 -0.00284523 0)
(1.04723 -0.000864155 5.64623e-23)
(1.04575 -3.36265e-05 1.81325e-24)
(1.04649 -0.000653333 0)
(1.04781 -0.00121666 0)
(1.0499 -0.00173066 0)
(1.05264 -0.00225084 0)
(1.05555 -0.00288172 0)
(1.05736 -0.00359923 0)
(1.05805 -0.00413268 0)
(1.05894 -0.00444299 -1.21964e-23)
(1.05966 -0.00505013 3.56485e-23)
(1.05825 -0.00582587 -1.21227e-22)
(1.05194 -0.00683093 3.09497e-22)
(1.03759 -0.00658306 -5.23e-22)
(1.00798 -0.0110542 2.16486e-23)
(0.977473 0.0276703 6.73426e-22)
(0.907971 0.063143 -4.29662e-22)
(0.843713 0.139423 -1.65528e-21)
(0.687508 0.244986 1.35585e-21)
(0.326362 0.481591 2.12948e-22)
(0.0741109 0.609127 3.59334e-21)
(0.198151 0.4705 2.15694e-21)
(0.620919 0.153049 9.73819e-22)
(1.12243 -0.158517 8.5392e-21)
(1.43965 -0.289229 1.80922e-20)
(1.34136 -0.244444 -9.01899e-27)
(1.26485 -0.190133 -3.32683e-22)
(1.18877 -0.151977 -1.69404e-22)
(1.15537 -0.116438 2.80707e-22)
(1.1319 -0.0899787 2.8801e-22)
(1.11333 -0.0704424 1.8639e-22)
(1.09821 -0.0548645 -1.12771e-22)
(1.08553 -0.0431154 1.7276e-23)
(1.07429 -0.0336758 0)
(1.06447 -0.0259637 0)
(1.05744 -0.0195285 0)
(1.05273 -0.0143831 0)
(1.04925 -0.0102377 5.79326e-23)
(1.04672 -0.0067992 8.01169e-23)
(1.04507 -0.00382548 4.77745e-23)
(1.04427 -0.00118076 0)
(1.04571 0.000105436 0)
(1.04668 8.82248e-05 0)
(1.04819 -8.4094e-06 0)
(1.05037 -0.00029825 0)
(1.05325 -0.000744396 0)
(1.05639 -0.00147277 0)
(1.05855 -0.00275567 0)
(1.05958 -0.00477911 0)
(1.06111 -0.00769331 -1.17721e-26)
(1.06299 -0.0122266 6.49171e-24)
(1.06343 -0.0191423 -6.7733e-24)
(1.06017 -0.0304268 2.29609e-22)
(1.04871 -0.0443282 -4.60506e-22)
(1.02054 -0.0742797 1.20841e-21)
(0.96666 -0.0713177 6.92482e-21)
(0.878557 -0.0880077 -2.03846e-21)
(0.749082 -0.0437974 -4.95906e-22)
(0.459237 0.0914183 3.8111e-21)
(0.239295 0.0786326 -5.87829e-22)
(0.253401 -0.108642 8.66148e-21)
(0.55839 -0.358004 5.24544e-21)
(0.962769 -0.547238 2.00167e-20)
(1.27783 -0.586627 -5.77187e-21)
(1.32272 -0.472088 -5.16243e-21)
(1.21988 -0.336616 2.13695e-21)
(1.18246 -0.258099 -1.32921e-22)
(1.1247 -0.186297 1.37285e-22)
(1.10778 -0.141359 -1.34138e-22)
(1.09545 -0.108377 -1.10979e-22)
(1.08552 -0.0832811 -2.26089e-23)
(1.07701 -0.0636579 1.29324e-23)
(1.06909 -0.0490208 2.31202e-28)
(1.06113 -0.0376295 0)
(1.0538 -0.0287047 0)
(1.04886 -0.0215912 0)
(1.04583 -0.0159595 0)
(1.04361 -0.0113842 0)
(1.04199 -0.00760307 0)
(1.04097 -0.0043204 0)
(1.04056 -0.00139365 -8.60425e-24)
(1.04537 0.000229802 0)
(1.04643 0.000775504 0)
(1.04816 0.00124117 0)
(1.0506 0.00145231 0)
(1.05382 0.00138224 0)
(1.0576 0.000905502 0)
(1.06094 -0.000399716 0)
(1.06358 -0.00316975 0)
(1.06752 -0.00774271 0)
(1.07311 -0.014904 0)
(1.07937 -0.0258436 -4.12637e-24)
(1.08563 -0.04385 -2.21927e-23)
(1.08838 -0.0689629 -1.4479e-22)
(1.07886 -0.110914 2.7729e-22)
(1.02461 -0.153881 1.97698e-20)
(0.92657 -0.226069 2.1978e-21)
(0.617075 -0.208085 9.79569e-21)
(0.493617 -0.236067 2.04903e-21)
(0.51393 -0.403293 2.70935e-21)
(0.604074 -0.628762 1.67869e-20)
(0.792078 -0.785453 -9.47291e-21)
(0.976659 -0.800591 -1.36436e-20)
(1.07294 -0.673987 5.40898e-21)
(1.08645 -0.495106 -1.35693e-21)
(1.0925 -0.355333 -8.17873e-22)
(1.07808 -0.275012 -1.17796e-22)
(1.05018 -0.192792 7.67395e-24)
(1.05195 -0.145255 1.87634e-23)
(1.05242 -0.111271 -1.7006e-23)
(1.05293 -0.084565 -1.68093e-24)
(1.05216 -0.0640137 0)
(1.05003 -0.0485523 0)
(1.04645 -0.0366214 0)
(1.04244 -0.0275736 0)
(1.0399 -0.0207621 0)
(1.03862 -0.0154562 0)
(1.03771 -0.0110979 0)
(1.03701 -0.00748785 0)
(1.03663 -0.00434077 0)
(1.03656 -0.00141168 0)
(1.04445 0.000450293 0)
(1.04548 0.00152254 0)
(1.04732 0.00257959 0)
(1.05004 0.00351799 0)
(1.05373 0.00423428 0)
(1.05839 0.0046181 0)
(1.0635 0.00425401 0)
(1.06887 0.00220321 0)
(1.07631 -0.00198375 0)
(1.08682 -0.00883149 0)
(1.10072 -0.0192016 0)
(1.11871 -0.0358876 2.33539e-24)
(1.142 -0.0619799 4.53084e-23)
(1.16286 -0.0978466 -1.26799e-22)
(1.14346 -0.169655 6.7883e-21)
(1.03594 -0.274738 2.74834e-22)
(0.706362 -0.384066 6.72342e-21)
(0.66479 -0.540056 2.93946e-21)
(0.703799 -0.637697 -8.86437e-22)
(0.749029 -0.684383 1.38623e-20)
(0.809391 -0.669039 1.1014e-21)
(0.865774 -0.59918 -3.68759e-22)
(0.898352 -0.507944 -4.30614e-21)
(0.931123 -0.432254 -3.45601e-21)
(0.964045 -0.338334 1.451e-21)
(0.977727 -0.250821 3.81223e-22)
(0.978293 -0.173117 -7.60723e-22)
(0.996756 -0.127996 -9.47961e-24)
(1.01036 -0.0977475 -4.18361e-24)
(1.02033 -0.0735305 0)
(1.02699 -0.0550967 0)
(1.0307 -0.0410036 0)
(1.03188 -0.0302079 0)
(1.03174 -0.022369 0)
(1.03185 -0.0168916 0)
(1.03223 -0.0127256 0)
(1.03241 -0.00928542 0)
(1.03245 -0.00636695 0)
(1.03249 -0.00375963 0)
(1.03263 -0.00126554 0)
(1.04271 0.000798095 0)
(1.04361 0.00245349 0)
(1.04543 0.00417132 0)
(1.04826 0.00592563 0)
(1.05224 0.00770458 0)
(1.05757 0.0094744 0)
(1.0642 0.0110159 0)
(1.07219 0.0114515 0)
(1.08279 0.010311 0)
(1.09727 0.00744661 0)
(1.11709 0.00268679 1.23453e-22)
(1.14398 -0.0043932 0)
(1.18248 -0.0186478 0)
(1.23315 -0.0317223 3.3392e-21)
(1.30304 -0.0770203 2.45916e-21)
(1.2177 -0.194955 1.12126e-20)
(0.998302 -0.374414 -1.0786e-22)
(0.861062 -0.571804 9.18834e-22)
(0.778883 -0.698098 -1.53393e-21)
(0.724425 -0.740093 1.5435e-20)
(0.700334 -0.704681 -1.78558e-21)
(0.71201 -0.600356 -5.27485e-21)
(0.765031 -0.477298 4.57664e-22)
(0.826139 -0.362487 5.69055e-22)
(0.852118 -0.270765 7.12789e-23)
(0.878683 -0.166314 -3.54096e-21)
(0.920338 -0.123367 1.37652e-21)
(0.951203 -0.0899476 0)
(0.975823 -0.0672494 0)
(0.993681 -0.0495707 1.43611e-23)
(1.0064 -0.0363391 0)
(1.01493 -0.0263081 0)
(1.0203 -0.0187978 0)
(1.02377 -0.0137232 0)
(1.02624 -0.0104951 0)
(1.02784 -0.00806598 0)
(1.02872 -0.0060067 0)
(1.02913 -0.00417892 -9.53467e-24)
(1.0293 -0.00248775 -6.84028e-24)
(1.02943 -0.000836331 0)
(1.03997 0.00109228 0)
(1.04079 0.00332865 0)
(1.04246 0.0057065 0)
(1.04512 0.008317 0)
(1.04891 0.0112813 0)
(1.05412 0.0146721 0)
(1.06116 0.0185245 0)
(1.07036 0.0223515 0)
(1.08239 0.0259072 0)
(1.09816 0.029457 0)
(1.11934 0.0334925 6.06971e-22)
(1.14818 0.0401044 0)
(1.18835 0.0464772 0)
(1.24827 0.0607506 -3.63965e-22)
(1.33845 0.0813795 -2.57842e-20)
(1.37993 0.0807965 -2.84116e-24)
(1.28247 0.0133554 0)
(1.13712 -0.0877567 -2.57459e-21)
(0.96297 -0.197187 3.4707e-20)
(0.782934 -0.234372 4.66801e-20)
(0.625976 -0.277098 -4.6146e-21)
(0.552155 -0.277475 3.38316e-21)
(0.560205 -0.246553 3.53329e-22)
(0.624517 -0.188595 0)
(0.716325 -0.12168 -2.20538e-21)
(0.816585 -0.0758518 4.77921e-22)
(0.881515 -0.0499785 2.28207e-21)
(0.921336 -0.0317533 0)
(0.954692 -0.0216322 0)
(0.978431 -0.0150083 1.48253e-23)
(0.99493 -0.0103898 0)
(1.00638 -0.00696952 0)
(1.0144 -0.00461854 0)
(1.02013 -0.00341616 0)
(1.02389 -0.00294327 0)
(1.02596 -0.00255245 1.72495e-23)
(1.02704 -0.00207468 -2.24155e-23)
(1.02757 -0.00150269 0)
(1.02779 -0.000907066 0)
(1.02791 -0.000247373 -5.26756e-23)
(1.03657 0.0011801 0)
(1.03724 0.00390361 0)
(1.03855 0.00683877 0)
(1.04062 0.0102406 0)
(1.04361 0.0142566 0)
(1.04785 0.0190714 0)
(1.054 0.0248988 -8.48174e-24)
(1.06261 0.0316606 0)
(1.07373 0.0395792 0)
(1.08752 0.0493447 0)
(1.10502 0.0620484 0)
(1.12822 0.0804743 0)
(1.15794 0.10587 0)
(1.20293 0.142687 3.38511e-23)
(1.27347 0.20299 6.70733e-23)
(1.32842 0.282107 2.47078e-23)
(1.29573 0.33444 0)
(1.19112 0.353951 0)
(1.03505 0.327712 -8.6327e-21)
(0.863323 0.316534 -1.71676e-19)
(0.704505 0.259179 -4.0761e-21)
(0.618009 0.196348 -1.73142e-21)
(0.60101 0.129377 0)
(0.623874 0.0736942 0)
(0.686539 0.0375772 0)
(0.776536 0.0451347 -2.1274e-23)
(0.855806 0.0521035 6.90527e-21)
(0.913884 0.0442971 1.46222e-22)
(0.954113 0.033648 0)
(0.979184 0.0241452 0)
(0.995788 0.0174135 0)
(1.00716 0.0127813 0)
(1.01534 0.00926868 7.56964e-23)
(1.02132 0.00642904 3.10204e-23)
(1.02495 0.00414012 1.56277e-24)
(1.02658 0.0024959 0)
(1.02726 0.00141191 0)
(1.02755 0.000752192 0)
(1.02768 0.000320576 0)
(1.02779 9.30013e-05 0)
(1.03293 0.00134347 0)
(1.03315 0.00427798 0)
(1.0338 0.00753979 0)
(1.03501 0.0113618 0)
(1.03686 0.0158979 0)
(1.0396 0.0214355 0)
(1.04403 0.028303 0)
(1.05065 0.0366781 0)
(1.05884 0.0472016 7.07288e-24)
(1.06803 0.0608317 0)
(1.07841 0.0789859 0)
(1.09097 0.10361 0)
(1.10498 0.138105 2.11456e-22)
(1.12243 0.183787 -4.9953e-22)
(1.14967 0.251128 0)
(1.18235 0.345004 0)
(1.17657 0.443412 0)
(1.12125 0.52146 0)
(1.01857 0.557203 4.90647e-21)
(0.899575 0.56792 2.14375e-20)
(0.785151 0.536592 -2.31909e-20)
(0.735659 0.478968 9.34236e-21)
(0.729344 0.400308 0)
(0.743935 0.317698 0)
(0.755954 0.230273 0)
(0.798489 0.183532 0)
(0.870598 0.156613 -1.08324e-20)
(0.942394 0.117301 -2.90493e-21)
(0.981939 0.0842088 0)
(0.999924 0.0582389 -2.16932e-24)
(1.01055 0.040572 -5.47927e-24)
(1.01752 0.0284207 -4.49338e-24)
(1.02281 0.0198435 0)
(1.02693 0.0136985 0)
(1.0291 0.00920307 0)
(1.02949 0.00598937 0)
(1.02921 0.00373938 0)
(1.02885 0.00217289 0)
(1.02855 0.00104479 0)
(1.02836 0.000240565 0)
(1.0289 0.00160623 0)
(1.02872 0.00443975 0)
(1.02878 0.00762489 0)
(1.02916 0.0112332 0)
(1.0298 0.0155336 0)
(1.0309 0.0208422 0)
(1.03322 0.0276031 0)
(1.03706 0.0361699 0)
(1.04123 0.0473177 0)
(1.04467 0.0619337 0)
(1.04711 0.0813953 6.9725e-23)
(1.04843 0.106855 6.44344e-23)
(1.04713 0.140725 -2.79024e-21)
(1.04498 0.184509 -1.63604e-22)
(1.04202 0.239377 0)
(1.04384 0.31111 0)
(1.03474 0.398028 0)
(1.00744 0.480752 0)
(0.9474 0.544153 -1.97526e-20)
(0.880451 0.578935 3.3124e-20)
(0.823355 0.57995 -1.56289e-21)
(0.811083 0.547556 -5.09148e-21)
(0.817008 0.502299 0)
(0.845079 0.445895 0)
(0.85861 0.37047 0)
(0.877333 0.294376 0)
(0.943079 0.225159 2.68894e-21)
(1.01075 0.159295 -6.85459e-21)
(1.03566 0.111 -1.19508e-21)