/*--------------------------------*- C++ -*----------------------------------*\
| =========                 |                                                 |
| \\      /  F ield         | OpenFOAM: The Open Source CFD Toolbox           |
|  \\    /   O peration     | Version:  v2106                                 |
|   \\  /    A nd           | Website:  www.openfoam.com                      |
|    \\/     M anipulation  |                                                 |
\*---------------------------------------------------------------------------*/
FoamFile
{
    version     2.0;
    format      ascii;
    arch        "LSB;label=32;scalar=64";
    class       volScalarField;
    location    "0";
    object      p;
}
// * * * * * * * * * * * * * * * * * * * * * * * * * * * * * * * * * * * * * //

dimensions      [0 2 -2 0 0 0 0];

internalField   nonuniform List<scalar> 
11644
(
0.279723
0.27921
0.278611
0.278153
0.277478
0.276656
0.275872
0.275446
0.275826
0.277553
0.281238
0.287346
0.296476
0.309247
0.324967
0.343496
0.363158
0.38187
0.398197
0.411126
0.419361
0.421906
0.421248
0.420069
0.417716
0.415273
0.414994
0.416566
0.419825
0.424886
0.430964
0.43763
0.444498
0.451094
0.457151
0.462425
0.466662
0.469967
0.472397
0.47381
0.283435
0.283008
0.282066
0.280703
0.279218
0.277813
0.276464
0.275391
0.275015
0.275969
0.278675
0.283907
0.292845
0.303768
0.319161
0.337585
0.356861
0.376571
0.394223
0.407548
0.41459
0.416922
0.416742
0.41418
0.411688
0.410736
0.410708
0.413469
0.418632
0.424842
0.431819
0.439236
0.446608
0.453645
0.460156
0.465859
0.470793
0.474764
0.477573
0.478994
0.282772
0.283044
0.282899
0.282083
0.280889
0.279413
0.277915
0.276583
0.275795
0.2758
0.277472
0.281434
0.287706
0.298716
0.312839
0.330721
0.35161
0.373967
0.393072
0.407963
0.417131
0.422269
0.423153
0.418534
0.412858
0.409955
0.41118
0.414249
0.419959
0.427671
0.436013
0.444331
0.452329
0.459675
0.46629
0.471943
0.476615
0.480078
0.482115
0.482749
0.280049
0.280555
0.281071
0.28147
0.281549
0.281195
0.28052
0.279688
0.278864
0.278589
0.278972
0.27966
0.283475
0.287439
0.297962
0.315779
0.337233
0.365006
0.389554
0.410418
0.423775
0.429661
0.430001
0.425345
0.420881
0.417805
0.417305
0.42215
0.428921
0.437119
0.446235
0.455041
0.462961
0.469917
0.475671
0.480312
0.483676
0.485796
0.486824
0.487166
0.275426
0.276174
0.277326
0.278844
0.280548
0.282069
0.283144
0.283716
0.283672
0.282893
0.280619
0.278084
0.27519
0.279363
0.288206
0.305997
0.331583
0.358798
0.381429
0.405486
0.423635
0.43523
0.441667
0.440765
0.435669
0.43538
0.438737
0.442246
0.449503
0.45686
0.464034
0.471756
0.478467
0.483646
0.487423
0.489944
0.491358
0.491983
0.492217
0.492249
0.268676
0.269408
0.271079
0.273446
0.276481
0.279898
0.283338
0.286319
0.287813
0.287024
0.284366
0.279741
0.277582
0.266636
0.263913
0.279684
0.308619
0.323414
0.347679
0.383219
0.411762
0.430075
0.442928
0.45492
0.461659
0.461951
0.465106
0.476526
0.480924
0.486491
0.490611
0.494154
0.49729
0.499356
0.500017
0.499568
0.498614
0.497594
0.496853
0.496415
0.25766
0.258924
0.261058
0.26433
0.268361
0.273216
0.278721
0.284218
0.288112
0.289746
0.287966
0.284412
0.272756
0.271483
0.265539
0.24567
0.247842
0.291821
0.329958
0.372018
0.407335
0.440667
0.46565
0.485837
0.514531
0.521392
0.525694
0.525232
0.525048
0.524494
0.522901
0.520552
0.517247
0.514168
0.510636
0.506978
0.503738
0.501152
0.499383
0.498488
0.243023
0.24394
0.246346
0.249628
0.254206
0.259761
0.266427
0.273393
0.27969
0.284334
0.283687
0.276645
0.283113
0.251949
0.244018
0.241642
0.23714
0.269523
0.323464
0.382953
0.441973
0.494533
0.530618
0.544294
0.561745
0.57897
0.57012
0.591795
0.570194
0.562194
0.552285
0.543044
0.532988
0.523868
0.516437
0.510007
0.504742
0.500881
0.498095
0.49663
0.223138
0.224726
0.226892
0.229828
0.233802
0.238704
0.244844
0.251041
0.257316
0.261896
0.263534
0.259728
0.250235
0.219532
0.210806
0.208719
0.208597
0.229073
0.269497
0.35454
0.449126
0.539707
0.59918
0.619289
0.634745
0.641539
0.619725
0.632108
0.610197
0.590874
0.570164
0.552922
0.538026
0.524621
0.514752
0.5068
0.500342
0.495245
0.491817
0.490082
0.20124
0.202142
0.203332
0.205197
0.207077
0.209714
0.212681
0.214999
0.217545
0.217855
0.214846
0.206395
0.195297
0.17342
0.171897
0.132417
0.130723
0.136562
0.182322
0.322183
0.513277
0.66142
0.715033
0.721817
0.704474
0.693531
0.650889
0.635564
0.610635
0.587753
0.565062
0.545312
0.528908
0.514332
0.50388
0.495974
0.489821
0.485021
0.481677
0.479326
0.179739
0.179549
0.179052
0.177792
0.176219
0.174618
0.172276
0.16864
0.164366
0.158112
0.151087
0.133525
0.124041
0.133055
0.0937013
0.0717844
0.0198372
-0.0234994
-0.0391719
0.121
0.598586
0.908185
0.887225
0.798187
0.725262
0.66889
0.63554
0.590241
0.566097
0.552422
0.535589
0.519379
0.505901
0.493848
0.485026
0.47849
0.473032
0.469323
0.466422
0.465227
0.158565
0.157572
0.154958
0.150904
0.145364
0.138324
0.129873
0.119372
0.108515
0.0950761
0.0837132
0.0650113
0.0549019
0.0616311
0.0276551
0.0177915
-0.0293586
-0.129318
-0.354994
0.837156
0.730138
0.641631
0.567298
0.548607
0.504062
0.498079
0.495084
0.488736
0.481547
0.474278
0.466463
0.460245
0.455951
0.452196
0.450046
0.449082
0.44889
0.144455
0.139823
0.133215
0.125989
0.116869
0.105955
0.0931647
0.0780248
0.0636107
0.0481177
0.035703
0.0234262
0.025685
0.0465938
0.0287162
0.0393047
0.034029
0.0320083
-0.0115065
0.62714
0.511249
0.475276
0.442591
0.435569
0.427044
0.431493
0.438612
0.443136
0.444245
0.442454
0.438262
0.434003
0.431272
0.429528
0.428902
0.429841
0.429594
0.135922
0.128201
0.12056
0.110857
0.099995
0.0868173
0.0726951
0.0568204
0.041765
0.0283051
0.021029
0.0177018
0.0385895
0.0692248
0.0860268
0.132938
0.183606
0.282766
0.341709
0.304955
0.218504
0.26751
0.316075
0.358882
0.386465
0.395248
0.404908
0.413995
0.41639
0.416028
0.413428
0.409971
0.40746
0.406135
0.406274
0.407761
0.414392
0.121198
0.119301
0.114572
0.106935
0.0973029
0.0846579
0.0717857
0.0572441
0.0446123
0.0359933
0.0361012
0.0453879
0.0709689
0.102359
0.139539
0.210526
0.310697
0.539805
0.933922
1.16944
0.666059
-0.190922
-0.327161
-0.204133
0.0949458
0.257578
0.341177
0.387544
0.398391
0.40225
0.402881
0.400011
0.396205
0.392098
0.389153
0.387634
0.387782
0.389479
0.391647
0.393388
0.11115
0.114675
0.113445
0.109947
0.105057
0.0976706
0.0878344
0.0764697
0.0689665
0.0659069
0.0697276
0.0799286
0.108658
0.134491
0.156319
0.214001
0.324592
0.500597
0.822371
1.24612
0.567698
-0.771716
-0.823389
-0.200636
0.129866
0.320254
0.392689
0.426353
0.422982
0.415324
0.403454
0.392535
0.382962
0.376399
0.371767
0.369919
0.369865
0.370444
0.369566
0.363832
0.121165
0.122907
0.123022
0.122371
0.12084
0.118611
0.115904
0.112729
0.111785
0.113391
0.118956
0.132541
0.127588
0.160521
0.184296
0.20873
0.244377
0.181075
-0.118189
-0.319495
-0.244901
-0.170806
0.254
0.381359
0.397668
0.424241
0.45634
0.456156
0.44268
0.426321
0.404075
0.388512
0.375638
0.366761
0.358808
0.353982
0.349726
0.345062
0.341076
0.338486
0.13911
0.139181
0.140114
0.142579
0.145896
0.148809
0.152053
0.156731
0.163807
0.172181
0.18125
0.193462
0.194596
0.186457
0.164242
0.124959
0.110066
0.0471575
-0.371889
-0.5185
-0.0437045
0.673472
1.24113
0.750355
0.495773
0.478369
0.451481
0.440798
0.43482
0.419739
0.402223
0.387266
0.371244
0.359384
0.35038
0.343971
0.337692
0.333289
0.330942
0.330582
0.158926
0.159157
0.161546
0.166184
0.172278
0.179265
0.186592
0.194608
0.204506
0.216686
0.231588
0.237175
0.235372
0.218436
0.153378
0.0610671
-0.0658098
-0.1823
-0.0220269
0.308391
0.65927
1.02354
0.817972
0.545497
0.57633
0.50926
0.445915
0.414999
0.408619
0.398292
0.387517
0.37621
0.36417
0.354881
0.348188
0.343207
0.338683
0.335927
0.334191
0.334688
0.177937
0.179027
0.182573
0.18811
0.195345
0.204486
0.215907
0.227011
0.239439
0.249525
0.264963
0.259455
0.273908
0.223101
0.13375
0.0853566
-0.0921583
-0.295877
-0.354178
-0.194726
0.113561
0.323477
0.470161
0.677222
0.685945
0.54991
0.445499
0.413576
0.385675
0.374182
0.366986
0.36138
0.357705
0.354793
0.350699
0.347179
0.344066
0.341666
0.339967
0.339877
0.192893
0.194715
0.197944
0.202721
0.209679
0.218694
0.230515
0.243299
0.257009
0.26736
0.282239
0.294301
0.322378
0.303902
0.215911
0.234053
0.099859
-0.0269861
-0.146423
-0.109432
0.150432
0.55315
0.848201
0.92102
0.670156
0.530671
0.458246
0.399631
0.377223
0.355018
0.353512
0.352894
0.354539
0.35435
0.352012
0.34979
0.347406
0.345349
0.343767
0.34315
0.199762
0.201447
0.20432
0.207819
0.212828
0.218724
0.225375
0.233928
0.24328
0.253628
0.262928
0.275637
0.260826
0.323409
0.308842
0.26293
0.30848
0.332576
0.38416
0.494756
0.517665
0.583212
0.562168
0.415809
0.387529
0.425248
0.354657
0.351727
0.347187
0.341812
0.344705
0.346328
0.348125
0.348722
0.34877
0.348484
0.347366
0.346023
0.34444
0.343052
0.201377
0.202016
0.203432
0.205162
0.207044
0.209633
0.210652
0.211631
0.213534
0.220977
0.229742
0.244856
0.248121
0.316114
0.348102
0.437473
0.507358
0.452371
0.563328
0.501988
0.329259
0.16097
0.200192
0.219619
0.325546
0.264163
0.306816
0.315995
0.315307
0.326528
0.331064
0.335114
0.337984
0.340166
0.341583
0.34234
0.342482
0.342502
0.342161
0.340805
0.200554
0.20074
0.200291
0.199491
0.19857
0.198227
0.196075
0.193937
0.188939
0.186631
0.183452
0.189479
0.190955
0.243358
0.235139
0.251026
0.33535
0.399582
0.495378
0.624384
0.626775
0.484405
0.360058
0.242538
0.261087
0.237606
0.245863
0.268362
0.288184
0.304283
0.312604
0.319599
0.324974
0.328789
0.331203
0.33249
0.332753
0.332786
0.332487
0.332324
0.197868
0.196906
0.196013
0.194194
0.192057
0.189252
0.184074
0.180528
0.171758
0.164764
0.152354
0.140202
0.121067
0.130634
0.128227
0.183601
0.0169051
-0.133235
-0.359092
-0.309071
0.0472371
-0.0214991
0.0833796
0.133611
0.222856
0.227177
0.234512
0.251784
0.267556
0.28175
0.291141
0.299598
0.30682
0.312091
0.31587
0.318163
0.319078
0.319732
0.319778
0.320819
0.195642
0.194205
0.193
0.191095
0.188726
0.185287
0.179796
0.174515
0.166858
0.160208
0.150927
0.136686
0.116566
0.122888
0.0238463
-0.0409554
0.0258463
0.0527291
-0.0395716
-0.0624209
0.126809
0.181865
0.306374
0.284517
0.246179
0.228213
0.231127
0.250913
0.262006
0.265472
0.275042
0.282321
0.288502
0.294569
0.299325
0.303416
0.306424
0.308661
0.310122
0.310309
0.194041
0.193986
0.193176
0.191875
0.189675
0.18701
0.183338
0.178099
0.173534
0.170121
0.171409
0.17199
0.177926
0.178775
0.19974
0.176043
0.217103
0.310328
0.279388
0.3238
0.408339
0.328045
0.378026
0.369852
0.320691
0.303242
0.28566
0.280272
0.266321
0.2639
0.265656
0.269268
0.273239
0.278407
0.283101
0.287813
0.29145
0.294277
0.296081
0.296138
0.191801
0.192457
0.192104
0.191299
0.189693
0.187629
0.185198
0.182889
0.180311
0.179049
0.181505
0.185459
0.196185
0.213944
0.213115
0.204927
0.151665
0.179571
0.293045
0.334936
0.393647
0.374087
0.396482
0.382122
0.378058
0.396271
0.38772
0.322727
0.269635
0.251384
0.247626
0.249189
0.254245
0.259024
0.264485
0.269268
0.272986
0.275472
0.27718
0.278955
0.188997
0.189741
0.189048
0.187902
0.186948
0.186291
0.185429
0.185796
0.185113
0.186858
0.180149
0.176928
0.168782
0.153961
0.163061
0.213299
0.181421
0.251191
0.265417
0.349384
0.606327
0.6426
0.712766
0.685686
0.631162
0.486624
0.370731
0.293222
0.248753
0.220111
0.219987
0.225543
0.232464
0.239251
0.247021
0.253249
0.258273
0.261919
0.264703
0.266325
0.187517
0.186483
0.187066
0.187332
0.187922
0.188106
0.187769
0.18934
0.189061
0.188406
0.182221
0.171136
0.144171
0.111073
0.0846668
0.143772
0.189999
0.31408
0.377709
0.556323
0.718061
0.816384
0.767279
0.623308
0.496436
0.33454
0.272185
0.255909
0.229831
0.206274
0.205585
0.21135
0.21983
0.228185
0.237109
0.244369
0.250397
0.254797
0.257608
0.25843
0.19046
0.190291
0.189701
0.189255
0.189088
0.189101
0.188662
0.188777
0.187126
0.187115
0.189282
0.178097
0.156177
0.134101
0.0781328
0.0441307
0.04014
0.132758
0.212834
0.320366
0.285631
0.293506
0.308404
0.235079
0.260855
0.284232
0.297994
0.256682
0.221805
0.205643
0.205717
0.210737
0.218454
0.224698
0.231828
0.237857
0.242848
0.246169
0.248453
0.249354
0.192523
0.192965
0.192317
0.191389
0.190055
0.188851
0.187119
0.186102
0.181737
0.179333
0.176252
0.165826
0.150526
0.136822
0.127832
0.119745
0.107521
0.172502
0.128975
0.202201
0.145262
0.18524
0.334897
0.326723
0.38436
0.325344
0.26882
0.234711
0.225302
0.211655
0.214672
0.21581
0.221001
0.223244
0.228442
0.23218
0.2361
0.238801
0.241347
0.243135
0.188295
0.188757
0.188405
0.187787
0.186717
0.185538
0.183774
0.182892
0.180532
0.181346
0.177651
0.175295
0.173936
0.176277
0.189279
0.210053
0.23177
0.291244
0.319819
0.454088
0.504272
0.583395
0.583604
0.531353
0.46519
0.363842
0.32682
0.284297
0.259028
0.238657
0.235476
0.229378
0.229597
0.230213
0.233149
0.235053
0.237444
0.239285
0.240957
0.242062
0.184818
0.183558
0.182571
0.181559
0.180069
0.17895
0.177574
0.177631
0.178561
0.182809
0.189652
0.205124
0.217335
0.219877
0.213587
0.237457
0.272692
0.322255
0.363436
0.515248
0.635677
0.627844
0.591206
0.539693
0.463712
0.404719
0.362597
0.316079
0.284991
0.26168
0.249045
0.24182
0.239789
0.239613
0.24055
0.241265
0.242326
0.243039
0.243203
0.24323
0.185344
0.184091
0.182193
0.180067
0.177574
0.17528
0.172272
0.170583
0.168406
0.169928
0.188855
0.212845
0.252306
0.308496
0.342148
0.395253
0.422396
0.480953
0.487568
0.555991
0.56846
0.548683
0.514669
0.45238
0.446711
0.390721
0.370055
0.324985
0.288948
0.267738
0.2528
0.24765
0.245553
0.243642
0.243328
0.243041
0.243517
0.244194
0.244482
0.243325
0.187756
0.186949
0.185683
0.183731
0.180696
0.177168
0.172759
0.169396
0.167019
0.168732
0.176706
0.188361
0.205874
0.283143
0.366891
0.452793
0.54373
0.61217
0.627692
0.674685
0.593139
0.527077
0.53256
0.470255
0.448048
0.382492
0.331869
0.284466
0.267956
0.261431
0.25726
0.253155
0.250073
0.247386
0.245465
0.243971
0.242831
0.241916
0.240955
0.241042
0.191727
0.191567
0.190556
0.188905
0.186289
0.18356
0.179898
0.176656
0.174727
0.176355
0.181524
0.199905
0.200079
0.198761
0.198265
0.25945
0.330218
0.423021
0.494531
0.5311
0.525886
0.513951
0.451411
0.402234
0.339906
0.294938
0.284033
0.274827
0.271306
0.269428
0.259493
0.254852
0.250086
0.24882
0.246385
0.244428
0.242883
0.242105
0.241925
0.242696
0.195777
0.195736
0.19491
0.193922
0.192213
0.191372
0.189784
0.189264
0.187063
0.188689
0.196337
0.208667
0.226655
0.248423
0.229203
0.227289
0.206122
0.246488
0.230097
0.261972
0.430953
0.394582
0.399553
0.344373
0.335999
0.294889
0.286161
0.272869
0.268651
0.263057
0.25219
0.24942
0.246891
0.24723
0.246537
0.245997
0.246125
0.246352
0.246411
0.246064
0.201357
0.200802
0.200226
0.20012
0.19988
0.200584
0.201472
0.203566
0.205176
0.212474
0.22155
0.238531
0.253024
0.295667
0.344825
0.398238
0.420044
0.461887
0.420336
0.400966
0.429521
0.397447
0.427611
0.382288
0.362465
0.343482
0.305678
0.278735
0.262428
0.251285
0.245904
0.243494
0.242887
0.244329
0.244623
0.245129
0.245581
0.245654
0.245475
0.244831
0.20974
0.209769
0.210494
0.211634
0.212562
0.214436
0.216621
0.219892
0.225928
0.234475
0.244974
0.267664
0.291393
0.337827
0.379714
0.4407
0.495343
0.542273
0.566192
0.585765
0.52851
0.441263
0.432383
0.40183
0.375449
0.343737
0.321227
0.293264
0.276038
0.258032
0.246982
0.240742
0.237762
0.237161
0.237618
0.23857
0.239394
0.240166
0.240589
0.240956
0.219564
0.220525
0.221489
0.222683
0.22399
0.226016
0.227883
0.232301
0.238299
0.246874
0.260772
0.277545
0.294501
0.319223
0.337975
0.384221
0.437625
0.489481
0.517189
0.525436
0.551573
0.53259
0.530301
0.493764
0.450355
0.396794
0.356439
0.316095
0.289713
0.264368
0.243244
0.233785
0.231466
0.231154
0.232429
0.234171
0.235787
0.237436
0.239021
0.240573
0.225324
0.226661
0.227613
0.228825
0.230381
0.232781
0.235935
0.239873
0.244199
0.251615
0.26144
0.270452
0.292974
0.32696
0.332065
0.359364
0.379773
0.43686
0.417123
0.470948
0.604926
0.590654
0.631298
0.58418
0.549244
0.478898
0.416786
0.342888
0.287529
0.256036
0.237062
0.230783
0.230027
0.232227
0.23439
0.236639
0.23873
0.240357
0.241717
0.242725
0.228772
0.228322
0.2297
0.23168
0.234455
0.237257
0.241243
0.245675
0.251333
0.257406
0.261036
0.262534
0.268474
0.299558
0.318139
0.347194
0.361949
0.394747
0.421162
0.490451
0.538843
0.59523
0.573498
0.517165
0.468807
0.391757
0.334357
0.2847
0.261583
0.252974
0.241424
0.236428
0.235029
0.236278
0.239165
0.241712
0.244007
0.245338
0.246195
0.246958
0.235429
0.235443
0.23577
0.236636
0.23817
0.239976
0.242621
0.245332
0.250725
0.25264
0.26156
0.262332
0.256325
0.270769
0.286729
0.31741
0.345281
0.383797
0.391295
0.433543
0.369389
0.374893
0.384507
0.346105
0.328697
0.300243
0.296833
0.294388
0.286029
0.268391
0.252481
0.245584
0.243191
0.244086
0.246109
0.247868
0.249607
0.250717
0.251778
0.251661
0.241097
0.241809
0.242305
0.242731
0.243154
0.243429
0.243853
0.244303
0.243737
0.24486
0.248174
0.255365
0.262582
0.274577
0.288788
0.306402
0.327873
0.372852
0.358362
0.393737
0.359908
0.387442
0.444526
0.418177
0.421539
0.397285
0.388937
0.34086
0.305221
0.280635
0.265841
0.260004
0.25675
0.254983
0.254381
0.254152
0.254392
0.254918
0.255461
0.255921
0.241859
0.24253
0.242716
0.242691
0.24252
0.242146
0.241576
0.242231
0.241869
0.244564
0.248666
0.260127
0.274875
0.290146
0.30454
0.318005
0.318396
0.354471
0.392931
0.499025
0.529193
0.573139
0.586691
0.557797
0.538151
0.481485
0.430864
0.369233
0.339022
0.310661
0.289641
0.280267
0.272716
0.267919
0.265069
0.263143
0.262105
0.26156
0.261465
0.26178
0.243041
0.242061
0.241213
0.240141
0.238978
0.23778
0.237051
0.237129
0.239536
0.245344
0.257371
0.268796
0.283453
0.309397
0.333258
0.368511
0.399186
0.434282
0.462032
0.513645
0.556365
0.607957
0.588933
0.559901
0.513768
0.463523
0.419406
0.375448
0.347525
0.322549
0.307331
0.294685
0.286295
0.281052
0.277643
0.275162
0.273681
0.272163
0.270934
0.270637
0.247683
0.246336
0.244874
0.243202
0.241593
0.240065
0.239064
0.23743
0.240321
0.249818
0.273013
0.299746
0.335769
0.380568
0.421658
0.468582
0.501343
0.528309
0.537236
0.553975
0.506183
0.497732
0.49445
0.465003
0.447733
0.409158
0.393856
0.366663
0.349357
0.328204
0.311892
0.300688
0.293071
0.28869
0.285373
0.283005
0.281589
0.280747
0.279904
0.27858
0.254172
0.253449
0.252848
0.252021
0.250446
0.248507
0.247195
0.246169
0.24771
0.252893
0.264099
0.291166
0.332192
0.38037
0.423213
0.47163
0.501113
0.5335
0.545988
0.567007
0.495872
0.457207
0.448029
0.432671
0.437043
0.411838
0.398191
0.366623
0.34483
0.328621
0.314042
0.305076
0.298121
0.293552
0.289915
0.28702
0.284747
0.283291
0.281952
0.281262
0.262367
0.262376
0.261621
0.26081
0.25933
0.257828
0.256201
0.256516
0.259419
0.266378
0.276002
0.285433
0.292958
0.315409
0.340861
0.378859
0.403027
0.426896
0.427888
0.446975
0.478329
0.465346
0.458588
0.451072
0.430906
0.402144
0.377308
0.344857
0.337608
0.32755
0.315057
0.306868
0.300004
0.295264
0.291478
0.288792
0.286311
0.284742
0.283873
0.284473
0.268926
0.269246
0.269023
0.268942
0.268571
0.268479
0.268657
0.270779
0.275357
0.285151
0.301825
0.323718
0.33872
0.347738
0.352368
0.367548
0.36867
0.386107
0.384138
0.379498
0.440806
0.451116
0.455798
0.434265
0.409339
0.377875
0.354497
0.334978
0.32747
0.3171
0.308938
0.303143
0.298334
0.295517
0.293435
0.292422
0.29148
0.290983
0.290564
0.29017
0.275761
0.275322
0.275446
0.276353
0.277787
0.280063
0.283238
0.288328
0.297947
0.309896
0.332377
0.358904
0.395313
0.443739
0.471454
0.501312
0.505324
0.515919
0.495733
0.458756
0.448169
0.430524
0.412469
0.381913
0.374862
0.360729
0.351833
0.337946
0.323416
0.311917
0.30346
0.299606
0.296388
0.295443
0.295182
0.295009
0.294766
0.294314
0.293767
0.292803
0.284551
0.28457
0.285711
0.287378
0.290086
0.293758
0.298896
0.305931
0.316356
0.331605
0.35342
0.383374
0.415852
0.464802
0.500767
0.540098
0.566566
0.585315
0.580194
0.533754
0.481593
0.443737
0.414238
0.392489
0.380567
0.364067
0.355018
0.339374
0.324041
0.311564
0.299906
0.296076
0.292296
0.291289
0.291151
0.291535
0.291975
0.292288
0.292299
0.292166
0.293993
0.294765
0.296494
0.298534
0.301263
0.30503
0.309665
0.317023
0.32676
0.341808
0.357586
0.378682
0.394479
0.424441
0.446037
0.47298
0.489816
0.514148
0.508149
0.479566
0.503529
0.504254
0.503576
0.495765
0.475137
0.439832
0.406956
0.372023
0.343438
0.321257
0.306348
0.295779
0.289832
0.288902
0.288482
0.289238
0.290263
0.291528
0.292484
0.293722
0.299493
0.301269
0.302611
0.303968
0.306422
0.310317
0.314861
0.320392
0.329532
0.341227
0.359337
0.381251
0.393289
0.407624
0.413509
0.426358
0.423831
0.446986
0.47372
0.476447
0.514751
0.508128
0.522115
0.521904
0.503312
0.474246
0.438419
0.401301
0.365707
0.330777
0.311461
0.300061
0.296119
0.294522
0.294226
0.294749
0.295519
0.296306
0.297005
0.297782
0.300664
0.301075
0.302822
0.305224
0.308379
0.312293
0.317754
0.324036
0.332798
0.344574
0.359446
0.380934
0.397009
0.416271
0.428629
0.438403
0.44402
0.444263
0.446203
0.447828
0.463494
0.467703
0.483722
0.47062
0.449305
0.425688
0.395782
0.367321
0.341883
0.323811
0.31452
0.308113
0.304324
0.30247
0.30215
0.302595
0.303224
0.303473
0.303513
0.303857
0.303807
0.3037
0.304654
0.306288
0.308846
0.312005
0.316794
0.32226
0.330834
0.340136
0.353656
0.366387
0.378121
0.401605
0.424234
0.44286
0.456567
0.466298
0.456616
0.430614
0.432811
0.40816
0.411922
0.409536
0.398304
0.387336
0.373385
0.361894
0.353173
0.342471
0.330589
0.320451
0.313416
0.31034
0.30952
0.309338
0.309468
0.309487
0.30959
0.308849
0.30751
0.308228
0.308975
0.309929
0.311122
0.312701
0.315774
0.318914
0.324293
0.330006
0.338685
0.349737
0.359931
0.373939
0.388046
0.403344
0.418828
0.434039
0.435564
0.42484
0.451548
0.446737
0.478097
0.500076
0.484823
0.472486
0.448934
0.42771
0.397975
0.367806
0.348239
0.334679
0.325301
0.320124
0.3171
0.314989
0.313591
0.312766
0.312376
0.31233
0.307187
0.307906
0.308451
0.30904
0.309786
0.310512
0.312456
0.315211
0.319007
0.324135
0.334589
0.345342
0.354875
0.362278
0.365434
0.374891
0.382032
0.403568
0.438946
0.452345
0.51496
0.558319
0.587789
0.588878
0.573079
0.545427
0.507293
0.465008
0.424231
0.395012
0.371154
0.352111
0.339985
0.331962
0.325418
0.321263
0.318747
0.317137
0.316365
0.316348
0.304992
0.304626
0.304297
0.303944
0.304161
0.304843
0.306395
0.308859
0.313914
0.321818
0.332649
0.349207
0.369324
0.393439
0.418198
0.44234
0.463803
0.468587
0.480506
0.48932
0.499953
0.55754
0.573451
0.574609
0.553277
0.524442
0.488243
0.453589
0.424725
0.400856
0.379842
0.363
0.351609
0.342055
0.33485
0.330127
0.326665
0.323892
0.321786
0.321352
0.305244
0.304244
0.303566
0.303187
0.303294
0.304122
0.305938
0.30956
0.317155
0.329822
0.349632
0.377539
0.410863
0.446551
0.481042
0.50739
0.528699
0.52535
0.523351
0.521721
0.507593
0.504031
0.488398
0.49913
0.477599
0.466855
0.445798
0.42538
0.409646
0.394342
0.377969
0.363768
0.352458
0.344406
0.338224
0.333525
0.330036
0.327477
0.325622
0.324416
0.307914
0.307606
0.307603
0.307876
0.308393
0.309643
0.311212
0.314548
0.321071
0.33083
0.349225
0.373893
0.401593
0.431065
0.464376
0.489638
0.5146
0.527931
0.5186
0.514192
0.497896
0.483045
0.476177
0.48117
0.472226
0.461943
0.447099
0.431848
0.413433
0.391954
0.373782
0.359949
0.349222
0.342073
0.336468
0.33164
0.327751
0.325783
0.324456
0.322996
0.310969
0.311483
0.311556
0.311992
0.312531
0.31398
0.316595
0.320797
0.327862
0.336445
0.347792
0.360348
0.380714
0.404474
0.428971
0.445997
0.462504
0.454392
0.45954
0.479209
0.484322
0.49447
0.502335
0.500584
0.484922
0.470552
0.449445
0.430523
0.407732
0.383792
0.369044
0.355244
0.345546
0.338284
0.332323
0.327546
0.323474
0.320714
0.318926
0.318817
0.310685
0.310872
0.31165
0.313147
0.315041
0.317711
0.321482
0.327883
0.338241
0.35097
0.370545
0.38925
0.409275
0.42854
0.451456
0.467692
0.486837
0.473554
0.471425
0.492638
0.48169
0.493032
0.494902
0.48806
0.463798
0.444856
0.417667
0.397319
0.380665
0.366508
0.355691
0.345277
0.337729
0.331731
0.326584
0.323074
0.320366
0.318544
0.317404
0.317291
0.31051
0.310526
0.311278
0.313053
0.316123
0.320695
0.327111
0.336281
0.350271
0.369434
0.392844
0.426931
0.46761
0.502644
0.540204
0.561697
0.584904
0.581776
0.555901
0.549427
0.509819
0.47161
0.448732
0.427968
0.406603
0.394995
0.381388
0.369658
0.360554
0.351429
0.340937
0.333941
0.329126
0.325056
0.322032
0.31993
0.318288
0.317082
0.316112
0.315195
0.311937
0.312368
0.313718
0.316134
0.320189
0.325904
0.333984
0.345376
0.359237
0.380748
0.406242
0.439993
0.481259
0.520017
0.563363
0.595136
0.627548
0.62553
0.607786
0.574612
0.534545
0.498039
0.47239
0.451095
0.416847
0.395006
0.376841
0.362609
0.351338
0.340403
0.330833
0.323648
0.318703
0.31548
0.313396
0.311909
0.310642
0.30981
0.309257
0.308668
0.311244
0.312536
0.314973
0.3183
0.322767
0.328586
0.33617
0.346931
0.360909
0.377989
0.397367
0.419073
0.448442
0.476075
0.508703
0.530335
0.552757
0.555686
0.560348
0.565635
0.562533
0.549908
0.544351
0.533755
0.49972
0.46718
0.429908
0.394244
0.363795
0.341123
0.327183
0.317373
0.310153
0.306073
0.303557
0.302118
0.30113
0.300616
0.300536
0.300969
0.306921
0.308973
0.31106
0.313864
0.317548
0.32239
0.328638
0.338272
0.35057
0.36691
0.384913
0.404074
0.426531
0.445618
0.468655
0.486378
0.508691
0.522328
0.548392
0.568372
0.570604
0.555992
0.553511
0.540187
0.504053
0.471155
0.434103
0.402183
0.372255
0.345749
0.328094
0.315218
0.306286
0.301597
0.298799
0.297342
0.29645
0.296012
0.296054
0.296385
0.29796
0.299391
0.301192
0.30395
0.307771
0.312599
0.319015
0.328182
0.339909
0.35745
0.376424
0.404582
0.431743
0.454039
0.478993
0.499423
0.520632
0.524042
0.527192
0.536316
0.544071
0.534972
0.525704
0.503264
0.463198
0.432334
0.398286
0.370575
0.348822
0.331099
0.317943
0.309444
0.303372
0.299573
0.296554
0.294906
0.294202
0.293801
0.293744
0.293083
0.286545
0.286532
0.288516
0.291443
0.295452
0.300572
0.307206
0.31588
0.326159
0.342245
0.359897
0.387197
0.415282
0.443428
0.476829
0.50477
0.545642
0.555308
0.551277
0.542738
0.539835
0.51125
0.494152
0.467654
0.435307
0.408853
0.380659
0.358648
0.34112
0.328282
0.318257
0.309029
0.302493
0.296845
0.293024
0.290548
0.288659
0.287213
0.285961
0.285548
0.277252
0.277613
0.278945
0.280778
0.283506
0.287255
0.292217
0.299532
0.307252
0.31933
0.333226
0.353153
0.376911
0.407409
0.441183
0.475027
0.514342
0.541546
0.556215
0.561492
0.576964
0.562611
0.554387
0.530347
0.492599
0.459964
0.421817
0.392422
0.365106
0.34164
0.321182
0.307616
0.29814
0.291242
0.286194
0.282757
0.280368
0.278939
0.278286
0.27821
0.266448
0.267443
0.268508
0.269863
0.27159
0.273978
0.277246
0.282334
0.289276
0.299389
0.313187
0.330578
0.350043
0.373029
0.403407
0.439
0.48009
0.526148
0.566106
0.602503
0.641129
0.646513
0.63558
0.602149
0.553752
0.512822
0.46098
0.421204
0.380689
0.350048
0.328058
0.310165
0.296374
0.287959
0.281312
0.276979
0.274673
0.273598
0.273191
0.273143
0.251584
0.252119
0.252684
0.253722
0.255092
0.257099
0.259913
0.264497
0.271601
0.281961
0.296425
0.317543
0.345909
0.38362
0.433402
0.486401
0.547419
0.589484
0.611713
0.63661
0.657763
0.661184
0.638884
0.606177
0.546612
0.49781
0.445504
0.406724
0.371797
0.345792
0.326263
0.308666
0.295444
0.285912
0.278508
0.273192
0.269485
0.266947
0.265471
0.26491
0.23702
0.236797
0.237028
0.237992
0.239175
0.240919
0.243764
0.248705
0.257919
0.271034
0.29163
0.324116
0.368272
0.419829
0.476149
0.534992
0.597579
0.635753
0.656484
0.672743
0.671577
0.643472
0.582069
0.536467
0.485326
0.442466
0.399063
0.368865
0.342769
0.324419
0.309313
0.295807
0.284567
0.27601
0.269294
0.263963
0.25967
0.256201
0.253803
0.252484
0.225923
0.226108
0.225985
0.226447
0.227004
0.228296
0.230815
0.235501
0.243735
0.256822
0.278866
0.307036
0.343109
0.386207
0.44176
0.501023
0.570201
0.619093
0.652808
0.674083
0.668128
0.639087
0.574807
0.527333
0.475791
0.428124
0.3833
0.354273
0.3283
0.306391
0.289141
0.275011
0.264932
0.257356
0.251494
0.247553
0.244558
0.242055
0.240089
0.238132
0.21302
0.213601
0.214805
0.215903
0.216802
0.217981
0.220463
0.224475
0.2306
0.239592
0.253805
0.273976
0.299367
0.336529
0.392561
0.445106
0.515865
0.566216
0.608037
0.638723
0.645204
0.632662
0.597172
0.555246
0.488801
0.436642
0.390111
0.356529
0.323491
0.293863
0.27395
0.257908
0.246542
0.238628
0.232875
0.228728
0.225715
0.223703
0.222521
0.221221
0.199096
0.198783
0.19978
0.201544
0.20358
0.20598
0.209546
0.214761
0.222419
0.23186
0.245897
0.264577
0.290535
0.326238
0.374652
0.427283
0.499545
0.552624
0.596371
0.641453
0.651048
0.64776
0.612486
0.560258
0.496582
0.433247
0.376147
0.334407
0.299586
0.270476
0.252125
0.23683
0.226638
0.219181
0.213465
0.209053
0.205668
0.202838
0.201352
0.201461
0.188111
0.187585
0.187771
0.18851
0.190127
0.192687
0.196861
0.203498
0.2139
0.228731
0.249942
0.278747
0.31858
0.361524
0.419786
0.479204
0.54807
0.617098
0.647443
0.682129
0.671872
0.649468
0.596239
0.524014
0.453549
0.392537
0.338921
0.295822
0.263175
0.239665
0.223785
0.211198
0.203233
0.196605
0.192149
0.188892
0.186655
0.184908
0.183581
0.183698
0.176809
0.176894
0.177597
0.178801
0.18059
0.183847
0.188653
0.196381
0.208173
0.226679
0.251502
0.283557
0.328169
0.377035
0.445703
0.513837
0.598461
0.674775
0.720284
0.729812
0.700719
0.668079
0.610568
0.529016
0.440994
0.370329
0.311301
0.269654
0.23935
0.216905
0.200087
0.188214
0.18138
0.175772
0.172455
0.170075
0.168558
0.167535
0.166972
0.165872
0.162547
0.163346
0.165134
0.167672
0.170869
0.17513
0.181082
0.189504
0.201247
0.217883
0.239007
0.267658
0.309121
0.358874
0.42793
0.503458
0.592981
0.663676
0.721912
0.747757
0.734918
0.717856
0.667356
0.586639
0.493949
0.406642
0.331042
0.270214
0.227286
0.197885
0.179428
0.166767
0.158811
0.153702
0.150755
0.148435
0.146723
0.145693
0.145243
0.145
0.147248
0.148492
0.150442
0.152895
0.155821
0.159677
0.165215
0.172982
0.183686
0.198179
0.218787
0.244809
0.280864
0.326587
0.387522
0.457063
0.538341
0.628876
0.718663
0.759448
0.754874
0.731426
0.679117
0.593386
0.493798
0.406627
0.331482
0.267283
0.218466
0.181742
0.158631
0.144108
0.135261
0.130155
0.127342
0.12553
0.124317
0.124001
0.124459
0.125009
0.131865
0.133147
0.133946
0.135056
0.136581
0.139453
0.144247
0.151729
0.163002
0.17888
0.202777
0.231115
0.270162
0.31922
0.383859
0.459234
0.543482
0.634275
0.7207
0.738816
0.728065
0.691155
0.622007
0.526041
0.416077
0.33433
0.265653
0.213182
0.176865
0.149012