/*--------------------------------*- C++ -*----------------------------------*\
| =========                 |                                                 |
| \\      /  F ield         | OpenFOAM: The Open Source CFD Toolbox           |
|  \\    /   O peration     | Version:  v2106                                 |
|   \\  /    A nd           | Website:  www.openfoam.com                      |
|    \\/     M anipulation  |                                                 |
\*---------------------------------------------------------------------------*/
FoamFile
{
    version     2.0;
    format      ascii;
    arch        "LSB;label=32;scalar=64";
    class       volVectorField;
    location    "0";
    object      U;
}
// * * * * * * * * * * * * * * * * * * * * * * * * * * * * * * * * * * * * * //

dimensions      [0 1 -1 0 0 0 0];

internalField   nonuniform List<vector> 
11644
(
(-4.6704e-05 3.9231e-07 2.431e-22)
(-4.6391e-05 -1.20828e-06 6.70397e-22)
(-4.65535e-05 -3.12509e-06 3.59685e-22)
(-4.88484e-05 -4.9484e-06 0)
(-5.03492e-05 -6.72654e-06 0)
(-5.20416e-05 -1.19619e-05 0)
(-5.42226e-05 -7.96565e-06 0)
(-5.63517e-05 4.66862e-07 0)
(-5.32392e-05 8.69217e-06 0)
(-4.74947e-05 7.90616e-06 0)
(-4.30553e-05 -1.35903e-06 0)
(-5.33027e-05 -8.92783e-06 0)
(-7.6604e-05 -5.5465e-05 0)
(-0.00012437 -6.21463e-05 0)
(-0.000148754 -0.000138199 0)
(0.000550242 -0.000189953 0)
(0.0015294 -0.000884693 0)
(-0.000299213 -0.00186084 0)
(-0.00344274 -0.000131161 0)
(-0.00254207 0.00310796 -1.52333e-32)
(0.00170696 0.00345456 -5.14649e-32)
(0.00327181 0.000565153 0)
(0.000647369 -0.00134558 0)
(-0.00127248 -0.000697446 0)
(-0.000566548 -0.000102099 0)
(4.76269e-05 -9.90842e-05 0)
(4.23336e-05 -5.93438e-05 0)
(8.15193e-06 -8.08608e-05 0)
(-3.27282e-05 -6.27806e-05 0)
(-4.26063e-05 -7.26836e-05 0)
(-4.02783e-05 -8.07498e-05 0)
(-3.71118e-05 -8.71266e-05 0)
(-3.80878e-05 -9.65214e-05 0)
(-4.32739e-05 -9.96232e-05 0)
(-4.68423e-05 -9.45309e-05 0)
(-5.1022e-05 -7.97302e-05 0)
(-5.25867e-05 -6.46385e-05 0)
(-5.66086e-05 -4.82555e-05 0)
(-6.00595e-05 -3.1902e-05 0)
(-6.00509e-05 -1.05875e-05 4.71345e-23)
(-4.48355e-05 -1.73471e-06 3.1226e-22)
(-4.531e-05 -4.79876e-06 2.89253e-22)
(-4.28823e-05 -1.01583e-05 1.55349e-22)
(-3.88462e-05 -1.67739e-05 0)
(-3.46156e-05 -2.32969e-05 0)
(-3.2801e-05 -4.32721e-05 0)
(-4.26349e-05 -6.29307e-05 0)
(-4.56985e-05 -8.83842e-05 0)
(-3.68195e-05 -0.000108158 0)
(-2.50313e-05 -0.000120245 0)
(-1.05822e-05 -0.000127994 0)
(4.49019e-05 -0.000152182 0)
(7.89766e-05 -0.000181805 0)
(0.000204332 -0.000331581 0)
(0.000633834 -0.000525216 0)
(0.000637415 -0.000888277 -9.28193e-23)
(-0.000669364 -1.77226e-05 -3.0773e-22)
(-0.00193177 0.00148622 -1.06614e-21)
(-0.00152796 0.000241631 1.93834e-21)
(-0.000482152 -0.0026243 -2.71374e-21)
(9.94806e-05 -0.00295159 3.32451e-21)
(0.00116645 -0.000357689 -2.13578e-21)
(0.00177121 0.00119097 6.40403e-22)
(0.000805387 5.36001e-05 3.67616e-22)
(-0.000465294 -0.000851635 4.19032e-23)
(-0.000523501 -0.000605884 0)
(-0.000159534 -0.000461623 0)
(-6.19732e-05 -0.000327043 0)
(-2.75621e-05 -0.00030582 0)
(-1.07645e-05 -0.00028825 0)
(-2.38417e-05 -0.000274043 0)
(-3.39303e-05 -0.000254618 0)
(-4.6005e-05 -0.000224635 0)
(-6.26727e-05 -0.00019118 0)
(-8.23717e-05 -0.0001571 0)
(-8.47975e-05 -0.000121255 0)
(-9.02433e-05 -9.48566e-05 0)
(-9.31059e-05 -6.49388e-05 0)
(-9.36213e-05 -3.60238e-05 0)
(-9.33334e-05 -1.26323e-05 0)
(-3.59223e-05 -2.30358e-06 0)
(-3.60689e-05 -8.51092e-06 0)
(-3.55488e-05 -1.58329e-05 0)
(-2.64832e-05 -2.58214e-05 0)
(-1.68036e-05 -4.32337e-05 2.85244e-22)
(-9.16548e-06 -5.26108e-05 0)
(-2.96357e-06 -7.97874e-05 0)
(1.10714e-05 -0.000120407 0)
(2.26235e-05 -0.000170504 0)
(4.5601e-05 -0.000227624 0)
(7.92373e-05 -0.000287034 0)
(0.000123834 -0.000340482 0)
(0.000269207 -0.000400945 2.49521e-23)
(0.000340625 -0.00046816 -3.61581e-22)
(0.000117826 -0.000362742 5.65585e-21)
(-0.000798266 0.000178 -1.85331e-21)
(-0.0010572 0.00103665 3.93794e-21)
(0.000806188 0.000340967 -1.13123e-20)
(0.00217831 -0.00219816 -5.99639e-21)
(0.00120853 -0.00415474 9.80598e-21)
(-0.00083341 -0.00445104 -8.69827e-21)
(-0.00223407 -0.00308132 9.8332e-21)
(-0.00133187 -0.000607164 6.73247e-21)
(0.000672455 0.000534322 -6.05352e-21)
(0.00087007 -5.52932e-05 3.55894e-21)
(3.76259e-05 -0.000526608 -5.53009e-21)
(-0.000225333 -0.000633609 2.69291e-22)
(-0.000175266 -0.000552634 -2.68537e-23)
(-8.63315e-05 -0.000450512 0)
(-5.40756e-05 -0.000370642 0)
(-5.3704e-05 -0.00029712 0)
(-7.15515e-05 -0.000224415 0)
(-8.68326e-05 -0.000169075 0)
(-0.00010133 -0.000121406 0)
(-0.00011624 -9.06115e-05 0)
(-0.000123465 -7.00931e-05 0)
(-0.000124558 -4.76175e-05 0)
(-0.000119997 -3.04504e-05 0)
(-0.000117608 -1.93147e-05 0)
(-0.000117977 -5.65668e-06 0)
(-4.40626e-05 -4.13307e-06 0)
(-3.84805e-05 -9.17442e-06 0)
(-3.08965e-05 -1.87831e-05 0)
(-1.87931e-05 -3.22854e-05 0)
(-7.01253e-06 -4.54796e-05 0)
(1.18795e-05 -5.44518e-05 0)
(4.744e-05 -7.78291e-05 0)
(9.06269e-05 -0.000112917 0)
(0.00013679 -0.000162072 0)
(0.000180619 -0.000233009 0)
(0.000216208 -0.00030129 -1.67453e-23)
(0.000278147 -0.000351363 4.28936e-22)
(0.00027792 -0.000394265 4.03145e-21)
(0.000127799 -0.000302906 -1.39865e-20)
(-0.000274856 -5.65441e-05 3.10443e-21)
(-0.000496198 6.68203e-05 7.30828e-21)
(0.000289243 -0.000936968 1.62163e-20)
(0.00154318 -0.00160424 -1.24562e-20)
(0.00245154 -0.00138289 -2.02891e-20)
(0.00142222 -0.000994836 4.59346e-20)
(-0.000737892 -0.0010376 -3.20525e-20)
(-0.00233929 -0.00155529 -1.20719e-20)
(-0.00189599 -0.00198859 2.96853e-20)
(-0.000811756 -0.00152968 -2.07653e-20)
(0.000172486 -0.000416061 -5.31815e-21)
(0.000373982 -0.000290931 9.37634e-22)
(6.77466e-05 -0.000424383 1.15198e-20)
(-0.000146083 -0.000460182 -2.05368e-21)
(-0.00014935 -0.00039356 -1.61374e-22)
(-0.000143398 -0.000310336 7.86018e-24)
(-0.000151183 -0.000207695 0)
(-0.000151627 -0.000131793 0)
(-0.000150691 -7.35618e-05 0)
(-0.000146434 -3.92985e-05 0)
(-0.000139754 -1.97758e-05 0)
(-0.000142761 -1.45677e-05 0)
(-0.000139042 -1.10563e-05 0)
(-0.000135497 -9.04245e-06 0)
(-0.000135546 -1.12019e-05 0)
(-0.000138949 -3.43723e-06 0)
(-4.90874e-05 3.57456e-06 0)
(-4.7257e-05 -5.45975e-06 0)
(-3.11217e-05 -1.77499e-05 0)
(-2.26493e-05 -2.81332e-05 0)
(-4.2645e-06 -4.18548e-05 0)
(1.97961e-05 -5.72983e-05 0)
(6.91105e-05 -7.7872e-05 0)
(0.000129367 -9.29134e-05 0)
(0.000208311 -0.000123063 0)
(0.000267043 -0.000136803 -8.51068e-23)
(0.000319241 -0.000189515 -2.00599e-21)
(0.0003319 -0.000278606 -3.31984e-21)
(0.000276795 -0.00034232 -4.77196e-22)
(-2.37164e-05 -0.000295126 9.78071e-21)
(7.26341e-07 -0.000469613 -2.04028e-20)
(0.000609929 -0.00106728 2.92363e-21)
(0.000615527 -0.00201886 -7.64059e-21)
(0.000417188 -0.0013915 7.23473e-20)
(0.000984902 -0.000122523 -8.77731e-20)
(0.000818418 0.000731887 3.7921e-20)
(-0.000396607 0.000770374 -2.71595e-20)
(-0.000788737 0.000226708 3.96928e-20)
(-0.000415975 -0.000940237 -3.54159e-20)
(-0.000754288 -0.00206025 1.62102e-21)
(-0.000801261 -0.00139847 6.69699e-21)
(-0.000178586 -0.000641147 1.98685e-20)
(4.16039e-05 -0.000332739 -1.36067e-20)
(-0.000105198 -0.000308238 6.89935e-21)
(-0.000236772 -0.000166413 -2.6113e-21)
(-0.000263752 -6.38623e-05 3.00223e-21)
(-0.000253984 -2.33737e-05 -2.97769e-22)
(-0.000227004 -6.50076e-06 0)
(-0.000195185 1.6938e-05 0)
(-0.000172966 2.11224e-05 0)
(-0.000153797 2.55309e-05 0)
(-0.000149673 1.67351e-05 0)
(-0.000146618 1.67215e-05 0)
(-0.000144411 1.2781e-06 0)
(-0.00014309 9.8424e-06 0)
(-0.000147003 -7.3491e-06 0)
(-5.07948e-05 -4.20138e-06 0)
(-4.48315e-05 -9.70723e-06 0)
(-4.29024e-05 -1.07433e-05 0)
(-2.93666e-05 -1.98534e-05 0)
(-1.10864e-05 -3.29264e-05 0)
(1.9803e-05 -5.87696e-05 0)
(5.96079e-05 -8.69804e-05 0)
(0.000108644 -0.000116896 0)
(0.000139858 -0.000120933 -1.40877e-22)
(0.000213668 -0.000122581 -3.87847e-22)
(0.00034449 -0.000127422 -2.06372e-21)
(0.000418941 -0.000147746 -1.06064e-20)
(0.000431232 -0.000212054 1.02695e-20)
(0.000616526 -0.000379931 1.69901e-20)
(0.00103377 -0.000889121 8.55077e-22)
(0.00159625 -0.00159122 -1.87803e-20)
(0.000546323 -0.00142727 -2.15888e-20)
(-0.000110753 -0.00133213 1.82873e-20)
(-0.000438748 -0.000948495 -5.86694e-21)
(-0.000245395 2.55139e-05 -1.7049e-20)
(-5.14372e-05 0.000176307 3.17944e-20)
(0.00047959 -0.000337747 1.38589e-20)
(0.000444789 -0.00049083 -4.03328e-20)
(-5.55398e-05 -0.000876007 3.57634e-20)
(-0.00142178 -0.00141606 1.1038e-20)
(-0.000995893 -0.000879422 -8.67465e-21)
(-0.000508415 -0.000417025 -1.59046e-20)
(-0.000375604 -0.000103962 -1.7703e-21)
(-0.000350109 3.18478e-05 9.44778e-21)
(-0.000267918 7.57562e-05 -5.0423e-21)
(-0.000196885 9.22161e-05 7.90507e-23)
(-0.000186564 8.49651e-05 -3.05869e-23)
(-0.000185575 4.68492e-05 0)
(-0.000170764 4.89864e-05 0)
(-0.000160506 5.14732e-05 0)
(-0.000152267 5.47911e-05 0)
(-0.000147447 5.17567e-05 0)
(-0.00014407 5.15859e-05 0)
(-0.000141453 1.69502e-05 0)
(-0.000139813 2.64224e-05 0)
(-5.95215e-05 -1.26757e-05 0)
(-4.79278e-05 3.60594e-06 0)
(-3.84697e-05 -2.21481e-05 0)
(-9.43269e-06 -2.56429e-05 0)
(1.47507e-05 -3.51592e-05 0)
(5.86134e-05 -5.15716e-05 0)
(9.68266e-05 -7.75478e-05 0)
(0.000119055 -0.000107954 -7.50636e-23)
(0.00015767 -0.000147618 1.13882e-21)
(0.000255836 -0.000233109 -3.45684e-21)
(0.000393521 -0.00033072 -4.9739e-21)
(0.000569744 -0.000363151 3.02552e-21)
(0.000596279 -0.000509941 1.45156e-20)
(0.00100478 -0.000688323 -6.71803e-21)
(0.00115874 -0.000766253 -2.05659e-20)
(0.000499698 -0.00100136 1.07237e-20)
(0.000705057 -0.00115522 7.45937e-20)
(0.000102803 -0.00149729 6.61114e-21)
(-0.000870408 -0.0018742 -2.23937e-20)
(-0.000767942 -0.00157646 -6.33009e-20)
(-0.000190734 -0.00160462 3.78486e-21)
(0.000896515 -0.000896157 1.63007e-20)
(0.000790524 -0.000510915 2.51563e-20)
(-0.000618156 -0.000576698 2.17625e-20)
(-0.000408908 -0.000533297 -8.74313e-22)
(-0.00127211 -0.000547148 1.49169e-20)
(-0.000944973 -0.000588057 1.32624e-21)
(-0.000796431 -0.00035688 3.17502e-21)
(-0.000524325 -0.000238617 -1.91423e-20)
(-0.000368841 -0.000138088 1.1702e-21)
(-0.000237465 -4.54049e-05 4.07141e-21)
(-0.000184148 6.20405e-06 -6.91839e-23)
(-0.00019531 3.29882e-05 -1.00906e-22)
(-0.000209836 2.35581e-05 0)
(-0.000195379 2.46294e-05 0)
(-0.000170419 3.05946e-05 0)
(-0.000155714 9.89122e-06 0)
(-0.000135353 1.78524e-05 0)
(-0.000132935 1.42231e-05 0)
(-0.000124433 -1.48495e-05 0)
(-7.17717e-05 3.43337e-05 0)
(-7.45412e-05 -6.36279e-06 0)
(-4.09323e-05 2.65598e-05 0)
(-4.52112e-05 3.878e-05 0)
(-9.85015e-06 4.61841e-05 0)
(2.43559e-05 5.31389e-05 0)
(6.76912e-05 6.08901e-05 0)
(0.000121361 8.04299e-05 4.50772e-23)
(0.000292613 1.44133e-05 2.78609e-21)
(0.000471511 -0.00012132 -5.5606e-21)
(0.000536755 -0.00033839 -2.86697e-21)
(0.000671749 -0.000585327 -1.12761e-20)
(0.000980861 -0.000585568 1.17632e-20)
(0.00176925 -0.000330308 -3.64627e-21)
(0.00064202 -0.00138825 2.17995e-20)
(-0.000880869 -0.00156232 5.974e-22)
(0.000289445 -0.000471537 3.91024e-21)
(0.00130356 -0.00133663 2.15526e-20)
(0.000133331 -0.00224636 -6.77568e-20)
(-0.000398985 -0.00294058 -6.67678e-20)
(-0.000162334 -0.00333971 -8.86108e-20)
(0.000154419 -0.00209982 -1.0067e-20)
(-0.000210702 -0.0011967 -7.87815e-20)
(-0.000840997 -0.000614826 5.4262e-20)
(0.00105992 -0.000501459 -4.54614e-20)
(-3.44008e-05 -0.00113799 3.93535e-20)
(-0.000772811 -0.000748645 7.01978e-21)
(-0.000979307 -0.00102897 -4.52405e-21)
(-0.000795275 -0.00052828 4.97966e-21)
(-0.00067317 -0.000320561 -1.03262e-21)
(-0.00057144 -9.41932e-05 3.08273e-21)
(-0.000391521 3.35341e-05 -7.60511e-22)
(-0.000256043 0.000113279 -5.85386e-22)
(-0.000228057 0.000109793 0)
(-0.000205638 9.8961e-05 0)
(-0.000190142 7.93949e-05 0)
(-0.000167409 7.65671e-05 0)
(-0.000171431 1.18593e-05 0)
(-0.000138134 3.50478e-05 0)
(-0.000141924 2.45989e-07 0)
(-0.00013896 -1.15025e-05 0)
(-0.000113745 3.06867e-05 0)
(-0.000165325 6.00105e-05 0)
(-0.000134164 6.14615e-05 0)
(-0.000110479 9.4978e-05 0)
(-7.63138e-05 0.000133485 0)
(-4.38543e-05 0.000195529 6.29645e-23)
(9.62343e-05 0.000275601 8.23998e-22)
(0.000329063 0.000269443 -2.73408e-21)
(0.000625471 0.000177415 3.30751e-22)
(0.000970252 0.000105343 -8.41627e-22)
(0.00105655 -0.000340255 7.44893e-21)
(0.00104615 -0.000643305 -6.88457e-21)
(0.00303136 -0.00134729 9.82515e-21)
(0.000826284 -0.000434323 1.5472e-20)
(0.00172077 -0.00132153 3.61328e-21)
(0.00187964 -0.00092286 2.75377e-20)
(-0.000770715 -0.000160985 1.57149e-20)
(0.000604537 -0.000944771 -5.23438e-21)
(0.000237513 -0.00169944 2.30012e-20)
(-0.00018824 -0.00296256 6.68207e-21)
(-0.000744822 -0.00187693 -4.88811e-20)
(-0.00108307 -0.00142029 -1.07126e-19)
(-7.24231e-05 -0.000684631 1.81875e-20)
(-0.00177211 -0.00089271 7.48083e-21)
(-0.000739683 -0.000447107 1.20511e-20)
(-0.000555233 -0.000659123 1.47409e-20)
(-0.00129682 -0.00107304 -4.38099e-21)
(-0.00130358 -0.000522002 4.75135e-21)
(-0.0012417 -7.57029e-05 -6.78395e-22)
(-0.000924481 6.56942e-05 -4.52192e-22)
(-0.000629341 0.000170044 1.95912e-21)
(-0.000392991 0.000197648 -1.49179e-21)
(-0.000241976 0.000192842 -6.58284e-23)
(-0.000198585 0.00017398 0)
(-0.00014683 0.000157971 0)
(-0.0001072 0.000159415 0)
(-8.43705e-05 0.000167926 0)
(-0.000138912 5.66431e-05 0)
(-0.000117903 7.68347e-05 0)
(-0.000184084 -3.60747e-05 0)
(-0.00019692 7.41095e-05 0)
(-0.000146925 3.84283e-05 0)
(-0.000117914 0.000100859 0)
(-0.00014096 0.000133032 0)
(-0.000147759 0.000170897 0)
(-0.000147012 0.000230282 3.37847e-22)
(-1.70018e-05 0.000245683 -5.4954e-22)
(0.000264587 0.000267424 -6.50171e-23)
(0.000577841 0.000284748 2.50933e-22)
(0.00096637 0.000327219 -3.18795e-21)
(0.00150212 0.000997595 2.72311e-21)
(0.00170778 0.000178344 4.50501e-22)
(-0.000436525 2.13302e-05 -9.24035e-22)
(0.00114879 -0.000538621 -8.97688e-22)
(0.00223964 -0.000942627 6.58461e-21)
(0.000633046 -0.000301816 -6.2388e-21)
(0.00105993 -0.000231077 6.11433e-21)
(0.00167736 -0.000304725 -6.94131e-21)
(0.00134774 -0.00109953 6.93606e-21)
(4.48842e-05 -0.00163825 -9.7054e-21)
(-0.00127356 -0.00121733 -3.18568e-21)
(-0.00175397 -0.000735261 -6.8119e-21)
(-0.00129781 -0.00107395 1.92848e-20)
(-0.00139221 -0.000920192 1.21665e-21)
(-0.00161574 -0.000350362 -1.81273e-20)
(-0.00123074 8.57983e-05 4.5116e-21)
(-0.00177202 -0.000375682 2.24975e-21)
(-0.00176469 0.000747304 -2.43925e-21)
(-0.00145228 0.000110307 9.35601e-22)
(-0.00108056 9.89223e-05 1.45158e-21)
(-0.000771507 0.000158404 4.67257e-22)
(-0.000480193 0.000174375 -1.92585e-21)
(-0.000303538 0.000190578 1.68904e-22)
(-0.000263199 0.000160738 0)
(-0.00023536 0.000144463 0)
(-0.000231828 7.61867e-05 0)
(-0.000159377 9.63481e-05 0)
(-0.000104283 8.67153e-05 0)
(-9.1712e-05 -1.51398e-05 0)
(-0.000197926 0.000151844 0)
(-0.000256749 -3.96212e-05 0)
(-0.000175984 3.95455e-05 0)
(-0.000278118 7.02404e-05 0)
(-0.000287139 9.16448e-05 0)
(-0.000318926 8.83065e-05 0)
(-0.000271397 0.000103847 1.92797e-22)
(-5.04842e-05 -5.49022e-05 3.33126e-23)
(0.000237973 -0.000114418 -3.6373e-22)
(0.000420821 2.71375e-05 -6.14286e-22)
(0.00050883 -4.07236e-06 8.59955e-22)
(0.000785439 0.000364572 1.24922e-21)
(0.00146148 0.00108559 -1.59989e-21)
(0.00236928 -0.000145964 5.2772e-22)
(0.00281372 0.000139832 -2.30151e-21)
(0.00164873 0.000162234 -1.2372e-21)
(0.00120416 -0.000116897 2.39933e-22)
(0.00180097 -0.000330191 -1.82637e-21)
(0.00299112 -0.00118416 5.39198e-21)
(0.00330527 -0.00368885 9.25295e-20)
(-7.3597e-05 -0.00542166 -2.59447e-19)
(-0.00307776 -0.00315371 4.95135e-20)
(-0.00224547 -0.000958815 -5.44715e-21)
(-0.00151518 -0.000750757 1.75294e-22)
(-0.00168504 -0.00135906 3.9098e-22)
(-0.00284165 -0.000974747 -5.78236e-22)
(-0.00300516 0.000144903 -1.75751e-21)
(-0.00169771 0.000647181 1.97604e-21)
(-0.00134705 0.000226939 -1.33862e-21)
(-0.00129809 -0.000156203 2.74315e-22)
(-0.00115182 3.813e-06 6.83688e-22)
(-0.000920674 -2.58595e-05 -9.43569e-22)
(-0.00059069 8.95674e-05 1.6689e-22)
(-0.000294353 0.00023956 3.03923e-23)
(-0.000160552 0.000248312 0)
(-0.000162469 0.000224294 0)
(-0.000151338 0.000146856 0)
(-0.000218838 -2.13686e-05 0)
(-5.04668e-05 1.60407e-05 0)
(-8.99248e-05 -4.94834e-05 0)
(-0.000253721 -0.000157791 0)
(-0.000205339 -1.15271e-05 0)
(-0.000474523 -7.85719e-05 0)
(-0.000428527 -4.46541e-05 0)
(-0.000370193 7.96916e-06 0)
(-0.000316872 6.60811e-05 0)
(-0.00016162 -5.74933e-05 3.97147e-23)
(0.000169584 -0.000207588 7.49218e-23)
(0.000305304 -0.0002739 1.97775e-22)
(9.62433e-05 -0.000208784 7.10607e-23)
(-0.000119813 0.000205676 2.40483e-22)
(-0.000172216 0.0001305 -3.81007e-22)
(0.000122846 -0.000351513 -1.3461e-22)
(0.0033092 4.85779e-05 -5.80936e-22)
(0.00319415 0.000479615 8.93618e-22)
(0.00274812 -0.000245727 4.18432e-21)
(0.00231868 -0.000852429 -1.61005e-21)
(0.00138162 -0.000334231 2.89801e-22)
(0.00177859 0.00437843 -6.01098e-20)
(-0.000621263 0.00413526 -1.28875e-19)
(-0.00059143 -0.000529488 4.36291e-22)
(-0.00206629 -0.000879963 2.94698e-21)
(-0.0025394 -0.000336463 1.14368e-21)
(-0.00288678 -0.000775355 -3.54637e-22)
(-0.00134529 -5.10037e-05 6.40392e-22)
(-0.0012054 6.29847e-05 9.09955e-23)
(-0.00110551 0.000397802 -8.76509e-24)
(-0.00109788 0.000198681 -3.36116e-22)
(-0.00118189 0.000131724 4.85512e-23)
(-0.0009022 0.000202514 -4.82549e-24)
(-0.000452554 0.000306474 -2.73897e-23)
(-0.000140812 0.000417002 0)
(3.81458e-05 0.000341117 0)
(0.00018395 0.00032339 0)
(0.000212232 0.000225506 0)
(-0.000118967 0.000147092 0)
(-0.000115425 0.000159674 0)
(-0.000341405 -2.7863e-05 0)
(-0.000324985 0.000181062 0)
(-0.000135877 0.000592937 0)
(-0.000157751 0.000585655 0)
(-0.000276034 0.000405524 0)
(-0.000274523 0.000167406 0)
(3.71596e-05 -9.6303e-05 8.39203e-23)
(0.000385455 -0.000143077 -2.92112e-22)
(0.000499859 -0.00018528 -6.56482e-23)
(0.000358747 -0.000247381 3.92604e-22)
(-0.000169315 0.000364423 -1.25914e-21)
(-0.000193741 0.00166751 1.92259e-21)
(0.00272188 0.0024384 -9.43149e-22)
(-0.000551324 0.00274821 1.10966e-21)
(0.0023442 0.0028405 1.29021e-21)
(0.00564462 -0.000702871 1.75872e-21)
(0.00422748 -0.0035413 -7.2959e-22)
(0.00163534 -0.0073614 -2.03967e-22)
(-0.00214626 0.00563408 -6.32738e-19)
(0.00168848 0.005941 1.38279e-20)
(0.00255353 -0.00356344 -2.48746e-23)
(-0.003501 -0.00304639 1.06086e-21)
(-0.00404741 -0.000265459 -2.86883e-24)
(-0.00187612 0.00148497 -3.30017e-21)
(-0.00473986 0.00244809 -1.24084e-22)
(-0.00166758 0.0021545 -1.04407e-22)
(-0.00112097 0.00119965 -1.00889e-21)
(-0.00135333 0.000719095 1.1082e-21)
(-0.00123562 0.000679885 -7.71416e-23)
(-0.00099735 0.000591765 -4.03432e-23)
(-0.000544962 0.000529823 -6.37267e-23)
(-0.000232431 0.000632412 0)
(-0.000178748 0.000734654 0)
(-0.000247998 0.000810508 0)
(-0.000156162 0.000861757 0)
(5.48443e-05 0.000307047 0)
(0.000194198 9.91265e-05 0)
(0.000500488 0.000826947 -6.20852e-24)
(-0.000160664 0.000435477 0)
(-0.000435222 3.34769e-05 0)
(-0.000299751 -0.000381264 0)
(-8.4243e-05 -0.000426998 0)
(0.00011651 -0.00040403 0)
(0.000261815 -0.000199483 5.5877e-23)
(0.000490137 -0.00013026 6.0132e-23)
(0.00071185 -0.000433542 1.27987e-21)
(0.00101874 -0.000724318 -4.34462e-21)
(9.67782e-05 -0.000765089 2.28418e-22)
(-0.00112448 0.000988501 -2.54485e-23)
(-0.00122734 0.00226368 4.92094e-21)
(-0.00322651 0.00236013 -1.77677e-22)
(0.00323995 0.0064901 7.00282e-21)
(0.0150469 0.00606254 4.63794e-21)
(0.0161862 -0.0026423 -2.47994e-20)
(0.0403457 -0.0426861 1.7641e-21)
(0.018869 -0.112999 -1.12474e-19)
(-0.0431126 -0.0569545 -5.59366e-20)
(-0.00598383 -0.0237376 6.98702e-22)
(-0.0104913 -0.0031461 3.68055e-21)
(-0.00650458 0.00268042 -3.63461e-22)
(-0.00260586 0.00148503 1.7756e-20)
(-0.000807426 0.00264172 1.36217e-21)
(-0.00024076 0.00204353 -1.25151e-20)
(-0.000795318 0.00039748 8.09027e-21)
(-0.00153365 0.000334911 -2.63723e-21)
(-0.000981599 0.000604803 1.73014e-22)
(-0.000587962 0.000836742 6.12364e-22)
(-0.000288858 0.000571267 1.40194e-22)
(-9.65127e-05 0.000227731 0)
(9.40235e-06 -4.83123e-05 0)
(0.000107719 -0.000242561 0)
(0.000201152 -1.98623e-05 0)
(5.39167e-05 0.000307848 0)
(-0.000613594 0.000227191 0)
(-0.00251783 -0.00202517 -3.02089e-25)
(-0.000941189 -0.000632788 0)
(0.00037802 -0.000926329 0)
(0.00044014 -0.000440227 0)
(0.000137049 -0.000159603 0)
(-2.1546e-05 5.4161e-05 0)
(0.000398225 0.000305037 1.00338e-23)
(0.000535878 -0.000120119 -1.82984e-22)
(0.000485519 -0.000292598 -1.37149e-21)
(-5.55632e-05 -0.001203 8.05188e-22)
(0.000180613 -0.00246865 4.48799e-21)
(-0.000162707 -0.00173892 -3.84162e-21)
(-0.00200073 -0.0026645 -1.81591e-21)
(-0.00313774 0.00631367 8.05896e-21)
(-0.00139681 0.01517 -1.62806e-21)
(0.00563647 0.0281096 -3.89623e-20)
(0.0384944 0.0294092 5.19025e-21)
(0.146643 -0.049499 2.02535e-20)
(0.359534 -0.298167 -1.73896e-20)
(-0.763956 0.0854578 -3.1591e-20)
(0.00369732 0.377512 -9.91535e-22)
(0.679721 0.0675184 2.54513e-20)
(-0.495637 -0.237914 1.13451e-21)
(-0.0600363 -0.0445325 8.04737e-21)
(-0.0229272 0.0167788 4.82355e-21)
(-0.00791188 0.0160048 -1.88223e-20)
(-0.00573372 0.00697703 1.4099e-20)
(0.000304887 -0.00131961 -2.05747e-21)
(-0.000196617 0.000247891 -1.8187e-21)
(-0.000281789 -0.000552014 4.49038e-21)
(6.33903e-05 2.27558e-05 1.68283e-21)
(-0.000221702 0.000689718 -1.42026e-21)
(-0.000221627 0.00062476 2.07688e-22)
(-0.000102027 0.00102871 -3.89704e-23)
(0.000525685 0.000749009 0)
(0.000355279 0.000459628 0)
(1.4329e-05 9.15507e-05 0)
(-6.956e-05 -0.00054155 0)
(0.000932692 -0.000240626 0)
(0.00228517 -0.00141458 0)
(0.00331452 0.00133741 5.00352e-22)
(0.000922238 -0.000442687 0)
(-0.000553815 0.000572249 0)
(-0.00089728 0.000951883 0)
(-0.000631561 0.0010594 0)
(-0.000529332 0.000830638 0)
(-5.56826e-05 0.000144911 -1.95372e-24)
(0.00114337 0.000360223 -6.57543e-22)
(0.00250268 0.000609869 8.77421e-22)
(0.0048288 -0.000500679 -1.1739e-21)
(0.00645043 0.00135382 5.30934e-21)
(0.00506836 0.00342691 -9.25783e-21)
(0.000151369 -0.00258136 8.92676e-21)
(-0.0184334 -0.00363823 -2.23522e-20)
(-0.0244574 0.00805553 -1.64777e-20)
(-0.0331783 0.0291537 1.38253e-20)
(0.0157709 0.0986472 -4.10202e-20)
(0.505968 -0.0612705 -8.55323e-21)
(0.298137 0.139391 1.93602e-20)
(-1.21769 -0.218667 2.35227e-19)
(0.175816 -0.285613 -2.96263e-21)
(1.34851 -0.240455 -1.36055e-19)
(-0.533415 0.013018 1.36621e-20)
(-0.379412 -0.03452 -3.37559e-20)
(-0.00452916 0.0501398 3.41382e-20)
(0.0113833 0.0218697 3.10051e-20)
(0.0102859 -0.000954102 -3.13762e-20)
(-0.00127867 0.0053134 -9.98204e-22)
(-0.00511278 0.00702726 -2.45927e-22)
(-0.0055027 0.00388208 -4.44933e-21)
(-0.00364213 0.000862472 -3.05099e-21)
(-0.00173045 0.00159072 4.21763e-22)
(-0.000780782 0.00107116 2.72363e-22)
(0.000561135 0.000747738 -3.82616e-24)
(0.00103667 0.00127708 0)
(0.00122771 0.00148051 0)
(0.00152088 0.00140113 0)
(0.00118078 0.0010405 0)
(-0.000244867 -0.000124906 0)
(-0.00251638 0.00149689 -5.04015e-22)
(-0.0018512 0.00111457 9.43508e-22)
(1.64334e-05 0.00180935 0)
(-1.22769e-05 0.00105703 0)
(4.53514e-05 0.000203422 0)
(0.000241941 -0.000269826 0)
(0.000423929 -0.000578194 0)
(0.000522323 -0.00115892 0)
(0.000841015 -0.000174819 -5.71552e-23)
(0.00233894 0.00143488 -1.55452e-22)
(0.00180039 0.00495797 1.27636e-21)
(0.00262815 0.005238 -3.448e-21)
(0.00613634 0.00248127 7.58979e-21)
(0.00765555 -0.00249811 3.18923e-21)
(0.0133144 -0.0100293 -8.83302e-21)
(-0.0304639 -0.0268022 1.6678e-20)
(-0.119924 -0.0440597 2.84013e-20)
(-0.126139 0.0600148 8.17559e-21)
(0.281787 0.539214 2.95428e-19)
(-0.277526 1.05551 -1.81003e-20)
(0.89365 -0.0168912 -9.0018e-20)
(-0.00959763 -1.11375 3.46175e-19)
(-0.832051 0.166021 1.59415e-19)
(0.637769 0.743601 -6.79147e-21)
(-0.521579 0.280215 -1.85801e-19)
(0.125322 -0.00305392 8.0012e-22)
(0.0427038 -0.0136651 7.48408e-21)
(-0.0157131 0.00985435 5.35911e-21)
(-0.0055669 0.00816267 -6.55587e-21)
(-0.0024183 0.00801844 -5.66201e-22)
(0.0012125 0.00833863 2.59627e-21)
(0.00108224 0.00687513 -2.82532e-21)
(-0.000418361 0.00271321 7.98994e-22)
(0.000666439 0.000609877 1.27818e-22)
(0.000496287 -0.000866698 0)
(0.000260361 -0.000471876 0)
(0.00028213 -0.000251876 0)
(0.000338955 0.000154897 0)
(0.000407557 0.000915927 0)
(0.000594537 0.0015931 0)
(0.00262781 0.000742543 8.03098e-22)
(-0.00136734 -0.00143991 -6.26121e-23)
(-0.000895137 -0.000167912 0)
(0.000485436 0.000608926 0)
(0.000981147 0.000873195 0)
(0.000759929 0.000640204 0)
(0.000411941 0.000594253 0)
(-0.000600177 -0.000251947 0)
(-0.00266509 -0.00215909 0)
(-0.00444523 -0.0025716 -1.00139e-22)
(-0.00309865 -0.00189619 9.42047e-22)
(-0.00246707 -0.00221806 7.96216e-22)
(0.00267769 -0.00560309 -2.46891e-21)
(0.00983148 -0.0121337 -6.2631e-21)
(0.044214 -0.0032801 9.59871e-21)
(0.0197887 -0.0572613 -8.53646e-21)
(-0.00270555 -0.1808 2.37269e-20)
(-0.522668 -0.2304 -1.87419e-20)
(-0.869733 0.524986 8.57405e-21)
(1.21612 -0.211711 -1.52596e-19)
(2.06616 -0.700642 1.7465e-19)
(-0.050905 -0.630276 8.0514e-20)
(-1.94155 -0.688077 4.33395e-20)
(-0.875259 -0.00976873 3.92941e-20)
(0.783288 0.422693 -4.12093e-19)
(0.1358 -0.148632 -4.5286e-21)
(-0.0222567 -0.0550067 -2.16755e-20)
(-0.0296603 0.0140389 3.44024e-21)
(0.00124024 -0.00289382 1.0618e-21)
(0.00505473 -0.0015814 -5.86611e-21)
(0.00727851 -0.000444398 7.4932e-22)
(0.00708191 -0.000638135 -8.05193e-22)
(0.00767444 -0.00190208 1.03149e-22)
(0.00509454 -0.00211224 0)
(0.00225661 -0.000295286 0)
(0.000710847 0.000307246 0)
(8.23247e-05 0.000260027 0)
(-0.000260837 0.000445632 4.50271e-22)
(0.000136527 0.000151822 6.22695e-22)
(0.00135467 -0.000491989 3.71319e-22)
(0.00164244 -0.00146062 0)
(0.000651984 -0.000228901 0)
(-0.000328617 -0.00135856 0)
(-0.000815474 -0.00113973 0)
(-0.00064719 -0.000115557 0)
(-0.000278982 0.000808988 0)
(0.000457061 0.00147652 0)
(0.00168226 0.00158499 0)
(0.00370867 -0.000481158 0)
(0.00374231 -0.00414427 5.62691e-25)
(0.00319329 -0.00711128 -1.38011e-22)
(0.00388657 -0.00810122 6.80541e-23)
(0.00533866 -0.00867463 -2.86608e-21)
(0.0106875 -0.0100109 4.23227e-21)
(0.0276797 -0.00253006 -1.35791e-20)
(0.136586 -0.00687848 3.64921e-20)
(0.24287 -0.0687525 5.22145e-21)
(-0.265091 -0.539528 2.69636e-20)
(-1.02141 -1.26064 3.98311e-20)
(0.0956373 0.259927 1.31815e-20)
(0.62716 2.55693 -1.44928e-19)
(0.0156856 3.55527 -2.55329e-21)
(-0.557616 2.45025 7.46956e-20)
(0.0621176 0.170966 -6.59161e-20)
(0.843098 -0.995251 2.48543e-20)
(-0.164537 -0.161433 -1.56941e-20)
(-0.133576 0.0239226 -2.2781e-21)
(0.00644978 -0.00950136 5.89081e-21)
(0.00738459 -0.0102807 2.65624e-21)
(0.00438559 -0.0116276 2.0254e-21)
(0.000963959 -0.00990996 -3.67939e-22)
(-0.000191724 -0.00863911 -5.08078e-23)
(-0.00123883 -0.00524869 3.83326e-25)
(-0.00160877 -0.00115092 0)
(1.29476e-05 0.000989135 0)
(0.000713674 0.000846448 0)
(0.00112273 0.000222654 0)
(0.00136296 -0.000669952 0)
(0.00142005 -0.00155603 0)
(0.000744375 -0.00158456 0)
(-0.000231417 -0.000182759 -6.68751e-23)
(0.000663374 0.000910011 0)
(-3.02018e-05 0.000879013 0)
(-0.00100849 0.000474399 0)
(-0.00152366 0.000387271 0)
(-0.00133718 0.00092998 0)
(-0.000396645 0.00168775 0)
(0.00207676 0.00377355 0)
(0.00614493 0.00705931 0)
(0.00804356 0.0092193 0)
(0.00717937 0.00948498 0)
(0.00675644 0.0105483 -2.72401e-23)
(0.00191912 0.0128332 1.10552e-22)
(0.00171097 0.0246257 2.3289e-21)
(-0.0042776 0.036593 -2.41746e-21)
(0.0866661 0.108341 1.58894e-19)
(0.511239 0.19765 -1.27138e-20)
(1.27199 -0.208913 8.12734e-21)
(-1.12507 -0.921225 -2.55894e-20)
(-2.21403 -1.38724 1.42137e-20)
(-1.37681 -1.20514 -1.24767e-19)
(0.0585647 -1.03711 -5.20154e-20)
(1.47024 -1.11757 1.40607e-19)
(2.09882 -1.12692 -7.22788e-20)
(0.552407 -0.570413 -9.71831e-21)
(-1.03735 0.14507 -1.55874e-20)
(-0.0853549 0.125639 1.13475e-20)
(0.0335839 0.00219629 -1.38044e-21)
(0.010641 0.00729998 1.40106e-21)
(0.00305272 0.00146393 -1.52126e-21)
(-0.00387737 0.00396074 1.07513e-22)
(-0.00590825 0.00519818 0)
(-0.00702656 0.00649809 0)
(-0.00487005 0.00537048 0)
(-0.000875844 0.00273048 0)
(0.00128711 0.00113835 0)
(0.00197364 0.00064064 0)
(0.00196395 0.000210068 0)
(0.00127978 0.000442329 0)
(0.000199059 0.000876806 0)
(-0.000457875 0.000849272 0)
(-0.00242703 0.000949254 0)
(-0.00155938 0.00137743 0)
(-0.0012974 0.00115316 0)
(-0.00141164 0.000370493 0)
(-0.00168902 1.69489e-05 0)
(-0.00251387 9.62419e-05 0)
(-0.00395638 0.00152908 0)
(-0.00463341 0.00673213 0)
(-0.00357816 0.013981 0)
(-0.00267317 0.0207243 0)
(-0.00378027 0.0272721 0)
(-0.00536613 0.031538 -6.77267e-25)
(-0.0272149 0.0506437 -4.57205e-22)
(-0.0737672 0.0388129 -2.784e-22)
(-0.10101 0.122327 5.44927e-20)
(-0.0275703 0.472833 -3.77147e-20)
(1.30082 1.07208 3.79442e-20)
(1.05318 0.346955 -2.95883e-20)
(0.11838 -1.76079 -7.76549e-21)
(-0.193999 -3.59724 -1.26618e-19)
(-0.118935 -4.17732 -1.03286e-19)
(-0.0434501 -3.31363 -4.15792e-20)
(-0.417545 -1.34065 2.66911e-20)
(-1.19065 0.597968 -1.83126e-20)
(-0.411801 0.734071 1.35065e-20)
(0.187798 0.135608 1.86965e-20)
(0.0708392 -0.00287364 -5.77437e-21)
(0.0181467 0.0260096 1.10348e-22)
(-0.000232842 0.0179973 4.25994e-25)
(0.00122271 0.0189885 0)
(0.00137468 0.0156096 0)
(0.00277415 0.0107273 0)
(0.00439822 0.00448927 0)
(0.00409785 0.000487538 0)
(0.00286386 -0.000264438 0)
(0.00208406 1.94661e-05 0)
(0.00175176 0.000573382 0)
(0.00155133 0.00145558 0)
(0.00173146 0.00163095 0)
(0.00245432 0.00104636 0)
(-0.00274837 -0.00156607 0)
(-0.00118939 -0.00173493 0)
(-0.000216651 -0.00171845 0)
(-9.62984e-05 -0.00146466 0)
(-0.000973761 -0.00135693 0)
(-0.00290621 -0.00139854 0)
(-0.00673327 -0.0024485 0)
(-0.0114827 -0.00322941 0)
(-0.0128386 -0.00164519 0)
(-0.0119596 0.00170501 0)
(-0.0126287 0.00755628 -8.70037e-22)
(-0.0130375 0.00732103 0)
(-0.0199506 0.0115968 0)
(-0.073306 -0.0216221 1.45066e-20)
(-0.37684 -0.159807 -2.05314e-20)
(-0.819052 0.0488882 8.6625e-20)
(0.510432 0.67487 -7.70399e-22)
(1.53779 2.01601 1.22017e-20)
(1.33189 3.1584 2.64673e-20)
(0.584008 3.83899 1.19002e-19)
(-0.227762 3.90546 -5.69776e-20)
(-0.975159 3.39128 8.07303e-20)
(-1.49739 2.37317 -1.98118e-21)
(-1.07997 1.01498 9.83091e-21)
(0.498282 0.071179 -1.98572e-21)
(0.30544 -0.227788 7.99959e-20)
(0.0184132 -0.0405033 9.99694e-21)
(-0.0122384 3.53805e-05 0)
(-0.00299027 0.00270905 0)
(0.00402537 0.00410204 5.47884e-22)