/*--------------------------------*- C++ -*----------------------------------*\
| =========                 |                                                 |
| \\      /  F ield         | OpenFOAM: The Open Source CFD Toolbox           |
|  \\    /   O peration     | Version:  v2106                                 |
|   \\  /    A nd           | Website:  www.openfoam.com                      |
|    \\/     M anipulation  |                                                 |
\*---------------------------------------------------------------------------*/
FoamFile
{
    version     2.0;
    format      ascii;
    arch        "LSB;label=32;scalar=64";
    class       pointVectorField;
    location    "0";
    object      pointDisplacement;
}
// * * * * * * * * * * * * * * * * * * * * * * * * * * * * * * * * * * * * * //

dimensions      [0 1 0 0 0 0 0];

internalField   nonuniform List<vector> 
24440
(
(0 0 0)
(0 0 0)
(0 0 0)
(0 0 0)
(0 0 0)
(0 0 0)
(0 0 0)
(0 0 0)
(0 0 0)
(0 0 0)
(0 0 0)
(0 0 0)
(0 0 0)
(0 0 0)
(0 0 0)
(0 0 0)
(0 0 0)
(0 0 0)
(0 0 0)
(0 0 0)
(0 0 0)
(0 0 0)
(0 0 0)
(0 0 0)
(0 0 0)
(0 0 0)
(0 0 0)
(0 0 0)
(0 0 0)
(0 0 0)
(0 0 0)
(0 0 0)
(0 0 0)
(0 0 0)
(0 0 0)
(0 0 0)
(0 0 0)
(0 0 0)
(0 0 0)
(0 0 0)
(0 0 0)
(0 0 0)
(0 0 0)
(0 0 0)
(0 0 0)
(0 0 0)
(0 0 0)
(0 0 0)
(0 0 0)
(0 0 0)
(0 0 0)
(0 0 0)
(0 0 0)
(0 0 0)
(0 0 0)
(0 0 0)
(0 0 0)
(0 0 0)
(0 0 0)
(0 0 0)
(0 0 0)
(0 0 0)
(0 0 0)
(0 0 0)
(0 0 0)
(0 0 0)
(0 0 0)
(0 0 0)
(0 0 0)
(0 0 0)
(0 0 0)
(0 0 0)
(0 0 0)
(0 0 0)
(0 0 0)
(0 0 0)
(0 0 0)
(0 0 0)
(0 0 0)
(0 0 0)
(0 0 0)
(0 0 0)
(0 0 0)
(0 0 0)
(0 0 0)
(0 0 0)
(0 0 0)
(0 0 0)
(0 0 0)
(0 0 0)
(0 0 0)
(0 0 0)
(0 0 0)
(0 0 0)
(0 0 0)
(0 0 0)
(0 0 0)
(0 0 0)
(0 -4.9618e-06 0)
(0 -3.12894e-05 0)
(0 -8.60393e-05 0)
(0 -0.000132582 0)
(0 -0.000150444 0)
(0 -0.000132582 0)
(0 -8.60393e-05 0)
(0 -3.12894e-05 0)
(0 -4.9618e-06 0)
(0 0 0)
(0 0 0)
(0 0 0)
(0 0 0)
(0 0 0)
(0 0 0)
(0 0 0)
(0 0 0)
(0 0 0)
(0 0 0)
(0 0 0)
(0 0 0)
(0 0 0)
(0 0 0)
(0 0 0)
(0 0 0)
(0 0 0)
(0 0 0)
(0 0 0)
(0 0 0)
(0 0 0)
(0 0 0)
(0 0 0)
(0 0 0)
(0 0 0)
(0 0 0)
(0 0 0)
(0 0 0)
(0 0 0)
(0 -8.30968e-06 0)
(0 -0.000109923 0)
(0 -0.000323496 0)
(0 -0.000582757 0)
(0 -0.000831248 0)
(0 -0.00100448 0)
(0 -0.00116552 0)
(0 -0.00122218 0)
(0 -0.00116552 0)
(0 -0.00100448 0)
(0 -0.000831248 0)
(0 -0.000582757 0)
(0 -0.000323496 0)
(0 -0.000109923 0)
(0 -8.30968e-06 0)
(0 0 0)
(0 0 0)
(0 0 0)
(0 0 0)
(0 0 0)
(0 0 0)
(0 0 0)
(0 0 0)
(0 0 0)
(0 0 0)
(0 0 0)
(0 0 0)
(0 0 0)
(0 0 0)
(0 0 0)
(0 0 0)
(0 0 0)
(0 0 0)
(0 0 0)
(0 0 0)
(0 0 0)
(0 0 0)
(0 0 0)
(0 0 0)
(0 -3.48888e-06 0)
(0 -0.000144559 0)
(0 -0.000492993 0)
(0 -0.000972176 0)
(0 -0.00146573 0)
(0 -0.00201636 0)
(0 -0.00249325 0)
(0 -0.0027886 0)
(0 -0.00307101 0)
(0 -0.00316862 0)
(0 -0.00307101 0)
(0 -0.0027886 0)
(0 -0.00249325 0)
(0 -0.00201636 0)
(0 -0.00146573 0)
(0 -0.000972176 0)
(0 -0.000492993 0)
(0 -0.000144559 0)
(0 -3.48888e-06 0)
(0 0 0)
(0 0 0)
(0 0 0)
(0 0 0)
(0 0 0)
(0 0 0)
(0 0 0)
(0 0 0)
(0 0 0)
(0 0 0)
(0 0 0)
(0 0 0)
(0 0 0)
(0 0 0)
(0 0 0)
(0 0 0)
(0 0 0)
(0 0 0)
(0 0 0)
(0 0 0)
(0 0 0)
(0 -3.29891e-05 0)
(0 -0.000343068 0)
(0 -0.000911721 0)
(0 -0.00159963 0)
(0 -0.00245373 0)
(0 -0.00331518 0)
(0 -0.00406146 0)
(0 -0.00476054 0)
(0 -0.00525662 0)
(0 -0.00555302 0)
(0 -0.00568907 0)
(0 -0.00555302 0)
(0 -0.00525662 0)
(0 -0.00476054 0)
(0 -0.00406146 0)
(0 -0.00331518 0)
(0 -0.00245373 0)
(0 -0.00159963 0)
(0 -0.000911721 0)
(0 -0.000343068 0)
(0 -3.49245e-05 0)
(0 0 0)
(0 0 0)
(0 0 0)
(0 0 0)
(0 0 0)
(0 0 0)
(0 0 0)
(0 0 0)
(0 0 0)
(0 0 0)
(0 0 0)
(0 0 0)
(0 0 0)
(0 0 0)
(0 0 0)
(0 0 0)
(0 0 0)
(0 0 0)
(0 0 0)
(0 -6.48821e-05 0)
(0 -0.000454953 0)
(0 -0.00113551 0)
(0 -0.00208461 0)
(0 -0.00321259 0)
(0 -0.00438473 0)
(0 -0.00546038 0)
(0 -0.00648011 0)
(0 -0.00686329 0)
(0 -0.00727766 0)
(0 -0.00762427 0)
(0 -0.00789736 0)
(0 -0.00809264 0)
(0 -0.00822768 0)
(0 -0.00835243 0)
(0 -0.0083942 0)
(0 -0.00835243 0)
(0 -0.00822768 0)
(0 -0.00809264 0)
(0 -0.00789736 0)
(0 -0.00762427 0)
(0 -0.00727766 0)
(0 -0.00686329 0)
(0 -0.00648011 0)
(0 -0.00546038 0)
(0 -0.00438473 0)
(0 -0.00321259 0)
(0 -0.00208461 0)
(0 -0.00111194 0)
(0 -0.000411096 0)
(0 -5.1845e-05 0)
(0 0 0)
(0 0 0)
(0 0 0)
(0 0 0)
(0 0 0)
(0 0 0)
(0 0 0)
(0 0 0)
(0 0 0)
(0 0 0)
(0 0 0)
(0 0 0)
(0 0 0)
(0 0 0)
(0 0 0)
(0 0 0)
(0 0 0)
(0 -3.81626e-05 0)
(0 -0.00043673 0)
(0 -0.00121681 0)
(0 -0.00228967 0)
(0 -0.00354637 0)
(0 -0.00502495 0)
(0 -0.00573194 0)
(0 -0.00635859 0)
(0 -0.00705216 0)
(0 -0.00770226 0)
(0 -0.00829705 0)
(0 -0.00880235 0)
(0 -0.00767138 0)
(0 -0.00813977 0)
(0 -0.00850942 0)
(0 -0.00888226 0)
(0 -0.00917475 0)
(0 -0.00938317 0)
(0 -0.00950813 0)
(0 -0.00964055 0)
(0 -0.00968484 0)
(0 -0.00964055 0)
(0 -0.00950813 0)
(0 -0.00938317 0)
(0 -0.00917475 0)
(0 -0.00888226 0)
(0 -0.00850942 0)
(0 -0.00813977 0)
(0 -0.00767138 0)
(0 -0.00880235 0)
(0 -0.00829705 0)
(0 -0.00770226 0)
(0 -0.00705216 0)
(0 -0.00635859 0)
(0 -0.00573194 0)
(0 -0.00502495 0)
(0 -0.00354637 0)
(0 -0.00228967 0)
(0 -0.00117242 0)
(0 -0.000417729 0)
(0 -3.46571e-05 0)
(0 0 0)
(0 0 0)
(0 0 0)
(0 0 0)
(0 0 0)
(0 0 0)
(0 0 0)
(0 0 0)
(0 0 0)
(0 0 0)
(0 0 0)
(0 0 0)
(0 0 0)
(0 0 0)
(0 0 0)
(0 0 0)
(0 -0.000241462 0)
(0 -0.000986769 0)
(0 -0.00210958 0)
(0 -0.00351995 0)
(0 -0.00509078 0)
(0 -0.00668692 0)
(0 -0.00588571 0)
(0 -0.00665452 0)
(0 -0.00739432 0)
(0 -0.0080909 0)
(0 -0.00870979 0)
(0 -0.00933743 0)
(0 -0.00989206 0)
(0 -0.0103503 0)
(0 -0.00930004 0)
(0 -0.00971925 0)
(0 -0.0107823 0)
(0 -0.0110934 0)
(0 -0.0100528 0)
(0 -0.0103579 0)
(0 -0.0114029 0)
(0 -0.0116207 0)
(0 -0.0105744 0)
(0 -0.0106841 0)
(0 -0.0117469 0)
(0 -0.0118471 0)
(0 -0.0108206 0)
(0 -0.0108662 0)
(0 -0.0118923 0)
(0 -0.0118471 0)
(0 -0.0108206 0)
(0 -0.0106841 0)
(0 -0.0117469 0)
(0 -0.0116207 0)
(0 -0.0105744 0)
(0 -0.0103579 0)
(0 -0.0114029 0)
(0 -0.0110934 0)
(0 -0.0100528 0)
(0 -0.00971925 0)
(0 -0.0107823 0)
(0 -0.0103503 0)
(0 -0.00930004 0)
(0 -0.00989206 0)
(0 -0.00933743 0)
(0 -0.00870979 0)
(0 -0.0080909 0)
(0 -0.00739432 0)
(0 -0.00665452 0)
(0 -0.00588571 0)
(0 -0.00668692 0)
(0 -0.00509078 0)
(0 -0.00347758 0)
(0 -0.00209292 0)
(0 -0.000985715 0)
(0 -0.000262507 0)
(0 0 0)
(0 0 0)
(0 0 0)
(0 0 0)
(0 0 0)
(0 0 0)
(0 0 0)
(0 0 0)
(0 0 0)
(0 0 0)
(0 0 0)
(0 0 0)
(0 0 0)
(0 0 0)
(0 0 0)
(0 -5.26746e-05 0)
(0 -0.000541163 0)
(0 -0.00155989 0)
(0 -0.00292261 0)
(0 -0.00454265 0)
(0 -0.00639871 0)
(0 -0.00818654 0)
(0 -0.00749077 0)
(0 -0.00830069 0)
(0 -0.00745332 0)
(0 -0.00828692 0)
(0 -0.00906198 0)
(0 -0.00982568 0)
(0 -0.00902055 0)
(0 -0.00969053 0)
(0 -0.0105143 0)
(0 -0.0108282 0)
(0 -0.0111205 0)
(0 -0.0107231 0)
(0 -0.0102561 0)
(0 -0.0108252 0)
(0 -0.0112334 0)
(0 -0.0114855 0)
(0 -0.0110772 0)
(0 -0.0116902 0)
(0 -0.0120774 0)
(0 -0.0122565 0)
(0 -0.0118721 0)
(0 -0.0122729 0)
(0 -0.0126517 0)
(0 -0.0127461 0)
(0 -0.0123896 0)
(0 -0.012604 0)
(0 -0.012951 0)
(0 -0.0130005 0)
(0 -0.0126614 0)
(0 -0.0127231 0)
(0 -0.0130548 0)
(0 -0.0130448 0)
(0 -0.0127125 0)
(0 -0.012604 0)
(0 -0.012951 0)
(0 -0.0129042 0)
(0 -0.0125547 0)
(0 -0.0122729 0)
(0 -0.0126517 0)
(0 -0.0125433 0)
(0 -0.0121654 0)
(0 -0.0116902 0)
(0 -0.0120774 0)
(0 -0.0119192 0)
(0 -0.0114848 0)
(0 -0.0108252 0)
(0 -0.0112334 0)
(0 -0.0109583 0)
(0 -0.0105512 0)
(0 -0.00969053 0)
(0 -0.0105143 0)
(0 -0.00982568 0)
(0 -0.00902055 0)
(0 -0.00828692 0)
(0 -0.00906198 0)
(0 -0.00830069 0)
(0 -0.00745332 0)
(0 -0.00749077 0)
(0 -0.00814966 0)
(0 -0.00639429 0)
(0 -0.00461586 0)
(0 -0.00289807 0)
(0 -0.0015447 0)
(0 -0.000568286 0)
(0 -6.02361e-05 0)
(0 0 0)
(0 0 0)
(0 0 0)
(0 0 0)
(0 0 0)
(0 0 0)
(0 0 0)
(0 0 0)
(0 0 0)
(0 0 0)
(0 0 0)
(0 0 0)
(0 0 0)
(0 0 0)
(0 -0.000172339 0)
(0 -0.000872218 0)
(0 -0.00204932 0)
(0 -0.00360093 0)
(0 -0.00539404 0)
(0 -0.00736627 0)
(0 -0.00920696 0)
(0 -0.0087528 0)
(0 -0.00961899 0)
(0 -0.00902948 0)
(0 -0.0098165 0)
(0 -0.0104223 0)
(0 -0.0111478 0)
(0 -0.0105334 0)
(0 -0.0111684 0)
(0 -0.0114974 0)
(0 -0.0117803 0)
(0 -0.011497 0)
(0 -0.0122964 0)
(0 -0.0124325 0)
(0 -0.0125423 0)
(0 -0.0124074 0)
(0 -0.0130169 0)
(0 -0.0131258 0)
(0 -0.0131964 0)
(0 -0.0130898 0)
(0 -0.0134435 0)
(0 -0.0135228 0)
(0 -0.0135588 0)
(0 -0.0134789 0)
(0 -0.0136304 0)
(0 -0.0136886 0)
(0 -0.0136969 0)
(0 -0.0136404 0)
(0 -0.0136782 0)
(0 -0.0137251 0)
(0 -0.0137243 0)
(0 -0.0136771 0)
(0 -0.0136304 0)
(0 -0.0136886 0)
(0 -0.0136771 0)
(0 -0.0136168 0)
(0 -0.0134435 0)
(0 -0.0135228 0)
(0 -0.0134926 0)
(0 -0.0134008 0)
(0 -0.0130169 0)
(0 -0.0131258 0)
(0 -0.0130643 0)
(0 -0.0129376 0)
(0 -0.0122964 0)
(0 -0.0124325 0)
(0 -0.012557 0)
(0 -0.01232 0)
(0 -0.012055 0)
(0 -0.0111684 0)
(0 -0.0114974 0)
(0 -0.0117831 0)
(0 -0.0111478 0)
(0 -0.0105334 0)
(0 -0.0098165 0)
(0 -0.0103985 0)
(0 -0.00961279 0)
(0 -0.00902948 0)
(0 -0.00876327 0)
(0 -0.00923423 0)
(0 -0.00734776 0)
(0 -0.00544777 0)
(0 -0.00363868 0)
(0 -0.00207306 0)
(0 -0.000884664 0)
(0 -0.00017659 0)
(0 0 0)
(0 0 0)
(0 0 0)
(0 0 0)
(0 0 0)
(0 0 0)
(0 0 0)
(0 0 0)
(0 0 0)
(0 0 0)
(0 0 0)
(0 0 0)
(0 0 0)
(0 0 0)
(0 -0.000265742 0)
(0 -0.00108354 0)
(0 -0.00238444 0)
(0 -0.00405862 0)
(0 -0.00596505 0)
(0 -0.00794356 0)
(0 -0.00982852 0)
(0 -0.00959498 0)
(0 -0.0104543 0)
(0 -0.0100554 0)
(0 -0.0108333 0)
(0 -0.0112372 0)
(0 -0.0119283 0)
(0 -0.0115945 0)
(0 -0.0122236 0)
(0 -0.012379 0)
(0 -0.0126497 0)
(0 -0.0124979 0)
(0 -0.0131498 0)
(0 -0.0132216 0)
(0 -0.0133026 0)
(0 -0.0132331 0)
(0 -0.0136495 0)
(0 -0.0136841 0)
(0 -0.0137131 0)
(0 -0.0136825 0)
(0 -0.0137691 0)
(0 -0.0137691 0)
(0 -0.0137691 0)
(0 -0.0137691 0)
(0 -0.0137691 0)
(0 -0.0137691 0)
(0 -0.0137691 0)
(0 -0.0137691 0)
(0 -0.0137691 0)
(0 -0.0137691 0)
(0 -0.0137691 0)
(0 -0.0137691 0)
(0 -0.0137691 0)
(0 -0.0137691 0)
(0 -0.0137691 0)
(0 -0.0137691 0)
(0 -0.0137691 0)
(0 -0.0137691 0)
(0 -0.0137691 0)
(0 -0.0137691 0)
(0 -0.0136495 0)
(0 -0.0136841 0)
(0 -0.013646 0)
(0 -0.0136098 0)
(0 -0.0131498 0)
(0 -0.0132216 0)
(0 -0.013283 0)
(0 -0.0130957 0)
(0 -0.0129615 0)
(0 -0.0122165 0)
(0 -0.012397 0)
(0 -0.0125349 0)
(0 -0.0119117 0)
(0 -0.0116048 0)
(0 -0.0108951 0)
(0 -0.0112232 0)
(0 -0.0104432 0)
(0 -0.0100998 0)
(0 -0.00958683 0)
(0 -0.00983341 0)
(0 -0.00794029 0)
(0 -0.00595557 0)
(0 -0.0040456 0)
(0 -0.00237087 0)
(0 -0.0010723 0)
(0 -0.000259362 0)
(0 0 0)
(0 0 0)
(0 0 0)
(0 0 0)
(0 0 0)
(0 0 0)
(0 0 0)
(0 0 0)
(0 0 0)
(0 0 0)
(0 0 0)
(0 0 0)
(0 0 0)
(0 0 0)
(0 -0.000281746 0)
(0 -0.00111817 0)
(0 -0.00243904 0)
(0 -0.00413337 0)
(0 -0.00605879 0)
(0 -0.00805353 0)
(0 -0.00995 0)
(0 -0.0099535 0)
(0 -0.0108137 0)
(0 -0.0106862 0)
(0 -0.0114633 0)
(0 -0.0115909 0)
(0 -0.0122688 0)
(0 -0.012144 0)
(0 -0.0127364 0)
(0 -0.0127937 0)
(0 -0.0130312 0)
(0 -0.0129796 0)
(0 -0.0135158 0)
(0 -0.0135379 0)
(0 -0.0135965 0)
(0 -0.0135761 0)
(0 -0.0137691 0)
(0 -0.0137691 0)
(0 -0.0137691 0)
(0 -0.0137691 0)
(0 -0.0137691 0)
(0 -0.0137691 0)
(0 -0.0137691 0)
(0 -0.0137691 0)
(0 -0.0137691 0)
(0 -0.0137691 0)
(0 -0.0137691 0)
(0 -0.0137691 0)
(0 -0.0137691 0)
(0 -0.0137691 0)
(0 -0.0137691 0)
(0 -0.0137691 0)
(0 -0.0137691 0)
(0 -0.0137686 0)
(0 -0.0137666 0)
(0 -0.0135158 0)
(0 -0.0135379 0)
(0 -0.0135524 0)
(0 -0.0134148 0)
(0 -0.0133662 0)
(0 -0.0127357 0)
(0 -0.0127945 0)
(0 -0.012833 0)
(0 -0.0122688 0)
(0 -0.0121616 0)
(0 -0.011477 0)
(0 -0.0115617 0)
(0 -0.0107802 0)
(0 -0.0106955 0)
(0 -0.00991636 0)
(0 -0.00992775 0)
(0 -0.00802877 0)
(0 -0.00603364 0)
(0 -0.00411002 0)
(0 -0.00241951 0)
(0 -0.00110416 0)
(0 -0.000274486 0)
(0 0 0)
(0 0 0)
(0 0 0)
(0 0 0)
(0 0 0)
(0 0 0)
(0 0 0)
(0 0 0)
(0 0 0)
(0 0 0)
(0 0 0)
(0 0 0)
(0 0 0)
(0 0 0)
(0 -0.000230252 0)
(0 -0.0010063 0)
(0 -0.00226393 0)
(0 -0.00389588 0)
(0 -0.00576398 0)
(0 -0.00771117 0)
(0 -0.00957531 0)
(0 -0.00984437 0)
(0 -0.0107031 0)
(0 -0.0108109 0)
(0 -0.0115889 0)
(0 -0.011481 0)
(0 -0.0121621 0)
(0 -0.0122675 0)
(0 -0.0128325 0)
(0 -0.0128023 0)
(0 -0.0130398 0)
(0 -0.0130686 0)
(0 -0.0135766 0)
(0 -0.0135694 0)
(0 -0.0136244 0)
(0 -0.0136309 0)
(0 -0.0137691 0)
(0 -0.0137691 0)
(0 -0.0137691 0)
(0 -0.0137691 0)
(0 -0.0137691 0)
(0 -0.0137691 0)
(0 -0.0137691 0)
(0 -0.0137691 0)
(0 -0.0137691 0)
(0 -0.0137691 0)
(0 -0.0137691 0)
(0 -0.0137691 0)
(0 -0.0137691 0)
(0 -0.0137691 0)
(0 -0.0137691 0)
(0 -0.0137691 0)
(0 -0.0135766 0)
(0 -0.0135635 0)
(0 -0.0135564 0)
(0 -0.013419 0)
(0 -0.0134346 0)
(0 -0.0128206 0)
(0 -0.0128013 0)
(0 -0.0127429 0)
(0 -0.0121704 0)
(0 -0.0122525 0)
(0 -0.011571 0)
(0 -0.0114871 0)
(0 -0.0107068 0)
(0 -0.0107906 0)
(0 -0.00984555 0)
(0 -0.00959965 0)
(0 -0.00772905 0)
(0 -0.00577566 0)
(0 -0.00390231 0)
(0 -0.00226649 0)
(0 -0.00100654 0)
(0 -0.000229749 0)
(0 0 0)
(0 0 0)
(0 0 0)
(0 0 0)
(0 0 0)
(0 0 0)
(0 0 0)
(0 0 0)
(0 0 0)
(0 0 0)
(0 0 0)
(0 0 0)
(0 0 0)
(0 0 0)
(0 -0.000116458 0)
(0 -0.000731495 0)
(0 -0.00181944 0)
(0 -0.0032826 0)
(0 -0.00510352 0)
(0 -0.00696552 0)
(0 -0.00878174 0)
(0 -0.00926338 0)
(0 -0.0101244 0)
(0 -0.0104278 0)
(0 -0.0112551 0)
(0 -0.0109144 0)
(0 -0.0116185 0)
(0 -0.0119569 0)
(0 -0.0125529 0)
(0 -0.0124101 0)
(0 -0.0126691 0)
(0 -0.0128078 0)
(0 -0.0133895 0)
(0 -0.0133488 0)
(0 -0.0134227 0)
(0 -0.0134661 0)
(0 -0.0137525 0)
(0 -0.0137383 0)
(0 -0.0137552 0)
(0 -0.0137639 0)
(0 -0.0137691 0)
(0 -0.0137691 0)
(0 -0.0137691 0)
(0 -0.0137691 0)
(0 -0.0137691 0)
(0 -0.0137691 0)
(0 -0.0137691 0)
(0 -0.0137691 0)
(0 -0.0137525 0)
(0 -0.0137363 0)
(0 -0.0137139 0)
(0 -0.0137339 0)
(0 -0.0133895 0)
(0 -0.0133488 0)
(0 -0.0132936 0)
(0 -0.0131185 0)
(0 -0.0132266 0)
(0 -0.0125529 0)
(0 -0.0124101 0)
(0 -0.0122479 0)
(0 -0.0116185 0)
(0 -0.0119569 0)
(0 -0.0112342 0)
(0 -0.0109144 0)
(0 -0.0101244 0)
(0 -0.0104552 0)
(0 -0.00926338 0)
(0 -0.00878174 0)
(0 -0.00696552 0)
(0 -0.00503775 0)
(0 -0.00331487 0)
(0 -0.00184061 0)
(0 -0.000743078 0)
(0 -0.000120372 0)
(0 0 0)
(0 0 0)
(0 0 0)
(0 0 0)
(0 0 0)
(0 0 0)
(0 0 0)
(0 0 0)
(0 0 0)
(0 0 0)
(0 0 0)
(0 0 0)
(0 0 0)
(0 0 0)
(0 -1.441e-05 0)
(0 -0.000427756 0)
(0 -0.00130257 0)
(0 -0.00256138 0)
(0 -0.0040891 0)
(0 -0.00575168 0)
(0 -0.00749629 0)
(0 -0.00815779 0)
(0 -0.00904486 0)
(0 -0.00962652 0)
(0 -0.0104483 0)
(0 -0.00982149 0)
(0 -0.0105993 0)
(0 -0.0111628 0)
(0 -0.0118194 0)
(0 -0.0115562 0)
(0 -0.0118462 0)
(0 -0.0121072 0)
(0 -0.0128119 0)
(0 -0.0126947 0)
(0 -0.0128013 0)
(0 -0.0128987 0)
(0 -0.0134347 0)
(0 -0.0133575 0)
(0 -0.0134138 0)
(0 -0.013488 0)
(0 -0.0137131 0)
(0 -0.01367 0)
(0 -0.0136889 0)
(0 -0.0137283 0)
(0 -0.0137691 0)
(0 -0.0137615 0)
(0 -0.0137645 0)
(0 -0.0137691 0)
(0 -0.0137691 0)
(0 -0.0137691 0)
(0 -0.0137691 0)
(0 -0.0137691 0)
(0 -0.0137691 0)
(0 -0.0137691 0)
(0 -0.0137615 0)
(0 -0.0137573 0)
(0 -0.0137686 0)
(0 -0.013769 0)
(0 -0.0137131 0)
(0 -0.01367 0)
(0 -0.0136466 0)
(0 -0.0136936 0)
(0 -0.0134347 0)
(0 -0.0133575 0)
(0 -0.0132948 0)
(0 -0.0133747 0)
(0 -0.0128213 0)
(0 -0.0127137 0)
(0 -0.0125844 0)
(0 -0.0123705 0)
(0 -0.012603 0)
(0 -0.011787 0)
(0 -0.0115428 0)
(0 -0.0112575 0)
(0 -0.0105847 0)
(0 -0.0111628 0)
(0 -0.0104483 0)
(0 -0.00982149 0)
(0 -0.00904486 0)
(0 -0.00962652 0)
(0 -0.00815779 0)
(0 -0.00749629 0)
(0 -0.00575168 0)
(0 -0.0040891 0)
(0 -0.00256138 0)
(0 -0.00130257 0)
(0 -0.000399011 0)
(0 -1.7309e-05 0)
(0 0 0)
(0 0 0)
(0 0 0)
(0 0 0)
(0 0 0)
(0 0 0)
(0 0 0)
(0 0 0)
(0 0 0)
(0 0 0)
(0 0 0)
(0 0 0)
(0 0 0)
(0 0 0)
(0 0 0)
(0 -0.00013148 0)
(0 -0.00069285 0)
(0 -0.00163012 0)
(0 -0.00284553 0)
(0 -0.00436411 0)
(0 -0.00593423 0)
(0 -0.00667491 0)
(0 -0.00754892 0)
(0 -0.00829633 0)
(0 -0.0091066 0)
(0 -0.00833577 0)
(0 -0.00907144 0)
(0 -0.00986819 0)
(0 -0.0105578 0)
(0 -0.00974304 0)
(0 -0.0103053 0)
(0 -0.0107721 0)
(0 -0.0111645 0)
(0 -0.010872 0)
(0 -0.0116863 0)
(0 -0.0112783 0)
(0 -0.0115305 0)
(0 -0.011917 0)
(0 -0.0124946 0)
(0 -0.0121448 0)
(0 -0.0122847 0)
(0 -0.0126473 0)
(0 -0.0130064 0)
(0 -0.0126964 0)
(0 -0.0127875 0)
(0 -0.0130923 0)
(0 -0.0132718 0)
(0 -0.0129858 0)
(0 -0.0130363 0)
(0 -0.013307 0)
(0 -0.0133541 0)
(0 -0.0130899 0)
(0 -0.0130763 0)
(0 -0.0133433 0)
(0 -0.0132718 0)
(0 -0.0129858 0)
(0 -0.0129142 0)
(0 -0.0132167 0)
(0 -0.0130064 0)
(0 -0.0126964 0)
(0 -0.0125826 0)
(0 -0.0128981 0)
(0 -0.0124946 0)
(0 -0.0121448 0)
(0 -0.0119639 0)
(0 -0.0123176 0)
(0 -0.0116863 0)
(0 -0.0112783 0)
(0 -0.0110415 0)
(0 -0.0114342 0)
(0 -0.0105578 0)
(0 -0.00974304 0)
(0 -0.00907144 0)
(0 -0.00986819 0)
(0 -0.0091066 0)
(0 -0.00833577 0)
(0 -0.00754892 0)
(0 -0.00829633 0)
(0 -0.00667491 0)
(0 -0.00593423 0)
(0 -0.00436411 0)
(0 -0.00284553 0)
(0 -0.00163012 0)
(0 -0.00069285 0)
(0 -0.00013148 0)
(0 0 0)
(0 0 0)
(0 0 0)
(0 0 0)
(0 0 0)
(0 0 0)
(0 0 0)
(0 0 0)
(0 0 0)
(0 0 0)
(0 0 0)
(0 0 0)
(0 0 0)
(0 0 0)
(0 0 0)
(0 0 0)
(0 0 0)
(0 -0.000198135 0)
(0 -0.000818146 0)
(0 -0.00175388 0)
(0 -0.00291436 0)
(0 -0.00418547 0)
(0 -0.00544025 0)
(0 -0.00641399 0)
(0 -0.00744941 0)
(0 -0.00670652 0)
(0 -0.00711083 0)
(0 -0.00814867 0)
(0 -0.00876544 0)
(0 -0.00776377 0)
(0 -0.00836096 0)
(0 -0.00939488 0)
(0 -0.00995087 0)
(0 -0.00943638 0)
(0 -0.00963496 0)
(0 -0.0101988 0)
(0 -0.0108316 0)
(0 -0.0103257 0)
(0 -0.0105134 0)
(0 -0.0110207 0)
(0 -0.0114518 0)
(0 -0.010943 0)
(0 -0.0110269 0)
(0 -0.0115497 0)
(0 -0.0118238 0)
(0 -0.0113352 0)
(0 -0.0113922 0)
(0 -0.0118804 0)
(0 -0.0119469 0)
(0 -0.0114614 0)
(0 -0.0114379 0)
(0 -0.0119256 0)
(0 -0.0118238 0)
(0 -0.0113352 0)
(0 -0.0112553 0)
(0 -0.0117443 0)
(0 -0.0114518 0)
(0 -0.010943 0)
(0 -0.0108223 0)
(0 -0.011331 0)
(0 -0.0108316 0)
(0 -0.0103257 0)
(0 -0.0101164 0)
(0 -0.0106201 0)
(0 -0.00995087 0)
(0 -0.00943638 0)
(0 -0.00884175 0)
(0 -0.00836096 0)
(0 -0.00939488 0)
(0 -0.00876544 0)
(0 -0.00776377 0)
(0 -0.00711083 0)
(0 -0.00814867 0)
(0 -0.00744941 0)
(0 -0.00641399 0)
(0 -0.00544025 0)
(0 -0.00418547 0)
(0 -0.00670652 0)
(0 -0.00291436 0)
(0 -0.00175388 0)
(0 -0.000818146 0)
(0 -0.000198135 0)
(0 0 0)
(0 0 0)
(0 0 0)
(0 0 0)
(0 0 0)
(0 0 0)
(0 0 0)
(0 0 0)
(0 0 0)
(0 0 0)
(0 0 0)
(0 0 0)
(0 0 0)
(0 0 0)
(0 0 0)
(0 0 0)
(0 0 0)
(0 0 0)
(0 -2.5126e-06 0)
(0 -0.000225088 0)
(0 -0.000762749 0)
(0 -0.00149471 0)
(0 -0.00244653 0)
(0 -0.00346163 0)
(0 -0.00444309 0)
(0 -0.00501603 0)
(0 -0.00607952 0)
(0 -0.00668246 0)
(0 -0.005499 0)
(0 -0.0060439 0)
(0 -0.00717927 0)
(0 -0.00772399 0)
(0 -0.00713865 0)
(0 -0.00737824 0)
(0 -0.00797308 0)
(0 -0.00861518 0)
(0 -0.00799751 0)
(0 -0.00816795 0)
(0 -0.00879144 0)
(0 -0.00919082 0)
(0 -0.00857232 0)
(0 -0.00871002 0)
(0 -0.00933254 0)
(0 -0.00962947 0)
(0 -0.00899903 0)
(0 -0.00905299 0)
(0 -0.00968483 0)
(0 -0.00975775 0)
(0 -0.00912596 0)
(0 -0.00909626 0)
(0 -0.0097292 0)
(0 -0.00962947 0)
(0 -0.00899903 0)
(0 -0.00892372 0)
(0 -0.00955217 0)
(0 -0.00919082 0)
(0 -0.00857232 0)
(0 -0.00841464 0)
(0 -0.00908349 0)
(0 -0.00861518 0)
(0 -0.00799751 0)
(0 -0.00780857 0)
(0 -0.00841954 0)
(0 -0.00772399 0)
(0 -0.00713865 0)
(0 -0.00654272 0)
(0 -0.0060439 0)
(0 -0.00717927 0)
(0 -0.00668246 0)
(0 -0.005499 0)
(0 -0.00501603 0)
(0 -0.00607952 0)
(0 -0.00444309 0)
(0 -0.00346163 0)
(0 -0.00244653 0)
(0 -0.00149471 0)
(0 -0.000762749 0)
(0 -0.000225088 0)
(0 -2.5126e-06 0)
(0 0 0)
(0 0 0)
(0 0 0)
(0 0 0)
(0 0 0)
(0 0 0)
(0 0 0)
(0 0 0)
(0 0 0)
(0 0 0)
(0 0 0)
(0 0 0)
(0 0 0)
(0 0 0)
(0 0 0)
(0 0 0)
(0 0 0)
(0 0 0)
(0 0 0)
(0 0 0)
(0 -0.000118208 0)
(0 -0.000492333 0)
(0 -0.000997372 0)
(0 -0.00167939 0)
(0 -0.00248322 0)
(0 -0.00292813 0)
(0 -0.00390172 0)
(0 -0.00441267 0)
(0 -0.00336413 0)
(0 -0.00378025 0)
(0 -0.00489615 0)
(0 -0.00534155 0)
(0 -0.00474782 0)
(0 -0.00494033 0)
(0 -0.00554699 0)
(0 -0.0060819 0)
(0 -0.00544282 0)
(0 -0.00553452 0)
(0 -0.00616454 0)
(0 -0.00662967 0)
(0 -0.00597373 0)
(0 -0.00608861 0)
(0 -0.00675111 0)
(0 -0.00700704 0)
(0 -0.00633102 0)
(0 -0.00637647 0)
(0 -0.00705498 0)
(0 -0.00712483 0)
(0 -0.00644428 0)
(0 -0.00641297 0)
(0 -0.00709346 0)
(0 -0.00700704 0)
(0 -0.00633102 0)
(0 -0.00626768 0)
(0 -0.00694021 0)
(0 -0.00662967 0)
(0 -0.00597373 0)
(0 -0.00584264 0)
(0 -0.00649099 0)
(0 -0.0060819 0)
(0 -0.00544282 0)
(0 -0.00528874 0)
(0 -0.00591809 0)
(0 -0.00534155 0)
(0 -0.00474782 0)
(0 -0.00416641 0)
(0 -0.00378025 0)
(0 -0.00489615 0)
(0 -0.00441267 0)
(0 -0.00336413 0)
(0 -0.00292813 0)
(0 -0.00390172 0)
(0 -0.00248322 0)
(0 -0.00167939 0)
(0 -0.000997372 0)
(0 -0.000492333 0)
(0 -0.000118208 0)
(0 0 0)
(0 0 0)
(0 0 0)
(0 0 0)
(0 0 0)
(0 0 0)
(0 0 0)
(0 0 0)
(0 0 0)
(0 0 0)
(0 0 0)
(0 0 0)
(0 0 0)
(0 0 0)
(0 0 0)
(0 0 0)
(0 0 0)
(0 0 0)
(0 0 0)
(0 0 0)
(0 0 0)
(0 0 0)
(0 0 0)
(0 -1.00664e-05 0)
(0 -0.00017075 0)
(0 -0.000476537 0)
(0 -0.000999673 0)
(0 -0.00127184 0)
(0 -0.0020387 0)
(0 -0.00239582 0)
(0 -0.00154819 0)
(0 -0.0018194 0)
(0 -0.00274054 0)
(0 -0.0030634 0)
(0 -0.00255288 0)
(0 -0.00268869 0)
(0 -0.00321391 0)
(0 -0.00357642 0)
(0 -0.00302683 0)
(0 -0.00315425 0)
(0 -0.00371643 0)
(0 -0.00406925 0)
(0 -0.00347624 0)
(0 -0.00356118 0)
(0 -0.0041621 0)
(0 -0.00435875 0)
(0 -0.00374133 0)
(0 -0.00377525 0)
(0 -0.00439573 0)
(0 -0.00445479 0)
(0 -0.00383062 0)
(0 -0.00380252 0)
(0 -0.00442545 0)
(0 -0.00435875 0)
(0 -0.00374133 0)
(0 -0.00369414 0)
(0 -0.00430727 0)
(0 -0.00406925 0)
(0 -0.00347624 0)
(0 -0.00337969 0)
(0 -0.0039636 0)
(0 -0.00357642 0)
(0 -0.00302683 0)
(0 -0.00289071 0)
(0 -0.00342658 0)
(0 -0.0030634 0)
(0 -0.00255288 0)
(0 -0.00207671 0)
(0 -0.0018194 0)
(0 -0.00274054 0)
(0 -0.00239582 0)
(0 -0.00154819 0)
(0 -0.00127184 0)
(0 -0.0020387 0)
(0 -0.000999673 0)
(0 -0.000476537 0)
(0 -0.00017075 0)
(0 -1.00664e-05 0)
(0 0 0)
(0 0 0)
(0 0 0)
(0 0 0)
(0 0 0)
(0 0 0)
(0 0 0)
(0 0 0)
(0 0 0)
(0 0 0)
(0 0 0)
(0 0 0)
(0 0 0)
(0 0 0)
(0 0 0)
(0 0 0)
(0 0 0)
(0 0 0)
(0 0 0)
(0 0 0)
(0 0 0)
(0 0 0)
(0 0 0)
(0 0 0)
(0 0 0)
(0 0 0)
(0 -1.82473e-06 0)
(0 -0.000137091 0)
(0 -0.000238788 0)
(0 -0.000662135 0)
(0 -0.000857885 0)
(0 -0.000356061 0)
(0 -0.000481472 0)
(0 -0.00105537 0)
(0 -0.00124666 0)
(0 -0.00085815 0)
(0 -0.000945999 0)
(0 -0.00129377 0)
(0 -0.00158852 0)
(0 -0.0011955 0)
(0 -0.00127123 0)
(0 -0.0016772 0)
(0 -0.00190396 0)
(0 -0.0014661 0)
(0 -0.00151828 0)
(0 -0.00196437 0)
(0 -0.00209329 0)
(0 -0.00162995 0)
(0 -0.00165113 0)
(0 -0.00211768 0)
(0 -0.00216009 0)
(0 -0.00168872 0)
(0 -0.00166818 0)
(0 -0.00213731 0)
(0 -0.00209329 0)
(0 -0.00162995 0)
(0 -0.00160057 0)
(0 -0.00205942 0)
(0 -0.00190396 0)
(0 -0.0014661 0)
(0 -0.00140716 0)
(0 -0.00183557 0)
(0 -0.00158852 0)
(0 -0.0011955 0)
(0 -0.00111552 0)
(0 -0.00149451 0)
(0 -0.00124666 0)
(0 -0.00085815 0)
(0 -0.00057707 0)
(0 -0.000481472 0)
(0 -0.00105537 0)
(0 -0.000857885 0)
(0 -0.000356061 0)
(0 -0.000238788 0)
(0 -0.000662135 0)
(0 -0.000137091 0)
(0 -1.82473e-06 0)
(0 0 0)
(0 0 0)
(0 0 0)
(0 0 0)
(0 0 0)
(0 0 0)
(0 0 0)
(0 0 0)
(0 0 0)
(0 0 0)
(0 0 0)
(0 0 0)
(0 0 0)
(0 0 0)
(0 0 0)
(0 0 0)
(0 0 0)
(0 0 0)
(0 0 0)
(0 0 0)
(0 0 0)
(0 0 0)
(0 0 0)
(0 0 0)
(0 0 0)
(0 0 0)
(0 0 0)
(0 0 0)
(0 0 0)
(0 0 0)
(0 0 0)
(0 -6.70154e-05 0)
(0 -2.42387e-05 0)
(0 0 0)
(0 -0.000105381 0)
(0 -0.000176053 0)
(0 -5.38984e-06 0)
(0 -2.35587e-05 0)
(0 -0.000253707 0)
(0 -0.000332392 0)
(0 -4.96768e-05 0)
(0 -7.90998e-05 0)
(0 -0.000406743 0)
(0 -0.000472094 0)
(0 -0.000107773 0)
(0 -0.000132331 0)
(0 -0.000524591 0)
(0 -0.00056127 0)
(0 -0.000150178 0)
(0 -0.000159549 0)
(0 -0.00058012 0)
(0 -0.000595202 0)
(0 -0.000167555 0)
(0 -0.000159549 0)
(0 -0.00058012 0)
(0 -0.00056127 0)
(0 -0.000150178 0)
(0 -0.000132331 0)
(0 -0.000524591 0)
(0 -0.000472094 0)
(0 -0.000107773 0)
(0 -7.90998e-05 0)
(0 -0.000406743 0)
(0 -0.000332392 0)
(0 -4.96768e-05 0)
(0 -2.35587e-05 0)
(0 -0.000253707 0)
(0 -0.000176053 0)
(0 -5.38984e-06 0)
(0 0 0)
(0 -0.000105381 0)
(0 -6.70154e-05 0)
(0 0 0)
(0 0 0)
(0 0 0)
(0 -2.42387e-05 0)
(0 0 0)
(0 0 0)
(0 0 0)
(0 0 0)
(0 0 0)
(0 0 0)
(0 0 0)
(0 0 0)
(0 0 0)
(0 0 0)
(0 0 0)
(0 0 0)
(0 0 0)
(0 0 0)
(0 0 0)
(0 0 0)
(0 0 0)
(0 0 0)
(0 0 0)
(0 0 0)
(0 0 0)
(0 0 0)
(0 0 0)
(0 0 0)
(0 0 0)
(0 0 0)
(0 0 0)
(0 0 0)
(0 0 0)
(0 0 0)
(0 0 0)
(0 0 0)
(0 0 0)
(0 0 0)
(0 0 0)
(0 0 0)
(0 0 0)
(0 0 0)
(0 0 0)
(0 0 0)
(0 -4.84381e-07 0)
(0 0 0)
(0 0 0)
(0 -1.86406e-06 0)
(0 -1.10908e-06 0)
(0 0 0)
(0 -4.84381e-07 0)
(0 -1.10908e-06 0)
(0 0 0)
(0 0 0)
(0 0 0)
(0 0 0)
(0 0 0)
(0 0 0)
(0 0 0)
(0 0 0)
(0 0 0)
(0 0 0)
(0 0 0)
(0 0 0)
(0 0 0)
(0 0 0)
(0 0 0)
(0 0 0)
(0 0 0)
(0 0 0)
(0 0 0)
(0 0 0)
(0 0 0)
(0 0 0)
(0 0 0)
(0 0 0)
(0 0 0)
(0 0 0)
(0 0 0)
(0 0 0)
(0 0 0)
(0 0 0)
(0 0 0)
(0 0 0)
(0 0 0)
(0 0 0)
(0 0 0)
(0 0 0)
(0 0 0)
(0 0 0)
(0 0 0)
(0 0 0)
(0 0 0)
(0 0 0)
(0 0 0)
(0 0 0)
(0 0 0)
(0 0 0)
(0 0 0)
(0 0 0)
(0 0 0)
(0 0 0)
(0 0 0)
(0 0 0)
(0 0 0)
(0 0 0)
(0 0 0)
(0 0 0)
(0 0 0)
(0 0 0)
(0 0 0)
(0 0 0)
(0 0 0)
(0 0 0)
(0 0 0)
(0 0 0)
(0 0 0)
(0 0 0)
(0 0 0)
(0 0 0)
(0 0 0)
(0 0 0)
(0 0 0)
(0 0 0)
(0 0 0)
(0 0 0)
(0 0 0)
(0 0 0)
(0 0 0)
(0 0 0)
(0 0 0)
(0 0 0)
(0 0 0)
(0 0 0)
(0 0 0)
(0 0 0)
(0 0 0)
(0 0 0)
(0 0 0)
(0 0 0)
(0 0 0)
(0 0 0)
(0 0 0)
(0 0 0)
(0 0 0)
(0 0 0)
(0 0 0)
(0 0 0)
(0 0 0)
(0 0 0)
(0 0 0)
(0 0 0)
(0 0 0)
(0 0 0)
(0 0 0)
(0 0 0)
(0 0 0)
(0 0 0)
(0 0 0)
(0 0 0)
(0 0 0)
(0 0 0)
(0 0 0)
(0 0 0)
(0 0 0)
(0 0 0)
(0 0 0)
(0 0 0)
(0 0 0)
(0 0 0)
(0 0 0)
(0 0 0)
(0 0 0)
(0 0 0)
(0 0 0)
(0 0 0)
(0 0 0)
(0 0 0)
(0 0 0)
(0 0 0)
(0 0 0)
(0 0 0)
(0 0 0)
(0 0 0)
(0 0 0)
(0 0 0)
(0 0 0)
(0 0 0)
(0 0 0)
(0 0 0)
(0 0 0)
(0 0 0)
(0 0 0)
(0 0 0)
(0 0 0)
(0 0 0)
(0 0 0)
(0 0 0)
(0 0 0)
(0 0 0)
(0 0 0)
(0 0 0)
(0 0 0)
(0 0 0)
(0 0 0)
(0 0 0)
(0 0 0)
(0 0 0)
(0 0 0)
(0 0 0)
(0 0 0)
(0 0 0)
(0 0 0)
(0 0 0)
(0 0 0)
(0 0 0)
(0 0 0)
(0 0 0)
(0 0 0)
(0 0 0)
(0 0 0)
(0 0 0)
(0 0 0)
(0 0 0)
(0 0 0)
(0 0 0)
(0 0 0)
(0 0 0)
(0 0 0)
(0 0 0)
(0 0 0)
(0 0 0)
(0 0 0)
(0 0 0)
(0 0 0)
(0 0 0)
(0 0 0)
(0 0 0)
(0 0 0)
(0 0 0)
(0 0 0)
(0 0 0)
(0 0 0)
(0 0 0)
(0 0 0)
(0 0 0)
(0 0 0)
(0 0 0)
(0 0 0)
(0 0 0)
(0 0 0)
(0 0 0)
(0 0 0)
(0 0 0)
(0 0 0)
(0 0 0)
(0 0 0)
(0 0 0)
(0 0 0)
(0 0 0)
(0 0 0)
(0 0 0)
(0 0 0)
(0 0 0)
(0 0 0)
(0 0 0)
(0 0 0)
(0 0 0)
(0 0 0)
(0 0 0)
(0 0 0)
(0 0 0)
(0 0 0)
(0 0 0)
(0 0 0)
(0 0 0)
(0 0 0)
(0 0 0)
(0 0 0)
(0 0 0)
(0 0 0)
(0 0 0)
(0 0 0)
(0 0 0)
(0 0 0)
(0 0 0)
(0 0 0)
(0 0 0)
(0 0 0)
(0 0 0)
(0 0 0)
(0 0 0)
(0 0 0)
(0 0 0)
(0 0 0)
(0 0 0)
(0 0 0)
(0 0 0)
(0 0 0)
(0 0 0)
(0 0 0)
(0 0 0)
(0 0 0)
(0 0 0)
(0 0 0)
(0 0 0)
(0 0 0)
(0 0 0)
(0 0 0)
(0 0 0)
(0 0 0)
(0 0 0)
(0 0 0)
(0 0 0)
(0 0 0)
(0 0 0)
(0 0 0)
(0 0 0)
(0 0 0)
(0 0 0)
(0 0 0)
(0 0 0)
(0 0 0)
(0 0 0)
(0 0 0)
(0 0 0)
(0 0 0)
(0 0 0)
(0 0 0)
(0 0 0)
(0 0 0)
(0 0 0)
(0 0 0)
(0 0 0)
(0 0 0)
(0 0 0)
(0 0 0)
(0 0 0)
(0 0 0)
(0 0 0)
(0 0 0)
(0 0 0)
(0 0 0)
(0 0 0)
(0 0 0)
(0 0 0)
(0 0 0)
(0 0 0)
(0 0 0)
(0 0 0)
(0 0 0)
(0 0 0)
(0 0 0)
(0 0 0)
(0 0 0)
(0 0 0)
(0 0 0)
(0 0 0)
(0 0 0)
(0 0 0)
(0 0 0)
(0 0 0)
(0 0 0)
(0 0 0)
(0 0 0)
(0 0 0)
(0 0 0)
(0 0 0)
(0 0 0)
(0 0 0)
(0 0 0)
(0 0 0)
(0 0 0)
(0 0 0)
(0 0 0)
(0 0 0)
(0 0 0)
(0 0 0)
(0 0 0)
(0 0 0)
(0 0 0)
(0 0 0)
(0 0 0)
(0 0 0)
(0 0 0)
(0 0 0)
(0 0 0)
(0 0 0)
(0 0 0)
(0 0 0)
(0 0 0)
(0 0 0)
(0 0 0)
(0 0 0)
(0 0 0)
(0 0 0)
(0 0 0)
(0 0 0)
(0 0 0)
(0 0 0)
(0 0 0)
(0 0 0)
(0 0 0)
(0 0 0)
(0 0 0)
(0 0 0)
(0 0 0)
(0 0 0)
(0 0 0)
(0 0 0)
(0 0 0)
(0 0 0)
(0 0 0)
(0 0 0)
(0 0 0)
(0 0 0)
(0 0 0)
(0 0 0)
(0 0 0)
(0 0 0)
(0 0 0)
(0 0 0)
(0 0 0)
(0 0 0)
(0 0 0)
(0 0 0)
(0 0 0)
(0 0 0)
(0 0 0)
(0 0 0)
(0 0 0)
(0 0 0)
(0 0 0)
(0 0 0)
(0 0 0)
(0 0 0)
(0 0 0)
(0 0 0)
(0 0 0)
(0 0 0)
(0 0 0)
(0 0 0)
(0 0 0)
(0 0 0)
(0 0 0)
(0 0 0)
(0 0 0)
(0 0 0)
(0 0 0)
(0 0 0)
(0 0 0)
(0 0 0)
(0 0 0)
(0 0 0)
(0 0 0)
(0 0 0)
(0 0 0)
(0 0 0)
(0 0 0)
(0 0 0)
(0 0 0)
(0 0 0)
(0 0 0)
(0 0 0)
(0 0 0)
(0 0 0)
(0 0 0)
(0 0 0)
(0 0 0)
(0 0 0)
(0 0 0)
(0 0 0)
(0 0 0)
(0 0 0)
(0 0 0)
(0 0 0)
(0 0 0)
(0 0 0)
(0 0 0)
(0 0 0)
(0 0 0)
(0 0 0)
(0 0 0)
(0 0 0)
(0 0 0)
(0 0 0)
(0 0 0)
(0 0 0)
(0 0 0)
(0 0 0)
(0 0 0)
(0 0 0)
(0 0 0)
(0 0 0)
(0 0 0)
(0 0 0)
(0 0 0)
(0 0 0)
(0 0 0)
(0 0 0)
(0 0 0)
(0 0 0)
(0 0 0)
(0 0 0)
(0 0 0)
(0 0 0)
(0 0 0)
(0 0 0)
(0 0 0)
(0 0 0)
(0 0 0)
(0 0 0)
(0 0 0)
(0 0 0)
(0 0 0)
(0 0 0)
(0 0 0)
(0 0 0)
(0 0 0)
(0 0 0)
(0 0 0)
(0 0 0)
(0 0 0)
(0 0 0)
(0 0 0)
(0 0 0)
(0 0 0)
(0 0 0)
(0 0 0)
(0 0 0)
(0 0 0)
(0 0 0)
(0 0 0)
(0 0 0)
(0 0 0)
(0 0 0)
(0 0 0)
(0 0 0)
(0 0 0)
(0 0 0)
(0 0 0)
(0 0 0)
(0 0 0)
(0 0 0)
(0 0 0)
(0 0 0)
(0 0 0)
(0 0 0)
(0 0 0)
(0 0 0)
(0 0 0)
(0 0 0)
(0 0 0)
(0 0 0)
(0 0 0)
(0 0 0)
(0 0 0)
(0 0 0)
(0 0 0)
(0 0 0)
(0 0 0)
(0 0 0)
(0 0 0)
(0 0 0)
(0 0 0)
(0 0 0)
(0 0 0)
(0 0 0)
(0 0 0)
(0 0 0)
(0 0 0)
(0 0 0)
(0 0 0)
(0 0 0)
(0 0 0)
(0 0 0)
(0 0 0)
(0 0 0)
(0 0 0)
(0 0 0)
(0 0 0)
(0 0 0)
(0 0 0)
(0 0 0)
(0 0 0)
(0 0 0)
(0 0 0)
(0 0 0)
(0 0 0)
(0 0 0)
(0 0 0)
(0 0 0)
(0 0 0)
(0 0 0)
(0 0 0)
(0 0 0)
(0 0 0)
(0 0 0)
(0 0 0)
(0 0 0)
(0 0 0)
(0 0 0)
(0 0 0)
(0 0 0)
(0 0 0)
(0 0 0)
(0 0 0)
(0 0 0)
(0 0 0)
(0 0 0)
(0 0 0)
(0 0 0)
(0 0 0)
(0 0 0)
(0 0 0)
(0 0 0)
(0 0 0)
(0 0 0)
(0 0 0)
(0 0 0)
(0 0 0)
(0 0 0)
(0 0 0)
(0 0 0)
(0 0 0)
(0 0 0)
(0 0 0)
(0 0 0)
(0 0 0)
(0 0 0)
(0 0 0)
(0 0 0)
(0 0 0)
(0 0 0)
(0 0 0)
(0 0 0)
(0 0 0)
(0 0 0)
(0 0 0)
(0 0 0)
(0 0 0)
(0 0 0)
(0 0 0)
(0 0 0)
(0 0 0)
(0 0 0)
(0 0 0)
(0 0 0)
(0 0 0)
(0 0 0)
(0 0 0)
(0 0 0)
(0 0 0)
(0 0 0)
(0 0 0)
(0 0 0)
(0 0 0)
(0 0 0)
(0 0 0)
(0 0 0)
(0 0 0)
(0 0 0)
(0 0 0)
(0 0 0)
(0 0 0)
(0 0 0)
(0 0 0)
(0 0 0)
(0 0 0)
(0 0 0)
(0 0 0)
(0 0 0)
(0 0 0)
(0 0 0)
(0 0 0)
(0 0 0)
(0 0 0)
(0 0 0)
(0 0 0)
(0 0 0)
(0 0 0)
(0 0 0)
(0 0 0)
(0 0 0)
(0 0 0)
(0 0 0)
(0 0 0)
(0 0 0)
(0 0 0)
(0 0 0)
(0 0 0)
(0 0 0)
(0 0 0)
(0 0 0)
(0 0 0)
(0 0 0)
(0 0 0)
(0 0 0)
(0 0 0)
(0 0 0)
(0 0 0)
(0 0 0)
(0 0 0)
(0 0 0)
(0 0 0)
(0 0 0)
(0 0 0)
(0 0 0)
(0 0 0)
(0 0 0)
(0 0 0)
(0 0 0)
(0 0 0)
(0 0 0)
(0 0 0)
(0 0 0)
(0 0 0)
(0 0 0)
(0 0 0)
(0 0 0)
(0 0 0)
(0 0 0)
(0 0 0)
(0 0 0)
(0 0 0)
(0 0 0)
(0 0 0)
(0 0 0)
(0 0 0)
(0 0 0)
(0 0 0)
(0 0 0)
(0 0 0)
(0 0 0)
(0 0 0)
(0 0 0)
(0 0 0)
(0 0 0)
(0 0 0)
(0 0 0)
(0 0 0)
(0 0 0)
(0 0 0)
(0 0 0)
(0 0 0)
(0 0 0)
(0 0 0)
(0 0 0)
(0 0 0)
(0 0 0)
(0 0 0)
(0 0 0)
(0 0 0)
(0 0 0)
(0 0 0)
(0 0 0)
(0 0 0)
(0 0 0)
(0 0 0)
(0 0 0)
(0 0 0)
(0 0 0)
(0 0 0)
(0 0 0)
(0 0 0)
(0 0 0)
(0 0 0)
(0 0 0)
(0 0 0)
(0 0 0)
(0 0 0)
(0 0 0)
(0 0 0)
(0 0 0)
(0 0 0)
(0 0 0)
(0 0 0)
(0 0 0)
(0 0 0)
(0 0 0)
(0 0 0)
(0 0 0)
(0 0 0)
(0 0 0)
(0 0 0)
(0 0 0)
(0 0 0)
(0 0 0)
(0 0 0)
(0 0 0)
(0 0 0)
(0 0 0)
(0 0 0)
(0 0 0)
(0 0 0)
(0 0 0)
(0 0 0)
(0 0 0)
(0 0 0)
(0 0 0)
(0 0 0)
(0 0 0)
(0 0 0)
(0 0 0)
(0 0 0)
(0 0 0)
(0 0 0)
(0 0 0)