/*--------------------------------*- C++ -*----------------------------------*\
| =========                 |                                                 |
| \\      /  F ield         | OpenFOAM: The Open Source CFD Toolbox           |
|  \\    /   O peration     | Version:  v2106                                 |
|   \\  /    A nd           | Website:  www.openfoam.com                      |
|    \\/     M anipulation  |                                                 |
\*---------------------------------------------------------------------------*/
FoamFile
{
    version     2.0;
    format      ascii;
    arch        "LSB;label=32;scalar=64";
    class       pointVectorField;
    location    "0";
    object      pointDisplacement;
}
// * * * * * * * * * * * * * * * * * * * * * * * * * * * * * * * * * * * * * //

dimensions      [0 1 0 0 0 0 0];

internalField   nonuniform List<vector> 
24440
(
(0 0 0)
(0 0 0)
(0 0 0)
(0 0 0)
(0 0 0)
(0 0 0)
(0 0 0)
(0 0 0)
(0 0 0)
(0 0 0)
(0 0 0)
(0 0 0)
(0 0 0)
(0 0 0)
(0 0 0)
(0 0 0)
(0 0 0)
(0 0 0)
(0 0 0)
(0 0 0)
(0 0 0)
(0 0 0)
(0 0 0)
(0 0 0)
(0 0 0)
(0 0 0)
(0 0 0)
(0 0 0)
(0 0 0)
(0 0 0)
(0 0 0)
(0 0 0)
(0 0 0)
(0 0 0)
(0 0 0)
(0 0 0)
(0 0 0)
(0 0 0)
(0 0 0)
(0 0 0)
(0 0 0)
(0 0 0)
(0 0 0)
(0 0 0)
(0 0 0)
(0 0 0)
(0 0 0)
(0 0 0)
(0 0 0)
(0 0 0)
(0 0 0)
(0 0 0)
(0 0 0)
(0 0 0)
(0 0 0)
(0 0 0)
(0 0 0)
(0 0 0)
(0 0 0)
(0 0 0)
(0 0 0)
(0 0 0)
(0 0 0)
(0 0 0)
(0 0 0)
(0 0 0)
(0 0 0)
(0 0 0)
(0 0 0)
(0 0 0)
(0 0 0)
(0 0 0)
(0 0 0)
(0 0 0)
(0 0 0)
(0 0 0)
(0 0 0)
(0 0 0)
(0 0 0)
(0 0 0)
(0 0 0)
(0 0 0)
(0 0 0)
(0 0 0)
(0 0 0)
(0 0 0)
(0 0 0)
(0 0 0)
(0 0 0)
(0 0 0)
(0 0 0)
(0 0 0)
(0 0 0)
(0 0 0)
(0 0 0)
(0 0 0)
(0 0 0)
(0 0 0)
(0 -1.95872e-08 0)
(0 -1.23518e-07 0)
(0 -3.39648e-07 0)
(0 -5.23381e-07 0)
(0 -5.93893e-07 0)
(0 -5.23381e-07 0)
(0 -3.39648e-07 0)
(0 -1.23518e-07 0)
(0 -1.95872e-08 0)
(0 0 0)
(0 0 0)
(0 0 0)
(0 0 0)
(0 0 0)
(0 0 0)
(0 0 0)
(0 0 0)
(0 0 0)
(0 0 0)
(0 0 0)
(0 0 0)
(0 0 0)
(0 0 0)
(0 0 0)
(0 0 0)
(0 0 0)
(0 0 0)
(0 0 0)
(0 0 0)
(0 0 0)
(0 0 0)
(0 0 0)
(0 0 0)
(0 0 0)
(0 0 0)
(0 0 0)
(0 0 0)
(0 0 0)
(0 -3.28033e-08 0)
(0 -4.33932e-07 0)
(0 -1.27703e-06 0)
(0 -2.30049e-06 0)
(0 -3.28143e-06 0)
(0 -3.96529e-06 0)
(0 -4.601e-06 0)
(0 -4.82468e-06 0)
(0 -4.601e-06 0)
(0 -3.96529e-06 0)
(0 -3.28143e-06 0)
(0 -2.30049e-06 0)
(0 -1.27703e-06 0)
(0 -4.33932e-07 0)
(0 -3.28033e-08 0)
(0 0 0)
(0 0 0)
(0 0 0)
(0 0 0)
(0 0 0)
(0 0 0)
(0 0 0)
(0 0 0)
(0 0 0)
(0 0 0)
(0 0 0)
(0 0 0)
(0 0 0)
(0 0 0)
(0 0 0)
(0 0 0)
(0 0 0)
(0 0 0)
(0 0 0)
(0 0 0)
(0 0 0)
(0 0 0)
(0 0 0)
(0 0 0)
(0 -1.37727e-08 0)
(0 -5.70662e-07 0)
(0 -1.94614e-06 0)
(0 -3.83776e-06 0)
(0 -5.78612e-06 0)
(0 -7.95978e-06 0)
(0 -9.84235e-06 0)
(0 -1.10083e-05 0)
(0 -1.21231e-05 0)
(0 -1.25084e-05 0)
(0 -1.21231e-05 0)
(0 -1.10083e-05 0)
(0 -9.84235e-06 0)
(0 -7.95978e-06 0)
(0 -5.78612e-06 0)
(0 -3.83776e-06 0)
(0 -1.94614e-06 0)
(0 -5.70662e-07 0)
(0 -1.37727e-08 0)
(0 0 0)
(0 0 0)
(0 0 0)
(0 0 0)
(0 0 0)
(0 0 0)
(0 0 0)
(0 0 0)
(0 0 0)
(0 0 0)
(0 0 0)
(0 0 0)
(0 0 0)
(0 0 0)
(0 0 0)
(0 0 0)
(0 0 0)
(0 0 0)
(0 0 0)
(0 0 0)
(0 0 0)
(0 -1.30228e-07 0)
(0 -1.35429e-06 0)
(0 -3.59911e-06 0)
(0 -6.31468e-06 0)
(0 -9.68634e-06 0)
(0 -1.3087e-05 0)
(0 -1.6033e-05 0)
(0 -1.87927e-05 0)
(0 -2.0751e-05 0)
(0 -2.19211e-05 0)
(0 -2.24582e-05 0)
(0 -2.19211e-05 0)
(0 -2.0751e-05 0)
(0 -1.87927e-05 0)
(0 -1.6033e-05 0)
(0 -1.3087e-05 0)
(0 -9.68634e-06 0)
(0 -6.31468e-06 0)
(0 -3.59911e-06 0)
(0 -1.35429e-06 0)
(0 -1.37868e-07 0)
(0 0 0)
(0 0 0)
(0 0 0)
(0 0 0)
(0 0 0)
(0 0 0)
(0 0 0)
(0 0 0)
(0 0 0)
(0 0 0)
(0 0 0)
(0 0 0)
(0 0 0)
(0 0 0)
(0 0 0)
(0 0 0)
(0 0 0)
(0 0 0)
(0 0 0)
(0 -2.56128e-07 0)
(0 -1.79597e-06 0)
(0 -4.48252e-06 0)
(0 -8.2292e-06 0)
(0 -1.2682e-05 0)
(0 -1.73092e-05 0)
(0 -2.15554e-05 0)
(0 -2.55809e-05 0)
(0 -2.70935e-05 0)
(0 -2.87293e-05 0)
(0 -3.00976e-05 0)
(0 -3.11756e-05 0)
(0 -3.19465e-05 0)
(0 -3.24796e-05 0)
(0 -3.2972e-05 0)
(0 -3.31369e-05 0)
(0 -3.2972e-05 0)
(0 -3.24796e-05 0)
(0 -3.19465e-05 0)
(0 -3.11756e-05 0)
(0 -3.00976e-05 0)
(0 -2.87293e-05 0)
(0 -2.70935e-05 0)
(0 -2.55809e-05 0)
(0 -2.15554e-05 0)
(0 -1.73092e-05 0)
(0 -1.2682e-05 0)
(0 -8.2292e-06 0)
(0 -4.38948e-06 0)
(0 -1.62284e-06 0)
(0 -2.04663e-07 0)
(0 0 0)
(0 0 0)
(0 0 0)
(0 0 0)
(0 0 0)
(0 0 0)
(0 0 0)
(0 0 0)
(0 0 0)
(0 0 0)
(0 0 0)
(0 0 0)
(0 0 0)
(0 0 0)
(0 0 0)
(0 0 0)
(0 0 0)
(0 -1.50651e-07 0)
(0 -1.72404e-06 0)
(0 -4.80347e-06 0)
(0 -9.03871e-06 0)
(0 -1.39996e-05 0)
(0 -1.98365e-05 0)
(0 -2.26274e-05 0)
(0 -2.51012e-05 0)
(0 -2.78391e-05 0)
(0 -3.04054e-05 0)
(0 -3.27534e-05 0)
(0 -3.47481e-05 0)
(0 -3.02835e-05 0)
(0 -3.21325e-05 0)
(0 -3.35918e-05 0)
(0 -3.50636e-05 0)
(0 -3.62182e-05 0)
(0 -3.7041e-05 0)
(0 -3.75343e-05 0)
(0 -3.8057e-05 0)
(0 -3.82318e-05 0)
(0 -3.8057e-05 0)
(0 -3.75343e-05 0)
(0 -3.7041e-05 0)
(0 -3.62182e-05 0)
(0 -3.50636e-05 0)
(0 -3.35918e-05 0)
(0 -3.21325e-05 0)
(0 -3.02835e-05 0)
(0 -3.47481e-05 0)
(0 -3.27534e-05 0)
(0 -3.04054e-05 0)
(0 -2.78391e-05 0)
(0 -2.51012e-05 0)
(0 -2.26274e-05 0)
(0 -1.98365e-05 0)
(0 -1.39996e-05 0)
(0 -9.03871e-06 0)
(0 -4.62825e-06 0)
(0 -1.64903e-06 0)
(0 -1.36812e-07 0)
(0 0 0)
(0 0 0)
(0 0 0)
(0 0 0)
(0 0 0)
(0 0 0)
(0 0 0)
(0 0 0)
(0 0 0)
(0 0 0)
(0 0 0)
(0 0 0)
(0 0 0)
(0 0 0)
(0 0 0)
(0 0 0)
(0 -9.53193e-07 0)
(0 -3.89537e-06 0)
(0 -8.32776e-06 0)
(0 -1.38953e-05 0)
(0 -2.00963e-05 0)
(0 -2.63973e-05 0)
(0 -2.32344e-05 0)
(0 -2.62694e-05 0)
(0 -2.91898e-05 0)
(0 -3.19396e-05 0)
(0 -3.43827e-05 0)
(0 -3.68604e-05 0)
(0 -3.90499e-05 0)
(0 -4.08587e-05 0)
(0 -3.67128e-05 0)
(0 -3.83677e-05 0)
(0 -4.25644e-05 0)
(0 -4.37925e-05 0)
(0 -3.96842e-05 0)
(0 -4.08888e-05 0)
(0 -4.5014e-05 0)
(0 -4.58737e-05 0)
(0 -4.17433e-05 0)
(0 -4.21764e-05 0)
(0 -4.6372e-05 0)
(0 -4.67675e-05 0)
(0 -4.27155e-05 0)
(0 -4.28954e-05 0)
(0 -4.69461e-05 0)
(0 -4.67675e-05 0)
(0 -4.27155e-05 0)
(0 -4.21764e-05 0)
(0 -4.6372e-05 0)
(0 -4.58737e-05 0)
(0 -4.17433e-05 0)
(0 -4.08888e-05 0)
(0 -4.5014e-05 0)
(0 -4.37925e-05 0)
(0 -3.96842e-05 0)
(0 -3.83677e-05 0)
(0 -4.25644e-05 0)
(0 -4.08587e-05 0)
(0 -3.67128e-05 0)
(0 -3.90499e-05 0)
(0 -3.68604e-05 0)
(0 -3.43827e-05 0)
(0 -3.19396e-05 0)
(0 -2.91898e-05 0)
(0 -2.62694e-05 0)
(0 -2.32344e-05 0)
(0 -2.63973e-05 0)
(0 -2.00963e-05 0)
(0 -1.37281e-05 0)
(0 -8.26202e-06 0)
(0 -3.89121e-06 0)
(0 -1.03627e-06 0)
(0 0 0)
(0 0 0)
(0 0 0)
(0 0 0)
(0 0 0)
(0 0 0)
(0 0 0)
(0 0 0)
(0 0 0)
(0 0 0)
(0 0 0)
(0 0 0)
(0 0 0)
(0 0 0)
(0 0 0)
(0 -2.07938e-07 0)
(0 -2.13629e-06 0)
(0 -6.15783e-06 0)
(0 -1.15373e-05 0)
(0 -1.79325e-05 0)
(0 -2.52595e-05 0)
(0 -3.23172e-05 0)
(0 -2.95706e-05 0)
(0 -3.27678e-05 0)
(0 -2.94227e-05 0)
(0 -3.27134e-05 0)
(0 -3.57731e-05 0)
(0 -3.87878e-05 0)
(0 -3.56095e-05 0)
(0 -3.82543e-05 0)
(0 -4.15061e-05 0)
(0 -4.27455e-05 0)
(0 -4.38992e-05 0)
(0 -4.23305e-05 0)
(0 -4.04869e-05 0)
(0 -4.27336e-05 0)
(0 -4.43448e-05 0)
(0 -4.53402e-05 0)
(0 -4.37284e-05 0)
(0 -4.61483e-05 0)
(0 -4.76766e-05 0)
(0 -4.83839e-05 0)
(0 -4.68663e-05 0)
(0 -4.84485e-05 0)
(0 -4.99438e-05 0)
(0 -5.03164e-05 0)
(0 -4.89091e-05 0)
(0 -4.97554e-05 0)
(0 -5.11255e-05 0)
(0 -5.13206e-05 0)
(0 -4.99821e-05 0)
(0 -5.02258e-05 0)
(0 -5.15353e-05 0)
(0 -5.14958e-05 0)
(0 -5.01838e-05 0)
(0 -4.97554e-05 0)
(0 -5.11255e-05 0)
(0 -5.09406e-05 0)
(0 -4.9561e-05 0)
(0 -4.84485e-05 0)
(0 -4.99438e-05 0)
(0 -4.95157e-05 0)
(0 -4.80242e-05 0)
(0 -4.61483e-05 0)
(0 -4.76766e-05 0)
(0 -4.70523e-05 0)
(0 -4.53376e-05 0)
(0 -4.27336e-05 0)
(0 -4.43448e-05 0)
(0 -4.32591e-05 0)
(0 -4.16521e-05 0)
(0 -3.82543e-05 0)
(0 -4.15061e-05 0)
(0 -3.87878e-05 0)
(0 -3.56095e-05 0)
(0 -3.27134e-05 0)
(0 -3.57731e-05 0)
(0 -3.27678e-05 0)
(0 -2.94227e-05 0)
(0 -2.95706e-05 0)
(0 -3.21716e-05 0)
(0 -2.52421e-05 0)
(0 -1.82216e-05 0)
(0 -1.14404e-05 0)
(0 -6.09787e-06 0)
(0 -2.24336e-06 0)
(0 -2.37788e-07 0)
(0 0 0)
(0 0 0)
(0 0 0)
(0 0 0)
(0 0 0)
(0 0 0)
(0 0 0)
(0 0 0)
(0 0 0)
(0 0 0)
(0 0 0)
(0 0 0)
(0 0 0)
(0 0 0)
(0 -6.80325e-07 0)
(0 -3.44316e-06 0)
(0 -8.08989e-06 0)
(0 -1.4215e-05 0)
(0 -2.12935e-05 0)
(0 -2.90791e-05 0)
(0 -3.63454e-05 0)
(0 -3.45525e-05 0)
(0 -3.79719e-05 0)
(0 -3.56448e-05 0)
(0 -3.87516e-05 0)
(0 -4.11431e-05 0)
(0 -4.40071e-05 0)
(0 -4.15816e-05 0)
(0 -4.40885e-05 0)
(0 -4.53871e-05 0)
(0 -4.6504e-05 0)
(0 -4.53855e-05 0)
(0 -4.85411e-05 0)
(0 -4.90783e-05 0)
(0 -4.95118e-05 0)
(0 -4.89795e-05 0)
(0 -5.13856e-05 0)
(0 -5.18153e-05 0)
(0 -5.20942e-05 0)
(0 -5.16733e-05 0)
(0 -5.30694e-05 0)
(0 -5.33825e-05 0)
(0 -5.35246e-05 0)
(0 -5.32092e-05 0)
(0 -5.38073e-05 0)
(0 -5.4037e-05 0)
(0 -5.40698e-05 0)
(0 -5.38468e-05 0)
(0 -5.3996e-05 0)
(0 -5.41811e-05 0)
(0 -5.41779e-05 0)
(0 -5.39916e-05 0)
(0 -5.38073e-05 0)
(0 -5.4037e-05 0)
(0 -5.39916e-05 0)
(0 -5.37536e-05 0)
(0 -5.30694e-05 0)
(0 -5.33825e-05 0)
(0 -5.32634e-05 0)
(0 -5.29012e-05 0)
(0 -5.13856e-05 0)
(0 -5.18153e-05 0)
(0 -5.15725e-05 0)
(0 -5.10725e-05 0)
(0 -4.85411e-05 0)
(0 -4.90783e-05 0)
(0 -4.95699e-05 0)
(0 -4.86345e-05 0)
(0 -4.75884e-05 0)
(0 -4.40885e-05 0)
(0 -4.53871e-05 0)
(0 -4.65151e-05 0)
(0 -4.40071e-05 0)
(0 -4.15816e-05 0)
(0 -3.87516e-05 0)
(0 -4.10491e-05 0)
(0 -3.79474e-05 0)
(0 -3.56448e-05 0)
(0 -3.45939e-05 0)
(0 -3.6453e-05 0)
(0 -2.9006e-05 0)
(0 -2.15056e-05 0)
(0 -1.43641e-05 0)
(0 -8.18361e-06 0)
(0 -3.4923e-06 0)
(0 -6.97108e-07 0)
(0 0 0)
(0 0 0)
(0 0 0)
(0 0 0)
(0 0 0)
(0 0 0)
(0 0 0)
(0 0 0)
(0 0 0)
(0 0 0)
(0 0 0)
(0 0 0)
(0 0 0)
(0 0 0)
(0 -1.04904e-06 0)
(0 -4.27736e-06 0)
(0 -9.41283e-06 0)
(0 -1.60218e-05 0)
(0 -2.35476e-05 0)
(0 -3.1358e-05 0)
(0 -3.8799e-05 0)
(0 -3.78771e-05 0)
(0 -4.12694e-05 0)
(0 -3.96946e-05 0)
(0 -4.27656e-05 0)
(0 -4.43599e-05 0)
(0 -4.7088e-05 0)
(0 -4.57704e-05 0)
(0 -4.82538e-05 0)
(0 -4.88673e-05 0)
(0 -4.99361e-05 0)
(0 -4.93368e-05 0)
(0 -5.19103e-05 0)
(0 -5.21937e-05 0)
(0 -5.25135e-05 0)
(0 -5.2239e-05 0)
(0 -5.38827e-05 0)
(0 -5.40195e-05 0)
(0 -5.41338e-05 0)
(0 -5.4013e-05 0)
(0 -5.4355e-05 0)
(0 -5.4355e-05 0)
(0 -5.4355e-05 0)
(0 -5.4355e-05 0)
(0 -5.4355e-05 0)
(0 -5.4355e-05 0)
(0 -5.4355e-05 0)
(0 -5.4355e-05 0)
(0 -5.4355e-05 0)
(0 -5.4355e-05 0)
(0 -5.4355e-05 0)
(0 -5.4355e-05 0)
(0 -5.4355e-05 0)
(0 -5.4355e-05 0)
(0 -5.4355e-05 0)
(0 -5.4355e-05 0)
(0 -5.4355e-05 0)
(0 -5.4355e-05 0)
(0 -5.4355e-05 0)
(0 -5.4355e-05 0)
(0 -5.38827e-05 0)
(0 -5.40195e-05 0)
(0 -5.38688e-05 0)
(0 -5.3726e-05 0)
(0 -5.19103e-05 0)
(0 -5.21937e-05 0)
(0 -5.24359e-05 0)
(0 -5.16965e-05 0)
(0 -5.11669e-05 0)
(0 -4.82258e-05 0)
(0 -4.89385e-05 0)
(0 -4.94828e-05 0)
(0 -4.70227e-05 0)
(0 -4.58111e-05 0)
(0 -4.30093e-05 0)
(0 -4.43048e-05 0)
(0 -4.12256e-05 0)
(0 -3.987e-05 0)
(0 -3.7845e-05 0)
(0 -3.88183e-05 0)
(0 -3.13451e-05 0)
(0 -2.35102e-05 0)
(0 -1.59704e-05 0)
(0 -9.35923e-06 0)
(0 -4.23302e-06 0)
(0 -1.02386e-06 0)
(0 0 0)
(0 0 0)
(0 0 0)
(0 0 0)
(0 0 0)
(0 0 0)
(0 0 0)
(0 0 0)
(0 0 0)
(0 0 0)
(0 0 0)
(0 0 0)
(0 0 0)
(0 0 0)
(0 -1.11222e-06 0)
(0 -4.4141e-06 0)
(0 -9.62836e-06 0)
(0 -1.63169e-05 0)
(0 -2.39177e-05 0)
(0 -3.17921e-05 0)
(0 -3.92786e-05 0)
(0 -3.92924e-05 0)
(0 -4.26882e-05 0)
(0 -4.21849e-05 0)
(0 -4.52525e-05 0)
(0 -4.57564e-05 0)
(0 -4.84323e-05 0)
(0 -4.79395e-05 0)
(0 -5.02783e-05 0)
(0 -5.05043e-05 0)
(0 -5.14421e-05 0)
(0 -5.12383e-05 0)
(0 -5.33549e-05 0)
(0 -5.34421e-05 0)
(0 -5.36735e-05 0)
(0 -5.3593e-05 0)
(0 -5.4355e-05 0)
(0 -5.4355e-05 0)
(0 -5.4355e-05 0)
(0 -5.4355e-05 0)
(0 -5.4355e-05 0)
(0 -5.4355e-05 0)
(0 -5.4355e-05 0)
(0 -5.4355e-05 0)
(0 -5.4355e-05 0)
(0 -5.4355e-05 0)
(0 -5.4355e-05 0)
(0 -5.4355e-05 0)
(0 -5.4355e-05 0)
(0 -5.4355e-05 0)
(0 -5.4355e-05 0)
(0 -5.4355e-05 0)
(0 -5.4355e-05 0)
(0 -5.43527e-05 0)
(0 -5.43449e-05 0)
(0 -5.33549e-05 0)
(0 -5.34421e-05 0)
(0 -5.34996e-05 0)
(0 -5.29561e-05 0)
(0 -5.27643e-05 0)
(0 -5.02752e-05 0)
(0 -5.05075e-05 0)
(0 -5.06597e-05 0)
(0 -4.84323e-05 0)
(0 -4.80092e-05 0)
(0 -4.53065e-05 0)
(0 -4.56411e-05 0)
(0 -4.25558e-05 0)
(0 -4.22217e-05 0)
(0 -3.91458e-05 0)
(0 -3.91908e-05 0)
(0 -3.16943e-05 0)
(0 -2.38184e-05 0)
(0 -1.62247e-05 0)
(0 -9.55125e-06 0)
(0 -4.35878e-06 0)
(0 -1.08356e-06 0)
(0 0 0)
(0 0 0)
(0 0 0)
(0 0 0)
(0 0 0)
(0 0 0)
(0 0 0)
(0 0 0)
(0 0 0)
(0 0 0)
(0 0 0)
(0 0 0)
(0 0 0)
(0 0 0)
(0 -9.08942e-07 0)
(0 -3.97245e-06 0)
(0 -8.9371e-06 0)
(0 -1.53794e-05 0)
(0 -2.27539e-05 0)
(0 -3.04406e-05 0)
(0 -3.77995e-05 0)
(0 -3.88616e-05 0)
(0 -4.22517e-05 0)
(0 -4.2677e-05 0)
(0 -4.57482e-05 0)
(0 -4.53225e-05 0)
(0 -4.8011e-05 0)
(0 -4.84272e-05 0)
(0 -5.06576e-05 0)
(0 -5.05383e-05 0)
(0 -5.14757e-05 0)
(0 -5.15894e-05 0)
(0 -5.35949e-05 0)
(0 -5.35666e-05 0)
(0 -5.37835e-05 0)
(0 -5.38093e-05 0)
(0 -5.4355e-05 0)
(0 -5.4355e-05 0)
(0 -5.4355e-05 0)
(0 -5.4355e-05 0)
(0 -5.4355e-05 0)
(0 -5.4355e-05 0)
(0 -5.4355e-05 0)
(0 -5.4355e-05 0)
(0 -5.4355e-05 0)
(0 -5.4355e-05 0)
(0 -5.4355e-05 0)
(0 -5.4355e-05 0)
(0 -5.4355e-05 0)
(0 -5.4355e-05 0)
(0 -5.4355e-05 0)
(0 -5.4355e-05 0)
(0 -5.35949e-05 0)
(0 -5.35434e-05 0)
(0 -5.35152e-05 0)
(0 -5.29729e-05 0)
(0 -5.30346e-05 0)
(0 -5.06105e-05 0)
(0 -5.05345e-05 0)
(0 -5.03039e-05 0)
(0 -4.80438e-05 0)
(0 -4.83679e-05 0)
(0 -4.56778e-05 0)
(0 -4.53464e-05 0)
(0 -4.22661e-05 0)
(0 -4.25971e-05 0)
(0 -3.88663e-05 0)
(0 -3.78956e-05 0)
(0 -3.05112e-05 0)
(0 -2.28e-05 0)
(0 -1.54048e-05 0)
(0 -8.94719e-06 0)
(0 -3.97343e-06 0)
(0 -9.06958e-07 0)
(0 0 0)
(0 0 0)
(0 0 0)
(0 0 0)
(0 0 0)
(0 0 0)
(0 0 0)
(0 0 0)
(0 0 0)
(0 0 0)
(0 0 0)
(0 0 0)
(0 0 0)
(0 0 0)
(0 -4.59729e-07 0)
(0 -2.88765e-06 0)
(0 -7.18243e-06 0)
(0 -1.29584e-05 0)
(0 -2.01467e-05 0)
(0 -2.74971e-05 0)
(0 -3.46668e-05 0)
(0 -3.65681e-05 0)
(0 -3.99669e-05 0)
(0 -4.1165e-05 0)
(0 -4.44308e-05 0)
(0 -4.30856e-05 0)
(0 -4.58652e-05 0)
(0 -4.72011e-05 0)
(0 -4.95539e-05 0)
(0 -4.89901e-05 0)
(0 -5.00127e-05 0)
(0 -5.05602e-05 0)
(0 -5.28563e-05 0)
(0 -5.26959e-05 0)
(0 -5.29875e-05 0)
(0 -5.31588e-05 0)
(0 -5.42892e-05 0)
(0 -5.42335e-05 0)
(0 -5.43e-05 0)
(0 -5.43345e-05 0)
(0 -5.4355e-05 0)
(0 -5.4355e-05 0)
(0 -5.4355e-05 0)
(0 -5.4355e-05 0)
(0 -5.4355e-05 0)
(0 -5.4355e-05 0)
(0 -5.4355e-05 0)
(0 -5.4355e-05 0)
(0 -5.42892e-05 0)
(0 -5.42253e-05 0)
(0 -5.41369e-05 0)
(0 -5.42159e-05 0)
(0 -5.28563e-05 0)
(0 -5.26959e-05 0)
(0 -5.24778e-05 0)
(0 -5.17866e-05 0)
(0 -5.22134e-05 0)
(0 -4.95539e-05 0)
(0 -4.89901e-05 0)
(0 -4.83497e-05 0)
(0 -4.58652e-05 0)
(0 -4.72011e-05 0)
(0 -4.4348e-05 0)
(0 -4.30856e-05 0)
(0 -3.99669e-05 0)
(0 -4.1273e-05 0)
(0 -3.65681e-05 0)
(0 -3.46668e-05 0)
(0 -2.74971e-05 0)
(0 -1.9887e-05 0)
(0 -1.30858e-05 0)
(0 -7.26597e-06 0)
(0 -2.93337e-06 0)
(0 -4.7518e-07 0)
(0 0 0)
(0 0 0)
(0 0 0)
(0 0 0)
(0 0 0)
(0 0 0)
(0 0 0)
(0 0 0)
(0 0 0)
(0 0 0)
(0 0 0)
(0 0 0)
(0 0 0)
(0 0 0)
(0 -5.68847e-08 0)
(0 -1.68861e-06 0)
(0 -5.14201e-06 0)
(0 -1.01113e-05 0)
(0 -1.61421e-05 0)
(0 -2.27053e-05 0)
(0 -2.95923e-05 0)
(0 -3.22037e-05 0)
(0 -3.57055e-05 0)
(0 -3.80016e-05 0)
(0 -4.12455e-05 0)
(0 -3.87713e-05 0)
(0 -4.18416e-05 0)
(0 -4.40664e-05 0)
(0 -4.66584e-05 0)
(0 -4.56191e-05 0)
(0 -4.6764e-05 0)
(0 -4.77945e-05 0)
(0 -5.05762e-05 0)
(0 -5.01134e-05 0)
(0 -5.05342e-05 0)
(0 -5.09187e-05 0)
(0 -5.30346e-05 0)
(0 -5.27302e-05 0)
(0 -5.29524e-05 0)
(0 -5.3245e-05 0)
(0 -5.41339e-05 0)
(0 -5.39637e-05 0)
(0 -5.40384e-05 0)
(0 -5.41939e-05 0)
(0 -5.43549e-05 0)
(0 -5.43247e-05 0)
(0 -5.43365e-05 0)
(0 -5.4355e-05 0)
(0 -5.4355e-05 0)
(0 -5.4355e-05 0)
(0 -5.4355e-05 0)
(0 -5.4355e-05 0)
(0 -5.4355e-05 0)
(0 -5.43549e-05 0)
(0 -5.43247e-05 0)
(0 -5.43081e-05 0)
(0 -5.43531e-05 0)
(0 -5.43545e-05 0)
(0 -5.41339e-05 0)
(0 -5.39637e-05 0)
(0 -5.38713e-05 0)
(0 -5.40567e-05 0)
(0 -5.30346e-05 0)
(0 -5.27302e-05 0)
(0 -5.24826e-05 0)
(0 -5.27981e-05 0)
(0 -5.06135e-05 0)
(0 -5.01886e-05 0)
(0 -4.9678e-05 0)
(0 -4.88337e-05 0)
(0 -4.97516e-05 0)
(0 -4.65303e-05 0)
(0 -4.55662e-05 0)
(0 -4.44401e-05 0)
(0 -4.17841e-05 0)
(0 -4.40664e-05 0)
(0 -4.12455e-05 0)
(0 -3.87713e-05 0)
(0 -3.57055e-05 0)
(0 -3.80016e-05 0)
(0 -3.22037e-05 0)
(0 -2.95923e-05 0)
(0 -2.27053e-05 0)
(0 -1.61421e-05 0)
(0 -1.01113e-05 0)
(0 -5.14201e-06 0)
(0 -1.57514e-06 0)
(0 -6.83288e-08 0)
(0 0 0)
(0 0 0)
(0 0 0)
(0 0 0)
(0 0 0)
(0 0 0)
(0 0 0)
(0 0 0)
(0 0 0)
(0 0 0)
(0 0 0)
(0 0 0)
(0 0 0)
(0 0 0)
(0 0 0)
(0 -5.1903e-07 0)
(0 -2.73509e-06 0)
(0 -6.43506e-06 0)
(0 -1.1233e-05 0)
(0 -1.72277e-05 0)
(0 -2.34259e-05 0)
(0 -2.63499e-05 0)
(0 -2.98001e-05 0)
(0 -3.27506e-05 0)
(0 -3.59492e-05 0)
(0 -3.29063e-05 0)
(0 -3.58104e-05 0)
(0 -3.89557e-05 0)
(0 -4.16778e-05 0)
(0 -3.84616e-05 0)
(0 -4.0681e-05 0)
(0 -4.25239e-05 0)
(0 -4.40729e-05 0)
(0 -4.29184e-05 0)
(0 -4.61326e-05 0)
(0 -4.45222e-05 0)
(0 -4.55176e-05 0)
(0 -4.70435e-05 0)
(0 -4.93235e-05 0)
(0 -4.79428e-05 0)
(0 -4.8495e-05 0)
(0 -4.99263e-05 0)
(0 -5.1344e-05 0)
(0 -5.01204e-05 0)
(0 -5.04798e-05 0)
(0 -5.16831e-05 0)
(0 -5.23919e-05 0)
(0 -5.12628e-05 0)
(0 -5.1462e-05 0)
(0 -5.25307e-05 0)
(0 -5.27165e-05 0)
(0 -5.16738e-05 0)
(0 -5.16198e-05 0)
(0 -5.26739e-05 0)
(0 -5.23919e-05 0)
(0 -5.12628e-05 0)
(0 -5.09801e-05 0)
(0 -5.21742e-05 0)
(0 -5.1344e-05 0)
(0 -5.01204e-05 0)
(0 -4.96712e-05 0)
(0 -5.09165e-05 0)
(0 -4.93235e-05 0)
(0 -4.79428e-05 0)
(0 -4.72288e-05 0)
(0 -4.86248e-05 0)
(0 -4.61326e-05 0)
(0 -4.45222e-05 0)
(0 -4.35874e-05 0)
(0 -4.51377e-05 0)
(0 -4.16778e-05 0)
(0 -3.84616e-05 0)
(0 -3.58104e-05 0)
(0 -3.89557e-05 0)
(0 -3.59492e-05 0)
(0 -3.29063e-05 0)
(0 -2.98001e-05 0)
(0 -3.27506e-05 0)
(0 -2.63499e-05 0)
(0 -2.34259e-05 0)
(0 -1.72277e-05 0)
(0 -1.1233e-05 0)
(0 -6.43506e-06 0)
(0 -2.73509e-06 0)
(0 -5.1903e-07 0)
(0 0 0)
(0 0 0)
(0 0 0)
(0 0 0)
(0 0 0)
(0 0 0)
(0 0 0)
(0 0 0)
(0 0 0)
(0 0 0)
(0 0 0)
(0 0 0)
(0 0 0)
(0 0 0)
(0 0 0)
(0 0 0)
(0 0 0)
(0 -7.82156e-07 0)
(0 -3.22971e-06 0)
(0 -6.92359e-06 0)
(0 -1.15047e-05 0)
(0 -1.65226e-05 0)
(0 -2.14759e-05 0)
(0 -2.53198e-05 0)
(0 -2.94073e-05 0)
(0 -2.64747e-05 0)
(0 -2.80707e-05 0)
(0 -3.21677e-05 0)
(0 -3.46024e-05 0)
(0 -3.06483e-05 0)
(0 -3.30057e-05 0)
(0 -3.70872e-05 0)
(0 -3.9282e-05 0)
(0 -3.7251e-05 0)
(0 -3.80349e-05 0)
(0 -4.02609e-05 0)
(0 -4.27587e-05 0)
(0 -4.07618e-05 0)
(0 -4.15028e-05 0)
(0 -4.35055e-05 0)
(0 -4.52072e-05 0)
(0 -4.31987e-05 0)
(0 -4.35299e-05 0)
(0 -4.55937e-05 0)
(0 -4.66755e-05 0)
(0 -4.47467e-05 0)
(0 -4.4972e-05 0)
(0 -4.68989e-05 0)
(0 -4.71615e-05 0)
(0 -4.5245e-05 0)
(0 -4.51522e-05 0)
(0 -4.70774e-05 0)
(0 -4.66755e-05 0)
(0 -4.47467e-05 0)
(0 -4.44313e-05 0)
(0 -4.63619e-05 0)
(0 -4.52072e-05 0)
(0 -4.31987e-05 0)
(0 -4.27223e-05 0)
(0 -4.47303e-05 0)
(0 -4.27587e-05 0)
(0 -4.07618e-05 0)
(0 -3.99354e-05 0)
(0 -4.19239e-05 0)
(0 -3.9282e-05 0)
(0 -3.7251e-05 0)
(0 -3.49037e-05 0)
(0 -3.30057e-05 0)
(0 -3.70872e-05 0)
(0 -3.46024e-05 0)
(0 -3.06483e-05 0)
(0 -2.80707e-05 0)
(0 -3.21677e-05 0)
(0 -2.94073e-05 0)
(0 -2.53198e-05 0)
(0 -2.14759e-05 0)
(0 -1.65226e-05 0)
(0 -2.64747e-05 0)
(0 -1.15047e-05 0)
(0 -6.92359e-06 0)
(0 -3.22971e-06 0)
(0 -7.82156e-07 0)
(0 0 0)
(0 0 0)
(0 0 0)
(0 0 0)
(0 0 0)
(0 0 0)
(0 0 0)
(0 0 0)
(0 0 0)
(0 0 0)
(0 0 0)
(0 0 0)
(0 0 0)
(0 0 0)
(0 0 0)
(0 0 0)
(0 0 0)
(0 0 0)
(0 -9.91873e-09 0)
(0 -8.88556e-07 0)
(0 -3.01103e-06 0)
(0 -5.90053e-06 0)
(0 -9.6579e-06 0)
(0 -1.36651e-05 0)
(0 -1.75395e-05 0)
(0 -1.98013e-05 0)
(0 -2.39995e-05 0)
(0 -2.63797e-05 0)
(0 -2.17078e-05 0)
(0 -2.38589e-05 0)
(0 -2.83409e-05 0)
(0 -3.04912e-05 0)
(0 -2.81805e-05 0)
(0 -2.91263e-05 0)
(0 -3.14745e-05 0)
(0 -3.40093e-05 0)
(0 -3.1571e-05 0)
(0 -3.22438e-05 0)
(0 -3.47051e-05 0)
(0 -3.62817e-05 0)
(0 -3.38401e-05 0)
(0 -3.43836e-05 0)
(0 -3.68411e-05 0)
(0 -3.80133e-05 0)
(0 -3.55245e-05 0)
(0 -3.57375e-05 0)
(0 -3.82318e-05 0)
(0 -3.85197e-05 0)
(0 -3.60256e-05 0)
(0 -3.59084e-05 0)
(0 -3.8407e-05 0)
(0 -3.80133e-05 0)
(0 -3.55245e-05 0)
(0 -3.52272e-05 0)
(0 -3.77081e-05 0)
(0 -3.62817e-05 0)
(0 -3.38401e-05 0)
(0 -3.32176e-05 0)
(0 -3.5858e-05 0)
(0 -3.40093e-05 0)
(0 -3.1571e-05 0)
(0 -3.08251e-05 0)
(0 -3.3237e-05 0)
(0 -3.04912e-05 0)
(0 -2.81805e-05 0)
(0 -2.5828e-05 0)
(0 -2.38589e-05 0)
(0 -2.83409e-05 0)
(0 -2.63797e-05 0)
(0 -2.17078e-05 0)
(0 -1.98013e-05 0)
(0 -2.39995e-05 0)
(0 -1.75395e-05 0)
(0 -1.36651e-05 0)
(0 -9.6579e-06 0)
(0 -5.90053e-06 0)
(0 -3.01103e-06 0)
(0 -8.88556e-07 0)
(0 -9.91873e-09 0)
(0 0 0)
(0 0 0)
(0 0 0)
(0 0 0)
(0 0 0)
(0 0 0)
(0 0 0)
(0 0 0)
(0 0 0)
(0 0 0)
(0 0 0)
(0 0 0)
(0 0 0)
(0 0 0)
(0 0 0)
(0 0 0)
(0 0 0)
(0 0 0)
(0 0 0)
(0 0 0)
(0 -4.66639e-07 0)
(0 -1.94353e-06 0)
(0 -3.93722e-06 0)
(0 -6.62954e-06 0)
(0 -9.80277e-06 0)
(0 -1.15591e-05 0)
(0 -1.54024e-05 0)
(0 -1.74195e-05 0)
(0 -1.32802e-05 0)
(0 -1.49229e-05 0)
(0 -1.9328e-05 0)
(0 -2.10863e-05 0)
(0 -1.87425e-05 0)
(0 -1.95024e-05 0)
(0 -2.18973e-05 0)
(0 -2.40089e-05 0)
(0 -2.1486e-05 0)
(0 -2.1848e-05 0)
(0 -2.43351e-05 0)
(0 -2.61713e-05 0)
(0 -2.35819e-05 0)
(0 -2.40354e-05 0)
(0 -2.66507e-05 0)
(0 -2.7661e-05 0)
(0 -2.49923e-05 0)
(0 -2.51717e-05 0)
(0 -2.78502e-05 0)
(0 -2.8126e-05 0)
(0 -2.54394e-05 0)
(0 -2.53158e-05 0)
(0 -2.80021e-05 0)
(0 -2.7661e-05 0)
(0 -2.49923e-05 0)
(0 -2.47423e-05 0)
(0 -2.73971e-05 0)
(0 -2.61713e-05 0)
(0 -2.35819e-05 0)
(0 -2.30644e-05 0)
(0 -2.56238e-05 0)
(0 -2.40089e-05 0)
(0 -2.1486e-05 0)
(0 -2.08778e-05 0)
(0 -2.33622e-05 0)
(0 -2.10863e-05 0)
(0 -1.87425e-05 0)
(0 -1.64473e-05 0)
(0 -1.49229e-05 0)
(0 -1.9328e-05 0)
(0 -1.74195e-05 0)
(0 -1.32802e-05 0)
(0 -1.15591e-05 0)
(0 -1.54024e-05 0)
(0 -9.80277e-06 0)
(0 -6.62954e-06 0)
(0 -3.93722e-06 0)
(0 -1.94353e-06 0)
(0 -4.66639e-07 0)
(0 0 0)
(0 0 0)
(0 0 0)
(0 0 0)
(0 0 0)
(0 0 0)
(0 0 0)
(0 0 0)
(0 0 0)
(0 0 0)
(0 0 0)
(0 0 0)
(0 0 0)
(0 0 0)
(0 0 0)
(0 0 0)
(0 0 0)
(0 0 0)
(0 0 0)
(0 0 0)
(0 0 0)
(0 0 0)
(0 0 0)
(0 -3.9738e-08 0)
(0 -6.74051e-07 0)
(0 -1.88118e-06 0)
(0 -3.94631e-06 0)
(0 -5.02069e-06 0)
(0 -8.04796e-06 0)
(0 -9.45772e-06 0)
(0 -6.11164e-06 0)
(0 -7.18226e-06 0)
(0 -1.08186e-05 0)
(0 -1.20931e-05 0)
(0 -1.00778e-05 0)
(0 -1.06139e-05 0)
(0 -1.26872e-05 0)
(0 -1.41183e-05 0)
(0 -1.19487e-05 0)
(0 -1.24517e-05 0)
(0 -1.4671e-05 0)
(0 -1.60638e-05 0)
(0 -1.37228e-05 0)
(0 -1.40581e-05 0)
(0 -1.64303e-05 0)
(0 -1.72066e-05 0)
(0 -1.47693e-05 0)
(0 -1.49032e-05 0)
(0 -1.73526e-05 0)
(0 -1.75857e-05 0)
(0 -1.51218e-05 0)
(0 -1.50108e-05 0)
(0 -1.74699e-05 0)
(0 -1.72066e-05 0)
(0 -1.47693e-05 0)
(0 -1.4583e-05 0)
(0 -1.70034e-05 0)
(0 -1.60638e-05 0)
(0 -1.37228e-05 0)
(0 -1.33416e-05 0)
(0 -1.56467e-05 0)
(0 -1.41183e-05 0)
(0 -1.19487e-05 0)
(0 -1.14113e-05 0)
(0 -1.35268e-05 0)
(0 -1.20931e-05 0)
(0 -1.00778e-05 0)
(0 -8.19802e-06 0)
(0 -7.18226e-06 0)
(0 -1.08186e-05 0)
(0 -9.45772e-06 0)
(0 -6.11164e-06 0)
(0 -5.02069e-06 0)
(0 -8.04796e-06 0)
(0 -3.94631e-06 0)
(0 -1.88118e-06 0)
(0 -6.74051e-07 0)
(0 -3.9738e-08 0)
(0 0 0)
(0 0 0)
(0 0 0)
(0 0 0)
(0 0 0)
(0 0 0)
(0 0 0)
(0 0 0)
(0 0 0)
(0 0 0)
(0 0 0)
(0 0 0)
(0 0 0)
(0 0 0)
(0 0 0)
(0 0 0)
(0 0 0)
(0 0 0)
(0 0 0)
(0 0 0)
(0 0 0)
(0 0 0)
(0 0 0)
(0 0 0)
(0 0 0)
(0 0 0)
(0 -7.20332e-09 0)
(0 -5.41181e-07 0)
(0 -9.4264e-07 0)
(0 -2.61384e-06 0)
(0 -3.38658e-06 0)
(0 -1.40558e-06 0)
(0 -1.90066e-06 0)
(0 -4.16618e-06 0)
(0 -4.92132e-06 0)
(0 -3.38763e-06 0)
(0 -3.73442e-06 0)
(0 -5.10727e-06 0)
(0 -6.27086e-06 0)
(0 -4.71934e-06 0)
(0 -5.01832e-06 0)
(0 -6.6209e-06 0)
(0 -7.51606e-06 0)
(0 -5.78756e-06 0)
(0 -5.99355e-06 0)
(0 -7.75456e-06 0)
(0 -8.26347e-06 0)
(0 -6.43439e-06 0)
(0 -6.51798e-06 0)
(0 -8.35974e-06 0)
(0 -8.52716e-06 0)
(0 -6.66638e-06 0)
(0 -6.58531e-06 0)
(0 -8.43724e-06 0)
(0 -8.26347e-06 0)
(0 -6.43439e-06 0)
(0 -6.3184e-06 0)
(0 -8.12977e-06 0)
(0 -7.51606e-06 0)
(0 -5.78756e-06 0)
(0 -5.55491e-06 0)
(0 -7.24611e-06 0)
(0 -6.27086e-06 0)
(0 -4.71934e-06 0)
(0 -4.40363e-06 0)
(0 -5.89973e-06 0)
(0 -4.92132e-06 0)
(0 -3.38763e-06 0)
(0 -2.27804e-06 0)
(0 -1.90066e-06 0)
(0 -4.16618e-06 0)
(0 -3.38658e-06 0)
(0 -1.40558e-06 0)
(0 -9.4264e-07 0)
(0 -2.61384e-06 0)
(0 -5.41181e-07 0)
(0 -7.20332e-09 0)
(0 0 0)
(0 0 0)
(0 0 0)
(0 0 0)
(0 0 0)
(0 0 0)
(0 0 0)
(0 0 0)
(0 0 0)
(0 0 0)
(0 0 0)
(0 0 0)
(0 0 0)
(0 0 0)
(0 0 0)
(0 0 0)
(0 0 0)
(0 0 0)
(0 0 0)
(0 0 0)
(0 0 0)
(0 0 0)
(0 0 0)
(0 0 0)
(0 0 0)
(0 0 0)
(0 0 0)
(0 0 0)
(0 0 0)
(0 0 0)
(0 0 0)
(0 -2.6455e-07 0)
(0 -9.56846e-08 0)
(0 0 0)
(0 -4.16003e-07 0)
(0 -6.94987e-07 0)
(0 -2.12769e-08 0)
(0 -9.30005e-08 0)
(0 -1.00153e-06 0)
(0 -1.31215e-06 0)
(0 -1.96104e-07 0)
(0 -3.12254e-07 0)
(0 -1.60566e-06 0)
(0 -1.86364e-06 0)
(0 -4.25445e-07 0)
(0 -5.2239e-07 0)
(0 -2.07087e-06 0)
(0 -2.21567e-06 0)
(0 -5.92842e-07 0)
(0 -6.29835e-07 0)
(0 -2.29008e-06 0)
(0 -2.34962e-06 0)
(0 -6.61438e-07 0)
(0 -6.29835e-07 0)
(0 -2.29008e-06 0)
(0 -2.21567e-06 0)
(0 -5.92842e-07 0)
(0 -5.2239e-07 0)
(0 -2.07087e-06 0)
(0 -1.86364e-06 0)
(0 -4.25445e-07 0)
(0 -3.12254e-07 0)
(0 -1.60566e-06 0)
(0 -1.31215e-06 0)
(0 -1.96104e-07 0)
(0 -9.30005e-08 0)
(0 -1.00153e-06 0)
(0 -6.94987e-07 0)
(0 -2.12769e-08 0)
(0 0 0)
(0 -4.16003e-07 0)
(0 -2.6455e-07 0)
(0 0 0)
(0 0 0)
(0 0 0)
(0 -9.56846e-08 0)
(0 0 0)
(0 0 0)
(0 0 0)
(0 0 0)
(0 0 0)
(0 0 0)
(0 0 0)
(0 0 0)
(0 0 0)
(0 0 0)
(0 0 0)
(0 0 0)
(0 0 0)
(0 0 0)
(0 0 0)
(0 0 0)
(0 0 0)
(0 0 0)
(0 0 0)
(0 0 0)
(0 0 0)
(0 0 0)
(0 0 0)
(0 0 0)
(0 0 0)
(0 0 0)
(0 0 0)
(0 0 0)
(0 0 0)
(0 0 0)
(0 0 0)
(0 0 0)
(0 0 0)
(0 0 0)
(0 0 0)
(0 0 0)
(0 0 0)
(0 0 0)
(0 0 0)
(0 0 0)
(0 -1.91214e-09 0)
(0 0 0)
(0 0 0)
(0 -7.35854e-09 0)
(0 -4.37821e-09 0)
(0 0 0)
(0 -1.91214e-09 0)
(0 -4.37821e-09 0)
(0 0 0)
(0 0 0)
(0 0 0)
(0 0 0)
(0 0 0)
(0 0 0)
(0 0 0)
(0 0 0)
(0 0 0)
(0 0 0)
(0 0 0)
(0 0 0)
(0 0 0)
(0 0 0)
(0 0 0)
(0 0 0)
(0 0 0)
(0 0 0)
(0 0 0)
(0 0 0)
(0 0 0)
(0 0 0)
(0 0 0)
(0 0 0)
(0 0 0)
(0 0 0)
(0 0 0)
(0 0 0)
(0 0 0)
(0 0 0)
(0 0 0)
(0 0 0)
(0 0 0)
(0 0 0)
(0 0 0)
(0 0 0)
(0 0 0)
(0 0 0)
(0 0 0)
(0 0 0)
(0 0 0)
(0 0 0)
(0 0 0)
(0 0 0)
(0 0 0)
(0 0 0)
(0 0 0)
(0 0 0)
(0 0 0)
(0 0 0)
(0 0 0)
(0 0 0)
(0 0 0)
(0 0 0)
(0 0 0)
(0 0 0)
(0 0 0)
(0 0 0)
(0 0 0)
(0 0 0)
(0 0 0)
(0 0 0)
(0 0 0)
(0 0 0)
(0 0 0)
(0 0 0)
(0 0 0)
(0 0 0)
(0 0 0)
(0 0 0)
(0 0 0)
(0 0 0)
(0 0 0)
(0 0 0)
(0 0 0)
(0 0 0)
(0 0 0)
(0 0 0)
(0 0 0)
(0 0 0)
(0 0 0)
(0 0 0)
(0 0 0)
(0 0 0)
(0 0 0)
(0 0 0)
(0 0 0)
(0 0 0)
(0 0 0)
(0 0 0)
(0 0 0)
(0 0 0)
(0 0 0)
(0 0 0)
(0 0 0)
(0 0 0)
(0 0 0)
(0 0 0)
(0 0 0)
(0 0 0)
(0 0 0)
(0 0 0)
(0 0 0)
(0 0 0)
(0 0 0)
(0 0 0)
(0 0 0)
(0 0 0)
(0 0 0)
(0 0 0)
(0 0 0)
(0 0 0)
(0 0 0)
(0 0 0)
(0 0 0)
(0 0 0)
(0 0 0)
(0 0 0)
(0 0 0)
(0 0 0)
(0 0 0)
(0 0 0)
(0 0 0)
(0 0 0)
(0 0 0)
(0 0 0)
(0 0 0)
(0 0 0)
(0 0 0)
(0 0 0)
(0 0 0)
(0 0 0)
(0 0 0)
(0 0 0)
(0 0 0)
(0 0 0)
(0 0 0)
(0 0 0)
(0 0 0)
(0 0 0)
(0 0 0)
(0 0 0)
(0 0 0)
(0 0 0)
(0 0 0)
(0 0 0)
(0 0 0)
(0 0 0)
(0 0 0)
(0 0 0)
(0 0 0)
(0 0 0)
(0 0 0)
(0 0 0)
(0 0 0)
(0 0 0)
(0 0 0)
(0 0 0)
(0 0 0)
(0 0 0)
(0 0 0)
(0 0 0)
(0 0 0)
(0 0 0)
(0 0 0)
(0 0 0)
(0 0 0)
(0 0 0)
(0 0 0)
(0 0 0)
(0 0 0)
(0 0 0)
(0 0 0)
(0 0 0)
(0 0 0)
(0 0 0)
(0 0 0)
(0 0 0)
(0 0 0)
(0 0 0)
(0 0 0)
(0 0 0)
(0 0 0)
(0 0 0)
(0 0 0)
(0 0 0)
(0 0 0)
(0 0 0)
(0 0 0)
(0 0 0)
(0 0 0)
(0 0 0)
(0 0 0)
(0 0 0)
(0 0 0)
(0 0 0)
(0 0 0)
(0 0 0)
(0 0 0)
(0 0 0)
(0 0 0)
(0 0 0)
(0 0 0)
(0 0 0)
(0 0 0)
(0 0 0)
(0 0 0)
(0 0 0)
(0 0 0)
(0 0 0)
(0 0 0)
(0 0 0)
(0 0 0)
(0 0 0)
(0 0 0)
(0 0 0)
(0 0 0)
(0 0 0)
(0 0 0)
(0 0 0)
(0 0 0)
(0 0 0)
(0 0 0)
(0 0 0)
(0 0 0)
(0 0 0)
(0 0 0)
(0 0 0)
(0 0 0)
(0 0 0)
(0 0 0)
(0 0 0)
(0 0 0)
(0 0 0)
(0 0 0)
(0 0 0)
(0 0 0)
(0 0 0)
(0 0 0)
(0 0 0)
(0 0 0)
(0 0 0)
(0 0 0)
(0 0 0)
(0 0 0)
(0 0 0)
(0 0 0)
(0 0 0)
(0 0 0)
(0 0 0)
(0 0 0)
(0 0 0)
(0 0 0)
(0 0 0)
(0 0 0)
(0 0 0)
(0 0 0)
(0 0 0)
(0 0 0)
(0 0 0)
(0 0 0)
(0 0 0)
(0 0 0)
(0 0 0)
(0 0 0)
(0 0 0)
(0 0 0)
(0 0 0)
(0 0 0)
(0 0 0)
(0 0 0)
(0 0 0)
(0 0 0)
(0 0 0)
(0 0 0)
(0 0 0)
(0 0 0)
(0 0 0)
(0 0 0)
(0 0 0)
(0 0 0)
(0 0 0)
(0 0 0)
(0 0 0)
(0 0 0)
(0 0 0)
(0 0 0)
(0 0 0)
(0 0 0)
(0 0 0)
(0 0 0)
(0 0 0)
(0 0 0)
(0 0 0)
(0 0 0)
(0 0 0)
(0 0 0)
(0 0 0)
(0 0 0)
(0 0 0)
(0 0 0)
(0 0 0)
(0 0 0)
(0 0 0)
(0 0 0)
(0 0 0)
(0 0 0)
(0 0 0)
(0 0 0)
(0 0 0)
(0 0 0)
(0 0 0)
(0 0 0)
(0 0 0)
(0 0 0)
(0 0 0)
(0 0 0)
(0 0 0)
(0 0 0)
(0 0 0)
(0 0 0)
(0 0 0)
(0 0 0)
(0 0 0)
(0 0 0)
(0 0 0)
(0 0 0)
(0 0 0)
(0 0 0)
(0 0 0)
(0 0 0)
(0 0 0)
(0 0 0)
(0 0 0)
(0 0 0)
(0 0 0)
(0 0 0)
(0 0 0)
(0 0 0)
(0 0 0)
(0 0 0)
(0 0 0)
(0 0 0)
(0 0 0)
(0 0 0)
(0 0 0)
(0 0 0)
(0 0 0)
(0 0 0)
(0 0 0)
(0 0 0)
(0 0 0)
(0 0 0)
(0 0 0)
(0 0 0)
(0 0 0)
(0 0 0)
(0 0 0)
(0 0 0)
(0 0 0)
(0 0 0)
(0 0 0)
(0 0 0)
(0 0 0)
(0 0 0)
(0 0 0)
(0 0 0)
(0 0 0)
(0 0 0)
(0 0 0)
(0 0 0)
(0 0 0)
(0 0 0)
(0 0 0)
(0 0 0)
(0 0 0)
(0 0 0)
(0 0 0)
(0 0 0)
(0 0 0)
(0 0 0)
(0 0 0)
(0 0 0)
(0 0 0)
(0 0 0)
(0 0 0)
(0 0 0)
(0 0 0)
(0 0 0)
(0 0 0)
(0 0 0)
(0 0 0)
(0 0 0)
(0 0 0)
(0 0 0)
(0 0 0)
(0 0 0)
(0 0 0)
(0 0 0)
(0 0 0)
(0 0 0)
(0 0 0)
(0 0 0)
(0 0 0)
(0 0 0)
(0 0 0)
(0 0 0)
(0 0 0)
(0 0 0)
(0 0 0)
(0 0 0)
(0 0 0)
(0 0 0)
(0 0 0)
(0 0 0)
(0 0 0)
(0 0 0)
(0 0 0)
(0 0 0)
(0 0 0)
(0 0 0)
(0 0 0)
(0 0 0)
(0 0 0)
(0 0 0)
(0 0 0)
(0 0 0)
(0 0 0)
(0 0 0)
(0 0 0)
(0 0 0)
(0 0 0)
(0 0 0)
(0 0 0)
(0 0 0)
(0 0 0)
(0 0 0)
(0 0 0)
(0 0 0)
(0 0 0)
(0 0 0)
(0 0 0)
(0 0 0)
(0 0 0)
(0 0 0)
(0 0 0)
(0 0 0)
(0 0 0)
(0 0 0)
(0 0 0)
(0 0 0)
(0 0 0)
(0 0 0)
(0 0 0)
(0 0 0)
(0 0 0)
(0 0 0)
(0 0 0)
(0 0 0)
(0 0 0)
(0 0 0)
(0 0 0)
(0 0 0)
(0 0 0)
(0 0 0)
(0 0 0)
(0 0 0)
(0 0 0)
(0 0 0)
(0 0 0)
(0 0 0)
(0 0 0)
(0 0 0)
(0 0 0)
(0 0 0)
(0 0 0)
(0 0 0)
(0 0 0)
(0 0 0)
(0 0 0)
(0 0 0)
(0 0 0)
(0 0 0)
(0 0 0)
(0 0 0)
(0 0 0)
(0 0 0)
(0 0 0)
(0 0 0)
(0 0 0)
(0 0 0)
(0 0 0)
(0 0 0)
(0 0 0)
(0 0 0)
(0 0 0)
(0 0 0)
(0 0 0)
(0 0 0)
(0 0 0)
(0 0 0)
(0 0 0)
(0 0 0)
(0 0 0)
(0 0 0)
(0 0 0)
(0 0 0)
(0 0 0)
(0 0 0)
(0 0 0)
(0 0 0)
(0 0 0)
(0 0 0)
(0 0 0)
(0 0 0)
(0 0 0)
(0 0 0)
(0 0 0)
(0 0 0)
(0 0 0)
(0 0 0)
(0 0 0)
(0 0 0)
(0 0 0)
(0 0 0)
(0 0 0)
(0 0 0)
(0 0 0)
(0 0 0)
(0 0 0)
(0 0 0)
(0 0 0)
(0 0 0)
(0 0 0)
(0 0 0)
(0 0 0)
(0 0 0)
(0 0 0)
(0 0 0)
(0 0 0)
(0 0 0)
(0 0 0)
(0 0 0)
(0 0 0)
(0 0 0)
(0 0 0)
(0 0 0)
(0 0 0)
(0 0 0)
(0 0 0)
(0 0 0)
(0 0 0)
(0 0 0)
(0 0 0)
(0 0 0)
(0 0 0)
(0 0 0)
(0 0 0)
(0 0 0)
(0 0 0)
(0 0 0)
(0 0 0)
(0 0 0)
(0 0 0)
(0 0 0)
(0 0 0)
(0 0 0)
(0 0 0)
(0 0 0)
(0 0 0)
(0 0 0)
(0 0 0)
(0 0 0)
(0 0 0)
(0 0 0)
(0 0 0)
(0 0 0)
(0 0 0)
(0 0 0)
(0 0 0)
(0 0 0)
(0 0 0)
(0 0 0)
(0 0 0)
(0 0 0)
(0 0 0)
(0 0 0)
(0 0 0)
(0 0 0)
(0 0 0)
(0 0 0)
(0 0 0)
(0 0 0)
(0 0 0)
(0 0 0)
(0 0 0)
(0 0 0)