/*--------------------------------*- C++ -*----------------------------------*\
| =========                 |                                                 |
| \\      /  F ield         | OpenFOAM: The Open Source CFD Toolbox           |
|  \\    /   O peration     | Version:  v2106                                 |
|   \\  /    A nd           | Website:  www.openfoam.com                      |
|    \\/     M anipulation  |                                                 |
\*---------------------------------------------------------------------------*/
FoamFile
{
    version     2.0;
    format      ascii;
    arch        "LSB;label=32;scalar=64";
    class       volScalarField;
    location    "0";
    object      p;
}
// * * * * * * * * * * * * * * * * * * * * * * * * * * * * * * * * * * * * * //

dimensions      [0 2 -2 0 0 0 0];

internalField   nonuniform List<scalar> 
11644
(
0.425022
0.424675
0.423837
0.422328
0.420031
0.416704
0.412005
0.405509
0.396724
0.38508
0.369929
0.350772
0.327022
0.297897
0.263373
0.223341
0.177659
0.127715
0.0754236
0.0219476
-0.0314735
-0.0836378
-0.13379
-0.181267
-0.22433
-0.261979
-0.294961
-0.323331
-0.347137
-0.367056
-0.383441
-0.396642
-0.407133
-0.415319
-0.421581
-0.426257
-0.429626
-0.431943
-0.433387
-0.434088
0.425263
0.424967
0.424371
0.423331
0.421612
0.418937
0.415001
0.409391
0.401594
0.390997
0.376998
0.358754
0.335401
0.306857
0.272062
0.230783
0.1839
0.132465
0.0784678
0.0233321
-0.0314206
-0.0850851
-0.136747
-0.185473
-0.229952
-0.269246
-0.302728
-0.331042
-0.354798
-0.374112
-0.389609
-0.401949
-0.411594
-0.419017
-0.42463
-0.428772
-0.431761
-0.433819
-0.435112
-0.435741
0.426915
0.426709
0.426364
0.42584
0.42493
0.42337
0.420811
0.416833
0.410897
0.402401
0.390472
0.374188
0.352704
0.324603
0.289421
0.24701
0.197906
0.143669
0.0863088
0.0264476
-0.033878
-0.0927789
-0.147999
-0.19911
-0.245277
-0.285816
-0.32035
-0.34844
-0.370867
-0.388596
-0.402299
-0.412719
-0.420565
-0.426353
-0.430557
-0.433536
-0.435598
-0.436962
-0.43776
-0.438088
0.429222
0.4293
0.429467
0.429683
0.429827
0.429711
0.429031
0.42738
0.42424
0.418833
0.410291
0.397428
0.378136
0.351608
0.31617
0.272241
0.22037
0.161209
0.097597
0.0304392
-0.0374567
-0.103127
-0.164208
-0.220155
-0.269506
-0.311887
-0.347239
-0.375215
-0.396046
-0.410907
-0.421458
-0.428797
-0.433736
-0.436973
-0.438971
-0.440133
-0.440726
-0.440959
-0.441005
-0.440968
0.431549
0.431985
0.432874
0.43412
0.435663
0.437403
0.43914
0.440551
0.441135
0.440152
0.436304
0.427024
0.410304
0.383679
0.346895
0.300611
0.245804
0.181665
0.11092
0.0364563
-0.0402787
-0.114001
-0.183912
-0.246333
-0.298455
-0.344029
-0.381771
-0.409789
-0.429166
-0.440762
-0.446653
-0.449446
-0.45033
-0.449977
-0.448953
-0.447637
-0.446294
-0.445122
-0.444256
-0.443814
0.433026
0.433981
0.435747
0.438331
0.441681
0.445741
0.450444
0.455637
0.461006
0.465116
0.465086
0.45854
0.44325
0.420104
0.385081
0.335827
0.278547
0.210256
0.131563
0.0460441
-0.0423322
-0.126601
-0.205847
-0.276551
-0.333294
-0.382783
-0.420608
-0.448451
-0.465968
-0.474911
-0.476434
-0.473519
-0.468905
-0.463977
-0.459197
-0.454873
-0.451217
-0.448382
-0.446454
-0.445423
0.433316
0.43459
0.437278
0.441328
0.446756
0.45357
0.461788
0.471418
0.481844
0.490124
0.493609
0.490928
0.482269
0.460883
0.428834
0.381809
0.319754
0.255511
0.172051
0.0772299
-0.0216698
-0.120046
-0.210726
-0.286298
-0.381954
-0.435645
-0.471178
-0.493904
-0.505365
-0.509523
-0.506671
-0.498391
-0.487474
-0.477034
-0.467901
-0.460227
-0.454086
-0.449476
-0.446446
-0.444991
0.431247
0.433124
0.436759
0.442266
0.449775
0.459452
0.471394
0.485682
0.500636
0.513189
0.522829
0.528989
0.525768
0.507078
0.484728
0.452472
0.397225
0.308052
0.207808
0.0917181
-0.0302307
-0.150958
-0.261797
-0.352678
-0.441002
-0.477294
-0.509249
-0.548083
-0.548584
-0.543315
-0.533091
-0.51917
-0.502543
-0.486439
-0.472941
-0.46199
-0.453473
-0.447294
-0.443192
-0.441131
0.426201
0.428401
0.432869
0.439797
0.449271
0.461596
0.47703
0.495641
0.515297
0.534514
0.553105
0.570865
0.588206
0.573485
0.571259
0.538997
0.478161
0.411258
0.275982
0.137385
-0.0158736
-0.171183
-0.305034
-0.440513
-0.499673
-0.573017
-0.588709
-0.61137
-0.593219
-0.574569
-0.55367
-0.532012
-0.510101
-0.489287
-0.472116
-0.458476
-0.447967
-0.440286
-0.435331
-0.432855
0.417338
0.419714
0.42483
0.432646
0.443562
0.457994
0.476509
0.499032
0.524072
0.552282
0.583764
0.617058
0.652752
0.661765
0.678675
0.666726
0.625495
0.542378
0.394121
0.194111
-0.0135351
-0.221435
-0.415961
-0.5622
-0.656716
-0.703987
-0.685549
-0.669491
-0.632401
-0.598131
-0.564769
-0.534468
-0.507438
-0.483126
-0.463284
-0.447872
-0.436248
-0.427858
-0.422447
-0.419854
0.403102
0.40603
0.411466
0.419844
0.431508
0.447011
0.467496
0.493079
0.523204
0.559658
0.603832
0.6577
0.717102
0.755742
0.824889
0.870766
0.886928
0.855311
0.670229
0.32199
-0.0117654
-0.349285
-0.689665
-0.868671
-0.90369
-0.864428
-0.797401
-0.720315
-0.658932
-0.605883
-0.560896
-0.523597
-0.492617
-0.466367
-0.445464
-0.429646
-0.417751
-0.409314
-0.403794
-0.400977
0.384744
0.386915
0.391952
0.400071
0.411582
0.426922
0.447455
0.473911
0.506805
0.548569
0.601126
0.671444
0.763123
0.824128
0.978446
1.09779
1.28378
1.55696
2.02396
-1.99546
-1.54379
-1.26132
-1.05441
-0.888596
-0.749195
-0.657793
-0.589039
-0.53717
-0.496368
-0.463976
-0.43814
-0.418147
-0.403317
-0.392123
-0.384301
-0.379481
-0.377431
0.360446
0.362607
0.366968
0.373844
0.383823
0.39708
0.414691
0.438164
0.469072
0.510439
0.564731
0.638698
0.738012
0.859797
1.05233
1.28472
1.65701
2.3599
3.46603
-3.4623
-2.28993
-1.57169
-1.16463
-0.928834
-0.715583
-0.61565
-0.542735
-0.490134
-0.450596
-0.42094
-0.398769
-0.382143
-0.369813
-0.360618
-0.354317
-0.350547
-0.348367
0.330591
0.332013
0.335355
0.340594
0.347691
0.357057
0.368666
0.384755
0.408026
0.441177
0.486859
0.549277
0.633667
0.770131
0.978243
1.27504
1.74293
2.45122
2.8255
-2.83808
-2.34732
-1.62697
-1.11263
-0.849851
-0.614511
-0.527385
-0.4635
-0.418813
-0.386976
-0.364698
-0.349739
-0.33904
-0.330619
-0.324269
-0.319681
-0.316757
-0.316123
0.296401
0.297304
0.298869
0.301262
0.304303
0.308336
0.31192
0.317385
0.328003
0.34419
0.368756
0.401236
0.449013
0.572022
0.724974
1.02181
1.56162
2.67615
3.73
2.77379
-0.0729691
-2.98786
-3.75644
-2.49886
-1.40291
-0.841401
-0.632622
-0.441211
-0.389441
-0.35347
-0.326837
-0.31016
-0.299163
-0.294181
-0.291129
-0.287889
-0.285478
-0.28361
-0.282333
-0.28159
0.26022
0.261161
0.261015
0.259868
0.257832
0.255
0.249996
0.243153
0.236819
0.2293
0.22002
0.208373
0.192664
0.270149
0.285141
0.34195
0.727056
1.60751
3.05794
2.54687
-0.311038
-2.85227
-2.75216
-1.32598
-0.632214
-0.311984
-0.275922
-0.196629
-0.207639
-0.215724
-0.221098
-0.22608
-0.230729
-0.23721
-0.241984
-0.244738
-0.246839
-0.248055
-0.248228
-0.246942
0.22445
0.223853
0.221695
0.217741
0.211424
0.20232
0.18923
0.169668
0.143951
0.110878
0.0660458
0.00435677
-0.0771574
-0.215202
-0.256079
-0.499551
-0.630334
-0.918153
-0.64601
-0.102158
-0.0108438
0.16794
0.708773
0.846269
0.651147
0.358717
0.204486
0.068497
-0.0118596
-0.0700729
-0.111143
-0.141352
-0.164958
-0.182931
-0.194693
-0.202907
-0.208512
-0.211896
-0.213731
-0.214333
0.190676
0.188222
0.183897
0.17738
0.167555
0.153553
0.134098
0.105136
0.0646448
0.011702
-0.0595677
-0.159846
-0.303302
-0.49464
-0.694629
-1.15816
-1.6637
-2.42432
-2.5412
-1.51616
0.0890815
1.69568
2.53831
2.28326
1.48156
0.911255
0.487485
0.29575
0.151096
0.0517362
-0.0171618
-0.0682845
-0.106449
-0.133355
-0.151152
-0.163828
-0.172445
-0.178156
-0.182017
-0.184407
0.160427
0.157422
0.152016
0.143813
0.131891
0.115074
0.0920733
0.0601451
0.0161428
-0.0430845
-0.123427
-0.234411
-0.397295
-0.607633
-0.850593
-1.29649
-1.83559
-2.37033
-2.30854
-1.31286
0.174735
1.63162
2.44655
2.34131
1.60583
1.0677
0.605211
0.390988
0.225815
0.114369
0.0352614
-0.0226579
-0.06491
-0.0952971
-0.1167
-0.132209
-0.143017
-0.15048
-0.15536
-0.158052
0.135648
0.133169
0.12792
0.119543
0.107611
0.0912351
0.069271
0.0408148
0.00289274
-0.0475749
-0.116176
-0.206475
-0.338531
-0.501558
-0.708127
-0.987294
-1.29573
-1.4518
-1.24414
-0.604697
0.184212
0.935165
1.4274
1.47701
1.13076
0.83759
0.491378
0.324726
0.194919
0.104316
0.0371965
-0.0123128
-0.0487149
-0.075715
-0.0960606
-0.111164
-0.122036
-0.129595
-0.134261
-0.136465
0.116509
0.114537
0.110143
0.10313
0.0933729
0.0805221
0.0641314
0.0439816
0.0188162
-0.0127575
-0.0539932
-0.106154
-0.174534
-0.254195
-0.380404
-0.442671
-0.478324
-0.33681
-0.131798
0.0162799
0.0354431
0.0490158
0.176576
0.34576
0.374465
0.388287
0.22898
0.152001
0.0898577
0.0393331
0.00034053
-0.029806
-0.0534534
-0.072306
-0.0873291
-0.0990218
-0.107737
-0.113945
-0.117766
-0.119517
0.101119
0.0994596
0.0962005
0.0913794
0.0851357
0.0775805
0.0688814
0.0594174
0.0495277
0.0401275
0.0316174
0.0239466
0.0292217
0.0228762
0.124232
0.165714
0.410389
0.681601
0.755251
0.395524
-0.215432
-0.732536
-0.858243
-0.631238
-0.331434
-0.147214
-0.0465725
-0.0414978
-0.0370918
-0.0425772
-0.0503997
-0.0588538
-0.067744
-0.0764406
-0.0844368
-0.0913116
-0.0969214
-0.101211
-0.10401
-0.105341
0.0876677
0.086513
0.0845187
0.0819091
0.079103
0.0765058
0.0747795
0.0749878
0.0783554
0.0872379
0.104707
0.130469
0.185589
0.262772
0.372351
0.701677
0.977053
1.11725
1.01193
0.394123
-0.484895
-1.07392
-1.17451
-1.01996
-0.727118
-0.399351
-0.277373
-0.192029
-0.137626
-0.110531
-0.093181
-0.0841309
-0.0806983
-0.0804493
-0.0821317
-0.0845143
-0.087123
-0.0895658
-0.0914155
-0.0923733
0.0755986
0.0749218
0.074004
0.0731402
0.0727692
0.0735149
0.0763312
0.0824658
0.0940044
0.114006
0.147127
0.194734
0.272725
0.383704
0.512564
0.715227
0.876583
0.926494
0.82875
0.408228
-0.329809
-0.75579
-0.885263
-0.840664
-0.684356
-0.497603
-0.37385
-0.264522
-0.191294
-0.145424
-0.114549
-0.0957855
-0.0853121
-0.0796901
-0.0773814
-0.076835
-0.0773087
-0.0782422
-0.0791437
-0.0798558
0.0646201
0.0642438
0.0638952
0.063912
0.0646136
0.0667202
0.0712383
0.0789956
0.0923569
0.113692
0.148223
0.196249
0.263772
0.342072
0.417765
0.495234
0.585021
0.604167
0.557274
0.322857
-0.109807
-0.353398
-0.463551
-0.483088
-0.44173
-0.380297
-0.318516
-0.248725
-0.186217
-0.141772
-0.110291
-0.0907187
-0.0790999
-0.0723391
-0.068811
-0.0673014
-0.0670208
-0.0673421
-0.0678389
-0.0684224
0.0544011
0.0541063
0.0537926
0.0537418
0.0541904
0.0555853
0.0586858
0.0639068
0.0724344
0.0852402
0.10492
0.12992
0.156569
0.163559
0.166598
0.169137
0.162521
0.144812
0.14413
0.11917
0.00633049
-0.0404854
-0.0809549
-0.113644
-0.130637
-0.14255
-0.153327
-0.150352
-0.126474
-0.100563
-0.0820773
-0.070207
-0.0629793
-0.0588519
-0.05676
-0.0561083
-0.0562408
-0.0567771
-0.0573642
-0.0577841
0.0446554
0.0442769
0.043639
0.0428403
0.0420748
0.0413011
0.0406966
0.0403666
0.0396475
0.0386274
0.0357347
0.0278961
0.005384
-0.0510597
-0.137062
-0.207698
-0.275219
-0.290888
-0.224297
-0.0773714
0.0775099
0.228048
0.280031
0.255073
0.181214
0.10666
0.0337019
-0.0146128
-0.0323901
-0.0361774
-0.0379596
-0.0383084
-0.039406
-0.0404108
-0.0416981
-0.0431256
-0.0444284
-0.0455795
-0.046431
-0.0468075
0.0354699
0.0350684
0.034108
0.0324573
0.0301084
0.0267625
0.0220932
0.0154724
0.00569837
-0.00882872
-0.0306723
-0.0656385
-0.122156
-0.211474
-0.343685
-0.474428
-0.572876
-0.583956
-0.466712
-0.218145
0.133913
0.393709
0.517437
0.515878
0.425103
0.308802
0.189212
0.109165
0.0605136
0.0305885
0.0102863
-0.00318612
-0.0131733
-0.0201826
-0.0254859
-0.0294151
-0.0323175
-0.0343504
-0.0356046
-0.0360084
0.0277848
0.027449
0.0261466
0.023781
0.0200399
0.0145639
0.00672473
-0.00450776
-0.0205801
-0.0430312
-0.0756232
-0.126147
-0.196825
-0.297887
-0.434556
-0.57118
-0.671535
-0.667918
-0.528835
-0.259395
0.155655
0.441031
0.587294
0.610125
0.5206
0.409022
0.286256
0.192606
0.127508
0.0795915
0.0472241
0.0252462
0.0086188
-0.0031203
-0.0116985
-0.0177755
-0.0220727
-0.0248763
-0.0264702
-0.0269102
0.0221444
0.0219591
0.0203359
0.0174831
0.0129714
0.00645016
-0.00272602
-0.0155448
-0.0337214
-0.0590189
-0.0939378
-0.148513
-0.215075
-0.301014
-0.41171
-0.515263
-0.585849
-0.561383
-0.428428
-0.185522
0.160745
0.408253
0.538789
0.583992
0.512216
0.418569
0.307578
0.219835
0.153424
0.100256
0.0648832
0.0393532
0.0203734
0.00692288
-0.00305638
-0.010138
-0.0150495
-0.0182207
-0.0200166
-0.0204401
0.0183222
0.0179116
0.0165252
0.0139639
0.009792
0.00368179
-0.00485637
-0.016834
-0.0333742
-0.0563577
-0.0874
-0.129668
-0.176232
-0.22784
-0.289023
-0.347422
-0.382372
-0.356574
-0.246857
-0.0828441
0.175846
0.332029
0.416248
0.444759
0.387532
0.313617
0.237851
0.183849
0.135559
0.0931911
0.0620146
0.0387192
0.0214227
0.0089764
-0.000180877
-0.00677321
-0.0113889
-0.0143465
-0.0160846
-0.0165871
0.0170449
0.0164879
0.0152572
0.0131834
0.00997686
0.00536985
-0.000867095
-0.00946301
-0.02054
-0.0354241
-0.0538709
-0.0741506
-0.0891661
-0.100649
-0.113957
-0.128192
-0.139242
-0.125038
-0.0690623
-0.0183009
0.112194
0.156074
0.173826
0.177186
0.142719
0.125428
0.108058
0.0955256
0.0775543
0.0577381
0.0390829
0.0245195
0.0128551
0.00424824
-0.00249857
-0.00736873
-0.0109445
-0.0132861
-0.0147588
-0.0153864
0.0182961
0.0177092
0.0168105
0.0154372
0.013545
0.0110729
0.00808454
0.00443277
0.000742647
-0.00272997
-0.00440607
0.000993997
0.0190181
0.0472906
0.0790863
0.105147
0.111197
0.10179
0.0815463
0.0215329
-0.0120646
-0.0706958
-0.100094
-0.112929
-0.113124
-0.0883076
-0.0618051
-0.0301438
-0.00738948
0.00155039
0.00224931
0.000247417
-0.00297625
-0.00609094
-0.00913171
-0.0115154
-0.0134622
-0.0148665
-0.0158432
-0.0163968
0.0204066
0.019964
0.0196438
0.0193203
0.0191665
0.0192942
0.0200895
0.0220286
0.0264847
0.0348238
0.0500763
0.0781866
0.123685
0.185336
0.250476
0.302565
0.316986
0.284762
0.20991
0.0646881
-0.0969663
-0.230729
-0.313111
-0.348733
-0.333494
-0.279047
-0.2111
-0.142415
-0.0891736
-0.0561918
-0.0371981
-0.0269254
-0.0213714
-0.0185675
-0.0174978
-0.0171209
-0.0172296
-0.0175765
-0.0179457
-0.0184088
0.0220608
0.0218076
0.0220035
0.0226053
0.0240584
0.0265662
0.0308992
0.0378176
0.0491724
0.0670235
0.0960861
0.137834
0.199222
0.273009
0.350484
0.410113
0.431326
0.382872
0.277841
0.098299
-0.139593
-0.314201
-0.425015
-0.473274
-0.451149
-0.383625
-0.298324
-0.214728
-0.146987
-0.0999944
-0.0680733
-0.0488829
-0.0367964
-0.0291423
-0.0245786
-0.0218206
-0.0203568
-0.0198009
-0.0196558
-0.0199839
0.0223007
0.0222622
0.0227997
0.0240294
0.026517
0.0305138
0.0368687
0.0465191
0.0612044
0.0831782
0.117602
0.165102
0.230087
0.303631
0.379526
0.437729
0.454861
0.398968
0.29371
0.117526
-0.122917
-0.294292
-0.409337
-0.46267
-0.449821
-0.388678
-0.312387
-0.233468
-0.168142
-0.119273
-0.0836524
-0.060795
-0.0455397
-0.0354341
-0.0288314
-0.0246073
-0.0220171
-0.0206685
-0.020032
-0.0201948
0.0207485
0.0207396
0.0214587
0.0228818
0.0255299
0.0296207
0.03601
0.0455086
0.05974
0.0800503
0.110384
0.149802
0.202619
0.266848
0.334017
0.382394
0.399616
0.352813
0.266429
0.139016
-0.0611143
-0.203259
-0.3084
-0.356667
-0.348965
-0.308086
-0.254937
-0.197548
-0.149933
-0.11125
-0.0803173
-0.0593825
-0.044693
-0.0349614
-0.0284136
-0.0241264
-0.0214318
-0.0200296
-0.0193594
-0.0193826
0.0178034
0.0178103
0.0183258
0.0193658
0.0213414
0.0242648
0.0288508
0.0354273
0.0451895
0.0582982
0.0768848
0.0981873
0.123812
0.153993
0.192182
0.224557
0.246904
0.224915
0.182828
0.115326
-0.0186105
-0.0960126
-0.16432
-0.197362
-0.194537
-0.173316
-0.147256
-0.119946
-0.0969578
-0.0766894
-0.0580937
-0.0449106
-0.0349585
-0.0282735
-0.0236223
-0.0205704
-0.0186261
-0.0175722
-0.0170377
-0.0169285
0.0134308
0.0135101
0.013691
0.0140181
0.0147184
0.0156657
0.0171397
0.0189065
0.0210864
0.0227738
0.023383
0.0194477
0.0149504
0.00939514
0.00802363
0.011114
0.0223229
0.0215499
0.0220318
0.0321425
0.00216459
0.00688647
-0.0058572
-0.0120659
-0.00977512
-0.00867902
-0.0130559
-0.0186553
-0.0239923
-0.0262155
-0.0246882
-0.0220608
-0.0192527
-0.017159
-0.015445
-0.0142624
-0.0134556
-0.0129558
-0.0126749
-0.0125265
0.00803583
0.008058
0.0078237
0.00734236
0.00659008
0.00525935
0.00317565
-0.00025981
-0.00623313
-0.0164534
-0.0340794
-0.0621142
-0.0979585
-0.137145
-0.169472
-0.187076
-0.184683
-0.165585
-0.124095
-0.0536662
0.0236383
0.104079
0.142194
0.162241
0.166745
0.151989
0.120149
0.0842814
0.05146
0.0275493
0.0127057
0.00438116
-0.000548194
-0.00344336
-0.00518097
-0.00623732
-0.00690808
-0.00729219
-0.00750194
-0.0074187
0.00291346
0.0029177
0.00232272
0.00114251
-0.000899154
-0.00427022
-0.00941857
-0.0173216
-0.0299433
-0.0492366
-0.0803159
-0.124858
-0.180978
-0.243709
-0.296706
-0.329905
-0.330224
-0.295523
-0.22482
-0.109089
0.0465395
0.171391
0.242537
0.283634
0.28951
0.265989
0.219419
0.164968
0.114017
0.0741042
0.0461908
0.0284417
0.0167476
0.00926209
0.00428425
0.00106632
-0.000974668
-0.00217076
-0.00280659
-0.00283419
-0.000587595
-0.000637465
-0.00148749
-0.00311332
-0.00604351
-0.0107517
-0.0177673
-0.028503
-0.0449781
-0.0692421
-0.105979
-0.156253
-0.217842
-0.287078
-0.345154
-0.382745
-0.381879
-0.339204
-0.258511
-0.132456
0.0659246
0.206419
0.289908
0.34257
0.346799
0.319331
0.265796
0.205326
0.148691
0.10158
0.0669765
0.0437541
0.0278346
0.0174551
0.0104282
0.00584333
0.00298423
0.00137523
0.000555183
0.000446507
-0.00240413
-0.00234936
-0.00326954
-0.00509172
-0.00828524
-0.0132042
-0.0205546
-0.0315249
-0.0479347
-0.0716486
-0.106054
-0.150503
-0.203465
-0.26322
-0.312577
-0.343936
-0.344929
-0.301902
-0.21834
-0.096897
0.0796634
0.203015
0.286413
0.338714
0.33886
0.312927
0.262344
0.203614
0.148393
0.102828
0.0692007
0.0462071
0.0302956
0.0196222
0.0123715
0.00749934
0.00438906
0.00261323
0.0017097
0.00163908
-0.00260687
-0.00267005
-0.00335977
-0.0047654
-0.0072904
-0.0112069
-0.0171328
-0.0257133
-0.0381062
-0.055462
-0.0800971
-0.109744
-0.144494
-0.185146
-0.21943
-0.242021
-0.241642
-0.208078
-0.142332
-0.0552971
0.0864411
0.172516
0.225768
0.261168
0.254953
0.229886
0.189269
0.145365
0.106922
0.0767635
0.0528382
0.035751
0.0237159
0.0153319
0.00950303
0.00560044
0.0030516
0.00163836
0.000882895
0.000930195
-0.000773273
-0.000871043
-0.00130816
-0.00214577
-0.00356115
-0.0056466
-0.00874472
-0.0129025
-0.0187245
-0.0260365
-0.0347682
-0.0449064
-0.056636
-0.0707221
-0.0841224
-0.0941725
-0.0960817
-0.0815189
-0.0524661
-0.0228302
0.0487113
0.0755606
0.090916
0.104285
0.0936172
0.0802365
0.0623216
0.0502195
0.0392713
0.0301001
0.0217538
0.0150377
0.00967631
0.00580868
0.00295699
0.00105909
-0.000207308
-0.000871293
-0.00119882
-0.00123214
0.00260648
0.00254331
0.00252188
0.00249279
0.00246244
0.00255172
0.00279787
0.00360011
0.00531294
0.00912424
0.0169116
0.0283423
0.0423271
0.0566597
0.0672659
0.0700071
0.0651409
0.0571568
0.04201
0.00775216
-0.015903
-0.0491812
-0.0689102
-0.0767409
-0.0841616
-0.0806043
-0.0710227
-0.0547546
-0.0409746
-0.0268954
-0.0168106
-0.0111215
-0.0080773
-0.00646035
-0.00565352
-0.00517143
-0.00495398
-0.00480078
-0.00471546
-0.00471019
0.00602179
0.00608185
0.00655197
0.00740696
0.00883612
0.0111024
0.0145942
0.0201715
0.0289498
0.0428683
0.0653608
0.0949634
0.129578
0.166157
0.194726
0.20713
0.200835
0.173842
0.124327
0.041296
-0.058651
-0.14372
-0.195876
-0.224034
-0.231257
-0.216027
-0.186564
-0.146694
-0.109793
-0.0767033
-0.0513555
-0.0352544
-0.0250568
-0.0185307
-0.0144269
-0.0118006
-0.0102438
-0.00930887
-0.00878958
-0.0087493
0.00858879
0.00871782
0.00942812
0.0107992
0.0131828
0.0169927
0.0228904
0.031828
0.0457692
0.0665706
0.0976805
0.137534
0.18271
0.231227
0.271232
0.291319
0.287437
0.249654
0.179193
0.0657065
-0.0796047
-0.191002
-0.264079
-0.306277
-0.314973
-0.293915
-0.253984
-0.20102
-0.152
-0.108388
-0.0747511
-0.0519823
-0.0368417
-0.0270373
-0.0206936
-0.0165783
-0.0140467
-0.0125831
-0.0118283
-0.0117989
0.00961395
0.00968067
0.0104071
0.0118878
0.0146332
0.0190523
0.0259784
0.0360979
0.0517747
0.0748004
0.108905
0.151966
0.200532
0.253193
0.297118
0.31999
0.319869
0.27821
0.204836
0.0889375
-0.0742048
-0.188351
-0.270648
-0.317999
-0.322988
-0.301946
-0.261788
-0.208834
-0.16069
-0.116606
-0.0817979
-0.057695
-0.0411679
-0.0303227
-0.0231274
-0.018407
-0.0154304
-0.0137907
-0.0129344
-0.0129277
0.00860876
0.0085384
0.00922517
0.01058
0.0130945
0.0170522
0.0231625
0.0320626
0.0456124
0.064855
0.0932296
0.130034
0.173243
0.219521
0.259188
0.281717
0.284015
0.250908
0.193382
0.0960272
-0.0421158
-0.144238
-0.217626
-0.259296
-0.264715
-0.247168
-0.213692
-0.171156
-0.133461
-0.0988748
-0.0707055
-0.0510174
-0.036971
-0.0275386
-0.0212373
-0.017168
-0.0145664
-0.013151
-0.0124887
-0.0125557
0.00633241
0.00616744
0.00645017
0.00715848
0.00863109
0.0110115
0.0147143
0.0201097
0.0281534
0.0390959
0.0541686
0.0733141
0.0969053
0.124977
0.151438
0.168606
0.175845
0.158395
0.125819
0.0698749
-0.0182086
-0.0800689
-0.124765
-0.150299
-0.153613
-0.142982
-0.123405
-0.0993856
-0.0782934
-0.0594261
-0.0443835
-0.0333601
-0.0250705
-0.0195205
-0.0156922
-0.0132639
-0.011724
-0.0109407
-0.0105869
-0.0106018
0.00287601
0.00274275
0.00260898
0.00249161
0.00252984
0.00267984
0.00300215
0.00327272
0.00347266
0.00307959
0.00192322
0.00108364
0.000587436
0.000263049
0.00402097
0.00753666
0.0136652
0.013863
0.0159576
0.0155455
-0.00160635
-0.00607202
-0.00961332
-0.0117893
-0.0103544
-0.00920598
-0.00840509
-0.00810869
-0.00875044
-0.00934985
-0.00982008
-0.00955424
-0.00873264
-0.00808698
-0.00751938
-0.00718041
-0.0069654
-0.00689872
-0.00689423
-0.00694675
-0.00146913
-0.00163492
-0.00215706
-0.00301519
-0.00433702
-0.00637074
-0.00938922
-0.0141513
-0.0215823
-0.0330678
-0.0497256
-0.0705202
-0.0926701
-0.116817
-0.134404
-0.143858
-0.141082
-0.124436
-0.0906679
-0.0377471
0.0165549
0.0677233
0.103091
0.121585
0.126616
0.119911
0.103808
0.082082
0.0603128
0.0411515
0.0257727
0.0155853
0.00896654
0.00468557
0.00191582
3.42406e-05
-0.00121507
-0.00203205
-0.00251149
-0.0026502
-0.00545077
-0.00563039
-0.00645116
-0.00786765
-0.010221
-0.0139429
-0.0195601
-0.0279746
-0.0410471
-0.0605559
-0.0883193
-0.123134
-0.161164
-0.202005
-0.233608
-0.250631
-0.247959
-0.218175
-0.158871
-0.0696454
0.0308663
0.123768
0.185635
0.21769
0.224306
0.210575
0.182846
0.1467
0.111424
0.0800153
0.0537709
0.0355894
0.0232155
0.0150953
0.00959207
0.00592144
0.00351688
0.00205043
0.00120222
0.000981961
-0.00786415
-0.00799441
-0.00886804
-0.0105007
-0.0133619
-0.0178989
-0.0249143
-0.0351712
-0.0510102
-0.0740965
-0.107022
-0.146911
-0.190923
-0.238882
-0.276005
-0.297481
-0.294855
-0.259746
-0.190116
-0.082879
0.0437933
0.158096
0.233052
0.270587
0.276955
0.258796
0.223189
0.178553
0.136246
0.0991116
0.068007
0.0459248
0.0303961
0.0201306
0.0132901
0.00884985
0.00599141
0.00433894
0.00348825
0.00330006
-0.00843732
-0.0083948
-0.00919209
-0.0107718
-0.0135443
-0.0178907
-0.024647
-0.0346106
-0.0496888
-0.0711461
-0.101925
-0.138571
-0.178235
-0.222825
-0.258336
-0.278575
-0.27674
-0.240424
-0.171315
-0.0681421
0.054721
0.162181
0.230457
0.264864
0.271236
0.253107
0.217618
0.174345
0.132838
0.0962797
0.0660464
0.0444965
0.0296324
0.0197421
0.0131635
0.00881017
0.00601613
0.00446949
0.00369852
0.00364706
-0.00763395
-0.00755221
-0.00799875
-0.0090001
-0.0109484
-0.0140769
-0.018993
-0.0262508
-0.0370809
-0.0521211
-0.0734957
-0.0989167
-0.12714
-0.159066
-0.185648
-0.20057
-0.199258
-0.173097
-0.123124
-0.0448114
0.046683
0.1291
0.177582
0.197022
0.200406
0.183745
0.156696
0.123861
0.0933352
0.0673589
0.0462268
0.0313463
0.0209406
0.0137947
0.00893832
0.00575547
0.00375641
0.00268747
0.0021747
0.00235981
-0.00535524
-0.00525962
-0.00533727
-0.00563261
-0.00634902
-0.00756159
-0.00953442
-0.012347
-0.0166667
-0.0220103
-0.0295286
-0.038802
-0.0495729
-0.0620088
-0.0726182
-0.0795827
-0.0791106
-0.0704278
-0.0525599
-0.0197287
0.0190533
0.0530245
0.0667662
0.0720517
0.0722338
0.0633253
0.0517696
0.0387391
0.0290106
0.0213324
0.0144796
0.00975068
0.0059888
0.00345871
0.00173024
0.000612576
-1.07102e-05
-0.000221389
-0.000226387
-5.94961e-05
-0.00185571
-0.00168318
-0.00135354
-0.000867937
-0.000250654
0.000629974
0.00188546
0.00388479
0.00684001
0.0117243
0.0185557
0.0269209
0.0366936
0.0459341
0.0529974
0.0557088
0.0539934
0.0462166
0.0281268
0.00490529
-0.0165862
-0.0396776
-0.0597779
-0.0692501
-0.0708855
-0.0687548
-0.0610806
-0.0505986
-0.0394524
-0.0298801
-0.0216082
-0.0151745
-0.0111531
-0.00839548
-0.00661871
-0.00543754
-0.00465641
-0.00406526
-0.0036594
-0.00344273
0.00162494
0.00190043
0.00266792
0.00392598
0.00578215
0.00855897
0.0126844
0.018893
0.0281203
0.0418508
0.0609748
0.0838725
0.109923
0.136061
0.156622
0.167086
0.163241
0.142814
0.0970942
0.0291826
-0.0390525
-0.109465
-0.157824
-0.182097
-0.186479
-0.176514
-0.154258
-0.126051
-0.0980421
-0.0728641
-0.0519649
-0.0366326
-0.0261969
-0.0191167
-0.0144324
-0.0113886
-0.00940688
-0.00811407
-0.00732509
-0.00708174
0.00414121
0.00440782
0.00530868
0.00688056
0.00942907
0.013372
0.0193429
0.028276
0.0414074
0.0605522
0.086321
0.117601
0.153675
0.191425
0.222405
0.24048
0.236579
0.20818
0.144867
0.0481298
-0.0518352
-0.149546
-0.213535
-0.244147
-0.251929
-0.238074
-0.208421
-0.170198
-0.132458
-0.098346
-0.0704048
-0.0497382
-0.0354174
-0.0258146
-0.0194524
-0.0151673
-0.0124118
-0.0107423
-0.00982809
-0.00963817
0.00506913
0.00521579
0.00599665
0.00750751
0.0101471
0.0143435
0.020693
0.0303919
0.0448153
0.065663
0.0933891
0.127999
0.168114
0.209863
0.244099
0.264534
0.260185
0.228648
0.165045
0.0613081
-0.0473151
-0.149742
-0.218831
-0.256307
-0.264427
-0.248828
-0.217246
-0.17732
-0.138243
-0.102554
-0.0738052
-0.0522498
-0.0373325
-0.0272077
-0.0204386
-0.0158923
-0.0130093
-0.011386
-0.0105841
-0.0104683
0.00422847
0.0041299
0.00477372
0.00603427
0.00827306
0.0118088
0.017078
0.0251155
0.0373081
0.0548663
0.0785179
0.108484
0.142905
0.178563
0.208376
0.22736
0.224957
0.202977
0.15084
0.0618859
-0.0319222
-0.119421
-0.178675
-0.211505
-0.218433
-0.204985
-0.178265
-0.146145
-0.113877
-0.0844111
-0.0614438
-0.0439093
-0.0315481
-0.0231787
-0.0176224
-0.013904
-0.0115351
-0.0102334
-0.00960214
-0.0096521
0.00231207
0.00216196
0.00234232
0.00284313
0.00397759
0.00588622
0.00888179
0.0133625
0.0200119
0.0295963
0.042101
0.0586958
0.0786081
0.100431
0.119061
0.132602
0.131797
0.120762
0.0927761
0.0396215
-0.0153784
-0.0684596
-0.101986
-0.120923
-0.124798
-0.116426
-0.100583
-0.0823457
-0.064301
-0.0483123
-0.0359785
-0.0262765
-0.0193321
-0.0146697
-0.0115816
-0.00955373
-0.00834329
-0.00777498
-0.00755374
-0.00770295
-0.000656803
-0.000861214
-0.00108909
-0.00136709
-0.00159084
-0.00181529
-0.00201051
-0.00224957
-0.00254323
-0.00303807
-0.00337769
-0.00373851
-0.00420345
-0.00282513
-0.00167553
0.0015572
0.0019264
0.00329443
0.00768762
0.00346587
-0.000386235
-0.00404538
-0.00367683
-0.00435388
-0.00461762
-0.00389938
-0.00310388
-0.0029643
-0.00333778
-0.00363687
-0.00397006
-0.0039617
-0.00384428
-0.00379373
-0.00379491
-0.00388051
-0.0039948
-0.00421649
-0.00441715
-0.00461854
-0.00440579
-0.00468374
-0.00527281
-0.00621972
-0.00765238
-0.00980862
-0.0129649
-0.0176603
-0.024471
-0.0342674
-0.0471276
-0.0631588
-0.0817999
-0.0995831
-0.115089
-0.122236
-0.121133
-0.105003
-0.0735744
-0.0304186
0.0136871
0.0566639
0.0878046
0.103989
0.107566
0.102068
0.0894673
0.0728002
0.055299
0.0397273
0.0274014
0.0182202
0.0118033
0.00743942
0.00446908
0.00240349
0.00101344
4.33935e-05
-0.000579973
-0.000862638
-0.0076473
-0.00796403
-0.00883537
-0.0103076
-0.0126029
-0.0161357
-0.0213395
-0.0291429
-0.0407347
-0.0571266
-0.0787336
-0.105912
-0.137195
-0.167575
-0.193362
-0.20618
-0.202967
-0.176072
-0.127234
-0.0525268
0.0246672
0.100696
0.153846
0.182408
0.187458
0.176223
0.153765
0.125618
0.0969049
0.0712105
0.0506705
0.0348832
0.0237665
0.0161632
0.0109531
0.00745341
0.00513236
0.00362465
0.00271994
0.00240853
-0.00950907
-0.00975432
-0.0106276
-0.0122108
-0.0147917
-0.0188181
-0.024866
-0.0340251
-0.047628
-0.0671205
-0.0922168
-0.124364
-0.160994
-0.196927
-0.227513
-0.24357
-0.24018
-0.20888
-0.151513
-0.0615008
0.0339544
0.126194
0.18923
0.223636
0.230081
0.215349
0.187048
0.151634
0.116038
0.0852135
0.0613084
0.0424448
0.0290592
0.0199297
0.0137932
0.00968578
0.00702748
0.00542902
0.00454143
0.00431522
-0.00966345
-0.00978641
-0.0104724
-0.0118214
-0.014171
-0.0178436
-0.0234898
-0.0320563
-0.0447024
-0.0629619
-0.0863875
-0.116747
-0.151334
-0.184889
-0.21322
-0.228575
-0.224669
-0.192477
-0.13547
-0.0524341
0.0390005
0.123699
0.18206
0.214065
0.219382
0.20567
0.179126
0.145505
0.111389
0.0815491
0.0583727
0.0400851
0.0272475
0.0187867
0.013019
0.00920543
0.006756
0.00532922
0.0045812
0.00457557
-0.00837401
-0.00826084
-0.00868307
-0.00953877
-0.0111323
-0.0136681
-0.0176406
-0.0236443
-0.0325298
-0.0453929
-0.0618457
-0.0833682
-0.107907
-0.131914
-0.152315
-0.162946
-0.161078
-0.138103
-0.0971732
-0.0358556
0.0303037
0.092896
0.133998
0.155233
0.157276
0.146601
0.126714
0.102444
0.0779513
0.0567606
0.0402788
0.0274573
0.0187334
0.0128389
0.00889238
0.00633642
0.00475346
0.00395751
0.00362943
0.00371401
-0.00626637
-0.00606965
-0.00605129
-0.00611668
-0.00651761
-0.00729162
-0.00864884
-0.0107851
-0.0139179
-0.0187376
-0.0246543
-0.032366
-0.0415276
-0.0508667
-0.059299
-0.0634147
-0.0628233
-0.0548688
-0.0397513
-0.0164914
0.00877113
0.0336426
0.0464338
0.0533263
0.0540335
0.0494092
0.0419675
0.032713
0.0241334
0.0173982
0.0124858
0.00830821
0.00555059
0.00372389
0.00254425
0.00184957
0.00149474
0.00139121
0.00141666
0.00157315
-0.0034453
-0.00318883
-0.00277771
-0.00214774
-0.00134841
-0.000236438
0.00123595
0.00326108
0.00623775
0.0101175
0.0152495
0.021944
0.0297986
0.0375353
0.0432892
0.0464685
0.0453066
0.0375372
0.0234308
0.00366801
-0.0170635
-0.0362308
-0.0520193
-0.0609197
-0.0615146
-0.0583547
-0.0507819
-0.0421719
-0.0324647
-0.0242871
-0.0180227
-0.0130472
-0.00917212
-0.00659556
-0.00480821
-0.00356818
-0.00275909
-0.00221207
-0.00184257
-0.0016123
-0.000386721
-6.94194e-05
0.000672585
0.00186073
0.00363141
0.00624886
0.0100506
0.0155531
0.0236636
0.0348895
0.0494838
0.0680348
0.0895648
0.110481
0.126893
0.135341
0.132681
0.112384
0.0745509
0.0211773
-0.035279