/*--------------------------------*- C++ -*----------------------------------*\
| =========                 |                                                 |
| \\      /  F ield         | OpenFOAM: The Open Source CFD Toolbox           |
|  \\    /   O peration     | Version:  v2106                                 |
|   \\  /    A nd           | Website:  www.openfoam.com                      |
|    \\/     M anipulation  |                                                 |
\*---------------------------------------------------------------------------*/
FoamFile
{
    version     2.0;
    format      ascii;
    arch        "LSB;label=32;scalar=64";
    class       volVectorField;
    location    "0";
    object      U;
}
// * * * * * * * * * * * * * * * * * * * * * * * * * * * * * * * * * * * * * //

dimensions      [0 1 -1 0 0 0 0];

internalField   nonuniform List<vector> 
11644
(
(0.00170904 2.74859e-05 -2.36774e-23)
(0.00172771 6.96782e-05 -6.52954e-23)
(0.00173517 9.35229e-05 -3.50326e-23)
(0.00173464 0.000125195 0)
(0.00173573 0.000164642 0)
(0.00173919 0.000215062 0)
(0.00174461 0.000273984 0)
(0.00175264 0.000339885 0)
(0.00175799 0.000409215 0)
(0.00178117 0.000494287 0)
(0.00173259 0.000566896 0)
(0.00176245 0.000657947 0)
(0.00188484 0.000756368 0)
(0.00184099 0.000800464 0)
(0.00181765 0.000915518 0)
(0.00179868 0.000896929 0)
(0.00158518 0.000872002 0)
(0.0014541 0.00105936 0)
(0.00150345 0.00147496 0)
(0.00169747 0.0016793 1.4313e-32)
(0.00180691 0.00166123 -1.58174e-32)
(0.00196568 0.00143969 0)
(0.00197952 0.00102154 0)
(0.00184592 0.000842388 0)
(0.00165581 0.000880939 0)
(0.00163452 0.000912615 0)
(0.00160878 0.000808196 0)
(0.00158297 0.000778922 0)
(0.00169656 0.000691367 0)
(0.00172781 0.000605395 0)
(0.00168535 0.000534441 0)
(0.00170917 0.00044913 0)
(0.0017133 0.000377725 0)
(0.00172091 0.000307664 0)
(0.00172685 0.000243815 0)
(0.00173079 0.000187974 0)
(0.00173236 0.000143145 0)
(0.00173206 0.000107082 0)
(0.00174008 7.83301e-05 0)
(0.00175893 3.07033e-05 -4.59081e-24)
(0.00161256 6.94676e-05 -3.04135e-23)
(0.00163124 0.000211039 -2.81727e-23)
(0.00164923 0.000371662 -1.51306e-23)
(0.00164908 0.000531889 0)
(0.00163323 0.000708173 0)
(0.00161141 0.000915845 0)
(0.0015875 0.00116447 0)
(0.00156102 0.00145769 0)
(0.00154083 0.00179998 0)
(0.00148333 0.00217894 0)
(0.00155283 0.00264607 0)
(0.00153147 0.00310848 0)
(0.00138018 0.00362409 0)
(0.00150696 0.00427638 0)
(0.00156938 0.00473275 0)
(0.00164622 0.00524636 -6.8892e-24)
(0.00160726 0.00578386 8.73881e-24)
(0.00123613 0.00646874 -5.79785e-24)
(0.00113887 0.00729126 6.9421e-23)
(0.00143927 0.00795193 -1.66045e-22)
(0.00195977 0.00797938 2.18333e-22)
(0.0022979 0.00734555 -1.2067e-22)
(0.00223191 0.00649946 3.87969e-24)
(0.00184219 0.00577747 -3.17677e-24)
(0.00178138 0.00523844 1.96392e-24)
(0.00189492 0.00475876 0)
(0.00198044 0.0043329 0)
(0.00209038 0.00370735 0)
(0.00196992 0.00320328 0)
(0.00194216 0.00275178 0)
(0.00200364 0.00228842 0)
(0.00194532 0.001905 0)
(0.00192737 0.00155163 0)
(0.00189894 0.00124613 0)
(0.00187312 0.000983877 0)
(0.00185077 0.000762172 0)
(0.00183346 0.0005729 0)
(0.00183198 0.000400666 0)
(0.00184828 0.000228225 0)
(0.00186488 7.57544e-05 0)
(0.00137704 0.000106895 0)
(0.00137672 0.000363874 0)
(0.00136109 0.000646644 0)
(0.00132509 0.000978432 0)
(0.00126335 0.00136528 -2.77822e-23)
(0.00117838 0.00182101 0)
(0.00106798 0.00236607 0)
(0.000933213 0.00302116 0)
(0.000771362 0.00379537 0)
(0.000650609 0.00473238 0)
(0.000419012 0.00575364 0)
(0.000271568 0.00695836 0)
(0.000328689 0.00830717 1.50482e-24)
(0.000113061 0.00959026 3.79837e-23)
(0.000324214 0.0112229 9.21511e-23)
(0.000244362 0.0128166 3.83303e-22)
(-0.000138809 0.0144718 5.4088e-22)
(-0.000261279 0.0159173 -4.3855e-22)
(8.17871e-05 0.0170174 4.1689e-22)
(0.00103267 0.0176743 -2.83829e-21)
(0.00224337 0.0176901 1.77797e-21)
(0.00326339 0.0170507 8.50019e-22)
(0.00368747 0.0159526 2.874e-22)
(0.00360557 0.0145044 -1.36409e-21)
(0.00321166 0.0128513 3.48361e-22)
(0.00310619 0.0112817 -1.09577e-22)
(0.0033487 0.00968964 1.44203e-23)
(0.00319751 0.0084443 -2.23613e-24)
(0.00323959 0.00712692 0)
(0.00312515 0.00592225 0)
(0.00290263 0.00489143 0)
(0.00277551 0.00394194 0)
(0.00260061 0.00315417 0)
(0.00245637 0.00247998 0)
(0.0023373 0.00191558 0)
(0.00224466 0.0014408 0)
(0.00217727 0.00103473 0)
(0.00213558 0.000684558 0)
(0.00211393 0.000384504 0)
(0.002109 0.000111887 0)
(0.000994409 0.000181174 0)
(0.000956981 0.000514145 0)
(0.000881004 0.000909445 0)
(0.000754403 0.00137728 0)
(0.000570936 0.0019418 0)
(0.000333636 0.00264107 0)
(3.96518e-05 0.00350485 0)
(-0.000314769 0.00456372 0)
(-0.00070941 0.00586184 0)
(-0.00119712 0.00738267 0)
(-0.00157136 0.00925395 -2.55497e-26)
(-0.0018649 0.0114219 1.88468e-22)
(-0.00223487 0.0138368 -3.84399e-23)
(-0.0022631 0.0168017 -6.53788e-22)
(-0.00264298 0.0194019 8.48146e-22)
(-0.00246941 0.0223134 -1.61684e-21)
(-0.00231143 0.0251051 2.30951e-21)
(-0.00190071 0.0272486 8.6511e-22)
(-0.00105547 0.0286614 -2.1811e-21)
(0.000597833 0.0294938 4.73534e-21)
(0.00259361 0.0294592 -4.68058e-21)
(0.00431176 0.0286078 -8.08018e-22)
(0.00527697 0.0272284 2.14207e-21)
(0.005778 0.0251367 -1.63651e-21)
(0.0059534 0.0223798 1.03076e-21)
(0.00618089 0.019515 -9.99848e-22)
(0.00583285 0.0169675 6.14463e-22)
(0.00580304 0.014042 -7.95609e-23)
(0.00550124 0.0116212 -3.85818e-23)
(0.00517701 0.00947341 5.04661e-25)
(0.00479183 0.00759129 0)
(0.00429358 0.00604899 0)
(0.00388904 0.00472122 0)
(0.00351723 0.00363773 0)
(0.00320814 0.00274853 0)
(0.00295624 0.00202668 0)
(0.00276061 0.00144152 0)
(0.0026257 0.000952101 0)
(0.00254271 0.00053688 0)
(0.00250044 0.000189 0)
(0.000513143 0.000141195 0)
(0.000416697 0.000509153 0)
(0.000235414 0.000950532 0)
(-3.63426e-05 0.00148727 0)
(-0.00040356 0.00218326 0)
(-0.000877275 0.00306357 0)
(-0.00146411 0.00417703 0)
(-0.00216071 0.00558432 0)
(-0.00296863 0.0073306 0)
(-0.00378421 0.00954766 -5.72192e-24)
(-0.00465268 0.0123083 -7.14485e-23)
(-0.00576055 0.0155621 3.16487e-22)
(-0.0066778 0.0193413 -5.30714e-22)
(-0.00799786 0.0230933 -9.21258e-22)
(-0.00789585 0.0278937 -3.24032e-22)
(-0.00808591 0.0322315 2.15759e-21)
(-0.00741956 0.036271 -9.5883e-22)
(-0.00564743 0.0395247 2.56578e-21)
(-0.00365726 0.0415554 -3.72222e-21)
(-0.000330233 0.0426103 -7.1596e-23)
(0.00344354 0.0425956 -5.11101e-22)
(0.00679315 0.0414768 7.06321e-22)
(0.00887323 0.0394645 9.54728e-22)
(0.0108082 0.0362811 4.01578e-22)
(0.0115599 0.0323109 -1.10217e-21)
(0.0113808 0.0280789 1.26643e-22)
(0.0115463 0.0233519 4.70558e-22)
(0.0103154 0.0196239 -1.38728e-23)
(0.00937859 0.0158701 4.18831e-22)
(0.00833254 0.0125556 9.80412e-23)
(0.00744691 0.00976949 6.50725e-24)
(0.006601 0.00752368 0)
(0.00576362 0.00575445 0)
(0.00504412 0.00431804 0)
(0.00443538 0.00317696 0)
(0.00394255 0.00227204 0)
(0.00356168 0.00155303 0)
(0.00328049 0.000995252 0)
(0.00309397 0.000528857 0)
(0.00299429 0.000145497 0)
(8.09184e-05 0.000140658 0)
(-9.06236e-05 0.000403 0)
(-0.000415125 0.000697787 0)
(-0.000882978 0.00116767 0)
(-0.00151252 0.00181719 0)
(-0.00231303 0.00271126 0)
(-0.0032967 0.00391759 0)
(-0.00447014 0.00550526 0)
(-0.00579562 0.00759292 1.49399e-23)
(-0.00736922 0.010345 2.55359e-22)
(-0.00949228 0.0138137 -1.7891e-22)
(-0.0117581 0.0181511 -6.77714e-22)
(-0.0137238 0.0232491 4.0551e-22)
(-0.0148313 0.0300059 7.60129e-22)
(-0.0154521 0.0353052 5.19537e-22)
(-0.014218 0.0407407 2.54202e-21)
(-0.0131633 0.0461999 3.24909e-22)
(-0.00936326 0.0498615 -6.32526e-21)
(-0.00579326 0.0518432 1.72298e-22)
(-0.00110864 0.052919 5.94134e-21)
(0.00419517 0.0528548 -7.40052e-21)
(0.00888246 0.0518086 -1.68162e-21)
(0.012536 0.0499476 9.42853e-21)
(0.0164348 0.0463188 -2.66863e-21)
(0.0176735 0.0408735 -2.60538e-22)
(0.0190906 0.0355625 2.59323e-22)
(0.0185561 0.0303648 -1.70004e-21)
(0.0174719 0.0236072 -3.88818e-22)
(0.0155459 0.018442 9.32753e-22)
(0.0131875 0.0141192 -6.10761e-22)
(0.0110496 0.0105791 3.56472e-22)
(0.00944671 0.00778682 -2.25046e-23)
(0.00809701 0.0056684 0)
(0.00689329 0.00405116 0)
(0.00588423 0.00281619 0)
(0.00506383 0.00189644 0)
(0.00442015 0.00122661 0)
(0.00394346 0.00073747 0)
(0.00361281 0.00042989 0)
(0.00343839 0.000146803 0)
(-0.000136638 1.08678e-05 0)
(-0.00038307 1.40205e-05 0)
(-0.000842063 0.000189561 0)
(-0.00153259 0.00041827 0)
(-0.00246218 0.00082992 0)
(-0.00365155 0.00149785 0)
(-0.00512171 0.00250951 0)
(-0.00688012 0.0039801 3.08391e-24)
(-0.00914041 0.00613369 -5.04452e-23)
(-0.0122343 0.00914077 3.23213e-23)
(-0.015907 0.0133766 -1.51182e-21)
(-0.0195319 0.0190583 1.91299e-21)
(-0.022272 0.0259192 1.01907e-21)
(-0.0249922 0.0318076 -1.18193e-21)
(-0.0242981 0.0406252 2.14093e-21)
(-0.0231569 0.0474583 -2.69889e-21)
(-0.0174029 0.0503421 8.77014e-22)
(-0.0137681 0.0548751 -8.18184e-21)
(-0.00888097 0.0578927 -2.55065e-21)
(-0.00282754 0.0595911 6.55533e-21)
(0.00418574 0.0592562 8.22049e-21)
(0.00978618 0.0574754 8.6786e-22)
(0.0144003 0.0554408 -2.146e-21)
(0.0184438 0.0512496 -7.03653e-21)
(0.0266524 0.0478336 3.05185e-21)
(0.0279666 0.0410854 -2.61921e-21)
(0.0287185 0.0322575 1.7478e-21)
(0.0260402 0.0263724 -9.73712e-22)
(0.0233387 0.0194517 -6.42071e-22)
(0.0197318 0.0136447 1.63153e-22)
(0.0158632 0.00935584 6.48637e-24)
(0.012754 0.00634094 7.52391e-23)
(0.0104974 0.00415892 3.26266e-24)
(0.00871716 0.00264959 0)
(0.00722367 0.00160348 0)
(0.00601554 0.000911416 0)
(0.00507446 0.000481891 0)
(0.00437577 0.000235892 0)
(0.00391145 3.92686e-05 0)
(0.00366222 2.28209e-05 0)
(5.29445e-05 -0.000264192 0)
(-0.000262231 -0.00056246 0)
(-0.000858359 -0.000931789 0)
(-0.00175699 -0.00109951 0)
(-0.00298255 -0.00108682 0)
(-0.00456872 -0.000853829 0)
(-0.00654345 -0.000325354 0)
(-0.00910072 0.000686473 -1.73086e-23)
(-0.0130315 0.00259958 -1.53382e-22)
(-0.0180305 0.00596931 -1.54113e-22)
(-0.0234218 0.0110271 7.11789e-22)
(-0.0284827 0.0173715 -1.78815e-21)
(-0.0325559 0.024711 2.30733e-21)
(-0.0320028 0.0336464 3.93588e-23)
(-0.031248 0.0408345 1.43888e-21)
(-0.0320625 0.0464731 1.1983e-21)
(-0.0278348 0.0539051 5.84186e-22)
(-0.0205316 0.0594199 4.92389e-21)
(-0.0133064 0.063999 4.49025e-21)
(-0.00547046 0.066783 -8.54715e-22)
(0.00437222 0.0670164 -5.23094e-21)
(0.0122634 0.064791 9.26525e-21)
(0.0199927 0.0613579 1.02101e-21)
(0.0265535 0.0563494 9.73926e-21)
(0.0335197 0.0511473 -1.10826e-21)
(0.035397 0.0434003 1.29421e-21)
(0.0352893 0.0356483 2.22635e-21)
(0.0363678 0.0251391 -9.95789e-22)
(0.0323308 0.0177539 1.09952e-21)
(0.0272925 0.0112789 6.12491e-22)
(0.021564 0.00614178 -3.13542e-22)
(0.0165778 0.00277205 1.95037e-22)
(0.0127059 0.000851909 -4.23623e-23)
(0.0101283 -0.000202848 0)
(0.00813187 -0.000761719 0)
(0.00653064 -0.00101512 0)
(0.00529604 -0.00104766 0)
(0.00439083 -0.000891737 0)
(0.0037891 -0.000543467 0)
(0.00347233 -0.000260757 0)
(0.000846045 -0.000290565 0)
(0.000477828 -0.00125782 0)
(-0.000225598 -0.00205792 0)
(-0.00128242 -0.00285361 0)
(-0.00273496 -0.00357678 0)
(-0.00463085 -0.00414435 0)
(-0.00705511 -0.00445228 9.67383e-24)
(-0.0108704 -0.00416981 -1.79316e-23)
(-0.0170607 -0.0025394 -5.00532e-23)
(-0.0242333 0.00106133 2.36848e-22)
(-0.0316374 0.00644389 -1.61359e-22)
(-0.0384799 0.0133239 4.15647e-22)
(-0.0442329 0.021269 1.54211e-22)
(-0.0439134 0.0297953 -2.28656e-22)
(-0.0445933 0.0375345 -2.09475e-21)
(-0.0427425 0.0438058 9.41391e-22)
(-0.0360926 0.0528502 -3.08048e-21)
(-0.0294182 0.0609441 -1.62677e-21)
(-0.0198157 0.0669281 1.88563e-22)
(-0.00987857 0.0719179 3.70748e-21)
(0.00357804 0.0729125 -1.18483e-21)
(0.0151262 0.0702394 -1.04781e-20)
(0.025142 0.065175 -2.70868e-21)
(0.0349311 0.058653 1.46105e-22)
(0.0410709 0.0509728 -3.67259e-21)
(0.0477128 0.0409754 -1.29217e-21)
(0.0472011 0.0331878 1.76272e-21)
(0.0478689 0.0218502 4.94156e-23)
(0.0422576 0.0136303 4.3628e-22)
(0.035501 0.00666783 -2.68165e-22)
(0.0276464 0.00122397 -1.36685e-22)
(0.0204662 -0.00235055 1.06734e-22)
(0.0144758 -0.0040153 -1.63379e-22)
(0.0106189 -0.00435262 -2.52176e-23)
(0.00817222 -0.00407272 0)
(0.00626494 -0.00352218 0)
(0.00480587 -0.00281187 0)
(0.00374491 -0.00203454 0)
(0.00304016 -0.00123124 0)
(0.0026704 -0.000282202 0)
(0.00237081 -0.000929851 0)
(0.0020091 -0.00228733 0)
(0.00128817 -0.00372795 0)
(0.000184258 -0.00521972 0)
(-0.00136394 -0.00670715 0)
(-0.00342532 -0.00817208 0)
(-0.00632452 -0.00951562 2.00177e-23)
(-0.0119373 -0.0101476 -4.12055e-23)
(-0.0207547 -0.00887079 -4.11708e-23)
(-0.030315 -0.00552648 2.06473e-22)
(-0.0398677 -0.000931713 -1.19239e-22)
(-0.048759 0.00477175 -2.86696e-22)
(-0.056199 0.0123499 2.4078e-22)
(-0.0558267 0.0208417 -2.1717e-22)
(-0.0568636 0.0290806 -6.66379e-22)
(-0.0541427 0.0381712 4.40087e-22)
(-0.0486529 0.0474297 -4.45337e-22)
(-0.0423054 0.0577443 -1.28489e-21)
(-0.0321128 0.0692389 4.10702e-21)
(-0.0180001 0.0791829 -1.21671e-21)
(0.0023668 0.0830362 -9.34685e-22)
(0.0223456 0.0787654 2.20673e-22)
(0.036293 0.0687582 -5.72472e-22)
(0.0461117 0.0572724 3.86421e-22)
(0.0539758 0.0457365 4.28858e-22)
(0.0598812 0.0349027 1.91897e-21)
(0.0592473 0.0246029 -9.3812e-23)
(0.0597447 0.0130651 1.38806e-22)
(0.0522653 0.00518399 -3.44247e-22)
(0.043735 -0.000706553 2.71836e-22)
(0.0336079 -0.00541473 -1.03421e-22)
(0.0239757 -0.00874145 -7.30828e-23)
(0.0155462 -0.0100033 1.17983e-22)
(0.00987346 -0.00943695 -5.73686e-23)
(0.00694015 -0.00811583 0)
(0.00487859 -0.00665127 0)
(0.00333013 -0.00516875 0)
(0.00222321 -0.0036905 0)
(0.00149811 -0.00227602 0)
(0.00113884 -0.000928337 0)
(0.00470055 -0.000838523 0)
(0.00434676 -0.00299122 0)
(0.00374414 -0.00524672 0)
(0.0027356 -0.00751813 0)
(0.00130876 -0.00994038 0)
(-0.000682848 -0.0125108 0)
(-0.00417416 -0.0150585 3.22211e-24)
(-0.0120499 -0.0165994 1.00822e-23)
(-0.0234198 -0.0162466 -7.97521e-24)
(-0.035232 -0.0141932 1.72526e-23)
(-0.046828 -0.0110868 -8.04703e-23)
(-0.0575244 -0.00716694 1.82048e-22)
(-0.0653747 -0.00227109 -1.89794e-22)
(-0.0669252 0.00728281 -1.20363e-23)
(-0.0695387 0.0144398 -5.05005e-22)
(-0.0679238 0.0244265 -5.62769e-23)
(-0.0651307 0.0352679 -1.71543e-22)
(-0.0622394 0.0498846 1.52617e-22)
(-0.0553928 0.0704634 -1.31166e-21)
(-0.036642 0.0966189 -3.83855e-20)
(0.001624 0.108751 1.84436e-20)
(0.0401159 0.0967301 -4.86644e-20)
(0.0588394 0.0704499 7.13198e-22)
(0.0660182 0.0492456 8.41536e-24)
(0.0698273 0.0328048 -1.92904e-23)
(0.0731315 0.0187776 2.63304e-22)
(0.0717911 0.0115848 1.85748e-23)
(0.0689024 -0.00169799 2.33679e-22)
(0.0606636 -0.00692722 -7.28453e-23)
(0.0507214 -0.0107522 -5.72334e-23)
(0.0385196 -0.0139894 -5.0179e-23)
(0.0265411 -0.0161126 7.52943e-23)
(0.0156195 -0.016496 8.34101e-24)
(0.00769953 -0.0150048 -1.64694e-23)
(0.00416582 -0.0124745 0)
(0.00218256 -0.00990124 0)
(0.000760877 -0.00749003 0)
(-0.000237706 -0.00521613 0)
(-0.00083946 -0.00297078 0)
(-0.00118883 -0.000816025 0)
(0.00781862 -0.00139058 0)
(0.00760509 -0.00394241 0)
(0.00705708 -0.0065423 0)
(0.00629429 -0.00949047 0)
(0.00523272 -0.012795 0)
(0.00363567 -0.0165265 0)
(-0.000610562 -0.0202774 -6.40219e-24)
(-0.0107414 -0.0229292 2.76273e-23)
(-0.0241582 -0.024129 7.43458e-23)
(-0.0375481 -0.0244991 1.42031e-22)
(-0.050879 -0.0240533 2.74947e-22)
(-0.0636675 -0.0224914 4.00003e-22)
(-0.0732682 -0.0210143 -9.31262e-22)
(-0.0755399 -0.0119506 -8.76542e-23)
(-0.0817436 -0.00454632 2.68561e-22)
(-0.0811668 0.00552612 -3.597e-22)
(-0.0817023 0.0163219 1.76458e-22)
(-0.0864719 0.0298614 -1.34153e-22)
(-0.0868387 0.0523757 1.14066e-20)
(0.0996783 0.0575772 6.42183e-20)
(0.090077 0.0298394 6.16771e-23)
(0.0861066 0.0143614 7.43565e-23)
(0.0861507 -0.000459301 9.27454e-23)
(0.083339 -0.00705582 -3.17109e-23)
(0.0768059 -0.0206706 6.82688e-22)
(0.0667833 -0.0222259 -2.72749e-22)
(0.0547921 -0.0236443 -2.24766e-22)
(0.0409546 -0.0241969 -1.28024e-22)
(0.0272925 -0.023977 -6.71831e-23)
(0.0143427 -0.0228098 -2.90421e-23)
(0.00415475 -0.0201949 5.58463e-24)
(-0.000129992 -0.0164589 0)
(-0.00172499 -0.0127381 0)
(-0.00278359 -0.00945241 0)
(-0.00354388 -0.00652459 0)
(-0.00407614 -0.00391996 0)
(-0.00428874 -0.00140326 0)
(0.0115854 -0.00144454 0)
(0.0115416 -0.00440295 0)
(0.0114792 -0.00764489 0)
(0.0112315 -0.0110965 0)
(0.0106966 -0.0150209 0)
(0.00960885 -0.0196551 0)
(0.00467585 -0.0245253 -1.06946e-23)
(-0.00728498 -0.0285852 9.93772e-24)
(-0.0218615 -0.032128 3.37516e-24)
(-0.0359233 -0.035905 1.10856e-22)
(-0.0496289 -0.0398819 -2.23855e-22)
(-0.063948 -0.0429201 -5.71941e-23)
(-0.0763493 -0.0459374 1.25432e-21)
(-0.0834249 -0.0368147 5.37459e-22)
(-0.0935304 -0.0301216 1.14277e-20)
(-0.0964678 -0.0168659 -4.11355e-22)
(-0.0963287 -0.00484393 -5.59973e-24)
(-0.10543 0.00517457 1.55713e-22)
(0.00582466 0.00784483 3.90843e-19)
(-0.0113861 0.00993592 1.45398e-20)
(0.106189 0.00497816 -4.51595e-23)
(0.101463 -0.00717594 1.1634e-22)
(0.10091 -0.0248864 4.83685e-21)
(0.0937914 -0.0337646 7.32852e-21)
(0.0802528 -0.0456914 8.61543e-22)
(0.0673008 -0.0425925 -5.6433e-23)
(0.0537285 -0.0394666 -9.64092e-23)
(0.0395951 -0.035557 3.40031e-23)
(0.0252243 -0.0319436 -2.5365e-23)
(0.0109251 -0.0284713 1.27065e-24)
(-0.0010637 -0.0244135 7.80848e-24)
(-0.00602578 -0.019559 0)
(-0.0071236 -0.0149439 0)
(-0.00765627 -0.0110379 0)
(-0.00791333 -0.00760758 0)
(-0.00799274 -0.004391 0)
(-0.00803991 -0.00144634 0)
(0.0154629 -0.00132799 -6.36014e-25)
(0.0156577 -0.00442473 0)
(0.0160235 -0.00774007 0)
(0.0164036 -0.0115241 0)
(0.0167351 -0.0158939 0)
(0.0165737 -0.0211237 0)
(0.0114708 -0.0269455 4.25311e-24)
(-0.00101055 -0.0328422 -3.65488e-23)
(-0.0148981 -0.0394494 7.63195e-23)
(-0.0279808 -0.0475477 -3.04373e-22)
(-0.040843 -0.0573338 3.2601e-22)
(-0.0553091 -0.06736 -2.11389e-22)
(-0.0708647 -0.0779654 -1.38866e-22)
(-0.0871647 -0.0710745 3.66287e-22)
(-0.106597 -0.0660027 4.64957e-22)
(-0.118812 -0.0441996 2.06269e-21)
(-0.121938 -0.0162023 2.86136e-22)
(-0.184816 0.0304507 -4.17628e-22)
(0.0651238 0.084736 2.68678e-21)
(-0.0354777 0.0810863 9.97242e-21)
(0.157679 0.021129 7.87894e-22)
(0.13033 -0.0229203 -1.43386e-21)
(0.122129 -0.0589561 -8.75039e-22)
(0.102326 -0.0701456 -7.00623e-22)
(0.075611 -0.0780598 5.98187e-24)
(0.0593939 -0.0671925 -5.35544e-22)
(0.0453235 -0.0570703 6.33577e-22)
(0.0321025 -0.0472423 -8.14781e-23)
(0.0187004 -0.0392747 9.25426e-23)
(0.00492333 -0.0327618 1.54813e-23)
(-0.00769355 -0.0268347 -1.50499e-23)
(-0.0128724 -0.0210378 0)
(-0.0130641 -0.0158198 0)
(-0.0127479 -0.0114617 0)
(-0.0123734 -0.00767948 0)
(-0.0120141 -0.00437631 0)
(-0.0118026 -0.00126167 0)
(0.0200566 -0.00163117 -9.47641e-26)
(0.020337 -0.00434073 0)
(0.0210527 -0.00729094 0)
(0.0220999 -0.0107799 0)
(0.0233931 -0.0149563 0)
(0.0243234 -0.0202055 0)
(0.0202348 -0.0267468 -8.37984e-25)
(0.00922735 -0.0345397 4.79111e-23)
(-0.00194802 -0.0445359 -3.02523e-22)
(-0.0121213 -0.0575441 6.63388e-22)
(-0.0225726 -0.0741584 -3.12702e-22)
(-0.0350807 -0.0933798 -1.17785e-22)
(-0.0527184 -0.116989 3.03481e-22)
(-0.0802069 -0.118329 -1.20562e-21)
(-0.115793 -0.126171 4.76775e-22)
(-0.158555 -0.100614 -4.17751e-21)
(-0.203404 -0.0447087 2.87571e-21)
(-0.393273 0.113732 -8.65766e-22)
(-0.326941 0.511894 6.72724e-22)
(-0.49856 1.12195 1.74257e-21)
(0.0186952 1.39909 2.48798e-22)
(0.527719 1.05444 1.78976e-21)
(0.326236 0.442182 1.19262e-21)
(0.344977 0.0851508 -1.78496e-22)
(0.205534 -0.0664406 -3.56318e-23)
(0.147471 -0.124277 -3.13391e-21)
(0.101318 -0.123697 -3.96918e-22)
(0.0579582 -0.11756 1.35683e-21)
(0.0398984 -0.0937548 -4.75164e-22)
(0.0271188 -0.0743484 -2.21958e-22)
(0.0166683 -0.0574289 3.31228e-23)
(0.00620807 -0.0445039 -8.84065e-23)
(-0.00506328 -0.0345661 -9.15272e-27)
(-0.0162509 -0.0267122 2.13142e-23)
(-0.0204552 -0.0201805 0)
(-0.0195965 -0.0149275 0)
(-0.0183427 -0.0107669 0)
(-0.0173084 -0.0072953 0)
(-0.01659 -0.00435846 0)
(-0.0163221 -0.00168707 0)
(0.0234404 -0.000927647 -5.2175e-23)
(0.0242693 -0.00307674 0)
(0.0254031 -0.00560141 0)
(0.0271645 -0.00845007 0)
(0.0295881 -0.0119612 0)
(0.0321249 -0.0164373 0)
(0.0307564 -0.022611 -2.65736e-25)
(0.0232185 -0.0314896 -7.83808e-23)
(0.0167047 -0.0443579 2.61853e-22)
(0.0119019 -0.0618759 -1.69273e-22)
(0.0071746 -0.0852236 -8.07026e-24)
(0.00124051 -0.115161 -4.59812e-22)
(-0.0108755 -0.155138 9.91084e-22)
(-0.0449569 -0.18088 -1.61782e-21)
(-0.0952618 -0.21962 -3.88494e-22)
(-0.185317 -0.254348 9.28091e-22)
(-0.32822 -0.229742 -7.68906e-21)
(-0.908993 -0.0746482 -6.38905e-21)
(-1.31059 0.451823 2.40928e-21)
(-1.14099 0.93826 -2.22777e-20)
(0.183337 1.05437 -4.08484e-21)
(1.2954 0.873156 3.13518e-22)
(1.27451 0.297949 2.08082e-21)
(0.699789 -0.137925 -3.3967e-21)
(0.282487 -0.235302 7.51475e-21)
(0.139865 -0.241459 1.41433e-21)
(0.0727296 -0.19562 -2.45322e-21)
(0.0157923 -0.156186 2.33294e-21)
(0.00344337 -0.115988 -8.6604e-22)
(-0.00297653 -0.0858413 -2.42105e-22)
(-0.00733784 -0.0620853 5.2834e-22)
(-0.0122 -0.0445711 -3.83549e-22)
(-0.0190543 -0.0316751 1.71267e-23)
(-0.0267021 -0.0226747 7.34626e-25)
(-0.0281671 -0.0164785 0)
(-0.0256931 -0.01198 0)
(-0.0233228 -0.00847695 0)
(-0.021605 -0.00563109 0)
(-0.0205097 -0.00308626 0)
(-0.0197118 -0.000918631 5.47847e-23)
(0.0250749 -0.000205041 1.34285e-22)
(0.0262275 -0.00115487 0)
(0.027944 -0.00232591 0)
(0.0305473 -0.00386982 0)
(0.0342331 -0.00601339 0)
(0.038636 -0.00887646 0)
(0.0408851 -0.0136285 0)
(0.0390042 -0.0223477 -1.36625e-23)
(0.0389575 -0.0361872 -6.94798e-23)
(0.0424039 -0.0561121 -9.77947e-23)
(0.0481113 -0.0838009 -1.72632e-22)
(0.0552097 -0.121344 8.54879e-22)
(0.0596582 -0.171865 -1.61307e-21)
(0.0536993 -0.253972 7.45388e-22)
(-0.00263491 -0.316628 1.8782e-21)
(-0.0727875 -0.429338 2.08127e-21)
(-0.261507 -0.540767 2.21367e-21)
(-1.11413 -0.620793 -6.01131e-20)
(-1.81374 -0.643051 1.30092e-20)
(-1.27769 -0.706592 6.00253e-21)
(0.178399 -0.748503 8.15152e-21)
(1.51119 -0.66922 2.06128e-20)
(1.76698 -0.616824 2.3349e-21)
(0.84273 -0.607789 4.81375e-20)
(0.149626 -0.514972 8.2699e-22)
(0.0384548 -0.37105 -3.46924e-21)
(-0.0496546 -0.256586 -1.61605e-21)
(-0.0555974 -0.173206 9.22646e-22)
(-0.0511334 -0.12232 -4.78955e-22)
(-0.0445532 -0.0845966 1.02315e-22)
(-0.0381918 -0.0565498 -4.45942e-23)
(-0.0345723 -0.0366003 1.20051e-22)
(-0.0350545 -0.0226659 3.7628e-23)
(-0.0369278 -0.013744 0)
(-0.0347089 -0.00894967 0)
(-0.0303315 -0.00604303 0)
(-0.0266842 -0.00388219 0)
(-0.024117 -0.0023109 0)
(-0.0224257 -0.00112178 0)
(-0.0212737 -0.000167493 1.34983e-22)
(0.0250931 0.00027766 -5.51766e-24)
(0.0263982 0.000875935 0)
(0.0285533 0.00153946 0)
(0.0317871 0.00190079 0)
(0.0364036 0.00185846 0)
(0.0424435 0.00141922 0)
(0.0486047 -0.000538356 0)
(0.0537746 -0.00674269 0)
(0.0619209 -0.0185199 1.42268e-23)
(0.0746421 -0.0362679 9.08257e-23)
(0.0931677 -0.0616672 -3.82185e-23)
(0.118675 -0.0981538 -6.76851e-23)
(0.149379 -0.146743 -1.01576e-21)
(0.185657 -0.229872 1.24846e-21)
(0.162689 -0.337416 1.34287e-22)
(0.173188 -0.497153 3.64791e-21)
(0.0306972 -0.717768 -1.85197e-21)
(-0.798899 -0.976568 4.19322e-21)
(-1.30831 -1.51361 4.09019e-21)
(-0.914721 -2.05749 9.15528e-22)
(0.114022 -2.24315 1.07967e-20)
(1.06737 -1.95455 -8.49869e-21)
(1.28962 -1.37383 4.67145e-21)
(0.599036 -0.906279 -5.47906e-20)
(-0.146834 -0.627255 5.44501e-22)
(-0.166901 -0.413214 -2.05478e-21)
(-0.183736 -0.231846 -2.82941e-22)
(-0.146592 -0.147962 5.8012e-22)
(-0.115267 -0.0989425 -6.58551e-23)
(-0.090152 -0.0623088 2.09501e-23)
(-0.0708069 -0.0366898 -2.93199e-23)
(-0.0577766 -0.0188794 -2.96598e-23)
(-0.0500692 -0.00699885 0)
(-0.0448153 -0.000641928 0)
(-0.0386071 0.00134262 0)
(-0.0325576 0.00183428 0)
(-0.0279535 0.00189859 -4.38555e-23)
(-0.0247269 0.00155478 -6.06493e-23)
(-0.0225736 0.000887433 -3.61658e-23)
(-0.0212608 0.00027682 0)
(0.0235632 0.000911777 0)
(0.0248166 0.00311325 0)
(0.0270187 0.00557622 0)
(0.0303856 0.00807377 0)
(0.0353007 0.0106203 0)
(0.0422918 0.0133118 0)
(0.0517601 0.0154281 0)
(0.0634008 0.0143236 0)
(0.0792875 0.00878299 1.8302e-26)
(0.100725 -0.000970022 4.81472e-24)
(0.130892 -0.0156263 -1.48977e-23)
(0.174042 -0.0384155 -1.30849e-22)
(0.232085 -0.069892 -3.37399e-22)
(0.308878 -0.119637 -8.14306e-22)
(0.347523 -0.236928 -3.96619e-21)
(0.458107 -0.377488 -6.99905e-22)
(0.369609 -0.602803 -3.9932e-21)
(-0.121604 -0.956899 -3.50197e-21)
(-0.379014 -1.58721 -1.33762e-21)
(-0.296858 -2.16664 3.1716e-21)
(0.0393038 -2.37452 4.50251e-21)
(0.346859 -2.08497 1.10435e-20)
(0.365627 -1.46975 2.7033e-21)
(0.0293124 -0.860705 2.43005e-22)
(-0.484889 -0.490228 1.37693e-22)
(-0.404475 -0.300481 7.32149e-22)
(-0.308853 -0.118871 7.06711e-22)
(-0.230105 -0.0699227 -1.01099e-22)
(-0.171058 -0.0383991 1.75108e-22)
(-0.12811 -0.015765 1.52953e-23)
(-0.0971341 -0.0011425 1.89774e-24)
(-0.0753361 0.00867193 -2.89172e-26)
(-0.0598401 0.0142381 0)
(-0.0480751 0.0153778 0)
(-0.038532 0.0132454 0)
(-0.0315126 0.0105856 0)
(-0.0265919 0.00804772 0)
(-0.0232199 0.00555284 0)
(-0.0210126 0.00308812 0)
(-0.0197561 0.00089301 6.51351e-24)
(0.0201393 0.00164831 0)
(0.0209887 0.00535572 0)
(0.0227653 0.00942444 0)
(0.0256462 0.0139614 0)
(0.0300014 0.0191818 0)
(0.0367835 0.0253026 0)
(0.047835 0.0321837 0)
(0.0635186 0.0380037 0)
(0.0839567 0.0420464 0)
(0.110111 0.0453307 0)
(0.146175 0.0486482 -5.29671e-25)
(0.197967 0.0512528 5.93138e-23)
(0.272348 0.0511531 -2.44118e-22)
(0.377046 0.0534449 3.20547e-22)
(0.475044 -0.0291056 -1.58882e-20)
(0.650048 -0.0955262 5.1118e-22)
(0.674194 -0.2665 -4.61168e-21)
(0.546124 -0.575303 4.4613e-21)
(0.378084 -0.99888 -2.22474e-21)
(0.193207 -1.3545 7.16557e-21)
(-0.0108375 -1.47693 -9.08732e-21)
(-0.215074 -1.29891 -2.24575e-20)
(-0.408651 -0.913811 2.77152e-22)
(-0.593071 -0.49195 -1.14452e-21)
(-0.727669 -0.148134 3.32784e-21)
(-0.562379 -0.0522457 -7.66584e-22)
(-0.376158 0.0571486 1.45151e-23)
(-0.269647 0.0528787 -1.15708e-22)
(-0.194616 0.0522465 -1.01204e-22)
(-0.143114 0.0490821 7.05357e-24)
(-0.106518 0.0454239 0)
(-0.0800799 0.0421728 0)
(-0.059967 0.0380623 0)
(-0.0441754 0.0321775 0)
(-0.0330595 0.0252439 0)
(-0.026253 0.0191225 0)
(-0.0218891 0.0138963 0)
(-0.0190021 0.00936491 0)
(-0.0172205 0.00531095 0)
(-0.0163742 0.00163444 0)
(0.014622 0.00221359 0)
(0.0148728 0.00703433 0)
(0.0157886 0.0123658 0)
(0.0175091 0.0185517 0)
(0.0203073 0.0260173 0)
(0.0253458 0.0351715 0)
(0.0353757 0.0464648 0)
(0.0511583 0.0593324 0)
(0.0709168 0.0739577 0)
(0.0948737 0.0920932 0)
(0.127169 0.115999 0)
(0.173621 0.148629 -1.05794e-24)
(0.243931 0.186987 -4.56235e-23)
(0.349489 0.247884 -3.76439e-23)
(0.493588 0.233025 -4.9332e-21)
(0.711834 0.254165 5.70967e-21)
(0.890236 0.170802 -5.26739e-21)
(0.901796 0.0667285 -1.75658e-23)
(0.740424 -0.0537193 -4.4385e-23)
(0.411305 -0.147628 -6.69771e-21)
(-0.0459108 -0.175066 -7.5459e-21)
(-0.487552 -0.115428 -1.5294e-21)
(-0.792182 -0.00178805 -1.71144e-21)
(-0.930758 0.118426 -3.15865e-21)
(-0.85702 0.264102 -3.73645e-23)
(-0.575863 0.251337 -1.3178e-21)
(-0.34467 0.251562 7.27837e-22)
(-0.239082 0.189175 -3.37935e-23)
(-0.169231 0.149773 6.12075e-24)
(-0.123482 0.116561 0)
(-0.0911202 0.0922328 0)
(-0.0670504 0.0741574 0)
(-0.0475305 0.0594294 0)
(-0.0316737 0.0464683 0)
(-0.0216089 0.0351246 0)
(-0.0165743 0.0259472 0)
(-0.0137795 0.0184683 0)
(-0.0120641 0.0122922 0)
(-0.0111537 0.00698388 0)
(-0.0109116 0.00219816 0)
(0.00761372 0.0024722 0)
(0.00718245 0.00775309 0)
(0.00695301 0.0136668 0)
(0.00696599 0.0206843 0)
(0.00735326 0.0293394 0)
(0.00915726 0.040247 0)
(0.0154083 0.0543743 0)
(0.0269354 0.0724201 0)
(0.0403276 0.0955201 0)
(0.0546543 0.125932 0)
(0.072897 0.167036 1.96392e-24)
(0.0994519 0.224963 0)
(0.143821 0.298117 0)
(0.22743 0.400554 -1.3024e-21)
(0.391548 0.543071 -3.77768e-21)
(0.64369 0.577877 -8.39718e-21)
(0.844545 0.700877 4.04559e-22)
(0.836804 0.878301 6.96172e-22)
(0.672937 1.0429 2.5344e-21)
(0.340309 1.15535 2.4924e-20)
(-0.12004 1.18213 -9.60234e-21)
(-0.523379 1.12477 7.12631e-21)
(-0.779891 0.993555 9.81247e-23)
(-0.861557 0.813612 7.04576e-23)
(-0.774203 0.639301 -2.85371e-22)
(-0.379134 0.548113 9.65421e-21)
(-0.218063 0.40134 2.34919e-21)
(-0.137153 0.298743 0)
(-0.0941989 0.225252 0)
(-0.0686804 0.167139 5.44057e-24)
(-0.0507809 0.125841 0)
(-0.0365091 0.095588 0)
(-0.0232317 0.0724446 0)
(-0.0116503 0.0543488 0)
(-0.00538509 0.0402116 0)
(-0.0036107 0.0292865 0)
(-0.00324815 0.0206236 0)
(-0.00326288 0.0136137 7.21784e-24)
(-0.00351491 0.00771653 5.17816e-24)
(-0.00395605 0.00245864 0)
(0.000388241 0.00235104 0)
(-0.000681409 0.00726973 0)
(-0.00213588 0.0127991 0)
(-0.00405748 0.0194262 0)
(-0.00656182 0.0277314 0)
(-0.00891594 0.0384114 0)
(-0.00845822 0.0527588 0)
(-0.00462247 0.0724439 0)
(-0.00193285 0.099278 0)
(-0.00261304 0.135638 0)
(-0.00567453 0.185412 -1.80223e-22)
(-0.00936867 0.256666 0)
(-0.0061488 0.352058 0)
(0.0375527 0.477936 5.91307e-21)
(0.163033 0.66901 2.71064e-20)
(0.351909 0.898056 1.00229e-21)
(0.399173 1.21117 0)
(0.376884 1.50417 -3.10347e-22)
(0.284093 1.73401 6.49277e-21)
(0.111061 1.87591 1.49367e-20)
(-0.12524 1.87447 2.15984e-21)
(-0.295335 1.73269 -2.68105e-21)
(-0.382156 1.49942 1.36569e-22)
(-0.394102 1.20469 0)
(-0.335083 0.891506 -1.20757e-21)
(-0.146282 0.66278 -9.06772e-21)
(-0.0270663 0.473902 -5.39168e-21)
(0.0124733 0.350051 0)
(0.0143527 0.255648 0)
(0.00984791 0.184821 2.56563e-22)
(0.0063742 0.135211 0)
(0.00558859 0.0991198 0)
(0.00832707 0.0723394 0)
(0.0122126 0.0526725 0)
(0.0126818 0.0383677 0)
(0.0102964 0.0276991 -1.30581e-23)
(0.00776501 0.0194116 1.69688e-23)
(0.00581698 0.0127993 0)
(0.00433854 0.00727365 0)
(0.00325724 0.00235907 3.9876e-23)
(-0.00570724 0.00181393 0)
(-0.00726744 0.00551977 0)
(-0.00976951 0.00963011 0)
(-0.0134511 0.0145701 0)
(-0.0186618 0.0208252 0)
(-0.0251431 0.0290368 0)
(-0.0311077 0.0405246 6.42076e-24)
(-0.0364584 0.0574455 0)
(-0.0461333 0.0818077 0)
(-0.0635005 0.115554 0)
(-0.0900598 0.161996 0)
(-0.127297 0.228136 0)
(-0.171642 0.319768 0)
(-0.184854 0.441641 -3.80832e-21)
(-0.138215 0.625874 -1.61333e-22)
(-0.0521455 0.867625 -4.15081e-23)
(-0.0232872 1.1714 0)
(0.012968 1.43411 0)
(0.019987 1.64397 5.87121e-21)
(0.0132547 1.76349 3.38134e-20)
(-0.0172208 1.7599 2.57704e-20)
(-0.0221898 1.63291 -6.93071e-21)
(-0.011009 1.41587 0)