/*--------------------------------*- C++ -*----------------------------------*\
| =========                 |                                                 |
| \\      /  F ield         | OpenFOAM: The Open Source CFD Toolbox           |
|  \\    /   O peration     | Version:  v2106                                 |
|   \\  /    A nd           | Website:  www.openfoam.com                      |
|    \\/     M anipulation  |                                                 |
\*---------------------------------------------------------------------------*/
FoamFile
{
    version     2.0;
    format      ascii;
    arch        "LSB;label=32;scalar=64";
    class       volScalarField;
    location    "0";
    object      p;
}
// * * * * * * * * * * * * * * * * * * * * * * * * * * * * * * * * * * * * * //

dimensions      [0 2 -2 0 0 0 0];

internalField   nonuniform List<scalar> 
11644
(
-0.0127823
-0.0133209
-0.0144363
-0.0161758
-0.0187
-0.0220747
-0.0262811
-0.0313054
-0.0370523
-0.0433908
-0.0501193
-0.0569399
-0.0635063
-0.0697494
-0.0753452
-0.0793253
-0.0827884
-0.0878209
-0.0940014
-0.0930234
-0.0927745
-0.0961007
-0.095572
-0.0959994
-0.0943673
-0.0910563
-0.0867196
-0.081217
-0.074727
-0.0677262
-0.0606583
-0.0537777
-0.0472477
-0.0412987
-0.0361424
-0.0318376
-0.0283822
-0.0257521
-0.0239897
-0.0232071
-0.0112092
-0.011717
-0.0129081
-0.0147682
-0.0172499
-0.0204093
-0.0243724
-0.0290947
-0.0346071
-0.0407945
-0.0475845
-0.0547135
-0.061984
-0.0689715
-0.075118
-0.0810483
-0.0871724
-0.091726
-0.0964867
-0.0936293
-0.0984271
-0.101377
-0.0982371
-0.0992543
-0.0970869
-0.0927476
-0.0869752
-0.0803905
-0.0730986
-0.065681
-0.0583271
-0.0512795
-0.0448424
-0.0390946
-0.0340809
-0.0298378
-0.0264181
-0.023838
-0.0221847
-0.0215002
-0.0100958
-0.010263
-0.0111211
-0.012746
-0.0149857
-0.0177634
-0.0211198
-0.0251228
-0.0298327
-0.0352804
-0.0415787
-0.0487062
-0.0567449
-0.0652226
-0.0739511
-0.0826814
-0.0902816
-0.0957494
-0.0996009
-0.0985073
-0.102353
-0.103693
-0.104976
-0.103475
-0.0995047
-0.0938937
-0.0861652
-0.0778379
-0.0696264
-0.0615827
-0.0540685
-0.0471491
-0.0409058
-0.0354025
-0.030584
-0.0265973
-0.0234194
-0.02115
-0.0197
-0.0190015
-0.00850189
-0.00890621
-0.00958273
-0.0105085
-0.011978
-0.0140425
-0.0166245
-0.019805
-0.0237123
-0.0285469
-0.034498
-0.0419781
-0.0508653
-0.0622338
-0.0747555
-0.0855413
-0.0936748
-0.101967
-0.111558
-0.113189
-0.115557
-0.110567
-0.112891
-0.106419
-0.0996359
-0.0919062
-0.0834842
-0.0741259
-0.0650742
-0.0566681
-0.0488851
-0.0420501
-0.0360228
-0.0307526
-0.0263007
-0.0226073
-0.0196428
-0.0173748
-0.0159404
-0.0152178
-0.0057246
-0.00632007
-0.00693863
-0.00790711
-0.00887753
-0.010079
-0.011695
-0.0138765
-0.0168058
-0.0208399
-0.0265349
-0.0344081
-0.0453426
-0.0576967
-0.0724881
-0.0875109
-0.0984226
-0.114823
-0.128076
-0.141526
-0.144432
-0.126143
-0.121295
-0.108274
-0.0994255
-0.0886216
-0.0770595
-0.0673909
-0.0582116
-0.0499155
-0.042394
-0.0355326
-0.0296143
-0.0245805
-0.0204102
-0.0169745
-0.0144397
-0.0125781
-0.011361
-0.0107886
-0.00413028
-0.00363697
-0.00407206
-0.00446196
-0.00515068
-0.00602394
-0.00707992
-0.00845561
-0.010465
-0.01344
-0.018219
-0.025711
-0.0355931
-0.0500486
-0.0693061
-0.0909581
-0.111008
-0.13646
-0.155739
-0.167439
-0.161856
-0.155892
-0.13548
-0.108367
-0.0929583
-0.0792881
-0.0669659
-0.0561169
-0.0478717
-0.0407319
-0.0339896
-0.0276839
-0.0221279
-0.0175366
-0.0137495
-0.0107616
-0.00827972
-0.00653324
-0.00501444
-0.00409311
-0.000254386
-0.00144219
-0.0021314
-0.00259983
-0.00319541
-0.00365941
-0.00429085
-0.00509458
-0.00642735
-0.00920168
-0.0141248
-0.02163
-0.0314237
-0.0399955
-0.0583432
-0.0849888
-0.11823
-0.139993
-0.160373
-0.179186
-0.175361
-0.163948
-0.141408
-0.11393
-0.0783393
-0.0556353
-0.0454639
-0.0414783
-0.0367916
-0.0314518
-0.0258892
-0.020576
-0.0155812
-0.011248
-0.00756573
-0.0045077
-0.00180308
0.000496721
0.00192675
0.00238477
0.000693964
0.00084308
0.000949811
-0.000412316
-0.0012883
-0.00231113
-0.00334138
-0.00449804
-0.00596748
-0.0094383
-0.016233
-0.0241831
-0.0366629
-0.0377683
-0.0610481
-0.0812208
-0.120335
-0.159214
-0.190899
-0.211944
-0.213429
-0.188228
-0.151878
-0.12094
-0.0715961
-0.0464324
-0.0411358
-0.033416
-0.0292112
-0.0251583
-0.0201596
-0.0148038
-0.0095845
-0.00469283
-0.000528595
0.00281942
0.00480402
0.00649763
0.00727225
0.00840087
0.000431626
0.00164897
0.000875394
0.00124276
0.000798885
-0.000663638
-0.00219921
-0.00418319
-0.00752216
-0.013163
-0.0229056
-0.0359786
-0.0476734
-0.0525434
-0.0748879
-0.109346
-0.126895
-0.177634
-0.231688
-0.260054
-0.270734
-0.232221
-0.174133
-0.121207
-0.0804684
-0.0694047
-0.0477049
-0.0347914
-0.028616
-0.0210733
-0.0151565
-0.00952441
-0.00397366
0.00112962
0.00531444
0.00888207
0.0118932
0.0137753
0.0159256
0.016045
0.00810172
0.00550303
0.00344294
0.0024717
0.000790327
-0.000323092
-0.00173408
-0.00379752
-0.00868773
-0.0154952
-0.0244672
-0.0384511
-0.0481244
-0.0454326
-0.0710403
-0.103928
-0.146311
-0.207347
-0.273438
-0.351417
-0.360289
-0.288072
-0.188769
-0.12636
-0.0798954
-0.0514506
-0.0305095
-0.0288037
-0.0213025
-0.0130229
-0.00640307
-0.000922674
0.00450354
0.00944495
0.0136117
0.0166822
0.0197729
0.0214639
0.0231536
0.0239896
0.00630491
0.00651478
0.00904592
0.00794051
0.00687552
0.00534314
0.00301244
-0.00048353
-0.00526402
-0.0105773
-0.0134819
-0.0182486
-0.0196677
-0.0352358
-0.056598
-0.0580267
-0.0852403
-0.149548
-0.266918
-0.463916
-0.522137
-0.278294
-0.107
-0.048346
-0.0241357
-0.0156243
-0.0258948
0.00305857
-5.47618e-05
0.0046164
0.0096408
0.0137394
0.017624
0.0212796
0.0246144
0.0265522
0.0269696
0.0282287
0.0271806
0.0307329
0.00535936
0.00977449
0.00994105
0.0111494
0.0114363
0.0101529
0.00878606
0.00655943
0.00495513
0.00323443
0.00264869
0.00412335
-0.000246969
-0.00062906
0.00107948
-0.00395121
0.00109586
0.029751
0.0829439
0.295035
0.0833818
0.0168427
0.00278181
0.00687087
0.0205009
0.0278722
0.0306845
0.0318893
0.0339594
0.0356306
0.0364351
0.0375106
0.0387067
0.0387533
0.0382248
0.0382222
0.0305571
0.0228001
0.0230571
0.0210049
0.0199863
0.0184557
0.0181607
0.0186489
0.0205519
0.0215568
0.0236891
0.0285942
0.0413308
0.0568917
0.0674291
0.107821
0.116113
0.140157
0.204876
0.277245
0.105736
0.0945709
0.0728649
0.0724411
0.0621462
0.0764832
0.0722748
0.0679943
0.0631627
0.0625406
0.0603332
0.0573572
0.0547879
0.0532019
0.0524578
0.0496301
0.0482939
0.0489275
0.0498175
0.035585
0.0389338
0.0389475
0.0370909
0.0341726
0.0346534
0.0407837
0.0467376
0.0510028
0.0610969
0.07627
0.124165
0.148975
0.190812
0.210995
0.251708
0.281883
0.320604
0.0884527
0.105701
0.125886
0.116008
0.122279
0.159604
0.112413
0.109698
0.101982
0.100782
0.0893811
0.079729
0.0738904
0.0710411
0.0688689
0.0680656
0.0660527
0.0771612
0.0447998
0.0510354
0.0493723
0.0474847
0.0461522
0.0472631
0.0514952
0.0622515
0.0769206
0.0775686
0.0786878
0.129206
0.172198
0.178435
0.233753
0.312161
0.438285
0.506527
0.620037
-0.139921
-0.797528
0.730021
0.417161
0.259485
0.24326
0.236603
0.201021
0.206587
0.158445
0.135287
0.165775
0.140634
0.125206
0.102179
0.0934898
0.0901008
0.0896571
0.0928966
0.0935288
0.0814141
0.0602967
0.0521109
0.0476574
0.0490934
0.0509022
0.0572233
0.0627807
0.0721804
0.0793338
0.0832395
0.0885153
0.100918
0.175228
0.156812
0.253996
0.444431
0.714195
1.02368
0.638186
-1.37563
-1.28353
-0.443916
0.623428
0.539251
0.399243
0.236787
0.214447
0.246874
0.198157
0.187427
0.182833
0.164665
0.147063
0.13097
0.112698
0.102287
0.0950864
0.0897189
0.089932
0.0923082
0.0735423
0.066947
0.067486
0.0703299
0.07257
0.0772899
0.075972
0.0716053
0.0786122
0.0817129
0.0777154
0.0928028
0.0902972
0.141678
0.285782
0.314436
0.559809
0.831
0.689383
0.0285644
-0.715665
0.0896411
0.536295
0.778912
0.401242
0.282417
0.222412
0.226509
0.227626
0.204112
0.185255
0.17055
0.161918
0.14801
0.134548
0.118781
0.106966
0.0978075
0.0897664
0.0936135
0.0788944
0.0829929
0.084181
0.0840857
0.0824568
0.0830435
0.0770073
0.0591339
0.054107
0.0659717
0.0728091
0.0354342
-0.0574124
0.122957
-0.0615086
-0.0302661
0.0988276
-0.0236052
-0.226993
0.865753
1.60115
0.619657
0.00156477
0.392776
0.106156
0.0287074
0.144077
0.184749
0.167406
0.198918
0.179528
0.168601
0.160915
0.149452
0.143713
0.133619
0.124972
0.117649
0.111779
0.116729
0.0768079
0.0774783
0.0790912
0.0794295
0.0789994
0.0797935
0.0782794
0.0624023
0.0429094
0.0178108
0.00749969
-0.0226749
-0.0407096
-0.184253
-0.3637
-0.469818
-0.937402
0.171853
0.282075
0.218121
0.416826
-0.0283793
0.128105
-0.223734
-0.405665
-0.0896623
-0.0524224
0.101456
0.142539
0.152764
0.171247
0.172385
0.152088
0.144041
0.138749
0.134925
0.130011
0.12492
0.120891
0.119677
0.0848036
0.0839879
0.0835791
0.0813108
0.0790377
0.0822491
0.0807929
0.075568
0.0647047
0.0342575
-0.00286769
-0.116233
0.0266112
-0.28956
-0.377382
-0.655971
-0.814393
-1.77411
-0.316289
-0.218099
-0.43907
-0.447687
-1.18461
-1.13345
-0.458352
-0.277304
-0.00136194
0.0949858
0.153732
0.183242
0.182804
0.167534
0.154643
0.143127
0.132624
0.126924
0.120655
0.116258
0.112644
0.109188
0.100522
0.10037
0.100314
0.0986027
0.0948202
0.0891504
0.0849852
0.0795853
0.0749753
0.0548586
0.00772735
0.0145471
-0.0441575
-0.0481863
-0.278843
-0.391922
-0.453022
-0.418415
-1.70981
-1.8614
-1.17233
-1.09723
-0.524336
-0.225505
-0.330189
-0.115345
0.00442686
0.151317
0.17474
0.189805
0.176291
0.161764
0.150754
0.132094
0.1202
0.113777
0.108709
0.107017
0.104631
0.102862
0.112454
0.108851
0.107342
0.108074
0.10876
0.108848
0.104911
0.0975858
0.100896
0.107332
0.121854
0.133671
0.140084
0.0804967
-0.139528
0.176344
-0.157055
-0.829714
-0.682706
-0.453339
-0.542462
-0.712404
-0.118144
0.348968
0.321134
-0.0522399
0.127205
0.267409
0.203257
0.212553
0.174543
0.146085
0.132119
0.118138
0.11011
0.103509
0.0976224
0.0934237
0.0909889
0.0923304
0.112779
0.116569
0.116228
0.117311
0.119203
0.123585
0.132661
0.131527
0.147091
0.156115
0.169961
0.269373
0.348582
0.333662
0.981366
0.349668
0.258225
0.370852
-0.716692
-0.426406
-0.696034
-0.471943
2.26793
0.961638
0.425322
0.313395
0.396634
0.297163
0.23339
0.17467
0.149437
0.130715
0.116823
0.104799
0.0965365
0.088967
0.0846137
0.0830379
0.0836507
0.080463
0.11246
0.116057
0.120406
0.125213
0.129373
0.129741
0.142509
0.149279
0.177534
0.202317
0.243045
0.298845
0.384063
0.260917
0.505675
1.29355
1.55725
0.404178
-1.80511
-4.46516
-0.037032
-0.903366
-0.56401
0.36245
0.371619
0.638955
0.234532
0.154005
0.177239
0.140105
0.120269
0.103996
0.0947045
0.082184
0.076045
0.0741147
0.0731392
0.0711739
0.0680919
0.0651017
0.114591
0.11901
0.121778
0.125328
0.13024
0.136042
0.143193
0.151322
0.166905
0.184069
0.2229
0.214823
0.229359
0.221662
-0.299054
-0.547108
-0.1748
-0.182408
-0.72177
-1.38387
-0.722965
-0.113624
0.166483
0.044731
-0.528635
-0.319406
0.107549
0.124026
0.102477
0.0787063
0.074528
0.0629903
0.0505982
0.0494837
0.0492578
0.0491357
0.0485765
0.0468783
0.0469742
0.0483914
0.1247
0.124089
0.126488
0.129737
0.133859
0.138371
0.144425
0.154213
0.167813
0.182152
0.196078
0.159549
0.0776477
0.0432542
0.165455
-0.0432183
-0.485431
-0.503497
-1.11091
-0.941143
0.384927
-0.157022
-0.563472
-0.546261
0.00345009
0.446009
0.230027
-0.023194
0.0114573
0.00286382
0.0143483
0.0169049
0.0217848
0.0226989
0.0264856
0.0296228
0.0325876
0.0328948
0.0348974
0.037532
0.126073
0.129864
0.130169
0.133614
0.136799
0.140896
0.146281
0.150765
0.15698
0.179066
0.181378
0.144177
0.139046
0.00964148
-0.282322
-0.131838
-0.498432
0.273591
-1.07691
-0.365407
0.0587936
0.323085
0.394016
0.606853
-0.0359009
-0.290573
-0.20016
-0.0159689
-0.0580553
-0.0199542
-0.0262187
-0.0114268
-0.00463089
0.00302465
0.0108248
0.0196844
0.023781
0.0275883
0.0290236
0.0283708
0.131172
0.126593
0.128253
0.131687
0.135721
0.140508
0.145926
0.150974
0.154133
0.166344
0.169448
0.124653
0.118514
0.154435
0.0474629
-0.14563
-0.401939
-0.129488
-0.194351
-0.225198
0.121238
0.0198979
-0.371282
-0.434222
-0.380958
0.00290464
0.0968511
-0.137507
-0.206625
-0.126692
-0.081851
-0.0492769
-0.0291814
-0.0157619
-0.00667725
0.00274812
0.00750081
0.01114
0.0129411
0.017934
0.132454
0.130657
0.131361
0.132145
0.136417
0.141583
0.146674
0.150932
0.152525
0.149565
0.173177
0.174109
0.114375
0.112409
0.158551
0.154099
0.267651
0.243519
0.0589646
0.665633
-1.32214
-0.918642
-0.337229
-0.198929
-0.213583
-0.301687
-0.465237
-0.313402
-0.255125
-0.135413
-0.10647
-0.0696009
-0.0438995
-0.0309698
-0.01818
-0.0109181
-0.00374073
0.00178532
0.00474977
0.00726184
0.129832
0.133629
0.134752
0.136524
0.139829
0.144621
0.152529
0.151935
0.149946
0.150724
0.129849
0.216276
0.261292
0.325647
0.223791
0.168654
0.479408
0.444163
-0.0384378
-0.400899
-0.138041
-0.170754
-0.884439
-0.903711
-0.706121
-0.500641
-0.299302
-0.321102
-0.35428
-0.104851
-0.10322
-0.0825219
-0.056071
-0.0413222
-0.0277143
-0.0173872
-0.00938646
-0.00367042
0.000291616
7.28407e-06
0.128278
0.128828
0.131392
0.135019
0.137743
0.142219
0.147507
0.151943
0.160932
0.169746
0.170632
0.197631
0.208828
0.378105
0.595024
0.839839
0.867884
0.439977
0.00355074
-0.0789222
-0.290648
-0.455777
-0.506311
-0.449699
-0.341659
-0.390439
-0.507933
-0.404279
-0.293512
-0.191603
-0.123354
-0.0860789
-0.0622242
-0.0489227
-0.0346499
-0.0230247
-0.0140732
-0.0080505
-0.00494565
-0.00501603
0.124064
0.128262
0.127799
0.129415
0.130927
0.134302
0.141667
0.144581
0.150437
0.169809
0.207392
0.209652
0.274652
0.272916
0.29896
0.586559
0.872226
0.950772
1.15618
0.890884
0.409805
0.312584
-0.505615
-0.352135
-0.470045
-0.465056
-0.337572
-0.248932
-0.258786
-0.190327
-0.125083
-0.0934358
-0.0649399
-0.0522507
-0.0368718
-0.0235598
-0.014411
-0.0100704
-0.0065017
-0.00211023
0.115019
0.115702
0.118153
0.12155
0.123991
0.127056
0.130952
0.13155
0.133246
0.17226
0.178552
0.190416
0.231108
0.402482
0.582959
0.621713
0.653243
0.766688
0.346529
0.503443
0.442553
0.0668905
-0.298472
-0.193303
-0.183519
-0.226273
-0.286233
-0.272453
-0.171359
-0.1453
-0.075682
-0.0706433
-0.0559601
-0.0429377
-0.0308008
-0.0207101
-0.0117781
-0.00624707
-0.00138695
0.00102488
0.111313
0.108977
0.108587
0.109063
0.110687
0.116201
0.120264
0.123933
0.127951
0.14236
0.16592
0.254815
0.216689
0.13032
0.0851089
0.125022
0.26722
0.232685
0.338603
0.272806
0.118
0.0641429
-0.172245
-0.208183
-0.359762
-0.321288
-0.205622
-0.104531
-0.0881818
-0.081648
-0.0696973
-0.0548865
-0.0446776
-0.0284391
-0.0189857
-0.0107836
-0.00407328
0.00118435
0.00550019
0.00927534
0.109567
0.107511
0.106813
0.109024
0.112243
0.116964
0.121477
0.12644
0.129523
0.145519
0.168238
0.20191
0.249288
0.304668
0.182725
0.00234725
-0.215033
-0.280011
-0.546516
-0.601957
-0.419832
-0.439184
-0.254184
-0.159401
-0.0402756
0.0153535
0.0167774
-0.0142329
-0.00601444
-0.0131624
-0.0318005
-0.0231385
-0.0181432
-0.00819244
-0.000735066
0.00624212
0.0123094
0.0166317
0.020196
0.0240591
0.104757
0.102126
0.104729
0.109025
0.115327
0.12481
0.12719
0.131486
0.135372
0.149701
0.185775
0.211459
0.167579
0.123597
0.109785
0.325796
-0.0538983
-0.111477
-0.351639
-0.698714
-0.402042
-0.468845
0.10044
0.0337527
0.0630493
-0.000698059
0.0450764
0.068421
0.0807252
0.056909
0.0425649
0.0324861
0.0166647
0.0138934
0.0226292
0.0289371
0.0313476
0.0326988
0.0335821
0.0360169
0.0961391
0.10149
0.10233
0.104201
0.106772
0.11251
0.117131
0.123923
0.132447
0.149449
0.185017
0.200406
0.282643
0.376432
0.358463
0.295114
0.202908
0.130818
-0.181556
-0.650318
0.472239
0.141046
0.476921
0.416937
0.568212
0.447399
0.356779
0.259205
0.197001
0.0694214
0.0887904
0.0723833
0.0628803
0.0471789
0.048494
0.0519065
0.0533561
0.0527873
0.0526024
0.0476669
0.0800429
0.0810842
0.085999
0.0909756
0.0959422
0.0998931
0.107037
0.114946
0.132132
0.146875
0.144337
0.158726
0.167421
0.262876
0.450811
0.509691
0.699218
0.544419
0.419391
0.307234
0.933992
0.984282
0.999336
1.0168
0.723771
0.536427
0.318161
0.184635
0.134327
0.130385
0.12811
0.10075
0.0867354
0.0765112
0.0662056
0.0734196
0.0700548
0.0668527
0.0650595
0.0651969
0.0632868
0.0657971
0.0655663
0.0668802
0.0696509
0.0743843
0.0871192
0.0986782
0.104309
0.127365
0.126865
0.119185
0.190518
0.227021
0.305913
0.363978
0.491037
0.607584
0.158966
0.0695326
1.18991
0.859015
0.942895
0.809892
0.626981
0.507088
0.322722
0.319867
0.24664
0.168581
0.152919
0.099546
0.0981392
0.0936691
0.0875001
0.0840326
0.0825535
0.0786616
0.0784473
0.0773391
0.0501252
0.0478086
0.0481635
0.0498995
0.0485818
0.0529977
0.0589021
0.0629251
0.0730765
0.0827112
0.048883
0.034118
-0.0618758
-0.0669684
-0.100255
-0.0811978
-0.102636
-0.139128
-0.12197
0.00752134
-0.2575
-0.122559
0.00285802
0.0706625
0.12555
0.203805
0.19679
0.123574
0.148164
0.161468
0.163622
0.142446
0.122098
0.108842
0.100184
0.0933044
0.0885523
0.0874796
0.0840511
0.0896778
0.0381088
0.0376405
0.0353559
0.0335273
0.0322512
0.0313844
0.0270486
0.0208199
0.0138604
-0.00547217
-0.02354
-0.0821504
-0.206627
-0.376753
-0.584243
-0.779916
-0.928658
-1.0389
-1.18211
-1.34535
-1.14679
-0.95237
-0.769911
-0.533454
-0.355312
-0.194007
0.00273597
0.11789
0.21991
0.216716
0.146992
0.148171
0.135146
0.11819
0.109923
0.102133
0.0987562
0.0992873
0.101617
0.102307
0.0230424
0.023602
0.0236171
0.02244
0.0193911
0.0130069
0.00390973
-0.00624329
-0.0205092
-0.0886556
-0.159009
-0.200008
-0.41517
-0.614395
-0.850587
-1.08002
-1.37113
-1.47803
-1.99153
-2.08492
-1.49801
-1.14806
-0.862368
-0.591422
-0.26592
-0.0518523
0.0907649
0.153979
0.17815
0.209799
0.196774
0.18735
0.168296
0.140004
0.130163
0.122846
0.119343
0.116432
0.113031
0.115775
0.00739189
0.0106454
0.00871115
0.00624599
0.00165722
-0.00534915
-0.0201792
-0.0353648
-0.0850304
-0.14629
-0.198145
-0.282187
-0.482451
-0.685933
-0.878331
-1.02703
-1.30095
-1.2847
-1.43472
-1.55363
-0.852387
-0.609017
-0.127971
0.124131
0.16648
0.212785
0.258181
0.306001
0.333556
0.280651
0.255254
0.207336
0.187551
0.169874
0.14569
0.138591
0.133172
0.130167
0.127594
0.12589
-0.0114916
-0.00531286
-0.00608846
-0.0093236
-0.0170074
-0.0279411
-0.0456509
-0.0653029
-0.120142
-0.184148
-0.278639
-0.362377
-0.447197
-0.567981
-0.646432
-0.728411
-0.827923
-0.7413
-0.616064
-0.290834
0.289324
0.320383
0.745196
0.807005
0.781421
0.732364
0.646824
0.533826
0.387298
0.282766
0.275347
0.22797
0.198862
0.179529
0.160487
0.149802
0.143901
0.140097
0.136173
0.128835
-0.0208202
-0.0211663
-0.0241154
-0.0310165
-0.0419347
-0.0570775
-0.0792856
-0.110269
-0.17792
-0.228612
-0.332858
-0.481149
-0.601583
-0.687807
-0.562642
-0.566815
-0.531877
-0.398689
0.218783
0.408638
1.2613
1.31562
1.20997
1.32085
1.16078
1.01331
0.805465
0.604383
0.46731
0.338908
0.259262
0.209813
0.19264
0.172692
0.155659
0.144618
0.136286
0.133859
0.128852
0.128421
-0.0340752
-0.0333467
-0.0381997
-0.0459348
-0.059403
-0.0801864
-0.110567
-0.134073
-0.209023
-0.289614
-0.416386
-0.512304
-0.641117
-0.818933
-0.885031
-0.919245
-1.15465
-0.896837
-0.342927
0.275945
1.02411
1.11795
1.20313
1.20893
1.16205
1.00154
0.795746
0.564553
0.373512
0.288275
0.21061
0.20641
0.173934
0.151207
0.139118
0.1331
0.128386
0.126625
0.125678
0.127587
-0.0330058
-0.0410444
-0.0476704
-0.0569655
-0.0698964
-0.0901984
-0.120104
-0.157818
-0.220323
-0.318658
-0.425869
-0.60512
-0.816268
-1.02013
-1.20525
-1.36754
-1.47844
-1.36656
-1.03306
-0.685665
-0.10601
0.361743
0.506372
0.628764
0.590415
0.550625
0.3991
0.303987
0.264297
0.231036
0.169277
0.154341
0.140514
0.135435
0.130411
0.127548
0.125329
0.124121
0.123609
0.12639
-0.0263953
-0.0290323
-0.0369289
-0.0462731
-0.0595387
-0.0788442
-0.107693
-0.130492
-0.192845
-0.276178
-0.340555
-0.489895
-0.706399
-0.966113
-1.21736
-1.41771
-1.6072
-1.57895
-1.55175
-1.208
-0.751398
-0.483457
-0.205692
-0.0335542
0.108728
0.139561
0.161435
0.169356
0.163731
0.139947
0.1214
0.12049
0.11974
0.123266
0.12506
0.128384
0.126786
0.127169
0.127945
0.125255
-0.0124076
-0.0163542
-0.0172299
-0.0205083
-0.0273336
-0.0370168
-0.0517567
-0.0791699
-0.104595
-0.165618
-0.225805
-0.332616
-0.450099
-0.567106
-0.696983
-0.813502
-0.91398
-0.947681
-1.01739
-1.04669
-0.612365
-0.437546
-0.217583
-0.154333
0.00893806
-0.0215208
-0.0265739
-0.00524123
0.0521512
0.060794
0.0842871
0.106534
0.113366
0.118813
0.122436
0.125695
0.127022
0.124968
0.123775
0.122025
0.00220489
0.00856189
0.00825944
0.00637477
0.00297888
-0.00105627
-0.00371042
-0.0181474
-0.0206214
-0.0291932
-0.0195873
-0.00999721
-0.0410672
-0.0654841
-0.0583821
-0.0802479
-0.0721399
-0.0656703
-0.0231906
0.0798871
0.317437
0.316682
0.336331
0.279026
0.233562
0.149659
0.0828078
0.0656511
0.06411
0.0658572
0.0669399
0.0893927
0.0972903
0.10897
0.116898
0.119219
0.123135
0.123191
0.123229
0.119247
0.0152606
0.0188951
0.0223409
0.0254803
0.0278786
0.0313375
0.0365815
0.0421581
0.0562397
0.0770717
0.118004
0.202119
0.346611
0.501744
0.620375
0.703723
0.856252
0.868455
0.942024
0.9158
0.989339
0.950485
0.770576
0.552325
0.389596
0.236636
0.137146
0.0666522
0.0017407
0.00372754
0.0389391
0.0652692
0.0873873
0.100093
0.110656
0.112447
0.116427
0.116522
0.114355
0.113016
0.0228177
0.020978
0.0223035
0.0285335
0.0357004
0.0467738
0.0612992
0.0806701
0.12127
0.143339
0.244292
0.369291
0.540468
0.732586
0.859309
0.990837
1.00143
1.02451
1.01595
0.857351
1.00744
0.648031
0.341758
0.105426
0.0840889
0.0445692
0.00899965
-0.0389314
-0.0221096
0.0223765
0.0356323
0.0542891
0.0730825
0.0828217
0.0956204
0.101484
0.106294
0.110112
0.112068
0.108872
0.0330756
0.0289005
0.0305202
0.0326765
0.041635
0.0556777
0.0790078
0.0973758
0.130356
0.185288
0.261305
0.355758
0.475476
0.597616
0.659764
0.722441
0.661522
0.537234
0.322453
0.0119172
-0.320696
-0.528573
-0.675561
-0.730662
-0.6266
-0.469613
-0.30209
-0.165604
-0.0885883
-0.0434442
-0.0161995
0.0457086
0.071286
0.0834226
0.0933307
0.0991901
0.100939
0.102336
0.102656
0.107433
0.0456793
0.0415916
0.0426092
0.0474623
0.0559848
0.067976
0.0870952
0.114213
0.13859
0.197476
0.247773
0.288327
0.293754
0.302457
0.231172
0.147737
-0.143392
-0.363625
-0.790861
-1.17702
-1.35681
-1.60279
-1.45678
-1.20048
-0.963739
-0.678628
-0.470386
-0.286219
-0.135795
-0.0141145
0.0321401
0.0671903
0.0839314
0.0844751
0.0921634
0.0964902
0.0987868
0.103547
0.107002
0.111806
0.0503633
0.0518237
0.0554306
0.0614701
0.0692708
0.0783412
0.0941972
0.130812
0.157975
0.183895
0.185884
0.188601
0.152676
0.110579
-0.00957828
-0.234868
-0.377885
-0.733339
-1.27287
-1.56899
-1.57109
-1.54911
-1.25936
-0.94416
-0.742742
-0.528312
-0.348961
-0.166888
-0.0465686
0.0162127
0.0609781
0.120183
0.112324
0.115197
0.115544
0.117405
0.115978
0.115178
0.114653
0.115666
0.0476506
0.0515912
0.0552862
0.0597897
0.0682401
0.0804284
0.0950574
0.115019
0.140214
0.155371
0.193135
0.181701
0.173118
0.177966
0.181235
0.0985444
0.00232265
-0.187055
-0.495325
-0.731374
-0.860992
-0.776026
-0.514427
-0.280194
-0.18835
-0.0628597
-0.0303591
0.0287299
0.0796298
0.126811
0.163002
0.156878
0.149163
0.142204
0.138164
0.135079
0.129663
0.125482
0.120818
0.118938
0.0381272
0.0443167
0.0475277
0.0523861
0.0591943
0.0692045
0.082739
0.101546
0.11894
0.155298
0.191684
0.236753
0.309841
0.379398
0.461281
0.521696
0.533869
0.606911
0.465523
0.300255
0.299658
0.447586
0.465961
0.470706
0.419291
0.402436
0.340756
0.299317
0.243627
0.210749
0.194959
0.1739
0.169168
0.155608
0.14509
0.138974
0.134378
0.130506
0.126643
0.118699
0.0307861
0.0293509
0.0316113
0.0353854
0.0394444
0.0476668
0.0568179
0.0725038
0.0860968
0.108642
0.13874
0.190797
0.294241
0.391666
0.482046
0.631563
0.568217
0.969948
1.07448
0.819135
0.854529
0.921448
0.878256
0.771017
0.765054
0.675311
0.565942
0.439728
0.320501
0.262129
0.222336
0.176738
0.16571
0.148731
0.140193
0.129566
0.121373
0.115463
0.110862
0.110357
0.0214538
0.0211528
0.0192615
0.0188265
0.0186476
0.0220538
0.0291764
0.0435286
0.0509487
0.0529019
0.100211
0.100419
0.129005
0.130075
0.123782
0.158592
0.136832
0.265236
0.524323
0.341345
0.579982
0.689547
0.675973
0.61028
0.598777
0.518264
0.458918
0.3697
0.305326
0.233917
0.172347
0.1407
0.130337
0.128078
0.11327
0.105261
0.0988045
0.0948112
0.0945387
0.0978256
0.014207
0.00903992
0.00788118
0.00670596
0.00738773
0.00713068
0.00732671
0.00826577
0.00638285
-0.0066329
-0.00741866
-0.020374
-0.0550666
-0.0915314
-0.167008
-0.244073
-0.279771
-0.355044
-0.291141
-0.438624
-0.271393
-0.2135
-0.130202
-0.0106626
0.0449926
0.0636275
0.0964717
0.105258
0.119188
0.122784
0.114588
0.095845
0.107023
0.097855
0.0921311
0.0905719
0.086026
0.0841845
0.084206
0.089083
0.00960575
0.00915122
0.00550825
0.000698944
-0.000506523
-0.00256699
-0.00591654
-0.0136918
0.00618599
-0.00852464
-0.0187257
-0.0469415
-0.0972527
-0.139838
-0.198296
-0.271574
-0.285487
-0.492319
-0.65032
-0.702997
-0.651404
-0.76105
-0.757764
-0.546824
-0.4964
-0.34052
-0.228024
-0.113738
-0.0191986
0.0250896
0.0452798
0.0663644
0.0743379
0.0781937
0.0802923
0.0800688
0.0809097
0.0815702
0.0812185
0.0805089
0.00470399
0.0071969
0.00943459
0.0102712
0.010581
0.00818628
0.011275
0.0130422
0.0149869
0.0113756
0.00886676
0.0259118
0.0421171
0.057665
0.0954082
0.206537
0.224119
0.0809722
-0.207728
-0.444514
-0.528951
-0.566021
-0.53004
-0.51119
-0.483305
-0.399576
-0.309911
-0.236706
-0.12821
-0.0667876
-0.00353636
0.0350641
0.0419529
0.0587636
0.0649952
0.067495
0.0727043
0.070918
0.0683381
0.0654255
0.00375867
0.00856357
0.0109617
0.0114687
0.0141467
0.0130043
0.0176164
0.0284107
0.0360416
0.0656452
0.0852392
0.110928
0.19581
0.298777
0.439504
0.58959
0.684616
0.669772
0.610947
0.450826
0.30614
0.180831
0.093625
-0.0104786
-0.0603437
-0.0977476
-0.121768
-0.108635
-0.0847435
-0.0474452
-0.00550979
0.0107311
0.0248878
0.0345344
0.0422138
0.0463606
0.049886
0.0507127
0.0517672
0.049055
0.000335459
0.00502543
0.00591897
0.00480087
0.00454699
0.00587494
0.011968
0.0232217
0.0403297
0.0720523
0.123366
0.229173
0.378836
0.56857
0.754984
0.948258
1.0749
1.16635
1.15338
1.07117
0.891471
0.731366
0.539654
0.349271
0.209943
0.111129
0.0426151
-0.0110677
-0.0375666
-0.0315913
-0.0260589
-0.00980224
0.00511598
0.0165744
0.025971
0.0285179
0.0290663
0.0288294
0.0300685
0.0291248
-0.00995935
-0.0149471
-0.0149851
-0.0146755
-0.0117819
-0.00741079
-0.000207424
0.0108862
0.0312476
0.0762717
0.139921
0.277005
0.420553
0.577301
0.702261
0.816377
0.950703
1.01205
1.11432
1.18685
1.02643
0.62639
0.341106
0.176094
0.0824187
0.0557795
0.0390085
0.00111654
-0.0230226
-0.015537
-0.0279249
-0.0187843
-0.00980805
-0.000285991
0.00529881
0.00991402
0.0116498
0.0129726
0.0153951
0.0203678
-0.0161036
-0.0241622
-0.0265881
-0.0263177
-0.0240259
-0.0214026
-0.0149278
-0.000472336
-0.00512639
0.036017
0.0819812
0.167768
0.235896
0.306541
0.372624
0.445547
0.52349
0.476962
0.551113
0.482387
0.382473
0.150829
-0.0555886
-0.134458
-0.227516
-0.203462
-0.151078
-0.101524
-0.0560976
-0.0444431
-0.0509449
-0.036501
-0.0203102
-0.0103771
-0.000556319
0.00468624
0.00809713
0.00953061
0.0117349
0.0133115
-0.0173471
-0.0187576
-0.0197183
-0.019849
-0.0196506
-0.021413
-0.021652
-0.0191361
-0.0126917
-0.00315109
0.00611697
0.0102508
-0.00372852
-0.0482638
-0.0826853
-0.133736
-0.133305
-0.128392
-0.168486
-0.0785281
-0.14369
-0.280711
-0.322773
-0.310083
-0.300218
-0.237459
-0.175887
-0.112151
-0.0734394
-0.0632413
-0.0500726
-0.0323296
-0.0236898
-0.0140581
-0.00798125
-0.00104017
0.00531918
0.00828969
0.00959545
0.0100371
-0.0203453
-0.0143486
-0.0127356
-0.0125031
-0.0135765
-0.0160904
-0.0216492
-0.0219293
-0.0290477
-0.0373486
-0.0449877
-0.0518196
-0.119748
-0.225136
-0.254057
-0.290062
-0.335447
-0.311791
-0.31957
-0.416794
-0.294282
-0.150331
-0.0370145
-0.00804705
-0.0125819
-0.0482076
-0.0650604
-0.048435
-0.0265557
-0.0252994
-0.0588612
-0.0364077
-0.0186036
-0.0101678
-0.00410721
0.000201311
0.00433749
0.00628166
0.00670696
0.00200731
-0.0298999
-0.0250613
-0.0221238
-0.0216911
-0.0233993
-0.0241502
-0.0261366
-0.0246399
-0.02213
-0.0235427
-0.0186643
-0.0224943
-0.0136288
-0.00449931
0.0100796
0.0424106
0.0679567
0.122777
0.104897
0.116582
0.163109
0.284851
0.325352
0.29499
0.296453
0.212258
0.130907
0.0730043
0.00952168
-0.0138066
-0.0114377
-0.00850847
-0.0134564
-0.00643463
-0.00359065
-0.0011411
0.000184655
-0.000862377
-0.00316241
-0.00664565
-0.0365663
-0.0382154
-0.0390357
-0.0382911
-0.0370531
-0.0360593
-0.0318269
-0.0197647
0.00261374
0.0367061
0.0787695
0.134485
0.209607
0.300384
0.376609
0.462668
0.648902
0.658056
0.654855
0.699585
0.752137
0.855134
0.81786
0.719214
0.572484
0.405942
0.263958
0.134409
0.0497723
0.0150787
-0.0127154
-0.0195823
-0.0251128
-0.0229244
-0.0201391
-0.0164181
-0.0127024
-0.0101767
-0.00712946
-0.0083223
-0.0405405
-0.0480266
-0.0482795
-0.0462712
-0.0417672
-0.0337198
-0.0208087
-0.0117757
0.0259256
0.0759872
0.140796
0.235538
0.351322
0.498483
0.619634
0.720115
0.843525
0.939871
1.05367
0.993257
0.945984
0.943708
0.776453
0.674529
0.507772
0.40918
0.286796
0.169331
0.0726112
0.0207544
-0.000670677
-0.0172508
-0.0304988
-0.0300946
-0.0268808
-0.0266631
-0.0254701
-0.0238871
-0.0212353
-0.0134249
-0.037525
-0.0434454
-0.0441947
-0.0427024
-0.0374138
-0.0310553
-0.015522
0.00292559
0.0391695
0.0934962
0.157534
0.24009
0.335823
0.424858
0.514596
0.607753
0.668886
0.765062
0.862682
0.830818
0.780548
0.625153
0.448084
0.313273
0.172984
0.136163
0.0579242
0.0478111
0.0244502
0.0032523
-0.0157958
-0.0341188
-0.0383483
-0.0271985
-0.029383
-0.0326387
-0.0321951
-0.0303536
-0.025913
-0.0142161
-0.0387391
-0.0347304
-0.0331891
-0.0307891
-0.0268087
-0.0219221
-0.0111645
0.00543185
0.027376
0.0670238
0.122166
0.174708
0.242825
0.292359
0.342899
0.372062
0.393892
0.368609
0.338257
0.271382
0.185715
0.00828604
-0.145209
-0.242814
-0.281078
-0.256065
-0.208971
-0.149687
-0.11081
-0.076405
-0.0501287
-0.0436795
-0.0347158
-0.0266809
-0.0225122
-0.018629
-0.0143372
-0.0113291
-0.00856989
-0.00840842
-0.0472166
-0.0388831
-0.0355569
-0.0327995
-0.0297537
-0.0255873
-0.0219116
-0.00761323
0.0186124
0.0418784
0.0787291
0.109266
0.139669
0.158524
0.191353
0.216839
0.204028
0.127007
-0.0252652
-0.203001
-0.340768
-0.487502
-0.561747
-0.614946
-0.580061
-0.530584
-0.406892
-0.266976
-0.188546
-0.108091
-0.0761991
-0.0531392
-0.0296884
-0.0180778
-0.0092412
-0.00262228
0.0023216
0.00375469
0.00198597
-0.00752553
-0.0609803