/*--------------------------------*- C++ -*----------------------------------*\
| =========                 |                                                 |
| \\      /  F ield         | OpenFOAM: The Open Source CFD Toolbox           |
|  \\    /   O peration     | Version:  v2106                                 |
|   \\  /    A nd           | Website:  www.openfoam.com                      |
|    \\/     M anipulation  |                                                 |
\*---------------------------------------------------------------------------*/
FoamFile
{
    version     2.0;
    format      ascii;
    arch        "LSB;label=32;scalar=64";
    class       volVectorField;
    location    "0";
    object      U;
}
// * * * * * * * * * * * * * * * * * * * * * * * * * * * * * * * * * * * * * //

dimensions      [0 1 -1 0 0 0 0];

internalField   nonuniform List<vector> 
11644
(
(1.62647e-05 4.14382e-05 3.11635e-21)
(2.80687e-05 0.000129085 8.59398e-21)
(4.19934e-05 0.000196 4.61088e-21)
(5.99959e-06 0.000233571 0)
(1.11014e-05 0.000314086 0)
(4.63011e-05 0.000404539 0)
(8.76217e-05 0.00050321 0)
(7.14188e-05 0.000618168 0)
(7.88714e-05 0.000717568 0)
(0.000137137 0.000821759 0)
(5.889e-05 0.000855341 0)
(7.21257e-05 0.000902929 0)
(0.000177441 0.000847679 0)
(0.000613617 0.000771984 0)
(0.000287855 0.000858261 0)
(-0.000102529 0.000704862 0)
(-0.000139174 0.00101155 0)
(2.20353e-05 0.00167572 0)
(-3.7146e-05 0.00242555 0)
(0.000236484 0.00302941 1.13843e-30)
(0.000328465 0.00344424 -1.12166e-30)
(0.000456393 0.00383576 0)
(0.000840909 0.00317737 0)
(0.000722735 0.00233795 0)
(0.000288422 0.00188478 0)
(6.96393e-05 0.00162005 0)
(-0.000241891 0.000989943 0)
(-0.000290619 0.000528612 0)
(0.000194584 5.18919e-05 0)
(0.000189277 -0.000305962 0)
(2.66127e-05 -0.000510283 0)
(1.99526e-05 -0.000663482 0)
(2.39404e-05 -0.000718154 0)
(3.55097e-06 -0.000710209 0)
(-2.93375e-05 -0.00065922 0)
(-4.47791e-05 -0.000592268 0)
(-3.49574e-05 -0.000498231 0)
(-6.17373e-05 -0.000431052 0)
(-9.68153e-05 -0.000313808 0)
(-9.77923e-05 -0.00012393 6.04229e-22)
(-2.53864e-05 2.59906e-05 4.00293e-21)
(-0.000119123 2.10124e-05 3.708e-21)
(-0.000192462 0.000118291 1.99145e-21)
(-0.000292858 0.00023282 0)
(-0.000305754 0.00041338 0)
(-0.000366302 0.000636193 0)
(-0.000477067 0.000921862 0)
(-0.000572315 0.0012865 0)
(-0.000674757 0.00170771 0)
(-0.000877478 0.00214428 0)
(-0.000739575 0.00270475 0)
(-0.000790325 0.00310895 0)
(-0.000702325 0.00370149 0)
(-0.00116558 0.00413609 0)
(-0.000722947 0.00463881 0)
(9.32193e-05 0.00543769 -1.72256e-22)
(0.000122828 0.00621136 4.79609e-22)
(-0.000174798 0.00743697 -2.56419e-20)
(0.00029024 0.00921053 5.25947e-21)
(0.000659764 0.0108744 2.17977e-20)
(0.000969763 0.0120529 -1.4904e-20)
(0.00134601 0.0115516 -3.1463e-21)
(0.00163948 0.0103935 1.66298e-20)
(0.0018629 0.0088841 -2.91914e-22)
(0.00181813 0.00720195 -6.51253e-23)
(0.0013497 0.00517807 0)
(0.00132358 0.00340782 0)
(0.00128979 0.00175944 0)
(0.000349802 0.000534023 0)
(2.35817e-05 -0.000367763 0)
(9.95329e-05 -0.00110291 0)
(-9.24628e-05 -0.00151393 0)
(-0.00024292 -0.00171875 0)
(-0.000316307 -0.00177036 0)
(-0.000330044 -0.00173028 0)
(-0.000403828 -0.00157204 0)
(-0.00041051 -0.00133438 0)
(-0.000521626 -0.000987436 0)
(-0.000538748 -0.000614507 0)
(-0.000492958 -0.000224148 0)
(0.000256499 -2.82139e-05 0)
(0.000121561 1.11751e-05 0)
(-0.000123983 -9.7852e-06 0)
(-0.000339644 5.62658e-05 0)
(-0.000521296 0.000150618 3.6566e-21)
(-0.000805341 0.000313921 0)
(-0.00112086 0.000687642 0)
(-0.00149749 0.00122316 0)
(-0.00188318 0.00195017 0)
(-0.00217138 0.00295276 0)
(-0.00265377 0.00396685 0)
(-0.00249632 0.00523607 0)
(-0.00248895 0.00632909 -7.24158e-22)
(-0.00110829 0.00756916 1.66223e-20)
(-0.000835343 0.00901668 -2.88264e-20)
(-0.00155068 0.0105155 -5.10108e-20)
(-0.0012375 0.0120864 9.38327e-20)
(-0.000900247 0.0139048 -8.54866e-20)
(-0.000374222 0.0164627 1.27798e-19)
(0.00056907 0.0187435 -3.00977e-19)
(0.00177688 0.0197469 2.49985e-19)
(0.00291424 0.0194585 3.54789e-22)
(0.00344625 0.018143 -4.60714e-22)
(0.00413708 0.0160135 -1.21509e-19)
(0.00407843 0.0129359 8.6443e-20)
(0.00408335 0.0094961 2.96309e-20)
(0.00365236 0.00601546 -1.65756e-20)
(0.0027056 0.00308716 6.72135e-22)
(0.00253996 0.000539437 0)
(0.00176182 -0.00117593 0)
(0.00071356 -0.00210156 0)
(0.000168422 -0.00275288 0)
(-0.000295556 -0.00301247 0)
(-0.000586576 -0.00299803 0)
(-0.000838412 -0.0027951 0)
(-0.000949329 -0.00246632 0)
(-0.00101498 -0.0020348 0)
(-0.00106313 -0.00151548 0)
(-0.00105585 -0.000921154 0)
(-0.000987711 -0.000292111 0)
(0.000653393 -0.000292262 0)
(0.000458658 -0.000792942 0)
(0.00017694 -0.000840935 0)
(-0.000135791 -0.000894316 0)
(-0.000534416 -0.000909568 0)
(-0.00101644 -0.000790768 0)
(-0.00165058 -0.000509732 0)
(-0.00233407 5.39583e-05 0)
(-0.00313077 0.00100559 0)
(-0.00409557 0.00224418 0)
(-0.00453498 0.00415677 -1.86653e-22)
(-0.00504145 0.00617749 1.51377e-20)
(-0.00464729 0.00892823 -4.93653e-20)
(-0.00610807 0.0110562 -1.33256e-20)
(-0.00659121 0.0125888 -6.03413e-20)
(-0.00537998 0.0152864 2.32813e-19)
(-0.00513514 0.0179202 -3.04952e-19)
(-0.0041234 0.0205651 1.92145e-20)
(-0.00189176 0.0233385 1.79152e-19)
(0.000618284 0.0259557 2.25322e-19)
(0.0032912 0.0277316 -1.44457e-19)
(0.00567819 0.027258 4.49289e-20)
(0.00661706 0.025737 -3.23552e-19)
(0.00838111 0.0229763 4.6787e-19)
(0.00962363 0.0187313 -3.92671e-19)
(0.0089613 0.0131976 2.71414e-20)
(0.00724404 0.00800521 4.45391e-20)
(0.00613528 0.00329856 2.54823e-20)
(0.00409176 6.35429e-05 7.90838e-21)
(0.00281086 -0.00234627 2.1655e-22)
(0.00193015 -0.00390806 0)
(0.000717715 -0.00446786 0)
(-0.000162198 -0.00458869 0)
(-0.000760699 -0.00440143 0)
(-0.00122066 -0.00400454 0)
(-0.00145881 -0.0035052 0)
(-0.00163318 -0.00285731 0)
(-0.0018056 -0.00202735 0)
(-0.00189786 -0.00112314 0)
(-0.0018745 -0.000281961 0)
(0.00129281 -0.000246214 0)
(0.0011131 -0.000727341 0)
(0.00078825 -0.00148222 0)
(0.000314128 -0.00208759 0)
(-0.000263349 -0.00252817 0)
(-0.00100023 -0.00276146 0)
(-0.00185371 -0.0026792 0)
(-0.00284272 -0.00223113 0)
(-0.00405699 -0.00133253 0)
(-0.00524937 0.000511861 -1.7951e-21)
(-0.00694477 0.00350055 2.26668e-20)
(-0.00910569 0.00746131 5.86089e-21)
(-0.0122206 0.0105509 2.05715e-20)
(-0.0124312 0.0139528 1.01425e-19)
(-0.0119084 0.0170324 -2.23801e-19)
(-0.0147175 0.0200657 -4.11393e-20)
(-0.012611 0.023875 5.31925e-19)
(-0.00695252 0.0273591 -6.48432e-19)
(-0.00325998 0.0310151 7.21361e-19)
(0.00136042 0.033519 -3.82953e-19)
(0.00685048 0.0351193 4.11964e-19)
(0.0108199 0.0348117 -3.44867e-19)
(0.0126341 0.0328589 2.67373e-19)
(0.0158524 0.0301492 -6.75837e-19)
(0.0173597 0.0244838 1.79266e-19)
(0.0173215 0.0169728 2.32775e-19)
(0.016162 0.00959152 -1.11971e-19)
(0.011527 0.00372937 -1.31378e-20)
(0.0081565 -0.00100789 -3.23137e-20)
(0.00484001 -0.00403878 -1.79533e-20)
(0.00264825 -0.00573474 -8.20402e-22)
(0.00121049 -0.00639824 0)
(-0.000135144 -0.00625724 0)
(-0.00110211 -0.00579447 0)
(-0.00186804 -0.00511584 0)
(-0.00239924 -0.00427872 0)
(-0.00277475 -0.00333501 0)
(-0.00300531 -0.00237992 0)
(-0.00310242 -0.00135669 0)
(-0.00315053 -0.000619374 0)
(0.00227904 -0.000768021 0)
(0.00202108 -0.00204071 0)
(0.00168826 -0.00289348 0)
(0.00123887 -0.00373645 0)
(0.000536648 -0.00462195 0)
(-0.00033415 -0.00522577 0)
(-0.00143515 -0.00562307 0)
(-0.00283118 -0.00559485 0)
(-0.00448409 -0.00478072 -2.68493e-21)
(-0.00746214 -0.00278526 2.53236e-20)
(-0.0127631 0.00039697 -3.57344e-21)
(-0.0190869 0.00446763 -8.47686e-20)
(-0.0228755 0.0116783 1.5578e-19)
(-0.0267559 0.0185129 -1.84035e-20)
(-0.0264535 0.0211087 -1.39104e-19)
(-0.0210325 0.0251183 -7.19171e-19)
(-0.0180952 0.0319442 1.07506e-18)
(-0.0119902 0.0370133 2.332e-20)
(-0.00568097 0.0381876 -2.53602e-19)
(0.000545336 0.039988 -2.32377e-19)
(0.00885025 0.0427659 -7.26021e-20)
(0.0139458 0.0410645 2.57839e-19)
(0.0176276 0.0383431 2.85326e-19)
(0.0221091 0.0340581 -4.74545e-19)
(0.0227497 0.0285361 6.66587e-20)
(0.0234445 0.0205642 2.03532e-19)
(0.0217501 0.0120076 -1.69984e-20)
(0.0189431 0.00392326 -1.79115e-20)
(0.014219 -0.00123414 -4.2992e-20)
(0.00843569 -0.00483875 -2.00912e-20)
(0.00372432 -0.00700942 1.12135e-20)
(0.00120989 -0.0079926 -3.11425e-21)
(-0.0003604 -0.00785153 0)
(-0.00173585 -0.00716346 0)
(-0.00279426 -0.00624454 0)
(-0.00356361 -0.00516457 0)
(-0.00409376 -0.00409263 0)
(-0.00440068 -0.00292595 0)
(-0.00461326 -0.00182586 0)
(-0.00475457 -0.000170441 0)
(0.00383409 -0.000659108 0)
(0.00359904 -0.00219837 0)
(0.00316725 -0.00395835 0)
(0.00265456 -0.00570477 0)
(0.00192456 -0.0071342 0)
(0.000907567 -0.00846534 0)
(-0.000403086 -0.00953125 0)
(-0.00217847 -0.0100591 3.5231e-22)
(-0.00569241 -0.00967071 7.36195e-21)
(-0.012063 -0.00785663 2.82707e-20)
(-0.0198369 -0.00335931 -1.75281e-19)
(-0.0274381 0.00476005 1.14415e-19)
(-0.0338067 0.0133461 -9.80944e-20)
(-0.037093 0.0207282 9.38877e-20)
(-0.0363738 0.0316146 -9.42334e-20)
(-0.0345958 0.0360198 5.27554e-20)
(-0.0232526 0.0346357 4.72941e-19)
(-0.0195892 0.0401542 -1.2581e-18)
(-0.0132896 0.0440932 6.83332e-19)
(-0.00554584 0.0459308 1.14831e-19)
(0.00504558 0.0455445 -5.16694e-19)
(0.0115121 0.0426219 -1.79655e-19)
(0.0172875 0.041468 -5.34153e-19)
(0.0238632 0.0379716 -3.78115e-19)
(0.0294172 0.0318398 -8.40032e-20)
(0.0295263 0.024184 1.12515e-19)
(0.0330703 0.0151006 -5.37165e-20)
(0.026916 0.00745877 -2.55376e-20)
(0.0226794 0.000199986 1.82535e-19)
(0.0158675 -0.00551113 -2.8433e-21)
(0.00777058 -0.00830182 -3.74227e-20)
(0.0018465 -0.00922742 -3.11065e-20)
(-0.00121581 -0.00940041 7.55107e-22)
(-0.00291273 -0.00860218 0)
(-0.00426477 -0.00741522 0)
(-0.00518245 -0.0060883 0)
(-0.00589166 -0.0046062 0)
(-0.00624565 -0.00323148 0)
(-0.00644081 -0.00178417 0)
(-0.00653151 -0.00128224 0)
(0.00604857 -0.00129881 0)
(0.00577732 -0.00372868 0)
(0.00537926 -0.00578651 0)
(0.00481414 -0.00785804 0)
(0.00401013 -0.00994208 0)
(0.00298312 -0.0120213 0)
(0.00151869 -0.013992 0)
(-0.00123372 -0.0155071 -1.57576e-23)
(-0.00816084 -0.015502 -1.50669e-20)
(-0.0176049 -0.0127189 2.23531e-21)
(-0.0275832 -0.00677169 -4.82461e-20)
(-0.0369097 0.00105207 8.35338e-20)
(-0.0467487 0.0116912 -1.78095e-19)
(-0.0442357 0.0236722 3.89239e-20)
(-0.0473635 0.028435 -3.91096e-19)
(-0.0492711 0.0369211 1.31584e-19)
(-0.0381352 0.0453435 4.62168e-19)
(-0.0278638 0.0443429 1.33254e-19)
(-0.017446 0.0487154 1.06202e-19)
(-0.00881558 0.049102 7.86827e-19)
(0.00260662 0.047969 -1.12087e-19)
(0.0101966 0.0472988 4.521e-19)
(0.0188839 0.0454232 -9.58471e-19)
(0.0284457 0.0416072 1.04345e-18)
(0.0335159 0.0326649 -6.06848e-20)
(0.0353331 0.0277728 -6.88804e-20)
(0.0359922 0.0227887 -1.82498e-19)
(0.0373103 0.0122883 1.00387e-19)
(0.0326432 0.00517512 -1.01075e-19)
(0.0244847 -0.00284933 -6.44256e-21)
(0.0142138 -0.00851762 -2.65831e-20)
(0.00483809 -0.0110933 -8.5231e-21)
(-0.00198474 -0.0111127 -4.09739e-21)
(-0.00484993 -0.0102262 0)
(-0.0063709 -0.00852967 0)
(-0.00742924 -0.00669888 0)
(-0.0080752 -0.00504677 0)
(-0.00838908 -0.00362257 0)
(-0.00848288 -0.00223371 0)
(-0.00862243 0.00017198 0)
(0.0088243 -0.00159756 0)
(0.00868746 -0.00429232 0)
(0.0083383 -0.00736029 0)
(0.00785259 -0.0099841 0)
(0.00715254 -0.0129179 0)
(0.00628456 -0.0159396 0)
(0.0050048 -0.0190813 4.80428e-22)
(6.23394e-05 -0.0209798 -2.79607e-22)
(-0.0109114 -0.020275 1.21777e-20)
(-0.0228426 -0.0156687 -6.87458e-20)
(-0.0344455 -0.00774772 6.68777e-20)
(-0.0449808 0.000500702 1.10882e-20)
(-0.0537262 0.0160291 -3.46378e-20)
(-0.0508534 0.0256808 -1.27391e-20)
(-0.0550739 0.0304619 -1.33516e-19)
(-0.0460358 0.0405869 -1.8409e-20)
(-0.0442479 0.0487404 -2.0055e-19)
(-0.0304115 0.0538509 -1.34363e-19)
(-0.0182018 0.0506059 2.79815e-19)
(-0.00944854 0.0502793 2.20015e-19)
(0.00166287 0.0475101 -2.664e-19)
(0.0107673 0.0472868 -7.00117e-19)
(0.0208577 0.0464566 6.25761e-19)
(0.0323577 0.0415968 -2.02461e-19)
(0.0359807 0.0376722 2.96967e-19)
(0.049777 0.0320142 1.00183e-19)
(0.051034 0.0266506 -8.88105e-20)
(0.0529553 0.0147871 1.20035e-20)
(0.045495 0.0108339 3.70578e-20)
(0.0356006 0.000840321 -3.95459e-21)
(0.0223409 -0.00664084 -5.9183e-20)
(0.00946419 -0.0113929 1.79764e-20)
(-0.0016508 -0.0126386 -3.57323e-22)
(-0.00728039 -0.0115021 -1.98017e-21)
(-0.00899593 -0.00961172 0)
(-0.010024 -0.00745408 0)
(-0.0106119 -0.00543798 0)
(-0.0108133 -0.00326774 0)
(-0.0109587 -0.00176322 0)
(-0.010987 -0.00155846 0)
(0.0119063 -0.00173922 0)
(0.0117974 -0.00550647 0)
(0.0115433 -0.00875832 0)
(0.0115021 -0.0125688 0)
(0.0112468 -0.016243 0)
(0.0109846 -0.0201346 0)
(0.0095188 -0.0236203 -1.49661e-21)
(0.00119847 -0.0253956 -1.26028e-20)
(-0.0135916 -0.0234286 1.50949e-20)
(-0.0274798 -0.0177034 -2.59892e-20)
(-0.0402256 -0.0103634 -1.54462e-21)
(-0.0533684 0.00023166 -2.84196e-21)
(-0.0644044 0.0202941 1.86831e-20)
(-0.0615255 0.0251867 1.45298e-21)
(-0.0617551 0.0336307 -7.46815e-20)
(-0.0509067 0.0485553 1.88269e-19)
(-0.0409532 0.0496347 5.27714e-20)
(-0.0279135 0.0543015 -2.33713e-19)
(-0.0163374 0.0532328 5.60459e-19)
(-0.00694781 0.0475413 -4.70529e-19)
(-0.0010219 0.0442028 1.78917e-19)
(0.0080416 0.046772 -1.77139e-19)
(0.0189646 0.0491064 4.48465e-20)
(0.0345914 0.0471482 -2.21889e-19)
(0.0484513 0.0425967 5.12809e-20)
(0.0589877 0.0325935 -1.93659e-19)
(0.0638567 0.0310751 -4.87958e-20)
(0.0691085 0.0163203 -1.53659e-20)
(0.0616363 0.0114682 -3.59841e-20)
(0.049693 0.00360441 7.2498e-20)
(0.0324047 -0.00412233 -1.66402e-20)
(0.0154492 -0.0104641 1.30394e-20)
(-4.95732e-05 -0.0129153 -7.51952e-21)
(-0.0100275 -0.0121255 5.10117e-22)
(-0.0124818 -0.00981555 0)
(-0.0133498 -0.00744876 0)
(-0.01387 -0.00540463 0)
(-0.0140762 -0.00407829 0)
(-0.0140273 -0.00244258 0)
(-0.0138389 0.00033244 0)
(0.0151397 -0.00184669 0)
(0.0153028 -0.00640795 0)
(0.0153451 -0.0104136 0)
(0.0154358 -0.0143612 0)
(0.0156394 -0.0184392 0)
(0.0159102 -0.022769 0)
(0.0134079 -0.0265383 5.59073e-22)
(0.00129454 -0.0281864 -6.76264e-21)
(-0.0168739 -0.0258328 -3.74334e-21)
(-0.0345047 -0.0186365 4.59502e-22)
(-0.0498278 -0.0108333 -4.79145e-21)
(-0.0618289 -0.00408043 2.61019e-20)
(-0.0698372 0.00937813 -2.81937e-20)
(-0.074508 0.0228461 9.72247e-20)
(-0.0672074 0.0352974 -3.91609e-20)
(-0.065154 0.0447372 -1.34469e-21)
(-0.0507307 0.055249 2.06318e-20)
(-0.0295991 0.0597695 9.79568e-21)
(-0.00690475 0.0589023 3.25356e-21)
(0.00902337 0.0426931 -2.37219e-21)
(-0.00101709 0.0262981 -8.09323e-19)
(-0.00737023 0.0446272 3.09187e-20)
(0.015933 0.0574286 2.68704e-21)
(0.0378527 0.0530729 1.21565e-20)
(0.0548759 0.0411833 1.56942e-20)
(0.0699798 0.0322341 -9.64988e-21)
(0.0797359 0.0309137 5.65033e-20)
(0.0822384 0.0199013 -6.42893e-21)
(0.0767981 0.0140508 2.79398e-21)
(0.0638355 0.00539587 -1.22307e-21)
(0.042981 -0.00290824 1.33172e-20)
(0.0219479 -0.00899482 -5.66548e-21)
(0.00195059 -0.0119922 1.68358e-21)
(-0.0127825 -0.0117406 8.6271e-22)
(-0.0170727 -0.00956686 0)
(-0.0175788 -0.00684958 0)
(-0.0175277 -0.00427042 0)
(-0.0173507 -0.00206603 0)
(-0.0172167 -0.000398527 0)
(-0.0174923 -0.00168922 0)
(0.0190073 -0.00352232 0)
(0.0193667 -0.00679842 0)
(0.0198967 -0.0115478 0)
(0.0202146 -0.0156434 0)
(0.0208612 -0.0200885 0)
(0.0217412 -0.0248991 0)
(0.0167216 -0.0287355 2.04691e-22)
(-0.000993436 -0.0299152 -4.32694e-22)
(-0.0223149 -0.0277948 -1.32758e-22)
(-0.0412028 -0.022228 4.85515e-21)
(-0.0588797 -0.0133605 6.06766e-22)
(-0.0726178 -0.00701623 -6.19343e-21)
(-0.0827696 0.00529088 -5.95402e-21)
(-0.0822262 0.0191327 1.81314e-20)
(-0.0777631 0.0294912 1.2169e-20)
(-0.0701738 0.0455494 -1.04622e-21)
(-0.0554492 0.0564439 -2.6438e-21)
(-0.0398177 0.0679972 3.68971e-21)
(-0.0479636 0.122555 -5.03707e-19)
(0.0731455 0.121506 2.66883e-19)
(0.0567744 0.0529133 -2.99438e-21)
(0.0678687 0.0424914 -2.32676e-20)
(0.0819281 0.0380294 -1.60456e-20)
(0.0940605 0.0235902 -5.71584e-21)
(0.0974004 0.0244071 -4.04325e-22)
(0.0887026 0.0149203 -5.6699e-21)
(0.0720793 0.00419475 4.36355e-21)
(0.0502246 -0.00238027 -1.75962e-23)
(0.0272582 -0.00688652 1.18308e-22)
(0.00360496 -0.00970566 -2.07108e-23)
(-0.0161639 -0.0101111 3.4092e-22)
(-0.0222056 -0.00814628 0)
(-0.0220798 -0.00548448 0)
(-0.0217646 -0.0036316 0)
(-0.0216192 -0.00220106 0)
(-0.0216985 -0.00178077 0)
(-0.020653 0.00200751 0)
(0.0238386 -0.000700351 0)
(0.0244453 -0.00676695 0)
(0.0246485 -0.0115129 0)
(0.0249851 -0.0162758 0)
(0.0256956 -0.0211422 0)
(0.0258599 -0.0264114 0)
(0.0179779 -0.0306586 5.31192e-22)
(-0.0036831 -0.0321237 9.72277e-22)
(-0.0305378 -0.0296444 -6.2648e-21)
(-0.0547459 -0.0263522 1.1806e-21)
(-0.0800079 -0.0192235 -7.97347e-21)
(-0.0966106 -0.0140479 9.29018e-21)
(-0.107274 -0.00727807 5.88406e-24)
(-0.106566 0.00949741 2.06315e-20)
(-0.105915 0.0190859 -7.51608e-21)
(-0.0947397 0.0371966 2.1073e-20)
(-0.0771694 0.0540123 -3.00656e-20)
(-0.0718664 0.0704499 1.72991e-21)
(-0.00620511 0.106337 7.87579e-18)
(0.0356239 0.103197 6.53037e-19)
(0.0846408 0.0193803 -8.48471e-21)
(0.0669416 0.0183729 -1.6633e-20)
(0.0757457 0.0259927 1.93301e-20)
(0.0898552 0.0176622 4.62495e-20)
(0.0936395 0.0231633 -1.06659e-20)
(0.0886965 0.0127958 -3.06671e-20)
(0.0758099 0.00432492 2.16004e-20)
(0.0540829 0.000347788 -3.22754e-21)
(0.0286703 -0.00315023 2.53016e-21)
(0.00244291 -0.00592999 5.40844e-25)
(-0.0200405 -0.00604645 -3.48103e-22)
(-0.0280637 -0.0042894 0)
(-0.0272332 -0.00249661 0)
(-0.0259484 -0.00154585 0)
(-0.0246469 -0.00100039 0)
(-0.0236838 0.000242447 0)
(-0.0243681 -0.00260141 0)
(0.0269699 -0.00296719 3.64691e-23)
(0.0286811 -0.00681898 0)
(0.0295297 -0.0128229 0)
(0.0303243 -0.0185477 0)
(0.0304418 -0.0239601 0)
(0.0306014 -0.0293688 0)
(0.0192227 -0.0337102 -1.00605e-21)
(-0.00915925 -0.0370655 -5.82173e-22)
(-0.0423183 -0.0351437 3.2864e-20)
(-0.0699426 -0.0347539 -7.94559e-20)
(-0.0965392 -0.0287824 8.27915e-20)
(-0.120176 -0.0268039 -9.99825e-20)
(-0.135278 -0.0235932 1.05439e-19)
(-0.138125 -0.012376 3.09731e-20)
(-0.138573 0.00175366 2.12258e-21)
(-0.127182 0.0283252 -1.49119e-19)
(-0.105661 0.055732 -4.37945e-20)
(-0.177192 0.108214 2.99149e-20)
(-0.00413792 0.124481 -5.27528e-19)
(0.172987 0.0770934 -1.90223e-19)
(0.127298 -0.0168436 1.76525e-20)
(0.0480307 -0.0114782 -6.55162e-20)
(0.0554671 0.00685217 1.15551e-19)
(0.0719774 0.0158102 -1.06707e-19)
(0.0791673 0.0242556 9.59481e-21)
(0.0785722 0.0168756 -5.18111e-20)
(0.0695903 0.0122512 3.79399e-20)
(0.0527307 0.00855436 -2.44254e-20)
(0.0284048 0.00395205 1.34582e-20)
(0.000699593 0.00150907 -2.84247e-21)
(-0.0241346 0.00139309 3.08556e-21)
(-0.0318324 0.00248036 0)
(-0.0297788 0.00360836 0)
(-0.0280015 0.00366736 0)
(-0.0276269 0.00267999 0)
(-0.0280942 0.00121721 0)
(-0.0300319 0.00233691 0)
(0.0421381 -0.00268278 -1.10821e-23)
(0.0400334 -0.00826871 0)
(0.0396732 -0.0141065 0)
(0.0402479 -0.0196108 0)
(0.0400223 -0.0254505 0)
(0.0376388 -0.0320089 0)
(0.0240502 -0.0385106 1.28106e-21)
(-0.00768513 -0.0438111 3.27586e-21)
(-0.0455348 -0.0453035 2.14778e-20)
(-0.0793426 -0.050138 -5.14583e-20)
(-0.114282 -0.0530626 3.18227e-20)
(-0.141448 -0.0514682 1.40901e-19)
(-0.161036 -0.0536914 -1.81876e-19)
(-0.15573 -0.0374785 8.30726e-20)
(-0.160537 -0.0265575 1.08958e-19)
(-0.165202 0.00268338 2.31125e-19)
(-0.165897 0.0446397 5.37734e-19)
(-0.356654 0.157479 8.97841e-20)
(-0.0987764 0.290725 -9.07998e-20)
(-0.143544 0.423674 -4.75259e-19)
(0.107657 0.428046 -6.89212e-22)
(0.18729 0.211476 -6.35903e-19)
(0.353857 0.00427952 4.33393e-21)
(0.201145 -0.0460375 1.68279e-19)
(0.0141284 -0.0386852 -1.80837e-19)
(0.0306529 -0.0137325 -3.47911e-19)
(0.0539384 0.00841104 1.96274e-19)
(0.0658226 0.0267316 -5.99374e-21)
(0.0706815 0.0257237 2.56214e-20)
(0.0680966 0.023288 -5.45901e-21)
(0.0528247 0.0202956 -1.65923e-20)
(0.0294545 0.0169672 1.30936e-20)
(0.00158301 0.013861 1.21688e-22)
(-0.0245822 0.0127108 8.87948e-22)
(-0.0328262 0.0116812 0)
(-0.0295523 0.0100264 0)
(-0.026733 0.00764231 0)
(-0.0249084 0.00533755 0)
(-0.0229685 0.00197855 0)
(-0.0206072 9.83124e-05 0)
(0.0515862 -0.00255356 1.07742e-21)
(0.051252 -0.00820944 0)
(0.0509676 -0.0136319 0)
(0.0502038 -0.0208711 0)
(0.0493793 -0.0288432 0)
(0.0488776 -0.0370436 0)
(0.0366019 -0.0435807 3.71504e-23)
(0.00248804 -0.0536849 -8.98242e-21)
(-0.0403356 -0.0579508 9.14664e-21)
(-0.0809173 -0.066832 1.40393e-20)
(-0.106321 -0.0778774 -7.65837e-22)
(-0.129887 -0.0843777 8.68363e-20)
(-0.145772 -0.0861926 -9.76111e-20)
(-0.15935 -0.0816997 -2.83904e-19)
(-0.183013 -0.0830505 -1.53432e-19)
(-0.207224 -0.0703944 9.73394e-20)
(-0.259678 -0.0323593 8.67096e-20)
(-0.653306 0.0775236 -1.39626e-18)
(-0.380522 0.290095 1.42818e-18)
(-0.0807712 0.251647 1.79555e-18)
(0.282169 0.207804 6.79504e-20)
(0.532659 0.0507315 -3.92811e-19)
(0.523663 -0.0963943 -6.24366e-19)
(0.18719 -0.0756682 4.54059e-19)
(-0.0368856 -0.056019 1.63268e-19)
(-0.00395896 -0.0120397 -1.16944e-19)
(0.0332794 0.0154928 -3.44874e-19)
(0.0642637 0.032255 -5.89927e-20)
(0.0768235 0.0409854 -1.69932e-19)
(0.0720523 0.0399335 -7.12038e-21)
(0.058563 0.0360388 2.68742e-20)
(0.0354851 0.0319607 -1.6021e-20)
(0.00650086 0.0278261 6.0315e-21)
(-0.0191045 0.025386 -2.42603e-23)
(-0.0251777 0.0225768 0)
(-0.0226576 0.0181582 0)
(-0.0191161 0.0128242 0)
(-0.0159823 0.00822477 0)
(-0.0139143 0.00478299 0)
(-0.0123569 0.00137081 -6.66783e-23)
(0.0623703 -0.00357427 5.79622e-24)
(0.0630626 -0.0102216 0)
(0.0634641 -0.0164877 0)
(0.0638004 -0.0236738 0)
(0.0639356 -0.0309956 0)
(0.0623594 -0.0392085 0)
(0.0495041 -0.0452207 0)
(0.0155002 -0.0577214 8.98106e-22)
(-0.0209472 -0.0708794 9.59611e-21)
(-0.0589857 -0.0837418 -1.86428e-20)
(-0.0873289 -0.0961364 2.89174e-21)
(-0.115158 -0.106967 -4.90638e-20)
(-0.129373 -0.128108 6.75664e-20)
(-0.150204 -0.161436 -2.05344e-20)
(-0.176527 -0.154103 8.86959e-20)
(-0.211782 -0.175749 -5.99238e-19)
(-0.307126 -0.157106 -7.59396e-20)
(-0.786604 -0.0551865 -4.71652e-18)
(-0.556715 -0.0288406 -8.22824e-19)
(-0.0668839 0.149953 1.36733e-20)
(0.357039 -0.170448 1.89475e-18)
(0.787965 -0.113038 -8.18959e-19)
(0.487858 -0.123458 -1.44297e-18)
(0.152544 -0.049578 -4.13918e-18)
(-0.110743 -0.0173976 -1.13748e-19)
(-0.0377576 0.0193817 5.32655e-20)
(0.0296778 0.0448215 3.40986e-22)
(0.0631356 0.0558208 -1.81219e-20)
(0.0842837 0.0598511 1.26977e-21)
(0.0820058 0.0561706 -3.55053e-20)
(0.071461 0.0546678 2.18067e-20)
(0.046272 0.0477784 4.53941e-21)
(0.0171394 0.0451994 -2.09892e-21)
(-0.00750308 0.0414082 0)
(-0.0134097 0.0348174 0)
(-0.0102376 0.0279762 0)
(-0.00626321 0.0211029 0)
(-0.00327672 0.0147512 0)
(-0.0016809 0.00936451 0)
(-0.00111959 0.00355821 -1.16961e-21)
(0.0724972 -0.00300913 -1.98911e-22)
(0.0735913 -0.0100578 0)
(0.0749636 -0.0169274 0)
(0.0760577 -0.0235956 0)
(0.0774652 -0.030995 0)
(0.0769783 -0.0404159 0)
(0.0660378 -0.0501451 0)
(0.0367676 -0.063585 0)
(0.00359296 -0.0796639 1.87127e-21)
(-0.0302143 -0.0954812 1.58985e-20)
(-0.0543098 -0.1177 -3.5173e-20)
(-0.0807559 -0.138789 -1.74634e-20)
(-0.101251 -0.168992 4.48078e-20)
(-0.118222 -0.212127 -6.58795e-20)
(-0.143961 -0.225101 -1.95812e-19)
(-0.169478 -0.241632 1.14158e-19)
(-0.407819 -0.245685 -3.546e-19)
(-0.862651 -0.136028 -1.53529e-18)
(-0.597682 -0.280662 -1.2761e-19)
(0.00706682 -0.567248 -1.14519e-18)
(0.617942 -0.198677 1.79763e-19)
(0.520538 -0.0192518 -4.99241e-19)
(0.57974 -0.120276 1.89561e-19)
(0.047678 0.04682 2.24483e-18)
(-0.132104 0.0837378 -4.3302e-19)
(-0.0500974 0.0656646 -1.24437e-19)
(0.0289008 0.0842648 -1.26113e-19)
(0.0716137 0.0838614 4.80445e-20)
(0.090165 0.0767828 -2.27513e-20)
(0.0897745 0.0737091 4.81724e-20)
(0.076543 0.0726003 -1.71733e-20)
(0.052199 0.0673255 -1.33808e-21)
(0.0254692 0.0633721 0)
(0.00325003 0.0557693 0)
(-0.00182791 0.0463641 0)
(0.000791003 0.0372104 0)
(0.0040615 0.0288726 5.77213e-21)
(0.00693923 0.0207339 7.98248e-21)
(0.00890298 0.012317 4.76003e-21)
(0.00944075 0.00377896 0)
(0.0818925 -0.00258409 0)
(0.0827502 -0.0091485 0)
(0.0851078 -0.0153227 0)
(0.0873485 -0.022152 0)
(0.0903316 -0.0298037 0)
(0.0914518 -0.0391316 0)
(0.0839756 -0.0493089 0)
(0.0594454 -0.0626282 0)
(0.0339721 -0.0819306 1.5431e-23)
(0.00788579 -0.105402 -5.31538e-22)
(-0.0122298 -0.136374 -8.09978e-22)
(-0.0234216 -0.172565 2.97661e-20)
(-0.0423807 -0.211664 -4.61617e-20)
(-0.0568949 -0.248926 3.26432e-20)
(-0.0708333 -0.276328 5.2343e-19)
(-0.142834 -0.317347 4.61267e-20)
(-0.693668 -0.171404 -1.44138e-20)
(-0.675656 -0.282588 1.02675e-18)
(-0.233884 -0.319946 -1.17178e-18)
(0.07767 -0.166282 1.87554e-19)
(0.161639 -0.453652 -1.70749e-18)
(0.449475 -0.450084 -7.06063e-19)
(0.393753 0.0586586 7.82239e-19)
(-0.0554299 0.202756 -5.89956e-20)
(-0.164331 0.169612 -2.42269e-19)
(-0.0352883 0.141936 6.62193e-20)
(0.0407753 0.119975 -8.77084e-20)
(0.0747754 0.105238 6.33958e-21)
(0.0885967 0.0963539 -2.07784e-20)
(0.0890309 0.0941794 -5.4549e-21)
(0.078047 0.0937088 6.35872e-22)
(0.0578815 0.0866678 -6.37008e-24)
(0.0350183 0.0799599 0)
(0.0159948 0.068262 0)
(0.0106937 0.0563435 0)
(0.0125676 0.0450998 0)
(0.0150114 0.0350768 0)
(0.0169086 0.0249298 0)
(0.0182585 0.0145894 0)
(0.01893 0.0040979 -8.57288e-22)
(0.0893961 -0.00281897 0)
(0.0900036 -0.00780431 0)
(0.0927047 -0.0125727 0)
(0.0960093 -0.0184539 0)
(0.100364 -0.0252641 0)
(0.10347 -0.0335416 0)
(0.0998297 -0.0431697 0)
(0.0836204 -0.0560463 0)
(0.066588 -0.0764981 0)
(0.0524971 -0.105974 0)
(0.042695 -0.142947 8.10401e-22)
(0.0430184 -0.188064 1.24009e-20)
(0.041522 -0.238692 -7.18521e-21)
(0.0326125 -0.279322 1.52782e-20)
(-0.0234485 -0.328445 2.01548e-18)
(-0.248277 -0.331895 -7.50369e-20)
(-0.769253 -0.182779 1.3614e-18)
(-0.458052 -0.363598 4.05365e-20)
(-0.290189 -0.621123 -1.00497e-18)
(0.0767696 -0.701942 1.9519e-18)
(0.238412 -0.423634 -4.01658e-20)
(0.119153 -0.0520069 -4.9387e-18)
(-0.125212 0.151675 -1.54398e-19)
(-0.221545 0.214512 1.55013e-21)
(0.0661873 0.244908 2.4642e-19)
(0.026567 0.170836 9.67757e-20)
(0.0655594 0.133816 1.59768e-20)
(0.0831749 0.122284 -1.88869e-20)
(0.0878129 0.116325 5.59926e-21)
(0.0884518 0.113297 -1.15452e-21)
(0.0799094 0.109359 0)
(0.0640694 0.101084 0)
(0.0451888 0.0924103 0)
(0.0297572 0.0788694 0)
(0.0254325 0.0648635 0)
(0.0270823 0.05172 0)
(0.0288351 0.040151 0)
(0.0299985 0.0287531 0)
(0.0307942 0.0170194 0)
(0.0309862 0.00514081 0)
(0.0938113 -0.00177964 0)
(0.0946424 -0.00464165 0)
(0.097544 -0.00772061 0)
(0.101769 -0.0118396 0)
(0.107547 -0.0170694 0)
(0.112576 -0.0234801 0)
(0.113056 -0.0321996 0)
(0.105787 -0.0452021 0)
(0.0997485 -0.0661394 0)
(0.0984875 -0.0982531 0)
(0.101826 -0.136869 0)
(0.114545 -0.187434 2.94352e-22)
(0.127346 -0.253473 2.7988e-21)
(0.12738 -0.315753 -1.02261e-20)
(0.0448949 -0.350229 6.9965e-19)
(-0.5181 -0.305588 -1.5078e-19)
(-0.553256 -0.387131 4.15455e-19)
(-0.0668823 -0.515529 7.5546e-20)
(-0.202211 -0.531119 -8.54224e-20)
(-0.204992 -0.451027 -3.53741e-19)
(-0.230298 -0.309922 2.53433e-19)
(-0.296912 -0.185592 1.48537e-18)
(-0.281723 -0.0156167 -7.58645e-19)
(-0.156721 0.0830964 -1.31376e-19)
(-0.0549669 0.256068 4.85543e-20)
(0.139043 0.170137 -7.39904e-20)
(0.0992469 0.135629 -8.72898e-20)
(0.0966988 0.132698 3.86351e-21)
(0.0910686 0.126343 -2.53173e-22)
(0.0912066 0.124908 0)
(0.0838892 0.120608 0)
(0.0728352 0.113333 0)
(0.0587356 0.103488 0)
(0.0475167 0.0884749 0)
(0.0442127 0.0722105 0)
(0.0453171 0.0571646 0)
(0.0463095 0.0434773 0)
(0.0465606 0.0304685 0)
(0.0463322 0.0178225 0)
(0.0463226 0.00563679 0)
(0.0941261 -0.000550257 0)
(0.096078 -0.000991736 0)
(0.0996939 -0.00165666 0)
(0.10495 -0.00295698 0)
(0.112254 -0.0054704 0)
(0.12003 -0.00927417 0)
(0.12528 -0.0160508 0)
(0.127525 -0.027877 0)
(0.134905 -0.0488123 0)
(0.14816 -0.0805413 0)
(0.167392 -0.123677 1.03385e-20)
(0.189064 -0.167642 0)
(0.216084 -0.244103 0)
(0.191999 -0.29388 6.84738e-21)
(-0.133451 -0.337284 7.47089e-20)
(-0.395569 -0.28599 1.11698e-18)
(-0.108365 -0.737681 6.94726e-20)
(-0.264866 -0.803173 1.11401e-19)
(-0.331867 -0.663733 2.1694e-20)
(-0.381578 -0.473044 -3.5033e-18)
(-0.380105 -0.248958 -2.79241e-19)
(-0.483868 -0.0683398 1.88928e-18)
(-0.548732 0.174046 2.99802e-19)
(-0.497287 0.32198 -1.74343e-19)
(0.0457017 0.189841 2.93683e-20)
(0.176465 0.138677 7.9476e-20)
(0.112979 0.153258 1.86893e-19)
(0.106341 0.132553 0)
(0.103587 0.12845 0)
(0.100796 0.128423 3.28751e-21)
(0.0950841 0.125145 0)
(0.0877652 0.119365 0)
(0.0778159 0.109123 0)
(0.0706764 0.093815 0)
(0.0677948 0.076283 0)
(0.0669806 0.0599066 0)
(0.0660656 0.0447034 0)
(0.0649376 0.0310081 -9.4999e-22)
(0.0639263 0.0183549 -6.81534e-22)
(0.0634264 0.00585883 0)
(0.0925203 0.001278 0)
(0.0950371 0.00374254 0)
(0.0994122 0.00582206 0)
(0.105882 0.00736916 0)
(0.114674 0.00822985 0)
(0.124988 0.00832948 0)
(0.135919 0.00496807 0)
(0.148457 -0.00407417 0)
(0.169178 -0.0244125 0)
(0.195836 -0.0545606 0)
(0.23209 -0.101425 -2.54746e-20)
(0.265933 -0.146262 0)
(0.292363 -0.221004 0)
(0.229364 -0.327454 1.00716e-19)
(-0.0420797 -0.332629 -1.57315e-19)
(0.0523559 -0.541424 -1.86723e-19)
(0.140411 -0.552948 0)
(-0.217524 -0.439913 2.00446e-19)
(-0.464598 -0.442725 1.38499e-18)
(-0.667456 -0.223076 2.81407e-18)
(-0.714992 -0.212791 -3.95647e-18)
(-0.657006 -0.187509 6.51551e-19)
(-0.430759 -0.137639 1.27711e-19)
(-0.256298 -0.0705151 0)
(-0.00479679 0.137336 -1.45371e-20)
(0.183865 0.1697 9.0742e-20)
(0.147923 0.149729 -3.43936e-20)
(0.117926 0.13078 0)
(0.108204 0.127105 0)
(0.104594 0.121983 -9.62714e-21)
(0.103016 0.121777 0)
(0.101641 0.117227 0)
(0.0985958 0.107381 0)
(0.0956638 0.0930294 0)
(0.092679 0.0758357 0)
(0.0897979 0.0597348 1.71866e-21)
(0.0869197 0.0445596 -2.23338e-21)
(0.0844823 0.030712 0)
(0.0824153 0.0181013 0)
(0.0811037 0.00579461 -5.24836e-21)
(0.0869699 0.00298425 0)
(0.090031 0.00938503 0)
(0.095068 0.0149914 0)
(0.102371 0.0200538 0)
(0.112367 0.0247757 0)
(0.125108 0.0290156 0)
(0.141811 0.0296643 -8.45082e-22)
(0.166267 0.0256092 0)
(0.202679 0.00835166 0)
(0.24497 -0.0163 0)
(0.298802 -0.0643202 0)
(0.354672 -0.107916 0)
(0.375699 -0.176087 0)
(0.288504 -0.274855 -3.65687e-20)
(0.154789 -0.306384 -7.55155e-21)
(0.231976 -0.447981 1.69585e-20)
(0.154973 -0.526563 0)
(-0.376055 -0.38185 0)
(-0.670816 -0.499382 -2.22355e-19)