/*--------------------------------*- C++ -*----------------------------------*\
| =========                 |                                                 |
| \\      /  F ield         | OpenFOAM: The Open Source CFD Toolbox           |
|  \\    /   O peration     | Version:  v2106                                 |
|   \\  /    A nd           | Website:  www.openfoam.com                      |
|    \\/     M anipulation  |                                                 |
\*---------------------------------------------------------------------------*/
FoamFile
{
    version     2.0;
    format      ascii;
    arch        "LSB;label=32;scalar=64";
    class       volVectorField;
    location    "0";
    object      U;
}
// * * * * * * * * * * * * * * * * * * * * * * * * * * * * * * * * * * * * * //

dimensions      [0 1 -1 0 0 0 0];

internalField   nonuniform List<vector> 
11644
(
(0.994487 -0.000215367 7.6525e-24)
(0.994381 -0.000562258 2.11033e-23)
(0.99432 -0.000819105 1.13225e-23)
(0.994303 -0.00107855 0)
(0.994295 -0.00134436 0)
(0.994291 -0.00160898 0)
(0.994289 -0.0018666 0)
(0.994287 -0.0021042 0)
(0.994285 -0.00230867 0)
(0.994276 -0.00246671 0)
(0.994274 -0.00255718 0)
(0.994255 -0.0025646 0)
(0.994279 -0.00246352 0)
(0.994402 -0.00226582 0)
(0.994233 -0.00188366 0)
(0.994186 -0.00144545 0)
(0.993984 -0.000854256 0)
(0.993708 6.90168e-05 0)
(0.993685 0.00126966 0)
(0.99398 0.00242199 3.4258e-30)
(0.994332 0.00322777 -3.43492e-30)
(0.994423 0.00371401 0)
(0.994293 0.00407781 0)
(0.994247 0.00444183 0)
(0.994277 0.00469927 0)
(0.994329 0.00480361 0)
(0.99448 0.00476542 0)
(0.994299 0.00461899 0)
(0.994254 0.00437434 0)
(0.994284 0.00403869 0)
(0.994301 0.00365909 0)
(0.994298 0.00325528 0)
(0.994303 0.00283879 0)
(0.994305 0.00242853 0)
(0.994306 0.00203166 0)
(0.994308 0.0016549 0)
(0.994311 0.0013019 0)
(0.994331 0.00097339 0)
(0.994403 0.00065282 0)
(0.994516 0.000244312 1.48374e-24)
(0.995225 -0.000442946 9.82958e-24)
(0.995142 -0.00133111 9.10535e-24)
(0.995079 -0.00221207 4.89019e-24)
(0.995058 -0.00307164 0)
(0.995054 -0.003918 0)
(0.995044 -0.00475419 0)
(0.995018 -0.00556365 0)
(0.994966 -0.00632207 0)
(0.994881 -0.00699542 0)
(0.994756 -0.00753896 0)
(0.994581 -0.0078972 0)
(0.994345 -0.00800459 0)
(0.993965 -0.00779541 0)
(0.993385 -0.00717756 0)
(0.993184 -0.00615516 0)
(0.992683 -0.00463356 -1.778e-24)
(0.992144 -0.00268234 2.00775e-24)
(0.991602 -0.000459045 -5.64023e-24)
(0.991227 0.00206994 2.95273e-23)
(0.991278 0.00490117 8.70877e-23)
(0.991741 0.00778937 -1.40507e-22)
(0.992426 0.0103206 2.4723e-23)
(0.993015 0.0121572 3.65704e-24)
(0.993342 0.0132841 -1.34656e-24)
(0.993798 0.0139968 2.60908e-24)
(0.994299 0.0142816 0)
(0.994579 0.0141827 0)
(0.995137 0.0136191 0)
(0.995379 0.012784 0)
(0.995472 0.0117558 0)
(0.995526 0.010587 0)
(0.995529 0.00935517 0)
(0.995491 0.00811534 0)
(0.995434 0.00689915 0)
(0.995368 0.00572752 0)
(0.995305 0.00460923 0)
(0.995257 0.00353952 0)
(0.995244 0.00250281 0)
(0.995283 0.00147949 0)
(0.99535 0.000486663 0)
(0.996728 -0.000698582 0)
(0.996665 -0.00214446 0)
(0.996619 -0.00363097 0)
(0.996604 -0.00511405 0)
(0.996602 -0.00659023 8.97914e-24)
(0.996587 -0.00805918 0)
(0.996533 -0.00950512 0)
(0.996414 -0.0108977 0)
(0.9962 -0.0121849 0)
(0.995854 -0.013297 0)
(0.995307 -0.0141445 0)
(0.994581 -0.0145933 0)
(0.993752 -0.0144948 1.45421e-24)
(0.992862 -0.0137571 -7.79232e-23)
(0.991201 -0.0121801 1.84121e-22)
(0.989862 -0.00981071 2.86158e-22)
(0.988551 -0.0066336 -7.55302e-23)
(0.987327 -0.00287528 -5.32346e-22)
(0.986345 0.00139499 2.28864e-23)
(0.986004 0.00612938 1.77532e-22)
(0.986507 0.0109831 -2.5797e-23)
(0.987841 0.0156111 -2.78742e-22)
(0.989701 0.019475 5.94109e-22)
(0.991658 0.0220867 -4.86888e-22)
(0.993111 0.0233617 3.00265e-22)
(0.994506 0.0237624 -1.62149e-22)
(0.99598 0.0233734 7.26929e-23)
(0.996686 0.022436 -1.17617e-24)
(0.997382 0.0209583 0)
(0.997804 0.0191297 0)
(0.997931 0.017149 0)
(0.997926 0.0150833 0)
(0.997813 0.0130283 0)
(0.997644 0.0110293 0)
(0.997455 0.00911326 0)
(0.997272 0.00728912 0)
(0.997116 0.0055525 0)
(0.997012 0.00388151 0)
(0.99697 0.00227735 0)
(0.996984 0.000739414 0)
(0.99904 -0.000996493 0)
(0.998991 -0.00302114 0)
(0.998975 -0.00509279 0)
(0.998991 -0.00720447 0)
(0.999018 -0.00934863 0)
(0.999023 -0.0115247 0)
(0.998964 -0.0137194 0)
(0.998794 -0.0158998 0)
(0.998449 -0.0180084 0)
(0.997844 -0.0199602 0)
(0.996976 -0.0215874 2.43775e-25)
(0.995672 -0.0227146 -1.28847e-23)
(0.993729 -0.0231608 9.12507e-23)
(0.990878 -0.0226941 -2.35857e-22)
(0.988519 -0.0209304 -5.25541e-23)
(0.985471 -0.0178834 6.8554e-22)
(0.982611 -0.0134992 -9.90132e-23)
(0.980005 -0.00786256 -1.1528e-21)
(0.978038 -0.00116638 6.74136e-22)
(0.977445 0.00606389 1.02617e-21)
(0.978264 0.0133055 -1.05268e-21)
(0.980475 0.020131 1.62211e-22)
(0.983788 0.0260882 2.64949e-22)
(0.987883 0.0304344 -7.45919e-22)
(0.991828 0.032963 1.57498e-22)
(0.99497 0.033653 1.21417e-22)
(0.997119 0.0330981 2.1296e-22)
(0.999302 0.0312804 -7.54269e-23)
(1.00052 0.0289166 3.1347e-23)
(1.00117 0.0261803 -3.19804e-25)
(1.00147 0.0232482 0)
(1.00141 0.0203269 0)
(1.00116 0.017455 0)
(1.00082 0.0147087 0)
(1.00044 0.0121079 0)
(1.00008 0.00965682 0)
(0.999767 0.00734119 0)
(0.999538 0.00514102 0)
(0.99941 0.00301675 0)
(0.999377 0.000999707 0)
(1.00215 -0.00129354 0)
(1.00213 -0.00390304 0)
(1.00217 -0.00659981 0)
(1.00226 -0.00934933 0)
(1.00237 -0.0121935 0)
(1.00246 -0.0151411 0)
(1.00247 -0.0181929 0)
(1.00233 -0.021328 0)
(1.00192 -0.0245003 0)
(1.00117 -0.0275846 7.05657e-24)
(0.999746 -0.0304274 2.77474e-22)
(0.997428 -0.0327983 -3.5785e-22)
(0.994406 -0.0342815 -1.66705e-22)
(0.991078 -0.0344907 7.92653e-23)
(0.985692 -0.033397 -6.4683e-22)
(0.980298 -0.0301407 -3.29753e-22)
(0.975059 -0.0248746 8.65608e-22)
(0.970129 -0.0175065 -4.48082e-22)
(0.966225 -0.00787204 2.33175e-21)
(0.964484 0.00330351 -5.64976e-22)
(0.965582 0.0150103 7.67292e-22)
(0.96954 0.0258116 -3.20501e-21)
(0.975541 0.0345249 9.71278e-22)
(0.983322 0.0405558 -5.51785e-22)
(0.989814 0.0437568 3.11079e-22)
(0.995604 0.0447287 3.66411e-22)
(1.00071 0.0432854 9.69185e-23)
(1.00321 0.0406878 1.83182e-22)
(1.00507 0.0370139 2.02973e-22)
(1.00591 0.0329695 -1.88644e-22)
(1.00611 0.0289314 -2.54086e-24)
(1.00595 0.0250118 0)
(1.00548 0.0213282 0)
(1.00487 0.0178651 0)
(1.00423 0.0146384 0)
(1.00363 0.0116314 0)
(1.00312 0.00881624 0)
(1.00274 0.00616588 0)
(1.00249 0.00364543 0)
(1.0024 0.00118345 0)
(1.00603 -0.00155191 0)
(1.00607 -0.00475207 0)
(1.00622 -0.00800016 0)
(1.00645 -0.0113955 0)
(1.00673 -0.0149643 0)
(1.00702 -0.0187461 0)
(1.00724 -0.0227605 0)
(1.00727 -0.0270188 0)
(1.00699 -0.0314612 -3.91884e-24)
(1.00605 -0.0359882 9.04541e-23)
(1.00414 -0.0404065 -2.05698e-22)
(1.00134 -0.0443843 3.21423e-22)
(0.997315 -0.0478513 1.56546e-22)
(0.990607 -0.0507906 -1.02774e-21)
(0.984126 -0.0505864 4.76428e-22)
(0.975417 -0.0479751 -5.46355e-23)
(0.96535 -0.0428222 -7.51396e-22)
(0.955538 -0.0330955 1.08849e-22)
(0.947948 -0.0186455 1.71047e-21)
(0.944253 -0.00159557 -4.21196e-21)
(0.945731 0.0160513 3.6671e-21)
(0.951999 0.0324935 -1.48338e-21)
(0.962266 0.0461114 6.15905e-22)
(0.974571 0.0541959 7.46648e-22)
(0.986833 0.0575068 -6.90961e-23)
(0.997229 0.0582139 -5.40163e-22)
(1.00398 0.0561058 7.32313e-22)
(1.00937 0.0507307 -2.35207e-22)
(1.01174 0.045264 -4.26393e-23)
(1.01247 0.0395856 -6.98715e-23)
(1.01221 0.0341384 7.84369e-23)
(1.01155 0.0291586 -8.58355e-24)
(1.0107 0.0246207 0)
(1.00971 0.0204962 0)
(1.00871 0.0167261 0)
(1.0078 0.0132666 0)
(1.00703 0.0100705 0)
(1.00644 0.00705984 0)
(1.00606 0.00417918 0)
(1.00591 0.00140646 0)
(1.01059 -0.00184355 0)
(1.01072 -0.00549663 0)
(1.01104 -0.0092922 0)
(1.01151 -0.0132658 0)
(1.01211 -0.0174996 0)
(1.01277 -0.022083 0)
(1.0134 -0.0270866 0)
(1.01388 -0.0325441 4.30834e-25)
(1.01379 -0.038381 -1.14647e-22)
(1.01285 -0.0445043 2.15973e-22)
(1.01102 -0.0508651 -2.71209e-22)
(1.00787 -0.0575903 3.81569e-22)
(1.00308 -0.0643016 1.11421e-22)
(0.997578 -0.0695423 4.22229e-22)
(0.985709 -0.0744238 -2.16095e-21)
(0.971445 -0.0745935 9.083e-22)
(0.961025 -0.0622735 3.49698e-21)
(0.945956 -0.0526199 8.58946e-22)
(0.932297 -0.0347013 -2.19241e-22)
(0.923825 -0.0107535 -4.16242e-22)
(0.924141 0.015632 2.28024e-21)
(0.932726 0.0393119 -1.76689e-21)
(0.947132 0.0569498 1.07562e-21)
(0.963717 0.0668158 2.3367e-21)
(0.986388 0.0790649 -1.0818e-21)
(1.00124 0.0768698 1.19657e-21)
(1.01317 0.0692031 -1.48055e-22)
(1.01771 0.0626094 1.18775e-22)
(1.02055 0.0540008 -2.80266e-22)
(1.02109 0.046042 -2.23729e-22)
(1.02005 0.0388822 1.38297e-22)
(1.01845 0.0326197 -4.57792e-23)
(1.01679 0.0272122 -7.42268e-25)
(1.01524 0.0224991 0)
(1.01376 0.0182809 0)
(1.01246 0.0144499 0)
(1.01138 0.0109239 0)
(1.01055 0.00763964 0)
(1.01002 0.00450346 0)
(1.00978 0.00144929 0)
(1.01572 -0.00197333 0)
(1.01596 -0.00600112 0)
(1.01652 -0.0102228 0)
(1.01735 -0.014646 0)
(1.01841 -0.0194625 0)
(1.01966 -0.0247558 0)
(1.02099 -0.0306605 0)
(1.02212 -0.0372097 7.92206e-24)
(1.02243 -0.044363 1.59766e-22)
(1.02213 -0.0521569 -4.41955e-24)
(1.02109 -0.0608737 -3.66161e-22)
(1.01885 -0.0705466 2.95465e-23)
(1.0145 -0.0809162 -6.37707e-23)
(1.00404 -0.0872357 1.88888e-22)
(0.994328 -0.0932142 -3.93591e-22)
(0.977284 -0.0998788 -1.66284e-22)
(0.952928 -0.0996807 1.0986e-21)
(0.926569 -0.088936 -1.43249e-21)
(0.899251 -0.0655406 1.7392e-23)
(0.879904 -0.0277005 -2.96082e-21)
(0.878033 0.0177861 2.37631e-22)
(0.894647 0.0588228 -4.50588e-21)
(0.923655 0.0859718 -3.05874e-21)
(0.954513 0.098246 -3.97218e-22)
(0.982955 0.100368 -1.89586e-21)
(1.00428 0.093371 1.12402e-21)
(1.01736 0.0840319 -1.40584e-22)
(1.03124 0.0724457 -2.74471e-22)
(1.0326 0.0617724 3.94405e-22)
(1.03193 0.0517048 -2.01496e-22)
(1.02967 0.0427982 9.41775e-23)
(1.02676 0.0352146 -1.33705e-22)
(1.02376 0.0289392 2.2209e-23)
(1.02132 0.0236997 0)
(1.01925 0.019168 0)
(1.01746 0.0151168 0)
(1.01601 0.0114202 0)
(1.01492 0.00799832 0)
(1.01421 0.00475161 0)
(1.01389 0.00162924 0)
(1.02117 -0.00203247 0)
(1.02158 -0.00629609 0)
(1.02243 -0.0106007 0)
(1.02372 -0.0153297 0)
(1.02542 -0.0204988 0)
(1.02749 -0.0262895 0)
(1.02981 -0.0328424 1.28794e-23)
(1.03174 -0.040212 1.59097e-23)
(1.03298 -0.0484047 -2.13641e-22)
(1.03413 -0.0578562 4.73474e-23)
(1.03485 -0.069197 3.04568e-24)
(1.03453 -0.0826316 2.95647e-22)
(1.03191 -0.0989249 -2.23138e-22)
(1.01985 -0.111485 -5.43597e-23)
(1.0083 -0.124651 1.09033e-21)
(0.988658 -0.140743 -2.77531e-22)
(0.958448 -0.144566 1.32054e-21)
(0.912787 -0.141834 1.74836e-21)
(0.861634 -0.116697 1.11398e-21)
(0.817266 -0.0598603 1.84963e-21)
(0.805956 0.0198194 8.74292e-22)
(0.835629 0.0908714 -3.05973e-21)
(0.88842 0.131671 -2.85197e-21)
(0.945642 0.144286 -7.52998e-22)
(0.98703 0.136197 2.58017e-22)
(1.02048 0.121607 5.12502e-22)
(1.03501 0.10218 -2.96594e-22)
(1.04883 0.0839893 -7.29669e-23)
(1.04801 0.0674189 9.55533e-23)
(1.04505 0.0551846 -5.51595e-23)
(1.04084 0.045067 -8.51253e-23)
(1.03621 0.036611 6.34066e-23)
(1.03158 0.029669 -1.45149e-23)
(1.02778 0.0240766 4.18025e-24)
(1.02496 0.0194015 0)
(1.02263 0.0152696 0)
(1.02077 0.0115301 0)
(1.01939 0.00804142 0)
(1.0185 0.00473916 0)
(1.01809 0.00149151 0)
(1.0267 -0.00213792 0)
(1.02728 -0.00619461 0)
(1.02853 -0.0106234 0)
(1.03039 -0.0153031 0)
(1.03285 -0.0204735 0)
(1.03592 -0.0263599 0)
(1.03937 -0.0331301 -1.97396e-25)
(1.04235 -0.0408057 -2.07179e-23)
(1.04527 -0.0497171 7.29923e-23)
(1.04882 -0.0605925 9.92907e-23)
(1.05252 -0.0739279 -2.65697e-22)
(1.05582 -0.0906846 9.26327e-23)
(1.05802 -0.112752 9.2518e-23)
(1.04833 -0.131717 -4.22582e-22)
(1.04007 -0.154788 1.02506e-22)
(1.01551 -0.182869 6.99413e-22)
(0.979313 -0.20628 -1.9817e-22)
(0.915788 -0.230478 -2.46151e-22)
(0.815401 -0.225068 -4.8991e-22)
(0.698535 -0.144263 -4.19782e-22)
(0.649679 0.0213958 5.10858e-22)
(0.723715 0.176888 2.35972e-22)
(0.852554 0.238662 -5.90047e-22)
(0.954586 0.226529 2.26748e-22)
(1.02091 0.19061 1.26605e-22)
(1.05757 0.151403 -5.51787e-22)
(1.06601 0.115063 6.28086e-23)
(1.07288 0.0870802 5.79288e-23)
(1.06649 0.0681798 -1.12951e-22)
(1.05989 0.0550521 9.79182e-25)
(1.05297 0.0446163 9.87019e-23)
(1.04623 0.036054 2.42552e-23)
(1.03987 0.0290484 -3.44358e-23)
(1.03445 0.0234288 -4.77405e-24)
(1.03069 0.0188374 0)
(1.02778 0.014824 0)
(1.0255 0.0111959 0)
(1.02383 0.00783437 0)
(1.02275 0.0046598 0)
(1.02225 0.00159678 0)
(1.03197 -0.00178735 0)
(1.03275 -0.00568816 0)
(1.03435 -0.00968347 0)
(1.03679 -0.0139982 0)
(1.04011 -0.0188918 0)
(1.04432 -0.0245103 0)
(1.04896 -0.0309797 1.3948e-24)
(1.05338 -0.0384117 -1.29388e-23)
(1.05877 -0.0474883 2.75893e-23)
(1.06561 -0.0590214 6.66232e-23)
(1.07352 -0.0734084 -7.15728e-23)
(1.08193 -0.0911576 -4.76166e-24)
(1.09091 -0.113972 -2.575e-23)
(1.0887 -0.140873 1.46085e-22)
(1.08854 -0.173731 -1.4612e-22)
(1.07788 -0.217774 -1.53733e-22)
(1.05111 -0.274519 -6.2931e-23)
(0.991183 -0.363486 -5.45285e-23)
(0.829003 -0.463936 -1.44855e-21)
(0.465781 -0.44141 -5.00878e-20)
(0.187051 0.0402466 -2.48616e-20)
(0.512241 0.496804 -2.23663e-20)
(0.887821 0.483359 8.23597e-22)
(1.05392 0.348164 -4.64652e-23)
(1.10773 0.238435 -3.93015e-23)
(1.11944 0.159139 -5.11059e-23)
(1.10877 0.117433 1.60527e-22)
(1.09983 0.0773166 1.3787e-22)
(1.08658 0.0616733 -1.57021e-22)
(1.075 0.0497096 5.53222e-23)
(1.06484 0.0404272 -2.08562e-23)
(1.05593 0.0330516 -2.48881e-24)
(1.04795 0.026879 -1.34217e-23)
(1.04102 0.0217314 6.92378e-24)
(1.03618 0.0175145 0)
(1.03271 0.0138612 0)
(1.03004 0.0105124 0)
(1.0281 0.00741551 0)
(1.02684 0.00437919 0)
(1.02626 0.00148736 0)
(1.03672 -0.00165462 0)
(1.03769 -0.00486733 0)
(1.03966 -0.00818232 0)
(1.04271 -0.0118599 0)
(1.04685 -0.0159816 0)
(1.05215 -0.0207568 0)
(1.05795 -0.0262911 4.70485e-24)
(1.06422 -0.0328764 6.74894e-24)
(1.07252 -0.0412379 9.79377e-24)
(1.08307 -0.0520693 -8.79444e-24)
(1.09588 -0.0659114 5.3953e-24)
(1.11047 -0.0829663 -7.41474e-24)
(1.12666 -0.103104 -1.26742e-23)
(1.13269 -0.133334 -4.03908e-24)
(1.14801 -0.166553 -1.10171e-22)
(1.15804 -0.216212 1.44424e-22)
(1.17282 -0.286408 -1.62929e-22)
(1.2024 -0.411772 8.11498e-22)
(0.868613 -0.458077 -7.28975e-20)
(1.15183 0.60722 2.46419e-20)
(1.30494 0.36975 5.58607e-23)
(1.23986 0.21179 8.52805e-23)
(1.19257 0.126456 1.43801e-22)
(1.15417 0.0918614 -7.0387e-25)
(1.12557 0.0555867 -3.50848e-23)
(1.10414 0.0457736 3.33449e-23)
(1.08753 0.0382374 5.62964e-24)
(1.07462 0.032359 1.12989e-23)
(1.06404 0.0275138 -3.30323e-24)
(1.05492 0.023106 3.14882e-24)
(1.04695 0.0190612 1.70419e-24)
(1.04119 0.0155415 0)
(1.03723 0.0123824 0)
(1.0342 0.00940204 0)
(1.03202 0.00655941 0)
(1.03064 0.00392153 0)
(1.03 0.00115543 0)
(1.04031 -0.00109453 0)
(1.04158 -0.00349195 0)
(1.04399 -0.00599456 0)
(1.04755 -0.00869307 0)
(1.05236 -0.0116643 0)
(1.05858 -0.015105 0)
(1.06556 -0.0191573 1.77212e-24)
(1.07387 -0.0242499 -7.20993e-24)
(1.08514 -0.0310084 -4.13488e-24)
(1.09928 -0.039791 -3.49847e-24)
(1.11657 -0.0510053 5.87156e-24)
(1.13677 -0.0648565 6.38632e-23)
(1.15998 -0.0808054 -9.32663e-23)
(1.17202 -0.10814 -1.14262e-22)
(1.20102 -0.133286 -3.93948e-22)
(1.22719 -0.171852 3.53492e-23)
(1.2716 -0.215873 3.45941e-24)
(1.33261 -0.254373 1.47677e-21)
(0.00643846 0.0222815 2.54965e-19)
(0.0837274 0.00954625 -2.35689e-19)
(1.48537 0.157651 -4.76567e-22)
(1.33384 0.0972424 9.70969e-24)
(1.24151 0.0536281 -2.76264e-22)
(1.1855 0.0417139 -4.84139e-22)
(1.13802 0.0229083 -1.2467e-22)
(1.11282 0.0232641 1.1628e-22)
(1.09423 0.0224529 -3.90017e-23)
(1.08032 0.0214422 -4.85962e-24)
(1.0692 0.0200558 2.32753e-23)
(1.05988 0.0181141 2.08119e-23)
(1.05165 0.0156623 1.84053e-24)
(1.04547 0.0131094 0)
(1.04122 0.0106348 0)
(1.03799 0.00823035 0)
(1.03564 0.00586286 0)
(1.03411 0.00353493 0)
(1.03336 0.00133098 0)
(1.04342 -0.000813564 -3.0794e-25)
(1.04453 -0.0019823 0)
(1.04699 -0.00332124 0)
(1.05078 -0.00472168 0)
(1.05603 -0.00624796 0)
(1.06287 -0.00796516 0)
(1.07104 -0.0101039 -3.15864e-25)
(1.08138 -0.0131251 -1.43669e-23)
(1.0952 -0.0174316 6.3581e-23)
(1.1122 -0.0230291 -1.67721e-23)
(1.13256 -0.0300092 -2.47927e-23)
(1.15673 -0.0387646 -1.34371e-22)
(1.18431 -0.0485489 3.34776e-23)
(1.20268 -0.0711584 4.0481e-23)
(1.2368 -0.0881752 3.52765e-22)
(1.26665 -0.114545 -2.69671e-22)
(1.30857 -0.13548 4.5838e-22)
(1.17025 -0.107095 -3.3251e-23)
(-0.0102379 0.00712542 -3.04349e-21)
(0.358306 -0.0297537 1.28902e-20)
(1.45247 -0.0592547 -4.28433e-22)
(1.33956 -0.0404995 -8.76407e-22)
(1.24154 -0.032565 3.24307e-22)
(1.18628 -0.0171835 8.0543e-22)
(1.13496 -0.0123894 5.4256e-23)
(1.1112 -0.000453415 -5.58329e-22)
(1.09358 0.00605939 2.88973e-22)
(1.08052 0.0101261 -5.62443e-25)
(1.07051 0.0121741 -1.27011e-22)
(1.0623 0.0127517 1.97068e-23)
(1.05481 0.0120642 9.19212e-24)
(1.04879 0.0104911 0)
(1.0445 0.00867565 0)
(1.04119 0.00679674 0)
(1.03878 0.00492829 0)
(1.03716 0.00292597 0)
(1.0364 0.000980904 0)
(1.04476 0.000216142 1.11075e-26)
(1.04608 1.38944e-05 0)
(1.04846 -0.000187534 0)
(1.05224 -0.000262436 0)
(1.05759 -0.000230241 0)
(1.06471 -8.33862e-06 0)
(1.07392 0.000143497 3.68516e-24)
(1.08565 -0.000351756 4.33778e-24)
(1.10099 -0.00147972 -1.71975e-23)
(1.11951 -0.00302857 4.07174e-23)
(1.14142 -0.00482547 -4.14649e-23)
(1.16779 -0.00745775 -2.7772e-22)
(1.19748 -0.0104243 2.15151e-22)
(1.22078 -0.027669 -7.74617e-22)
(1.25831 -0.0388591 -1.22328e-21)
(1.29062 -0.0604707 -7.80131e-22)
(1.3236 -0.0794424 -5.40647e-23)
(1.00419 -0.0577831 -8.52711e-23)
(0.0385371 -0.0762371 -1.19538e-21)
(-0.195102 -0.0644833 -3.06748e-21)
(-0.1803 0.152114 -9.42422e-23)
(0.212297 0.116567 2.31105e-21)
(0.800568 -0.171085 -1.36921e-21)
(1.38778 -0.234117 -9.1376e-22)
(1.27966 -0.162392 1.39387e-22)
(1.19477 -0.104567 -9.86518e-23)
(1.15489 -0.0648228 -2.67527e-21)
(1.1123 -0.036741 4.70402e-22)
(1.09715 -0.0185827 -7.29053e-22)
(1.08529 -0.00698611 2.83178e-22)
(1.07595 0.000894611 -1.56733e-23)
(1.06834 0.00559452 1.82188e-23)
(1.06203 0.00808273 3.18775e-23)
(1.0563 0.00878343 -1.02581e-23)
(1.05125 0.00805278 0)
(1.04707 0.00669502 0)
(1.04375 0.00519618 0)
(1.04132 0.00364479 0)
(1.03979 0.00217035 0)
(1.0391 0.000507771 0)
(1.04429 0.00045101 1.10898e-23)
(1.04554 0.00153407 0)
(1.04793 0.00278042 0)
(1.05158 0.00410883 0)
(1.05667 0.00572757 0)
(1.06353 0.00787832 0)
(1.07307 0.0104549 -2.85509e-25)
(1.08551 0.012844 -1.78546e-23)
(1.10101 0.0153055 -4.18136e-23)
(1.11955 0.018349 1.24851e-22)
(1.14142 0.0224211 1.42325e-23)
(1.16753 0.0267804 1.67096e-22)
(1.19827 0.0326309 -1.74872e-22)
(1.22838 0.0223669 2.82542e-22)
(1.27091 0.0197935 1.19257e-22)
(1.32593 0.00995683 9.96248e-22)
(1.3647 -0.0243322 -1.67785e-21)
(0.950188 -0.0876977 -1.36241e-20)
(0.267896 -0.317296 -2.21433e-22)
(-0.296 -0.474692 4.4561e-21)
(-0.208681 -0.542305 8.64371e-22)
(0.418528 -0.561167 -4.05703e-21)
(1.04065 -0.583767 -1.56228e-21)
(1.18436 -0.393545 4.62775e-22)
(1.15186 -0.242251 3.07222e-21)
(1.11119 -0.139392 2.68141e-21)
(1.10204 -0.0825576 7.44684e-23)
(1.07886 -0.0415508 4.41445e-22)
(1.07524 -0.0220866 -7.24315e-22)
(1.07094 -0.0109001 9.02442e-23)
(1.06709 -0.00328706 -2.83585e-22)
(1.06362 0.00211982 8.40483e-23)
(1.05993 0.00513221 -1.19519e-23)
(1.05656 0.0063459 -4.05235e-25)
(1.05305 0.00610483 0)
(1.04927 0.00516239 0)
(1.04612 0.00409341 0)
(1.04372 0.00291491 0)
(1.04205 0.00178713 0)
(1.04114 0.000751351 1.24356e-23)
(1.04258 0.000831673 -1.1091e-23)
(1.04363 0.00273045 0)
(1.04567 0.00496299 0)
(1.04884 0.00751992 0)
(1.05325 0.0105723 0)
(1.05922 0.0143916 0)
(1.06804 0.0191479 0)
(1.08028 0.0245426 2.37288e-24)
(1.09478 0.0307469 1.1029e-24)
(1.11149 0.0385186 6.43528e-23)
(1.1313 0.0485478 -1.88511e-22)
(1.15507 0.0605617 8.96021e-23)
(1.1842 0.0772391 6.47226e-22)
(1.22311 0.0957404 -5.0628e-22)
(1.26624 0.0933599 5.44992e-22)
(1.33191 0.10862 1.70625e-21)
(1.41258 0.0924113 -2.25791e-21)
(1.2187 0.00980299 2.22411e-20)
(0.61173 -0.263949 8.26725e-22)
(0.0469019 -0.590934 -2.87217e-21)
(-0.0890363 -0.867524 7.12804e-21)
(0.291959 -0.826862 3.18262e-21)
(0.753451 -0.574164 -6.24565e-21)
(0.909059 -0.363605 -7.41712e-21)
(0.97534 -0.199925 -5.82151e-22)
(1.01579 -0.113553 1.67114e-21)
(1.0308 -0.0438153 2.1765e-22)
(1.04906 -0.0222704 -1.54193e-22)
(1.05586 -0.0114089 -2.25646e-22)
(1.05863 -0.00465337 2.38217e-22)
(1.05912 -0.00043727 -6.42865e-23)
(1.05813 0.00216814 -7.6902e-24)
(1.05701 0.00398142 -2.034e-23)
(1.0562 0.00479371 0)
(1.054 0.00446347 0)
(1.05076 0.00376132 0)
(1.04783 0.00304143 0)
(1.04552 0.00226745 0)
(1.04395 0.00142858 0)
(1.0432 0.000613534 3.82156e-23)
(1.03976 0.00112471 -2.45401e-24)
(1.04053 0.00364685 0)
(1.04211 0.00649743 0)
(1.04452 0.00980103 0)
(1.04784 0.0137968 0)
(1.05239 0.0187606 0)
(1.0596 0.0250083 0)
(1.07022 0.0326025 0)
(1.08252 0.0419903 -1.12858e-24)
(1.0959 0.053872 4.63645e-23)
(1.11128 0.0695056 -3.72683e-23)
(1.12984 0.0890914 -1.39275e-22)
(1.15231 0.115715 1.41014e-22)
(1.18378 0.151683 -2.04496e-23)
(1.22861 0.170197 -5.06826e-22)
(1.28829 0.217254 -5.0573e-22)
(1.37777 0.25991 -5.73501e-22)
(1.39742 0.307088 -3.41766e-21)
(1.03018 0.134652 -5.19103e-21)
(0.529442 -0.185662 1.39608e-20)
(0.148946 -0.47798 1.44972e-21)
(0.0899516 -0.563764 6.67595e-21)
(0.382434 -0.407585 1.62295e-21)
(0.717311 -0.190809 -1.37463e-20)
(0.860422 -0.0722415 -4.95593e-22)
(0.9441 -0.0297955 -5.1441e-22)
(1.00636 0.0176464 2.05181e-22)
(1.03474 0.0107328 -2.48864e-22)
(1.04838 0.00961795 -7.12046e-23)
(1.05438 0.00768246 1.05837e-22)
(1.05609 0.00615633 -5.08455e-23)
(1.05611 0.00511135 3.26448e-24)
(1.0561 0.00446895 0)
(1.05621 0.00374621 0)
(1.05456 0.00295062 0)
(1.05147 0.00228664 0)
(1.04855 0.00174432 1.4174e-23)
(1.04634 0.00121238 1.96017e-23)
(1.04492 0.000668736 1.16887e-23)
(1.04412 6.26303e-05 0)
(1.03629 0.00131336 0)
(1.03668 0.00408097 0)
(1.03765 0.00718458 0)
(1.03917 0.0107687 0)
(1.04125 0.0151233 0)
(1.04416 0.0204829 0)
(1.04926 0.0272902 0)
(1.05726 0.0359413 0)
(1.06605 0.0471336 4.2615e-26)
(1.07461 0.0617172 4.6996e-25)
(1.08346 0.0811202 -7.60804e-24)
(1.09327 0.105986 -2.30793e-23)
(1.1047 0.138612 5.67407e-23)
(1.11985 0.18339 2.60174e-22)
(1.15675 0.223188 3.93698e-22)
(1.18828 0.291168 -4.94966e-23)
(1.23343 0.369539 -8.03264e-22)
(1.31281 0.506461 2.95412e-22)
(1.21922 0.606894 -4.88377e-22)
(0.880456 0.546659 2.2558e-20)
(0.482525 0.346741 -4.43902e-22)
(0.21949 0.102829 6.74066e-21)
(0.261609 -0.0592108 -2.22272e-21)
(0.507475 -0.0381076 -5.30442e-23)
(0.811853 0.105307 3.93306e-22)
(0.934208 0.090974 1.06539e-21)
(1.02279 0.0778844 7.14016e-23)
(1.04819 0.0466161 3.8839e-23)
(1.058 0.0316827 7.34821e-23)
(1.0605 0.0197917 -2.33912e-23)
(1.05996 0.0123197 -4.18326e-24)
(1.05858 0.00752818 -5.5439e-26)
(1.0578 0.00446201 0)
(1.05743 0.00236855 0)
(1.05536 0.00113649 0)
(1.05202 0.000479483 0)
(1.04896 8.75952e-05 0)
(1.04664 -0.000149739 0)
(1.04504 -0.000176455 0)
(1.04402 -0.000123945 -2.10515e-24)
(1.03252 0.00131587 0)
(1.03259 0.00403509 0)
(1.03295 0.00696291 0)
(1.03359 0.0103193 0)
(1.03441 0.0143902 0)
(1.03562 0.0193519 0)
(1.03831 0.0257733 0)
(1.04292 0.0344265 0)
(1.0472 0.0460175 0)
(1.04998 0.0612026 0)
(1.0513 0.0813007 -3.29849e-24)
(1.0507 0.107481 1.19278e-23)
(1.04955 0.140783 7.30697e-23)
(1.04659 0.187699 -2.96441e-24)
(1.0663 0.2368 4.42766e-21)
(1.07591 0.305124 -6.84469e-22)
(1.08701 0.383201 1.602e-21)
(1.06167 0.516011 -2.34857e-22)
(1.03742 0.695978 -3.29715e-21)
(0.922576 0.80792 -2.88482e-21)
(0.735613 0.775617 -2.72499e-21)
(0.567885 0.607225 4.01119e-21)
(0.503439 0.388231 -1.56976e-21)
(0.491232 0.237267 -4.9e-22)
(0.76932 0.24476 1.16737e-20)
(1.0079 0.190371 9.00602e-22)
(1.08343 0.109114 -1.9743e-22)
(1.08903 0.0677399 1.96902e-22)
(1.08406 0.0426063 -1.11529e-22)
(1.0769 0.0247699 -3.02529e-25)
(1.07032 0.0137451 0)
(1.06506 0.00667097 0)
(1.06178 0.00216237 0)
(1.05962 -0.000497779 0)
(1.05633 -0.00159847 0)
(1.05237 -0.00190406 0)
(1.04897 -0.00184113 0)
(1.0464 -0.00150935 0)
(1.0446 -0.000938918 0)
(1.04351 -0.000286192 0)
(1.02881 0.0011505 0)
(1.02871 0.00340287 0)
(1.02868 0.00576097 0)
(1.02864 0.00839125 0)
(1.02845 0.0115117 0)
(1.02808 0.015293 0)
(1.02815 0.020327 0)
(1.02887 0.0276929 0)
(1.02836 0.038006 0)
(1.02547 0.0515901 0)
(1.01956 0.0693622 0)
(1.00958 0.0927314 1.06993e-24)
(0.995504 0.12211 3.83463e-24)
(0.97624 0.165893 -1.67294e-23)
(0.976976 0.216042 1.7312e-21)
(0.964521 0.281145 -1.59949e-21)
(0.960564 0.367766 1.39584e-21)
(0.905539 0.43387 -7.52028e-22)
(0.86524 0.509819 -5.77368e-22)
(0.824098 0.5998 1.24389e-21)
(0.76767 0.665184 -6.4645e-22)
(0.720313 0.671371 -3.13917e-21)
(0.687815 0.617592 -6.92721e-22)
(0.669432 0.506358 -1.23373e-21)
(0.873767 0.317014 7.65941e-22)
(1.13634 0.203006 -1.41917e-21)
(1.16597 0.090052 -2.07605e-22)
(1.14125 0.0568 1.09542e-23)
(1.11629 0.0320175 -3.51277e-24)
(1.09773 0.0163355 0)
(1.08367 0.00646803 0)
(1.07352 6.45429e-05 0)
(1.06673 -0.00382339 0)
(1.0618 -0.00555269 0)
(1.05675 -0.00558412 0)
(1.05196 -0.00494659 0)
(1.04815 -0.00403112 0)
(1.04535 -0.00292263 0)
(1.04346 -0.00172423 0)
(1.04242 -0.000519639 0)
(1.02593 0.000710106 0)
(1.02584 0.00212559 0)
(1.0257 0.00357075 0)
(1.02534 0.00512113 0)
(1.02452 0.00687051 0)
(1.02303 0.00892268 0)
(1.02084 0.0116916 0)
(1.01802 0.0162456 0)
(1.0134 0.0231479 0)
(1.0059 0.0324598 0)
(0.994148 0.0447979 -3.51613e-23)
(0.976536 0.0612391 0)
(0.951628 0.0826388 0)
(0.919929 0.113898 1.04748e-21)
(0.877932 0.155855 2.97561e-22)
(0.850066 0.223957 2.73899e-21)
(0.837375 0.303855 -1.6683e-22)
(0.781505 0.410587 4.72797e-22)
(0.712742 0.527702 4.99346e-22)
(0.677228 0.640624 8.92428e-21)
(0.687186 0.708674 1.08767e-21)
(0.737277 0.697385 -1.31261e-21)
(0.817882 0.610624 -5.38281e-22)
(0.935785 0.444901 5.16988e-22)
(1.12183 0.238908 -9.00022e-23)
(1.30269 0.0595369 6.21692e-22)
(1.23057 0.0209463 -6.30618e-22)
(1.17803 0.0110649 0)
(1.13932 -0.000900005 0)
(1.11265 -0.00663847 1.31708e-22)
(1.09318 -0.0105079 0)
(1.0793 -0.0127373 0)
(1.06945 -0.0134192 0)
(1.06193 -0.0125367 0)
(1.05544 -0.0105963 0)
(1.05009 -0.00852116 0)
(1.04607 -0.00649664 0)
(1.04322 -0.00454468 -2.33279e-24)
(1.04139 -0.0026657 -1.67357e-24)
(1.04051 -0.00086547 0)
(1.02471 0.000148882 0)
(1.02463 0.000615104 0)
(1.02446 0.00100649 0)
(1.02402 0.00134578 0)
(1.02308 0.00155466 0)
(1.02122 0.00161697 0)
(1.01788 0.00166993 0)
(1.01294 0.00236928 0)
(1.00588 0.00409603 0)
(0.995703 0.00670318 0)
(0.980479 0.0103157 1.25563e-23)
(0.957566 0.0153351 0)
(0.924577 0.0235604 0)
(0.883948 0.0391006 9.45669e-22)
(0.816607 0.0615132 -4.49507e-21)
(0.711759 0.106712 -3.53191e-21)
(0.618971 0.171492 0)
(0.556361 0.223323 4.51929e-22)
(0.546357 0.246512 3.60885e-21)
(0.620355 0.235678 -6.79984e-21)
(0.77742 0.191309 1.74253e-21)
(0.956066 0.150006 2.40467e-20)
(1.13055 0.0434499 -2.47681e-21)
(1.27507 -0.0483444 0)
(1.36852 -0.104976 6.67706e-22)
(1.32656 -0.0963868 -1.18158e-20)
(1.23813 -0.0704501 1.99325e-23)
(1.17972 -0.0534989 0)
(1.14096 -0.0450742 0)
(1.11319 -0.0373426 5.8826e-22)
(1.09293 -0.0324464 0)
(1.07807 -0.0283265 0)
(1.06693 -0.0243025 0)
(1.05825 -0.0200313 0)
(1.05145 -0.0157951 0)
(1.04633 -0.0120993 4.22034e-24)
(1.0426 -0.008885 -5.48427e-24)
(1.03998 -0.00607602 0)
(1.03832 -0.00353974 0)
(1.03754 -0.00116099 -1.28878e-23)
(1.02484 -0.000149702 0)
(1.02477 -0.000511957 0)
(1.02472 -0.00108083 0)
(1.02455 -0.00190628 0)
(1.02408 -0.00318398 0)
(1.02274 -0.0050601 0)
(1.01965 -0.00765775 -2.07518e-24)
(1.01461 -0.0108803 0)
(1.00761 -0.0148738 0)
(0.997808 -0.0201867 0)
(0.982929 -0.027705 0)
(0.959572 -0.0386514 0)
(0.921216 -0.051477 0)
(0.863405 -0.0615161 6.751e-21)
(0.781655 -0.0609667 -5.22682e-23)
(0.686386 -0.057156 -3.35003e-22)
(0.623931 -0.0978058 0)
(0.603552 -0.15664 0)
(0.618165 -0.224681 -7.04112e-22)
(0.699278 -0.290093 1.26852e-20)
(0.854973 -0.345114 7.97837e-20)
(1.0234 -0.353748 -1.00511e-20)
(1.17599 -0.374829 0)
(1.27858 -0.348655 0)
(1.30796 -0.292 0)
(1.25424 -0.210278 1.96222e-23)
(1.18802 -0.147899 1.17642e-22)
(1.14685 -0.110209 -1.96357e-23)
(1.11934 -0.0838264 0)
(1.09775 -0.0648205 0)
(1.08147 -0.0515927 0)
(1.06876 -0.0414948 0)
(1.0586 -0.0332243 1.85202e-23)
(1.05058 -0.0261327 7.58958e-24)
(1.04473 -0.0200267 3.82354e-25)
(1.04067 -0.0149737 0)
(1.03779 -0.0107583 0)
(1.03579 -0.00718935 0)
(1.03453 -0.00410783 0)
(1.0339 -0.00124928 0)
(1.02555 -0.000262466 0)
(1.0258 -0.00113632 0)
(1.02619 -0.00233097 0)
(1.0267 -0.00398217 0)
(1.02721 -0.0063261 0)
(1.02718 -0.00964024 0)
(1.02562 -0.014271 0)
(1.02251 -0.0205662 0)
(1.01853 -0.0293092 -2.84485e-24)
(1.01333 -0.0417059 0)
(1.00479 -0.0595206 0)
(0.989322 -0.0859683 0)
(0.953407 -0.120096 -2.97299e-21)
(0.884421 -0.161443 -1.11825e-20)
(0.811019 -0.193533 0)
(0.762601 -0.243385 0)
(0.747435 -0.333752 0)
(0.731559 -0.416609 0)
(0.734554 -0.493564 9.9528e-21)
(0.777631 -0.549106 2.01531e-20)
(0.887135 -0.579899 -6.60114e-21)
(1.00125 -0.563667 1.69639e-21)
(1.09854 -0.523941 0)
(1.15283 -0.442118 0)
(1.15956 -0.342532 0)
(1.13016 -0.250289 0)
(1.10808 -0.184844 -2.01977e-23)
(1.09384 -0.139626 2.66988e-22)
(1.08177 -0.105117 0)
(1.07083 -0.0803656 -5.30756e-25)
(1.06166 -0.0620459 1.57354e-24)
(1.05357 -0.0483246 2.12951e-24)
(1.04633 -0.0376249 0)
(1.04032 -0.0290806 0)
(1.03622 -0.0220757 0)
(1.03368 -0.0164036 0)
(1.03197 -0.011751 0)
(1.03085 -0.00782369 0)
(1.03026 -0.00445306 0)
(1.03009 -0.00141167 0)
(1.02662 -0.000407131 0)
(1.02736 -0.00140733 0)
(1.02839 -0.00273603 0)
(1.02979 -0.00459329 0)
(1.0316 -0.00724335 0)
(1.0334 -0.0110465 0)
(1.03436 -0.0165308 0)
(1.03473 -0.0243114 0)
(1.03615 -0.0353884 0)
(1.03912 -0.051383 0)
(1.04261 -0.0743156 -4.55336e-23)
(1.04307 -0.108538 -4.4641e-22)
(1.02293 -0.155504 -3.37553e-21)
(0.96029 -0.221317 1.76337e-21)
(0.893831 -0.291783 0)
(0.867905 -0.367457 0)
(0.8493 -0.444035 0)
(0.817031 -0.499919 0)
(0.807308 -0.543541 2.08426e-21)
(0.814305 -0.573691 -6.90711e-21)
(0.864632 -0.574271 5.08493e-21)
(0.925198 -0.535403 -2.3534e-20)
(0.981641 -0.472804 0)
(1.01093 -0.390148 0)
(1.02461 -0.304865 0)
(1.02757 -0.236123 0)
(1.03379 -0.183554 -8.74235e-22)
(1.0371 -0.140736 -1.98283e-21)