/*--------------------------------*- C++ -*----------------------------------*\
| =========                 |                                                 |
| \\      /  F ield         | OpenFOAM: The Open Source CFD Toolbox           |
|  \\    /   O peration     | Version:  v2106                                 |
|   \\  /    A nd           | Website:  www.openfoam.com                      |
|    \\/     M anipulation  |                                                 |
\*---------------------------------------------------------------------------*/
FoamFile
{
    version     2.0;
    format      ascii;
    arch        "LSB;label=32;scalar=64";
    class       volScalarField;
    location    "0";
    object      p;
}
// * * * * * * * * * * * * * * * * * * * * * * * * * * * * * * * * * * * * * //

dimensions      [0 2 -2 0 0 0 0];

internalField   nonuniform List<scalar> 
11644
(
0.145098
0.14473
0.143837
0.142384
0.140254
0.137346
0.133463
0.128527
0.122599
0.115643
0.107556
0.0983719
0.0881839
0.0769844
0.0647568
0.0521262
0.040042
0.0261459
0.00993938
-0.00743962
-0.0228108
-0.0360693
-0.0473168
-0.0592446
-0.0688078
-0.075232
-0.0789375
-0.0804277
-0.080219
-0.0785436
-0.0760383
-0.0730418
-0.0698744
-0.0668018
-0.0639827
-0.0614475
-0.0593413
-0.0576938
-0.0565992
-0.0561744
0.146165
0.145965
0.145172
0.143721
0.141665
0.139027
0.135637
0.131312
0.125816
0.119208
0.111385
0.102141
0.091522
0.0796571
0.0668481
0.0535819
0.0387979
0.0207536
0.00556634
-0.0121521
-0.029608
-0.0417582
-0.0519731
-0.063097
-0.0718773
-0.077345
-0.0804243
-0.0813803
-0.0803523
-0.0780695
-0.0750972
-0.0719071
-0.0686334
-0.0654331
-0.0625858
-0.0600638
-0.0579935
-0.0564297
-0.0554913
-0.0552012
0.146511
0.146546
0.146166
0.14525
0.143827
0.141894
0.139436
0.136302
0.132274
0.126989
0.119961
0.111101
0.100234
0.0883543
0.0747798
0.0581462
0.0384801
0.0181823
-0.000467686
-0.0168965
-0.0332745
-0.0476378
-0.061426
-0.0703298
-0.0776743
-0.0818696
-0.0825951
-0.0817118
-0.0795426
-0.0767007
-0.0734421
-0.069919
-0.0665901
-0.0635259
-0.060764
-0.0584957
-0.0566687
-0.0553215
-0.0545492
-0.0542672
0.147483
0.14722
0.146921
0.146566
0.145986
0.145072
0.143855
0.142215
0.139988
0.136668
0.132023
0.124842
0.114743
0.100106
0.0820228
0.0621783
0.0397633
0.0169825
-0.0022114
-0.0262795
-0.0423655
-0.0587588
-0.068908
-0.0755175
-0.0805416
-0.0833963
-0.084163
-0.0821378
-0.0787263
-0.0749783
-0.0716202
-0.0681973
-0.0648571
-0.0618783
-0.0591788
-0.0569227
-0.0550797
-0.0537401
-0.0527647
-0.0524004
0.149246
0.149051
0.14864
0.148244
0.147991
0.147825
0.14777
0.147681
0.147409
0.146634
0.144708
0.139754
0.129737
0.113217
0.0907703
0.0653668
0.0421259
0.00943423
-0.0196827
-0.0434598
-0.0633873
-0.069384
-0.0775107
-0.0742598
-0.0769283
-0.0778145
-0.0780101
-0.0785811
-0.0780896
-0.0754617
-0.0715413
-0.067777
-0.064201
-0.0607351
-0.0577294
-0.0550533
-0.0528066
-0.0510226
-0.0496796
-0.0487034
0.151085
0.150684
0.150375
0.150205
0.150265
0.150448
0.150983
0.151921
0.153282
0.154663
0.154136
0.14995
0.141288
0.126589
0.0998826
0.0667964
0.0347959
-0.00622162
-0.0396937
-0.0669158
-0.0806797
-0.0827004
-0.0800092
-0.0649022
-0.0627466
-0.0629988
-0.0665541
-0.0719114
-0.0759057
-0.0770475
-0.0740483
-0.0691191
-0.0643074
-0.0598262
-0.0558404
-0.0524145
-0.049706
-0.0474636
-0.0461538
-0.0454149
0.152207
0.152158
0.151734
0.151481
0.151155
0.151375
0.152036
0.153456
0.155666
0.156185
0.153499
0.147197
0.141804
0.13724
0.120215
0.0892723
0.0449022
0.00722767
-0.0245399
-0.0529757
-0.0764988
-0.0724726
-0.0664408
-0.056574
-0.0308795
-0.032681
-0.0454512
-0.0625596
-0.0734183
-0.0775835
-0.0762871
-0.070942
-0.0643705
-0.0584832
-0.0533548
-0.0492714
-0.0460533
-0.0440668
-0.0422391
-0.0418136
0.153567
0.153088
0.152235
0.151296
0.150461
0.150046
0.149946
0.150703
0.151375
0.148453
0.141398
0.132636
0.11655
0.131215
0.108549
0.0953294
0.0467561
-0.00380603
-0.0442757
-0.0728725
-0.0843727
-0.0759164
-0.0589048
-0.0559745
-0.0528422
-0.0308068
-0.0469125
-0.067591
-0.0737009
-0.0772115
-0.07639
-0.0717874
-0.0640387
-0.0568116
-0.0511495
-0.0464685
-0.042419
-0.0390987
-0.036861
-0.0347283
0.155369
0.153473
0.152921
0.151381
0.150261
0.148449
0.14621
0.144116
0.140559
0.130904
0.115167
0.0983397
0.0774935
0.0814173
0.0534154
0.0132629
0.0158753
-0.0170561
-0.0751314
-0.102806
-0.105875
-0.0917682
-0.0745355
-0.0498261
-0.038657
-0.0768135
-0.0638032
-0.0845104
-0.0855134
-0.0813371
-0.0766599
-0.0701253
-0.0614442
-0.0526017
-0.0452862
-0.0395529
-0.03583
-0.032517
-0.0315042
-0.031033
0.155361
0.156835
0.155403
0.153671
0.150628
0.147028
0.143143
0.137677
0.128732
0.115208
0.0915317
0.0691283
0.0588135
0.05295
0.023963
-0.00518822
-0.0460314
-0.0902707
-0.126562
-0.16467
-0.147108
-0.102531
-0.0713686
-0.0742104
-0.0784899
-0.0821371
-0.0726376
-0.0945805
-0.0914053
-0.0839976
-0.073645
-0.06407
-0.0551358
-0.0459044
-0.0380094
-0.032146
-0.0279779
-0.0256983
-0.0228101
-0.0226938
0.164453
0.161185
0.158329
0.156042
0.152587
0.149069
0.145194
0.139301
0.125818
0.111774
0.0940046
0.0671613
0.0485197
0.0296288
-0.00582789
0.00145653
-0.0240368
-0.0919113
-0.196256
-0.315249
-0.226552
-0.0315737
-0.0141413
-0.0487097
-0.0679792
-0.0900313
-0.114791
-0.0837813
-0.0815258
-0.0709893
-0.0588203
-0.0493334
-0.0405997
-0.0324656
-0.0262848
-0.0219092
-0.017326
-0.0138757
-0.0107988
-0.00769488
0.1702
0.165315
0.164733
0.16179
0.159954
0.157104
0.154135
0.149942
0.141269
0.128333
0.119129
0.0989181
0.0570151
0.0452993
0.0150221
0.00169678
-0.00239207
0.00197434
-0.0591791
0.138814
-0.045616
-0.112657
-0.126406
-0.126332
-0.0829226
-0.0547413
-0.0365858
-0.0267162
-0.0197369
-0.0143953
-0.0103505
-0.0072676
-0.00511464
-0.00404574
-0.00184421
-0.00276014
-0.00079754
0.1633
0.171523
0.169139
0.16841
0.168458
0.167846
0.167823
0.167926
0.169663
0.166554
0.159864
0.155395
0.130558
0.110931
0.125353
0.0969884
0.100356
0.168632
0.43484
-0.109528
-0.0956305
-0.100355
-0.0752316
-0.0538977
-0.0337193
0.00110236
0.0151127
0.0187402
0.0202741
0.018779
0.0160688
0.0133903
0.0104518
0.00828602
0.00790529
0.0123039
0.00765431
0.175217
0.166253
0.167087
0.171555
0.174461
0.177619
0.181896
0.190734
0.198169
0.208152
0.217533
0.213527
0.203779
0.199827
0.160571
0.138779
0.0756808
0.0693866
0.176236
-0.106098
-0.123426
-0.066238
-0.0150717
0.0346795
0.0720883
0.0643752
0.0752133
0.0695611
0.0616527
0.0517146
0.0452208
0.0367822
0.0292128
0.0247993
0.0200661
0.0201091
0.0314089
0.163914
0.170235
0.181076
0.185081
0.18983
0.194663
0.202789
0.212259
0.219321
0.244369
0.254376
0.262423
0.261978
0.210857
0.199827
0.127963
-0.0304637
-0.413776
-0.476109
1.11356
2.24618
1.06576
0.00697173
-0.0642983
0.0429988
0.101679
0.105447
0.117348
0.117543
0.116496
0.109401
0.0898279
0.0771267
0.0709861
0.0585887
0.0479168
0.0406542
0.0325247
0.023735
0.0192427
0.176916
0.185512
0.191963
0.196794
0.203813
0.209851
0.219493
0.228218
0.24518
0.268074
0.29267
0.303732
0.348514
0.313225
0.326341
0.299443
0.106532
-0.281821
-0.420114
-0.012854
1.42535
0.826258
0.136104
0.262942
0.253166
0.150812
0.15021
0.16277
0.167648
0.139532
0.120247
0.107437
0.0950162
0.0827195
0.0697338
0.0555681
0.0469533
0.0382859
0.0288151
0.0170469
0.195546
0.192054
0.194289
0.19797
0.204497
0.213425
0.223127
0.236141
0.254584
0.278062
0.316828
0.361465
0.410423
0.500347
0.531778
0.608867
0.652707
0.424643
-0.641975
-1.06553
-1.1649
-0.966867
0.621393
0.76426
0.402562
0.216538
0.135517
0.194417
0.173663
0.150331
0.125627
0.110409
0.0956397
0.0871317
0.0792162
0.0705031
0.0583252
0.048101
0.0437598
0.0471251
0.187038
0.189666
0.191166
0.195762
0.201947
0.209658
0.214252
0.232326
0.250692
0.277366
0.303686
0.389307
0.475266
0.533356
0.588858
0.854972
1.15757
0.854335
-0.899936
-2.05288
-1.65464
-0.439417
0.0283136
0.576739
0.342721
0.25019
0.157237
0.128278
0.126277
0.146931
0.125444
0.103441
0.0869348
0.0818081
0.0766209
0.0759445
0.0766526
0.0755292
0.0722671
0.0677897
0.18262
0.183312
0.184455
0.187245
0.190632
0.193519
0.200593
0.205641
0.223459
0.24491
0.273211
0.325741
0.431376
0.42868
0.497959
0.750468
1.03536
0.915777
0.029932
-0.874443
-1.17903
-1.13206
-0.772553
0.347911
0.217648
0.147756
0.124706
0.0308865
0.103627
0.108477
0.09431
0.0929457
0.0784351
0.0697284
0.0642725
0.0664943
0.0705485
0.0757687
0.0793986
0.0781244
0.169337
0.169608
0.171168
0.174575
0.179965
0.182298
0.189727
0.188626
0.196163
0.207322
0.230234
0.228156
0.305824
0.259476
0.403841
0.421763
0.341562
-0.133115
-0.496492
-0.879386
-1.1215
-1.15322
-0.30596
0.174613
-0.275236
-0.110095
-0.00416661
-0.0537514
0.112315
0.0530526
0.0622842
0.0724124
0.0676993
0.0535701
0.052803
0.0529126
0.0529177
0.0554762
0.0583175
0.0607459
0.149932
0.152325
0.156075
0.158806
0.162784
0.165409
0.169413
0.17384
0.177688
0.174288
0.175464
0.1366
0.0873881
0.138235
0.0928332
-0.289771
-0.261687
-0.491324
-0.962654
-1.11436
-1.11581
-1.0413
-0.74109
-0.920763
-0.438913
-0.226125
-0.19409
-0.0157661
0.0600764
0.0173422
0.0366602
0.0459627
0.0493528
0.0494628
0.0502462
0.0499559
0.0471215
0.046181
0.0456989
0.048165
0.137731
0.136328
0.1373
0.137758
0.141117
0.142039
0.138854
0.13483
0.138845
0.123033
0.105511
0.0640603
-0.0653263
-0.0350743
-0.167798
-0.578776
-0.780163
-0.916314
-0.543854
-0.356889
-0.286007
-0.294569
0.0264913
-0.240667
-0.259708
-0.238557
-0.235224
0.0184882
0.00995946
0.00716517
0.0168427
0.022282
0.0345844
0.0434396
0.0486984
0.0498386
0.0489679
0.0486974
0.0491409
0.0510677
0.123688
0.123059
0.122179
0.122794
0.123293
0.124892
0.122107
0.113234
0.114407
0.105743
0.0841429
0.109463
0.0612587
-0.0134869
-0.476191
-0.300283
-0.40972
0.201471
-0.829149
0.317247
0.691064
0.513157
0.0234287
0.0528874
0.21179
0.27364
-0.0894686
0.0396777
-0.00215936
0.00482859
0.00742311
0.0102929
0.0294279
0.0340945
0.0452714
0.046583
0.0492673
0.051941
0.0545067
0.0577106
0.1152
0.115033
0.115132
0.115656
0.116134
0.115701
0.119477
0.117531
0.121071
0.126479
0.123153
0.154888
0.153684
0.192888
0.424251
0.0267494
-0.40244
-0.230815
0.551458
1.58629
-0.27838
0.127306
0.470323
0.576441
0.38198
0.0859353
0.0558065
-0.00885558
-0.00197235
0.00543164
0.00830681
0.0202152
0.0202812
0.0317181
0.0407867
0.0462785
0.050821
0.0538426
0.0576357
0.0589933
0.106699
0.108307
0.108963
0.109516
0.110593
0.109327
0.112667
0.117798
0.126036
0.148265
0.172139
0.176798
0.197487
0.175139
0.297129
0.75103
1.08012
1.05868
0.95118
1.1377
-0.188696
-0.108958
-0.340859
-0.225669
-0.0849448
-0.0791357
-0.0262714
-0.12179
-0.0935027
-0.0716098
-0.0232032
0.00505392
0.00926442
0.0272311
0.0376964
0.0446961
0.0525973
0.0557318
0.0570423
0.0584547
0.0881571
0.091164
0.0931272
0.0949098
0.0951025
0.0971771
0.0984228
0.0995925
0.108417
0.131113
0.167065
0.218517
0.279081
0.16358
0.338764
0.488205
0.782883
1.05385
0.972719
0.607172
0.373615
-0.00411928
-0.4247
-0.452468
-0.315674
-0.326189
-0.267878
-0.226848
-0.134138
-0.122794
-0.0658138
-0.0229464
0.0044686
0.0227156
0.0369079
0.0437331
0.0532647
0.0610388
0.0645472
0.065077
0.0709446
0.0743421
0.0753639
0.078035
0.0768967
0.0809698
0.0861621
0.0710109
0.072956
0.0989853
0.0927593
0.120346
0.0924923
0.190254
0.327246
0.416685
0.563784
0.511456
1.07602
0.90425
0.626028
0.436521
-0.282179
-0.437547
-0.331169
-0.383712
-0.351387
-0.222441
-0.116199
-0.0975359
-0.0585966
-0.00665367
0.0131695
0.0277689
0.0431093
0.0562241
0.0637442
0.0699761
0.0730227
0.0729271
0.0584842
0.0588014
0.0608734
0.0623053
0.0628109
0.0632637
0.0643724
0.0640391
0.071863
0.0662062
0.0573884
0.0466513
0.00994289
-0.0470241
0.142899
0.386839
0.69166
0.596185
1.06822
0.610983
1.22436
0.709905
-0.025802
-0.351079
-0.510356
-0.370064
-0.228058
-0.133381
-0.0972591
-0.0662215
-0.0269131
0.00996409
0.0303434
0.046871
0.0590023
0.0686054
0.0760365
0.0808851
0.0839651
0.0834179
0.0451804
0.0453923
0.0441123
0.0432832
0.0438238
0.0451237
0.0479839
0.049129
0.0594002
0.0813614
0.0783476
0.0782774
0.156712
0.148386
0.0740118
0.030733
0.167732
0.342166
0.243649
-0.294164
1.28481
0.589406
-0.0456825
-0.181332
-0.246407
-0.190248
-0.160847
-0.129503
-0.0578409
-0.0412315
-0.00990142
0.0375844
0.0552286
0.0674123
0.0779612
0.08706
0.0918352
0.0944229
0.0967097
0.0996947
0.0295646
0.0257092
0.0259125
0.027014
0.0297496
0.033434
0.0402332
0.0470499
0.0596062
0.0692743
0.0910114
0.097844
0.158734
0.25074
0.299968
0.211525
0.10774
0.022271
-0.0486928
-0.0900434
0.142611
0.0412036
-0.299229
-0.375762
-0.384358
-0.327795
-0.137372
-0.0111481
0.00720381
0.0254442
0.041409
0.0598163
0.0808899
0.0914966
0.100819
0.107077
0.112071
0.116395
0.119704
0.118286
0.013665
0.014559
0.0142245
0.0152793
0.0185902
0.0226069
0.0279841
0.0366749
0.0537759
0.0645258
0.0652254
0.127891
0.185245
0.206294
0.228376
0.224412
0.191496
0.0358868
-0.034067
-0.220128
-0.449044
-0.471399
-0.563205
-0.493433
-0.314643
-0.0592747
0.0861198
0.0292804
0.0759935
0.0882783
0.0884443
0.104967
0.115836
0.1259
0.131085
0.133106
0.135284
0.136894
0.137438
0.138402
-0.00129848
0.00429519
0.00456419
0.00532743
0.00670191
0.00976339
0.0111007
0.0142815
0.0225913
0.0254862
0.0370939
0.105085
0.158872
0.235618
0.190789
0.166037
0.0933204
-0.121666
0.118848
-0.298331
0.362375
0.0377598
-0.0607599
0.120991
0.135437
0.176434
0.138582
0.080722
0.175378
0.172301
0.160115
0.159242
0.14915
0.163698
0.162503
0.159911
0.157758
0.157628
0.156775
0.157081
-0.0240331
-0.0200721
-0.0173444
-0.0146423
-0.0140604
-0.0126777
-0.0106622
-0.00661266
-0.00116454
-0.000652334
0.0127972
0.024891
0.0759588
0.239664
0.416552
0.548609
0.454431
0.334778
0.659712
0.511117
1.07442
0.680042
0.54697
0.583393
0.466205
0.33618
0.27738
0.236226
0.242991
0.23275
0.203241
0.204171
0.194351
0.192253
0.188619
0.185496
0.183435
0.183119
0.182656
0.179151
-0.0443854
-0.0445702
-0.0435922
-0.0437404
-0.0458663
-0.0435532
-0.0394065
-0.033763
-0.0282391
-0.025651
-0.0550417
-0.00931954
-0.00993179
0.068947
0.240335
0.435759
0.536936
0.608771
0.837696
0.957293
1.29065
1.05553
0.869508
0.811839
0.725446
0.603997
0.453752
0.332384
0.274432
0.263524
0.24431
0.24536
0.231225
0.223322
0.2152
0.209861
0.204125
0.20151
0.196971
0.194131
-0.0626278
-0.0659282
-0.0671589
-0.0684128
-0.0689676
-0.0690471
-0.0677059
-0.0671904
-0.0708547
-0.0835106
-0.0385827
-0.106082
-0.109549
-0.106968
-0.0826058
-0.041951
0.0392482
0.16671
0.119627
-0.0267482
1.33437
0.841862
0.600208
0.502176
0.637506
0.426
0.416511
0.38112
0.327544
0.327146
0.299785
0.279316
0.25817
0.2391
0.228672
0.221235
0.215796
0.211829
0.210551
0.20997
-0.0785955
-0.083168
-0.0853279
-0.0873827
-0.0895123
-0.0946982
-0.0962654
-0.102191
-0.105253
-0.113533
-0.130237
-0.201002
-0.289193
-0.367265
-0.458241
-0.605386
-0.379161
-0.34748
-0.696764
-0.948531
-0.0780595
-0.208134
-0.134982
-0.0498367
0.0755501
0.209675
0.323169
0.347604
0.345948
0.334976
0.328622
0.305338
0.280784
0.259323
0.244987
0.235531
0.229444
0.226089
0.224906
0.226036
-0.0936462
-0.0938691
-0.0962738
-0.0996969
-0.104142
-0.111933
-0.118799
-0.127148
-0.140931
-0.164062
-0.181465
-0.234022
-0.382377
-0.613224
-0.850793
-0.994008
-1.02947
-1.04566
-1.22094
-1.4129
-1.08881
-0.884036
-0.557831
-0.404162
-0.0424409
0.118418
0.258492
0.286356
0.357393
0.343271
0.358367
0.32949
0.305006
0.275807
0.262602
0.252983
0.244129
0.238323
0.235209
0.236535
-0.110994
-0.109572
-0.109579
-0.110116
-0.111644
-0.123304
-0.131336
-0.144761
-0.154712
-0.18861
-0.23259
-0.301889
-0.378086
-0.541062
-0.796131
-1.05708
-1.03751
-1.18636
-1.37538
-1.52544
-0.82581
-0.575782
-0.374282
-0.166821
-0.119701
0.137493
0.280107
0.3709
0.394109
0.359186
0.364141
0.334117
0.314391
0.293499
0.275405
0.26576
0.25834
0.25381
0.251303
0.248768
-0.127801
-0.125415
-0.125827
-0.128648
-0.132933
-0.140763
-0.150896
-0.162891
-0.177732
-0.228861
-0.276392
-0.31641
-0.381587
-0.48739
-0.575897
-0.540898
-0.612434
-0.669058
-0.682528
-1.06348
0.747494
0.394912
0.211782
0.317137
0.424306
0.414563
0.549273
0.475554
0.4105
0.373269
0.361916
0.336593
0.327709
0.304488
0.288012
0.277214
0.270015
0.263166
0.258562
0.25187
-0.141341
-0.138728
-0.140658
-0.145021
-0.151146
-0.160221
-0.173137
-0.192698
-0.219496
-0.265875
-0.330541
-0.366521
-0.402153
-0.441158
-0.322469
-0.25142
-0.0959866
0.00298871
0.10286
0.376851
1.17263
1.10124
1.00858
1.03664
0.964968
0.846764
0.709385
0.559032
0.414134
0.375348
0.365449
0.340378
0.316852
0.296361
0.282078
0.270187
0.263261
0.257638
0.252308
0.249984
-0.155963
-0.15738
-0.158901
-0.16208
-0.169212
-0.179839
-0.198468
-0.223317
-0.247358
-0.325314
-0.383697
-0.474842
-0.516427
-0.511515
-0.4838
-0.458367
-0.278615
-0.112723
0.0276054
0.298929
1.24586
1.25285
1.11245
1.11466
0.975951
0.82374
0.657448
0.501113
0.397486
0.342178
0.360322
0.32254
0.291105
0.273265
0.262853
0.256974
0.250549
0.246716
0.245046
0.247729
-0.164788
-0.168659
-0.17449
-0.180342
-0.190555
-0.203384
-0.223591
-0.250845
-0.287811
-0.347075
-0.404346
-0.544329
-0.690535
-0.857642
-1.00703
-1.07762
-0.908607
-0.698149
-1.12252
-1.19959
0.435455
0.42376
0.687004
0.702338
0.604869
0.549675
0.50075
0.421809
0.343785
0.310488
0.290371
0.266837
0.261198
0.26182
0.254891
0.24966
0.243976
0.240538
0.240501
0.244347
-0.168195
-0.1728
-0.178289
-0.184997
-0.195153
-0.208971
-0.227543
-0.255001
-0.300676
-0.36105
-0.446542
-0.583099
-0.760348
-1.00196
-1.26777
-1.46559
-1.67998
-1.67076
-1.79638
-1.63244
-0.830592
-0.447554
0.0101167
0.143026
0.215724
0.228537
0.249377
0.244344
0.262269
0.267275
0.260675
0.259412
0.246043
0.244384
0.246058
0.243874
0.242684
0.241768
0.242111
0.243889
-0.167549
-0.1678
-0.171703
-0.177494
-0.185962
-0.198696
-0.216882
-0.23995
-0.286737
-0.321245
-0.416681
-0.568184
-0.737013
-0.952454
-1.19217
-1.39085
-1.59752
-1.64008
-1.64073
-1.51616
-1.05977
-0.658536
-0.249387
-0.0932022
0.0127159
0.0582977
0.13483
0.20299
0.269831
0.258913
0.254501
0.259158
0.245469
0.239125
0.240448
0.242048
0.243159
0.242583
0.242205
0.239937
-0.159142
-0.15494
-0.157192
-0.162399
-0.170721
-0.18214
-0.195001
-0.219164
-0.235861
-0.255173
-0.320104
-0.423141
-0.541189
-0.663928
-0.8302
-0.862567
-0.866649
-0.804298
-0.692382
-0.670609
0.117277
0.204903
0.127585
0.288476
0.3064
0.319879
0.28465
0.278394
0.264568
0.262387
0.266455
0.22429
0.233154
0.236134
0.237907
0.239099
0.239497
0.237083
0.233997
0.232931
-0.154836
-0.149481
-0.14864
-0.150134
-0.154867
-0.162856
-0.170993
-0.185066
-0.198397
-0.21175
-0.217679
-0.240694
-0.211779
-0.18325
-0.186228
-0.141502
0.0200334
0.153185
0.512609
0.548001
1.39024
1.27474
1.11097
1.04648
0.798107
0.646741
0.480865
0.343156
0.266333
0.234881
0.241879
0.212203
0.218976
0.224439
0.227002
0.227038
0.227883
0.228034
0.226885
0.227267
-0.150883
-0.150372
-0.150163
-0.150825
-0.151813
-0.154982
-0.15897
-0.168692
-0.171263
-0.170836
-0.153232
-0.127001
-0.0377618
0.0919823
0.190755
0.315135
0.411956
0.595674
0.906038
1.15675
1.79645
1.68635
1.32005
1.14254
0.851291
0.691655
0.503794
0.353685
0.257138
0.191404
0.214609
0.200562
0.209699
0.211571
0.215265
0.216747
0.217764
0.218082
0.218167
0.216918
-0.14238
-0.145747
-0.148474
-0.150104
-0.149423
-0.147684
-0.142339
-0.158797
-0.149142
-0.15079
-0.0870981
-0.0687207
-0.0295189
0.0466982
0.111207
0.178811
0.212346
0.306728
0.438187
0.466714
0.843434
0.724129
0.607944
0.455499
0.350563
0.21563
0.198258
0.166447
0.143897
0.14645
0.160387
0.173472
0.186585
0.194093
0.199435
0.203144
0.202931
0.205049
0.205531
0.211427
-0.130637
-0.133827
-0.135965
-0.135249
-0.133151
-0.131396
-0.123741
-0.124854
-0.113315
-0.10924
-0.0881642
-0.0856592
-0.0798101
-0.0919667
-0.143614
-0.197022
-0.413913
-0.513136
-0.591821
-0.859226
-0.596735
-0.735453
-0.57388
-0.525124
-0.38093
-0.296481
-0.170416
-0.0556023
0.0256782
0.100164
0.129165
0.15745
0.16908
0.180753
0.186661
0.191205
0.194134
0.199353
0.202463
0.206526
-0.116328
-0.11536
-0.114739
-0.113523
-0.111133
-0.107725
-0.100239
-0.0903281
-0.0782535
-0.0701328
-0.0767803
-0.10094
-0.167188
-0.251803
-0.375902
-0.529208
-0.747086
-1.00897
-1.28707
-1.53176
-1.6052
-1.48875
-1.22512
-0.992822
-0.739714
-0.516563
-0.30799
-0.124678
-0.0115035
0.0728705
0.130583
0.16277
0.177616
0.187052
0.191702
0.194698
0.195946
0.196995
0.198449
0.201971
-0.107076
-0.102286
-0.0989289
-0.0950745
-0.0900213
-0.0821756
-0.0725923
-0.061518
-0.0484189
-0.0261812
-0.0173109
-0.0218423
-0.073239
-0.140159
-0.233084
-0.349268
-0.593012
-0.774552
-1.03714
-1.20618
-1.28596
-1.1342
-0.901075
-0.692653
-0.559031
-0.355017
-0.214941
-0.0823031
0.0270873
0.110835
0.164756
0.181118
0.193503
0.198436
0.201256
0.200833
0.201344
0.202012
0.20177
0.200734
-0.105563
-0.100537
-0.0958308
-0.09003
-0.0833894
-0.0746085
-0.0615506
-0.0393172
-0.0364712
0.00436144
0.0321892
0.0666056
0.101639
0.183016
0.21538
0.217168
0.17766
0.1005
-0.0414486
-0.212585
-0.00166496
-0.0953346
-0.0407791
0.0343625
-0.0495882
0.0304598
0.0587129
0.136802
0.16028
0.171217
0.211103
0.20775
0.20896
0.209055
0.208841
0.208294
0.206896
0.207388
0.203978
0.198678
-0.103257
-0.102736
-0.101107
-0.0955728
-0.0895547
-0.0819987
-0.0716729
-0.0550936
-0.0372566
0.00700236
0.0332768
0.109794
0.229359
0.378966
0.560597
0.658687
0.747639
0.840283
0.892045
0.861751
0.814528
0.694507
0.575449
0.512601
0.468525
0.429608
0.366162
0.350344
0.272777
0.237727
0.223303
0.218657
0.214921
0.210137
0.206874
0.203129
0.199762
0.197052
0.193171
0.190163
-0.105857
-0.108914
-0.107373
-0.102787
-0.0977136
-0.0906873
-0.0840416
-0.0781702
-0.0738256
-0.037675
-0.0180459
0.0583696
0.156249
0.243745
0.329023
0.433472
0.394115
0.614078
0.72279
0.675103
0.777975
0.760922
0.619853
0.550389
0.553468
0.437357
0.393312
0.350463
0.28745
0.233052
0.222536
0.199656
0.191949
0.195052
0.18653
0.181645
0.178195
0.179724
0.178717
0.181019
-0.108382
-0.1104
-0.110441
-0.112512
-0.111327
-0.10665
-0.109374
-0.110316
-0.114452
-0.113015
-0.0880472
-0.115562
-0.146741
-0.213353
-0.282
-0.294333
-0.486889
-0.389916
-0.249383
-0.294842
-0.0893696
-0.12426
0.00730585
0.119792
0.216262
0.229191
0.236674
0.236299
0.231559
0.204875
0.190592
0.176576
0.178684
0.176728
0.171992
0.168134
0.165047
0.165078
0.167223
0.172208
-0.108778
-0.109638
-0.11225
-0.115309
-0.117743
-0.116352
-0.120176
-0.12802
-0.140202
-0.163778
-0.171681
-0.221278
-0.33079
-0.477511
-0.650478
-0.812599
-0.99378
-1.11494
-1.16094
-1.09403
-0.975492
-0.824845
-0.603478
-0.403403
-0.247286
-0.124936
-0.0161075
0.0603156
0.124989
0.143762
0.152864
0.164696
0.168775
0.16857
0.166731
0.164511
0.162695
0.16221
0.161769
0.164801
-0.110952
-0.111609
-0.112067
-0.112378
-0.113293
-0.114969
-0.115026
-0.120167
-0.135715
-0.167838
-0.196173
-0.245323
-0.333567
-0.43807
-0.549255
-0.66322
-0.74114
-0.931365
-1.09342
-1.05711
-1.04533
-0.920405
-0.713794
-0.433713
-0.370779
-0.231454
-0.143104
-0.0448779
0.0473426
0.107469
0.145696
0.160858
0.161289
0.162918
0.162079
0.162646
0.162707
0.162814
0.161002
0.157353
-0.110644
-0.106873
-0.106356
-0.107387
-0.107632
-0.108696
-0.109639
-0.107742
-0.104259
-0.117502
-0.140223
-0.186348
-0.18862
-0.166598
-0.114274
-0.0992695
-0.00588688
-0.0835709
-0.174755
-0.211322
-0.248379
-0.0536969
0.0203616
-0.117627
-0.0665333
-0.0329135
-0.00471917
0.0433259
0.0701043
0.0985376
0.146057
0.151592
0.155378
0.156635
0.153769
0.1546
0.154577
0.15266
0.149427
0.144614
-0.109705
-0.104635
-0.102361
-0.101821
-0.103107
-0.101051
-0.100027
-0.10342
-0.093125
-0.0764236
-0.0694116
-0.0263909
0.0673272
0.156199
0.275688
0.396313
0.498526
0.651755
0.719899
0.780311
0.809779
0.88332
0.775981
0.596679
0.498491
0.395691
0.286274
0.196128
0.132803
0.121323
0.133781
0.130326
0.130292
0.133274
0.133288
0.13121
0.130294
0.129801
0.128525
0.127578
-0.110833
-0.110571
-0.109436
-0.108776
-0.108323
-0.107253
-0.105286
-0.103417
-0.0988092
-0.0704213
-0.038755
0.0375558
0.158092
0.274997
0.383356
0.511629
0.619836
0.791524
1.00708
1.0583
1.08043
1.2579
0.978862
0.763718
0.629917
0.497443
0.371534
0.257583
0.174914
0.150625
0.128994
0.104906
0.108071
0.108088
0.110207
0.107855
0.108024
0.108056
0.109842
0.112602
-0.111298
-0.115654
-0.118832
-0.119967
-0.120152
-0.119597
-0.116512
-0.107157
-0.114599
-0.0892489
-0.0507558
0.00422658
0.0812994
0.179523
0.254814
0.351474
0.420752
0.436633
0.55015
0.58736
0.583161
0.445309
0.254563
0.205072
0.132001
0.11538
0.101467
0.0895044
0.0919565
0.0953038
0.0772949
0.0790396
0.0852106
0.0882201
0.094547
0.0942465
0.0944418
0.0945067
0.0956221
0.100812
-0.110955
-0.115099
-0.117649
-0.118015
-0.116492
-0.113938
-0.116832
-0.116893
-0.110312
-0.107337
-0.0910651
-0.0661438
-0.0644635
-0.07224
-0.0915441
-0.101156
-0.117863
-0.194995
-0.217803
-0.261893
-0.321511
-0.483349
-0.562631
-0.48088
-0.392
-0.291896
-0.188829
-0.112392
-0.0349378
0.0211147
0.0287536
0.0542888
0.059302
0.0696013
0.076353
0.0801498
0.083494
0.0875041
0.0888484
0.0887452
-0.107147
-0.105842
-0.104741
-0.104104
-0.104019
-0.102684
-0.105433
-0.109062
-0.113757
-0.124518
-0.143103
-0.165297
-0.226944
-0.313206
-0.379629
-0.448309
-0.50409
-0.590969
-0.734347
-0.795807
-0.797037
-0.829811
-0.716295
-0.563374
-0.478071
-0.364033
-0.248322
-0.13953
-0.0588878
-0.0140614
0.0163183
0.0419242
0.0555915
0.0639997
0.0682308
0.072487
0.0752349
0.077834
0.0782052
0.0765324
-0.102154
-0.0947281
-0.0929134
-0.0929779
-0.0941639
-0.0953837
-0.0967621
-0.100969
-0.102271
-0.109904
-0.13517
-0.165851
-0.219051
-0.275994
-0.309432
-0.345421
-0.3936
-0.426307
-0.568906
-0.582866
-0.5574
-0.376966
-0.184061
-0.107683
-0.108236
-0.110682
-0.0978192
-0.0626675
-0.0371846
-0.0025979
0.031742
0.0488647
0.0528994
0.0538825
0.0622561
0.0642637
0.0650688
0.067027
0.0674578
0.0635937
-0.102758
-0.100423
-0.0989563
-0.0979467
-0.096966
-0.0971873
-0.095257
-0.0901546
-0.0816125
-0.0683454
-0.0693804
-0.0764223
-0.0349368
0.0173822
0.0788835
0.146494
0.162176
0.193282
0.153674
0.124848
0.0919483
0.43567
0.439271
0.40175
0.34823
0.25752
0.170254
0.102789
0.0624229
0.0473155
0.0614627
0.0622909
0.0478224
0.0472456
0.0501798
0.0536593
0.0541005
0.0553457
0.0561335
0.0538524
-0.104581
-0.111531
-0.112731
-0.112183
-0.10995
-0.105086
-0.0981594
-0.0880619
-0.0632172
-0.0332451
0.0093293
0.067573
0.182083
0.321414
0.429843
0.549407
0.631985
0.708867
0.788519
0.814377
0.798534
0.823842
0.709715
0.613655
0.495785
0.403775
0.315189
0.215576
0.139696
0.09463
0.073475
0.0591148
0.0478685
0.0436673
0.0426172
0.0425047
0.0423795
0.0417044
0.0419144
0.0445802
-0.101734
-0.110256
-0.111436
-0.109935
-0.106885
-0.101612
-0.0934296
-0.0792146
-0.0486075
-0.0122467
0.0477844
0.117419
0.199726
0.27821
0.335493
0.400682
0.475934
0.604981
0.72347
0.830477
0.833421
0.797596
0.609999
0.494629
0.440995
0.34098
0.263066
0.18001
0.114396
0.0758014
0.0574112
0.0409514
0.0325589
0.0314583
0.0272979
0.0270491
0.0284067
0.0304707
0.0330209
0.0388183
-0.0955428
-0.0975636
-0.0965652
-0.0951454
-0.0924784
-0.0872887
-0.0854985
-0.0746548
-0.0575046
-0.0356891
-0.00117363
0.0203011
0.0260979
0.000823854
0.00428227
-0.0156837
0.0223301
0.0412685
0.135996
0.287997
0.27563
0.182787
0.121344
0.103441
0.0706049
0.0655753
0.0538223
0.0457109
0.0371562
0.0268119
0.0351058
0.0251491
0.0211555
0.0219541
0.0216174
0.0232043
0.0235399
0.0260017
0.028408
0.0318331
-0.0964377
-0.0899115
-0.0874055
-0.0865747
-0.0862966
-0.0846908
-0.0835293
-0.0808158
-0.0758728
-0.068052
-0.0524869
-0.0554407
-0.0930676
-0.149902
-0.196032
-0.260174
-0.331029
-0.37164
-0.39529
-0.381402
-0.368797
-0.412741
-0.417832
-0.416163
-0.366379
-0.300662
-0.237597
-0.159626
-0.0889658
-0.0463192
-0.0205682
-0.00311902
0.00954565
0.0185283
0.0235867
0.02679
0.0269148
0.0263051
0.0241106
0.0208827
-0.103705
-0.0970869
-0.0943644
-0.0922364
-0.0920908
-0.0913122
-0.0915271
-0.0892067
-0.0827151
-0.0778064
-0.0686489
-0.072467
-0.0789438
-0.0998573
-0.114342
-0.129039
-0.247578
-0.331551
-0.484499
-0.574945
-0.641936
-0.663434
-0.65546
-0.653917
-0.536328
-0.475756
-0.389944
-0.291885
-0.199276
-0.120576
-0.0671288
-0.0266972
-0.0150043
0.00105978
0.0117739
0.0192976
0.0247429
0.0261381
0.0239124
0.0142953
-0.109459
-0.106213
-0.105905
-0.106286
-0.106908
-0.106814
-0.105065
-0.0982177
-0.0813946
-0.0728407
-0.0641341
-0.0530537
-0.00329607
0.0563531
0.152253
0.201725
0.191285
0.113703
-0.0884249
-0.23088
-0.385275
-0.437296
-0.440187
-0.449653
-0.401641
-0.36582
-0.3022
-0.240519
-0.175359
-0.117526
-0.0739452
-0.041797
-0.0269937
-0.0169259
-0.00760953
0.000181331
0.00544452
0.00790077
0.00807807
0.00330604
-0.110605
-0.114964
-0.116115
-0.116768
-0.116012
-0.11765
-0.114083
-0.106719
-0.0924644
-0.0733066
-0.0437741
0.00868712
0.0883788
0.19521
0.300088
0.37062
0.484902
0.514428
0.420978
0.29878
0.231315
0.141527
0.0683028
0.0083993
-0.0182034
-0.0388649
-0.0284697
-0.0535771
-0.0625976
-0.0578638
-0.0407304
-0.032866
-0.0315955
-0.0310317
-0.0285483
-0.0261618
-0.0248657
-0.0232953
-0.0194373
-0.00857184
-0.107325
-0.11573
-0.118831
-0.120895
-0.12076
-0.122313
-0.120334
-0.117811
-0.105692
-0.0870878
-0.0596114
-0.00971992
0.069725
0.162793
0.25484
0.335102
0.516927
0.625277
0.699249
0.664452
0.619198
0.560699
0.41422
0.285946
0.218394
0.176094
0.143362
0.0984529
0.0565591
0.0212183
0.0188372
-0.00396217
-0.0195986
-0.0265063
-0.0303786
-0.0317915
-0.033022
-0.0303454
-0.0239554
-0.00924494
-0.100066
-0.105857
-0.110328
-0.114684
-0.117526
-0.120805
-0.121389
-0.129417
-0.125663
-0.115138
-0.0989528
-0.0710627
-0.0293193
0.0173865
0.0621421
0.116418
0.22758
0.344428
0.460456
0.515092
0.55993
0.520309
0.398059
0.296198
0.144418
0.0933529
0.0767006
0.0687174
0.0776915
0.0644037
0.0456337
0.0160188
0.00566552
-8.80272e-05
-0.0033714
-0.00724918
-0.00880356
-0.00816132
-0.00530584
-0.00190019
-0.0981252
-0.0960815
-0.096758
-0.0983928
-0.101873
-0.108628
-0.116192
-0.126765
-0.142491
-0.153543
-0.159681
-0.1908
-0.22474
-0.281919
-0.300138
-0.281266
-0.301358
-0.203988
-0.0916715
0.030755
0.104588
0.0883728
0.0248443
0.0388753
0.0551382
0.0387516
0.0332819
0.0466885
0.0499882
0.0479301
0.0405712
0.032887
0.0297484
0.0258303
0.0191162
0.0176221
0.0157441
0.0121476
0.00711714
-0.00196558
-0.0976127
-0.0879669
-0.0857477
-0.0857426
-0.090201
-0.100498
-0.114557
-0.134498
-0.166824
-0.208025
-0.257001