/*--------------------------------*- C++ -*----------------------------------*\
| =========                 |                                                 |
| \\      /  F ield         | OpenFOAM: The Open Source CFD Toolbox           |
|  \\    /   O peration     | Version:  v2106                                 |
|   \\  /    A nd           | Website:  www.openfoam.com                      |
|    \\/     M anipulation  |                                                 |
\*---------------------------------------------------------------------------*/
FoamFile
{
    version     2.0;
    format      ascii;
    arch        "LSB;label=32;scalar=64";
    class       volVectorField;
    location    "0";
    object      U;
}
// * * * * * * * * * * * * * * * * * * * * * * * * * * * * * * * * * * * * * //

dimensions      [0 1 -1 0 0 0 0];

internalField   nonuniform List<vector> 
11644
(
(-5.4936e-05 -6.06114e-06 4.05716e-21)
(-5.22276e-05 -5.40671e-05 1.11885e-20)
(-6.91448e-05 -0.000107642 6.00288e-21)
(-7.63681e-05 -0.000145719 0)
(-7.83354e-05 -0.000214685 0)
(-9.42852e-05 -0.000312962 0)
(-9.0698e-05 -0.00044439 0)
(-4.17462e-05 -0.000593136 0)
(-1.68415e-08 -0.000785989 0)
(4.39451e-06 -0.00102114 0)
(3.01224e-06 -0.00127027 0)
(5.80435e-05 -0.00155308 0)
(0.000117261 -0.00185768 0)
(-7.83678e-05 -0.00217181 0)
(0.00010376 -0.00249379 0)
(0.000308788 -0.00288234 0)
(0.000112258 -0.00290818 0)
(9.90396e-05 -0.00297539 0)
(0.000833467 -0.00339479 0)
(0.00040703 -0.00420196 -1.80512e-30)
(4.67683e-05 -0.00388116 1.83417e-30)
(-0.000164802 -0.00389815 0)
(-0.000707857 -0.00336096 0)
(-0.000524903 -0.00267217 0)
(-0.000221558 -0.00234386 0)
(-0.000247632 -0.0020285 0)
(-0.000199792 -0.00179463 0)
(-6.63825e-05 -0.00139577 0)
(-0.000112864 -0.00120215 0)
(-0.000109173 -0.00100878 0)
(-0.000101207 -0.00084475 0)
(-9.18488e-05 -0.000712855 0)
(-0.000129395 -0.000582432 0)
(-0.000138689 -0.000473755 0)
(-0.000147311 -0.000362114 0)
(-0.000156065 -0.000258273 0)
(-0.000145396 -0.000180683 0)
(-0.000151025 -9.57348e-05 0)
(-0.000139966 -6.04082e-05 0)
(-0.000102364 -1.09639e-05 7.86642e-22)
(1.27935e-05 -5.73879e-05 5.2114e-21)
(2.15392e-05 -0.000160315 4.82743e-21)
(7.38785e-05 -0.000308455 2.59266e-21)
(0.000189178 -0.000465482 0)
(0.0002643 -0.000721094 0)
(0.000353405 -0.00098736 0)
(0.000467946 -0.00131492 0)
(0.000610275 -0.00169229 0)
(0.000784074 -0.0020447 0)
(0.00101502 -0.00236422 0)
(0.00114747 -0.00274064 0)
(0.0013055 -0.00304316 0)
(0.00137639 -0.003322 0)
(0.00159622 -0.00345499 0)
(0.00122995 -0.00378165 0)
(0.00018502 -0.00402993 -5.17533e-22)
(-0.000306186 -0.00427932 -1.75418e-21)
(-2.34882e-05 -0.00478652 6.13984e-21)
(-0.000357041 -0.00530535 -1.54768e-21)
(-0.000460074 -0.00530095 1.29376e-20)
(-0.000754576 -0.00592747 -1.09677e-20)
(-0.000798826 -0.00548148 1.04128e-20)
(-0.00100813 -0.00517407 -1.69428e-20)
(-0.00109671 -0.00483071 1.52811e-21)
(-0.000885325 -0.00403368 6.98008e-22)
(-0.000580942 -0.00306899 0)
(-0.000391557 -0.00202945 0)
(-0.000275431 -0.0013431 0)
(-8.13745e-05 -0.000592272 0)
(-3.14747e-05 -1.88297e-05 0)
(-0.000101557 0.000370425 0)
(-0.000142184 0.000658365 0)
(-0.000139384 0.000804041 0)
(-0.000146526 0.000848365 0)
(-0.00016598 0.000836042 0)
(-0.000101271 0.000709564 0)
(-0.000104419 0.000612841 0)
(-2.85206e-05 0.00043394 0)
(-2.34966e-05 0.000266468 0)
(-5.96288e-05 7.41482e-05 0)
(0.000150326 -7.69176e-05 0)
(0.000200265 -0.00023216 0)
(0.000285618 -0.000432985 0)
(0.000440844 -0.000704355 0)
(0.000573675 -0.000954758 4.76052e-21)
(0.000807363 -0.00121513 0)
(0.0010952 -0.00152659 0)
(0.00142914 -0.0018255 0)
(0.0017422 -0.00213088 0)
(0.00208159 -0.00239221 0)
(0.00251626 -0.00244592 0)
(0.00244394 -0.00249572 0)
(0.00241516 -0.00225636 -7.20326e-22)
(0.00149764 -0.00213568 -5.64318e-21)
(0.000895853 -0.00189167 -1.79928e-20)
(0.000807023 -0.00169584 8.71878e-20)
(0.000260426 -0.00233596 -5.25207e-20)
(-0.000587892 -0.00309865 3.22017e-20)
(-0.00164592 -0.00346107 -7.83451e-20)
(-0.00198261 -0.00364848 1.76405e-19)
(-0.00230794 -0.00405212 -1.91455e-19)
(-0.00206969 -0.00416749 1.33479e-19)
(-0.00179172 -0.00407536 -7.57912e-20)
(-0.00184425 -0.00393471 1.85123e-20)
(-0.00180979 -0.0028479 -4.33547e-20)
(-0.00138958 -0.00187346 1.25488e-20)
(-0.00103351 -0.000778233 5.06595e-21)
(-0.000714971 0.000594435 5.79471e-22)
(-0.000581907 0.00156267 0)
(-0.000304929 0.00224282 0)
(4.82947e-06 0.00262409 0)
(0.000144081 0.00274894 0)
(0.000245773 0.00267825 0)
(0.000286379 0.00247077 0)
(0.000359282 0.00211032 0)
(0.000377311 0.00176557 0)
(0.000364282 0.00134782 0)
(0.00040984 0.000943432 0)
(0.000384582 0.000550233 0)
(0.000303587 0.00018233 0)
(-7.59765e-06 2.6983e-05 0)
(0.000115697 2.56708e-05 0)
(0.000330114 -0.000143454 0)
(0.00052934 -0.000298199 0)
(0.000712075 -0.000426113 0)
(0.00100357 -0.00058989 0)
(0.00140016 -0.0007487 0)
(0.00182725 -0.000918679 0)
(0.00233894 -0.00103661 0)
(0.002854 -0.00111709 0)
(0.00293124 -0.00127262 -3.40017e-22)
(0.00320199 -0.00106843 -1.24796e-20)
(0.00263185 -0.00115249 3.73241e-20)
(0.00326349 -0.000415327 -4.51378e-20)
(0.00333972 0.000190557 8.72695e-20)
(0.0020468 0.000167838 -1.54827e-19)
(0.00161058 -0.000369276 -4.14778e-20)
(0.000283645 -0.00127464 2.2018e-19)
(-0.00144822 -0.000964293 -1.76368e-19)
(-0.00241449 -0.00128997 2.80173e-19)
(-0.00321198 -0.0023641 -1.17805e-19)
(-0.002996 -0.00265524 -1.68145e-19)
(-0.00250101 -0.00300256 -4.85117e-20)
(-0.00247234 -0.00236431 1.92754e-19)
(-0.00304252 -0.00167657 2.44958e-20)
(-0.00229124 6.27408e-05 -8.92862e-20)
(-0.001252 0.00163043 2.90515e-20)
(-0.000754905 0.00255425 -1.83081e-20)
(7.30159e-05 0.00329633 7.44354e-22)
(0.000332782 0.00369509 1.68758e-22)
(0.00049984 0.00378512 0)
(0.000834925 0.00356131 0)
(0.000999042 0.00318796 0)
(0.0010119 0.00275476 0)
(0.00102674 0.00227107 0)
(0.000902681 0.00185688 0)
(0.000852807 0.00140734 0)
(0.000797445 0.0009955 0)
(0.000766414 0.000526059 0)
(0.000664788 0.000157218 0)
(-0.000204061 3.79701e-05 0)
(-0.000151654 -1.79723e-05 0)
(2.62532e-05 6.09873e-05 0)
(0.000187725 9.45654e-05 0)
(0.000467417 0.000171492 0)
(0.000799099 0.000155989 0)
(0.00124657 0.000146185 0)
(0.00171369 0.000102366 0)
(0.00227325 -1.67685e-05 0)
(0.0026888 -0.000264487 -2.71719e-21)
(0.00342026 -0.000680231 3.47342e-20)
(0.00393758 -0.00143841 -6.8114e-20)
(0.00537317 -0.00118292 1.51683e-19)
(0.00423313 -0.00179095 -2.87061e-19)
(0.00336181 -0.00119731 2.56273e-19)
(0.00493464 0.000222414 -3.29025e-19)
(0.00332404 -0.000105244 3.58857e-19)
(-0.000243464 -0.000410235 -3.96564e-19)
(-0.000916017 -0.00074958 7.01001e-19)
(-0.00272447 -0.00114581 -1.60576e-19)
(-0.00369103 -0.000731925 3.74669e-19)
(-0.00394339 -0.00164181 -6.83365e-19)
(-0.00356114 -0.00222188 1.80988e-19)
(-0.00330909 -0.00152661 -3.84286e-19)
(-0.00313731 -0.00101219 3.89303e-19)
(-0.00339901 0.000386368 -3.3451e-19)
(-0.00295711 0.00174424 3.44097e-19)
(-0.000811129 0.0030169 -2.07671e-19)
(0.000171443 0.0037227 8.72362e-20)
(0.00125419 0.0037671 -2.53656e-20)
(0.001648 0.00356065 3.81529e-22)
(0.00162923 0.0032086 0)
(0.00166265 0.00270279 0)
(0.00154427 0.00225733 0)
(0.00141771 0.00186768 0)
(0.00128185 0.00143901 0)
(0.001186 0.00107584 0)
(0.00114153 0.00067194 0)
(0.00108145 0.00039364 0)
(0.0010409 0.000118611 0)
(-0.000361669 3.11094e-05 0)
(-0.000349689 5.75307e-05 0)
(-0.000376317 3.96312e-05 0)
(-0.000278192 0.00011784 0)
(-5.52731e-05 0.000256813 0)
(0.000291253 0.000322653 0)
(0.00071331 0.000367782 0)
(0.0012187 0.00033135 0)
(0.00180712 0.000120973 7.65469e-22)
(0.00282365 -0.000489161 -4.06585e-20)
(0.00444613 -0.00128326 1.05754e-20)
(0.0063083 -0.0018813 1.97078e-20)
(0.00717414 -0.00328634 1.18531e-19)
(0.00886163 -0.00314155 -1.52136e-19)
(0.00754278 -0.00298296 1.61943e-19)
(0.00417308 -0.00246696 -5.29818e-20)
(0.00309808 -0.00252283 -7.19499e-20)
(0.000556871 -0.0037212 2.89373e-19)
(-0.00157994 -0.00274296 -3.60021e-19)
(-0.0027398 -0.00152625 -6.44671e-19)
(-0.00403829 -0.00256276 6.65684e-19)
(-0.00503116 -0.00213452 2.92252e-20)
(-0.00446015 -0.000198726 2.92144e-20)
(-0.0048571 8.73557e-05 2.4697e-19)
(-0.0032974 -0.000529152 -1.41877e-19)
(-0.00276653 0.000654876 -6.11468e-20)
(-0.00157521 0.00138115 3.13226e-20)
(-0.00200689 0.00248464 -6.23494e-20)
(-0.000538967 0.0029176 -3.24859e-20)
(0.00109529 0.00328093 1.95994e-20)
(0.00224453 0.00329832 -1.24598e-21)
(0.00228249 0.00302808 -5.69973e-22)
(0.00200019 0.00263616 0)
(0.0018083 0.00209339 0)
(0.00159689 0.00171958 0)
(0.00148454 0.00135214 0)
(0.00139008 0.00107284 0)
(0.00130574 0.000777784 0)
(0.00127962 0.000516065 0)
(0.00131486 9.57091e-05 0)
(-0.000690853 -5.13158e-05 0)
(-0.000628911 0.000200059 0)
(-0.000658609 9.17491e-05 0)
(-0.000648598 0.000351919 0)
(-0.000506193 0.00028141 0)
(-0.000266626 0.000404 0)
(1.70799e-05 0.000403955 0)
(0.000553745 0.000354568 2.20693e-21)
(0.00167231 -0.000110709 2.59415e-20)
(0.00381184 -0.00104597 -8.25084e-20)
(0.00635092 -0.00287087 7.83022e-20)
(0.00819553 -0.00474287 1.2642e-19)
(0.00759709 -0.00703147 -2.60044e-20)
(0.0101556 -0.00726316 -2.48954e-19)
(0.00686415 -0.00806275 -3.90989e-19)
(0.00449692 -0.00718714 4.41229e-19)
(-0.00120129 -0.00766513 -2.55614e-19)
(0.00226838 -0.00641202 -1.5574e-19)
(0.000152279 -0.00592543 3.28573e-19)
(-0.000877796 -0.00436155 2.29292e-19)
(-0.00291167 -0.00236943 5.17149e-19)
(-0.00380148 -0.00210483 3.18831e-19)
(-0.00500063 6.16807e-05 -9.72835e-20)
(-0.00650324 0.00130337 -8.64988e-21)
(-0.00430268 0.00046406 -4.95665e-19)
(-0.00341175 0.000950566 3.28303e-19)
(-0.00372948 0.00133265 2.12404e-19)
(-0.00329399 0.00139359 -9.39308e-20)
(-0.00212856 0.00216786 -4.22844e-20)
(-0.00110346 0.0029378 3.61859e-20)
(0.000918553 0.00338147 5.11543e-20)
(0.00215345 0.00335105 -3.23891e-20)
(0.00224274 0.00306058 -1.16733e-22)
(0.00197423 0.00254731 0)
(0.00177395 0.00197877 0)
(0.00161629 0.00161414 0)
(0.00157053 0.00111799 0)
(0.00144668 0.000901418 0)
(0.00140327 0.000296788 0)
(0.00144623 0.000362307 0)
(-0.00114014 0.000178396 0)
(-0.00114057 -0.000160175 0)
(-0.0012124 0.000247228 0)
(-0.00122023 -1.27839e-05 0)
(-0.00120315 7.51515e-05 0)
(-0.0010959 0.000127501 0)
(-0.000948363 0.00023522 0)
(-0.000284494 0.00021173 -7.91474e-22)
(0.00208301 -0.000590021 -5.01241e-22)
(0.00506943 -0.00212668 8.52078e-21)
(0.00735772 -0.00358578 -1.28728e-19)
(0.00957467 -0.00540736 1.65464e-19)
(0.0110829 -0.00253964 -1.6181e-19)
(0.00669936 -0.00756032 -1.85675e-21)
(0.010313 -0.00914862 1.29823e-19)
(0.0108872 -0.00938935 4.63082e-20)
(0.00820637 -0.00893563 1.77312e-19)
(0.00454385 -0.00984931 -2.09017e-19)
(0.00158349 -0.00959471 -4.40121e-19)
(0.00109827 -0.00753824 1.83947e-21)
(-0.000249928 -0.00320988 -5.33295e-19)
(-0.0020042 -0.0015498 9.59408e-19)
(-0.0043324 0.000329376 -5.66902e-19)
(-0.00561475 -0.000617063 3.79402e-19)
(-0.00350419 0.000744621 -3.01217e-19)
(-0.00116918 0.00142424 1.62541e-19)
(-0.00380933 0.00157339 -7.72682e-20)
(-0.00385584 -0.000478015 3.98258e-20)
(-0.00448637 0.00219932 -9.20542e-20)
(-0.00366051 0.00228926 1.92519e-20)
(-0.00177473 0.00312033 4.31988e-21)
(0.000386495 0.00338439 -1.97641e-20)
(0.00197372 0.0032335 7.70295e-21)
(0.00208361 0.00290804 0)
(0.00186679 0.00224852 0)
(0.0016801 0.00158633 0)
(0.00153916 0.00114659 0)
(0.00150349 0.00060958 0)
(0.00145135 0.000614586 0)
(0.00146364 -0.000284782 0)
(-0.00149167 -6.0022e-05 0)
(-0.00161401 -8.43516e-06 0)
(-0.00150649 -0.000275978 0)
(-0.00151496 -0.000416327 0)
(-0.0017443 -0.000153807 0)
(-0.00198848 -0.000165489 0)
(-0.00211449 0.000136931 -1.14242e-21)
(-0.000676555 -0.000424395 -1.06142e-20)
(0.00274495 -0.00183992 2.19e-20)
(0.00558069 -0.00344792 -2.41846e-20)
(0.00712989 -0.00536844 -2.82885e-20)
(0.00820515 -0.00774792 6.85328e-20)
(0.00999397 -0.00593413 -3.95176e-20)
(0.00700294 -0.00811745 5.29624e-20)
(0.00674271 -0.0101881 -5.2766e-21)
(0.00698482 -0.00849456 1.68269e-19)
(0.00553925 -0.0128785 1.40501e-19)
(0.00224295 -0.00875418 -5.96413e-20)
(9.2687e-05 -0.0104313 -1.57288e-19)
(-0.00161439 -0.00886955 1.65352e-19)
(-0.00377737 -0.00796363 -6.13187e-20)
(-0.00725734 -0.00631667 -5.66865e-20)
(-0.00836523 -0.00201756 3.52278e-20)
(-0.00935066 -0.000728359 1.67284e-19)
(-0.00748947 0.00419287 8.98526e-20)
(-0.0108317 0.00286551 -1.08764e-20)
(-0.00496839 0.0011949 -3.08907e-21)
(-0.00741103 0.00191519 4.93936e-20)
(-0.00693643 0.00132614 -3.54706e-20)
(-0.00613471 0.00225679 3.45795e-21)
(-0.00476088 0.00224768 -3.6767e-20)
(-0.00228272 0.00257121 4.41292e-20)
(0.000637321 0.00295253 -1.81218e-20)
(0.00196618 0.00289052 3.62778e-21)
(0.00192905 0.00263143 0)
(0.00187312 0.00216044 0)
(0.00175467 0.00195157 0)
(0.00159463 0.00137646 0)
(0.00153459 0.000850221 0)
(0.00141367 0.000599128 0)
(-0.00162669 -0.000608334 0)
(-0.00173824 -0.000204819 0)
(-0.0018783 -0.000666157 0)
(-0.0023585 3.74742e-05 0)
(-0.0026305 -0.000168518 0)
(-0.00318164 -5.85141e-05 0)
(-0.00303166 -0.000454745 1.41657e-21)
(-0.000400554 -0.00146105 -1.78824e-20)
(0.00316898 -0.0026352 -7.27162e-21)
(0.0051327 -0.00435901 3.10159e-20)
(0.00570484 -0.00434257 -7.50483e-22)
(0.00806801 -0.00695532 -2.01529e-20)
(0.0117314 -0.0145229 1.74639e-20)
(0.00402879 -0.00936746 5.87964e-21)
(0.0062939 -0.0134844 1.53851e-20)
(0.00195394 -0.00592361 1.50373e-20)
(0.00195437 -0.00941028 -8.24818e-20)
(0.00240261 -0.0082961 2.64292e-20)
(0.00105847 -0.00815235 -1.63103e-20)
(0.000136004 -0.0118969 -1.48038e-19)
(-0.00422393 -0.012803 -5.55086e-20)
(-0.0101766 -0.00988053 -4.89637e-20)
(-0.0152052 -0.00631541 -1.97029e-20)
(-0.0131581 -0.00114659 2.4346e-20)
(-0.0147669 0.00162119 -9.63789e-21)
(-0.0156954 0.0021763 -2.21875e-19)
(-0.0141991 0.00832414 -4.90224e-20)
(-0.00927813 0.00634999 1.72744e-20)
(-0.0092953 0.00336298 7.31477e-21)
(-0.00899022 0.00204342 -6.02753e-21)
(-0.00743756 0.00161017 -1.8174e-20)
(-0.00508327 0.00203322 6.60807e-21)
(-0.00160192 0.00252679 -2.03489e-24)
(0.00130486 0.00271692 -1.03225e-21)
(0.00167263 0.00239204 0)
(0.00153624 0.00198545 0)
(0.00149075 0.00130715 0)
(0.00159548 0.00145563 0)
(0.00156609 0.000391317 0)
(0.00165435 0.000594943 0)
(-0.00133085 0.000740316 0)
(-0.00150064 -0.000201339 0)
(-0.00210108 4.25156e-05 0)
(-0.00241208 -0.000583248 0)
(-0.00281077 -0.00105603 0)
(-0.00328965 -0.00117509 0)
(-0.00261623 -0.00181442 4.1348e-21)
(0.000204043 -0.00256064 -2.67906e-21)
(0.0022225 -0.00217653 -3.68426e-21)
(0.00399914 -0.00346757 9.79648e-22)
(0.00447945 -0.0037043 1.36001e-20)
(0.00359499 -0.000863601 -3.78666e-20)
(0.00541478 -0.00901447 3.10614e-20)
(0.00358646 -0.00814113 -1.98991e-20)
(0.00665256 -0.00830643 1.13965e-20)
(0.000131076 -0.00708107 -3.54621e-21)
(-0.00267214 -0.00344579 1.79432e-20)
(0.00278388 -0.00196916 -7.34855e-21)
(0.00954325 -0.00355227 -2.60843e-20)
(0.0102285 -0.0161781 -5.70408e-19)
(-0.00240048 -0.0301885 1.4893e-18)
(-0.0207383 -0.0202875 -1.34321e-19)
(-0.022865 -0.00595122 3.06339e-20)
(-0.0207853 0.00180828 -3.02522e-22)
(-0.0190266 0.0035675 1.29059e-20)
(-0.0149829 0.00800438 6.92941e-20)
(-0.0159996 -0.00142668 -2.78354e-20)
(-0.0122855 0.00886228 -2.73788e-20)
(-0.0138053 0.00149544 2.31503e-20)
(-0.0116423 0.00235451 -2.56986e-21)
(-0.00927495 0.00317031 1.75059e-21)
(-0.00713466 0.00288525 5.64728e-21)
(-0.00379565 0.00265669 -3.18968e-21)
(0.000425445 0.00310742 4.72145e-22)
(0.00176796 0.00303133 0)
(0.00169913 0.00238795 0)
(0.00164632 0.00160188 0)
(0.00173933 0.000609094 0)
(0.00189362 0.000860754 0)
(0.00203686 -0.00105466 0)
(-0.00187977 -0.00026589 0)
(-0.00169708 -0.00128716 0)
(-0.00144942 -0.00135446 0)
(-0.00138424 -0.00210399 0)
(-0.00217029 -0.00197759 0)
(-0.00295921 -0.00223676 0)
(-0.00241333 -0.0027857 4.08273e-23)
(0.000239893 -0.0033523 -7.15486e-22)
(0.00146963 -0.00351511 4.92002e-23)
(0.002396 -0.00389387 -4.72203e-22)
(0.00463225 -0.00653138 -3.05806e-23)
(0.00362032 -0.00577223 -3.77878e-21)
(-0.00122891 -0.00821111 6.81236e-21)
(0.013178 -0.0106796 -2.8427e-20)
(0.00115646 -0.00753093 -2.10622e-20)
(0.00251194 -0.00776555 -4.80988e-20)
(-0.00201106 -0.00242999 -5.23887e-20)
(-0.0029568 0.00727812 5.97545e-21)
(0.0383595 0.000824569 -5.56249e-19)
(-0.0685803 -0.0108979 3.02968e-19)
(-0.0238924 0.0157884 -7.74436e-21)
(-0.0175537 0.0171452 -4.23448e-22)
(-0.0140429 0.0146947 -2.78205e-20)
(-0.0168212 0.00729678 -4.19736e-21)
(-0.0219854 0.00592266 6.06389e-21)
(-0.0179875 0.00367502 -4.09821e-21)
(-0.0140027 0.00627969 -2.18578e-22)
(-0.0100347 0.00615554 -3.13318e-22)
(-0.00701815 0.00513178 2.30496e-21)
(-0.00398726 0.00418303 -1.95706e-22)
(-7.30733e-07 0.00370746 -2.81767e-22)
(0.00223864 0.0037819 0)
(0.00260994 0.00348446 0)
(0.00273856 0.00340728 0)
(0.00253287 0.00245861 0)
(0.0026034 0.00181839 0)
(0.00214202 0.00160854 0)
(0.000772938 -0.00207044 0)
(-0.000263159 -0.00119684 0)
(-0.000495343 -0.00215292 0)
(-0.00130151 -0.00244064 0)
(-0.00182675 -0.00292737 0)
(-0.00228219 -0.00373117 0)
(-0.000806242 -0.00448991 -2.89044e-22)
(0.00165184 -0.005294 -5.36051e-22)
(0.00541616 -0.00688068 4.53556e-21)
(0.00719377 -0.00796921 -4.83589e-21)
(0.00966296 -0.0111292 6.50342e-21)
(0.00988525 -0.0144782 9.59253e-21)
(0.00855593 -0.0141512 -3.24455e-20)
(0.00727442 -0.0154338 1.57709e-20)
(-0.000189446 -0.01216 -5.24136e-21)
(-0.00458746 -0.0108476 5.65178e-21)
(-0.014519 -0.00655941 -2.24408e-20)
(-0.0298129 0.00524612 7.90403e-21)
(-0.00407647 0.019946 -8.64271e-18)
(0.00109479 0.0212058 7.28288e-19)
(-0.0167691 0.0289462 7.26305e-21)
(-0.0106286 0.017547 4.43303e-21)
(-0.0149958 0.00833166 -4.19102e-21)
(-0.0140929 0.0138748 -1.58796e-20)
(-0.0152584 0.00427931 -1.76763e-20)
(-0.0155066 0.00982696 1.02766e-20)
(-0.0122497 0.00957169 -1.18729e-20)
(-0.00875072 0.00815635 7.5744e-21)
(-0.00504225 0.00733626 -2.2796e-21)
(-0.00173586 0.00623965 -2.66269e-21)
(0.00118422 0.00464213 7.58775e-22)
(0.00259536 0.0035182 0)
(0.00288791 0.0025762 0)
(0.00317542 0.00183916 0)
(0.00360298 0.00208366 0)
(0.00327242 0.000687121 0)
(0.00343605 0.00136614 0)
(-0.000489529 0.00221978 -1.98085e-23)
(0.00106519 0.00080914 0)
(0.000786413 -0.000373233 0)
(0.000888851 -0.000831519 0)
(0.00122423 -0.00208461 0)
(0.00130712 -0.00319845 0)
(0.0033039 -0.00450203 2.22927e-22)
(0.00721741 -0.00511463 -2.78825e-21)
(0.0116512 -0.00690843 -3.02296e-21)
(0.0159461 -0.00855476 -2.83798e-20)
(0.0203983 -0.012061 6.93221e-20)
(0.0241414 -0.0136678 -1.13063e-19)
(0.0270762 -0.0116687 6.25725e-20)
(0.0208073 -0.0141627 -2.25213e-20)
(0.014753 -0.0185134 1.41057e-19)
(0.00343393 -0.0215914 -1.1274e-19)
(-0.0148596 -0.0246477 1.59591e-19)
(-0.0464543 -0.0276802 -2.76792e-20)
(-0.00516555 -0.00504441 6.6546e-20)
(-0.0353201 -0.0437769 1.72187e-19)
(-0.0449073 0.0203773 2.16272e-20)
(0.00343037 0.0235106 -2.98597e-19)
(0.00375708 0.0112932 1.34709e-19)
(-0.00402872 0.00696598 3.95509e-20)
(-0.00513847 6.3369e-05 1.91939e-20)
(-0.00476562 0.0033344 -1.00893e-19)
(-0.00434257 0.00742066 -1.4749e-20)
(-0.00483241 0.00725271 -1.52752e-20)
(-0.00150994 0.00751554 1.1573e-20)
(0.00222111 0.00667219 -9.80657e-22)
(0.00488595 0.00548337 1.56507e-21)
(0.00618172 0.00429568 0)
(0.00523242 0.00324798 0)
(0.00459444 0.00181891 0)
(0.00449994 0.000641668 0)
(0.00517223 -3.89338e-05 0)
(0.00705075 -0.00323167 0)
(0.00182311 -0.00176405 5.73161e-24)
(0.00194645 -0.00220486 0)
(0.0031716 -0.00109057 0)
(0.00367549 -0.00161994 0)
(0.0042955 -0.00199176 0)
(0.00471203 -0.00206178 0)
(0.00633713 -0.00287167 -1.90897e-21)
(0.0115348 -0.00208894 3.8196e-21)
(0.0173824 -0.00436256 -4.34742e-21)
(0.022775 -0.00620874 1.46145e-20)
(0.02988 -0.00913499 1.29433e-20)
(0.0351159 -0.0114338 2.69265e-20)
(0.0396378 -0.0109353 -6.41194e-21)
(0.0228925 -0.0201989 -1.26697e-19)
(0.0173942 -0.0263488 3.19718e-19)
(0.0120891 -0.0294659 1.88932e-19)
(-0.0084962 -0.0394708 -1.60549e-19)
(-0.0458011 -0.0322119 -4.70394e-19)
(-0.0739943 0.039634 4.60402e-20)
(0.0148175 0.0311254 1.86555e-19)
(0.0557682 0.0521359 6.97982e-21)
(0.15287 -0.0126124 -1.65737e-19)
(-0.169736 -0.0206787 1.95925e-19)
(-0.0916383 0.0313453 2.68658e-19)
(0.0201735 0.0296222 6.24427e-20)
(0.0140638 0.015583 -7.93507e-20)
(0.00643079 -0.000543749 3.25764e-19)
(0.00936988 -0.00960604 -8.97458e-20)
(0.000743102 0.000893544 1.38889e-19)
(-0.00548857 0.00536439 -4.4136e-20)
(-0.00163847 0.00521721 -4.1571e-21)
(0.00274181 0.004981 2.46135e-20)
(0.00589363 0.00544989 -6.37219e-22)
(0.00949096 0.00518331 -2.77388e-21)
(0.00919098 0.00465405 0)
(0.00943124 0.00423632 0)
(0.00967842 0.00360416 0)
(0.00899413 0.00259511 0)
(0.00718331 0.00231852 0)
(0.00424534 0.00264447 0)
(0.00258884 -0.000561991 -4.78913e-21)
(0.00352231 -0.000341699 0)
(0.00405193 -0.000621713 0)
(0.00469395 -0.000762268 0)
(0.00647783 -0.000619932 0)
(0.00807965 -0.000120853 0)
(0.00924867 0.000180104 -3.9518e-23)
(0.0136282 0.000297625 6.34295e-21)
(0.0215035 0.000116315 -4.64068e-21)
(0.0284675 -0.00199851 -3.00192e-20)
(0.038524 -0.00401076 3.54902e-20)
(0.0416945 -0.0060989 2.01357e-20)
(0.0404194 -0.0213051 -1.08519e-19)
(0.0418749 -0.0184778 2.02364e-19)
(0.0375668 -0.0269052 -9.46682e-21)
(0.0246942 -0.0505278 -2.78999e-19)
(-0.00906224 -0.0470781 9.90128e-20)
(-0.0219545 0.0204711 -4.47949e-19)
(0.031799 -0.188723 5.97144e-19)
(-0.280242 -0.0119195 5.37588e-19)
(0.208877 -0.0202587 -3.96737e-19)
(0.119128 0.0159594 -2.27212e-19)
(-0.154981 0.154209 9.10721e-19)
(-0.0781004 0.0500574 -1.04072e-18)
(0.0525505 0.0198337 -1.3978e-19)
(0.0252732 -0.010577 -4.52795e-19)
(0.00893138 -0.0123563 1.54204e-19)
(-0.00631678 0.00209131 -1.88575e-19)
(-0.00846216 -0.00434406 6.48988e-21)
(-0.00509495 -0.000728079 -3.69988e-20)
(-0.00513912 0.00147652 9.53919e-21)
(0.00149083 0.00305668 -6.40847e-21)
(0.00778567 0.00307919 -5.54196e-22)
(0.0117262 0.0028181 8.74073e-23)
(0.0106547 0.00210495 0)
(0.0105276 0.00134094 0)
(0.0105826 0.000697836 0)
(0.0104338 0.000476248 0)
(0.0105711 0.000574349 0)
(0.0119889 0.001044 3.47488e-22)
(0.00432262 0.00019785 -1.00874e-22)
(0.00269935 0.00145078 0)
(0.00311151 0.0019095 0)
(0.00468858 0.00219108 0)
(0.00625188 0.00278119 0)
(0.0078188 0.00347317 0)
(0.0100415 0.0031478 0)
(0.0152794 0.00253703 -5.5848e-22)
(0.02438 -0.0013385 -2.17902e-21)
(0.0333912 0.000383474 8.31933e-21)
(0.0422813 -0.00334701 -1.20881e-20)
(0.053181 -0.00677768 2.75975e-20)
(0.0579861 -0.0176386 1.63499e-20)
(0.0577708 -0.0267834 -4.35142e-20)
(0.0497811 -0.0416955 -6.0648e-20)
(0.0587343 -0.0381553 -1.25278e-19)
(-0.0456784 -0.0820402 5.61776e-20)
(-0.0609969 -0.137673 3.83592e-18)
(0.0374721 0.112774 -1.07371e-18)
(-0.120491 -0.526419 2.67862e-18)
(0.0388358 -0.262937 3.31893e-19)
(-0.285736 0.217763 1.09197e-18)
(0.149104 0.061379 -1.61442e-19)
(0.0688904 0.0747612 -2.81741e-18)
(0.0886693 -0.076046 -1.4829e-19)
(0.0211298 -0.0391692 1.8307e-19)
(-0.0106766 -0.0224676 1.18529e-19)
(-0.0119771 -0.0148357 -9.24788e-20)
(-0.0136873 -0.0121263 3.91464e-21)
(-0.00712106 -0.00693738 -3.53661e-20)
(-0.00156133 -0.0022568 -2.08817e-21)
(0.00364552 0.00126932 1.95114e-20)
(0.00952371 -0.000556387 -2.65873e-21)
(0.0126066 0.00135901 0)
(0.0124466 0.000811418 0)
(0.0112112 0.000940014 0)
(0.00979039 0.00119944 0)
(0.00876971 0.0010076 0)
(0.00916594 0.000472364 0)
(0.00844105 -0.000797863 2.57759e-22)
(0.00354897 0.000374381 -3.88944e-22)
(0.00257584 0.00200567 0)
(0.00328428 0.00357931 0)
(0.0047478 0.00501151 0)
(0.0056816 0.00635155 0)
(0.00793132 0.00744025 0)
(0.0122726 0.00755535 0)
(0.0191629 0.00622331 0)
(0.0271417 0.00291954 1.01737e-21)
(0.0391657 -0.00102587 -1.91516e-21)
(0.0415353 -0.00280691 3.59595e-21)
(0.0558642 -0.011239 1.86298e-20)
(0.0600036 -0.0137252 7.99248e-20)
(0.0698998 -0.0159979 -3.95811e-20)
(0.0819138 -0.0268869 -9.75267e-20)
(0.0827738 -0.0621898 2.61038e-19)
(0.0860614 -0.096689 5.5023e-19)
(-0.416711 -0.0705921 -3.42271e-19)
(0.318976 -0.175725 1.3519e-18)
(0.595533 0.766118 9.90111e-19)
(-0.8381 0.266951 -2.05761e-20)
(-0.145279 -0.63805 1.52612e-18)
(-0.0709272 -0.0560668 1.09394e-18)
(0.281551 -0.247557 1.30053e-20)
(-0.000964959 -0.155085 -7.22852e-20)
(-0.0332156 -0.0680607 -4.78611e-21)
(-0.0491345 -0.0129057 4.77269e-20)
(-0.0372519 -0.0124818 -1.33426e-20)
(-0.0303082 -0.00921046 -5.28108e-20)
(-0.0193514 -0.00837449 1.41163e-20)
(-0.00712391 -0.00620654 -7.75707e-21)
(0.00197875 -0.00466464 -6.84821e-22)
(0.00981789 -0.00223511 0)
(0.0108694 -0.00148009 0)
(0.0119546 -0.000880989 0)
(0.0119223 -0.0001994 0)
(0.0116266 -0.000286055 7.51471e-21)
(0.0117321 -0.000624798 1.03923e-20)
(0.0114094 -0.000653341 6.19706e-21)
(0.0102654 0.000296326 0)
(-0.000335154 0.00232557 0)
(0.000828632 0.00422593 0)
(6.75918e-05 0.00562891 0)
(-0.000116965 0.00753658 0)
(0.000611153 0.00897376 0)
(0.0029884 0.0106766 0)
(0.00868132 0.0123183 0)
(0.0182074 0.0139838 0)
(0.0278106 0.0134104 -2.8134e-24)
(0.0395011 0.011077 1.08821e-21)
(0.04733 0.00621442 1.48661e-21)
(0.0510627 0.0011384 3.07258e-20)
(0.0630606 -0.00239597 -1.4956e-20)
(0.0742574 -0.018772 8.39889e-20)
(0.0654036 -0.0179844 8.11169e-19)
(0.108942 0.0234018 -1.64124e-20)
(0.227672 -0.0259817 1.64681e-20)
(-0.0515281 -0.256724 -3.51331e-19)
(-0.667552 -0.328152 5.26922e-19)
(-0.253974 -0.52886 -2.22746e-19)
(0.401912 0.313018 3.09064e-19)
(0.00977169 0.85752 1.00766e-19)
(0.0320603 -0.230608 -3.9794e-19)
(0.236819 -0.482847 -2.45701e-19)
(-0.19206 -0.151723 -1.077e-19)
(-0.121935 -0.0142759 4.31172e-21)
(-0.0516394 0.0325246 -2.88874e-20)
(-0.0392667 0.0104463 -2.27639e-21)
(-0.0271172 0.00671162 -1.85856e-20)
(-0.0199287 0.00267557 4.66113e-21)
(-0.0110802 -0.00264807 1.39225e-21)
(-0.00396034 -0.0022737 -1.30803e-23)
(0.00198477 -0.00080022 0)
(0.00776783 -0.000712328 0)
(0.0112105 -0.00152913 0)
(0.0116673 -0.00152062 0)
(0.0115503 -0.00180343 0)
(0.0114853 -0.0014786 0)
(0.0111342 -0.00091608 0)
(0.0114709 8.74083e-05 -1.1161e-21)
(-0.00648743 0.00130063 0)
(-0.00381158 0.0030915 0)
(-0.00281649 0.00520085 0)
(-0.00242664 0.00651467 0)
(-0.00201694 0.00768558 0)
(-0.000679166 0.00939714 0)
(0.00325826 0.0115439 0)
(0.0121855 0.0149351 0)
(0.0233556 0.0178825 0)
(0.0332303 0.0199646 0)
(0.0469495 0.0230174 5.52011e-22)
(0.052148 0.0158008 -1.47268e-20)
(0.0588527 0.013616 -8.09651e-21)
(0.0646425 -0.00539522 -5.15623e-21)
(0.0678849 -0.0133255 2.67869e-18)
(0.0415907 -0.00651408 1.92602e-19)
(0.17237 0.0385576 1.10741e-18)
(0.302949 0.0364963 -8.38282e-20)
(-0.0587185 -0.202027 1.27717e-19)
(-0.360391 -0.540563 -3.19816e-18)
(-0.331289 -1.03383 1.02649e-18)
(-0.03269 -1.10013 1.0209e-18)
(0.328841 -0.421915 3.44239e-19)
(0.302126 0.179025 4.63956e-21)
(-0.519681 0.165791 -1.09876e-20)
(-0.153116 0.113683 -7.15329e-21)
(-0.0145843 0.0408791 2.96424e-20)
(-0.016802 0.0228335 -1.64801e-20)
(-0.0112457 0.0141264 6.88248e-21)
(-0.0105314 0.00438548 -7.02754e-22)
(-0.00611278 0.00123259 0)
(-0.000809407 0.00168971 0)
(0.00389404 -0.000633747 0)
(0.0101976 -0.00183398 0)
(0.0123159 -0.00278039 0)
(0.0118452 -0.00266081 0)
(0.0110681 -0.00268609 0)
(0.0104868 -0.00194175 0)
(0.00978042 -0.00117486 0)
(0.0102411 -0.000914345 0)
(-0.00662647 -0.000386591 0)
(-0.00559211 0.00121155 0)
(-0.00493978 0.00404457 0)
(-0.0043061 0.00656516 0)
(-0.00373985 0.00898066 0)
(-0.00275778 0.0114319 0)
(0.000217615 0.0137044 0)
(0.0078898 0.0164457 0)
(0.0189875 0.0195664 0)
(0.0299204 0.0239323 0)
(0.0441639 0.0281354 0)
(0.0543864 0.0296422 1.00431e-22)
(0.0720944 0.0344558 7.61438e-22)
(0.0616746 0.0130215 8.46736e-21)
(0.0573181 0.0267091 8.16556e-19)
(-0.0104064 0.0542833 1.01044e-20)
(0.279734 0.0230323 7.78057e-19)
(0.245334 -0.174797 8.11895e-20)
(0.307144 -0.0874728 -6.53745e-19)
(0.0432202 0.0220643 4.52863e-19)
(-0.163421 0.13141 1.61842e-19)
(-0.155301 0.231704 1.74994e-19)
(-0.221992 0.299351 -3.61181e-19)
(-0.315469 0.226396 -3.9818e-19)
(-0.311031 0.24495 -5.25454e-20)
(0.0395739 0.149774 -1.34469e-19)
(0.0298358 0.0208779 -1.17515e-19)
(0.0147099 0.00572067 3.56979e-21)
(-0.000282463 -0.00250593 -1.37814e-22)
(-0.003346 -0.00665919 0)
(-0.00230931 -0.00629343 0)
(0.0013901 -0.00496441 0)
(0.00631055 -0.00526013 0)
(0.0119894 -0.00410885 0)
(0.0128953 -0.00364898 0)
(0.0115982 -0.00296072 0)
(0.00998133 -0.0023321 0)
(0.00891427 -0.00143558 0)
(0.00823782 -0.000683655 0)
(0.00715685 -0.000454665 0)
(-0.00663384 -0.000267408 0)
(-0.00767954 0.00206096 0)
(-0.00826041 0.00431887 0)
(-0.00871878 0.00720771 0)
(-0.00876536 0.0105444 0)
(-0.00813054 0.0140065 0)
(-0.00411405 0.0172503 0)
(0.00379371 0.0199417 0)
(0.0132385 0.0217839 0)
(0.0221478 0.0295855 0)
(0.0348183 0.0303759 -1.37404e-20)
(0.0434243 0.0420735 0)
(0.0759213 0.0533185 0)
(0.120916 0.0657381 -3.78439e-19)
(0.164487 -0.00642378 4.70243e-19)
(-0.185947 -0.151512 1.45531e-18)
(0.125636 0.402856 3.86913e-20)
(0.30517 0.851365 1.78504e-19)
(0.0447599 0.863299 2.79493e-19)
(-0.201947 0.786279 1.02721e-18)
(-0.217851 0.498121 -3.73531e-19)
(0.0755621 0.28215 -1.26911e-19)
(0.198376 -0.00603512 -5.73421e-20)
(-0.0192961 -0.00782891 8.52287e-20)
(-0.413937 0.155531 2.78377e-20)
(0.301416 -0.06048 -3.90286e-19)
(0.0708491 -0.0473057 -6.07906e-20)
(0.0097312 -0.0242196 0)
(-0.00729245 -0.0205865 0)
(-0.0113524 -0.0190224 1.08128e-20)
(-0.00874604 -0.0149431 0)
(-0.00386571 -0.013865 0)
(0.00377994 -0.0107381 0)
(0.00912681 -0.00819848 0)
(0.0106254 -0.00603222 0)
(0.00987289 -0.00459307 0)
(0.00913663 -0.00314971 0)
(0.00862022 -0.00246896 -1.23679e-21)
(0.00837025 -0.00175396 -8.87285e-22)
(0.00752199 -0.000819883 0)
(-0.00960399 0.0020988 0)
(-0.0123116 0.0045398 0)
(-0.0132118 0.00712712 0)
(-0.013413 0.00955279 0)
(-0.0133436 0.0121499 0)
(-0.0127757 0.0151211 0)
(-0.00891667 0.018607 0)
(-0.00134283 0.023656 0)
(0.00769369 0.0283396 0)
(0.0146799 0.0363284 0)
(0.0178231 0.0433064 3.95059e-21)
(0.0306446 0.054734 0)
(0.0379397 0.075782 0)
(0.132903 0.135654 -7.82009e-20)
(0.255282 0.14539 -6.23825e-19)
(0.0533576 0.116063 -1.71481e-19)
(-0.368012 -0.455016 0)
(-0.370494 -0.625106 -1.05433e-19)
(-0.354754 -0.55563 9.56337e-19)
(-0.360014 -0.394631 -1.29429e-18)
(-0.221679 -0.149802 3.34095e-18)
(-0.0968792 0.101308 -1.85717e-18)
(-0.0366976 0.221581 1.45784e-19)