/*--------------------------------*- C++ -*----------------------------------*\
| =========                 |                                                 |
| \\      /  F ield         | OpenFOAM: The Open Source CFD Toolbox           |
|  \\    /   O peration     | Version:  v2106                                 |
|   \\  /    A nd           | Website:  www.openfoam.com                      |
|    \\/     M anipulation  |                                                 |
\*---------------------------------------------------------------------------*/
FoamFile
{
    version     2.0;
    format      ascii;
    arch        "LSB;label=32;scalar=64";
    class       volScalarField;
    location    "0";
    object      p;
}
// * * * * * * * * * * * * * * * * * * * * * * * * * * * * * * * * * * * * * //

dimensions      [0 2 -2 0 0 0 0];

internalField   nonuniform List<scalar> 
11644
(
0.0251126
0.0255564
0.0264904
0.0279376
0.02991
0.0324271
0.0355145
0.0391956
0.0434843
0.0483807
0.0538681
0.0598904
0.066362
0.0731692
0.0801386
0.0870747
0.0937444
0.0999021
0.105354
0.109876
0.113242
0.115322
0.116158
0.115949
0.114746
0.112606
0.109789
0.106517
0.102981
0.0993755
0.0958437
0.0924922
0.0894046
0.0866392
0.0842335
0.082212
0.0805897
0.0793754
0.0785797
0.0781985
0.0243185
0.0247529
0.0256511
0.0270408
0.0289465
0.0313949
0.0344174
0.0380446
0.0423011
0.0472018
0.0527425
0.0588971
0.0655985
0.0727214
0.080097
0.0875045
0.0946937
0.101376
0.107226
0.111936
0.115334
0.117387
0.118101
0.117608
0.116037
0.113562
0.110395
0.106784
0.102967
0.0991279
0.095415
0.0919385
0.0887697
0.0859563
0.0835274
0.0815012
0.0798856
0.0786849
0.077899
0.0775183
0.0226388
0.0230649
0.0239195
0.0252233
0.0270111
0.0293243
0.0322058
0.0357035
0.0398674
0.0447433
0.050367
0.0567582
0.0638885
0.0716656
0.0799236
0.0883872
0.0967257
0.104478
0.111141
0.116399
0.120067
0.122082
0.122378
0.121198
0.118793
0.115461
0.111499
0.107194
0.102792
0.0984981
0.0944541
0.0907498
0.0874376
0.0845443
0.08208
0.0800463
0.0784378
0.0772459
0.076457
0.0760628
0.0201401
0.0205319
0.0213134
0.0224937
0.024112
0.0262198
0.0288771
0.0321551
0.0361378
0.0409218
0.0466114
0.0533085
0.0610707
0.0698843
0.0795841
0.0897303
0.0998247
0.109397
0.117631
0.123986
0.128084
0.129799
0.129163
0.126666
0.12286
0.118107
0.112881
0.107515
0.102267
0.0973272
0.092824
0.08882
0.0853308
0.0823476
0.0798501
0.0778141
0.0762167
0.0750333
0.074244
0.0738439
0.0169277
0.0172584
0.0179168
0.0189168
0.0202951
0.0221077
0.0244309
0.027361
0.0310226
0.0355749
0.0412277
0.0482292
0.0567915
0.0669852
0.0787074
0.0913578
0.104025
0.11673
0.127692
0.135772
0.140374
0.141231
0.138829
0.133882
0.12776
0.120828
0.113805
0.107092
0.100877
0.0952511
0.0902692
0.0859654
0.082319
0.0792732
0.0767715
0.0747617
0.0731995
0.0720483
0.0712817
0.0708963
0.0131419
0.0133804
0.0138643
0.0146116
0.0156564
0.0170568
0.0188941
0.0212833
0.0243901
0.0284766
0.0339084
0.0410835
0.0503523
0.06203
0.0763272
0.0927221
0.10957
0.127256
0.142639
0.153697
0.158918
0.157915
0.152068
0.142858
0.132801
0.122653
0.113137
0.10481
0.097715
0.0916206
0.0863761
0.081921
0.0782207
0.0752041
0.072778
0.0708618
0.0693897
0.0683151
0.0676065
0.0672498
0.00893486
0.00906596
0.00932949
0.00974344
0.0103465
0.0111904
0.0123512
0.0139495
0.0161977
0.0194962
0.02432
0.0311163
0.0403828
0.0531147
0.0701436
0.091482
0.109969
0.13208
0.15356
0.170489
0.178886
0.177599
0.168493
0.154938
0.136461
0.121834
0.109277
0.099492
0.091822
0.0856467
0.0805833
0.0763536
0.072854
0.070044
0.067832
0.0661142
0.0648131
0.0638734
0.063264
0.0629631
0.00449413
0.00449267
0.0044963
0.00451833
0.00458008
0.00472032
0.00500293
0.00553793
0.00659043
0.00860067
0.0119933
0.0173189
0.0253953
0.0383626
0.055284
0.0773341
0.108409
0.144015
0.179459
0.207463
0.219206
0.21247
0.192309
0.167291
0.142937
0.121185
0.106449
0.0899483
0.0824955
0.0768275
0.0724776
0.0689724
0.0660757
0.0637422
0.0619327
0.0605546
0.0595298
0.0588057
0.0583368
0.0581096
4.00321e-05
-0.000102262
-0.000384765
-0.000808105
-0.00136868
-0.00205295
-0.00282722
-0.00361072
-0.00414896
-0.00411371
-0.0031965
-0.000934533
0.00335589
0.0181546
0.0328152
0.0577521
0.0922435
0.141631
0.201642
0.254281
0.278221
0.262782
0.222119
0.178402
0.14032
0.110451
0.0934696
0.0749972
0.0690555
0.0649963
0.0620331
0.059731
0.0578573
0.056334
0.0551606
0.0542894
0.0536532
0.0532074
0.0529253
0.0527767
-0.0041947
-0.0044683
-0.0050444
-0.00593058
-0.00714842
-0.00872699
-0.0106872
-0.0129956
-0.0155335
-0.01822
-0.020898
-0.0233251
-0.0255689
-0.0156486
-0.00886509
0.013766
0.0496505
0.112057
0.211905
0.330299
0.389565
0.341696
0.245071
0.166982
0.113209
0.0792138
0.0674338
0.0533989
0.051629
0.0503863
0.0494907
0.0488764
0.0483987
0.0479838
0.0476673
0.0474579
0.0473262
0.047238
0.0471858
0.0471702
-0.00792046
-0.00835626
-0.0092128
-0.0105425
-0.0123888
-0.0148348
-0.0179994
-0.0219408
-0.0267287
-0.0326245
-0.0398865
-0.0486519
-0.05956
-0.0612354
-0.0702843
-0.0705195
-0.059702
-0.0278445
0.0906888
0.362213
0.578564
0.381296
0.160723
0.0681179
0.0365858
0.0260441
0.029567
0.0267075
0.0306919
0.0332785
0.0353077
0.03692
0.0381391
0.039041
0.0397519
0.0403313
0.0407863
0.0411198
0.0413292
0.0414205
-0.0109875
-0.0115017
-0.0125943
-0.0142961
-0.0166855
-0.0198818
-0.0240955
-0.0295253
-0.0364712
-0.0454617
-0.0572742
-0.0729151
-0.0939446
-0.105433
-0.141579
-0.174008
-0.232956
-0.350318
-0.640637
-0.368459
-0.153385
-0.0730756
-0.0364691
-0.0136842
-0.00191078
0.00798661
0.0151607
0.0205915
0.0246356
0.0276794
0.0300043
0.0318144
0.033228
0.0342843
0.0350388
0.0355356
0.0357843
-0.0131298
-0.0137356
-0.0149811
-0.0169222
-0.0196773
-0.0233798
-0.0282832
-0.0347247
-0.0431991
-0.0544042
-0.0694142
-0.0898232
-0.117487
-0.142514
-0.195474
-0.257287
-0.365008
-0.57222
-0.825889
-0.391551
-0.269875
-0.148071
-0.0854561
-0.049856
-0.0271503
-0.0123151
-0.0013249
0.00690322
0.0130623
0.0177921
0.0214737
0.0243298
0.0265162
0.0281394
0.0293095
0.0300917
0.0304903
-0.0142039
-0.0148788
-0.0161938
-0.0182374
-0.0211108
-0.0249687
-0.0300559
-0.0367674
-0.0456939
-0.057557
-0.073463
-0.0949117
-0.123881
-0.155585
-0.211665
-0.282284
-0.391249
-0.55138
-0.635288
-0.295575
-0.240237
-0.158493
-0.103806
-0.0707745
-0.0438255
-0.0270765
-0.0141637
-0.00430456
0.0033165
0.00931348
0.0140795
0.0178046
0.0206127
0.0226884
0.0241592
0.0251101
0.0256255
-0.0143612
-0.0149167
-0.0161761
-0.0181253
-0.0208461
-0.0244974
-0.029203
-0.0353347
-0.0435247
-0.054264
-0.0685097
-0.0871325
-0.111442
-0.142888
-0.190716
-0.257416
-0.360158
-0.524867
-0.688016
-0.728967
-0.599563
-0.360516
-0.211504
-0.164983
-0.137236
-0.103155
-0.0770901
-0.0515565
-0.0354593
-0.0223497
-0.0120111
-0.0037226
0.00293669
0.0083542
0.0126113
0.0158001
0.0181609
0.0198159
0.020867
0.0212872
-0.0134895
-0.0139703
-0.0150567
-0.0167108
-0.0190121
-0.0220438
-0.0257936
-0.0305363
-0.0367923
-0.0447154
-0.0547436
-0.0674737
-0.0832364
-0.110103
-0.141077
-0.187686
-0.270358
-0.415287
-0.661349
-0.805057
-0.648255
-0.318661
-0.138214
-0.129508
-0.128786
-0.102132
-0.078452
-0.0530667
-0.0380641
-0.0257138
-0.015723
-0.00751544
-0.000785763
0.00474132
0.00906658
0.0123527
0.0148144
0.0165368
0.0175807
0.017956
-0.0115366
-0.0120154
-0.012824
-0.0140369
-0.0156788
-0.017751
-0.0202209
-0.0230437
-0.0264905
-0.0306461
-0.0354576
-0.041251
-0.0475197
-0.0526595
-0.0755934
-0.0917802
-0.136136
-0.191468
-0.296709
-0.423484
-0.431996
-0.311892
-0.231054
-0.212919
-0.150851
-0.10765
-0.069915
-0.0504
-0.0362347
-0.0247824
-0.01556
-0.00795835
-0.00167829
0.00339193
0.00737432
0.0104611
0.012777
0.0144003
0.0154269
0.0159306
-0.00865127
-0.00894976
-0.00942336
-0.0101101
-0.0109749
-0.0119793
-0.0131036
-0.0140522
-0.0148355
-0.0154673
-0.0155539
-0.0147089
-0.0119538
-0.00887304
-0.0118866
-0.00381461
-0.0126751
-0.03016
-0.100631
-0.255297
-0.393495
-0.426205
-0.385859
-0.285356
-0.163997
-0.10774
-0.0629309
-0.0442221
-0.0308136
-0.0203605
-0.0122474
-0.00567237
-0.000276941
0.00404733
0.00744262
0.0100826
0.0120893
0.0135364
0.014509
0.0150321
-0.0050898
-0.00514016
-0.00530156
-0.00550759
-0.0056835
-0.0057497
-0.00562261
-0.00508605
-0.00396092
-0.00195734
0.00138711
0.00680992
0.0158823
0.0255506
0.0324294
0.0536266
0.0614447
0.0401108
-0.0707466
-0.273233
-0.433396
-0.462247
-0.377374
-0.242975
-0.133772
-0.0877773
-0.0484206
-0.0325129
-0.0212991
-0.0128767
-0.00643669
-0.00125363
0.00296302
0.00633147
0.00897237
0.0110401
0.0126292
0.0137897
0.014578
0.0149881
-0.00137546
-0.0013046
-0.00120156
-0.0010185
-0.000692257
-0.000138766
0.000788592
0.00224497
0.00450619
0.00793467
0.0128936
0.020122
0.0307778
0.0434086
0.0527978
0.0717569
0.0766187
0.0390352
-0.0613084
-0.205494
-0.29934
-0.291194
-0.216213
-0.138903
-0.0817184
-0.0548136
-0.0255962
-0.0155343
-0.0081391
-0.00268903
0.00149135
0.00486446
0.00759366
0.00978601
0.0115523
0.0129666
0.0140621
0.0148606
0.0153907
0.0156587
0.00216465
0.00228252
0.00255651
0.00298293
0.00358988
0.0044565
0.00566618
0.00736398
0.00977161
0.0131662
0.0176849
0.0235102
0.0308758
0.0393828
0.0460811
0.0474317
0.0390645
0.000748617
-0.061626
-0.121539
-0.148102
-0.135875
-0.104317
-0.0753288
-0.0425138
-0.0230739
-0.00302852
0.00236652
0.00616465
0.00870488
0.0104054
0.0117514
0.012842
0.0137991
0.0146674
0.0154117
0.016013
0.0164542
0.0167295
0.0168584
0.00556824
0.00570666
0.00602144
0.00651944
0.00720459
0.00811911
0.0093007
0.0107757
0.0126279
0.0149087
0.0175594
0.0204371
0.0222683
0.0237873
0.00851087
-0.00530397
-0.0403534
-0.0931218
-0.144085
-0.1612
-0.145794
-0.110669
-0.071092
-0.0368354
-0.0133856
0.00885679
0.0151513
0.0179435
0.0190422
0.0189714
0.0185773
0.018174
0.0178712
0.0177458
0.0177844
0.0179074
0.0180649
0.0182122
0.0183082
0.0183346
0.00878188
0.00893005
0.00923405
0.00971134
0.010355
0.011169
0.0121751
0.0133172
0.0144993
0.0154946
0.0158656
0.0158003
0.0113979
0.00191676
-0.0164003
-0.0799323
-0.145527
-0.208224
-0.26858
-0.26693
-0.206227
-0.130876
-0.0629731
-0.0146485
0.0123606
0.0255211
0.0293779
0.0299849
0.0289426
0.0268741
0.024982
0.0233355
0.0220763
0.0211584
0.0205614
0.0201626
0.0199298
0.0198164
0.0197786
0.019785
0.0117039
0.0118354
0.012134
0.0125931
0.0131957
0.0139169
0.0147425
0.0155944
0.0163187
0.0165803
0.015715
0.0132517
0.00653426
-0.00812545
-0.0330527
-0.0839832
-0.147283
-0.215981
-0.281001
-0.293206
-0.228461
-0.153879
-0.0793417
-0.0208535
0.0145213
0.0332229
0.0397002
0.0385904
0.0356984
0.0323786
0.0294716
0.0270513
0.0252311
0.0238493
0.0228555
0.0221095
0.0216047
0.0212897
0.0211281
0.0211255
0.0142899
0.0144249
0.0147339
0.0151957
0.0157912
0.0164868
0.0172324
0.0179263
0.018439
0.0184981
0.0174782
0.0146471
0.00874445
-0.00405553
-0.026452
-0.0634599
-0.110917
-0.161105
-0.2049
-0.215059
-0.179191
-0.126912
-0.0714951
-0.0228829
0.0102139
0.0315583
0.0420123
0.0428229
0.0392898
0.035563
0.0321949
0.029471
0.0273986
0.025807
0.0245989
0.0237086
0.0230939
0.0226886
0.0224531
0.0223734
0.0164865
0.0166728
0.0170188
0.0175043
0.0181162
0.018827
0.0195863
0.0203002
0.0209074
0.0212298
0.0209331
0.019238
0.0157917
0.00813218
-0.00481961
-0.0274408
-0.0584546
-0.0911872
-0.117073
-0.129062
-0.122563
-0.0992006
-0.0650549
-0.0275258
0.00277953
0.0234327
0.0354616
0.0396756
0.0383067
0.0356412
0.0327935
0.0304106
0.028482
0.0269265
0.0257218
0.0248227
0.0241817
0.0237446
0.0234738
0.0233235
0.0183175
0.0185502
0.0189072
0.0194002
0.0200273
0.0207764
0.0216306
0.0225477
0.0234595
0.0242902
0.0247361
0.0244249
0.0227936
0.0192323
0.0117264
-0.00275409
-0.0257518
-0.052656
-0.0758464
-0.0936375
-0.101864
-0.094113
-0.0730193
-0.0429658
-0.0149478
0.00708064
0.021743
0.0297039
0.0321625
0.0319768
0.0308836
0.0295541
0.0282369
0.0270622
0.0260976
0.0253283
0.0247378
0.0243053
0.024019
0.023882
0.0198445
0.0200382
0.0203668
0.0208523
0.0215011
0.0223178
0.02331
0.0244656
0.0257522
0.0270211
0.0280019
0.0283131
0.0270608
0.0233266
0.0166355
0.004656
-0.0164013
-0.0442172
-0.0761994
-0.10242
-0.114486
-0.113048
-0.0960087
-0.0699326
-0.0414137
-0.0164689
0.00347685
0.0170368
0.023723
0.0264921
0.027451
0.0274291
0.0270038
0.0264528
0.0258833
0.0253544
0.0249138
0.0245773
0.0243472
0.0242205
0.0210437
0.0211228
0.0214393
0.0219439
0.022632
0.0235055
0.0245793
0.02586
0.0273478
0.0288518
0.0301658
0.0309972
0.0298661
0.0253257
0.0155727
-0.000281302
-0.0238477
-0.0555515
-0.0942779
-0.129159
-0.151418
-0.150822
-0.13325
-0.105281
-0.0699201
-0.0375701
-0.0109331
0.00713028
0.0168071
0.0219049
0.0243218
0.0252599
0.0256371
0.0256486
0.025449
0.0251812
0.0249218
0.0246989
0.0245242
0.0244059
0.0219544
0.0220097
0.0222892
0.0227623
0.0234296
0.024289
0.0253441
0.0265954
0.0280442
0.029599
0.0309025
0.0327571
0.0315699
0.0264678
0.015031
-0.00482011
-0.0320163
-0.0669862
-0.109947
-0.149981
-0.178084
-0.177812
-0.152881
-0.121492
-0.0803518
-0.0445734
-0.0159343
0.00225319
0.0131345
0.0191496
0.0223115
0.0239106
0.0247015
0.0249552
0.0249993
0.0249192
0.0247838
0.0246456
0.0245264
0.024439
0.0225499
0.0226818
0.0229339
0.0233352
0.0239123
0.0246708
0.0256133
0.0267371
0.0280536
0.0295485
0.0308465
0.0319915
0.0301707
0.0238297
0.0123429
-0.0062322
-0.0316718
-0.0641401
-0.102099
-0.135187
-0.158683
-0.15409
-0.130481
-0.100474
-0.0662116
-0.0369547
-0.013364
0.00259788
0.0127462
0.0184391
0.0216001
0.0233053
0.024177
0.0245599
0.0246922
0.0246944
0.0246264
0.0245446
0.0244737
0.0244268
0.0227337
0.0228934
0.0231413
0.023498
0.0239886
0.0246242
0.0254131
0.0263348
0.027395
0.02851
0.0292938
0.0291287
0.0260148
0.0186672
0.00658718
-0.0103828
-0.0323275
-0.0588184
-0.0835978
-0.101964
-0.110533
-0.104163
-0.0876482
-0.0644622
-0.0410353
-0.0204077
-0.00335731
0.00820285
0.0154843
0.0196843
0.0220861
0.0234312
0.0241323
0.0244966
0.0246306
0.0246472
0.0245946
0.0245219
0.0244554
0.0244166
0.0225949
0.0226909
0.022897
0.0232021
0.0236023
0.0240902
0.0246596
0.0252669
0.0258257
0.02611
0.0258122
0.0239156
0.0191184
0.0102885
-0.00289612
-0.0195253
-0.0385792
-0.059012
-0.0744818
-0.0810171
-0.078064
-0.0697277
-0.0563881
-0.0376399
-0.0201043
-0.00435545
0.00748778
0.0151442
0.0194753
0.0219093
0.0232708
0.0240273
0.0244179
0.0246157
0.024666
0.0246442
0.024584
0.0245113
0.0244463
0.024392
0.0223127
0.0223612
0.022489
0.0226881
0.0229424
0.0232167
0.0234651
0.023598
0.0234545
0.0226659
0.0208138
0.0168201
0.0094574
-0.00152182
-0.0159607
-0.0329351
-0.0501956
-0.0664915
-0.0776872
-0.0800008
-0.0742697
-0.0608332
-0.0434696
-0.024408
-0.00722752
0.00635198
0.0150662
0.0201962
0.022754
0.0240341
0.0246374
0.0248191
0.0248246
0.024749
0.0246381
0.0245305
0.0244374
0.0243605
0.0243058
0.0242632
0.0219512
0.0219948
0.0220781
0.0221779
0.0222669
0.0222989
0.0222031
0.0218481
0.0210563
0.0193802
0.0160299
0.0100321
-0.000276047
-0.0145451
-0.0321039
-0.0516887
-0.0699494
-0.0849531
-0.0953174
-0.0962924
-0.0872493
-0.0675557
-0.0434844
-0.0213835
-0.0030457
0.0100488
0.0179259
0.0226442
0.0250157
0.0258437
0.0258476
0.025556
0.0251764
0.0248221
0.0245352
0.0243131
0.0241432
0.0240285
0.0239671
0.0239965
0.0215171
0.0215871
0.0216307
0.0216481
0.0215999
0.02145
0.0211251
0.0204594
0.0192357
0.0170351
0.0129806
0.00609579
-0.00536091
-0.0220357
-0.0433022
-0.0669374
-0.0890262
-0.105189
-0.11775
-0.118886
-0.102304
-0.0770855
-0.0491326
-0.025211
-0.00575865
0.00856983
0.0183569
0.0239828
0.0264509
0.0269156
0.0263811
0.0258
0.0252034
0.0247072
0.0243222
0.0240289
0.0238155
0.0236889
0.0236402
0.023677
0.0210398
0.0211028
0.02111
0.0210827
0.0209786
0.0207665
0.0203545
0.019601
0.0182367
0.0159021
0.0118994
0.00519536
-0.00528121
-0.0205493
-0.0404323
-0.0634658
-0.0870853
-0.10508
-0.119447
-0.1217
-0.103093
-0.0785875
-0.0504276
-0.0270894
-0.00755631
0.00707457
0.0170741
0.0228461
0.0257053
0.0263528
0.0258765
0.0253514
0.0247795
0.0243086
0.0239493
0.0236733
0.0234799
0.0233619
0.0232987
0.0232713
0.020597
0.0206133
0.0206119
0.0205838
0.0204933
0.0202954
0.0199296
0.0192783
0.0181322
0.0161883
0.0128893
0.0074808
-0.000886495
-0.0125948
-0.0271823
-0.0447207
-0.0640768
-0.0803217
-0.0926175
-0.0962553
-0.085814
-0.0686069
-0.0476426
-0.0272468
-0.00990221
0.00361528
0.0131671
0.0194307
0.0229594
0.0243719
0.024503
0.0242443
0.0238784
0.0235465
0.0232777
0.0230679
0.0229129
0.0228048
0.0227245
0.0226528
0.0202649
0.020263
0.0202713
0.0202625
0.0202105
0.0200765
0.019824
0.0193831
0.0186431
0.01738
0.0152356
0.0116858
0.00601031
-0.00236521
-0.0129799
-0.0257177
-0.0397073
-0.0531194
-0.0620256
-0.0665031
-0.066547
-0.0589489
-0.0461092
-0.0300572
-0.0155082
-0.00314987
0.00680419
0.0141611
0.0187636
0.0212129
0.0222281
0.0224928
0.0224882
0.0223738
0.0222439
0.022123
0.0220217
0.0219424
0.0218832
0.021843
0.0200037
0.0200192
0.0200253
0.0200215
0.0200049
0.019956
0.0198547
0.0196667
0.0193305
0.0187642
0.0177514
0.0159057
0.0124528
0.00644745
-0.00204188
-0.0126968
-0.0246044
-0.0371743
-0.0472589
-0.0547237
-0.0583398
-0.0561586
-0.0478814
-0.0357596
-0.0235566
-0.0118193
-0.00140934
0.0070579
0.0130617
0.0169305
0.0190749
0.0201527
0.0206935
0.020917
0.0209939
0.0210048
0.0209877
0.0209711
0.0209706
0.020993
0.0196543
0.0196557
0.0196682
0.0196925
0.019735
0.0197952
0.019873
0.0199578
0.0200147
0.0199724
0.019677
0.0188017
0.0168462
0.012773
0.00544
-0.00509708
-0.0182469
-0.032745
-0.0469268
-0.0578676
-0.0630886
-0.0632923
-0.0568207
-0.046655
-0.0350992
-0.0228589
-0.0111079
-0.00112266
0.00671081
0.0123436
0.0157707
0.0177337
0.0188379
0.0194431
0.0197798
0.0199588
0.0200468
0.0200921
0.0201221
0.0201553
0.0192239
0.0191735
0.0191907
0.0192507
0.0193626
0.0195291
0.0197518
0.0200562
0.0204415
0.0207886
0.020986
0.0204892
0.0186222
0.0148065
0.00780025
-0.0026684
-0.0166685
-0.0330923
-0.0505896
-0.0662483
-0.077248
-0.0779159
-0.0715197
-0.0616972
-0.0491264
-0.0349062
-0.0205008
-0.00786277
0.00199427
0.00896871
0.0132599
0.0157623
0.0172803
0.0181772
0.0187312
0.0190589
0.0192355
0.0193236
0.0193581
0.0193548
0.0187889
0.0187558
0.0187715
0.018836
0.0189616
0.0191547
0.0194177
0.0197723
0.0203029
0.0207335
0.0211354
0.0206782
0.0185222
0.0142934
0.00705861
-0.00339914
-0.0171838
-0.0336635
-0.0530192
-0.0714913
-0.0860503
-0.087451
-0.0798909
-0.0694185
-0.0545856
-0.0387286
-0.0229964
-0.00952012
0.000591304
0.00751
0.0119063
0.0145864
0.0162181
0.0172421
0.017845
0.0182452
0.0184777
0.018605
0.0186535
0.0186014
0.0182546
0.0182824
0.0183205
0.0183814
0.0184821
0.0186342
0.0188432
0.0191159
0.0194569
0.0196818
0.019698
0.018705
0.0162708
0.011931
0.00484223
-0.00520156
-0.0180515
-0.0332164
-0.0501866
-0.0656453
-0.0774354
-0.0773507
-0.0694819
-0.0589386
-0.0448411
-0.0303804
-0.0171429
-0.00626849
0.00200208
0.00790477
0.0118327
0.0142507
0.0157071
0.0166207
0.0171868
0.0175447
0.0177627
0.0178755
0.017928
0.017906
0.0175392
0.0175829
0.0176206
0.0176617
0.0177151
0.0177895
0.0178774
0.0179584
0.0180092
0.0178088
0.0170429
0.0152592
0.0120266
0.00698566
-0.000109151
-0.00943637
-0.0206895
-0.0331865
-0.0446445
-0.0532692
-0.0572235
-0.0553319
-0.0488446
-0.0394307
-0.0282788
-0.0173921
-0.00806474
-0.000274031
0.00577949
0.0100942
0.0129223
0.0146654
0.0157155
0.0163707
0.0167809
0.017038
0.0171861
0.0172618
0.0172999
0.0173216
0.0167218
0.0167107
0.0167054
0.0167005
0.0166888
0.0166572
0.0165801
0.0163824
0.0159812
0.0151701
0.0135101
0.0106355
0.00624037
0.000232643
-0.0072443
-0.0159529
-0.0252184
-0.034699
-0.041598
-0.0449909
-0.0436784
-0.0393485
-0.0326034
-0.0238954
-0.0151382
-0.00670272
0.000272887
0.00599971
0.0101564
0.0128587
0.0144713
0.0154016
0.0159735
0.0163456
0.01658
0.0167277
0.0168139
0.0168594
0.0168822
0.0169011
0.0159123
0.0158606
0.0158081
0.0157462
0.0156556
0.0154968
0.0152151
0.0146972
0.0137572
0.0121567
0.00949678
0.00538038
-0.000219313
-0.00722553
-0.0153475
-0.024037
-0.0325289
-0.0400837
-0.0444693
-0.0443688
-0.0415194
-0.0351029
-0.0260989
-0.0162936
-0.00698105
0.00103757
0.00713711
0.011444
0.0139581
0.0152346
0.0158372
0.0161215
0.0162716
0.0163695
0.0164277
0.0164654
0.0164931
0.0165162
0.0165314
0.0165233
0.01515
0.0151128
0.0150597
0.014967
0.0148007
0.01451
0.0140247
0.0132323
0.0118537
0.00952482
0.00574788
0.000255233
-0.00693801
-0.015726
-0.0253573
-0.0349994
-0.0437265
-0.0505016
-0.0540239
-0.0522025
-0.0458536
-0.0361376
-0.024283
-0.0125263
-0.00210068
0.00606357
0.0116748
0.014856
0.0162924
0.0168027
0.0168174
0.0166573
0.0164677
0.0163061
0.0161871
0.0161057
0.0160567
0.0160322
0.0160269
0.0160525
0.0144599
0.0144804
0.0144323
0.0143141
0.0140887
0.0137066
0.0130803
0.0121214
0.0105151
0.00791353
0.00365519
-0.00267843
-0.0111794
-0.0218126
-0.0332119
-0.044185
-0.054129
-0.0609058
-0.0648538
-0.0622545
-0.0505491
-0.0374196
-0.0230249
-0.0104209
-0.000129967
0.00761778
0.0127852
0.0156267
0.0171494
0.0174913
0.0171828
0.0167584
0.0163337
0.0160193
0.0157938
0.0156389
0.0155426
0.0154991
0.0154974
0.0155484
0.013833
0.0138775
0.0138282
0.0137029
0.0134644
0.0130785
0.012457
0.0114929
0.00989095
0.007423
0.00345272
-0.002385
-0.0102413
-0.0203667
-0.0319066
-0.043173
-0.0534572
-0.0604306
-0.0647584
-0.0624044
-0.0505508
-0.0367908
-0.0226257
-0.0106119
-0.00093641
0.00642211
0.0115312
0.0145173
0.0161653
0.0167087
0.0165332
0.0161979
0.0158218
0.0155191
0.0153065
0.0151612
0.0150747
0.0150339
0.0150235
0.0150364
0.013277
0.0132831
0.0132374
0.0131389
0.012958
0.0126604
0.0121811
0.0114063
0.0101403
0.0081424
0.00505416
0.000510332
-0.00534282
-0.0128761
-0.0217918
-0.0311761
-0.0403752
-0.0470725
-0.0512759
-0.0506496
-0.0439519
-0.0343106
-0.0234843
-0.013364
-0.00454253
0.00258145
0.00782698
0.0113037
0.0134016
0.014512
0.0149216
0.0149724
0.0148483
0.0147175
0.0146131
0.0145374
0.0144899
0.0144595
0.0144342
0.0144037
0.01285
0.0128242
0.0127979
0.0127449
0.0126433
0.0124662
0.0121775
0.0117096
0.0109192
0.00963523
0.00762529
0.00460907
0.000557295
-0.00463204
-0.0108521
-0.0178637
-0.0248968
-0.030988
-0.0353615
-0.0371346
-0.0362114
-0.031795
-0.0252697
-0.017633
-0.0101443
-0.00345831
0.00206116
0.00630832
0.00934174
0.0113548
0.0125557
0.0131479
0.0134089
0.0135322
0.0135891
0.0136178
0.0136354
0.0136439
0.0136424
0.013628
0.0125534
0.0125474
0.0125334
0.012508
0.0124618
0.0123889
0.0122705
0.0120884
0.0117788
0.0112386
0.0102185
0.00845886
0.00572193
0.00197363
-0.00274458
-0.00849962
-0.0149154
-0.0213203
-0.0270145
-0.0310518
-0.0324618
-0.0318615
-0.0285296
-0.022942
-0.016515
-0.0101175
-0.00428894
0.000721654
0.00473938
0.00774048
0.00978035
0.0110123
0.0117373
0.0121667
0.0124122
0.0125584
0.0126517
0.0127192
0.012773
0.0128184
0.0122385
0.0122479
0.0122468
0.0122514
0.0122632
0.0122898
0.012328
0.0123839
0.0124254
0.0124302
0.0122614
0.0116416
0.0100943
0.00727369
0.0030436
-0.00265753
-0.00981152
-0.0176111
-0.0250318
-0.0308655
-0.0346459
-0.0367817
-0.0353605
-0.0309232
-0.0247874
-0.0180142
-0.0112834
-0.00510928
8.26502e-05
0.00414165
0.0070807
0.00902255
0.0102242
0.0109442
0.011376
0.0116382
0.0118008
0.0119092
0.0119894
0.0120521
0.0118351
0.0118014
0.0118116
0.0118523
0.0119275
0.012044
0.0122271
0.0124647
0.0127591
0.0130951
0.0134399
0.0133068
0.012423
0.0104869
0.00683855
0.00138174
-0.00594102
-0.0150778
-0.0248135
-0.0333729
-0.0408762
-0.0448628
-0.0441773
-0.0400866
-0.0337299
-0.0261646
-0.0180875
-0.0104037
-0.00377735
0.00139879
0.0051119
0.00755293
0.00907091
0.0100025
0.010582
0.0109369
0.0111542
0.011277
0.0113413
0.0113681
0.0114157
0.011375
0.011376
0.0114152
0.0115055
0.0116548
0.0118807
0.0121892
0.0126018
0.0129876
0.0134577
0.0133163
0.01246
0.0109157
0.00774286
0.00287464
-0.00389605
-0.0130973
-0.0238735
-0.0344461
-0.0440973
-0.0490828
-0.0485262
-0.0440904
-0.0374868
-0.0294243
-0.0204238
-0.0120919
-0.00496213
0.00040743
0.00421352
0.00675768
0.0083403
0.00934099
0.00996742
0.0103646
0.0106146
0.0107486
0.0108034
0.0107687
0.0109597
0.0109605
0.0109728
0.0110037
0.0110672
0.0111729
0.0113322
0.0115452
0.0118071
0.0119678
0.0120344
0.0116182
0.0104904
0.00855905
0.00534174
0.000614972
-0.00559712
-0.0135761
-0.0229678
-0.0322372
-0.0397012
-0.0432896
-0.0421034
-0.0373979
-0.0311777
-0.0237025
-0.0159992
-0.00889751
-0.00313037
0.00125685
0.0045189
0.00671925
0.00808165
0.00897491
0.00953864
0.00989046
0.0101073
0.0102243
0.0102751
0.0102445
0.0103832
0.0104085
0.0104224
0.0104306
0.0104406
0.0104556
0.0104682
0.0104687
0.010402
0.0101411
0.0095298
0.00837752
0.0065559
0.00384008
0.00010959
-0.00466785
-0.0103536
-0.0162437
-0.0222288
-0.0275433
-0.0307393
-0.0312338
-0.0291132
-0.0250466
-0.0196823
-0.0138643
-0.00823896
-0.00334596
0.000518712
0.00363212
0.00592149
0.00739938
0.00835548
0.0089587
0.00933069
0.00955643
0.00968948
0.00976017
0.00979618
0.00980644
0.00970842
0.00970065
0.0096773
0.0096359
0.00957139
0.00947299
0.00930738
0.00902829
0.00855848
0.00774811
0.00637925
0.00433708
0.00160937
-0.00190836
-0.00608359
-0.0107472
-0.0157038
-0.0199606
-0.0229091
-0.0242637
-0.0243807
-0.0221419
-0.0186431
-0.0145531
-0.00989384
-0.005443
-0.00148611
0.00177129
0.00432849
0.00629601
0.00758857
0.0083621
0.00883791
0.00911991
0.00929575
0.00939572
0.00944809
0.00947366
0.0094871
0.0095075
0.00903781
0.00898177
0.00890883
0.00881315
0.00867708
0.00846875
0.00813121
0.00758065
0.00669078
0.00528772
0.00321745
0.000339523
-0.00333571
-0.0077434
-0.0126458
-0.0175746
-0.0221723
-0.0254432
-0.0262484
-0.0246504
-0.0222935
-0.0186197
-0.0138946
-0.00879947
-0.00385372
0.00036248
0.00364742
0.00600032
0.0076366
0.00857927
0.00900306
0.00918806
0.00924292
0.00926426
0.0092805
0.00928542
0.00928933
0.00929326
0.00929683
0.0092876
0.00842796
0.00837172
0.00829132
0.00817278
0.00798707
0.00769039
0.00721509
0.0064367
0.00517773
0.00320051
0.000368809
-0.00345957
-0.0083277
-0.0139632
-0.0199309
-0.0255323
-0.0300668
-0.0327553
-0.0324003
-0.0285543
-0.0234109
-0.017658
-0.0111182
-0.00473968
0.000667758
0.00479119
0.00764818
0.00928542
0.0100778
0.010136
0.00992073
0.00969273
0.009472
0.00929762
0.00917151
0.00908822
0.0090384
0.00900985
0.00899749
0.00899609
0.00790683
0.0078965
0.00783858
0.0077171
0.00750067
0.00714345
0.00659258
0.00568673
0.00424402
0.00194864
-0.00138609
-0.00594956
-0.0118055
-0.0184503
-0.0252906
-0.0316143
-0.0361986
-0.0388973
-0.0380625
-0.0325312
-0.0248457
-0.0168111
-0.00854387
-0.00136074
0.00389707
0.00750601
0.00966681
0.0106278
0.0109171
0.0106512
0.0102298
0.00979298
0.00940131
0.00910178
0.00888506
0.00873955
0.0086532
0.00860581
0.00859404
0.00863177
0.00746928
0.00750444
0.00746013
0.00733869
0.00711531
0.0067539
0.00621005
0.00531671
0.00392692
0.00172587
-0.00144415
-0.00572589
-0.0113576
-0.0178206
-0.0244201
-0.0304831
-0.0348571
-0.0377702
-0.0373671
-0.032079
-0.0245751
-0.0162184
-0.00798675
-0.00113523
0.00368479
0.0069201
0.00881078
0.00971956
0.0100747
0.0099777
0.00968299
0.00932868
0.0089657
0.00868724
0.00848341
0.00834962
0.00827239
0.00824115
0.00823868
0.00826284
0.00710731
0.00712897
0.00708851
0.00699433
0.00682199
0.00654087
0.00609911
0.00540139
0.00431502
0.0026578
0.000242047
-0.00293183
-0.00699505
-0.0118717
-0.0170834
-0.0221527
-0.026197
-0.0289923
-0.0295505
-0.0268396
-0.0220787
-0.0161843
-0.0102828
-0.00504414
-0.000656116
0.00272194
0.00511176
0.00668643
0.0076256
0.00810763
0.00828348
0.0082659
0.00815319
0.00804415
0.00795846
0.00790264
0.00786956
0.00785236
0.00784082
0.00782646
0.00682228
0.00680909
0.00678762
0.00674681
0.0066642
0.00651625
0.0062745
0.00587574
0.00522308
0.00424481
0.00278072
0.000764343
-0.00179015
-0.00494109
-0.00856239
-0.0123193
-0.0157919
-0.0186125
-0.0204659
-0.0207514
-0.0193187
-0.0167912
-0.0137672
-0.0102072
-0.00642004
-0.00303934
-9.64693e-05
0.00227146
0.00405416
0.00536001
0.00620443
0.00668454
0.00694766
0.00709376
0.00717719
0.00722957
0.00726464
0.0072835
0.00728628
0.00727162
0.0066443
0.00663574
0.00663414
0.00663171
0.00661449
0.00658199
0.00652322
0.00641271
0.00619513
0.0057846
0.00509218
0.003982
0.00246018
0.000458244
-0.00215959
-0.00530131
-0.00872352
-0.012025
-0.0149254
-0.0170368
-0.018199
-0.0187676
-0.0180055
-0.0156053
-0.0122779
-0.00873458
-0.00525767
-0.00218242
0.000385485
0.00240768
0.00389396
0.00490415
0.00555568
0.00596935
0.00623083
0.00639886
0.00651205
0.0065885
0.00663835
0.00666944
0.00650361
0.00651516
0.00652411
0.00653998
0.00656559
0.00661153
0.00668315
0.00677558
0.0068765
0.00693773
0.00692211
0.00663941
0.00584879
0.0045127
0.00238793
-0.000578535
-0.00426319
-0.00826106
-0.0122126
-0.0160425
-0.0195338
-0.022543
-0.0234821
-0.022092
-0.0190061
-0.015005
-0.0106948
-0.00659273
-0.0030393
-0.000246616
0.0018481
0.00334593
0.00435627
0.00500123
0.0054066
0.0056687
0.00584294
0.00596521
0.00605377
0.00611637
0.00628526
0.00627532
0.00629087
0.00632911
0.00639871
0.00651098
0.00667623
0.00689454
0.00719486
0.00756235
0.00795188
0.00829267
0.00820434
0.00755908
0.00605413
0.00352638
-0.000197397
-0.00505918
-0.0106672
-0.0166046
-0.022267
-0.0270559
-0.0289739
-0.0283019
-0.0252226
-0.0207584
-0.0156374
-0.0105343
-0.00596404
-0.00230312
0.000355815
0.00227413
0.00356348
0.00436564
0.00486803
0.00518898
0.00539231
0.00551964
0.00559742
0.00564095
0.00601769
0.00598312
0.00598752
0.00602324
0.00610338
0.00623595
0.00643357
0.0067025
0.00706485
0.00750782
0.00797708
0.0084439
0.00872785
0.00853923
0.00756127
0.00558928
0.00217817
-0.00305711
-0.00951219
-0.016395
-0.0233629
-0.0286362
-0.0308406
-0.0303352
-0.0270835
-0.0226714
-0.0173831
-0.0119537
-0.00705494
-0.00308814
-0.000243406
0.0018007
0.00316451
0.00398029
0.00453157
0.00488116
0.00509162
0.00520985
0.00526135
0.00525594
0.00574856
0.00573187
0.00572825
0.00574328
0.00578858
0.00587109
0.00601365
0.00619981
0.00643855
0.00669668
0.00690469
0.00703896
0.0069666
0.00645697
0.00525515
0.0032404
4.57304e-05
-0.00441679
-0.00984796
-0.0155074
-0.0208868
-0.0247246
-0.0261112
-0.0252095
-0.0220789
-0.0183386
-0.0138401
-0.00939783
-0.0053813
-0.0021636
0.000191617
0.00194877
0.0031017
0.00385022
0.00434056
0.00464828
0.00484368
0.00494985
0.00499495
0.00496708
0.00540863
0.00541812
0.00541686
0.00541015
0.005403
0.00539899
0.00540065
0.00538833
0.00534297
0.00519443
0.00485463
0.00424886
0.00330121