/*--------------------------------*- C++ -*----------------------------------*\
| =========                 |                                                 |
| \\      /  F ield         | OpenFOAM: The Open Source CFD Toolbox           |
|  \\    /   O peration     | Version:  v2106                                 |
|   \\  /    A nd           | Website:  www.openfoam.com                      |
|    \\/     M anipulation  |                                                 |
\*---------------------------------------------------------------------------*/
FoamFile
{
    version     2.0;
    format      ascii;
    arch        "LSB;label=32;scalar=64";
    class       pointVectorField;
    location    "0";
    object      pointDisplacement;
}
// * * * * * * * * * * * * * * * * * * * * * * * * * * * * * * * * * * * * * //

dimensions      [0 1 0 0 0 0 0];

internalField   nonuniform List<vector> 
24440
(
(0 0 0)
(0 0 0)
(0 0 0)
(0 0 0)
(0 0 0)
(0 0 0)
(0 0 0)
(0 0 0)
(0 0 0)
(0 0 0)
(0 0 0)
(0 0 0)
(0 0 0)
(0 0 0)
(0 0 0)
(0 0 0)
(0 0 0)
(0 0 0)
(0 0 0)
(0 0 0)
(0 0 0)
(0 0 0)
(0 0 0)
(0 0 0)
(0 0 0)
(0 0 0)
(0 0 0)
(0 0 0)
(0 0 0)
(0 0 0)
(0 0 0)
(0 0 0)
(0 0 0)
(0 0 0)
(0 0 0)
(0 0 0)
(0 0 0)
(0 0 0)
(0 0 0)
(0 0 0)
(0 0 0)
(0 0 0)
(0 0 0)
(0 0 0)
(0 0 0)
(0 0 0)
(0 0 0)
(0 0 0)
(0 0 0)
(0 0 0)
(0 0 0)
(0 0 0)
(0 0 0)
(0 0 0)
(0 0 0)
(0 0 0)
(0 0 0)
(0 0 0)
(0 0 0)
(0 0 0)
(0 0 0)
(0 0 0)
(0 0 0)
(0 0 0)
(0 0 0)
(0 0 0)
(0 0 0)
(0 0 0)
(0 0 0)
(0 0 0)
(0 0 0)
(0 0 0)
(0 0 0)
(0 0 0)
(0 0 0)
(0 0 0)
(0 0 0)
(0 0 0)
(0 0 0)
(0 0 0)
(0 0 0)
(0 0 0)
(0 0 0)
(0 0 0)
(0 0 0)
(0 0 0)
(0 0 0)
(0 0 0)
(0 0 0)
(0 0 0)
(0 0 0)
(0 0 0)
(0 0 0)
(0 0 0)
(0 0 0)
(0 0 0)
(0 0 0)
(0 0 0)
(0 -2.00203e-07 0)
(0 -1.26249e-06 0)
(0 -3.47158e-06 0)
(0 -5.34953e-06 0)
(0 -6.07023e-06 0)
(0 -5.34953e-06 0)
(0 -3.47158e-06 0)
(0 -1.26249e-06 0)
(0 -2.00203e-07 0)
(0 0 0)
(0 0 0)
(0 0 0)
(0 0 0)
(0 0 0)
(0 0 0)
(0 0 0)
(0 0 0)
(0 0 0)
(0 0 0)
(0 0 0)
(0 0 0)
(0 0 0)
(0 0 0)
(0 0 0)
(0 0 0)
(0 0 0)
(0 0 0)
(0 0 0)
(0 0 0)
(0 0 0)
(0 0 0)
(0 0 0)
(0 0 0)
(0 0 0)
(0 0 0)
(0 0 0)
(0 0 0)
(0 0 0)
(0 -3.35285e-07 0)
(0 -4.43526e-06 0)
(0 -1.30526e-05 0)
(0 -2.35135e-05 0)
(0 -3.35398e-05 0)
(0 -4.05295e-05 0)
(0 -4.70272e-05 0)
(0 -4.93135e-05 0)
(0 -4.70272e-05 0)
(0 -4.05295e-05 0)
(0 -3.35398e-05 0)
(0 -2.35135e-05 0)
(0 -1.30526e-05 0)
(0 -4.43526e-06 0)
(0 -3.35285e-07 0)
(0 0 0)
(0 0 0)
(0 0 0)
(0 0 0)
(0 0 0)
(0 0 0)
(0 0 0)
(0 0 0)
(0 0 0)
(0 0 0)
(0 0 0)
(0 0 0)
(0 0 0)
(0 0 0)
(0 0 0)
(0 0 0)
(0 0 0)
(0 0 0)
(0 0 0)
(0 0 0)
(0 0 0)
(0 0 0)
(0 0 0)
(0 0 0)
(0 -1.40772e-07 0)
(0 -5.83279e-06 0)
(0 -1.98916e-05 0)
(0 -3.92261e-05 0)
(0 -5.91405e-05 0)
(0 -8.13576e-05 0)
(0 -0.000100599 0)
(0 -0.000112516 0)
(0 -0.000123911 0)
(0 -0.00012785 0)
(0 -0.000123911 0)
(0 -0.000112516 0)
(0 -0.000100599 0)
(0 -8.13576e-05 0)
(0 -5.91405e-05 0)
(0 -3.92261e-05 0)
(0 -1.98916e-05 0)
(0 -5.83279e-06 0)
(0 -1.40772e-07 0)
(0 0 0)
(0 0 0)
(0 0 0)
(0 0 0)
(0 0 0)
(0 0 0)
(0 0 0)
(0 0 0)
(0 0 0)
(0 0 0)
(0 0 0)
(0 0 0)
(0 0 0)
(0 0 0)
(0 0 0)
(0 0 0)
(0 0 0)
(0 0 0)
(0 0 0)
(0 0 0)
(0 0 0)
(0 -1.33107e-06 0)
(0 -1.38424e-05 0)
(0 -3.67868e-05 0)
(0 -6.45429e-05 0)
(0 -9.9005e-05 0)
(0 -0.000133763 0)
(0 -0.000163875 0)
(0 -0.000192082 0)
(0 -0.000212098 0)
(0 -0.000224057 0)
(0 -0.000229547 0)
(0 -0.000224057 0)
(0 -0.000212098 0)
(0 -0.000192082 0)
(0 -0.000163875 0)
(0 -0.000133763 0)
(0 -9.9005e-05 0)
(0 -6.45429e-05 0)
(0 -3.67868e-05 0)
(0 -1.38424e-05 0)
(0 -1.40916e-06 0)
(0 0 0)
(0 0 0)
(0 0 0)
(0 0 0)
(0 0 0)
(0 0 0)
(0 0 0)
(0 0 0)
(0 0 0)
(0 0 0)
(0 0 0)
(0 0 0)
(0 0 0)
(0 0 0)
(0 0 0)
(0 0 0)
(0 0 0)
(0 0 0)
(0 0 0)
(0 -2.61791e-06 0)
(0 -1.83568e-05 0)
(0 -4.58162e-05 0)
(0 -8.41113e-05 0)
(0 -0.000129624 0)
(0 -0.000176918 0)
(0 -0.00022032 0)
(0 -0.000261464 0)
(0 -0.000276925 0)
(0 -0.000293645 0)
(0 -0.00030763 0)
(0 -0.000318648 0)
(0 -0.000326528 0)
(0 -0.000331976 0)
(0 -0.00033701 0)
(0 -0.000338695 0)
(0 -0.00033701 0)
(0 -0.000331976 0)
(0 -0.000326528 0)
(0 -0.000318648 0)
(0 -0.00030763 0)
(0 -0.000293645 0)
(0 -0.000276925 0)
(0 -0.000261464 0)
(0 -0.00022032 0)
(0 -0.000176918 0)
(0 -0.000129624 0)
(0 -8.41113e-05 0)
(0 -4.48652e-05 0)
(0 -1.65872e-05 0)
(0 -2.09188e-06 0)
(0 0 0)
(0 0 0)
(0 0 0)
(0 0 0)
(0 0 0)
(0 0 0)
(0 0 0)
(0 0 0)
(0 0 0)
(0 0 0)
(0 0 0)
(0 0 0)
(0 0 0)
(0 0 0)
(0 0 0)
(0 0 0)
(0 0 0)
(0 -1.53981e-06 0)
(0 -1.76215e-05 0)
(0 -4.90967e-05 0)
(0 -9.23855e-05 0)
(0 -0.000143091 0)
(0 -0.00020275 0)
(0 -0.000231276 0)
(0 -0.000256561 0)
(0 -0.000284546 0)
(0 -0.000310777 0)
(0 -0.000334775 0)
(0 -0.000355164 0)
(0 -0.000309531 0)
(0 -0.000328429 0)
(0 -0.000343344 0)
(0 -0.000358388 0)
(0 -0.000370189 0)
(0 -0.000378599 0)
(0 -0.000383641 0)
(0 -0.000388984 0)
(0 -0.000390771 0)
(0 -0.000388984 0)
(0 -0.000383641 0)
(0 -0.000378599 0)
(0 -0.000370189 0)
(0 -0.000358388 0)
(0 -0.000343344 0)
(0 -0.000328429 0)
(0 -0.000309531 0)
(0 -0.000355164 0)
(0 -0.000334775 0)
(0 -0.000310777 0)
(0 -0.000284546 0)
(0 -0.000256561 0)
(0 -0.000231276 0)
(0 -0.00020275 0)
(0 -0.000143091 0)
(0 -9.23855e-05 0)
(0 -4.73058e-05 0)
(0 -1.68548e-05 0)
(0 -1.39837e-06 0)
(0 0 0)
(0 0 0)
(0 0 0)
(0 0 0)
(0 0 0)
(0 0 0)
(0 0 0)
(0 0 0)
(0 0 0)
(0 0 0)
(0 0 0)
(0 0 0)
(0 0 0)
(0 0 0)
(0 0 0)
(0 0 0)
(0 -9.74267e-06 0)
(0 -3.98149e-05 0)
(0 -8.51187e-05 0)
(0 -0.000142025 0)
(0 -0.000205407 0)
(0 -0.000269809 0)
(0 -0.000237481 0)
(0 -0.000268502 0)
(0 -0.000298351 0)
(0 -0.000326458 0)
(0 -0.000351429 0)
(0 -0.000376754 0)
(0 -0.000399132 0)
(0 -0.000417621 0)
(0 -0.000375245 0)
(0 -0.000392159 0)
(0 -0.000435054 0)
(0 -0.000447607 0)
(0 -0.000405616 0)
(0 -0.000417928 0)
(0 -0.000460092 0)
(0 -0.000468879 0)
(0 -0.000426662 0)
(0 -0.000431088 0)
(0 -0.000473972 0)
(0 -0.000478015 0)
(0 -0.000436598 0)
(0 -0.000438437 0)
(0 -0.00047984 0)
(0 -0.000478015 0)
(0 -0.000436598 0)
(0 -0.000431088 0)
(0 -0.000473972 0)
(0 -0.000468879 0)
(0 -0.000426662 0)
(0 -0.000417928 0)
(0 -0.000460092 0)
(0 -0.000447607 0)
(0 -0.000405616 0)
(0 -0.000392159 0)
(0 -0.000435054 0)
(0 -0.000417621 0)
(0 -0.000375245 0)
(0 -0.000399132 0)
(0 -0.000376754 0)
(0 -0.000351429 0)
(0 -0.000326458 0)
(0 -0.000298351 0)
(0 -0.000268502 0)
(0 -0.000237481 0)
(0 -0.000269809 0)
(0 -0.000205407 0)
(0 -0.000140316 0)
(0 -8.44468e-05 0)
(0 -3.97724e-05 0)
(0 -1.05918e-05 0)
(0 0 0)
(0 0 0)
(0 0 0)
(0 0 0)
(0 0 0)
(0 0 0)
(0 0 0)
(0 0 0)
(0 0 0)
(0 0 0)
(0 0 0)
(0 0 0)
(0 0 0)
(0 0 0)
(0 0 0)
(0 -2.12535e-06 0)
(0 -2.18352e-05 0)
(0 -6.29397e-05 0)
(0 -0.000117924 0)
(0 -0.00018329 0)
(0 -0.00025818 0)
(0 -0.000330316 0)
(0 -0.000302243 0)
(0 -0.000334922 0)
(0 -0.000300732 0)
(0 -0.000334367 0)
(0 -0.000365639 0)
(0 -0.000396454 0)
(0 -0.000363968 0)
(0 -0.000391001 0)
(0 -0.000424237 0)
(0 -0.000436905 0)
(0 -0.000448697 0)
(0 -0.000432664 0)
(0 -0.00041382 0)
(0 -0.000436784 0)
(0 -0.000453252 0)
(0 -0.000463426 0)
(0 -0.000446952 0)
(0 -0.000471686 0)
(0 -0.000487307 0)
(0 -0.000494536 0)
(0 -0.000479024 0)
(0 -0.000495197 0)
(0 -0.000510479 0)
(0 -0.000514288 0)
(0 -0.000499904 0)
(0 -0.000508555 0)
(0 -0.000522558 0)
(0 -0.000524552 0)
(0 -0.000510871 0)
(0 -0.000513362 0)
(0 -0.000526747 0)
(0 -0.000526343 0)
(0 -0.000512933 0)
(0 -0.000508555 0)
(0 -0.000522558 0)
(0 -0.000520669 0)
(0 -0.000506567 0)
(0 -0.000495197 0)
(0 -0.000510479 0)
(0 -0.000506105 0)
(0 -0.000490859 0)
(0 -0.000471686 0)
(0 -0.000487307 0)
(0 -0.000480925 0)
(0 -0.000463399 0)
(0 -0.000436784 0)
(0 -0.000453252 0)
(0 -0.000442155 0)
(0 -0.000425729 0)
(0 -0.000391001 0)
(0 -0.000424237 0)
(0 -0.000396454 0)
(0 -0.000363968 0)
(0 -0.000334367 0)
(0 -0.000365639 0)
(0 -0.000334922 0)
(0 -0.000300732 0)
(0 -0.000302243 0)
(0 -0.000328828 0)
(0 -0.000258002 0)
(0 -0.000186244 0)
(0 -0.000116933 0)
(0 -6.23269e-05 0)
(0 -2.29296e-05 0)
(0 -2.43045e-06 0)
(0 0 0)
(0 0 0)
(0 0 0)
(0 0 0)
(0 0 0)
(0 0 0)
(0 0 0)
(0 0 0)
(0 0 0)
(0 0 0)
(0 0 0)
(0 0 0)
(0 0 0)
(0 0 0)
(0 -6.95366e-06 0)
(0 -3.51929e-05 0)
(0 -8.26875e-05 0)
(0 -0.000145293 0)
(0 -0.000217643 0)
(0 -0.00029722 0)
(0 -0.000371489 0)
(0 -0.000353164 0)
(0 -0.000388114 0)
(0 -0.000364328 0)
(0 -0.000396083 0)
(0 -0.000420527 0)
(0 -0.000449801 0)
(0 -0.000425009 0)
(0 -0.000450633 0)
(0 -0.000463905 0)
(0 -0.000475321 0)
(0 -0.000463889 0)
(0 -0.000496142 0)
(0 -0.000501634 0)
(0 -0.000506065 0)
(0 -0.000500623 0)
(0 -0.000525216 0)
(0 -0.000529608 0)
(0 -0.000532459 0)
(0 -0.000528158 0)
(0 -0.000542427 0)
(0 -0.000545627 0)
(0 -0.00054708 0)
(0 -0.000543855 0)
(0 -0.000549969 0)
(0 -0.000552317 0)
(0 -0.000552652 0)
(0 -0.000550372 0)
(0 -0.000551898 0)
(0 -0.000553789 0)
(0 -0.000553757 0)
(0 -0.000551852 0)
(0 -0.000549969 0)
(0 -0.000552317 0)
(0 -0.000551853 0)
(0 -0.00054942 0)
(0 -0.000542427 0)
(0 -0.000545627 0)
(0 -0.00054441 0)
(0 -0.000540707 0)
(0 -0.000525216 0)
(0 -0.000529608 0)
(0 -0.000527127 0)
(0 -0.000522016 0)
(0 -0.000496142 0)
(0 -0.000501634 0)
(0 -0.000506658 0)
(0 -0.000497097 0)
(0 -0.000486405 0)
(0 -0.000450633 0)
(0 -0.000463905 0)
(0 -0.000475434 0)
(0 -0.000449801 0)
(0 -0.000425009 0)
(0 -0.000396083 0)
(0 -0.000419566 0)
(0 -0.000387864 0)
(0 -0.000364328 0)
(0 -0.000353587 0)
(0 -0.00037259 0)
(0 -0.000296473 0)
(0 -0.000219811 0)
(0 -0.000146816 0)
(0 -8.36454e-05 0)
(0 -3.56951e-05 0)
(0 -7.1252e-06 0)
(0 0 0)
(0 0 0)
(0 0 0)
(0 0 0)
(0 0 0)
(0 0 0)
(0 0 0)
(0 0 0)
(0 0 0)
(0 0 0)
(0 0 0)
(0 0 0)
(0 0 0)
(0 0 0)
(0 -1.07224e-05 0)
(0 -4.37193e-05 0)
(0 -9.62093e-05 0)
(0 -0.00016376 0)
(0 -0.000240682 0)
(0 -0.000320512 0)
(0 -0.000396568 0)
(0 -0.000387145 0)
(0 -0.000421819 0)
(0 -0.000405722 0)
(0 -0.000437111 0)
(0 -0.000453407 0)
(0 -0.000481291 0)
(0 -0.000467823 0)
(0 -0.000493206 0)
(0 -0.000499477 0)
(0 -0.000510401 0)
(0 -0.000504276 0)
(0 -0.00053058 0)
(0 -0.000533476 0)
(0 -0.000536745 0)
(0 -0.000533939 0)
(0 -0.000550739 0)
(0 -0.000552137 0)
(0 -0.000553306 0)
(0 -0.000552072 0)
(0 -0.000555567 0)
(0 -0.000555567 0)
(0 -0.000555567 0)
(0 -0.000555567 0)
(0 -0.000555567 0)
(0 -0.000555567 0)
(0 -0.000555567 0)
(0 -0.000555567 0)
(0 -0.000555567 0)
(0 -0.000555567 0)
(0 -0.000555567 0)
(0 -0.000555567 0)
(0 -0.000555567 0)
(0 -0.000555567 0)
(0 -0.000555567 0)
(0 -0.000555567 0)
(0 -0.000555567 0)
(0 -0.000555567 0)
(0 -0.000555567 0)
(0 -0.000555567 0)
(0 -0.000550739 0)
(0 -0.000552137 0)
(0 -0.000550597 0)
(0 -0.000549138 0)
(0 -0.00053058 0)
(0 -0.000533476 0)
(0 -0.000535951 0)
(0 -0.000528395 0)
(0 -0.000522982 0)
(0 -0.00049292 0)
(0 -0.000500205 0)
(0 -0.000505768 0)
(0 -0.000480623 0)
(0 -0.000468239 0)
(0 -0.000439602 0)
(0 -0.000452843 0)
(0 -0.000421371 0)
(0 -0.000407515 0)
(0 -0.000386817 0)
(0 -0.000396766 0)
(0 -0.000320381 0)
(0 -0.0002403 0)
(0 -0.000163235 0)
(0 -9.56615e-05 0)
(0 -4.3266e-05 0)
(0 -1.04649e-05 0)
(0 0 0)
(0 0 0)
(0 0 0)
(0 0 0)
(0 0 0)
(0 0 0)
(0 0 0)
(0 0 0)
(0 0 0)
(0 0 0)
(0 0 0)
(0 0 0)
(0 0 0)
(0 0 0)
(0 -1.13681e-05 0)
(0 -4.51169e-05 0)
(0 -9.84123e-05 0)
(0 -0.000166776 0)
(0 -0.000244465 0)
(0 -0.00032495 0)
(0 -0.00040147 0)
(0 -0.000401611 0)
(0 -0.000436319 0)
(0 -0.000431176 0)
(0 -0.00046253 0)
(0 -0.00046768 0)
(0 -0.000495031 0)
(0 -0.000489994 0)
(0 -0.000513899 0)
(0 -0.000516209 0)
(0 -0.000525794 0)
(0 -0.000523711 0)
(0 -0.000545345 0)
(0 -0.000546236 0)
(0 -0.000548602 0)
(0 -0.000547779 0)
(0 -0.000555567 0)
(0 -0.000555567 0)
(0 -0.000555567 0)
(0 -0.000555567 0)
(0 -0.000555567 0)
(0 -0.000555567 0)
(0 -0.000555567 0)
(0 -0.000555567 0)
(0 -0.000555567 0)
(0 -0.000555567 0)
(0 -0.000555567 0)
(0 -0.000555567 0)
(0 -0.000555567 0)
(0 -0.000555567 0)
(0 -0.000555567 0)
(0 -0.000555567 0)
(0 -0.000555567 0)
(0 -0.000555544 0)
(0 -0.000555464 0)
(0 -0.000545345 0)
(0 -0.000546236 0)
(0 -0.000546824 0)
(0 -0.000541269 0)
(0 -0.000539308 0)
(0 -0.000513867 0)
(0 -0.000516242 0)
(0 -0.000517797 0)
(0 -0.000495031 0)
(0 -0.000490706 0)
(0 -0.000463081 0)
(0 -0.000466502 0)
(0 -0.000434967 0)
(0 -0.000431551 0)
(0 -0.000400113 0)
(0 -0.000400572 0)
(0 -0.000323951 0)
(0 -0.00024345 0)
(0 -0.000165834 0)
(0 -9.76241e-05 0)
(0 -4.45515e-05 0)
(0 -1.10752e-05 0)
(0 0 0)
(0 0 0)
(0 0 0)
(0 0 0)
(0 0 0)
(0 0 0)
(0 0 0)
(0 0 0)
(0 0 0)
(0 0 0)
(0 0 0)
(0 0 0)
(0 0 0)
(0 0 0)
(0 -9.29038e-06 0)
(0 -4.06028e-05 0)
(0 -9.13468e-05 0)
(0 -0.000157194 0)
(0 -0.000232569 0)
(0 -0.000311136 0)
(0 -0.000386352 0)
(0 -0.000397208 0)
(0 -0.000431859 0)
(0 -0.000436206 0)
(0 -0.000467596 0)
(0 -0.000463245 0)
(0 -0.000490724 0)
(0 -0.000494979 0)
(0 -0.000517775 0)
(0 -0.000516556 0)
(0 -0.000526138 0)
(0 -0.0005273 0)
(0 -0.000547798 0)
(0 -0.000547509 0)
(0 -0.000549726 0)
(0 -0.000549989 0)
(0 -0.000555567 0)
(0 -0.000555567 0)
(0 -0.000555567 0)
(0 -0.000555567 0)
(0 -0.000555567 0)
(0 -0.000555567 0)
(0 -0.000555567 0)
(0 -0.000555567 0)
(0 -0.000555567 0)
(0 -0.000555567 0)
(0 -0.000555567 0)
(0 -0.000555567 0)
(0 -0.000555567 0)
(0 -0.000555567 0)
(0 -0.000555567 0)
(0 -0.000555567 0)
(0 -0.000547798 0)
(0 -0.000547272 0)
(0 -0.000546983 0)
(0 -0.000541441 0)
(0 -0.000542071 0)
(0 -0.000517294 0)
(0 -0.000516517 0)
(0 -0.000514161 0)
(0 -0.00049106 0)
(0 -0.000494372 0)
(0 -0.000466877 0)
(0 -0.00046349 0)
(0 -0.000432005 0)
(0 -0.000435389 0)
(0 -0.000397256 0)
(0 -0.000387334 0)
(0 -0.000311857 0)
(0 -0.000233041 0)
(0 -0.000157453 0)
(0 -9.145e-05 0)
(0 -4.06128e-05 0)
(0 -9.27009e-06 0)
(0 0 0)
(0 0 0)
(0 0 0)
(0 0 0)
(0 0 0)
(0 0 0)
(0 0 0)
(0 0 0)
(0 0 0)
(0 0 0)
(0 0 0)
(0 0 0)
(0 0 0)
(0 0 0)
(0 -4.69893e-06 0)
(0 -2.95149e-05 0)
(0 -7.34123e-05 0)
(0 -0.000132449 0)
(0 -0.000205921 0)
(0 -0.00028105 0)
(0 -0.000354332 0)
(0 -0.000373766 0)
(0 -0.000408505 0)
(0 -0.000420751 0)
(0 -0.000454131 0)
(0 -0.000440382 0)
(0 -0.000468793 0)
(0 -0.000482446 0)
(0 -0.000506495 0)
(0 -0.000500732 0)
(0 -0.000511184 0)
(0 -0.00051678 0)
(0 -0.000540249 0)
(0 -0.000538609 0)
(0 -0.00054159 0)
(0 -0.000543341 0)
(0 -0.000554895 0)
(0 -0.000554325 0)
(0 -0.000555005 0)
(0 -0.000555358 0)
(0 -0.000555567 0)
(0 -0.000555567 0)
(0 -0.000555567 0)
(0 -0.000555567 0)
(0 -0.000555567 0)
(0 -0.000555567 0)
(0 -0.000555567 0)
(0 -0.000555567 0)
(0 -0.000554895 0)
(0 -0.000554241 0)
(0 -0.000553338 0)
(0 -0.000554146 0)
(0 -0.000540249 0)
(0 -0.000538609 0)
(0 -0.00053638 0)
(0 -0.000529315 0)
(0 -0.000533678 0)
(0 -0.000506495 0)
(0 -0.000500732 0)
(0 -0.000494187 0)
(0 -0.000468793 0)
(0 -0.000482446 0)
(0 -0.000453285 0)
(0 -0.000440382 0)
(0 -0.000408505 0)
(0 -0.000421855 0)
(0 -0.000373766 0)
(0 -0.000354332 0)
(0 -0.00028105 0)
(0 -0.000203267 0)
(0 -0.000133751 0)
(0 -7.42661e-05 0)
(0 -2.99823e-05 0)
(0 -4.85685e-06 0)
(0 0 0)
(0 0 0)
(0 0 0)
(0 0 0)
(0 0 0)
(0 0 0)
(0 0 0)
(0 0 0)
(0 0 0)
(0 0 0)
(0 0 0)
(0 0 0)
(0 0 0)
(0 0 0)
(0 -5.81424e-07 0)
(0 -1.72594e-05 0)
(0 -5.25569e-05 0)
(0 -0.000103348 0)
(0 -0.00016499 0)
(0 -0.000232073 0)
(0 -0.000302466 0)
(0 -0.000329157 0)
(0 -0.000364949 0)
(0 -0.000388418 0)
(0 -0.000421574 0)
(0 -0.000396285 0)
(0 -0.000427667 0)
(0 -0.000450407 0)
(0 -0.0004769 0)
(0 -0.000466277 0)
(0 -0.000477979 0)
(0 -0.000488511 0)
(0 -0.000516944 0)
(0 -0.000512213 0)
(0 -0.000516515 0)
(0 -0.000520444 0)
(0 -0.000542071 0)
(0 -0.00053896 0)
(0 -0.000541231 0)
(0 -0.000544222 0)
(0 -0.000553307 0)
(0 -0.000551567 0)
(0 -0.000552331 0)
(0 -0.000553921 0)
(0 -0.000555567 0)
(0 -0.000555258 0)
(0 -0.000555378 0)
(0 -0.000555567 0)
(0 -0.000555567 0)
(0 -0.000555567 0)
(0 -0.000555567 0)
(0 -0.000555567 0)
(0 -0.000555567 0)
(0 -0.000555567 0)
(0 -0.000555258 0)
(0 -0.000555088 0)
(0 -0.000555548 0)
(0 -0.000555562 0)
(0 -0.000553307 0)
(0 -0.000551567 0)
(0 -0.000550623 0)
(0 -0.000552518 0)
(0 -0.000542071 0)
(0 -0.00053896 0)
(0 -0.000536429 0)
(0 -0.000539654 0)
(0 -0.000517325 0)
(0 -0.000512982 0)
(0 -0.000507763 0)
(0 -0.000499134 0)
(0 -0.000508516 0)
(0 -0.00047559 0)
(0 -0.000465736 0)
(0 -0.000454226 0)
(0 -0.000427079 0)
(0 -0.000450407 0)
(0 -0.000421574 0)
(0 -0.000396285 0)
(0 -0.000364949 0)
(0 -0.000388418 0)
(0 -0.000329157 0)
(0 -0.000302466 0)
(0 -0.000232073 0)
(0 -0.00016499 0)
(0 -0.000103348 0)
(0 -5.25569e-05 0)
(0 -1.60996e-05 0)
(0 -6.98395e-07 0)
(0 0 0)
(0 0 0)
(0 0 0)
(0 0 0)
(0 0 0)
(0 0 0)
(0 0 0)
(0 0 0)
(0 0 0)
(0 0 0)
(0 0 0)
(0 0 0)
(0 0 0)
(0 0 0)
(0 0 0)
(0 -5.30505e-06 0)
(0 -2.79556e-05 0)
(0 -6.57733e-05 0)
(0 -0.000114813 0)
(0 -0.000176086 0)
(0 -0.000239439 0)
(0 -0.000269324 0)
(0 -0.00030459 0)
(0 -0.000334746 0)
(0 -0.00036744 0)
(0 -0.000336338 0)
(0 -0.000366021 0)
(0 -0.000398169 0)
(0 -0.000425992 0)
(0 -0.000393119 0)
(0 -0.000415804 0)
(0 -0.00043464 0)
(0 -0.000450473 0)
(0 -0.000438673 0)
(0 -0.000471526 0)
(0 -0.000455065 0)
(0 -0.00046524 0)
(0 -0.000480835 0)
(0 -0.00050414 0)
(0 -0.000490027 0)
(0 -0.000495672 0)
(0 -0.000510301 0)
(0 -0.000524792 0)
(0 -0.000512285 0)
(0 -0.000515959 0)
(0 -0.000528257 0)
(0 -0.000535502 0)
(0 -0.000523961 0)
(0 -0.000525998 0)
(0 -0.000536921 0)
(0 -0.00053882 0)
(0 -0.000528162 0)
(0 -0.000527611 0)
(0 -0.000538384 0)
(0 -0.000535502 0)
(0 -0.000523961 0)
(0 -0.000521072 0)
(0 -0.000533277 0)
(0 -0.000524792 0)
(0 -0.000512285 0)
(0 -0.000507693 0)
(0 -0.000520422 0)
(0 -0.00050414 0)
(0 -0.000490027 0)
(0 -0.000482729 0)
(0 -0.000496998 0)
(0 -0.000471526 0)
(0 -0.000455065 0)
(0 -0.00044551 0)
(0 -0.000461357 0)
(0 -0.000425992 0)
(0 -0.000393119 0)
(0 -0.000366021 0)
(0 -0.000398169 0)
(0 -0.00036744 0)
(0 -0.000336338 0)
(0 -0.00030459 0)
(0 -0.000334746 0)
(0 -0.000269324 0)
(0 -0.000239439 0)
(0 -0.000176086 0)
(0 -0.000114813 0)
(0 -6.57733e-05 0)
(0 -2.79556e-05 0)
(0 -5.30505e-06 0)
(0 0 0)
(0 0 0)
(0 0 0)
(0 0 0)
(0 0 0)
(0 0 0)
(0 0 0)
(0 0 0)
(0 0 0)
(0 0 0)
(0 0 0)
(0 0 0)
(0 0 0)
(0 0 0)
(0 0 0)
(0 0 0)
(0 0 0)
(0 -7.99448e-06 0)
(0 -3.30112e-05 0)
(0 -7.07666e-05 0)
(0 -0.000117591 0)
(0 -0.000168878 0)
(0 -0.000219507 0)
(0 -0.000258796 0)
(0 -0.000300574 0)
(0 -0.0002706 0)
(0 -0.000286913 0)
(0 -0.000328788 0)
(0 -0.000353674 0)
(0 -0.000313258 0)
(0 -0.000337354 0)
(0 -0.000379071 0)
(0 -0.000401505 0)
(0 -0.000380746 0)
(0 -0.000388758 0)
(0 -0.000411511 0)
(0 -0.000437041 0)
(0 -0.00041663 0)
(0 -0.000424203 0)
(0 -0.000444673 0)
(0 -0.000462067 0)
(0 -0.000441538 0)
(0 -0.000444923 0)
(0 -0.000466017 0)
(0 -0.000477074 0)
(0 -0.00045736 0)
(0 -0.000459663 0)
(0 -0.000479358 0)
(0 -0.000482042 0)
(0 -0.000462453 0)
(0 -0.000461505 0)
(0 -0.000481182 0)
(0 -0.000477074 0)
(0 -0.00045736 0)
(0 -0.000454136 0)
(0 -0.000473869 0)
(0 -0.000462067 0)
(0 -0.000441538 0)
(0 -0.000436668 0)
(0 -0.000457192 0)
(0 -0.000437041 0)
(0 -0.00041663 0)
(0 -0.000408183 0)
(0 -0.000428508 0)
(0 -0.000401505 0)
(0 -0.000380746 0)
(0 -0.000356753 0)
(0 -0.000337354 0)
(0 -0.000379071 0)
(0 -0.000353674 0)
(0 -0.000313258 0)
(0 -0.000286913 0)
(0 -0.000328788 0)
(0 -0.000300574 0)
(0 -0.000258796 0)
(0 -0.000219507 0)
(0 -0.000168878 0)
(0 -0.0002706 0)
(0 -0.000117591 0)
(0 -7.07666e-05 0)
(0 -3.30112e-05 0)
(0 -7.99448e-06 0)
(0 0 0)
(0 0 0)
(0 0 0)
(0 0 0)
(0 0 0)
(0 0 0)
(0 0 0)
(0 0 0)
(0 0 0)
(0 0 0)
(0 0 0)
(0 0 0)
(0 0 0)
(0 0 0)
(0 0 0)
(0 0 0)
(0 0 0)
(0 0 0)
(0 -1.0138e-07 0)
(0 -9.082e-06 0)
(0 -3.07759e-05 0)
(0 -6.03098e-05 0)
(0 -9.87142e-05 0)
(0 -0.000139672 0)
(0 -0.000179273 0)
(0 -0.000202391 0)
(0 -0.000245301 0)
(0 -0.000269629 0)
(0 -0.000221878 0)
(0 -0.000243864 0)
(0 -0.000289674 0)
(0 -0.000311653 0)
(0 -0.000288036 0)
(0 -0.000297703 0)
(0 -0.000321704 0)
(0 -0.000347612 0)
(0 -0.000322689 0)
(0 -0.000329566 0)
(0 -0.000354724 0)
(0 -0.000370838 0)
(0 -0.000345882 0)
(0 -0.000351438 0)
(0 -0.000376556 0)
(0 -0.000388537 0)
(0 -0.000363099 0)
(0 -0.000365277 0)
(0 -0.000390771 0)
(0 -0.000393713 0)
(0 -0.000368221 0)
(0 -0.000367023 0)
(0 -0.000392561 0)
(0 -0.000388537 0)
(0 -0.000363099 0)
(0 -0.000360061 0)
(0 -0.000385418 0)
(0 -0.000370838 0)
(0 -0.000345882 0)
(0 -0.00033952 0)
(0 -0.000366507 0)
(0 -0.000347612 0)
(0 -0.000322689 0)
(0 -0.000315066 0)
(0 -0.000339718 0)
(0 -0.000311653 0)
(0 -0.000288036 0)
(0 -0.000263991 0)
(0 -0.000243864 0)
(0 -0.000289674 0)
(0 -0.000269629 0)
(0 -0.000221878 0)
(0 -0.000202391 0)
(0 -0.000245301 0)
(0 -0.000179273 0)
(0 -0.000139672 0)
(0 -9.87142e-05 0)
(0 -6.03098e-05 0)
(0 -3.07759e-05 0)
(0 -9.082e-06 0)
(0 -1.0138e-07 0)
(0 0 0)
(0 0 0)
(0 0 0)
(0 0 0)
(0 0 0)
(0 0 0)
(0 0 0)
(0 0 0)
(0 0 0)
(0 0 0)
(0 0 0)
(0 0 0)
(0 0 0)
(0 0 0)
(0 0 0)
(0 0 0)
(0 0 0)
(0 0 0)
(0 0 0)
(0 0 0)
(0 -4.76956e-06 0)
(0 -1.9865e-05 0)
(0 -4.02427e-05 0)
(0 -6.77611e-05 0)
(0 -0.000100195 0)
(0 -0.000118146 0)
(0 -0.000157429 0)
(0 -0.000178046 0)
(0 -0.000135738 0)
(0 -0.000152528 0)
(0 -0.000197553 0)
(0 -0.000215525 0)
(0 -0.000191569 0)
(0 -0.000199336 0)
(0 -0.000223814 0)
(0 -0.000245397 0)
(0 -0.000219611 0)
(0 -0.000223311 0)
(0 -0.000248731 0)
(0 -0.000267499 0)
(0 -0.000241032 0)
(0 -0.000245668 0)
(0 -0.000272399 0)
(0 -0.000282725 0)
(0 -0.000255449 0)
(0 -0.000257282 0)
(0 -0.000284659 0)
(0 -0.000287478 0)
(0 -0.000260019 0)
(0 -0.000258755 0)
(0 -0.000286212 0)
(0 -0.000282725 0)
(0 -0.000255449 0)
(0 -0.000252893 0)
(0 -0.000280029 0)
(0 -0.000267499 0)
(0 -0.000241032 0)
(0 -0.000235743 0)
(0 -0.000261903 0)
(0 -0.000245397 0)
(0 -0.000219611 0)
(0 -0.000213394 0)
(0 -0.000238787 0)
(0 -0.000215525 0)
(0 -0.000191569 0)
(0 -0.000168109 0)
(0 -0.000152528 0)
(0 -0.000197553 0)
(0 -0.000178046 0)
(0 -0.000135738 0)
(0 -0.000118146 0)
(0 -0.000157429 0)
(0 -0.000100195 0)
(0 -6.77611e-05 0)
(0 -4.02427e-05 0)
(0 -1.9865e-05 0)
(0 -4.76956e-06 0)
(0 0 0)
(0 0 0)
(0 0 0)
(0 0 0)
(0 0 0)
(0 0 0)
(0 0 0)
(0 0 0)
(0 0 0)
(0 0 0)
(0 0 0)
(0 0 0)
(0 0 0)
(0 0 0)
(0 0 0)
(0 0 0)
(0 0 0)
(0 0 0)
(0 0 0)
(0 0 0)
(0 0 0)
(0 0 0)
(0 0 0)
(0 -4.06165e-07 0)
(0 -6.88953e-06 0)
(0 -1.92277e-05 0)
(0 -4.03355e-05 0)
(0 -5.13169e-05 0)
(0 -8.22589e-05 0)
(0 -9.66682e-05 0)
(0 -6.24676e-05 0)
(0 -7.34105e-05 0)
(0 -0.000110577 0)
(0 -0.000123604 0)
(0 -0.000103006 0)
(0 -0.000108485 0)
(0 -0.000129677 0)
(0 -0.000144304 0)
(0 -0.000122129 0)
(0 -0.00012727 0)
(0 -0.000149953 0)
(0 -0.000164189 0)
(0 -0.000140262 0)
(0 -0.000143689 0)
(0 -0.000167936 0)
(0 -0.00017587 0)
(0 -0.000150958 0)
(0 -0.000152327 0)
(0 -0.000177362 0)
(0 -0.000179745 0)
(0 -0.000154561 0)
(0 -0.000153427 0)
(0 -0.000178561 0)
(0 -0.00017587 0)
(0 -0.000150958 0)
(0 -0.000149054 0)
(0 -0.000173793 0)
(0 -0.000164189 0)
(0 -0.000140262 0)
(0 -0.000136366 0)
(0 -0.000159926 0)
(0 -0.000144304 0)
(0 -0.000122129 0)
(0 -0.000116636 0)
(0 -0.000138258 0)
(0 -0.000123604 0)
(0 -0.000103006 0)
(0 -8.37927e-05 0)
(0 -7.34105e-05 0)
(0 -0.000110577 0)
(0 -9.66682e-05 0)
(0 -6.24676e-05 0)
(0 -5.13169e-05 0)
(0 -8.22589e-05 0)
(0 -4.03355e-05 0)
(0 -1.92277e-05 0)
(0 -6.88953e-06 0)
(0 -4.06165e-07 0)
(0 0 0)
(0 0 0)
(0 0 0)
(0 0 0)
(0 0 0)
(0 0 0)
(0 0 0)
(0 0 0)
(0 0 0)
(0 0 0)
(0 0 0)
(0 0 0)
(0 0 0)
(0 0 0)
(0 0 0)
(0 0 0)
(0 0 0)
(0 0 0)
(0 0 0)
(0 0 0)
(0 0 0)
(0 0 0)
(0 0 0)
(0 0 0)
(0 0 0)
(0 0 0)
(0 -7.36257e-08 0)
(0 -5.53146e-06 0)
(0 -9.63481e-06 0)
(0 -2.67163e-05 0)
(0 -3.46146e-05 0)
(0 -1.43666e-05 0)
(0 -1.94268e-05 0)
(0 -4.25829e-05 0)
(0 -5.03012e-05 0)
(0 -3.46253e-05 0)
(0 -3.81699e-05 0)
(0 -5.22018e-05 0)
(0 -6.4095e-05 0)
(0 -4.82368e-05 0)
(0 -5.12926e-05 0)
(0 -6.76728e-05 0)
(0 -7.68223e-05 0)
(0 -5.91552e-05 0)
(0 -6.12606e-05 0)
(0 -7.926e-05 0)
(0 -8.44617e-05 0)
(0 -6.57665e-05 0)
(0 -6.66208e-05 0)
(0 -8.54457e-05 0)
(0 -8.71569e-05 0)
(0 -6.81376e-05 0)
(0 -6.7309e-05 0)
(0 -8.62377e-05 0)
(0 -8.44617e-05 0)
(0 -6.57665e-05 0)
(0 -6.45809e-05 0)
(0 -8.3095e-05 0)
(0 -7.68223e-05 0)
(0 -5.91552e-05 0)
(0 -5.67772e-05 0)
(0 -7.40631e-05 0)
(0 -6.4095e-05 0)
(0 -4.82368e-05 0)
(0 -4.50099e-05 0)
(0 -6.03016e-05 0)
(0 -5.03012e-05 0)
(0 -3.46253e-05 0)
(0 -2.3284e-05 0)
(0 -1.94268e-05 0)
(0 -4.25829e-05 0)
(0 -3.46146e-05 0)
(0 -1.43666e-05 0)
(0 -9.63481e-06 0)
(0 -2.67163e-05 0)
(0 -5.53146e-06 0)
(0 -7.36257e-08 0)
(0 0 0)
(0 0 0)
(0 0 0)
(0 0 0)
(0 0 0)
(0 0 0)
(0 0 0)
(0 0 0)
(0 0 0)
(0 0 0)
(0 0 0)
(0 0 0)
(0 0 0)
(0 0 0)
(0 0 0)
(0 0 0)
(0 0 0)
(0 0 0)
(0 0 0)
(0 0 0)
(0 0 0)
(0 0 0)
(0 0 0)
(0 0 0)
(0 0 0)
(0 0 0)
(0 0 0)
(0 0 0)
(0 0 0)
(0 0 0)
(0 0 0)
(0 -2.70399e-06 0)
(0 -9.78e-07 0)
(0 0 0)
(0 -4.252e-06 0)
(0 -7.10352e-06 0)
(0 -2.17473e-07 0)
(0 -9.50566e-07 0)
(0 -1.02367e-05 0)
(0 -1.34116e-05 0)
(0 -2.00439e-06 0)
(0 -3.19158e-06 0)
(0 -1.64115e-05 0)
(0 -1.90484e-05 0)
(0 -4.34851e-06 0)
(0 -5.33939e-06 0)
(0 -2.11666e-05 0)
(0 -2.26465e-05 0)
(0 -6.05949e-06 0)
(0 -6.4376e-06 0)
(0 -2.34071e-05 0)
(0 -2.40156e-05 0)
(0 -6.76061e-06 0)
(0 -6.4376e-06 0)
(0 -2.34071e-05 0)
(0 -2.26465e-05 0)
(0 -6.05949e-06 0)
(0 -5.33939e-06 0)
(0 -2.11666e-05 0)
(0 -1.90484e-05 0)
(0 -4.34851e-06 0)
(0 -3.19158e-06 0)
(0 -1.64115e-05 0)
(0 -1.34116e-05 0)
(0 -2.00439e-06 0)
(0 -9.50566e-07 0)
(0 -1.02367e-05 0)
(0 -7.10352e-06 0)
(0 -2.17473e-07 0)
(0 0 0)
(0 -4.252e-06 0)
(0 -2.70399e-06 0)
(0 0 0)
(0 0 0)
(0 0 0)
(0 -9.78e-07 0)
(0 0 0)
(0 0 0)
(0 0 0)
(0 0 0)
(0 0 0)
(0 0 0)
(0 0 0)
(0 0 0)
(0 0 0)
(0 0 0)
(0 0 0)
(0 0 0)
(0 0 0)
(0 0 0)
(0 0 0)
(0 0 0)
(0 0 0)
(0 0 0)
(0 0 0)
(0 0 0)
(0 0 0)
(0 0 0)
(0 0 0)
(0 0 0)
(0 0 0)
(0 0 0)
(0 0 0)
(0 0 0)
(0 0 0)
(0 0 0)
(0 0 0)
(0 0 0)
(0 0 0)
(0 0 0)
(0 0 0)
(0 0 0)
(0 0 0)
(0 0 0)
(0 0 0)
(0 0 0)
(0 -1.95441e-08 0)
(0 0 0)
(0 0 0)
(0 -7.52123e-08 0)
(0 -4.47501e-08 0)
(0 0 0)
(0 -1.95441e-08 0)
(0 -4.47501e-08 0)
(0 0 0)
(0 0 0)
(0 0 0)
(0 0 0)
(0 0 0)
(0 0 0)
(0 0 0)
(0 0 0)
(0 0 0)
(0 0 0)
(0 0 0)
(0 0 0)
(0 0 0)
(0 0 0)
(0 0 0)
(0 0 0)
(0 0 0)
(0 0 0)
(0 0 0)
(0 0 0)
(0 0 0)
(0 0 0)
(0 0 0)
(0 0 0)
(0 0 0)
(0 0 0)
(0 0 0)
(0 0 0)
(0 0 0)
(0 0 0)
(0 0 0)
(0 0 0)
(0 0 0)
(0 0 0)
(0 0 0)
(0 0 0)
(0 0 0)
(0 0 0)
(0 0 0)
(0 0 0)
(0 0 0)
(0 0 0)
(0 0 0)
(0 0 0)
(0 0 0)
(0 0 0)
(0 0 0)
(0 0 0)
(0 0 0)
(0 0 0)
(0 0 0)
(0 0 0)
(0 0 0)
(0 0 0)
(0 0 0)
(0 0 0)
(0 0 0)
(0 0 0)
(0 0 0)
(0 0 0)
(0 0 0)
(0 0 0)
(0 0 0)
(0 0 0)
(0 0 0)
(0 0 0)
(0 0 0)
(0 0 0)
(0 0 0)
(0 0 0)
(0 0 0)
(0 0 0)
(0 0 0)
(0 0 0)
(0 0 0)
(0 0 0)
(0 0 0)
(0 0 0)
(0 0 0)
(0 0 0)
(0 0 0)
(0 0 0)
(0 0 0)
(0 0 0)
(0 0 0)
(0 0 0)
(0 0 0)
(0 0 0)
(0 0 0)
(0 0 0)
(0 0 0)
(0 0 0)
(0 0 0)
(0 0 0)
(0 0 0)
(0 0 0)
(0 0 0)
(0 0 0)
(0 0 0)
(0 0 0)
(0 0 0)
(0 0 0)
(0 0 0)
(0 0 0)
(0 0 0)
(0 0 0)
(0 0 0)
(0 0 0)
(0 0 0)
(0 0 0)
(0 0 0)
(0 0 0)
(0 0 0)
(0 0 0)
(0 0 0)
(0 0 0)
(0 0 0)
(0 0 0)
(0 0 0)
(0 0 0)
(0 0 0)
(0 0 0)
(0 0 0)
(0 0 0)
(0 0 0)
(0 0 0)
(0 0 0)
(0 0 0)
(0 0 0)
(0 0 0)
(0 0 0)
(0 0 0)
(0 0 0)
(0 0 0)
(0 0 0)
(0 0 0)
(0 0 0)
(0 0 0)
(0 0 0)
(0 0 0)
(0 0 0)
(0 0 0)
(0 0 0)
(0 0 0)
(0 0 0)
(0 0 0)
(0 0 0)
(0 0 0)
(0 0 0)
(0 0 0)
(0 0 0)
(0 0 0)
(0 0 0)
(0 0 0)
(0 0 0)
(0 0 0)
(0 0 0)
(0 0 0)
(0 0 0)
(0 0 0)
(0 0 0)
(0 0 0)
(0 0 0)
(0 0 0)
(0 0 0)
(0 0 0)
(0 0 0)
(0 0 0)
(0 0 0)
(0 0 0)
(0 0 0)
(0 0 0)
(0 0 0)
(0 0 0)
(0 0 0)
(0 0 0)
(0 0 0)
(0 0 0)
(0 0 0)
(0 0 0)
(0 0 0)
(0 0 0)
(0 0 0)
(0 0 0)
(0 0 0)
(0 0 0)
(0 0 0)
(0 0 0)
(0 0 0)
(0 0 0)
(0 0 0)
(0 0 0)
(0 0 0)
(0 0 0)
(0 0 0)
(0 0 0)
(0 0 0)
(0 0 0)
(0 0 0)
(0 0 0)
(0 0 0)
(0 0 0)
(0 0 0)
(0 0 0)
(0 0 0)
(0 0 0)
(0 0 0)
(0 0 0)
(0 0 0)
(0 0 0)
(0 0 0)
(0 0 0)
(0 0 0)
(0 0 0)
(0 0 0)
(0 0 0)
(0 0 0)
(0 0 0)
(0 0 0)
(0 0 0)
(0 0 0)
(0 0 0)
(0 0 0)
(0 0 0)
(0 0 0)
(0 0 0)
(0 0 0)
(0 0 0)
(0 0 0)
(0 0 0)
(0 0 0)
(0 0 0)
(0 0 0)
(0 0 0)
(0 0 0)
(0 0 0)
(0 0 0)
(0 0 0)
(0 0 0)
(0 0 0)
(0 0 0)
(0 0 0)
(0 0 0)
(0 0 0)
(0 0 0)
(0 0 0)
(0 0 0)
(0 0 0)
(0 0 0)
(0 0 0)
(0 0 0)
(0 0 0)
(0 0 0)
(0 0 0)
(0 0 0)
(0 0 0)
(0 0 0)
(0 0 0)
(0 0 0)
(0 0 0)
(0 0 0)
(0 0 0)
(0 0 0)
(0 0 0)
(0 0 0)
(0 0 0)
(0 0 0)
(0 0 0)
(0 0 0)
(0 0 0)
(0 0 0)
(0 0 0)
(0 0 0)
(0 0 0)
(0 0 0)
(0 0 0)
(0 0 0)
(0 0 0)
(0 0 0)
(0 0 0)
(0 0 0)
(0 0 0)
(0 0 0)
(0 0 0)
(0 0 0)
(0 0 0)
(0 0 0)
(0 0 0)
(0 0 0)
(0 0 0)
(0 0 0)
(0 0 0)
(0 0 0)
(0 0 0)
(0 0 0)
(0 0 0)
(0 0 0)
(0 0 0)
(0 0 0)
(0 0 0)
(0 0 0)
(0 0 0)
(0 0 0)
(0 0 0)
(0 0 0)
(0 0 0)
(0 0 0)
(0 0 0)
(0 0 0)
(0 0 0)
(0 0 0)
(0 0 0)
(0 0 0)
(0 0 0)
(0 0 0)
(0 0 0)
(0 0 0)
(0 0 0)
(0 0 0)
(0 0 0)
(0 0 0)
(0 0 0)
(0 0 0)
(0 0 0)
(0 0 0)
(0 0 0)
(0 0 0)
(0 0 0)
(0 0 0)
(0 0 0)
(0 0 0)
(0 0 0)
(0 0 0)
(0 0 0)
(0 0 0)
(0 0 0)
(0 0 0)
(0 0 0)
(0 0 0)
(0 0 0)
(0 0 0)
(0 0 0)
(0 0 0)
(0 0 0)
(0 0 0)
(0 0 0)
(0 0 0)
(0 0 0)
(0 0 0)
(0 0 0)
(0 0 0)
(0 0 0)
(0 0 0)
(0 0 0)
(0 0 0)
(0 0 0)
(0 0 0)
(0 0 0)
(0 0 0)
(0 0 0)
(0 0 0)
(0 0 0)
(0 0 0)
(0 0 0)
(0 0 0)
(0 0 0)
(0 0 0)
(0 0 0)
(0 0 0)
(0 0 0)
(0 0 0)
(0 0 0)
(0 0 0)
(0 0 0)
(0 0 0)
(0 0 0)
(0 0 0)
(0 0 0)
(0 0 0)
(0 0 0)
(0 0 0)
(0 0 0)
(0 0 0)
(0 0 0)
(0 0 0)
(0 0 0)
(0 0 0)
(0 0 0)
(0 0 0)
(0 0 0)
(0 0 0)
(0 0 0)
(0 0 0)
(0 0 0)
(0 0 0)
(0 0 0)
(0 0 0)
(0 0 0)
(0 0 0)
(0 0 0)
(0 0 0)
(0 0 0)
(0 0 0)
(0 0 0)
(0 0 0)
(0 0 0)
(0 0 0)
(0 0 0)
(0 0 0)
(0 0 0)
(0 0 0)
(0 0 0)
(0 0 0)
(0 0 0)
(0 0 0)
(0 0 0)
(0 0 0)
(0 0 0)
(0 0 0)
(0 0 0)
(0 0 0)
(0 0 0)
(0 0 0)
(0 0 0)
(0 0 0)
(0 0 0)
(0 0 0)
(0 0 0)
(0 0 0)
(0 0 0)
(0 0 0)
(0 0 0)
(0 0 0)
(0 0 0)
(0 0 0)
(0 0 0)
(0 0 0)
(0 0 0)
(0 0 0)
(0 0 0)
(0 0 0)
(0 0 0)
(0 0 0)
(0 0 0)
(0 0 0)
(0 0 0)
(0 0 0)
(0 0 0)
(0 0 0)
(0 0 0)
(0 0 0)
(0 0 0)
(0 0 0)
(0 0 0)
(0 0 0)
(0 0 0)
(0 0 0)
(0 0 0)
(0 0 0)
(0 0 0)
(0 0 0)
(0 0 0)
(0 0 0)
(0 0 0)
(0 0 0)
(0 0 0)
(0 0 0)
(0 0 0)
(0 0 0)
(0 0 0)
(0 0 0)
(0 0 0)
(0 0 0)
(0 0 0)
(0 0 0)
(0 0 0)
(0 0 0)
(0 0 0)
(0 0 0)
(0 0 0)
(0 0 0)
(0 0 0)
(0 0 0)
(0 0 0)
(0 0 0)
(0 0 0)
(0 0 0)
(0 0 0)
(0 0 0)
(0 0 0)
(0 0 0)
(0 0 0)
(0 0 0)
(0 0 0)
(0 0 0)
(0 0 0)
(0 0 0)
(0 0 0)
(0 0 0)
(0 0 0)
(0 0 0)
(0 0 0)
(0 0 0)
(0 0 0)
(0 0 0)
(0 0 0)
(0 0 0)
(0 0 0)
(0 0 0)
(0 0 0)
(0 0 0)
(0 0 0)
(0 0 0)
(0 0 0)
(0 0 0)
(0 0 0)
(0 0 0)
(0 0 0)
(0 0 0)
(0 0 0)
(0 0 0)
(0 0 0)
(0 0 0)
(0 0 0)
(0 0 0)
(0 0 0)
(0 0 0)
(0 0 0)
(0 0 0)
(0 0 0)
(0 0 0)
(0 0 0)
(0 0 0)
(0 0 0)
(0 0 0)
(0 0 0)
(0 0 0)
(0 0 0)
(0 0 0)
(0 0 0)
(0 0 0)
(0 0 0)
(0 0 0)
(0 0 0)
(0 0 0)
(0 0 0)
(0 0 0)
(0 0 0)
(0 0 0)
(0 0 0)
(0 0 0)
(0 0 0)
(0 0 0)
(0 0 0)
(0 0 0)
(0 0 0)
(0 0 0)
(0 0 0)
(0 0 0)
(0 0 0)
(0 0 0)
(0 0 0)
(0 0 0)
(0 0 0)
(0 0 0)
(0 0 0)
(0 0 0)
(0 0 0)
(0 0 0)
(0 0 0)
(0 0 0)
(0 0 0)
(0 0 0)
(0 0 0)
(0 0 0)
(0 0 0)
(0 0 0)
(0 0 0)
(0 0 0)
(0 0 0)
(0 0 0)
(0 0 0)
(0 0 0)
(0 0 0)
(0 0 0)
(0 0 0)
(0 0 0)
(0 0 0)