/*--------------------------------*- C++ -*----------------------------------*\
| =========                 |                                                 |
| \\      /  F ield         | OpenFOAM: The Open Source CFD Toolbox           |
|  \\    /   O peration     | Version:  v2106                                 |
|   \\  /    A nd           | Website:  www.openfoam.com                      |
|    \\/     M anipulation  |                                                 |
\*---------------------------------------------------------------------------*/
FoamFile
{
    version     2.0;
    format      ascii;
    arch        "LSB;label=32;scalar=64";
    class       pointVectorField;
    location    "0";
    object      pointDisplacement;
}
// * * * * * * * * * * * * * * * * * * * * * * * * * * * * * * * * * * * * * //

dimensions      [0 1 0 0 0 0 0];

internalField   nonuniform List<vector> 
24440
(
(0 0 0)
(0 0 0)
(0 0 0)
(0 0 0)
(0 0 0)
(0 0 0)
(0 0 0)
(0 0 0)
(0 0 0)
(0 0 0)
(0 0 0)
(0 0 0)
(0 0 0)
(0 0 0)
(0 0 0)
(0 0 0)
(0 0 0)
(0 0 0)
(0 0 0)
(0 0 0)
(0 0 0)
(0 0 0)
(0 0 0)
(0 0 0)
(0 0 0)
(0 0 0)
(0 0 0)
(0 0 0)
(0 0 0)
(0 0 0)
(0 0 0)
(0 0 0)
(0 0 0)
(0 0 0)
(0 0 0)
(0 0 0)
(0 0 0)
(0 0 0)
(0 0 0)
(0 0 0)
(0 0 0)
(0 0 0)
(0 0 0)
(0 0 0)
(0 0 0)
(0 0 0)
(0 0 0)
(0 0 0)
(0 0 0)
(0 0 0)
(0 0 0)
(0 0 0)
(0 0 0)
(0 0 0)
(0 0 0)
(0 0 0)
(0 0 0)
(0 0 0)
(0 0 0)
(0 0 0)
(0 0 0)
(0 0 0)
(0 0 0)
(0 0 0)
(0 0 0)
(0 0 0)
(0 0 0)
(0 0 0)
(0 0 0)
(0 0 0)
(0 0 0)
(0 0 0)
(0 0 0)
(0 0 0)
(0 0 0)
(0 0 0)
(0 0 0)
(0 0 0)
(0 0 0)
(0 0 0)
(0 0 0)
(0 0 0)
(0 0 0)
(0 0 0)
(0 0 0)
(0 0 0)
(0 0 0)
(0 0 0)
(0 0 0)
(0 0 0)
(0 0 0)
(0 0 0)
(0 0 0)
(0 0 0)
(0 0 0)
(0 0 0)
(0 0 0)
(0 0 0)
(0 -5.1478e-06 0)
(0 -3.24623e-05 0)
(0 -8.92645e-05 0)
(0 -0.000137552 0)
(0 -0.000156084 0)
(0 -0.000137552 0)
(0 -8.92645e-05 0)
(0 -3.24623e-05 0)
(0 -5.1478e-06 0)
(0 0 0)
(0 0 0)
(0 0 0)
(0 0 0)
(0 0 0)
(0 0 0)
(0 0 0)
(0 0 0)
(0 0 0)
(0 0 0)
(0 0 0)
(0 0 0)
(0 0 0)
(0 0 0)
(0 0 0)
(0 0 0)
(0 0 0)
(0 0 0)
(0 0 0)
(0 0 0)
(0 0 0)
(0 0 0)
(0 0 0)
(0 0 0)
(0 0 0)
(0 0 0)
(0 0 0)
(0 0 0)
(0 0 0)
(0 -8.62117e-06 0)
(0 -0.000114044 0)
(0 -0.000335622 0)
(0 -0.000604601 0)
(0 -0.000862407 0)
(0 -0.00104213 0)
(0 -0.00120921 0)
(0 -0.00126799 0)
(0 -0.00120921 0)
(0 -0.00104213 0)
(0 -0.000862407 0)
(0 -0.000604601 0)
(0 -0.000335622 0)
(0 -0.000114044 0)
(0 -8.62117e-06 0)
(0 0 0)
(0 0 0)
(0 0 0)
(0 0 0)
(0 0 0)
(0 0 0)
(0 0 0)
(0 0 0)
(0 0 0)
(0 0 0)
(0 0 0)
(0 0 0)
(0 0 0)
(0 0 0)
(0 0 0)
(0 0 0)
(0 0 0)
(0 0 0)
(0 0 0)
(0 0 0)
(0 0 0)
(0 0 0)
(0 0 0)
(0 0 0)
(0 -3.61966e-06 0)
(0 -0.000149978 0)
(0 -0.000511473 0)
(0 -0.00100862 0)
(0 -0.00152068 0)
(0 -0.00209194 0)
(0 -0.00258671 0)
(0 -0.00289313 0)
(0 -0.00318613 0)
(0 -0.00328739 0)
(0 -0.00318613 0)
(0 -0.00289313 0)
(0 -0.00258671 0)
(0 -0.00209194 0)
(0 -0.00152068 0)
(0 -0.00100862 0)
(0 -0.000511473 0)
(0 -0.000149978 0)
(0 -3.61966e-06 0)
(0 0 0)
(0 0 0)
(0 0 0)
(0 0 0)
(0 0 0)
(0 0 0)
(0 0 0)
(0 0 0)
(0 0 0)
(0 0 0)
(0 0 0)
(0 0 0)
(0 0 0)
(0 0 0)
(0 0 0)
(0 0 0)
(0 0 0)
(0 0 0)
(0 0 0)
(0 0 0)
(0 0 0)
(0 -3.42256e-05 0)
(0 -0.000355928 0)
(0 -0.000945896 0)
(0 -0.00165959 0)
(0 -0.00254571 0)
(0 -0.00343945 0)
(0 -0.0042137 0)
(0 -0.00493899 0)
(0 -0.00545367 0)
(0 -0.00576117 0)
(0 -0.00590233 0)
(0 -0.00576117 0)
(0 -0.00545367 0)
(0 -0.00493899 0)
(0 -0.0042137 0)
(0 -0.00343945 0)
(0 -0.00254571 0)
(0 -0.00165959 0)
(0 -0.000945896 0)
(0 -0.000355928 0)
(0 -3.62336e-05 0)
(0 0 0)
(0 0 0)
(0 0 0)
(0 0 0)
(0 0 0)
(0 0 0)
(0 0 0)
(0 0 0)
(0 0 0)
(0 0 0)
(0 0 0)
(0 0 0)
(0 0 0)
(0 0 0)
(0 0 0)
(0 0 0)
(0 0 0)
(0 0 0)
(0 0 0)
(0 -6.73142e-05 0)
(0 -0.000472007 0)
(0 -0.00117807 0)
(0 -0.00216275 0)
(0 -0.00333302 0)
(0 -0.0045491 0)
(0 -0.00566506 0)
(0 -0.00672302 0)
(0 -0.00712056 0)
(0 -0.00755047 0)
(0 -0.00791007 0)
(0 -0.00819339 0)
(0 -0.00839599 0)
(0 -0.00853609 0)
(0 -0.00866552 0)
(0 -0.00870886 0)
(0 -0.00866552 0)
(0 -0.00853609 0)
(0 -0.00839599 0)
(0 -0.00819339 0)
(0 -0.00791007 0)
(0 -0.00755047 0)
(0 -0.00712056 0)
(0 -0.00672302 0)
(0 -0.00566506 0)
(0 -0.0045491 0)
(0 -0.00333302 0)
(0 -0.00216275 0)
(0 -0.00115362 0)
(0 -0.000426506 0)
(0 -5.37885e-05 0)
(0 0 0)
(0 0 0)
(0 0 0)
(0 0 0)
(0 0 0)
(0 0 0)
(0 0 0)
(0 0 0)
(0 0 0)
(0 0 0)
(0 0 0)
(0 0 0)
(0 0 0)
(0 0 0)
(0 0 0)
(0 0 0)
(0 0 0)
(0 -3.95931e-05 0)
(0 -0.000453101 0)
(0 -0.00126242 0)
(0 -0.0023755 0)
(0 -0.0036793 0)
(0 -0.00521331 0)
(0 -0.0059468 0)
(0 -0.00659694 0)
(0 -0.00731651 0)
(0 -0.00799098 0)
(0 -0.00860806 0)
(0 -0.00913231 0)
(0 -0.00795895 0)
(0 -0.00844489 0)
(0 -0.00882839 0)
(0 -0.00921521 0)
(0 -0.00951866 0)
(0 -0.0097349 0)
(0 -0.00986454 0)
(0 -0.0100019 0)
(0 -0.0100479 0)
(0 -0.0100019 0)
(0 -0.00986454 0)
(0 -0.0097349 0)
(0 -0.00951866 0)
(0 -0.00921521 0)
(0 -0.00882839 0)
(0 -0.00844489 0)
(0 -0.00795895 0)
(0 -0.00913231 0)
(0 -0.00860806 0)
(0 -0.00799098 0)
(0 -0.00731651 0)
(0 -0.00659694 0)
(0 -0.0059468 0)
(0 -0.00521331 0)
(0 -0.0036793 0)
(0 -0.0023755 0)
(0 -0.00121637 0)
(0 -0.000433388 0)
(0 -3.59563e-05 0)
(0 0 0)
(0 0 0)
(0 0 0)
(0 0 0)
(0 0 0)
(0 0 0)
(0 0 0)
(0 0 0)
(0 0 0)
(0 0 0)
(0 0 0)
(0 0 0)
(0 0 0)
(0 0 0)
(0 0 0)
(0 0 0)
(0 -0.000250513 0)
(0 -0.00102376 0)
(0 -0.00218865 0)
(0 -0.00365189 0)
(0 -0.00528161 0)
(0 -0.00693758 0)
(0 -0.00610633 0)
(0 -0.00690397 0)
(0 -0.00767149 0)
(0 -0.00839419 0)
(0 -0.00903627 0)
(0 -0.00968744 0)
(0 -0.0102629 0)
(0 -0.0107383 0)
(0 -0.00964865 0)
(0 -0.0100836 0)
(0 -0.0111865 0)
(0 -0.0115093 0)
(0 -0.0104296 0)
(0 -0.0107462 0)
(0 -0.0118303 0)
(0 -0.0120563 0)
(0 -0.0109707 0)
(0 -0.0110845 0)
(0 -0.0121872 0)
(0 -0.0122912 0)
(0 -0.0112262 0)
(0 -0.0112735 0)
(0 -0.0123381 0)
(0 -0.0122912 0)
(0 -0.0112262 0)
(0 -0.0110845 0)
(0 -0.0121872 0)
(0 -0.0120563 0)
(0 -0.0109707 0)
(0 -0.0107462 0)
(0 -0.0118303 0)
(0 -0.0115093 0)
(0 -0.0104296 0)
(0 -0.0100836 0)
(0 -0.0111865 0)
(0 -0.0107383 0)
(0 -0.00964865 0)
(0 -0.0102629 0)
(0 -0.00968744 0)
(0 -0.00903627 0)
(0 -0.00839419 0)
(0 -0.00767149 0)
(0 -0.00690397 0)
(0 -0.00610633 0)
(0 -0.00693758 0)
(0 -0.00528161 0)
(0 -0.00360793 0)
(0 -0.00217138 0)
(0 -0.00102266 0)
(0 -0.000272347 0)
(0 0 0)
(0 0 0)
(0 0 0)
(0 0 0)
(0 0 0)
(0 0 0)
(0 0 0)
(0 0 0)
(0 0 0)
(0 0 0)
(0 0 0)
(0 0 0)
(0 0 0)
(0 0 0)
(0 0 0)
(0 -5.46491e-05 0)
(0 -0.000561448 0)
(0 -0.00161837 0)
(0 -0.00303217 0)
(0 -0.00471293 0)
(0 -0.00663857 0)
(0 -0.00849341 0)
(0 -0.00777156 0)
(0 -0.00861184 0)
(0 -0.00773271 0)
(0 -0.00859755 0)
(0 -0.00940167 0)
(0 -0.010194 0)
(0 -0.00935868 0)
(0 -0.0100538 0)
(0 -0.0109084 0)
(0 -0.0112341 0)
(0 -0.0115373 0)
(0 -0.0111251 0)
(0 -0.0106405 0)
(0 -0.011231 0)
(0 -0.0116545 0)
(0 -0.011916 0)
(0 -0.0114924 0)
(0 -0.0121284 0)
(0 -0.0125301 0)
(0 -0.012716 0)
(0 -0.0123171 0)
(0 -0.012733 0)
(0 -0.0131259 0)
(0 -0.0132239 0)
(0 -0.012854 0)
(0 -0.0130764 0)
(0 -0.0134365 0)
(0 -0.0134878 0)
(0 -0.013136 0)
(0 -0.0132001 0)
(0 -0.0135442 0)
(0 -0.0135338 0)
(0 -0.013189 0)
(0 -0.0130764 0)
(0 -0.0134365 0)
(0 -0.0133879 0)
(0 -0.0130253 0)
(0 -0.012733 0)
(0 -0.0131259 0)
(0 -0.0130134 0)
(0 -0.0126214 0)
(0 -0.0121284 0)
(0 -0.0125301 0)
(0 -0.012366 0)
(0 -0.0119154 0)
(0 -0.011231 0)
(0 -0.0116545 0)
(0 -0.0113691 0)
(0 -0.0109468 0)
(0 -0.0100538 0)
(0 -0.0109084 0)
(0 -0.010194 0)
(0 -0.00935868 0)
(0 -0.00859755 0)
(0 -0.00940167 0)
(0 -0.00861184 0)
(0 -0.00773271 0)
(0 -0.00777156 0)
(0 -0.00845515 0)
(0 -0.00663399 0)
(0 -0.00478889 0)
(0 -0.0030067 0)
(0 -0.00160261 0)
(0 -0.000589588 0)
(0 -6.2494e-05 0)
(0 0 0)
(0 0 0)
(0 0 0)
(0 0 0)
(0 0 0)
(0 0 0)
(0 0 0)
(0 0 0)
(0 0 0)
(0 0 0)
(0 0 0)
(0 0 0)
(0 0 0)
(0 0 0)
(0 -0.000178799 0)
(0 -0.000904913 0)
(0 -0.00212614 0)
(0 -0.00373591 0)
(0 -0.00559623 0)
(0 -0.0076424 0)
(0 -0.00955208 0)
(0 -0.0090809 0)
(0 -0.00997956 0)
(0 -0.00936795 0)
(0 -0.0101845 0)
(0 -0.010813 0)
(0 -0.0115657 0)
(0 -0.0109282 0)
(0 -0.0115871 0)
(0 -0.0119284 0)
(0 -0.0122219 0)
(0 -0.011928 0)
(0 -0.0127573 0)
(0 -0.0128985 0)
(0 -0.0130124 0)
(0 -0.0128725 0)
(0 -0.0135049 0)
(0 -0.0136178 0)
(0 -0.0136911 0)
(0 -0.0135805 0)
(0 -0.0139474 0)
(0 -0.0140297 0)
(0 -0.014067 0)
(0 -0.0139841 0)
(0 -0.0141413 0)
(0 -0.0142017 0)
(0 -0.0142103 0)
(0 -0.0141517 0)
(0 -0.0141909 0)
(0 -0.0142396 0)
(0 -0.0142387 0)
(0 -0.0141897 0)
(0 -0.0141413 0)
(0 -0.0142017 0)
(0 -0.0141898 0)
(0 -0.0141272 0)
(0 -0.0139474 0)
(0 -0.0140297 0)
(0 -0.0139984 0)
(0 -0.0139032 0)
(0 -0.0135049 0)
(0 -0.0136178 0)
(0 -0.013554 0)
(0 -0.0134226 0)
(0 -0.0127573 0)
(0 -0.0128985 0)
(0 -0.0130277 0)
(0 -0.0127818 0)
(0 -0.0125069 0)
(0 -0.0115871 0)
(0 -0.0119284 0)
(0 -0.0122248 0)
(0 -0.0115657 0)
(0 -0.0109282 0)
(0 -0.0101845 0)
(0 -0.0107883 0)
(0 -0.00997312 0)
(0 -0.00936795 0)
(0 -0.00909176 0)
(0 -0.00958038 0)
(0 -0.00762319 0)
(0 -0.00565198 0)
(0 -0.00377508 0)
(0 -0.00215077 0)
(0 -0.000917825 0)
(0 -0.00018321 0)
(0 0 0)
(0 0 0)
(0 0 0)
(0 0 0)
(0 0 0)
(0 0 0)
(0 0 0)
(0 0 0)
(0 0 0)
(0 0 0)
(0 0 0)
(0 0 0)
(0 0 0)
(0 0 0)
(0 -0.000275703 0)
(0 -0.00112415 0)
(0 -0.00247383 0)
(0 -0.00421075 0)
(0 -0.00618865 0)
(0 -0.00824132 0)
(0 -0.0101969 0)
(0 -0.00995465 0)
(0 -0.0108462 0)
(0 -0.0104323 0)
(0 -0.0112394 0)
(0 -0.0116584 0)
(0 -0.0123754 0)
(0 -0.0120291 0)
(0 -0.0126818 0)
(0 -0.012843 0)
(0 -0.0131239 0)
(0 -0.0129664 0)
(0 -0.0136428 0)
(0 -0.0137172 0)
(0 -0.0138013 0)
(0 -0.0137291 0)
(0 -0.0141611 0)
(0 -0.0141971 0)
(0 -0.0142271 0)
(0 -0.0141954 0)
(0 -0.0142853 0)
(0 -0.0142853 0)
(0 -0.0142853 0)
(0 -0.0142853 0)
(0 -0.0142853 0)
(0 -0.0142853 0)
(0 -0.0142853 0)
(0 -0.0142853 0)
(0 -0.0142853 0)
(0 -0.0142853 0)
(0 -0.0142853 0)
(0 -0.0142853 0)
(0 -0.0142853 0)
(0 -0.0142853 0)
(0 -0.0142853 0)
(0 -0.0142853 0)
(0 -0.0142853 0)
(0 -0.0142853 0)
(0 -0.0142853 0)
(0 -0.0142853 0)
(0 -0.0141611 0)
(0 -0.0141971 0)
(0 -0.0141575 0)
(0 -0.01412 0)
(0 -0.0136428 0)
(0 -0.0137172 0)
(0 -0.0137809 0)
(0 -0.0135866 0)
(0 -0.0134474 0)
(0 -0.0126744 0)
(0 -0.0128617 0)
(0 -0.0130048 0)
(0 -0.0123582 0)
(0 -0.0120398 0)
(0 -0.0113035 0)
(0 -0.0116439 0)
(0 -0.0108347 0)
(0 -0.0104784 0)
(0 -0.00994619 0)
(0 -0.010202 0)
(0 -0.00823794 0)
(0 -0.00617881 0)
(0 -0.00419725 0)
(0 -0.00245974 0)
(0 -0.0011125 0)
(0 -0.000269085 0)
(0 0 0)
(0 0 0)
(0 0 0)
(0 0 0)
(0 0 0)
(0 0 0)
(0 0 0)
(0 0 0)
(0 0 0)
(0 0 0)
(0 0 0)
(0 0 0)
(0 0 0)
(0 0 0)
(0 -0.000292308 0)
(0 -0.00116009 0)
(0 -0.00253047 0)
(0 -0.00428831 0)
(0 -0.00628591 0)
(0 -0.00835542 0)
(0 -0.010323 0)
(0 -0.0103266 0)
(0 -0.0112191 0)
(0 -0.0110868 0)
(0 -0.011893 0)
(0 -0.0120254 0)
(0 -0.0127287 0)
(0 -0.0125992 0)
(0 -0.0132139 0)
(0 -0.0132733 0)
(0 -0.0135197 0)
(0 -0.0134662 0)
(0 -0.0140224 0)
(0 -0.0140453 0)
(0 -0.0141062 0)
(0 -0.014085 0)
(0 -0.0142853 0)
(0 -0.0142853 0)
(0 -0.0142853 0)
(0 -0.0142853 0)
(0 -0.0142853 0)
(0 -0.0142853 0)
(0 -0.0142853 0)
(0 -0.0142853 0)
(0 -0.0142853 0)
(0 -0.0142853 0)
(0 -0.0142853 0)
(0 -0.0142853 0)
(0 -0.0142853 0)
(0 -0.0142853 0)
(0 -0.0142853 0)
(0 -0.0142853 0)
(0 -0.0142853 0)
(0 -0.0142847 0)
(0 -0.0142826 0)
(0 -0.0140224 0)
(0 -0.0140453 0)
(0 -0.0140605 0)
(0 -0.0139176 0)
(0 -0.0138672 0)
(0 -0.013213 0)
(0 -0.0132741 0)
(0 -0.0133141 0)
(0 -0.0127287 0)
(0 -0.0126175 0)
(0 -0.0119072 0)
(0 -0.0119951 0)
(0 -0.0111843 0)
(0 -0.0110965 0)
(0 -0.0102881 0)
(0 -0.0102999 0)
(0 -0.00832972 0)
(0 -0.00625981 0)
(0 -0.00426408 0)
(0 -0.0025102 0)
(0 -0.00114555 0)
(0 -0.000284775 0)
(0 0 0)
(0 0 0)
(0 0 0)
(0 0 0)
(0 0 0)
(0 0 0)
(0 0 0)
(0 0 0)
(0 0 0)
(0 0 0)
(0 0 0)
(0 0 0)
(0 0 0)
(0 0 0)
(0 -0.000238883 0)
(0 -0.00104402 0)
(0 -0.0023488 0)
(0 -0.00404192 0)
(0 -0.00598004 0)
(0 -0.00800022 0)
(0 -0.00993424 0)
(0 -0.0102134 0)
(0 -0.0111044 0)
(0 -0.0112161 0)
(0 -0.0120233 0)
(0 -0.0119114 0)
(0 -0.012618 0)
(0 -0.0127274 0)
(0 -0.0133135 0)
(0 -0.0132822 0)
(0 -0.0135286 0)
(0 -0.0135584 0)
(0 -0.0140855 0)
(0 -0.0140781 0)
(0 -0.0141351 0)
(0 -0.0141418 0)
(0 -0.0142853 0)
(0 -0.0142853 0)
(0 -0.0142853 0)
(0 -0.0142853 0)
(0 -0.0142853 0)
(0 -0.0142853 0)
(0 -0.0142853 0)
(0 -0.0142853 0)
(0 -0.0142853 0)
(0 -0.0142853 0)
(0 -0.0142853 0)
(0 -0.0142853 0)
(0 -0.0142853 0)
(0 -0.0142853 0)
(0 -0.0142853 0)
(0 -0.0142853 0)
(0 -0.0140855 0)
(0 -0.014072 0)
(0 -0.0140646 0)
(0 -0.013922 0)
(0 -0.0139382 0)
(0 -0.0133012 0)
(0 -0.0132812 0)
(0 -0.0132206 0)
(0 -0.0126266 0)
(0 -0.0127118 0)
(0 -0.0120048 0)
(0 -0.0119177 0)
(0 -0.0111081 0)
(0 -0.0111951 0)
(0 -0.0102146 0)
(0 -0.0099595 0)
(0 -0.00801877 0)
(0 -0.00599216 0)
(0 -0.00404859 0)
(0 -0.00235145 0)
(0 -0.00104427 0)
(0 -0.000238361 0)
(0 0 0)
(0 0 0)
(0 0 0)
(0 0 0)
(0 0 0)
(0 0 0)
(0 0 0)
(0 0 0)
(0 0 0)
(0 0 0)
(0 0 0)
(0 0 0)
(0 0 0)
(0 0 0)
(0 -0.000120823 0)
(0 -0.000758915 0)
(0 -0.00188765 0)
(0 -0.00340565 0)
(0 -0.00529483 0)
(0 -0.00722662 0)
(0 -0.00911092 0)
(0 -0.00961062 0)
(0 -0.0105039 0)
(0 -0.0108187 0)
(0 -0.011677 0)
(0 -0.0113235 0)
(0 -0.012054 0)
(0 -0.0124051 0)
(0 -0.0130235 0)
(0 -0.0128753 0)
(0 -0.013144 0)
(0 -0.0132879 0)
(0 -0.0138914 0)
(0 -0.0138492 0)
(0 -0.0139259 0)
(0 -0.0139709 0)
(0 -0.014268 0)
(0 -0.0142533 0)
(0 -0.0142708 0)
(0 -0.0142799 0)
(0 -0.0142853 0)
(0 -0.0142853 0)
(0 -0.0142853 0)
(0 -0.0142853 0)
(0 -0.0142853 0)
(0 -0.0142853 0)
(0 -0.0142853 0)
(0 -0.0142853 0)
(0 -0.014268 0)
(0 -0.0142512 0)
(0 -0.014228 0)
(0 -0.0142487 0)
(0 -0.0138914 0)
(0 -0.0138492 0)
(0 -0.0137919 0)
(0 -0.0136103 0)
(0 -0.0137224 0)
(0 -0.0130235 0)
(0 -0.0128753 0)
(0 -0.012707 0)
(0 -0.012054 0)
(0 -0.0124051 0)
(0 -0.0116553 0)
(0 -0.0113235 0)
(0 -0.0105039 0)
(0 -0.0108471 0)
(0 -0.00961062 0)
(0 -0.00911092 0)
(0 -0.00722662 0)
(0 -0.00522659 0)
(0 -0.00343913 0)
(0 -0.0019096 0)
(0 -0.000770932 0)
(0 -0.000124884 0)
(0 0 0)
(0 0 0)
(0 0 0)
(0 0 0)
(0 0 0)
(0 0 0)
(0 0 0)
(0 0 0)
(0 0 0)
(0 0 0)
(0 0 0)
(0 0 0)
(0 0 0)
(0 0 0)
(0 -1.49501e-05 0)
(0 -0.000443791 0)
(0 -0.00135139 0)
(0 -0.00265739 0)
(0 -0.00424238 0)
(0 -0.00596728 0)
(0 -0.00777728 0)
(0 -0.00846359 0)
(0 -0.00938391 0)
(0 -0.00998737 0)
(0 -0.0108399 0)
(0 -0.0101896 0)
(0 -0.0109966 0)
(0 -0.0115813 0)
(0 -0.0122625 0)
(0 -0.0119893 0)
(0 -0.0122902 0)
(0 -0.0125611 0)
(0 -0.0132921 0)
(0 -0.0131705 0)
(0 -0.0132811 0)
(0 -0.0133822 0)
(0 -0.0139382 0)
(0 -0.0138583 0)
(0 -0.0139166 0)
(0 -0.0139935 0)
(0 -0.0142272 0)
(0 -0.0141824 0)
(0 -0.0142021 0)
(0 -0.0142429 0)
(0 -0.0142853 0)
(0 -0.0142773 0)
(0 -0.0142804 0)
(0 -0.0142853 0)
(0 -0.0142853 0)
(0 -0.0142853 0)
(0 -0.0142853 0)
(0 -0.0142853 0)
(0 -0.0142853 0)
(0 -0.0142853 0)
(0 -0.0142773 0)
(0 -0.0142729 0)
(0 -0.0142848 0)
(0 -0.0142851 0)
(0 -0.0142272 0)
(0 -0.0141824 0)
(0 -0.0141581 0)
(0 -0.0142069 0)
(0 -0.0139382 0)
(0 -0.0138583 0)
(0 -0.0137932 0)
(0 -0.0138761 0)
(0 -0.0133019 0)
(0 -0.0131903 0)
(0 -0.0130561 0)
(0 -0.0128342 0)
(0 -0.0130754 0)
(0 -0.0122288 0)
(0 -0.0119755 0)
(0 -0.0116795 0)
(0 -0.0109815 0)
(0 -0.0115813 0)
(0 -0.0108399 0)
(0 -0.0101896 0)
(0 -0.00938391 0)
(0 -0.00998737 0)
(0 -0.00846359 0)
(0 -0.00777728 0)
(0 -0.00596728 0)
(0 -0.00424238 0)
(0 -0.00265739 0)
(0 -0.00135139 0)
(0 -0.000413968 0)
(0 -1.79578e-05 0)
(0 0 0)
(0 0 0)
(0 0 0)
(0 0 0)
(0 0 0)
(0 0 0)
(0 0 0)
(0 0 0)
(0 0 0)
(0 0 0)
(0 0 0)
(0 0 0)
(0 0 0)
(0 0 0)
(0 0 0)
(0 -0.000136409 0)
(0 -0.000718822 0)
(0 -0.00169123 0)
(0 -0.00295219 0)
(0 -0.00452769 0)
(0 -0.00615667 0)
(0 -0.00692512 0)
(0 -0.0078319 0)
(0 -0.00860732 0)
(0 -0.00944797 0)
(0 -0.00864823 0)
(0 -0.00941149 0)
(0 -0.0102381 0)
(0 -0.0109535 0)
(0 -0.0101083 0)
(0 -0.0106916 0)
(0 -0.0111759 0)
(0 -0.011583 0)
(0 -0.0112796 0)
(0 -0.0121243 0)
(0 -0.0117011 0)
(0 -0.0119627 0)
(0 -0.0123637 0)
(0 -0.0129629 0)
(0 -0.0126 0)
(0 -0.0127452 0)
(0 -0.0131213 0)
(0 -0.0134939 0)
(0 -0.0131723 0)
(0 -0.0132668 0)
(0 -0.013583 0)
(0 -0.0137693 0)
(0 -0.0134726 0)
(0 -0.013525 0)
(0 -0.0138058 0)
(0 -0.0138546 0)
(0 -0.0135806 0)
(0 -0.0135664 0)
(0 -0.0138434 0)
(0 -0.0137693 0)
(0 -0.0134726 0)
(0 -0.0133983 0)
(0 -0.0137121 0)
(0 -0.0134939 0)
(0 -0.0131723 0)
(0 -0.0130543 0)
(0 -0.0133816 0)
(0 -0.0129629 0)
(0 -0.0126 0)
(0 -0.0124124 0)
(0 -0.0127793 0)
(0 -0.0121243 0)
(0 -0.0117011 0)
(0 -0.0114554 0)
(0 -0.0118628 0)
(0 -0.0109535 0)
(0 -0.0101083 0)
(0 -0.00941149 0)
(0 -0.0102381 0)
(0 -0.00944797 0)
(0 -0.00864823 0)
(0 -0.0078319 0)
(0 -0.00860732 0)
(0 -0.00692512 0)
(0 -0.00615667 0)
(0 -0.00452769 0)
(0 -0.00295219 0)
(0 -0.00169123 0)
(0 -0.000718822 0)
(0 -0.000136409 0)
(0 0 0)
(0 0 0)
(0 0 0)
(0 0 0)
(0 0 0)
(0 0 0)
(0 0 0)
(0 0 0)
(0 0 0)
(0 0 0)
(0 0 0)
(0 0 0)
(0 0 0)
(0 0 0)
(0 0 0)
(0 0 0)
(0 0 0)
(0 -0.000205562 0)
(0 -0.000848815 0)
(0 -0.00181962 0)
(0 -0.0030236 0)
(0 -0.00434236 0)
(0 -0.00564418 0)
(0 -0.00665442 0)
(0 -0.00772865 0)
(0 -0.00695792 0)
(0 -0.00737738 0)
(0 -0.00845412 0)
(0 -0.00909401 0)
(0 -0.0080548 0)
(0 -0.00867437 0)
(0 -0.00974704 0)
(0 -0.0103239 0)
(0 -0.0097901 0)
(0 -0.00999612 0)
(0 -0.0105811 0)
(0 -0.0112376 0)
(0 -0.0107128 0)
(0 -0.0109075 0)
(0 -0.0114339 0)
(0 -0.0118811 0)
(0 -0.0113532 0)
(0 -0.0114403 0)
(0 -0.0119827 0)
(0 -0.012267 0)
(0 -0.0117601 0)
(0 -0.0118193 0)
(0 -0.0123257 0)
(0 -0.0123947 0)
(0 -0.011891 0)
(0 -0.0118666 0)
(0 -0.0123726 0)
(0 -0.012267 0)
(0 -0.0117601 0)
(0 -0.0116772 0)
(0 -0.0121846 0)
(0 -0.0118811 0)
(0 -0.0113532 0)
(0 -0.011228 0)
(0 -0.0117558 0)
(0 -0.0112376 0)
(0 -0.0107128 0)
(0 -0.0104956 0)
(0 -0.0110182 0)
(0 -0.0103239 0)
(0 -0.0097901 0)
(0 -0.00917318 0)
(0 -0.00867437 0)
(0 -0.00974704 0)
(0 -0.00909401 0)
(0 -0.0080548 0)
(0 -0.00737738 0)
(0 -0.00845412 0)
(0 -0.00772865 0)
(0 -0.00665442 0)
(0 -0.00564418 0)
(0 -0.00434236 0)
(0 -0.00695792 0)
(0 -0.0030236 0)
(0 -0.00181962 0)
(0 -0.000848815 0)
(0 -0.000205562 0)
(0 0 0)
(0 0 0)
(0 0 0)
(0 0 0)
(0 0 0)
(0 0 0)
(0 0 0)
(0 0 0)
(0 0 0)
(0 0 0)
(0 0 0)
(0 0 0)
(0 0 0)
(0 0 0)
(0 0 0)
(0 0 0)
(0 0 0)
(0 0 0)
(0 -2.60678e-06 0)
(0 -0.000233525 0)
(0 -0.00079134 0)
(0 -0.00155074 0)
(0 -0.00253823 0)
(0 -0.00359139 0)
(0 -0.00460964 0)
(0 -0.00520406 0)
(0 -0.00630741 0)
(0 -0.00693295 0)
(0 -0.00570513 0)
(0 -0.00627046 0)
(0 -0.00744838 0)
(0 -0.00801353 0)
(0 -0.00740624 0)
(0 -0.00765482 0)
(0 -0.00827195 0)
(0 -0.00893812 0)
(0 -0.0082973 0)
(0 -0.00847412 0)
(0 -0.00912099 0)
(0 -0.00953534 0)
(0 -0.00889365 0)
(0 -0.00903651 0)
(0 -0.00968237 0)
(0 -0.00999043 0)
(0 -0.00933636 0)
(0 -0.00939234 0)
(0 -0.0100479 0)
(0 -0.0101235 0)
(0 -0.00946804 0)
(0 -0.00943723 0)
(0 -0.0100939 0)
(0 -0.00999043 0)
(0 -0.00933636 0)
(0 -0.00925822 0)
(0 -0.00991023 0)
(0 -0.00953534 0)
(0 -0.00889365 0)
(0 -0.00873007 0)
(0 -0.00942399 0)
(0 -0.00893812 0)
(0 -0.0082973 0)
(0 -0.00810127 0)
(0 -0.00873515 0)
(0 -0.00801353 0)
(0 -0.00740624 0)
(0 -0.00678798 0)
(0 -0.00627046 0)
(0 -0.00744838 0)
(0 -0.00693295 0)
(0 -0.00570513 0)
(0 -0.00520406 0)
(0 -0.00630741 0)
(0 -0.00460964 0)
(0 -0.00359139 0)
(0 -0.00253823 0)
(0 -0.00155074 0)
(0 -0.00079134 0)
(0 -0.000233525 0)
(0 -2.60678e-06 0)
(0 0 0)
(0 0 0)
(0 0 0)
(0 0 0)
(0 0 0)
(0 0 0)
(0 0 0)
(0 0 0)
(0 0 0)
(0 0 0)
(0 0 0)
(0 0 0)
(0 0 0)
(0 0 0)
(0 0 0)
(0 0 0)
(0 0 0)
(0 0 0)
(0 0 0)
(0 0 0)
(0 -0.000122639 0)
(0 -0.000510789 0)
(0 -0.00103476 0)
(0 -0.00174234 0)
(0 -0.00257631 0)
(0 -0.00303789 0)
(0 -0.00404797 0)
(0 -0.00457808 0)
(0 -0.00349023 0)
(0 -0.00392195 0)
(0 -0.00507968 0)
(0 -0.00554178 0)
(0 -0.00492579 0)
(0 -0.00512551 0)
(0 -0.00575492 0)
(0 -0.00630988 0)
(0 -0.00564684 0)
(0 -0.00574198 0)
(0 -0.00639561 0)
(0 -0.00687818 0)
(0 -0.00619765 0)
(0 -0.00631685 0)
(0 -0.00700418 0)
(0 -0.0072697 0)
(0 -0.00656834 0)
(0 -0.00661549 0)
(0 -0.00731943 0)
(0 -0.0073919 0)
(0 -0.00668585 0)
(0 -0.00665336 0)
(0 -0.00735936 0)
(0 -0.0072697 0)
(0 -0.00656834 0)
(0 -0.00650263 0)
(0 -0.00720036 0)
(0 -0.00687818 0)
(0 -0.00619765 0)
(0 -0.00606165 0)
(0 -0.00673431 0)
(0 -0.00630988 0)
(0 -0.00564684 0)
(0 -0.00548699 0)
(0 -0.00613993 0)
(0 -0.00554178 0)
(0 -0.00492579 0)
(0 -0.00432258 0)
(0 -0.00392195 0)
(0 -0.00507968 0)
(0 -0.00457808 0)
(0 -0.00349023 0)
(0 -0.00303789 0)
(0 -0.00404797 0)
(0 -0.00257631 0)
(0 -0.00174234 0)
(0 -0.00103476 0)
(0 -0.000510789 0)
(0 -0.000122639 0)
(0 0 0)
(0 0 0)
(0 0 0)
(0 0 0)
(0 0 0)
(0 0 0)
(0 0 0)
(0 0 0)
(0 0 0)
(0 0 0)
(0 0 0)
(0 0 0)
(0 0 0)
(0 0 0)
(0 0 0)
(0 0 0)
(0 0 0)
(0 0 0)
(0 0 0)
(0 0 0)
(0 0 0)
(0 0 0)
(0 0 0)
(0 -1.04437e-05 0)
(0 -0.00017715 0)
(0 -0.000494401 0)
(0 -0.00103715 0)
(0 -0.00131951 0)
(0 -0.00211512 0)
(0 -0.00248562 0)
(0 -0.00160623 0)
(0 -0.0018876 0)
(0 -0.00284327 0)
(0 -0.00317823 0)
(0 -0.00264858 0)
(0 -0.00278948 0)
(0 -0.00333439 0)
(0 -0.00371049 0)
(0 -0.0031403 0)
(0 -0.00327249 0)
(0 -0.00385575 0)
(0 -0.00422179 0)
(0 -0.00360655 0)
(0 -0.00369467 0)
(0 -0.00431812 0)
(0 -0.00452213 0)
(0 -0.00388158 0)
(0 -0.00391677 0)
(0 -0.0045605 0)
(0 -0.00462178 0)
(0 -0.00397421 0)
(0 -0.00394506 0)
(0 -0.00459134 0)
(0 -0.00452213 0)
(0 -0.00388158 0)
(0 -0.00383261 0)
(0 -0.00446873 0)
(0 -0.00422179 0)
(0 -0.00360655 0)
(0 -0.00350637 0)
(0 -0.00411217 0)
(0 -0.00371049 0)
(0 -0.0031403 0)
(0 -0.00299907 0)
(0 -0.00355502 0)
(0 -0.00317823 0)
(0 -0.00264858 0)
(0 -0.00215456 0)
(0 -0.0018876 0)
(0 -0.00284327 0)
(0 -0.00248562 0)
(0 -0.00160623 0)
(0 -0.00131951 0)
(0 -0.00211512 0)
(0 -0.00103715 0)
(0 -0.000494401 0)
(0 -0.00017715 0)
(0 -1.04437e-05 0)
(0 0 0)
(0 0 0)
(0 0 0)
(0 0 0)
(0 0 0)
(0 0 0)
(0 0 0)
(0 0 0)
(0 0 0)
(0 0 0)
(0 0 0)
(0 0 0)
(0 0 0)
(0 0 0)
(0 0 0)
(0 0 0)
(0 0 0)
(0 0 0)
(0 0 0)
(0 0 0)
(0 0 0)
(0 0 0)
(0 0 0)
(0 0 0)
(0 0 0)
(0 0 0)
(0 -1.89313e-06 0)
(0 -0.00014223 0)
(0 -0.000247739 0)
(0 -0.000686955 0)
(0 -0.000890043 0)
(0 -0.000369407 0)
(0 -0.00049952 0)
(0 -0.00109493 0)
(0 -0.00129339 0)
(0 -0.000890318 0)
(0 -0.00098146 0)
(0 -0.00134226 0)
(0 -0.00164807 0)
(0 -0.00124031 0)
(0 -0.00131888 0)
(0 -0.00174007 0)
(0 -0.00197533 0)
(0 -0.00152105 0)
(0 -0.00157519 0)
(0 -0.00203801 0)
(0 -0.00217176 0)
(0 -0.00169105 0)
(0 -0.00171302 0)
(0 -0.00219706 0)
(0 -0.00224106 0)
(0 -0.00175202 0)
(0 -0.00173071 0)
(0 -0.00221743 0)
(0 -0.00217176 0)
(0 -0.00169105 0)
(0 -0.00166057 0)
(0 -0.00213662 0)
(0 -0.00197533 0)
(0 -0.00152105 0)
(0 -0.00145991 0)
(0 -0.00190438 0)
(0 -0.00164807 0)
(0 -0.00124031 0)
(0 -0.00115734 0)
(0 -0.00155053 0)
(0 -0.00129339 0)
(0 -0.000890318 0)
(0 -0.000598701 0)
(0 -0.00049952 0)
(0 -0.00109493 0)
(0 -0.000890043 0)
(0 -0.000369407 0)
(0 -0.000247739 0)
(0 -0.000686955 0)
(0 -0.00014223 0)
(0 -1.89313e-06 0)
(0 0 0)
(0 0 0)
(0 0 0)
(0 0 0)
(0 0 0)
(0 0 0)
(0 0 0)
(0 0 0)
(0 0 0)
(0 0 0)
(0 0 0)
(0 0 0)
(0 0 0)
(0 0 0)
(0 0 0)
(0 0 0)
(0 0 0)
(0 0 0)
(0 0 0)
(0 0 0)
(0 0 0)
(0 0 0)
(0 0 0)
(0 0 0)
(0 0 0)
(0 0 0)
(0 0 0)
(0 0 0)
(0 0 0)
(0 0 0)
(0 0 0)
(0 -6.95274e-05 0)
(0 -2.51473e-05 0)
(0 0 0)
(0 -0.000109332 0)
(0 -0.000182652 0)
(0 -5.59188e-06 0)
(0 -2.44418e-05 0)
(0 -0.000263217 0)
(0 -0.000344852 0)
(0 -5.15389e-05 0)
(0 -8.20648e-05 0)
(0 -0.000421989 0)
(0 -0.00048979 0)
(0 -0.000111813 0)
(0 -0.000137292 0)
(0 -0.000544255 0)
(0 -0.000582309 0)
(0 -0.000155807 0)
(0 -0.00016553 0)
(0 -0.000601865 0)
(0 -0.000617513 0)
(0 -0.000173835 0)
(0 -0.00016553 0)
(0 -0.000601865 0)
(0 -0.000582309 0)
(0 -0.000155807 0)
(0 -0.000137292 0)
(0 -0.000544255 0)
(0 -0.00048979 0)
(0 -0.000111813 0)
(0 -8.20648e-05 0)
(0 -0.000421989 0)
(0 -0.000344852 0)
(0 -5.15389e-05 0)
(0 -2.44418e-05 0)
(0 -0.000263217 0)
(0 -0.000182652 0)
(0 -5.59188e-06 0)
(0 0 0)
(0 -0.000109332 0)
(0 -6.95274e-05 0)
(0 0 0)
(0 0 0)
(0 0 0)
(0 -2.51473e-05 0)
(0 0 0)
(0 0 0)
(0 0 0)
(0 0 0)
(0 0 0)
(0 0 0)
(0 0 0)
(0 0 0)
(0 0 0)
(0 0 0)
(0 0 0)
(0 0 0)
(0 0 0)
(0 0 0)
(0 0 0)
(0 0 0)
(0 0 0)
(0 0 0)
(0 0 0)
(0 0 0)
(0 0 0)
(0 0 0)
(0 0 0)
(0 0 0)
(0 0 0)
(0 0 0)
(0 0 0)
(0 0 0)
(0 0 0)
(0 0 0)
(0 0 0)
(0 0 0)
(0 0 0)
(0 0 0)
(0 0 0)
(0 0 0)
(0 0 0)
(0 0 0)
(0 0 0)
(0 0 0)
(0 -5.02538e-07 0)
(0 0 0)
(0 0 0)
(0 -1.93393e-06 0)
(0 -1.15066e-06 0)
(0 0 0)
(0 -5.02538e-07 0)
(0 -1.15066e-06 0)
(0 0 0)
(0 0 0)
(0 0 0)
(0 0 0)
(0 0 0)
(0 0 0)
(0 0 0)
(0 0 0)
(0 0 0)
(0 0 0)
(0 0 0)
(0 0 0)
(0 0 0)
(0 0 0)
(0 0 0)
(0 0 0)
(0 0 0)
(0 0 0)
(0 0 0)
(0 0 0)
(0 0 0)
(0 0 0)
(0 0 0)
(0 0 0)
(0 0 0)
(0 0 0)
(0 0 0)
(0 0 0)
(0 0 0)
(0 0 0)
(0 0 0)
(0 0 0)
(0 0 0)
(0 0 0)
(0 0 0)
(0 0 0)
(0 0 0)
(0 0 0)
(0 0 0)
(0 0 0)
(0 0 0)
(0 0 0)
(0 0 0)
(0 0 0)
(0 0 0)
(0 0 0)
(0 0 0)
(0 0 0)
(0 0 0)
(0 0 0)
(0 0 0)
(0 0 0)
(0 0 0)
(0 0 0)
(0 0 0)
(0 0 0)
(0 0 0)
(0 0 0)
(0 0 0)
(0 0 0)
(0 0 0)
(0 0 0)
(0 0 0)
(0 0 0)
(0 0 0)
(0 0 0)
(0 0 0)
(0 0 0)
(0 0 0)
(0 0 0)
(0 0 0)
(0 0 0)
(0 0 0)
(0 0 0)
(0 0 0)
(0 0 0)
(0 0 0)
(0 0 0)
(0 0 0)
(0 0 0)
(0 0 0)
(0 0 0)
(0 0 0)
(0 0 0)
(0 0 0)
(0 0 0)
(0 0 0)
(0 0 0)
(0 0 0)
(0 0 0)
(0 0 0)
(0 0 0)
(0 0 0)
(0 0 0)
(0 0 0)
(0 0 0)
(0 0 0)
(0 0 0)
(0 0 0)
(0 0 0)
(0 0 0)
(0 0 0)
(0 0 0)
(0 0 0)
(0 0 0)
(0 0 0)
(0 0 0)
(0 0 0)
(0 0 0)
(0 0 0)
(0 0 0)
(0 0 0)
(0 0 0)
(0 0 0)
(0 0 0)
(0 0 0)
(0 0 0)
(0 0 0)
(0 0 0)
(0 0 0)
(0 0 0)
(0 0 0)
(0 0 0)
(0 0 0)
(0 0 0)
(0 0 0)
(0 0 0)
(0 0 0)
(0 0 0)
(0 0 0)
(0 0 0)
(0 0 0)
(0 0 0)
(0 0 0)
(0 0 0)
(0 0 0)
(0 0 0)
(0 0 0)
(0 0 0)
(0 0 0)
(0 0 0)
(0 0 0)
(0 0 0)
(0 0 0)
(0 0 0)
(0 0 0)
(0 0 0)
(0 0 0)
(0 0 0)
(0 0 0)
(0 0 0)
(0 0 0)
(0 0 0)
(0 0 0)
(0 0 0)
(0 0 0)
(0 0 0)
(0 0 0)
(0 0 0)
(0 0 0)
(0 0 0)
(0 0 0)
(0 0 0)
(0 0 0)
(0 0 0)
(0 0 0)
(0 0 0)
(0 0 0)
(0 0 0)
(0 0 0)
(0 0 0)
(0 0 0)
(0 0 0)
(0 0 0)
(0 0 0)
(0 0 0)
(0 0 0)
(0 0 0)
(0 0 0)
(0 0 0)
(0 0 0)
(0 0 0)
(0 0 0)
(0 0 0)
(0 0 0)
(0 0 0)
(0 0 0)
(0 0 0)
(0 0 0)
(0 0 0)
(0 0 0)
(0 0 0)
(0 0 0)
(0 0 0)
(0 0 0)
(0 0 0)
(0 0 0)
(0 0 0)
(0 0 0)
(0 0 0)
(0 0 0)
(0 0 0)
(0 0 0)
(0 0 0)
(0 0 0)
(0 0 0)
(0 0 0)
(0 0 0)
(0 0 0)
(0 0 0)
(0 0 0)
(0 0 0)
(0 0 0)
(0 0 0)
(0 0 0)
(0 0 0)
(0 0 0)
(0 0 0)
(0 0 0)
(0 0 0)
(0 0 0)
(0 0 0)
(0 0 0)
(0 0 0)
(0 0 0)
(0 0 0)
(0 0 0)
(0 0 0)
(0 0 0)
(0 0 0)
(0 0 0)
(0 0 0)
(0 0 0)
(0 0 0)
(0 0 0)
(0 0 0)
(0 0 0)
(0 0 0)
(0 0 0)
(0 0 0)
(0 0 0)
(0 0 0)
(0 0 0)
(0 0 0)
(0 0 0)
(0 0 0)
(0 0 0)
(0 0 0)
(0 0 0)
(0 0 0)
(0 0 0)
(0 0 0)
(0 0 0)
(0 0 0)
(0 0 0)
(0 0 0)
(0 0 0)
(0 0 0)
(0 0 0)
(0 0 0)
(0 0 0)
(0 0 0)
(0 0 0)
(0 0 0)
(0 0 0)
(0 0 0)
(0 0 0)
(0 0 0)
(0 0 0)
(0 0 0)
(0 0 0)
(0 0 0)
(0 0 0)
(0 0 0)
(0 0 0)
(0 0 0)
(0 0 0)
(0 0 0)
(0 0 0)
(0 0 0)
(0 0 0)
(0 0 0)
(0 0 0)
(0 0 0)
(0 0 0)
(0 0 0)
(0 0 0)
(0 0 0)
(0 0 0)
(0 0 0)
(0 0 0)
(0 0 0)
(0 0 0)
(0 0 0)
(0 0 0)
(0 0 0)
(0 0 0)
(0 0 0)
(0 0 0)
(0 0 0)
(0 0 0)
(0 0 0)
(0 0 0)
(0 0 0)
(0 0 0)
(0 0 0)
(0 0 0)
(0 0 0)
(0 0 0)
(0 0 0)
(0 0 0)
(0 0 0)
(0 0 0)
(0 0 0)
(0 0 0)
(0 0 0)
(0 0 0)
(0 0 0)
(0 0 0)
(0 0 0)
(0 0 0)
(0 0 0)
(0 0 0)
(0 0 0)
(0 0 0)
(0 0 0)
(0 0 0)
(0 0 0)
(0 0 0)
(0 0 0)
(0 0 0)
(0 0 0)
(0 0 0)
(0 0 0)
(0 0 0)
(0 0 0)
(0 0 0)
(0 0 0)
(0 0 0)
(0 0 0)
(0 0 0)
(0 0 0)
(0 0 0)
(0 0 0)
(0 0 0)
(0 0 0)
(0 0 0)
(0 0 0)
(0 0 0)
(0 0 0)
(0 0 0)
(0 0 0)
(0 0 0)
(0 0 0)
(0 0 0)
(0 0 0)
(0 0 0)
(0 0 0)
(0 0 0)
(0 0 0)
(0 0 0)
(0 0 0)
(0 0 0)
(0 0 0)
(0 0 0)
(0 0 0)
(0 0 0)
(0 0 0)
(0 0 0)
(0 0 0)
(0 0 0)
(0 0 0)
(0 0 0)
(0 0 0)
(0 0 0)
(0 0 0)
(0 0 0)
(0 0 0)
(0 0 0)
(0 0 0)
(0 0 0)
(0 0 0)
(0 0 0)
(0 0 0)
(0 0 0)
(0 0 0)
(0 0 0)
(0 0 0)
(0 0 0)
(0 0 0)
(0 0 0)
(0 0 0)
(0 0 0)
(0 0 0)
(0 0 0)
(0 0 0)
(0 0 0)
(0 0 0)
(0 0 0)
(0 0 0)
(0 0 0)
(0 0 0)
(0 0 0)
(0 0 0)
(0 0 0)
(0 0 0)
(0 0 0)
(0 0 0)
(0 0 0)
(0 0 0)
(0 0 0)
(0 0 0)
(0 0 0)
(0 0 0)
(0 0 0)
(0 0 0)
(0 0 0)
(0 0 0)
(0 0 0)
(0 0 0)
(0 0 0)
(0 0 0)
(0 0 0)
(0 0 0)
(0 0 0)
(0 0 0)
(0 0 0)
(0 0 0)
(0 0 0)
(0 0 0)
(0 0 0)
(0 0 0)
(0 0 0)
(0 0 0)
(0 0 0)
(0 0 0)
(0 0 0)
(0 0 0)
(0 0 0)
(0 0 0)
(0 0 0)
(0 0 0)
(0 0 0)
(0 0 0)
(0 0 0)
(0 0 0)
(0 0 0)
(0 0 0)
(0 0 0)
(0 0 0)
(0 0 0)
(0 0 0)
(0 0 0)
(0 0 0)
(0 0 0)
(0 0 0)
(0 0 0)
(0 0 0)
(0 0 0)
(0 0 0)
(0 0 0)
(0 0 0)
(0 0 0)
(0 0 0)
(0 0 0)
(0 0 0)
(0 0 0)
(0 0 0)
(0 0 0)
(0 0 0)
(0 0 0)
(0 0 0)
(0 0 0)
(0 0 0)
(0 0 0)
(0 0 0)
(0 0 0)
(0 0 0)
(0 0 0)
(0 0 0)
(0 0 0)
(0 0 0)
(0 0 0)
(0 0 0)
(0 0 0)
(0 0 0)
(0 0 0)
(0 0 0)
(0 0 0)
(0 0 0)
(0 0 0)
(0 0 0)
(0 0 0)
(0 0 0)
(0 0 0)
(0 0 0)
(0 0 0)
(0 0 0)
(0 0 0)
(0 0 0)
(0 0 0)
(0 0 0)
(0 0 0)
(0 0 0)
(0 0 0)
(0 0 0)
(0 0 0)
(0 0 0)
(0 0 0)
(0 0 0)
(0 0 0)
(0 0 0)
(0 0 0)
(0 0 0)
(0 0 0)
(0 0 0)
(0 0 0)
(0 0 0)
(0 0 0)
(0 0 0)
(0 0 0)
(0 0 0)
(0 0 0)
(0 0 0)
(0 0 0)
(0 0 0)
(0 0 0)
(0 0 0)
(0 0 0)
(0 0 0)
(0 0 0)
(0 0 0)
(0 0 0)
(0 0 0)
(0 0 0)
(0 0 0)
(0 0 0)
(0 0 0)
(0 0 0)
(0 0 0)
(0 0 0)
(0 0 0)
(0 0 0)
(0 0 0)
(0 0 0)
(0 0 0)
(0 0 0)
(0 0 0)
(0 0 0)
(0 0 0)
(0 0 0)
(0 0 0)
(0 0 0)
(0 0 0)
(0 0 0)
(0 0 0)
(0 0 0)
(0 0 0)
(0 0 0)
(0 0 0)
(0 0 0)
(0 0 0)
(0 0 0)
(0 0 0)
(0 0 0)
(0 0 0)
(0 0 0)
(0 0 0)
(0 0 0)
(0 0 0)
(0 0 0)
(0 0 0)
(0 0 0)
(0 0 0)
(0 0 0)
(0 0 0)
(0 0 0)
(0 0 0)
(0 0 0)
(0 0 0)
(0 0 0)
(0 0 0)
(0 0 0)
(0 0 0)
(0 0 0)
(0 0 0)
(0 0 0)
(0 0 0)
(0 0 0)
(0 0 0)
(0 0 0)
(0 0 0)
(0 0 0)
(0 0 0)
(0 0 0)
(0 0 0)
(0 0 0)
(0 0 0)
(0 0 0)
(0 0 0)
(0 0 0)
(0 0 0)
(0 0 0)
(0 0 0)
(0 0 0)
(0 0 0)
(0 0 0)
(0 0 0)
(0 0 0)
(0 0 0)
(0 0 0)
(0 0 0)
(0 0 0)
(0 0 0)
(0 0 0)
(0 0 0)
(0 0 0)
(0 0 0)
(0 0 0)
(0 0 0)
(0 0 0)
(0 0 0)
(0 0 0)
(0 0 0)
(0 0 0)
(0 0 0)
(0 0 0)
(0 0 0)
(0 0 0)
(0 0 0)
(0 0 0)
(0 0 0)
(0 0 0)
(0 0 0)
(0 0 0)
(0 0 0)
(0 0 0)
(0 0 0)
(0 0 0)
(0 0 0)
(0 0 0)
(0 0 0)
(0 0 0)
(0 0 0)
(0 0 0)
(0 0 0)
(0 0 0)
(0 0 0)
(0 0 0)
(0 0 0)
(0 0 0)
(0 0 0)
(0 0 0)
(0 0 0)
(0 0 0)
(0 0 0)
(0 0 0)
(0 0 0)
(0 0 0)
(0 0 0)
(0 0 0)
(0 0 0)
(0 0 0)
(0 0 0)
(0 0 0)
(0 0 0)
(0 0 0)
(0 0 0)
(0 0 0)
(0 0 0)
(0 0 0)
(0 0 0)
(0 0 0)
(0 0 0)
(0 0 0)
(0 0 0)
(0 0 0)
(0 0 0)
(0 0 0)
(0 0 0)
(0 0 0)
(0 0 0)
(0 0 0)
(0 0 0)
(0 0 0)
(0 0 0)
(0 0 0)
(0 0 0)
(0 0 0)
(0 0 0)
(0 0 0)
(0 0 0)
(0 0 0)
(0 0 0)
(0 0 0)
(0 0 0)
(0 0 0)
(0 0 0)
(0 0 0)
(0 0 0)
(0 0 0)
(0 0 0)
(0 0 0)
(0 0 0)
(0 0 0)
(0 0 0)
(0 0 0)
(0 0 0)
(0 0 0)
(0 0 0)
(0 0 0)
(0 0 0)
(0 0 0)
(0 0 0)
(0 0 0)
(0 0 0)
(0 0 0)
(0 0 0)
(0 0 0)
(0 0 0)
(0 0 0)
(0 0 0)
(0 0 0)
(0 0 0)
(0 0 0)
(0 0 0)
(0 0 0)
(0 0 0)
(0 0 0)
(0 0 0)
(0 0 0)
(0 0 0)
(0 0 0)
(0 0 0)
(0 0 0)
(0 0 0)
(0 0 0)
(0 0 0)
(0 0 0)
(0 0 0)
(0 0 0)
(0 0 0)
(0 0 0)
(0 0 0)
(0 0 0)
(0 0 0)
(0 0 0)
(0 0 0)
(0 0 0)
(0 0 0)
(0 0 0)
(0 0 0)
(0 0 0)
(0 0 0)
(0 0 0)
(0 0 0)
(0 0 0)
(0 0 0)
(0 0 0)
(0 0 0)
(0 0 0)