/*--------------------------------*- C++ -*----------------------------------*\
| =========                 |                                                 |
| \\      /  F ield         | OpenFOAM: The Open Source CFD Toolbox           |
|  \\    /   O peration     | Version:  v2106                                 |
|   \\  /    A nd           | Website:  www.openfoam.com                      |
|    \\/     M anipulation  |                                                 |
\*---------------------------------------------------------------------------*/
FoamFile
{
    version     2.0;
    format      ascii;
    arch        "LSB;label=32;scalar=64";
    class       volVectorField;
    location    "0";
    object      U;
}
// * * * * * * * * * * * * * * * * * * * * * * * * * * * * * * * * * * * * * //

dimensions      [0 1 -1 0 0 0 0];

internalField   nonuniform List<vector> 
11644
(
(0.996636 -0.000219006 2.06482e-23)
(0.996528 -0.000570761 5.69416e-23)
(0.996466 -0.000831137 3.05506e-23)
(0.996449 -0.00109642 0)
(0.996442 -0.00137038 0)
(0.996438 -0.00164818 0)
(0.996436 -0.00192129 0)
(0.996432 -0.00217817 0)
(0.996429 -0.00240578 0)
(0.996417 -0.00259275 0)
(0.99642 -0.00271599 0)
(0.996396 -0.00276232 0)
(0.996401 -0.00270443 0)
(0.99655 -0.00254348 0)
(0.996382 -0.00221855 0)
(0.99636 -0.00180886 0)
(0.996277 -0.00128104 0)
(0.996008 -0.000549848 0)
(0.995787 0.000482799 0)
(0.995877 0.00169597 3.39209e-30)
(0.996231 0.00275208 -3.4099e-30)
(0.996558 0.0034587 0)
(0.9966 0.00384606 0)
(0.996475 0.00412397 0)
(0.996407 0.0043462 0)
(0.996457 0.00448341 0)
(0.996645 0.00448284 0)
(0.996468 0.00435985 0)
(0.996409 0.00414604 0)
(0.996435 0.00383973 0)
(0.996456 0.00348397 0)
(0.996449 0.00310717 0)
(0.996453 0.00271363 0)
(0.996453 0.00232547 0)
(0.996453 0.00194859 0)
(0.996454 0.00158949 0)
(0.996458 0.00125118 0)
(0.996476 0.000935231 0)
(0.996545 0.000627286 0)
(0.996654 0.00023486 4.00347e-24)
(0.997387 -0.000450747 2.65224e-23)
(0.997301 -0.00135802 2.45683e-23)
(0.997237 -0.00226013 1.31948e-23)
(0.997219 -0.00314419 0)
(0.997223 -0.00402104 0)
(0.997221 -0.00489611 0)
(0.997204 -0.00575798 0)
(0.997163 -0.00658443 0)
(0.997088 -0.00734368 0)
(0.99698 -0.00799088 0)
(0.996806 -0.00847738 0)
(0.996585 -0.00872801 0)
(0.996247 -0.00868501 0)
(0.995637 -0.00827221 0)
(0.995446 -0.00742142 0)
(0.994969 -0.00610905 -4.50575e-24)
(0.994471 -0.00432327 3.61617e-24)
(0.994024 -0.00222618 -6.69267e-23)
(0.993616 9.25661e-05 9.61933e-23)
(0.993414 0.00265974 1.40063e-22)
(0.99358 0.00542261 -1.38085e-22)
(0.994161 0.00813246 -6.59099e-23)
(0.994974 0.0103811 3.12267e-23)
(0.995594 0.0118053 -3.72739e-24)
(0.996016 0.012609 3.44398e-24)
(0.996381 0.0129536 0)
(0.996596 0.0129629 0)
(0.997149 0.0125644 0)
(0.99742 0.0118668 0)
(0.997523 0.0109689 0)
(0.997575 0.00993027 0)
(0.997596 0.0088082 0)
(0.997567 0.00766972 0)
(0.997521 0.00654085 0)
(0.997465 0.00544431 0)
(0.997409 0.00439004 0)
(0.997365 0.00337697 0)
(0.997352 0.00239152 0)
(0.997389 0.00141696 0)
(0.997455 0.000466331 0)
(0.998922 -0.00071446 0)
(0.99886 -0.00219428 0)
(0.998818 -0.00372017 0)
(0.998815 -0.00525278 0)
(0.998834 -0.00679046 2.42278e-23)
(0.998845 -0.00833837 0)
(0.998824 -0.00988755 0)
(0.998745 -0.0114134 0)
(0.998577 -0.0128684 0)
(0.998275 -0.0141914 0)
(0.997797 -0.015287 0)
(0.997126 -0.0160328 0)
(0.996309 -0.0162755 2.17053e-24)
(0.995516 -0.0158908 -1.5468e-22)
(0.993866 -0.0147503 2.0552e-22)
(0.99254 -0.0128001 4.21106e-22)
(0.991249 -0.0100117 1.84853e-22)
(0.990007 -0.0064503 -5.28534e-22)
(0.989003 -0.00230391 -1.83934e-22)
(0.988484 0.00221437 6.68368e-25)
(0.988637 0.00681405 -3.49912e-22)
(0.989545 0.011303 1.74294e-22)
(0.99119 0.0153578 8.84459e-22)
(0.993237 0.0185056 -7.89082e-22)
(0.99492 0.0203146 1.31732e-22)
(0.996327 0.0210815 -1.22038e-22)
(0.997712 0.0210457 1.25933e-22)
(0.998397 0.020386 -1.66588e-24)
(0.999079 0.0192218 0)
(0.999532 0.0176799 0)
(0.999719 0.015946 0)
(0.999757 0.0141099 0)
(0.999695 0.012246 0)
(0.999569 0.010413 0)
(0.999415 0.00863772 0)
(0.99926 0.00693335 0)
(0.999126 0.00529834 0)
(0.999037 0.00371469 0)
(0.999006 0.00218317 0)
(0.999026 0.000710864 0)
(1.00129 -0.00102077 0)
(1.00125 -0.00309027 0)
(1.00125 -0.00522224 0)
(1.0013 -0.00740367 0)
(1.00137 -0.00964099 0)
(1.00143 -0.0119365 0)
(1.00145 -0.0142864 0)
(1.00137 -0.0166663 0)
(1.00113 -0.0190306 0)
(1.00065 -0.0212956 0)
(0.999885 -0.0233198 -1.03959e-24)
(0.998679 -0.0249277 -8.74489e-23)
(0.996873 -0.0259265 2.31949e-22)
(0.994084 -0.0261474 -1.23576e-22)
(0.991831 -0.025003 1.17969e-22)
(0.988746 -0.022602 7.50789e-22)
(0.9857 -0.0187687 -4.15413e-22)
(0.982936 -0.0135072 -1.29883e-21)
(0.980977 -0.00710857 8.68917e-23)
(0.980217 -0.000117355 7.03561e-22)
(0.980594 0.00706902 -2.23982e-22)
(0.98222 0.0139066 -1.34208e-22)
(0.985032 0.0199663 8.23413e-22)
(0.98883 0.0247259 -1.19655e-21)
(0.992766 0.0279702 8.12525e-22)
(0.995973 0.0293788 -6.03359e-24)
(0.998178 0.0294173 3.83935e-23)
(1.00039 0.0282297 -9.57883e-23)
(1.00168 0.026389 2.05663e-23)
(1.00242 0.0241217 7.47379e-26)
(1.00282 0.0215997 0)
(1.00287 0.01901 0)
(1.00274 0.0164277 0)
(1.00249 0.013918 0)
(1.00219 0.0115123 0)
(1.0019 0.0092197 0)
(1.00164 0.00703098 0)
(1.00145 0.00493705 0)
(1.00135 0.00290366 0)
(1.00133 0.000961972 0)
(1.00448 -0.00130704 0)
(1.00448 -0.00396889 0)
(1.00455 -0.00671558 0)
(1.0047 -0.00954906 0)
(1.0049 -0.012506 0)
(1.00509 -0.0156059 0)
(1.00523 -0.018855 0)
(1.00525 -0.0222458 0)
(1.00504 -0.0257404 0)
(1.00447 -0.0292493 1.00239e-23)
(1.00329 -0.0326306 4.94667e-23)
(1.00129 -0.0356656 -4.12909e-22)
(0.998516 -0.0379533 9.99955e-23)
(0.995504 -0.0389931 -4.88073e-22)
(0.990108 -0.0389148 9.3641e-22)
(0.984636 -0.0365722 -6.97853e-22)
(0.979155 -0.0321253 4.38039e-22)
(0.973924 -0.0254978 1.12985e-21)
(0.969731 -0.0163574 -4.91309e-22)
(0.96746 -0.00533985 -1.63521e-21)
(0.967836 0.00644589 2.39588e-21)
(0.970959 0.0175187 3.766e-22)
(0.976212 0.026589 -1.849e-21)
(0.983265 0.0331265 2.03204e-22)
(0.989503 0.037089 -3.34743e-22)
(0.995379 0.038979 -5.03502e-22)
(1.00055 0.0385563 8.09752e-22)
(1.0033 0.036757 6.22562e-22)
(1.00536 0.0338813 -6.71424e-22)
(1.00645 0.0305209 -3.01094e-25)
(1.00688 0.0270472 1.09367e-23)
(1.00694 0.0235777 0)
(1.00666 0.0202462 0)
(1.00623 0.0170656 0)
(1.00573 0.0140612 0)
(1.00526 0.0112261 0)
(1.00484 0.00854595 0)
(1.00452 0.00599519 0)
(1.00432 0.00355624 0)
(1.00426 0.00115843 0)
(1.00841 -0.00157269 0)
(1.00848 -0.00478625 0)
(1.0087 -0.00807312 0)
(1.00903 -0.0115278 0)
(1.00945 -0.0151882 0)
(1.00991 -0.0191083 0)
(1.01034 -0.02332 0)
(1.01063 -0.0278466 0)
(1.01063 -0.0326619 -4.25793e-23)
(1.01006 -0.0376928 -1.27052e-22)
(1.00865 -0.0427839 9.1863e-23)
(1.00636 -0.0476366 6.01106e-22)
(1.00279 -0.0521108 -6.00832e-22)
(0.996368 -0.0563649 1.21037e-21)
(0.989971 -0.0572731 -3.09882e-21)
(0.981008 -0.0557949 1.88704e-21)
(0.970757 -0.0517791 -1.19512e-21)
(0.960185 -0.0429338 9.64739e-22)
(0.951821 -0.0289538 -4.39977e-23)
(0.947176 -0.01203 -2.63244e-22)
(0.947616 0.00583186 -1.81428e-21)
(0.952921 0.022655 3.40657e-21)
(0.962293 0.0367062 -1.97116e-21)
(0.973635 0.0454502 1.62165e-21)
(0.985397 0.0496994 -2.1117e-21)
(0.995412 0.0514078 2.67725e-21)
(1.00223 0.0503427 -1.39752e-21)
(1.00796 0.046334 -2.25706e-22)
(1.01077 0.0419087 3.1653e-22)
(1.01202 0.0371015 8.93059e-23)
(1.01226 0.0323486 6.03175e-23)
(1.01199 0.0278939 -2.9168e-23)
(1.01146 0.0237337 0)
(1.01073 0.0198915 0)
(1.00996 0.016326 0)
(1.00924 0.0130116 0)
(1.00861 0.00991293 0)
(1.00813 0.00696958 0)
(1.00783 0.00412874 0)
(1.0077 0.00138601 0)
(1.01298 -0.00182045 0)
(1.01316 -0.00543616 0)
(1.01357 -0.00922564 0)
(1.01419 -0.0131947 0)
(1.01498 -0.0174684 0)
(1.01588 -0.0221276 0)
(1.01682 -0.0272669 0)
(1.01766 -0.0329453 -6.20085e-24)
(1.01808 -0.0391453 -6.39436e-23)
(1.01783 -0.0458148 2.18627e-22)
(1.01679 -0.0529667 -3.21972e-22)
(1.01442 -0.0607554 -6.20145e-23)
(1.0102 -0.0687854 5.31217e-22)
(1.00523 -0.0751613 -6.04275e-22)
(0.993245 -0.0817721 -3.14422e-21)
(0.978847 -0.0833625 3.02964e-21)
(0.967495 -0.0718644 2.84809e-21)
(0.951612 -0.0632601 -1.1551e-21)
(0.936766 -0.0459778 -3.19229e-21)
(0.926932 -0.0223027 -3.35715e-21)
(0.925798 0.00436214 -3.01419e-21)
(0.933298 0.0286355 -3.94296e-21)
(0.946797 0.0468644 -1.99975e-21)
(0.962532 0.0574978 1.44158e-21)
(0.983357 0.0704335 -2.58769e-21)
(0.99777 0.0694688 2.02126e-21)
(1.00957 0.063464 1.00726e-21)
(1.01461 0.0579793 -4.36082e-23)
(1.01808 0.050706 -7.79896e-22)
(1.01941 0.0438545 2.89935e-22)
(1.01922 0.0375247 3.90911e-23)
(1.01831 0.0318198 3.35698e-24)
(1.01716 0.026775 2.9687e-24)
(1.016 0.0222798 0)
(1.01484 0.018202 0)
(1.01378 0.0144535 0)
(1.0129 0.0109648 0)
(1.01222 0.00769376 0)
(1.01177 0.00454678 0)
(1.01158 0.00148061 0)
(1.01802 -0.00189554 0)
(1.01833 -0.00583018 0)
(1.019 -0.00990542 0)
(1.02001 -0.0142517 0)
(1.02132 -0.0190008 0)
(1.02287 -0.0242643 0)
(1.0246 -0.0301803 0)
(1.02626 -0.0368338 9.08525e-23)
(1.02744 -0.0442637 3.12898e-23)
(1.02819 -0.0526394 -2.87212e-22)
(1.02826 -0.0622652 -6.16905e-22)
(1.02707 -0.0730504 1.02449e-21)
(1.02365 -0.0847224 -5.68173e-22)
(1.01296 -0.0930014 -6.85685e-22)
(1.00329 -0.100264 5.47008e-22)
(0.986561 -0.108229 -2.48511e-22)
(0.96137 -0.109485 1.13999e-22)
(0.933628 -0.0999911 -7.70149e-22)
(0.904505 -0.0775131 -1.96731e-21)
(0.883323 -0.0402166 -1.79451e-21)
(0.879312 0.00531684 3.07585e-21)
(0.894362 0.0469306 -1.48175e-21)
(0.921925 0.0749755 -3.18392e-21)
(0.95172 0.0883312 -4.4033e-22)
(0.978757 0.0914121 -9.94695e-22)
(0.9995 0.0858727 1.68883e-21)
(1.01255 0.0779349 -8.18773e-22)
(1.0263 0.068382 -1.20638e-22)
(1.0285 0.0590098 1.74339e-22)
(1.02889 0.0501542 1.29069e-23)
(1.02785 0.0421776 1.06132e-22)
(1.026 0.0351993 -1.31311e-22)
(1.02384 0.0292367 3.05812e-23)
(1.02194 0.0241106 0)
(1.02026 0.0196009 0)
(1.01879 0.0155217 0)
(1.01757 0.0117686 0)
(1.01665 0.00825208 0)
(1.01605 0.00491297 0)
(1.01579 0.0016569 0)
(1.02328 -0.00195764 0)
(1.02375 -0.00597149 0)
(1.02473 -0.0100954 0)
(1.02622 -0.0146077 0)
(1.0282 -0.019552 0)
(1.03062 -0.0251334 0)
(1.0334 -0.0315098 6.18795e-24)
(1.03612 -0.0388011 3.92709e-23)
(1.03865 -0.0471886 -3.13953e-22)
(1.04127 -0.0572001 1.50461e-22)
(1.0435 -0.0693709 -9.44631e-23)
(1.04459 -0.0839462 6.00227e-23)
(1.04315 -0.101729 -2.7297e-22)
(1.03124 -0.115941 1.9603e-21)
(1.02009 -0.13064 1.64267e-21)
(1.00028 -0.148087 -9.44508e-22)
(0.968947 -0.153642 7.03467e-22)
(0.921367 -0.152754 2.85673e-21)
(0.868186 -0.128977 -2.2006e-21)
(0.821496 -0.0732066 4.09425e-21)
(0.807269 0.00623813 1.43515e-21)
(0.834648 0.0779879 -2.72432e-21)
(0.885627 0.119917 -4.40141e-22)
(0.940947 0.134013 3.19929e-23)
(0.981277 0.127588 -5.77201e-23)
(1.01363 0.114964 -4.41635e-22)
(1.02814 0.0971096 1.51085e-21)
(1.0419 0.0808744 -1.74887e-22)
(1.04223 0.0657608 -6.03065e-23)
(1.04065 0.0546472 1.55609e-22)
(1.03803 0.045446 -1.90505e-22)
(1.03485 0.0375939 4.69456e-23)
(1.03147 0.0309061 1.1182e-23)
(1.02846 0.0253016 -4.86388e-25)
(1.0261 0.020483 0)
(1.02412 0.0161738 0)
(1.02253 0.0122419 0)
(1.02134 0.00855309 0)
(1.02056 0.00504328 0)
(1.02022 0.00161407 0)
(1.02847 -0.00195957 0)
(1.02911 -0.00568716 0)
(1.03049 -0.00978953 0)
(1.03252 -0.0140908 0)
(1.03526 -0.0189066 0)
(1.03868 -0.024411 0)
(1.04267 -0.0308029 -1.3134e-23)
(1.04678 -0.0382185 1.22725e-23)
(1.05147 -0.0472115 7.7838e-23)
(1.0569 -0.0584963 -7.12991e-24)
(1.06251 -0.0724538 -4.3364e-22)
(1.06761 -0.0898698 5.70665e-22)
(1.07141 -0.11282 -1.53427e-22)
(1.06226 -0.133727 -2.20795e-22)
(1.05437 -0.15853 4.71208e-22)
(1.02956 -0.188723 6.65808e-22)
(0.992331 -0.214186 -1.2441e-22)
(0.927505 -0.240897 -5.10855e-22)
(0.8247 -0.238261 -5.21938e-22)
(0.704268 -0.15956 8.35072e-22)
(0.650995 0.00557952 -1.02237e-21)
(0.721108 0.162227 2.02993e-21)
(0.847338 0.226208 -9.86717e-22)
(0.94758 0.216575 -5.27483e-22)
(1.01256 0.183235 4.75407e-22)
(1.04841 0.146323 -1.18647e-21)
(1.05713 0.111958 6.70096e-23)
(1.06418 0.0859307 1.01647e-22)
(1.05926 0.0682143 6.83917e-23)
(1.05427 0.056005 -9.67399e-23)
(1.04928 0.0462914 -5.59944e-23)
(1.04439 0.0382247 -1.43131e-23)
(1.0397 0.0313773 3.4151e-23)
(1.03543 0.0255828 -3.39367e-24)
(1.0322 0.0206518 0)
(1.02965 0.0162915 0)
(1.02764 0.0123181 0)
(1.02615 0.00864918 0)
(1.02519 0.00513699 0)
(1.02475 0.00177963 0)
(1.03327 -0.0015475 0)
(1.0341 -0.00506733 0)
(1.03576 -0.00855626 0)
(1.03835 -0.0124194 0)
(1.0419 -0.0167925 0)
(1.04644 -0.0218285 0)
(1.05171 -0.0276858 1.38824e-23)
(1.05766 -0.0346883 -3.95985e-23)
(1.06522 -0.0436175 2.46383e-23)
(1.07427 -0.0551808 5.88991e-23)
(1.08444 -0.0698473 3.85968e-23)
(1.09505 -0.088013 -1.2742e-22)
(1.10569 -0.110759 6.32925e-23)
(1.10464 -0.139595 5.36276e-24)
(1.1054 -0.173859 -4.20578e-22)
(1.09509 -0.220199 1.76876e-23)
(1.06843 -0.279835 7.78017e-23)
(1.0082 -0.373084 -1.32007e-22)
(0.843842 -0.479265 -1.02737e-21)
(0.474661 -0.462353 -4.20341e-20)
(0.187312 0.0186773 -2.75852e-20)
(0.505719 0.478565 -1.59742e-20)
(0.877791 0.470511 8.05887e-22)
(1.04247 0.339974 1.47203e-23)
(1.09596 0.233884 -7.3772e-23)
(1.1079 0.157565 9.48268e-24)
(1.09795 0.117105 1.90307e-23)
(1.08992 0.0791354 -5.33539e-23)
(1.07833 0.0642813 -4.9496e-23)
(1.06853 0.0527483 8.4995e-23)
(1.06056 0.0437678 3.25902e-24)
(1.05386 0.0366039 -5.02851e-23)
(1.04793 0.0303806 8.73222e-24)
(1.04254 0.0248613 -6.70533e-24)
(1.03835 0.0200869 0)
(1.03519 0.0158647 0)
(1.03273 0.011992 0)
(1.03094 0.00839547 0)
(1.02979 0.00496269 0)
(1.02926 0.00159395 0)
(1.03738 -0.00141442 0)
(1.03838 -0.00408097 0)
(1.04044 -0.00690176 0)
(1.04359 -0.0100124 0)
(1.04784 -0.0134606 0)
(1.05334 -0.0174625 0)
(1.05987 -0.0221871 1.77097e-23)
(1.06802 -0.0281259 2.0228e-23)
(1.07874 -0.0360144 2.37317e-23)
(1.09168 -0.0463713 5.14267e-24)
(1.10688 -0.0597552 -1.18129e-23)
(1.124 -0.0765684 -2.55636e-23)
(1.1424 -0.0962202 -2.05968e-23)
(1.1493 -0.12749 4.08379e-23)
(1.16705 -0.161781 -1.87302e-22)
(1.17839 -0.213683 1.07406e-22)
(1.1951 -0.286944 -9.436e-23)
(1.22765 -0.417257 9.07763e-22)
(0.896117 -0.475261 -7.4862e-20)
(1.12957 0.59385 1.46896e-20)
(1.28764 0.366323 9.53071e-23)
(1.22473 0.2121 3.44726e-22)
(1.17883 0.12947 3.3996e-23)
(1.14172 0.0957626 1.46596e-23)
(1.11494 0.0615238 -2.43012e-22)
(1.09533 0.0515596 5.99691e-23)
(1.08081 0.0437614 8.38874e-23)
(1.07031 0.0376324 3.83361e-23)
(1.06214 0.0324948 3.48974e-23)
(1.05535 0.0276935 2.57977e-23)
(1.04927 0.0230448 1.37351e-23)
(1.0443 0.0187668 0)
(1.04056 0.0148737 0)
(1.03768 0.0112717 0)
(1.03558 0.00785744 0)
(1.03424 0.00468459 0)
(1.0336 0.00148875 0)
(1.04031 -0.000935729 0)
(1.04154 -0.00273929 0)
(1.04392 -0.00466268 0)
(1.04744 -0.00667633 0)
(1.05224 -0.00889118 0)
(1.05853 -0.01144 0)
(1.06632 -0.0145264 -2.1316e-25)
(1.07672 -0.0187219 -1.29803e-23)
(1.09042 -0.0245534 1.96504e-23)
(1.1069 -0.0321965 -2.53253e-23)
(1.12638 -0.0419533 1.44941e-23)
(1.14903 -0.054372 -2.40089e-23)
(1.17476 -0.0685846 -3.87122e-23)
(1.18893 -0.0965004 -2.02971e-22)
(1.22141 -0.12185 -8.04166e-22)
(1.25049 -0.162546 1.00479e-22)
(1.29808 -0.209117 1.51717e-22)
(1.36715 -0.251302 1.4691e-21)
(0.00606221 0.01833 2.77306e-19)
(0.0813179 0.00582925 -2.32455e-19)
(1.46402 0.163057 -3.98736e-22)
(1.31651 0.104016 6.35397e-23)
(1.22606 0.0624398 -1.14474e-21)
(1.17188 0.051035 -2.27e-21)
(1.12765 0.0335813 -1.23873e-22)
(1.10459 0.0326365 -1.2736e-22)
(1.08831 0.0307735 1.66374e-23)
(1.0767 0.0286984 8.44174e-24)
(1.06801 0.0263448 3.83226e-23)
(1.06116 0.0235456 -7.71428e-25)
(1.05505 0.0202326 3.83255e-24)
(1.04969 0.0167103 0)
(1.04554 0.0133566 0)
(1.04234 0.0102254 0)
(1.03999 0.00726688 0)
(1.03842 0.00432571 0)
(1.03766 0.00162359 0)
(1.04271 -0.000385118 6.39171e-26)
(1.04376 -0.00116398 0)
(1.04605 -0.00195789 0)
(1.04966 -0.00271883 0)
(1.05475 -0.00351074 0)
(1.06149 -0.00432126 0)
(1.07041 -0.00538522 3.90274e-24)
(1.08272 -0.00722904 -2.14044e-23)
(1.09859 -0.0100199 7.79247e-23)
(1.11742 -0.0136983 -1.66182e-22)
(1.13947 -0.0181915 2.37514e-22)
(1.16564 -0.0240941 1.90777e-22)
(1.1955 -0.0304688 -3.52229e-22)
(1.21769 -0.0524065 -4.48899e-23)
(1.25677 -0.0678877 2.5536e-22)
(1.29256 -0.0960647 -4.93605e-22)
(1.33973 -0.12102 -6.36058e-22)
(1.24318 -0.109394 -7.36534e-23)
(-0.0113444 -0.0215 3.5494e-22)
(0.333294 -0.0329608 9.27246e-21)
(1.42843 -0.0497699 -1.12225e-21)
(1.32019 -0.0286771 -1.6232e-22)
(1.22431 -0.0170088 -5.93792e-22)
(1.17269 -0.00103736 1.99964e-21)
(1.12651 0.00390045 5.78145e-23)
(1.10528 0.0131669 -3.91344e-22)
(1.08977 0.0172379 -1.40826e-22)
(1.0788 0.0191406 8.84914e-23)
(1.07087 0.0194613 -6.0795e-23)
(1.06487 0.0186598 8.91805e-24)
(1.05952 0.016795 2.22986e-23)
(1.05431 0.014139 0)
(1.04988 0.0113437 0)
(1.04639 0.00865556 0)
(1.04385 0.00610279 0)
(1.0422 0.00359882 0)
(1.04144 0.00102838 0)
(1.04309 0.000347948 1.40657e-26)
(1.04438 0.000643439 0)
(1.04664 0.00096906 0)
(1.05018 0.00143698 0)
(1.05518 0.00211244 0)
(1.06193 0.00314527 0)
(1.07154 0.00440992 -5.361e-24)
(1.0848 0.00536706 1.84332e-23)
(1.10144 0.00623232 1.73938e-24)
(1.12096 0.00731885 -3.47367e-23)
(1.14374 0.00901116 -5.68751e-23)
(1.17103 0.0106178 3.70809e-22)
(1.20263 0.0132441 -3.70841e-22)
(1.23094 -0.000736175 -4.83857e-22)
(1.27446 -0.00631974 4.37162e-22)
(1.31722 -0.0261469 -6.23263e-22)
(1.36589 -0.0487226 9.73871e-22)
(1.15548 -0.0637409 -2.34735e-22)
(0.149022 -0.178954 -2.24034e-23)
(-0.0993012 -0.302998 -1.44301e-21)
(-0.247952 -0.131784 -2.11765e-22)
(0.05786 -0.0242564 1.11871e-21)
(0.735181 -0.196287 5.73247e-22)
(1.34857 -0.23248 1.72737e-21)
(1.25251 -0.144481 -1.89356e-21)
(1.17532 -0.0791276 1.32776e-22)
(1.14249 -0.0399117 -1.04256e-21)
(1.10728 -0.0140203 -5.80309e-24)
(1.09517 -0.000691501 -2.84705e-22)
(1.08524 0.00694643 -4.58928e-23)
(1.07733 0.0112938 1.76142e-22)
(1.07115 0.0133766 -1.25532e-23)
(1.06652 0.0138905 -1.38397e-23)
(1.06253 0.0131259 -2.10509e-23)
(1.05811 0.0113311 0)
(1.05363 0.00912646 0)
(1.04998 0.00695787 0)
(1.04726 0.00481687 0)
(1.04549 0.00284202 0)
(1.0446 0.000848587 0)
(1.04234 0.000523445 2.78789e-23)
(1.04341 0.00178561 0)
(1.0455 0.0032744 0)
(1.04875 0.00496262 0)
(1.05329 0.00706847 0)
(1.05947 0.00984213 0)
(1.06874 0.013391 -6.39447e-26)
(1.08189 0.0173518 -8.20812e-24)
(1.09782 0.0220849 -5.64632e-23)
(1.11623 0.0281879 1.04619e-23)
(1.13768 0.0363424 2.39623e-22)
(1.16319 0.0460959 -5.08007e-22)
(1.19382 0.059501 4.64229e-22)
(1.22798 0.056597 -6.96375e-23)
(1.27476 0.0651796 1.95362e-21)
(1.33942 0.0715916 -1.7535e-21)
(1.4076 0.0514592 -3.07246e-21)
(1.22495 -0.0151948 -7.95139e-21)
(0.545522 -0.296997 1.90249e-21)
(-0.0275635 -0.57303 1.90593e-20)
(-0.363752 -0.716525 -2.32745e-21)
(0.0718863 -0.695494 -9.29701e-21)
(0.858852 -0.573259 1.69378e-21)
(1.11428 -0.361752 -1.45882e-21)
(1.11279 -0.201769 5.85941e-22)
(1.09274 -0.0955994 7.55857e-22)
(1.09481 -0.0455841 -2.74973e-22)
(1.08269 -0.0112181 -4.4752e-22)
(1.08039 -0.00102782 -7.0498e-23)
(1.07685 0.00423732 -3.1639e-22)
(1.07312 0.00732361 -7.58466e-23)
(1.06987 0.00928699 5.96209e-23)
(1.06686 0.0098863 2.32675e-23)
(1.06441 0.00955593 -1.96178e-25)
(1.06094 0.0083634 0)
(1.05667 0.00680173 0)
(1.05304 0.00529767 0)
(1.05026 0.00380967 0)
(1.04829 0.00235371 0)
(1.04731 0.00107703 -3.75637e-23)
(1.04046 0.000785746 3.35214e-24)
(1.0413 0.00269795 0)
(1.04302 0.00490556 0)
(1.04565 0.00751772 0)
(1.04928 0.0107364 0)
(1.05426 0.0148186 0)
(1.06219 0.0200542 0)
(1.07399 0.0265 8.80451e-24)
(1.08775 0.0347004 2.36117e-23)
(1.10309 0.0453219 1.09521e-22)
(1.12071 0.0594227 -2.14517e-22)
(1.14151 0.0770964 -7.48466e-23)
(1.16689 0.10131 8.30462e-22)
(1.20219 0.131775 -2.07365e-22)
(1.24768 0.144418 -7.14819e-22)
(1.31046 0.181113 1.55909e-21)
(1.40153 0.203189 -3.96239e-21)
(1.41855 0.214194 2.01869e-20)
(0.936757 -0.0125455 -3.7264e-21)
(0.401973 -0.307528 -2.46242e-24)
(-0.127707 -0.630456 3.97232e-21)
(-0.0967525 -0.741865 -1.36817e-20)
(0.494625 -0.527586 -4.35831e-21)
(0.849184 -0.269837 -1.48193e-20)
(0.94786 -0.11052 -5.58824e-22)
(1.01117 -0.0465869 1.07873e-21)
(1.04672 0.00592063 4.68123e-22)
(1.06696 0.0089231 -1.42505e-22)
(1.07261 0.00960208 -1.58153e-22)
(1.07318 0.00926135 1.52172e-22)
(1.07142 0.00824065 -6.44564e-23)
(1.06881 0.00724299 -2.95545e-23)
(1.06689 0.00675831 -1.37572e-23)
(1.06565 0.00612153 0)
(1.0627 0.0051315 0)
(1.05853 0.00412167 0)
(1.05487 0.0032156 0)
(1.05214 0.00231418 0)
(1.0504 0.00136132 0)
(1.04957 0.000330055 3.56852e-23)
(1.03786 0.00104982 3.37147e-24)
(1.03834 0.00326343 0)
(1.0395 0.0058521 0)
(1.04133 0.00887355 0)
(1.04382 0.0126078 0)
(1.04727 0.0172858 0)
(1.05321 0.0233565 0)
(1.06252 0.0311983 0)
(1.07286 0.0416626 -8.47024e-24)
(1.08345 0.0554807 8.60446e-23)
(1.09494 0.0740227 -1.23474e-22)
(1.10783 0.0977951 1.33301e-22)
(1.12291 0.129493 -1.63617e-22)
(1.14317 0.173432 3.92656e-23)
(1.18482 0.208475 -1.78217e-22)
(1.22823 0.273581 -3.58068e-22)
(1.29291 0.342975 -1.70275e-21)
(1.38707 0.467348 -5.19836e-21)
(1.23438 0.494621 -1.08934e-20)
(0.789227 0.34676 5.58529e-21)
(0.283425 0.0764511 3.06911e-21)
(0.00297867 -0.198917 2.21576e-21)
(0.170002 -0.270368 3.75992e-21)
(0.59746 -0.0832601 6.30171e-20)
(0.871005 0.0591566 -6.06983e-22)
(0.977971 0.0545567 5.26001e-22)
(1.05207 0.0585571 2.40008e-22)
(1.07151 0.0348225 9.00079e-23)
(1.07733 0.0241321 -5.8152e-23)
(1.0769 0.0158304 -2.06575e-23)
(1.07395 0.010108 -3.31494e-23)
(1.07064 0.00634751 6.26841e-24)
(1.06837 0.00401518 0)
(1.0669 0.00250158 0)
(1.06375 0.00160045 0)
(1.05945 0.0010698 0)
(1.05568 0.000678436 3.82447e-23)
(1.05289 0.000323466 5.28899e-23)
(1.05104 8.99586e-05 3.15388e-23)
(1.0499 -0.000113956 0)
(1.03479 0.00111079 0)
(1.03501 0.00340539 0)
(1.03562 0.0059307 0)
(1.0366 0.00885941 0)
(1.0379 0.0124847 0)
(1.03973 0.0169728 0)
(1.04332 0.0229299 0)
(1.04922 0.0311678 0)
(1.05508 0.0424503 -6.96619e-26)
(1.05978 0.0574786 -2.25647e-24)
(1.06355 0.077637 -8.18098e-24)
(1.06621 0.103959 -8.82073e-23)
(1.0689 0.13782 2.16969e-22)
(1.07034 0.185908 -6.42995e-23)
(1.09633 0.235498 1.9687e-21)
(1.10885 0.308633 -6.8815e-22)
(1.13867 0.394211 1.64138e-21)
(1.1487 0.537033 2.76949e-21)
(1.1141 0.74027 6.71487e-22)
(0.929569 0.837107 3.95112e-21)
(0.639463 0.746169 6.01063e-21)
(0.382624 0.502835 6.5797e-21)
(0.30567 0.244168 -1.46518e-21)
(0.392335 0.142685 -3.99748e-22)
(0.885021 0.231019 2.01431e-22)
(1.03281 0.155628 2.26463e-21)
(1.09746 0.0887018 -1.38246e-22)
(1.10127 0.0526393 1.47801e-22)
(1.09621 0.0322064 1.15219e-22)
(1.08857 0.0178532 -3.73498e-23)
(1.08124 0.0090601 -2.90773e-25)
(1.07514 0.00344967 -5.72782e-26)
(1.07113 -4.13022e-05 0)
(1.06826 -0.00196694 0)
(1.0642 -0.0024864 0)
(1.05955 -0.00240014 0)
(1.05563 -0.00210554 0)
(1.05268 -0.00165733 0)
(1.05062 -0.000983585 0)
(1.04938 -0.000285896 -5.68018e-24)
(1.03174 0.000986558 0)
(1.03175 0.0029981 0)
(1.03195 0.00508556 0)
(1.03223 0.00745575 0)
(1.03247 0.0103462 0)
(1.03271 0.0139095 0)
(1.03362 0.018778 0)
(1.03544 0.0261006 0)
(1.03626 0.0365457 0)
(1.03505 0.0504466 0)
(1.0312 0.068903 -4.44571e-24)
(1.02375 0.0933224 -3.76533e-23)
(1.0133 0.124148 9.6067e-23)
(0.998071 0.17042 -5.10398e-23)
(1.00195 0.221535 1.32613e-20)
(0.989746 0.288176 -3.86593e-23)
(0.992346 0.384697 3.7511e-21)
(0.940539 0.483776 -3.48542e-21)
(0.898302 0.589831 -8.27764e-22)
(0.840596 0.697728 -1.1183e-20)
(0.739897 0.753945 -8.39832e-21)
(0.631684 0.722698 -9.96552e-21)
(0.549527 0.618006 1.80148e-21)
(0.532026 0.457181 1.14524e-21)
(0.963552 0.293281 2.32063e-21)
(1.16161 0.182544 7.54008e-22)
(1.16842 0.0742883 -3.39259e-23)
(1.14532 0.044372 6.62599e-23)
(1.1228 0.0227823 -5.16036e-23)
(1.10518 0.0092166 6.78514e-24)
(1.09154 0.00113645 0)
(1.08142 -0.00398836 0)
(1.07446 -0.00691269 0)
(1.06918 -0.00788816 0)
(1.06371 -0.0072577 0)
(1.05854 -0.00612396 0)
(1.05442 -0.00483145 0)
(1.05137 -0.00343155 0)
(1.0493 -0.00198011 0)
(1.04815 -0.000585957 0)
(1.02914 0.000643684 0)
(1.02911 0.0019315 0)
(1.02912 0.00326305 0)
(1.02901 0.00473276 0)
(1.02859 0.00643322 0)
(1.02761 0.00848525 0)
(1.02609 0.0113492 0)
(1.02408 0.0161745 0)
(1.02045 0.0235801 0)
(1.0142 0.0336034 0)
(1.0039 0.047023 0)
(0.988008 0.0648824 -6.80972e-25)
(0.965005 0.0879508 1.3309e-23)
(0.935369 0.123808 -8.60848e-23)
(0.920897 0.175006 4.42552e-21)
(0.876259 0.231473 1.27099e-21)
(0.856518 0.321132 3.77018e-21)
(0.827984 0.413523 -1.04898e-21)
(0.758451 0.524018 -1.26204e-21)
(0.698207 0.645882 3.32414e-22)
(0.664238 0.738663 8.4363e-22)
(0.664039 0.757915 -5.00948e-21)
(0.701753 0.679315 -1.84433e-21)
(0.823537 0.492732 -1.87291e-21)
(1.18632 0.210003 7.98347e-22)
(1.29112 0.10116 3.87685e-22)
(1.22743 0.0110505 -5.32813e-22)
(1.1794 0.00291936 1.852e-23)
(1.14316 -0.00785965 -1.59131e-24)
(1.11794 -0.0127844 0)
(1.09925 -0.0154779 0)
(1.08571 -0.0168331 0)
(1.07589 -0.0167306 0)
(1.0682 -0.0151526 0)
(1.0615 -0.0125725 0)
(1.056 -0.00999056 0)
(1.05183 -0.00754727 0)
(1.04885 -0.00523676 0)
(1.04692 -0.00305562 0)
(1.04596 -0.000980357 0)
(1.02786 0.000171727 0)
(1.02785 0.000599706 0)
(1.02783 0.000995307 0)
(1.02762 0.00136774 0)
(1.02699 0.00168017 0)
(1.02552 0.001919 0)
(1.02262 0.00226274 0)
(1.01819 0.00344558 0)
(1.01173 0.00590106 0)
(1.00234 0.00939296 0)
(0.988055 0.0143066 2.75266e-23)
(0.966305 0.0209684 0)
(0.934534 0.0312311 0)
(0.894852 0.04777 1.08237e-21)
(0.846538 0.0787958 5.87918e-21)
(0.791115 0.132848 7.34781e-21)
(0.69725 0.202966 -2.6163e-22)
(0.603259 0.3285 6.21951e-23)
(0.539491 0.447388 -6.77882e-22)
(0.548424 0.526274 4.0774e-22)
(0.657616 0.536966 1.57773e-21)
(0.809326 0.454598 -2.09241e-21)
(0.996984 0.293853 -1.11947e-21)
(1.19851 0.104196 8.78576e-22)
(1.37002 -0.0291402 1.61231e-24)
(1.3327 -0.0961626 -2.08595e-22)
(1.2375 -0.075275 -3.80311e-23)
(1.18177 -0.0583496 0)
(1.14447 -0.0503617 0)
(1.11782 -0.0424844 5.81058e-23)
(1.09816 -0.0368131 0)
(1.0836 -0.0321077 0)
(1.07248 -0.0274427 0)
(1.06369 -0.0225761 0)
(1.05679 -0.0177838 0)
(1.05161 -0.0136293 0)
(1.04782 -0.0100238 0)
(1.04515 -0.00686585 -6.2944e-24)
(1.04346 -0.00399917 -4.51567e-24)
(1.04267 -0.00131474 0)
(1.02791 -0.00012268 0)
(1.02795 -0.000425897 0)
(1.028 -0.000897788 0)
(1.02799 -0.00158734 0)
(1.02771 -0.00265689 0)
(1.02662 -0.0042405 0)
(1.02375 -0.00642856 0)
(1.01891 -0.0090586 0)
(1.01215 -0.0121878 0)
(1.00268 -0.0164171 0)
(0.988275 -0.022357 1.68048e-22)
(0.965448 -0.0310397 0)
(0.928474 -0.040081 0)
(0.874939 -0.046231 -1.59814e-21)
(0.79491 -0.0433995 -2.30513e-20)
(0.687311 -0.0162511 -3.85987e-21)
(0.58532 -0.0396712 0)
(0.545085 -0.106121 1.17074e-22)
(0.56252 -0.196646 -1.6508e-21)
(0.666847 -0.284037 -2.19585e-21)
(0.851729 -0.360675 -2.5147e-21)
(1.0472 -0.394406 2.12852e-20)
(1.22085 -0.416905 -1.82559e-21)
(1.32968 -0.382866 0)
(1.33852 -0.301851 2.21592e-22)
(1.2588 -0.210436 -2.07888e-21)
(1.19138 -0.149968 -4.32235e-22)
(1.15026 -0.11371 0)
(1.12307 -0.0881203 0)
(1.1021 -0.0690551 2.16247e-23)
(1.08615 -0.0553422 0)
(1.07365 -0.0448303 0)
(1.06349 -0.0360544 0)
(1.05536 -0.0284843 0)
(1.04947 -0.0219123 0)
(1.0454 -0.016452 1.13874e-23)
(1.04251 -0.0118729 -1.47978e-23)
(1.0405 -0.00798193 0)
(1.03923 -0.00457578 0)
(1.03861 -0.00142495 -3.47743e-23)
(1.02855 -0.000229594 0)
(1.02886 -0.000981022 0)
(1.02929 -0.00202581 0)
(1.02986 -0.00348814 0)
(1.03045 -0.00558125 0)
(1.03051 -0.00856558 0)
(1.02897 -0.012773 -5.5993e-24)
(1.02576 -0.0185072 0)
(1.02163 -0.0264476 0)
(1.01615 -0.03774 0)
(1.00726 -0.054096 0)
(0.991717 -0.0790624 0)
(0.958035 -0.11156 0)
(0.886451 -0.150854 9.61756e-21)
(0.799122 -0.183251 1.48595e-22)
(0.738216 -0.212793 -1.3502e-22)
(0.720526 -0.307176 0)
(0.710684 -0.409382 0)
(0.718003 -0.504696 -2.31582e-21)
(0.772649 -0.579231 -3.77656e-20)
(0.89659 -0.619711 1.08057e-20)
(1.02532 -0.61067 9.59021e-22)
(1.12847 -0.563803 0)
(1.17876 -0.469467 0)
(1.1705 -0.353143 0)
(1.13662 -0.255768 1.60063e-25)
(1.11493 -0.189581 -1.20824e-22)
(1.09773 -0.144046 -6.82077e-24)
(1.08547 -0.109348 0)
(1.07479 -0.0841876 0)
(1.06579 -0.0654445 0)
(1.05783 -0.0513397 0)
(1.05057 -0.0402115 4.99717e-23)
(1.04447 -0.0312521 2.04784e-23)
(1.04037 -0.023839 1.03168e-24)
(1.03789 -0.0177946 0)
(1.03623 -0.012791 0)
(1.03512 -0.00854461 0)
(1.03452 -0.00487003 0)
(1.03431 -0.00152025 0)
(1.02948 -0.000334435 0)
(1.03021 -0.00119537 0)
(1.03123 -0.00236195 0)
(1.03263 -0.00403147 0)
(1.03443 -0.00645426 0)
(1.03622 -0.00997482 0)
(1.03705 -0.0151295 0)
(1.03712 -0.0225309 0)
(1.03809 -0.0331661 1.38146e-23)
(1.04031 -0.0485309 0)
(1.04272 -0.0706872 0)
(1.04298 -0.104709 0)
(1.02611 -0.151532 -1.17048e-21)
(0.961142 -0.216813 -2.18868e-21)
(0.876232 -0.291878 0)
(0.842435 -0.369435 0)
(0.840599 -0.456808 0)
(0.812369 -0.522118 0)
(0.803331 -0.570449 3.6005e-22)
(0.814372 -0.60623 4.88294e-21)
(0.875312 -0.606024 2.20941e-20)
(0.94325 -0.564197 -8.22401e-21)
(0.999052 -0.493842 0)
(1.02349 -0.404274 0)
(1.02846 -0.314598 0)
(1.03224 -0.24508 0)
(1.03746 -0.19029 -1.87941e-21)
(1.04034 -0.145917 -6.73268e-22)
(1.04275 -0.111403 0)
(1.04297 -0.08534 -1.4321e-24)
(1.04183 -0.0654264 -2.2627e-24)
(1.03957 -0.0504058 2.01205e-24)
(1.03629 -0.038814 0)
(1.03299 -0.0298106 0)
(1.03104 -0.0226761 0)
(1.03025 -0.0170066 0)
(1.02982 -0.0123547 0)
(1.02957 -0.0084048 0)
(1.02959 -0.00489763 0)
(1.02982 -0.00172127 0)
(1.03059 -0.000300708 0)
(1.03155 -0.000976284 0)
(1.03309 -0.00182565 0)
(1.03534 -0.00311916 0)
(1.03843 -0.00508769 0)
(1.04218 -0.00806675 0)
(1.04595 -0.0126595 0)
(1.05013 -0.019647 0)
(1.057 -0.0298431 0)
(1.06799 -0.0444403 0)
(1.08378 -0.0650555 -1.46583e-24)
(1.10335 -0.0960994 -1.52433e-22)
(1.11449 -0.140454 1.20592e-21)
(1.07808 -0.211293 1.19059e-22)
(1.00316 -0.310282 0)
(0.951166 -0.405347 0)
(0.909282 -0.483027 0)
(0.853536 -0.534636 0)
(0.826285 -0.565101 -2.93689e-20)
(0.809701 -0.581375 4.42381e-20)
(0.821977 -0.564201 9.34691e-22)
(0.848702 -0.5006 6.86089e-22)
(0.884127 -0.426625 0)
(0.910911 -0.344791 0)
(0.935333 -0.272542 0)
(0.960251 -0.216304 0)
(0.975957 -0.168013 3.00802e-21)
(0.989262 -0.128641 -1.29441e-21)
(1.00277 -0.0983033 -5.03016e-22)
(1.01224 -0.0742959 1.98424e-23)