/*--------------------------------*- C++ -*----------------------------------*\
| =========                 |                                                 |
| \\      /  F ield         | OpenFOAM: The Open Source CFD Toolbox           |
|  \\    /   O peration     | Version:  v2106                                 |
|   \\  /    A nd           | Website:  www.openfoam.com                      |
|    \\/     M anipulation  |                                                 |
\*---------------------------------------------------------------------------*/
FoamFile
{
    version     2.0;
    format      ascii;
    arch        "LSB;label=32;scalar=64";
    class       volScalarField;
    location    "0";
    object      p;
}
// * * * * * * * * * * * * * * * * * * * * * * * * * * * * * * * * * * * * * //

dimensions      [0 2 -2 0 0 0 0];

internalField   nonuniform List<scalar> 
11644
(
0.0171258
0.0159546
0.0132937
0.00906199
0.00327169
-0.0042231
-0.0134915
-0.0245115
-0.037109
-0.0509252
-0.0655047
-0.0802205
-0.094464
-0.107339
-0.117881
-0.125095
-0.128791
-0.13068
-0.132866
-0.132444
-0.127504
-0.118789
-0.109589
-0.101598
-0.0931646
-0.0843951
-0.0746457
-0.0646253
-0.0548655
-0.0455236
-0.0368812
-0.0292254
-0.0227366
-0.0173469
-0.0129827
-0.00961249
-0.00713586
-0.00540632
-0.00432785
-0.00390234
0.0188871
0.0178736
0.015491
0.0116336
0.00623376
-0.000745899
-0.00937821
-0.0197223
-0.0316955
-0.0451377
-0.0598427
-0.0751662
-0.0906606
-0.105389
-0.118051
-0.127227
-0.134769
-0.139288
-0.140733
-0.138773
-0.132935
-0.12417
-0.112531
-0.102186
-0.0913359
-0.0799748
-0.0684507
-0.0574475
-0.0471512
-0.0380561
-0.0303234
-0.0237447
-0.0182517
-0.0137418
-0.0101914
-0.00746541
-0.00550002
-0.00420713
-0.00354823
-0.0034035
0.0225261
0.0215554
0.0194202
0.016052
0.01125
0.00515876
-0.00223418
-0.0110453
-0.0215157
-0.0337745
-0.047843
-0.0638194
-0.081216
-0.0996546
-0.117689
-0.132499
-0.143573
-0.152895
-0.157626
-0.156348
-0.148054
-0.136062
-0.119611
-0.102735
-0.0858941
-0.0689509
-0.0532638
-0.0405637
-0.0307954
-0.0233263
-0.017654
-0.013373
-0.0099795
-0.00738592
-0.00551318
-0.0041533
-0.0032297
-0.00267952
-0.0025472
-0.00259687
0.027741
0.0265437
0.024392
0.0212176
0.0170533
0.0118866
0.00568094
-0.0017115
-0.010612
-0.0216067
-0.0355799
-0.0522279
-0.0709751
-0.0908732
-0.113346
-0.134206
-0.148044
-0.169326
-0.18096
-0.181966
-0.172249
-0.156021
-0.132857
-0.105568
-0.0812877
-0.057582
-0.0367422
-0.0215985
-0.0122435
-0.00731424
-0.00446308
-0.0026194
-0.00173237
-0.00146373
-0.00147438
-0.00165318
-0.00186721
-0.00204659
-0.0021105
-0.00226012
0.0350414
0.0336093
0.0309267
0.0274986
0.0233663
0.0184104
0.012528
0.00548008
-0.00311022
-0.0139943
-0.0271388
-0.0417549
-0.057505
-0.076632
-0.101629
-0.130314
-0.148704
-0.18814
-0.205616
-0.216304
-0.205661
-0.187493
-0.155625
-0.115979
-0.0834229
-0.0543094
-0.0297314
-0.011811
-0.00125046
0.00382352
0.00480829
0.00400512
0.00268488
0.00118796
-0.000139508
-0.00119611
-0.00186629
-0.0020735
-0.00192386
-0.00160259
0.0450898
0.0432164
0.0400637
0.0359955
0.0309682
0.024972
0.0178904
0.00948905
-0.000398568
-0.0109972
-0.0208368
-0.0300958
-0.041566
-0.0553922
-0.0811023
-0.124401
-0.162967
-0.201697
-0.227709
-0.249754
-0.244778
-0.221143
-0.180466
-0.132866
-0.0891189
-0.0579165
-0.0311945
-0.0147374
-0.00376767
0.00311933
0.00553388
0.00391663
0.00116858
-0.000921874
-0.00217461
-0.00268958
-0.00270755
-0.00228249
-0.00161289
-0.00125072
0.0578017
0.0557792
0.0521878
0.0469809
0.0404373
0.0324693
0.0230624
0.0122943
0.00118774
-0.00783893
-0.0145843
-0.0235446
-0.0330805
-0.0405085
-0.063676
-0.101358
-0.166329
-0.183784
-0.211033
-0.246367
-0.259667
-0.243002
-0.204221
-0.164572
-0.101551
-0.0635162
-0.0398153
-0.0305918
-0.0217296
-0.0124403
-0.00678559
-0.00528376
-0.00639789
-0.00709375
-0.00662036
-0.0054778
-0.00416133
-0.003017
-0.00187111
-0.000889495
0.0724456
0.0706442
0.066609
0.0608825
0.0530514
0.0432505
0.031574
0.0185334
0.00631912
-0.00397048
-0.0133438
-0.022391
-0.0404726
-0.0446192
-0.0697986
-0.0791443
-0.123609
-0.187214
-0.241063
-0.281333
-0.297053
-0.287648
-0.256987
-0.211333
-0.166645
-0.0867241
-0.0809239
-0.063767
-0.0470105
-0.0389123
-0.0316564
-0.0246114
-0.0196842
-0.0163689
-0.0127639
-0.00914203
-0.00588046
-0.00326971
-0.00158435
-0.000686569
0.0913168
0.0885009
0.0843483
0.0780863
0.0696885
0.0591798
0.0463121
0.0317029
0.0170656
0.00190641
-0.0135853
-0.0279318
-0.0423416
-0.0551844
-0.0738158
-0.111201
-0.120926
-0.194337
-0.265697
-0.34924
-0.410995
-0.40975
-0.358448
-0.313869
-0.210741
-0.194538
-0.13761
-0.106123
-0.0846584
-0.0706056
-0.0590387
-0.0468729
-0.0349789
-0.0260009
-0.0184507
-0.0119183
-0.00679968
-0.00322147
-0.000831399
0.000233552
0.112236
0.111015
0.106981
0.100887
0.0931036
0.0830847
0.0702622
0.0553516
0.0386615
0.0186947
-0.00137615
-0.0139351
-0.0201672
-0.0186191
-0.0290196
-0.0577448
-0.0837862
-0.130144
-0.234108
-0.422093
-0.586734
-0.607091
-0.502917
-0.38446
-0.287249
-0.220214
-0.168047
-0.141386
-0.115727
-0.0952971
-0.0780971
-0.060915
-0.0443903
-0.0312349
-0.0206301
-0.0118355
-0.00510143
-0.000326465
0.00248258
0.00439142
0.140158
0.137619
0.134837
0.130695
0.124812
0.116978
0.106928
0.0948809
0.0802269
0.0634478
0.0465251
0.0381794
0.0410049
0.0459272
0.0576053
0.0859699
0.0987608
0.108805
0.0422399
-0.296515
-0.858772
-0.875712
-0.590973
-0.375761
-0.242546
-0.169077
-0.156464
-0.130653
-0.115923
-0.098916
-0.0773018
-0.0577639
-0.0409327
-0.0261225
-0.0141443
-0.00448422
0.00311887
0.00872581
0.0124839
0.0131579
0.170239
0.171281
0.170911
0.169712
0.167689
0.16471
0.160909
0.156607
0.150517
0.145954
0.143115
0.14103
0.145113
0.147507
0.167261
0.195081
0.262601
0.426899
0.889384
-0.209407
-0.167566
-0.121179
-0.091457
-0.102655
-0.0728925
-0.0745246
-0.0608307
-0.0450467
-0.0321882
-0.0194545
-0.00589785
0.00502156
0.013387
0.0200807
0.0254211
0.0292487
0.0312401
0.206927
0.209996
0.214942
0.219518
0.223852
0.228291
0.234352
0.242919
0.252448
0.263513
0.278828
0.286714
0.292962
0.281175
0.316958
0.324003
0.350931
0.396548
0.44831
-0.0459101
0.0795104
0.100992
0.0738435
0.0437724
0.0189784
0.0120891
0.0148765
0.0136778
0.0161938
0.0222228
0.0310038
0.038567
0.0441092
0.0487842
0.0530241
0.0567173
0.0595505
0.25735
0.262388
0.269572
0.278702
0.29016
0.304156
0.322413
0.34876
0.378141
0.409081
0.445744
0.466012
0.480647
0.484254
0.506061
0.458684
0.38656
0.222061
0.136352
0.171382
0.380008
0.344869
0.294192
0.234
0.159336
0.139057
0.117684
0.0928604
0.087837
0.0840794
0.0845319
0.0868465
0.0887676
0.090596
0.0919731
0.0935359
0.0970538
0.324448
0.323821
0.33031
0.341419
0.35861
0.38196
0.413512
0.454194
0.498193
0.55184
0.598672
0.649413
0.66878
0.643615
0.642908
0.59697
0.534109
0.327067
0.128075
0.738289
-0.00661484
-0.171768
0.464219
0.818047
0.530487
0.373594
0.327047
0.300138
0.278975
0.23538
0.193625
0.178153
0.160712
0.15136
0.144971
0.140899
0.138369
0.135721
0.133581
0.13273
0.372962
0.370434
0.377451
0.390302
0.410825
0.437332
0.474789
0.520355
0.573798
0.63097
0.688994
0.746455
0.777778
0.752184
0.787326
0.846483
0.867596
1.0599
1.42319
0.829795
-0.485367
0.679767
1.26055
0.74589
0.432886
0.308981
0.272679
0.296436
0.308725
0.296312
0.273674
0.253478
0.231939
0.217441
0.202016
0.191205
0.18373
0.17783
0.17166
0.166115
0.371065
0.381819
0.389654
0.402155
0.42162
0.448806
0.48499
0.529167
0.579313
0.628447
0.676485
0.733687
0.802538
0.844281
0.905424
0.999096
1.10524
1.5474
1.94796
1.64206
1.30884
1.21123
0.517149
-0.0772987
0.0800149
0.172743
0.20493
0.233028
0.247852
0.269981
0.290821
0.286059
0.273455
0.254743
0.238467
0.225414
0.214805
0.207326
0.200884
0.196673
0.356049
0.362616
0.370828
0.383571
0.402002
0.424975
0.451395
0.481438
0.513296
0.545904
0.580398
0.639307
0.712872
0.805256
0.934282
1.09934
1.35085
1.04357
1.18253
1.84198
1.07696
0.088851
-1.41902
-1.04585
-0.0744594
0.118938
0.210647
0.1863
0.203662
0.236965
0.254337
0.263651
0.264644
0.255333
0.245282
0.234725
0.225595
0.218003
0.214077
0.211293
0.34249
0.343085
0.34795
0.35715
0.369224
0.383184
0.398393
0.412279
0.423881
0.441855
0.464335
0.496523
0.527922
0.597535
0.735539
0.841094
1.21903
1.58626
0.436209
-0.550254
-1.44013
-2.33481
-2.01614
-0.583295
0.0261707
0.176805
0.212944
0.25668
0.238506
0.234709
0.235843
0.239461
0.241079
0.240614
0.235242
0.229298
0.224034
0.219374
0.216025
0.213105
0.323598
0.323006
0.324534
0.327589
0.331385
0.333199
0.338716
0.344857
0.351647
0.359963
0.362369
0.373992
0.365938
0.353926
0.428567
0.4528
0.460709
0.750771
0.714845
-0.465155
-1.24664
-1.28562
-0.641218
-0.324168
0.0318488
0.226536
0.342445
0.32011
0.309036
0.275294
0.259904
0.248368
0.237831
0.230859
0.22582
0.22161
0.217778
0.214846
0.212478
0.210867
0.298765
0.298738
0.299369
0.298421
0.296359
0.2929
0.288966
0.285292
0.284081
0.280828
0.266324
0.239168
0.175703
0.101738
0.0944477
-0.00430651
-0.296024
-1.06225
-1.26686
-1.14829
-0.996035
-0.923446
-0.921342
-0.651069
-0.0525786
0.192337
0.345152
0.344782
0.329257
0.301958
0.278542
0.255941
0.236605
0.22699
0.22093
0.216479
0.213062
0.210695
0.209618
0.209994
0.278903
0.279635
0.279653
0.277922
0.272722
0.267806
0.26041
0.249128
0.238735
0.220372
0.200287
0.157285
0.0720009
-0.0693548
-0.273046
-0.270209
-0.24772
-0.520456
-0.904521
-1.31704
-1.33125
-0.924891
-0.444181
-0.142525
0.147722
0.186443
0.278908
0.326789
0.318826
0.29596
0.272811
0.250872
0.232935
0.222779
0.216201
0.211933
0.209598
0.208667
0.208403
0.207904
0.268048
0.267514
0.266039
0.263988
0.260767
0.25641
0.250774
0.240632
0.226454
0.201774
0.174205
0.149045
0.0597534
-0.186148
-0.368694
-0.85265
-0.826225
-0.658123
-0.143333
-0.280314
0.403393
0.408827
0.034343
0.0549223
0.0301346
0.246918
0.305377
0.331953
0.299778
0.265869
0.252217
0.235234
0.223914
0.215057
0.208902
0.204144
0.201479
0.20078
0.201166
0.201321
0.25848
0.257862
0.257142
0.255745
0.253583
0.249164
0.245636
0.241334
0.232059
0.216328
0.187855
0.164576
0.109471
-0.165876
-0.322462
-0.706609
-1.14817
-1.50865
-1.91464
-1.93806
-1.04747
-0.859111
-0.400503
0.14292
0.415567
0.527661
0.350086
0.299428
0.268916
0.244115
0.229754
0.214701
0.208006
0.201781
0.19842
0.195099
0.192592
0.191145
0.190252
0.190692
0.250602
0.251496
0.249984
0.247835
0.245899
0.244231
0.242863
0.242464
0.234386
0.22917
0.210191
0.180254
0.140665
-0.120161
-0.525592
-0.775126
-1.01235
-0.843467
-0.881732
-0.627248
0.088404
0.498558
0.654709
0.519708
0.285525
0.174174
0.247637
0.295001
0.256793
0.233281
0.215494
0.201373
0.195062
0.192996
0.191825
0.190743
0.189078
0.188819
0.187974
0.187155
0.236688
0.236985
0.237636
0.238315
0.238759
0.239695
0.23958
0.239856
0.235415
0.233125
0.225606
0.186305
0.124433
0.0829325
-0.122958
-0.524177
-0.934259
-1.02891
-0.693111
-0.409561
0.386756
0.550147
0.305931
0.21148
0.251879
0.312488
0.333135
0.280679
0.264372
0.221509
0.209052
0.202554
0.197841
0.195059
0.191753
0.190096
0.188984
0.186905
0.18628
0.185566
0.222166
0.221632
0.222898
0.223867
0.225533
0.225693
0.223593
0.227285
0.221576
0.214062
0.196881
0.18076
0.138143
0.0834745
0.033541
-0.186485
-0.88627
-1.27062
-1.68911
-1.37065
-0.694175
-0.51935
-0.0504569
0.110564
0.585598
0.464865
0.291578
0.213625
0.208963
0.201119
0.201787
0.202288
0.196353
0.192736
0.18888
0.186575
0.185121
0.18316
0.182716
0.182949
0.215084
0.215985
0.215072
0.213904
0.212465
0.210986
0.208487
0.205699
0.199848
0.186259
0.165851
0.113388
0.0378706
-0.111434
-0.341334
-0.438964
-0.645707
-0.724195
-1.08793
-0.721219
-0.0520946
0.273066
0.483063
0.401879
0.224989
0.05158
0.0766659
0.114758
0.150358
0.184717
0.192668
0.191538
0.189
0.187095
0.185581
0.184468
0.183691
0.183403
0.184087
0.185003
0.206598
0.20711
0.20703
0.206628
0.204741
0.202551
0.1991
0.19329
0.182666
0.159128
0.138183
0.0948641
-0.0122677
-0.121021
-0.325665
-0.564262
-0.783343
-0.888136
-0.899204
-0.518576
0.251246
0.270782
0.154532
0.0126112
-0.0399929
0.0010741
0.0428674
0.103278
0.14696
0.193739
0.196372
0.193832
0.193397
0.192656
0.191246
0.189865
0.188033
0.186883
0.185828
0.185289
0.197184
0.194931
0.19511
0.195479
0.194752
0.193581
0.190499
0.186929
0.177213
0.15898
0.134945
0.140589
0.101346
0.0224764
-0.198742
-0.550493
-0.915151
-1.08672
-1.13397
-1.0306
-0.434962
-0.507133
-0.556783
-0.547408
-0.286593
-0.0753368
0.0506364
0.124074
0.155373
0.197657
0.20392
0.201972
0.202173
0.197129
0.194977
0.192717
0.190489
0.188201
0.186186
0.18507
0.189871
0.189029
0.187876
0.186866
0.185416
0.185004
0.184294
0.183583
0.17938
0.174709
0.159464
0.151202
0.11493
0.0892437
0.0566706
-0.0525398
-0.261185
-0.421986
-0.692219
-0.748347
-0.595804
-0.563258
-0.499249
-0.39269
-0.193927
-0.11092
-0.0578832
0.0403828
0.113875
0.159057
0.192183
0.199242
0.198419
0.195255
0.191949
0.189889
0.188775
0.188164
0.187695
0.186136
0.183993
0.183799
0.184127
0.184208
0.18425
0.185035
0.186021
0.187438
0.192596
0.201991
0.199449
0.193278
0.141761
0.0583841
0.0109271
-0.0142708
0.0227737
-0.0513566
-0.149874
-0.215369
-0.245295
-0.352343
-0.445643
-0.360231
-0.312536
-0.254479
-0.132156
-0.0052406
0.0920879
0.146411
0.173938
0.184434
0.188603
0.190576
0.190482
0.189949
0.188421
0.185394
0.182774
0.183206
0.177042
0.176882
0.177126
0.178329
0.179845
0.182242
0.185877
0.189257
0.194686
0.200459
0.218218
0.213276
0.212571
0.163139
-0.00639905
-0.195429
-0.322513
-0.410288
-0.481621
-0.577347
-0.608172
-0.73294
-0.928655
-0.795693
-0.603015
-0.31274
-0.048055
0.0767796
0.0947118
0.131362
0.150984
0.167222
0.177885
0.182711
0.184538
0.184404
0.183252
0.181761
0.180938
0.180572
0.166394
0.165845
0.165489
0.166379
0.167923
0.169308
0.172577
0.175501
0.175918
0.163532
0.181805
0.128206
0.0741471
0.0630027
0.0817603
0.0349719
-0.107929
-0.230591
-0.494302
-0.670805
-0.873665
-0.929517
-0.823167
-0.712853
-0.473843
-0.262543
-0.120277
-0.0353419
0.046903
0.103599
0.133218
0.153078
0.165113
0.170888
0.174295
0.176334
0.177631
0.177526
0.17823
0.177358
0.153766
0.153918
0.154483
0.155421
0.156256
0.156522
0.156883
0.156543
0.153163
0.142293
0.120244
0.0479196
-0.0313009
-0.0964594
-0.109058
-0.0223961
-0.00618496
-0.0201986
-0.0247545
-0.161991
-0.418054
-0.497194
-0.564977
-0.496597
-0.437119
-0.287456
-0.167585
-0.0569421
0.0274725
0.0913657
0.124719
0.143211
0.156989
0.162578
0.166768
0.168812
0.169849
0.17006
0.169692
0.168588
0.146597
0.145982
0.147358
0.148308
0.148251
0.146252
0.144732
0.13947
0.133222
0.115912
0.0783695
0.00671891
-0.101094
-0.215361
-0.355416
-0.453733
-0.361852
-0.33399
-0.281297
-0.224839
-0.355787
-0.52497
-0.629943
-0.562932
-0.432145
-0.266624
-0.0962603
0.0229406
0.0902588
0.120495
0.14126
0.148416
0.156874
0.159772
0.161706
0.162453
0.162829
0.162777
0.162762
0.164134
0.140279
0.141681
0.140564
0.138753
0.136496
0.133173
0.128379
0.119192
0.101626
0.0640431
0.0262631
-0.0527996
-0.145983
-0.280468
-0.426878
-0.549974
-0.641777
-0.6425
-0.574518
-0.434171
-0.559487
-0.401097
-0.380779
-0.314869
-0.111828
0.00815862
0.105872
0.145389
0.150228
0.143533
0.142975
0.149819
0.153722
0.153429
0.156859
0.15803
0.159588
0.161373
0.163389
0.162915
0.12725
0.127262
0.126776
0.125212
0.12238
0.118194
0.1113
0.0999668
0.0775712
0.0404665
-0.0269548
-0.133067
-0.250635
-0.350673
-0.402649
-0.464046
-0.586726
-0.58961
-0.5676
-0.376162
-0.184709
-0.0225182
0.121812
0.211811
0.258977
0.296481
0.248204
0.191937
0.172976
0.171055
0.160284
0.159986
0.158329
0.156102
0.158
0.158587
0.158831
0.159006
0.158963
0.15897
0.115717
0.112501
0.112289
0.111325
0.108779
0.103694
0.0951742
0.0806547
0.0549362
0.0167266
-0.0342014
-0.13352
-0.296646
-0.486439
-0.642544
-0.73398
-0.755596
-0.733767
-0.567511
-0.464782
0.0869117
0.190441
0.197523
0.241862
0.232643
0.194082
0.223936
0.246222
0.243081
0.216057
0.196802
0.176132
0.166853
0.161197
0.158634
0.156797
0.155678
0.154877
0.154164
0.15474
0.110412
0.110453
0.108178
0.104537
0.0982795
0.0906935
0.0785127
0.0608682
0.0335951
-0.00558047
-0.0641206
-0.145904
-0.298511
-0.48177
-0.716465
-0.87097
-0.925764
-0.879313
-0.732092
-0.475366
-0.237211
-0.00428808
0.142235
0.203017
0.248728
0.263126
0.315958
0.291501
0.257114
0.212347
0.191254
0.176106
0.167542
0.161547
0.157532
0.154004
0.153165
0.152634
0.153153
0.151329
0.103704
0.103689
0.102322
0.0987269
0.0926176
0.0844349
0.0703533
0.0513365
0.0208798
-0.0237675
-0.0925044
-0.185873
-0.303025
-0.424884
-0.55339
-0.676698
-0.743327
-0.727726
-0.585952
-0.341829
0.0306896
0.242604
0.365352
0.449113
0.452043
0.408169
0.313602
0.212239
0.175576
0.167428
0.167921
0.163577
0.160367
0.155888
0.152052
0.149546
0.147637
0.146411
0.145817
0.146237
0.0935528
0.0928453
0.0918781
0.0893685
0.0850993
0.0782171
0.0665398
0.0520472
0.0306272
-0.00416135
-0.0586486
-0.133686
-0.23727
-0.361049
-0.486737
-0.586791
-0.608847
-0.57028
-0.426914
-0.158961
0.170101
0.278899
0.355469
0.361246
0.285541
0.217325
0.154324
0.126161
0.119776
0.132615
0.147184
0.146342
0.146115
0.147301
0.145185
0.14356
0.141622
0.139761
0.138519
0.138978
0.0908141
0.0891025
0.0867687
0.0841826
0.0807401
0.0752671
0.0680359
0.0565743
0.0476626
0.0319116
0.00624962
-0.0339669
-0.120269
-0.237193
-0.353205
-0.443898
-0.483602
-0.441313
-0.384815
-0.311299
-0.116125
-0.0695866
0.0299953
0.00682144
-0.0212166
-0.0310013
-0.0178515
0.0213557
0.0642551
0.0885627
0.111878
0.126617
0.129373
0.13428
0.135453
0.136845
0.137361
0.137447
0.137287
0.136125
0.0902239
0.0900067
0.0881696
0.085962
0.0836377
0.0815439
0.0787904
0.0736336
0.0647709
0.0571275
0.06456
0.0622801
0.0519983
0.0431182
-0.0107557
-0.0888784
-0.17506
-0.235636
-0.281362
-0.288951
-0.258422
-0.267539
-0.258021
-0.223527
-0.161664
-0.103509
-0.0740649
-0.0481057
-0.0177365
0.0266943
0.0664681
0.0960939
0.108823
0.118522
0.12436
0.127695
0.130071
0.131573
0.132516
0.130925
0.0877963
0.0868468
0.0874764
0.0883238
0.0886259
0.0897272
0.0915978
0.0965604
0.0993742
0.107902
0.111665
0.106881
0.115363
0.136284
0.137087
0.103516
0.0351964
-0.0672862
-0.120773
-0.289063
-0.236889
-0.319702
-0.395735
-0.362207
-0.323546
-0.261994
-0.218998
-0.16818
-0.0982635
-0.0229745
0.0432746
0.0723692
0.0943473
0.105381
0.111528
0.115893
0.116721
0.117691
0.117068
0.118817
0.0879879
0.0883883
0.0881259
0.088443
0.0896407
0.0923135
0.0964291
0.104565
0.118666
0.140241
0.152583
0.167374
0.149848
0.118809
0.118192
0.0993472
0.0372122
-0.0431937
-0.167951
-0.3651
-0.447932
-0.53904
-0.58496
-0.570989
-0.565858
-0.492189
-0.385374
-0.256437
-0.126337
-0.0405349
0.01651
0.0590979
0.0777291
0.0904192
0.0986721
0.104431
0.10709
0.109007
0.110459
0.112159
0.0866175
0.0873258
0.0873208
0.088063
0.0896512
0.0928307
0.0981162
0.105788
0.113812
0.122441
0.133182
0.159423
0.201354
0.225667
0.229792
0.203798
0.135146
0.0351325
-0.142525
-0.306235
-0.531969
-0.689194
-0.628629
-0.654169
-0.594621
-0.48654
-0.370902
-0.249547
-0.154746
-0.0757091
-0.00384515
0.0400645
0.0642719
0.0821902
0.0933753
0.100939
0.105488
0.109266
0.110837
0.10999
0.0804607
0.0800387
0.0807736
0.0823652
0.0847658
0.0877179
0.0924266
0.0938942
0.0972585
0.0988314
0.0965185
0.0984708
0.13404
0.193297
0.243514
0.259178
0.214513
0.125592
0.0223036
-0.103292
-0.274319
-0.469279
-0.617489
-0.590769
-0.524713
-0.384208
-0.290242
-0.209571
-0.128402
-0.0574796
-0.00423908
0.0392783
0.0658155
0.0811638
0.091364
0.0978025
0.102402
0.104187
0.104562
0.104082
0.0758408
0.0754764
0.0759317
0.0767569
0.0775167
0.0775189
0.0766042
0.0731445
0.0697491
0.058416
0.0328532
0.00737651
-0.0106772
-0.0233285
-0.0194127
0.00266994
0.00601432
-0.0261044
-0.038879
-0.141944
-0.246994
-0.361628
-0.42419
-0.423093
-0.398123
-0.316948
-0.226968
-0.141098
-0.0660768
-0.00279581
0.0342341
0.057964
0.0701012
0.0806569
0.0880078
0.0925143
0.0957357
0.0971288
0.0982078
0.0998773
0.0739631
0.0750464
0.07384
0.0717621
0.0685773
0.0642148
0.0562312
0.0444833
0.0220528
-0.00462791
-0.045443
-0.0931991
-0.148939
-0.204077
-0.262093
-0.2743
-0.287473
-0.303442
-0.31947
-0.335394
-0.313554
-0.259225
-0.230037
-0.181779
-0.132769
-0.075985
-0.0220149
0.0179417
0.0500975
0.0684841
0.07518
0.0778776
0.0823771
0.0871096
0.0901811
0.0923804
0.0950461
0.0978322
0.100257
0.101288
0.0671759
0.0682201
0.0664823
0.0633592
0.0582375
0.0506287
0.038216
0.0201339
-0.0142291
-0.0661585
-0.13165
-0.200574
-0.256338
-0.320058
-0.389824
-0.454792
-0.525536
-0.522676
-0.48127
-0.370873
-0.209121
-0.0920157
-0.00436842
0.0849951
0.143351
0.190868
0.204787
0.189712
0.155648
0.124878
0.114551
0.108886
0.105515
0.102619
0.100913
0.100914
0.100624
0.100802
0.101153
0.101734
0.0595545
0.0565523
0.0550943
0.0523059
0.0467795
0.0372567
0.0221141
0.000268398
-0.0348696
-0.106472
-0.188911
-0.292908
-0.401018
-0.492692
-0.578474
-0.646211
-0.686493
-0.665857
-0.56217
-0.40435
-0.130166
0.0383882
0.183221
0.271984
0.285408
0.279257
0.251055
0.220532
0.196048
0.177635
0.157193
0.134576
0.121011
0.111983
0.107516
0.104869
0.103026
0.102225
0.101305
0.101882
0.0595676
0.0586967
0.0555337
0.0489973
0.0414193
0.0291379
0.0109532
-0.0190242
-0.0565534
-0.12642
-0.208984
-0.32465
-0.464523
-0.59296
-0.70343
-0.770977
-0.781765
-0.743529
-0.586701
-0.345827
-0.115768
0.117919
0.281647
0.369679
0.374962
0.345579
0.310207
0.269227
0.241767
0.204364
0.165566
0.137921
0.121055
0.11348
0.108661
0.106115
0.104886
0.105309
0.105978
0.104594
0.0638469
0.0642891
0.0616764
0.0557364
0.0471875
0.0338734
0.0154892
-0.0146736
-0.0595287
-0.126162
-0.204997
-0.298936
-0.401958
-0.520449
-0.618526
-0.713223
-0.726392
-0.68527
-0.499655
-0.214942
0.0471721
0.285505
0.426508
0.491221
0.502045
0.44902
0.387149
0.317308
0.235948
0.180887
0.145215
0.127107
0.117005
0.113891
0.109016
0.106061
0.104512
0.104506
0.104428
0.104601
0.0670923
0.0662696
0.0644219
0.061441
0.0545468
0.0439454
0.0259842
0.00659725
-0.0286481
-0.0789681
-0.144422
-0.220231
-0.301361
-0.396031
-0.477163
-0.572152
-0.572297
-0.535406
-0.371842
-0.0818769
0.158041
0.340278
0.43538
0.449732
0.428135
0.362817
0.289769
0.21675
0.16258
0.136498
0.120803
0.112078
0.107144
0.10567
0.103451
0.102087
0.101068
0.100356
0.100252
0.101581
0.0760688
0.0743319
0.0717641
0.0680299
0.0620754
0.0550068
0.0450271
0.0316618
0.0145333
-0.0102172
-0.0539215
-0.103519
-0.167578
-0.22293
-0.276693
-0.312108
-0.31113
-0.300755
-0.213515
-0.100226
-0.00203015
0.145803
0.210557
0.19545
0.153665
0.101803
0.0777076
0.0490625
0.0509061
0.0600174
0.0704245
0.0797314
0.0866639
0.0915722
0.0950992
0.0976624
0.0997077
0.100878
0.101523
0.102144
0.089281
0.0888804
0.0862379
0.0831449
0.0799826
0.0770807
0.074088
0.0701818
0.066085
0.0630319
0.0614136
0.0676728
0.0644374
0.0534918
0.0269426
-0.0133485
-0.0423209
-0.0859442
-0.0949638
-0.0790845
-0.116837
-0.0981635
-0.0890373
-0.161543
-0.133803
-0.132183
-0.102995
-0.0749097
-0.0486513
-0.0234733
0.0079249
0.0388603
0.0594549
0.0746451
0.0860672
0.0933439
0.0986162
0.102301
0.104688
0.103661
0.101048
0.100544
0.101108
0.101795
0.103059
0.10501
0.108704
0.11481
0.121795
0.135186
0.155062
0.186814
0.220359
0.238314
0.236015
0.20844
0.166485
0.121043
0.0233786
-0.0901172
-0.223301
-0.295535
-0.362664
-0.382783
-0.358448
-0.313498
-0.260981
-0.199611
-0.150404
-0.0960467
-0.0378675
0.00949141
0.0449654
0.0651542
0.0791078
0.0888121
0.0945189
0.097979
0.0996979
0.100734
0.114274
0.114398
0.115385
0.116564
0.119368
0.123467
0.131134
0.143458
0.161311
0.190994
0.223369
0.253529
0.282163
0.32029
0.351939
0.349676
0.310047
0.226096
0.0685513
-0.088732
-0.293204
-0.471289
-0.567951
-0.57689
-0.558887
-0.494387
-0.417679
-0.325047
-0.229745
-0.13529
-0.0608335
-0.00466038
0.0348305
0.0545864
0.0730507
0.0848448
0.091965
0.0964453
0.099037
0.101377
0.127292
0.128364
0.128492
0.129291
0.131741
0.136671
0.144635
0.157228
0.17745
0.207327
0.258755
0.313366
0.365287
0.420202
0.466197
0.463739
0.428166
0.299466
0.135299
-0.0791867
-0.275495
-0.572968
-0.664584
-0.692481
-0.650569
-0.577805
-0.471355
-0.353228
-0.239805
-0.147649
-0.0711955
-0.0116685
0.0333273
0.0594083
0.0776864
0.0916765
0.100706
0.106912
0.110278
0.110755
0.13599
0.134929
0.135241
0.13638
0.139682
0.145124
0.152993
0.164995
0.17797
0.207097
0.247305
0.305277
0.379003
0.443994
0.48746
0.49654
0.436527
0.351538
0.187616
-0.0438665
-0.266983
-0.464727
-0.602226
-0.679723
-0.619268
-0.526778
-0.406271
-0.289372
-0.189156
-0.106914
-0.0406623
0.0125673
0.0513693
0.0776373
0.0946662
0.106445
0.114234
0.11908
0.121101
0.121539
0.141902
0.140746
0.140722
0.141622
0.143918
0.147854
0.151601
0.157254
0.164353
0.17457
0.189794
0.214375
0.250624
0.28954
0.320146
0.340829
0.298819
0.221418
0.085183
-0.100098
-0.25572
-0.387572
-0.463919
-0.480659
-0.446733
-0.372466
-0.281257
-0.192004
-0.107677
-0.0331341
0.0157036
0.0556807
0.0833538
0.101643
0.113688
0.121768
0.12743
0.129761
0.131391
0.132988
0.150892
0.150686
0.149976
0.148787
0.146731
0.144973
0.142987
0.137144
0.130678
0.117242
0.100198
0.0878997
0.0786783
0.0720264
0.0666482
0.0480964
0.0152207
-0.09068
-0.167262
-0.239039
-0.264813
-0.299934
-0.28888
-0.231301
-0.179185
-0.112096
-0.0535626
-0.00946344
0.0322255
0.0695081
0.0933553
0.111114
0.121673
0.1299
0.136027
0.140481
0.144407
0.147285
0.149488
0.150704
0.159323
0.160209
0.158294
0.155116
0.150022
0.143107
0.131737
0.116641
0.0922026
0.0575056
0.0181132
-0.0267501
-0.0697338
-0.124779
-0.178153
-0.236034
-0.282634
-0.355718
-0.368873
-0.320132
-0.246562
-0.166944
-0.0909333
-0.0302724
0.0479149
0.118655
0.166248
0.186737
0.190401
0.18624
0.177175
0.172508
0.169635
0.169547
0.168581
0.168035
0.168389
0.169179
0.170164
0.169283
0.164355
0.163633
0.162092
0.158541
0.152376
0.143048
0.127232
0.102174
0.0644195
0.0143328
-0.0522215
-0.131004
-0.211117
-0.296528
-0.375084
-0.44396
-0.489608
-0.522476
-0.506444
-0.404019
-0.254444
-0.0511085
0.0831031
0.179576
0.252695
0.292185
0.304366
0.294576
0.275581
0.259685
0.241395
0.225336
0.214391
0.205667
0.198866
0.193897
0.190354
0.188031
0.186372
0.186294
0.175492
0.173945
0.171053
0.166093
0.158015
0.14506
0.125509
0.0993342
0.0519128
-0.0088934
-0.0914175
-0.190235
-0.299613
-0.412348
-0.50846
-0.584895
-0.626248
-0.640318
-0.564635
-0.406285
-0.196949
0.0351806
0.217641
0.344609
0.417698
0.432788
0.415065
0.381403
0.344057
0.312632
0.281333
0.256658
0.237344
0.224463
0.216062
0.210593
0.207204
0.205456
0.204664
0.2037
0.194176
0.19369
0.190335
0.184468
0.175447
0.162043
0.140334
0.111212
0.0653099
0.000942292
-0.0780481
-0.179418
-0.293399
-0.416885
-0.533455
-0.624371
-0.661364
-0.655125
-0.538186
-0.338836
-0.101264
0.142107
0.319428
0.456951
0.520194
0.536502
0.511157
0.459974
0.398773
0.340057
0.297167
0.268239
0.24855
0.236632
0.22908
0.224054
0.220852
0.219343
0.218987
0.219126
0.21501
0.213498
0.21154
0.207617
0.200232
0.188657
0.173132
0.146404
0.10684
0.0543088
-0.013449
-0.107229
-0.215971
-0.336491
-0.44738
-0.539171
-0.56755
-0.546908
-0.446198
-0.250168
-0.0426447
0.175337
0.359284
0.471735
0.516993
0.519715
0.485981
0.432053
0.372396
0.324698
0.29836
0.272925
0.255525
0.245235
0.238196
0.233699
0.230224
0.228458
0.228249
0.229856
0.237594
0.235984
0.234804
0.232394
0.228256
0.221362
0.210533
0.19288
0.167663
0.128285
0.0812617
0.0137302
-0.0662755
-0.145277
-0.220129
-0.287359
-0.334472
-0.349454
-0.312319
-0.217647
-0.0981973
0.0613987
0.214553
0.322016
0.360468
0.364041
0.342252
0.310738
0.283474
0.269898
0.262757
0.255464
0.250868
0.247645
0.244773
0.242749
0.240869
0.239722
0.238938
0.240131
0.26529
0.265013
0.264355
0.263009
0.261523
0.259394
0.257402
0.253226
0.244436
0.232981
0.217285
0.194019
0.155702
0.107523
0.045638
-0.0281315
-0.128156
-0.189452
-0.204027
-0.197732
-0.171633
-0.0896794
-0.00331122
0.0533552
0.10932
0.146528
0.171671
0.182845
0.189419
0.200096
0.212522
0.223021
0.236612
0.242259
0.246902
0.250122
0.252473
0.254435
0.254481
0.253211
0.292618
0.293776
0.295261
0.297475
0.300873
0.305128
0.311645
0.319159
0.327396
0.338941
0.348821
0.354084
0.3353
0.302922
0.258485
0.172902
0.0810722
-0.0316341
-0.13623
-0.228262
-0.307398
-0.27951
-0.223571
-0.154712
-0.106111
-0.0434713
0.00939422
0.0589798
0.0969533
0.134762
0.170651
0.199982
0.222551
0.238207
0.249665
0.257023
0.26183
0.264734
0.265408
0.26309
0.316844
0.317589
0.32111
0.326209
0.333465
0.342736
0.35584
0.372256
0.393575
0.417999
0.439678
0.462469
0.474225
0.474029
0.450935
0.3806
0.265578
0.10407
-0.0730849
-0.253535
-0.414798
-0.479046
-0.437518
-0.357818
-0.310559
-0.219022
-0.145147
-0.0614233
0.0113136
0.078294
0.138994
0.184506
0.215836
0.240223
0.25348
0.262816
0.267556
0.270093
0.270984
0.271083
0.338687
0.339661
0.342416
0.34746
0.355299
0.36694
0.382813
0.405013
0.433541
0.470446
0.514711
0.566452
0.610393
0.637463
0.626688
0.560223
0.432111
0.230872
-0.0060104
-0.248551
-0.461082
-0.614287
-0.6132
-0.541391
-0.493836
-0.368938
-0.253557
-0.141516
-0.0391706
0.0500529
0.123417
0.179001
0.217652
0.24368
0.26058
0.271747
0.279202
0.283733
0.286465
0.287491
0.35562
0.355369
0.357826
0.362707
0.371005
0.383621
0.401156
0.425978
0.459732
0.505197
0.560216
0.628924
0.693191
0.734238
0.725156
0.650407
0.531844
0.328227
0.0673436
-0.210536
-0.455473
-0.627355
-0.655515
-0.635211
-0.578206
-0.432884
-0.293222
-0.154896
-0.0322534
0.0644203
0.140603
0.197667
0.237421
0.264212
0.281214
0.292911
0.300629
0.305582
0.308581
0.310232
0.364989
0.365127
0.367578
0.37259
0.381166
0.393546
0.410926
0.434269
0.465246
0.504487
0.550889
0.605144
0.66648
0.70554
0.71561
0.664312
0.530647
0.323387
0.0616676
-0.200935
-0.41845
-0.550528
-0.575456
-0.539054
-0.465457
-0.344347
-0.229887
-0.101682
0.0175572
0.112205
0.185447
0.238067
0.274479
0.297108
0.311161
0.319818
0.324921
0.328172
0.330529
0.332542
0.371507
0.372352
0.375134
0.379923
0.386662
0.395106
0.407671
0.423474
0.44219
0.464614
0.488152
0.517312
0.561121
0.577316
0.580331
0.514141
0.391216
0.204439
-0.015876
-0.212159
-0.360987
-0.4582
-0.453199
-0.392741
-0.267681
-0.149573
-0.0458083
0.0489252
0.131968
0.200664
0.255537
0.294772
0.320039
0.335696
0.344755
0.349797
0.352296
0.353549
0.354518
0.356335
0.375225
0.377949
0.380148
0.382263
0.384723
0.3877
0.391069
0.395616
0.399722
0.404037
0.405301
0.41205
0.420022
0.408374
0.377269
0.294832
0.213333
0.0505175
-0.135071