/*--------------------------------*- C++ -*----------------------------------*\
| =========                 |                                                 |
| \\      /  F ield         | OpenFOAM: The Open Source CFD Toolbox           |
|  \\    /   O peration     | Version:  v2106                                 |
|   \\  /    A nd           | Website:  www.openfoam.com                      |
|    \\/     M anipulation  |                                                 |
\*---------------------------------------------------------------------------*/
FoamFile
{
    version     2.0;
    format      ascii;
    arch        "LSB;label=32;scalar=64";
    class       volVectorField;
    location    "0";
    object      U;
}
// * * * * * * * * * * * * * * * * * * * * * * * * * * * * * * * * * * * * * //

dimensions      [0 1 -1 0 0 0 0];

internalField   nonuniform List<vector> 
11644
(
(0.000939534 8.97565e-06 -1.17552e-21)
(0.000940036 4.36133e-05 -3.24173e-21)
(0.000925909 5.92727e-05 -1.73927e-21)
(0.000920182 0.000110005 0)
(0.000920756 0.000178618 0)
(0.000938017 0.000282609 0)
(0.000963043 0.000365747 0)
(0.00097331 0.000467645 0)
(0.000975357 0.00060748 0)
(0.000966934 0.000776938 0)
(0.000890997 0.000988472 0)
(0.000960603 0.00123563 0)
(0.000873981 0.00151215 0)
(0.000988673 0.00182205 0)
(0.00094359 0.00207501 0)
(0.000869985 0.00238298 0)
(0.00121042 0.00236575 0)
(0.00172857 0.00280679 0)
(0.000753678 0.00235834 0)
(-0.000771184 0.0024543 -3.51395e-30)
(-0.000562763 0.0029132 3.50496e-30)
(0.00150062 0.00252406 0)
(0.00249298 0.00112922 0)
(0.00144793 0.00118544 0)
(0.000863392 0.000990362 0)
(0.00092327 0.000957847 0)
(0.00106804 0.000831697 0)
(0.00085873 0.000864499 0)
(0.00102349 0.000773982 0)
(0.00103393 0.000711049 0)
(0.000942882 0.000684112 0)
(0.000958585 0.00061218 0)
(0.00097822 0.000525188 0)
(0.000995664 0.000418778 0)
(0.00101088 0.000305788 0)
(0.0010374 0.000195104 0)
(0.00102704 0.000120773 0)
(0.00101242 7.85571e-05 0)
(0.000998011 7.52598e-05 0)
(0.000985458 2.57825e-05 -2.27921e-22)
(0.000873803 4.62046e-05 -1.50994e-21)
(0.000894674 0.000143834 -1.39869e-21)
(0.00091987 0.000300548 -7.51193e-22)
(0.000901518 0.00040212 0)
(0.000822494 0.000487014 0)
(0.000762768 0.000653428 0)
(0.000714521 0.000868876 0)
(0.000639918 0.00114492 0)
(0.000553376 0.00146341 0)
(0.000468499 0.00185037 0)
(0.000390301 0.0022798 0)
(0.000116365 0.00279091 0)
(0.0001876 0.00336743 0)
(2.60311e-05 0.00394891 0)
(0.000136306 0.00454305 0)
(0.000602697 0.00495145 -2.55709e-23)
(-0.000239682 0.00570947 8.46398e-22)
(-0.00107632 0.00745221 -4.42493e-21)
(0.000603744 0.00876673 8.92554e-21)
(0.00295004 0.00736822 -5.21408e-22)
(0.00329047 0.00496633 -4.8179e-21)
(0.00163939 0.0033052 2.51956e-21)
(8.01686e-05 0.00417417 -1.77966e-21)
(0.000648044 0.00502475 -8.28368e-22)
(0.00140411 0.0046158 6.46119e-23)
(0.00115299 0.00401017 0)
(0.000787761 0.00353083 0)
(0.00108662 0.00293966 0)
(0.00103826 0.00250547 0)
(0.00106363 0.0021257 0)
(0.00120102 0.00169726 0)
(0.00121984 0.00137029 0)
(0.00123379 0.00108737 0)
(0.00121966 0.000860112 0)
(0.00117751 0.000684219 0)
(0.00111897 0.000577108 0)
(0.00105382 0.000486653 0)
(0.00105641 0.000375359 0)
(0.00109053 0.000210774 0)
(0.00110138 8.59808e-05 0)
(0.000695301 -4.95014e-06 0)
(0.000689096 8.4803e-05 0)
(0.00066452 0.00017392 0)
(0.000602891 0.000346942 0)
(0.000547854 0.000616945 -1.37931e-21)
(0.000448899 0.00086379 0)
(0.000292654 0.00117961 0)
(8.99431e-05 0.00157363 0)
(-0.000152147 0.00203564 0)
(-0.000377556 0.00259855 0)
(-0.000537675 0.0032608 0)
(-0.000658846 0.00400335 0)
(-0.000963207 0.0047809 6.47916e-23)
(-0.000864271 0.0054871 -2.86866e-21)
(-0.000696013 0.00654139 -3.34342e-21)
(-0.00131646 0.0077544 1.60433e-21)
(-0.000830854 0.00909311 5.71044e-20)
(-2.47892e-05 0.00830356 -7.85722e-20)
(0.000633483 0.00825769 1.70446e-20)
(0.00294561 0.00891137 1.941e-21)
(0.00338164 0.0093864 8.80012e-21)
(0.00177184 0.00964604 -3.96622e-20)
(0.00176054 0.00906726 9.43722e-20)
(0.0018482 0.00713307 -4.11945e-20)
(0.00146671 0.00645892 -2.02823e-20)
(0.00178204 0.00583714 2.0751e-21)
(0.00205418 0.00498179 2.92387e-21)
(0.00169927 0.00405621 -9.38605e-23)
(0.00162396 0.00331538 0)
(0.00160766 0.00266319 0)
(0.00152341 0.00213826 0)
(0.00148694 0.00166546 0)
(0.00143249 0.00129661 0)
(0.0013681 0.00101595 0)
(0.00134108 0.000781755 0)
(0.00128403 0.000561909 0)
(0.00128726 0.000347517 0)
(0.00126069 0.000162677 0)
(0.00123012 4.42202e-05 0)
(0.00120688 -5.33423e-05 0)
(0.000666364 0.000132194 0)
(0.000610033 0.000162001 0)
(0.000510877 0.000196728 0)
(0.000355187 0.000306341 0)
(0.000178497 0.000463859 0)
(-4.48241e-05 0.000706627 0)
(-0.000314109 0.00106995 0)
(-0.000678485 0.00149885 0)
(-0.00106894 0.00204006 0)
(-0.0015761 0.00267072 0)
(-0.00217149 0.00331587 7.67458e-23)
(-0.00263546 0.0041737 -3.43246e-21)
(-0.00275943 0.00528764 -9.5002e-21)
(-0.00300355 0.00658207 3.7355e-20)
(-0.00327715 0.00807136 -6.26383e-20)
(-0.00218433 0.00909334 -1.67301e-20)
(-0.00106516 0.00990389 3.36834e-20)
(4.48764e-05 0.0103812 6.48153e-20)
(0.000637782 0.0106432 -5.67659e-21)
(0.00169294 0.0112106 8.35839e-20)
(0.00229324 0.0117255 -1.57099e-19)
(0.00245656 0.0117293 1.38018e-20)
(0.00327884 0.0108197 4.05586e-21)
(0.00354024 0.00930069 3.20998e-20)
(0.00297782 0.00767925 -4.73218e-20)
(0.0024496 0.00629196 5.16629e-20)
(0.00223247 0.00551158 -2.80437e-20)
(0.00244846 0.00434714 1.10629e-20)
(0.00247428 0.00330919 -1.64197e-21)
(0.00229846 0.00246119 -3.4067e-23)
(0.0021706 0.00172678 0)
(0.00202894 0.00113674 0)
(0.00190312 0.000679627 0)
(0.00178801 0.00033657 0)
(0.00169626 7.53392e-05 0)
(0.00157965 -8.27905e-05 0)
(0.00147956 -0.000127546 0)
(0.00137395 -0.000112302 0)
(0.00129591 -4.7995e-06 0)
(0.00127025 9.95496e-05 0)
(0.000689091 -7.50225e-05 0)
(0.00063265 8.15885e-06 0)
(0.00052663 0.000287546 0)
(0.00037111 0.000439102 0)
(0.000156515 0.000550873 0)
(-0.000181729 0.000640855 0)
(-0.000646455 0.000799175 0)
(-0.00118862 0.00107921 0)
(-0.00187293 0.00145901 0)
(-0.00254347 0.0020675 -7.48864e-22)
(-0.00296326 0.00304956 -3.7157e-21)
(-0.00350481 0.00403809 2.00843e-20)
(-0.00410115 0.00523708 -2.25739e-20)
(-0.00488413 0.00665678 7.36402e-20)
(-0.0045293 0.00838605 -1.02437e-19)
(-0.0036516 0.00932759 5.00601e-20)
(-0.00281705 0.0111383 -6.11217e-20)
(-0.000543538 0.0129166 5.59655e-20)
(0.000404715 0.0127388 -6.46221e-20)
(-9.00971e-05 0.0127991 1.70241e-19)
(0.000878948 0.0125025 -2.80214e-19)
(0.00379025 0.0119836 1.89647e-19)
(0.00498805 0.0106362 -7.74793e-20)
(0.00544344 0.00971632 6.89497e-20)
(0.00581067 0.0083807 -4.79029e-20)
(0.00511112 0.0065075 9.85042e-20)
(0.00469014 0.00475887 -7.79981e-20)
(0.00431051 0.00348974 2.40056e-20)
(0.00379845 0.00230165 -2.422e-20)
(0.00349887 0.00106781 1.16725e-20)
(0.00313284 0.000219008 2.37194e-22)
(0.00269144 -0.000254622 0)
(0.00232899 -0.000546619 0)
(0.00202428 -0.000676385 0)
(0.00173582 -0.000637214 0)
(0.00153077 -0.000524084 0)
(0.00139042 -0.000372987 0)
(0.00127168 -0.000215562 0)
(0.00122667 -0.000230336 0)
(0.00123221 -0.000133287 0)
(0.000806633 -0.00016487 0)
(0.000702064 -0.000336528 0)
(0.000476614 -0.000718579 0)
(0.00022182 -0.000797001 0)
(-3.6624e-05 -0.000674742 0)
(-0.000401051 -0.000492856 0)
(-0.000887093 -0.000263762 0)
(-0.00149185 -2.31586e-05 0)
(-0.00222316 0.000379689 -7.5848e-22)
(-0.0030513 0.000964452 4.59642e-22)
(-0.0042136 0.00161511 1.50711e-21)
(-0.00530342 0.00274615 2.38544e-21)
(-0.0067396 0.00358566 -4.72878e-20)
(-0.00692305 0.00539103 1.33892e-19)
(-0.00710125 0.00755796 -5.0167e-20)
(-0.00717813 0.00947096 5.2974e-20)
(-0.00593632 0.0118148 -8.23724e-20)
(-0.00283301 0.013465 3.54816e-20)
(-0.000648101 0.0137764 1.18985e-19)
(0.00028276 0.0134584 -2.8211e-19)
(0.00206389 0.0127443 9.42966e-21)
(0.00491845 0.0120596 1.33317e-19)
(0.00558568 0.0103073 -2.08499e-20)
(0.00650774 0.00915528 -2.25985e-20)
(0.00752025 0.00786237 6.92546e-20)
(0.00840944 0.00606766 1.62462e-20)
(0.00767761 0.00446148 -1.02754e-19)
(0.00673866 0.00224856 4.52575e-20)
(0.00596439 0.000265151 2.76514e-21)
(0.00475522 -0.000944682 -7.86532e-21)
(0.0038413 -0.00182589 -5.4863e-21)
(0.00319623 -0.00231207 -2.0235e-23)
(0.00259814 -0.00237427 0)
(0.00214017 -0.00229047 0)
(0.00176053 -0.00216258 0)
(0.00147871 -0.00198492 0)
(0.001281 -0.00181151 0)
(0.00108008 -0.0014871 0)
(0.000924055 -0.00078944 0)
(0.000870755 -0.000326981 0)
(0.00114275 0.00029643 0)
(0.0010186 -9.54926e-06 0)
(0.000868021 -5.14661e-05 0)
(0.000627401 -0.000352459 0)
(0.000289134 -0.000850645 0)
(-0.000140411 -0.00121261 0)
(-0.000708881 -0.00143196 0)
(-0.0014262 -0.00153187 2.48235e-22)
(-0.00236901 -0.00146809 -7.59231e-21)
(-0.00373852 -0.00109519 3.02002e-21)
(-0.00552398 -0.000303072 2.39565e-20)
(-0.00746767 0.000239163 -4.75635e-20)
(-0.00831458 0.00214643 3.02466e-21)
(-0.0103149 0.00344377 1.30972e-20)
(-0.00936197 0.00535893 4.01052e-20)
(-0.00815601 0.00833625 -8.1389e-21)
(-0.00691581 0.0114693 -1.14915e-20)
(-0.0054083 0.0133641 -1.50714e-19)
(-0.00235394 0.0147521 -3.52742e-20)
(0.000635945 0.0142424 -8.51252e-20)
(0.00355636 0.0146825 -2.052e-19)
(0.00536011 0.0119904 6.02307e-21)
(0.00625134 0.00999385 3.07521e-20)
(0.00776917 0.00855708 -2.20891e-19)
(0.0117926 0.00746563 -2.04047e-20)
(0.012227 0.00524145 -1.80648e-20)
(0.0110634 0.00214331 -9.53561e-21)
(0.0108182 -6.79663e-05 2.58499e-20)
(0.00838077 -0.00213229 -1.84669e-20)
(0.00641565 -0.00363194 -3.27017e-21)
(0.00460415 -0.00439625 -2.52049e-21)
(0.00333112 -0.00453822 7.53214e-21)
(0.00243067 -0.00432244 -6.70137e-23)
(0.00178455 -0.00385929 0)
(0.00126007 -0.00324824 0)
(0.000849362 -0.00249046 0)
(0.000539836 -0.00162593 0)
(0.000319943 -0.000886796 0)
(0.000183264 -0.000450674 0)
(0.000117606 0.000154557 0)
(0.00158222 -0.00106874 0)
(0.00152728 -0.00126557 0)
(0.00135638 -0.00161371 0)
(0.00113375 -0.00197352 0)
(0.000831685 -0.00218946 0)
(0.000389072 -0.00252376 0)
(-0.00019189 -0.00294997 0)
(-0.00101477 -0.00337552 -1.00496e-21)
(-0.00243051 -0.00363703 9.35912e-21)
(-0.00447561 -0.00362436 -1.31648e-20)
(-0.00680475 -0.00290737 -1.52647e-21)
(-0.00886658 -0.000853624 -1.53955e-21)
(-0.00992028 -0.000265616 4.29671e-20)
(-0.00998285 0.00229804 3.98054e-20)
(-0.0101137 0.0049201 -1.42818e-20)
(-0.010627 0.00656909 -4.49055e-20)
(-0.00912311 0.0088584 -2.73689e-20)
(-0.00744567 0.0124637 -1.4001e-19)
(-0.00492631 0.014786 1.73184e-19)
(-0.00193953 0.0159971 -1.04848e-19)
(0.00274775 0.0162624 2.35349e-20)
(0.00591978 0.0140558 -1.64237e-20)
(0.00994791 0.0115298 -1.90832e-19)
(0.0123912 0.00967854 -4.22937e-20)
(0.0154621 0.0069965 6.82022e-20)
(0.0154292 0.00342696 -2.67969e-20)
(0.0151951 0.000801174 9.87168e-21)
(0.0137119 -0.00203753 -8.90537e-21)
(0.0110751 -0.0054225 7.90457e-22)
(0.00841862 -0.00640297 5.45179e-21)
(0.00553278 -0.00689475 5.79289e-21)
(0.00331389 -0.00677471 -4.35476e-21)
(0.00184441 -0.0061814 -4.53197e-22)
(0.000959295 -0.00524086 0)
(0.000324342 -0.00438498 0)
(-0.000109996 -0.00367717 0)
(-0.000446484 -0.00305709 0)
(-0.000661145 -0.00241656 0)
(-0.000751773 -0.00178447 0)
(-0.000720593 -0.0010657 0)
(0.00248948 0.000763253 0)
(0.00226581 -0.000308022 0)
(0.00216325 -0.00145915 0)
(0.00202968 -0.00233983 0)
(0.0018266 -0.00314122 0)
(0.00143036 -0.00387961 0)
(0.000860822 -0.00467024 -3.23189e-22)
(-0.000220514 -0.00550589 -7.41905e-22)
(-0.00232424 -0.00590188 1.90174e-21)
(-0.00503428 -0.00572713 -2.86249e-21)
(-0.00794644 -0.0053032 5.88788e-21)
(-0.0108286 -0.00455452 9.4381e-21)
(-0.0130686 -0.00460335 -1.81577e-20)
(-0.0129552 -0.000975635 1.23179e-20)
(-0.0141379 0.00172952 -6.31185e-20)
(-0.015931 0.00345301 4.80746e-20)
(-0.0138197 0.00774207 2.42624e-20)
(-0.0112781 0.011416 5.41082e-20)
(-0.00919206 0.0158499 1.34575e-20)
(-0.00451607 0.0179115 2.0669e-19)
(0.00219633 0.0195549 2.00522e-20)
(0.00820997 0.0186478 -4.23809e-20)
(0.0126749 0.0144332 -2.31954e-20)
(0.0174372 0.00930316 -1.70011e-20)
(0.0187876 0.00551579 3.03087e-21)
(0.0202256 0.000302792 -3.2292e-20)
(0.0175413 -0.00188385 6.01231e-20)
(0.0166362 -0.00457932 7.99117e-22)
(0.0132132 -0.00749744 -4.99543e-21)
(0.00994837 -0.00845923 7.55377e-21)
(0.00633284 -0.0092785 -9.57801e-21)
(0.00321086 -0.0089813 6.92438e-21)
(0.000885758 -0.00813475 -2.874e-21)
(-0.000345807 -0.00696818 -5.79722e-22)
(-0.000990339 -0.00572833 0)
(-0.00142788 -0.0045783 0)
(-0.00166401 -0.00342667 0)
(-0.00177202 -0.00222599 0)
(-0.00180167 -0.00071598 0)
(-0.00189578 0.000232734 0)
(0.00344195 -0.00117229 0)
(0.00341063 -0.00144634 0)
(0.00323288 -0.00157063 0)
(0.00300052 -0.00207935 0)
(0.00284995 -0.00312063 0)
(0.00271704 -0.00436446 0)
(0.00236794 -0.00574547 -1.06319e-22)
(0.000823398 -0.00682166 1.16556e-21)
(-0.00197749 -0.0075249 -3.19788e-22)
(-0.00515246 -0.00772271 -3.60808e-21)
(-0.00870986 -0.00682544 1.60379e-20)
(-0.0122448 -0.00556772 -1.39562e-20)
(-0.0149401 -0.00727188 1.98113e-21)
(-0.0171085 -0.00425283 -8.19329e-21)
(-0.0181454 9.78416e-05 -1.48802e-20)
(-0.0183815 4.36071e-05 -2.81369e-21)
(-0.019072 0.00556229 1.51527e-20)
(-0.0189475 0.0106441 4.95444e-20)
(-0.0143156 0.0188841 1.37704e-20)
(-0.00922078 0.0255074 -3.15243e-20)
(0.0019704 0.0278353 6.92271e-21)
(0.0135445 0.0245772 5.66255e-20)
(0.022726 0.0179676 -1.12513e-20)
(0.0247126 0.0101849 1.26979e-20)
(0.0258278 0.00299931 2.27101e-20)
(0.0255113 -0.000772316 8.45647e-20)
(0.0219927 -0.00860505 6.59679e-21)
(0.0189751 -0.00806733 8.53116e-21)
(0.0147468 -0.0101718 2.73998e-22)
(0.0106092 -0.0107457 2.04082e-21)
(0.00656124 -0.0105761 -5.53881e-21)
(0.00285835 -0.0100161 1.21489e-21)
(-0.000248241 -0.00899385 -1.2226e-21)
(-0.00200476 -0.00753789 -1.79791e-22)
(-0.00246183 -0.00577319 0)
(-0.00264175 -0.00410007 0)
(-0.00280852 -0.00266491 0)
(-0.00296115 -0.00170505 0)
(-0.00314131 -0.00144813 0)
(-0.00314453 -0.000647035 0)
(0.00439985 -0.000581497 0)
(0.00450795 -0.0018263 0)
(0.00471391 -0.0029628 0)
(0.00506862 -0.00396834 0)
(0.00511624 -0.00468953 0)
(0.00510159 -0.00560453 0)
(0.00463215 -0.00690198 -6.70947e-22)
(0.00242414 -0.00790925 4.83008e-22)
(-0.00137996 -0.00818183 -3.96345e-22)
(-0.00502454 -0.0084644 1.56346e-21)
(-0.00862511 -0.00893447 3.11286e-21)
(-0.0133335 -0.00750407 -5.67571e-21)
(-0.0172594 -0.00774101 1.05275e-21)
(-0.017782 -0.00783806 3.95804e-21)
(-0.022537 -0.0067628 -2.57644e-21)
(-0.0236545 -0.00316094 3.55428e-21)
(-0.0270369 -5.15048e-05 2.33271e-21)
(-0.0314909 0.00886461 -2.69878e-21)
(-0.0312369 0.0226171 -1.45092e-20)
(-0.0207759 0.0395666 -1.53979e-19)
(0.00145053 0.0478608 2.10471e-19)
(0.0256805 0.0402652 5.82891e-20)
(0.0372522 0.0220715 -5.63813e-21)
(0.0388381 0.00669684 3.90712e-21)
(0.0353096 -0.00262264 1.22354e-21)
(0.0299486 -0.0104222 -8.89541e-21)
(0.0252802 -0.0119558 -1.06514e-21)
(0.0188901 -0.0142923 -2.99869e-21)
(0.0144403 -0.0130471 9.14485e-23)
(0.0108253 -0.0112091 1.50364e-21)
(0.0064165 -0.0107567 -1.73877e-21)
(0.00203546 -0.0104312 -1.13498e-21)
(-0.00164912 -0.00936056 -1.79806e-23)
(-0.00407287 -0.00782934 -3.29848e-22)
(-0.00494547 -0.00639548 0)
(-0.00519037 -0.0052326 0)
(-0.00530179 -0.00420901 0)
(-0.00501615 -0.00311664 0)
(-0.00464907 -0.00175611 0)
(-0.00445255 -0.000818915 0)
(0.00500408 0.000815128 0)
(0.00456718 9.09359e-05 0)
(0.00484804 -0.000783103 0)
(0.00524648 -0.00196535 0)
(0.00587253 -0.00336247 0)
(0.00660591 -0.00484793 0)
(0.00643795 -0.00638928 -2.08089e-22)
(0.00387262 -0.00749311 -5.19201e-22)
(-0.000145258 -0.00809419 -4.9157e-22)
(-0.00443018 -0.00825874 5.4383e-22)
(-0.00766465 -0.00989429 1.85804e-22)
(-0.0121094 -0.0107267 -2.21152e-21)
(-0.0155145 -0.0113865 3.25341e-21)
(-0.0192733 -0.0135543 4.35194e-21)
(-0.0238944 -0.0137496 -7.94626e-21)
(-0.0292002 -0.0140837 1.81377e-20)
(-0.0366148 -0.0114365 -2.6894e-21)
(-0.0482726 -0.00413208 -1.3075e-21)
(-0.0633513 0.0203524 1.1027e-19)
(0.0848238 0.0272535 -1.76993e-19)
(0.056892 -0.00964884 -4.51175e-21)
(0.0413447 -0.0206544 -4.1247e-21)
(0.0291328 -0.0243057 4.33604e-21)
(0.0227592 -0.018069 4.34111e-21)
(0.01616 -0.0190072 2.45137e-21)
(0.0132894 -0.0145296 -1.35607e-21)
(0.00998884 -0.0119923 -7.87432e-22)
(0.00564129 -0.0107356 5.16686e-22)
(0.00129502 -0.00974352 -4.91295e-22)
(-0.00286059 -0.00859278 -1.0279e-22)
(-0.00601582 -0.00725802 -6.01312e-23)
(-0.00656135 -0.0055827 0)
(-0.00620199 -0.00390165 0)
(-0.00572776 -0.00230467 0)
(-0.00561816 -0.000998016 0)
(-0.0055487 5.785e-05 0)
(-0.00591758 0.000735891 0)
(0.00556596 -0.00259249 0)
(0.00657628 -0.00289346 0)
(0.00697827 -0.00251199 0)
(0.00732037 -0.00251636 0)
(0.00791694 -0.00287488 0)
(0.00869809 -0.00377654 0)
(0.00813255 -0.00485716 -1.48031e-22)
(0.00499796 -0.00576098 -2.93376e-22)
(0.00112947 -0.00672376 3.89224e-22)
(-0.00248715 -0.00706542 -3.17312e-21)
(-0.00602055 -0.00882452 2.14517e-21)
(-0.00812319 -0.0108226 9.45322e-21)
(-0.00759798 -0.0129489 -6.7044e-21)
(-0.015305 -0.0173739 1.55295e-21)
(-0.0167662 -0.0228739 -6.74281e-21)
(-0.0237213 -0.0268165 -8.63716e-21)
(-0.0347984 -0.03012 6.41713e-22)
(-0.0580891 -0.0338253 -2.15785e-21)
(-0.00323004 -0.00970183 9.58583e-19)
(0.015868 -0.0123444 2.66748e-20)
(0.0682967 -0.0481704 -1.38741e-21)
(0.0390701 -0.0419076 -3.70549e-21)
(0.0255894 -0.0354748 6.70804e-21)
(0.0194518 -0.0278358 1.15731e-20)
(0.0167978 -0.0243061 -3.39737e-21)
(0.0111654 -0.0171659 2.18144e-21)
(0.0078189 -0.0127592 -2.17305e-21)
(0.00455176 -0.0103197 6.01707e-22)
(0.000427266 -0.00838428 -3.65584e-22)
(-0.00399808 -0.00699711 2.77369e-22)
(-0.00800472 -0.00589436 1.9818e-23)
(-0.00907927 -0.00447291 0)
(-0.00848967 -0.00321658 0)
(-0.00808734 -0.00242423 0)
(-0.00788956 -0.00185287 0)
(-0.00787619 -0.00199262 0)
(-0.007563 -0.00162646 0)
(0.00423915 0.00122606 4.09032e-24)
(0.00555617 0.00066944 0)
(0.00662067 -0.000579794 0)
(0.00749107 -0.00118969 0)
(0.00855567 -0.00160612 0)
(0.00948128 -0.00200724 0)
(0.00901209 -0.00251414 -2.76675e-22)
(0.00554636 -0.00301778 5.99821e-23)
(0.0010841 -0.00383283 3.45548e-21)
(-0.00166884 -0.00564006 -9.77419e-21)
(-0.00409637 -0.00843992 -1.76237e-21)
(-0.00360461 -0.0101517 3.47875e-20)
(-0.000300989 -0.0161447 -2.70938e-20)
(-0.00671225 -0.0248606 9.75431e-21)
(-0.00809561 -0.0324032 -1.93408e-20)
(-0.0163841 -0.0397158 3.54409e-20)
(-0.0261887 -0.0488547 -1.86737e-20)
(-0.0982134 -0.0328519 1.48736e-22)
(-0.0373643 0.0230138 1.15007e-20)
(0.136018 -0.0505955 9.17108e-20)
(0.0434737 -0.0921907 -8.00131e-21)
(0.0186812 -0.062536 -3.56475e-20)
(0.00961816 -0.0453314 -1.06937e-20)
(0.0125001 -0.0337752 -1.72358e-20)
(0.00530498 -0.0215451 -1.67271e-21)
(0.00333975 -0.0161889 1.70224e-20)
(0.00241954 -0.0101995 8.60424e-21)
(0.000746857 -0.0075674 3.34217e-21)
(-0.00227174 -0.00610622 -6.31705e-22)
(-0.00611179 -0.00471625 7.5315e-23)
(-0.0102211 -0.00369909 1.42664e-22)
(-0.0116164 -0.00266314 0)
(-0.0110403 -0.00166979 0)
(-0.0104112 -0.000989713 0)
(-0.00958616 -0.000417885 0)
(-0.00895135 0.00017758 0)
(-0.00888716 0.00113556 0)
(0.00402112 0.00197084 -2.5815e-25)
(0.00446994 0.00142964 0)
(0.00441563 0.00166278 0)
(0.00529929 0.00176969 0)
(0.00649168 0.0015069 0)
(0.00768757 0.000881059 0)
(0.00758052 3.92185e-05 2.06537e-22)
(0.00327884 0.000131479 -2.09298e-22)
(-0.00080505 0.00017907 3.99679e-21)
(-0.00408093 -0.00118698 -1.43561e-20)
(-0.00563665 -0.00343269 -4.52857e-21)
(-0.00257873 -0.00523513 2.13505e-20)
(0.0015138 -0.0110459 7.44879e-21)
(-0.000166885 -0.0176527 -1.05042e-20)
(0.00986142 -0.0294788 -4.03767e-20)
(0.00618077 -0.0562745 1.52573e-20)
(-0.0146798 -0.0829605 3.04582e-20)
(-0.166128 -0.0453126 1.07609e-19)
(-0.0905487 0.00104792 -8.59085e-20)
(-0.336605 0.408406 -5.42963e-20)
(0.42701 0.159435 2.83265e-21)
(-0.069995 -0.191815 7.30762e-20)
(0.403808 -0.117985 4.10341e-20)
(-0.0151807 -0.13638 -7.80668e-20)
(-0.0129197 -0.0699254 -3.11074e-20)
(-0.0117283 -0.0565575 4.57704e-20)
(-0.00379225 -0.0382877 -2.91725e-20)
(-0.0113445 -0.0163989 1.9699e-20)
(-0.00913913 -0.0105037 -2.46461e-20)
(-0.00717304 -0.00547268 1.0019e-20)
(-0.00585746 -0.00315464 7.27574e-21)
(-0.00570416 -0.00305516 -1.15037e-21)
(-0.00886602 -0.00192114 1.9621e-21)
(-0.012062 -0.000467641 3.5604e-22)
(-0.0132261 -0.000324919 0)
(-0.011404 3.09363e-06 0)
(-0.00965005 0.000433347 0)
(-0.00854417 0.00071923 0)
(-0.00753871 0.00060654 0)
(-0.00787244 -0.00102641 0)
(0.00725724 -0.00109776 1.71456e-21)
(0.0064408 -1.05336e-05 0)
(0.00607106 0.00103865 0)
(0.00657728 0.00145173 0)
(0.00749511 0.00145938 0)
(0.00901953 0.00160615 0)
(0.0072777 0.00239551 -2.67558e-24)
(0.00246467 0.00230181 -1.29682e-21)
(-0.00182724 0.00384936 -2.15426e-21)
(-0.00190259 0.00304979 6.55619e-21)
(0.00115213 0.00800236 -2.94672e-21)
(0.00664009 0.0128222 -3.36766e-20)
(0.0094728 -0.000641248 3.05451e-20)
(0.0108266 -0.0167103 -2.97314e-21)
(0.0184683 -0.025169 4.63849e-20)
(0.0459767 -0.0321108 6.02849e-20)
(0.0773074 -0.0995001 -1.02679e-19)
(-0.0404329 -0.292497 3.07826e-19)
(-0.923717 -0.625246 2.27725e-20)
(-0.618466 0.331147 2.23205e-18)
(1.68332 -0.39794 3.59859e-20)
(-0.822723 -0.987324 -2.67085e-20)
(0.165294 0.444661 -6.85439e-20)
(-0.229049 -0.0656802 1.34263e-20)
(-0.026598 -0.0874895 5.47703e-20)
(-0.0582426 -0.0547845 1.59245e-19)
(-0.0555579 -0.0189107 -8.51716e-20)
(-0.0252114 -0.0107001 6.19678e-20)
(-0.0112129 -0.013153 -2.06155e-20)
(-0.00732534 -0.00367172 -9.42575e-22)
(-0.00857673 0.00248616 -7.41921e-21)
(-0.009343 0.00277776 9.09948e-21)
(-0.0105418 0.0035416 -8.75014e-22)
(-0.0128977 0.00310806 -2.21207e-23)
(-0.0124059 0.0030792 0)
(-0.0112317 0.00254727 0)
(-0.0103584 0.00153433 0)
(-0.00991209 0.000570654 0)
(-0.00945339 -0.000229001 0)
(-0.0085111 -4.89586e-05 3.67272e-22)
(0.00611422 -0.000592599 1.46863e-21)
(0.00686865 0.000174278 0)
(0.00778346 -0.000268149 0)
(0.00819243 0.000714001 0)
(0.00847823 0.002018 0)
(0.00819909 0.00285017 0)
(0.00581216 0.0032423 0)
(0.0017255 0.00370896 8.22978e-22)
(-0.00211385 0.00291492 -9.01016e-22)
(-0.006798 0.00732775 2.08811e-21)
(-0.00719289 0.010761 -1.06167e-21)
(0.0030145 0.0114367 -1.64791e-20)
(0.0219574 0.0355966 1.39814e-20)
(0.0698757 0.00683778 3.31273e-21)
(0.0491555 -0.00446969 -2.90992e-20)
(0.0722806 -0.0310813 3.94493e-20)
(0.31294 0.0482743 -1.13316e-20)
(0.304402 -0.220496 1.2523e-18)
(-1.6913 -0.0744548 5.64811e-20)
(-0.44109 -1.85354 -1.53146e-20)
(2.8919 -0.255341 1.6493e-19)
(-1.38554 1.0132 -6.21932e-19)
(-0.370742 -0.807892 -2.64512e-19)
(0.295023 0.117632 1.10449e-18)
(-0.132748 -0.129938 -1.29464e-20)
(-0.10208 -0.00370856 -9.42224e-21)
(-0.0193636 0.0211338 -2.89685e-21)
(-0.0255182 -0.00710942 9.35876e-21)
(-0.0224159 0.016303 4.23204e-21)
(-0.0187442 0.0146341 1.01665e-20)
(-0.0148701 0.0127239 9.58026e-22)
(-0.0110582 0.0148101 -2.33891e-21)
(-0.0135603 0.0101178 -1.38957e-21)
(-0.0147442 0.00815281 0)
(-0.0128482 0.00555726 0)
(-0.0103217 0.00362776 0)
(-0.00895702 0.00252112 0)
(-0.00819231 0.00174117 0)
(-0.00848859 0.000492531 0)
(-0.00869955 0.000452226 -4.57413e-22)
(0.00790385 -0.000779922 9.64786e-23)
(0.00506379 -0.000251444 0)
(0.0056551 0.000672437 0)
(0.00612676 0.00132745 0)
(0.0064187 0.00216825 0)
(0.0072817 0.00327425 0)
(0.0061584 0.00327977 0)
(0.000252142 0.0010041 0)
(-0.00739826 0.00308726 -3.60897e-22)
(-0.0103108 0.00587398 -8.21455e-22)
(-0.0137789 0.0119377 -2.83713e-21)
(-0.015541 0.0155559 1.64923e-20)
(-0.0107076 0.0245457 -2.28146e-20)
(0.0218068 0.0946767 7.54235e-21)
(0.0607125 0.0408423 -1.4841e-20)
(0.0702576 0.0311773 4.01774e-20)
(-0.0848433 0.131234 5.92653e-20)
(-0.181924 0.672338 5.32869e-22)
(2.39349 -0.851003 -2.23259e-20)
(-0.418093 -1.47269 -1.64103e-19)
(-2.66732 -0.00693091 3.58649e-20)
(0.170061 1.09505 2.78116e-19)
(1.82189 0.414557 -1.12422e-19)
(-0.494454 -0.769042 1.21203e-18)
(-0.322338 0.0537853 -8.74631e-20)
(-0.106733 0.0233359 -9.22059e-20)
(-0.0710071 0.010633 1.14047e-21)
(-0.0530297 0.0602022 -6.71186e-22)
(-0.026888 0.0513025 -2.06845e-21)
(-0.0132935 0.0382168 4.04856e-21)
(-0.00636766 0.0311455 -8.7043e-22)
(-0.00772874 0.0259568 -2.07637e-23)
(-0.00783395 0.0211448 0)
(-0.00797167 0.0143031 0)
(-0.00765839 0.00926822 0)
(-0.00656018 0.00638811 0)
(-0.00500492 0.00423657 -2.1773e-21)
(-0.00413522 0.00263157 -3.01106e-21)
(-0.00425061 0.00267312 -1.79553e-21)
(-0.00157184 0.00184911 0)
(0.005314 0.00167442 0)
(0.00492683 0.000682167 0)
(0.00353204 0.000507532 0)
(0.00358063 0.00124711 0)
(0.00427096 0.0023181 0)
(0.00500703 0.00410005 0)
(0.00654126 0.00829557 0)
(0.00715229 0.0105631 0)
(0.000685876 0.0114507 9.4216e-25)
(-0.00953257 0.011427 -2.78384e-22)
(-0.0153279 0.0126769 1.74103e-21)
(-0.026149 0.0201051 -4.15462e-21)
(-0.0235715 0.0246837 1.02791e-20)
(-0.0585113 0.00950271 -1.70816e-20)
(0.0845077 0.1119 -2.48249e-19)
(0.104614 0.150478 8.97489e-21)
(-0.549458 -0.204392 -2.85465e-20)
(0.50281 0.205562 7.47876e-20)
(0.827816 2.37902 -1.3991e-19)
(0.12572 2.80922 1.04859e-18)
(-0.486026 -0.217786 -4.94378e-20)
(0.177667 -2.71506 -9.64392e-20)
(0.397183 -1.752 -4.71777e-20)
(-0.372866 0.369089 -3.85222e-20)
(-0.292255 0.376684 -1.79885e-20)
(-0.068993 0.107852 2.30565e-20)
(-0.0974134 0.171792 -1.48469e-20)
(-0.0220765 0.10727 8.66687e-21)
(-0.0036132 0.0760185 1.90327e-21)
(0.0104662 0.0553862 -1.20188e-21)
(0.0134997 0.0374454 -1.26136e-22)
(0.0135851 0.0247489 -2.56471e-24)
(0.00966332 0.0160792 0)
(0.00137951 0.0122687 0)
(-0.00222882 0.0104491 0)
(-0.00253108 0.00801139 0)
(-0.00242796 0.00607042 0)
(-0.00170771 0.00417389 0)
(-0.00021001 0.00192914 0)
(-0.000662616 -0.000448731 3.23377e-22)
(0.00304137 -0.00034379 0)
(0.00524431 -0.000121294 0)
(0.00521115 -0.000159008 0)
(0.00375296 -0.000350951 0)
(0.00216145 0.000102173 0)
(1.23094e-06 0.000706189 0)
(-0.00330378 0.00344795 0)
(-0.00541613 0.0111774 0)
(-0.00697985 0.0188196 0)
(-0.0114336 0.0247155 0)
(-0.0162791 0.0276153 2.70943e-22)
(-0.0184153 0.0368394 8.09022e-22)
(-0.0353043 0.0481468 9.66353e-22)
(-0.00178153 0.0600459 1.01184e-21)
(-0.0669478 0.0568834 -7.64312e-19)
(0.318656 0.170686 -8.9064e-20)
(0.526722 -0.0957092 -2.26603e-19)
(-1.90168 -0.826765 -2.82461e-20)
(-0.295019 -1.05205 -6.04437e-20)
(1.47062 -0.602263 -1.79415e-19)
(1.96459 0.536918 -4.04632e-19)
(1.00665 1.551 -4.61891e-19)
(-1.11241 1.90399 7.63231e-20)
(-2.05471 1.33415 -1.59806e-20)
(0.572205 0.141647 2.02001e-19)
(-0.030161 0.283505 4.55088e-21)
(0.0509563 0.161429 -4.87799e-21)
(0.0306978 0.106305 2.40389e-21)
(0.0512745 0.0723405 2.99607e-21)
(0.0427985 0.046675 -6.97113e-22)
(0.0340205 0.0295606 0)
(0.0215987 0.0186714 0)
(0.00846705 0.016053 0)
(-0.000173079 0.0160744 0)
(-0.0010327 0.0128687 0)
(-0.000589292 0.00956779 0)
(-5.08218e-05 0.00728633 0)
(0.000604105 0.00472025 0)
(0.000192207 0.0023543 0)
(-0.00254823 0.000966756 0)
(0.00772475 -0.00106367 0)
(0.00694273 -0.000854622 0)
(0.00652053 -0.000447867 0)
(0.00540015 -0.00139156 0)
(0.00364665 -0.0028289 0)
(0.00137334 -0.00416975 0)
(-0.00371543 -0.00658912 0)
(-0.0145023 -0.00588472 0)
(-0.0229179 0.00138688 0)
(-0.0305661 0.0131736 0)
(-0.0406958 0.0300897 0)
(-0.0478878 0.0459852 -1.00664e-22)
(-0.0705155 0.0764027 -2.71233e-22)
(-0.112278 0.110417 -3.78178e-21)
(-0.166388 0.207343 -2.41849e-19)
(-0.412433 0.489885 1.08745e-19)
(1.62399 0.916678 -2.18194e-19)
(0.953702 -0.379866 -1.63553e-19)
(-0.730468 -1.18091 -3.55108e-20)
(-1.03974 -0.383706 1.19773e-19)
(-1.13442 0.81856 4.79572e-20)
(-1.05912 1.95707 -1.72168e-19)
(-0.497924 2.17136 -1.85067e-20)
(1.52585 0.635224 -1.55573e-20)
(0.643755 -0.447982 9.12268e-20)
(-0.219246 0.0303117 4.66659e-20)
(0.0456941 0.110278 3.1529e-20)
(0.0778426 0.0669949 2.28306e-21)
(0.0748302 0.053372 2.7013e-23)
(0.0567145 0.0357175 0)
(0.0413078 0.0329719 0)
(0.0230406 0.0282418 0)
(0.0113272 0.0266588 0)
(0.00739526 0.0198869 0)
(0.00544117 0.0130615 0)
(0.0037394 0.0087997 0)
(0.00294149 0.00567407 0)
(0.00204537 0.00368331 0)
(0.0016846 0.00289584 0)
(0.0020478 0.00177439 0)
(0.00756609 0.00121671 0)
(0.0059791 0.00024764 0)
(0.00589267 -0.0010122 0)
(0.00627926 -0.00226054 0)
(0.0062397 -0.00348682 0)
(0.00519846 -0.00450995 0)
(0.00222921 -0.00552142 0)
(-0.00834714 -0.0102975 0)
(-0.024107 -0.0142653 0)
(-0.039271 -0.0146259 0)
(-0.0553024 -0.00919646 -3.01406e-21)
(-0.0760683 -0.0106785 0)
(-0.0844175 0.018206 0)
(-0.0923808 -0.0277837 1.80489e-20)
(-0.284004 -0.154476 9.62385e-20)
(-1.23585 -0.238651 -4.19996e-19)
(-0.458565 1.00226 -1.05038e-20)
(0.93315 2.66572 -2.26474e-20)
(0.874197 2.48592 2.14463e-19)
(0.496153 1.323 3.11957e-20)
(0.468084 0.028823 2.24243e-20)
(0.858259 -1.41208 1.33661e-19)
(1.19647 -2.32175 2.66589e-20)
(0.537405 -1.51851 -2.64747e-20)
(-1.27377 0.266534 1.05122e-21)
(0.0468381 0.363105 9.72689e-20)
(0.173764 0.165724 -5.86399e-20)
(0.137029 0.0745595 0)
(0.0920733 0.0669492 0)
(0.0745312 0.0470274 1.96353e-21)
(0.0534964 0.0375742 0)
(0.0370176 0.0278091 0)
(0.0277837 0.0180415 0)
(0.019843 0.00905983 0)
(0.0131744 0.00657189 0)
(0.00891595 0.00470219 0)
(0.00581671 0.00312497 0)
(0.0033777 0.00192502 3.58345e-22)
(0.00274901 0.000453344 2.57081e-22)
(0.00429596 -0.000896519 0)
(0.00284656 -0.00184552 0)
(0.00537493 -0.00271374 0)
(0.006607 -0.00365186 0)
(0.00633483 -0.00404281 0)
(0.0055253 -0.00442956 0)
(0.00358505 -0.00535608 0)
(0.000229888 -0.00491464 0)
(-0.00588058 -0.0048543 0)
(-0.0174704 -0.00897314 0)
(-0.0320485 -0.0162641 0)
(-0.0473711 -0.0255788 1.25178e-20)
(-0.0587813 -0.0345969 0)
(-0.0690229 -0.0472882 0)
(0.00226019 -0.0596054 -5.00245e-20)
(0.319612 -0.0416341 4.23629e-20)
(-0.321848 -0.67434 4.21856e-20)
(-1.28621 -1.96925 0)
(-1.15886 -2.00738 3.15089e-21)
(-0.994925 -1.19318 -1.88318e-19)
(-0.83831 -0.367976 -9.38567e-19)
(-0.737324 0.658042 8.65675e-19)
(-0.722873 1.48221 -6.60937e-19)
(-0.758341 2.21627 5.02132e-20)
(-0.812332 2.0572 0)
(0.199064 0.689162 1.20911e-19)
(0.74416 0.0561925 -1.98471e-19)
(0.340082 0.0612714 -6.61472e-20)
(0.192765 0.0434982 0)
(0.137213 0.0237331 0)
(0.0999649 0.0168236 1.49017e-20)
(0.0712574 0.00606223 0)
(0.0517238 0.000725425 0)
(0.0348874 -0.00284663 0)
(0.0205091 -0.00198795 0)
(0.0128998 6.20795e-05 0)