/*--------------------------------*- C++ -*----------------------------------*\
| =========                 |                                                 |
| \\      /  F ield         | OpenFOAM: The Open Source CFD Toolbox           |
|  \\    /   O peration     | Version:  v2106                                 |
|   \\  /    A nd           | Website:  www.openfoam.com                      |
|    \\/     M anipulation  |                                                 |
\*---------------------------------------------------------------------------*/
FoamFile
{
    version     2.0;
    format      ascii;
    arch        "LSB;label=32;scalar=64";
    class       pointVectorField;
    location    "0";
    object      pointDisplacement;
}
// * * * * * * * * * * * * * * * * * * * * * * * * * * * * * * * * * * * * * //

dimensions      [0 1 0 0 0 0 0];

internalField   nonuniform List<vector> 
24440
(
(0 0 0)
(0 0 0)
(0 0 0)
(0 0 0)
(0 0 0)
(0 0 0)
(0 0 0)
(0 0 0)
(0 0 0)
(0 0 0)
(0 0 0)
(0 0 0)
(0 0 0)
(0 0 0)
(0 0 0)
(0 0 0)
(0 0 0)
(0 0 0)
(0 0 0)
(0 0 0)
(0 0 0)
(0 0 0)
(0 0 0)
(0 0 0)
(0 0 0)
(0 0 0)
(0 0 0)
(0 0 0)
(0 0 0)
(0 0 0)
(0 0 0)
(0 0 0)
(0 0 0)
(0 0 0)
(0 0 0)
(0 0 0)
(0 0 0)
(0 0 0)
(0 0 0)
(0 0 0)
(0 0 0)
(0 0 0)
(0 0 0)
(0 0 0)
(0 0 0)
(0 0 0)
(0 0 0)
(0 0 0)
(0 0 0)
(0 0 0)
(0 0 0)
(0 0 0)
(0 0 0)
(0 0 0)
(0 0 0)
(0 0 0)
(0 0 0)
(0 0 0)
(0 0 0)
(0 0 0)
(0 0 0)
(0 0 0)
(0 0 0)
(0 0 0)
(0 0 0)
(0 0 0)
(0 0 0)
(0 0 0)
(0 0 0)
(0 0 0)
(0 0 0)
(0 0 0)
(0 0 0)
(0 0 0)
(0 0 0)
(0 0 0)
(0 0 0)
(0 0 0)
(0 0 0)
(0 0 0)
(0 0 0)
(0 0 0)
(0 0 0)
(0 0 0)
(0 0 0)
(0 0 0)
(0 0 0)
(0 0 0)
(0 0 0)
(0 0 0)
(0 0 0)
(0 0 0)
(0 0 0)
(0 0 0)
(0 0 0)
(0 0 0)
(0 0 0)
(0 0 0)
(0 1.31606e-06 0)
(0 8.29915e-06 0)
(0 2.28209e-05 0)
(0 3.51659e-05 0)
(0 3.99036e-05 0)
(0 3.51659e-05 0)
(0 2.28209e-05 0)
(0 8.29915e-06 0)
(0 1.31606e-06 0)
(0 0 0)
(0 0 0)
(0 0 0)
(0 0 0)
(0 0 0)
(0 0 0)
(0 0 0)
(0 0 0)
(0 0 0)
(0 0 0)
(0 0 0)
(0 0 0)
(0 0 0)
(0 0 0)
(0 0 0)
(0 0 0)
(0 0 0)
(0 0 0)
(0 0 0)
(0 0 0)
(0 0 0)
(0 0 0)
(0 0 0)
(0 0 0)
(0 0 0)
(0 0 0)
(0 0 0)
(0 0 0)
(0 0 0)
(0 2.20405e-06 0)
(0 2.91558e-05 0)
(0 8.58035e-05 0)
(0 0.000154569 0)
(0 0.000220479 0)
(0 0.000266427 0)
(0 0.00030914 0)
(0 0.000324169 0)
(0 0.00030914 0)
(0 0.000266427 0)
(0 0.000220479 0)
(0 0.000154569 0)
(0 8.58035e-05 0)
(0 2.91558e-05 0)
(0 2.20405e-06 0)
(0 0 0)
(0 0 0)
(0 0 0)
(0 0 0)
(0 0 0)
(0 0 0)
(0 0 0)
(0 0 0)
(0 0 0)
(0 0 0)
(0 0 0)
(0 0 0)
(0 0 0)
(0 0 0)
(0 0 0)
(0 0 0)
(0 0 0)
(0 0 0)
(0 0 0)
(0 0 0)
(0 0 0)
(0 0 0)
(0 0 0)
(0 0 0)
(0 9.25385e-07 0)
(0 3.83427e-05 0)
(0 0.000130761 0)
(0 0.000257858 0)
(0 0.000388768 0)
(0 0.000534816 0)
(0 0.000661305 0)
(0 0.000739643 0)
(0 0.00081455 0)
(0 0.000840438 0)
(0 0.00081455 0)
(0 0.000739643 0)
(0 0.000661305 0)
(0 0.000534816 0)
(0 0.000388768 0)
(0 0.000257858 0)
(0 0.000130761 0)
(0 3.83427e-05 0)
(0 9.25385e-07 0)
(0 0 0)
(0 0 0)
(0 0 0)
(0 0 0)
(0 0 0)
(0 0 0)
(0 0 0)
(0 0 0)
(0 0 0)
(0 0 0)
(0 0 0)
(0 0 0)
(0 0 0)
(0 0 0)
(0 0 0)
(0 0 0)
(0 0 0)
(0 0 0)
(0 0 0)
(0 0 0)
(0 0 0)
(0 8.74996e-06 0)
(0 9.09948e-05 0)
(0 0.000241823 0)
(0 0.000424282 0)
(0 0.000650823 0)
(0 0.000879312 0)
(0 0.00107725 0)
(0 0.00126268 0)
(0 0.00139426 0)
(0 0.00147287 0)
(0 0.00150896 0)
(0 0.00147287 0)
(0 0.00139426 0)
(0 0.00126268 0)
(0 0.00107725 0)
(0 0.000879312 0)
(0 0.000650823 0)
(0 0.000424282 0)
(0 0.000241823 0)
(0 9.09948e-05 0)
(0 9.26331e-06 0)
(0 0 0)
(0 0 0)
(0 0 0)
(0 0 0)
(0 0 0)
(0 0 0)
(0 0 0)
(0 0 0)
(0 0 0)
(0 0 0)
(0 0 0)
(0 0 0)
(0 0 0)
(0 0 0)
(0 0 0)
(0 0 0)
(0 0 0)
(0 0 0)
(0 0 0)
(0 1.72092e-05 0)
(0 0.000120671 0)
(0 0.000301179 0)
(0 0.000552918 0)
(0 0.000852103 0)
(0 0.001163 0)
(0 0.0014483 0)
(0 0.00171877 0)
(0 0.00182041 0)
(0 0.00193032 0)
(0 0.00202225 0)
(0 0.00209468 0)
(0 0.00214648 0)
(0 0.00218229 0)
(0 0.00221538 0)
(0 0.00222646 0)
(0 0.00221538 0)
(0 0.00218229 0)
(0 0.00214648 0)
(0 0.00209468 0)
(0 0.00202225 0)
(0 0.00193032 0)
(0 0.00182041 0)
(0 0.00171877 0)
(0 0.0014483 0)
(0 0.001163 0)
(0 0.000852103 0)
(0 0.000552918 0)
(0 0.000294928 0)
(0 0.000109038 0)
(0 1.37513e-05 0)
(0 0 0)
(0 0 0)
(0 0 0)
(0 0 0)
(0 0 0)
(0 0 0)
(0 0 0)
(0 0 0)
(0 0 0)
(0 0 0)
(0 0 0)
(0 0 0)
(0 0 0)
(0 0 0)
(0 0 0)
(0 0 0)
(0 0 0)
(0 1.01222e-05 0)
(0 0.000115838 0)
(0 0.000322744 0)
(0 0.000607309 0)
(0 0.000940632 0)
(0 0.00133281 0)
(0 0.00152033 0)
(0 0.00168654 0)
(0 0.0018705 0)
(0 0.00204293 0)
(0 0.00220069 0)
(0 0.00233472 0)
(0 0.00203474 0)
(0 0.00215898 0)
(0 0.00225702 0)
(0 0.00235591 0)
(0 0.00243349 0)
(0 0.00248878 0)
(0 0.00252192 0)
(0 0.00255704 0)
(0 0.00256879 0)
(0 0.00255704 0)
(0 0.00252192 0)
(0 0.00248878 0)
(0 0.00243349 0)
(0 0.00235591 0)
(0 0.00225702 0)
(0 0.00215898 0)
(0 0.00203474 0)
(0 0.00233472 0)
(0 0.00220069 0)
(0 0.00204293 0)
(0 0.0018705 0)
(0 0.00168654 0)
(0 0.00152033 0)
(0 0.00133281 0)
(0 0.000940632 0)
(0 0.000607309 0)
(0 0.000310971 0)
(0 0.000110798 0)
(0 9.1924e-06 0)
(0 0 0)
(0 0 0)
(0 0 0)
(0 0 0)
(0 0 0)
(0 0 0)
(0 0 0)
(0 0 0)
(0 0 0)
(0 0 0)
(0 0 0)
(0 0 0)
(0 0 0)
(0 0 0)
(0 0 0)
(0 0 0)
(0 6.40449e-05 0)
(0 0.000261729 0)
(0 0.00055954 0)
(0 0.000933625 0)
(0 0.00135027 0)
(0 0.00177363 0)
(0 0.00156111 0)
(0 0.00176503 0)
(0 0.00196126 0)
(0 0.00214602 0)
(0 0.00231017 0)
(0 0.00247664 0)
(0 0.00262375 0)
(0 0.00274529 0)
(0 0.00246673 0)
(0 0.00257792 0)
(0 0.00285989 0)
(0 0.00294241 0)
(0 0.00266637 0)
(0 0.00274731 0)
(0 0.00302448 0)
(0 0.00308225 0)
(0 0.00280472 0)
(0 0.00283382 0)
(0 0.00311572 0)
(0 0.0031423 0)
(0 0.00287004 0)
(0 0.00288213 0)
(0 0.0031543 0)
(0 0.0031423 0)
(0 0.00287004 0)
(0 0.00283382 0)
(0 0.00311572 0)
(0 0.00308225 0)
(0 0.00280472 0)
(0 0.00274731 0)
(0 0.00302448 0)
(0 0.00294241 0)
(0 0.00266637 0)
(0 0.00257792 0)
(0 0.00285989 0)
(0 0.00274529 0)
(0 0.00246673 0)
(0 0.00262375 0)
(0 0.00247664 0)
(0 0.00231017 0)
(0 0.00214602 0)
(0 0.00196126 0)
(0 0.00176503 0)
(0 0.00156111 0)
(0 0.00177363 0)
(0 0.00135027 0)
(0 0.000922386 0)
(0 0.000555123 0)
(0 0.000261449 0)
(0 6.9627e-05 0)
(0 0 0)
(0 0 0)
(0 0 0)
(0 0 0)
(0 0 0)
(0 0 0)
(0 0 0)
(0 0 0)
(0 0 0)
(0 0 0)
(0 0 0)
(0 0 0)
(0 0 0)
(0 0 0)
(0 0 0)
(0 1.39713e-05 0)
(0 0.000143537 0)
(0 0.000413743 0)
(0 0.000775189 0)
(0 0.00120488 0)
(0 0.00169718 0)
(0 0.00217138 0)
(0 0.00198684 0)
(0 0.00220166 0)
(0 0.00197691 0)
(0 0.00219801 0)
(0 0.00240358 0)
(0 0.00260615 0)
(0 0.00239259 0)
(0 0.0025703 0)
(0 0.00278878 0)
(0 0.00287206 0)
(0 0.00294958 0)
(0 0.00284418 0)
(0 0.00272031 0)
(0 0.00287126 0)
(0 0.00297952 0)
(0 0.0030464 0)
(0 0.0029381 0)
(0 0.00310069 0)
(0 0.00320338 0)
(0 0.0032509 0)
(0 0.00314893 0)
(0 0.00325525 0)
(0 0.00335571 0)
(0 0.00338075 0)
(0 0.00328619 0)
(0 0.00334306 0)
(0 0.00343511 0)
(0 0.00344822 0)
(0 0.00335829 0)
(0 0.00337466 0)
(0 0.00346264 0)
(0 0.00345999 0)
(0 0.00337184 0)
(0 0.00334306 0)
(0 0.00343511 0)
(0 0.00342269 0)
(0 0.00332999 0)
(0 0.00325525 0)
(0 0.00335571 0)
(0 0.00332695 0)
(0 0.00322673 0)
(0 0.00310069 0)
(0 0.00320338 0)
(0 0.00316143 0)
(0 0.00304622 0)
(0 0.00287126 0)
(0 0.00297952 0)
(0 0.00290657 0)
(0 0.00279859 0)
(0 0.0025703 0)
(0 0.00278878 0)
(0 0.00260615 0)
(0 0.00239259 0)
(0 0.00219801 0)
(0 0.00240358 0)
(0 0.00220166 0)
(0 0.00197691 0)
(0 0.00198684 0)
(0 0.0021616 0)
(0 0.00169601 0)
(0 0.0012243 0)
(0 0.000768679 0)
(0 0.000409715 0)
(0 0.000150731 0)
(0 1.59769e-05 0)
(0 0 0)
(0 0 0)
(0 0 0)
(0 0 0)
(0 0 0)
(0 0 0)
(0 0 0)
(0 0 0)
(0 0 0)
(0 0 0)
(0 0 0)
(0 0 0)
(0 0 0)
(0 0 0)
(0 4.57109e-05 0)
(0 0.000231346 0)
(0 0.000543558 0)
(0 0.000955103 0)
(0 0.0014307 0)
(0 0.00195382 0)
(0 0.00244204 0)
(0 0.00232158 0)
(0 0.00255132 0)
(0 0.00239496 0)
(0 0.00260371 0)
(0 0.0027644 0)
(0 0.00295683 0)
(0 0.00279386 0)
(0 0.0029623 0)
(0 0.00304955 0)
(0 0.00312459 0)
(0 0.00304944 0)
(0 0.00326146 0)
(0 0.00329756 0)
(0 0.00332669 0)
(0 0.00329092 0)
(0 0.00345258 0)
(0 0.00348146 0)
(0 0.0035002 0)
(0 0.00347192 0)
(0 0.00356572 0)
(0 0.00358676 0)
(0 0.00359631 0)
(0 0.00357511 0)
(0 0.0036153 0)
(0 0.00363073 0)
(0 0.00363294 0)
(0 0.00361795 0)
(0 0.00362798 0)
(0 0.00364042 0)
(0 0.00364021 0)
(0 0.00362768 0)
(0 0.0036153 0)
(0 0.00363073 0)
(0 0.00362769 0)
(0 0.00361169 0)
(0 0.00356572 0)
(0 0.00358676 0)
(0 0.00357876 0)
(0 0.00355442 0)
(0 0.00345258 0)
(0 0.00348146 0)
(0 0.00346514 0)
(0 0.00343155 0)
(0 0.00326146 0)
(0 0.00329756 0)
(0 0.00333059 0)
(0 0.00326774 0)
(0 0.00319745 0)
(0 0.0029623 0)
(0 0.00304955 0)
(0 0.00312534 0)
(0 0.00295683 0)
(0 0.00279386 0)
(0 0.00260371 0)
(0 0.00275808 0)
(0 0.00254968 0)
(0 0.00239496 0)
(0 0.00232435 0)
(0 0.00244927 0)
(0 0.00194891 0)
(0 0.00144496 0)
(0 0.000965118 0)
(0 0.000549855 0)
(0 0.000234647 0)
(0 4.68385e-05 0)
(0 0 0)
(0 0 0)
(0 0 0)
(0 0 0)
(0 0 0)
(0 0 0)
(0 0 0)
(0 0 0)
(0 0 0)
(0 0 0)
(0 0 0)
(0 0 0)
(0 0 0)
(0 0 0)
(0 7.0485e-05 0)
(0 0.000287395 0)
(0 0.000632446 0)
(0 0.0010765 0)
(0 0.00158216 0)
(0 0.00210694 0)
(0 0.0026069 0)
(0 0.00254496 0)
(0 0.00277289 0)
(0 0.00266707 0)
(0 0.00287341 0)
(0 0.00298053 0)
(0 0.00316384 0)
(0 0.0030753 0)
(0 0.00324216 0)
(0 0.00328338 0)
(0 0.00335519 0)
(0 0.00331493 0)
(0 0.00348784 0)
(0 0.00350688 0)
(0 0.00352837 0)
(0 0.00350993 0)
(0 0.00362037 0)
(0 0.00362956 0)
(0 0.00363724 0)
(0 0.00362912 0)
(0 0.0036521 0)
(0 0.0036521 0)
(0 0.0036521 0)
(0 0.0036521 0)
(0 0.0036521 0)
(0 0.0036521 0)
(0 0.0036521 0)
(0 0.0036521 0)
(0 0.0036521 0)
(0 0.0036521 0)
(0 0.0036521 0)
(0 0.0036521 0)
(0 0.0036521 0)
(0 0.0036521 0)
(0 0.0036521 0)
(0 0.0036521 0)
(0 0.0036521 0)
(0 0.0036521 0)
(0 0.0036521 0)
(0 0.0036521 0)
(0 0.00362037 0)
(0 0.00362956 0)
(0 0.00361943 0)
(0 0.00360984 0)
(0 0.00348784 0)
(0 0.00350688 0)
(0 0.00352315 0)
(0 0.00347348 0)
(0 0.0034379 0)
(0 0.00324028 0)
(0 0.00328817 0)
(0 0.00332474 0)
(0 0.00315945 0)
(0 0.00307804 0)
(0 0.00288979 0)
(0 0.00297683 0)
(0 0.00276994 0)
(0 0.00267886 0)
(0 0.00254279 0)
(0 0.0026082 0)
(0 0.00210607 0)
(0 0.00157964 0)
(0 0.00107305 0)
(0 0.000628845 0)
(0 0.000284416 0)
(0 6.87928e-05 0)
(0 0 0)
(0 0 0)
(0 0 0)
(0 0 0)
(0 0 0)
(0 0 0)
(0 0 0)
(0 0 0)
(0 0 0)
(0 0 0)
(0 0 0)
(0 0 0)
(0 0 0)
(0 0 0)
(0 7.47299e-05 0)
(0 0.000296582 0)
(0 0.000646928 0)
(0 0.00109633 0)
(0 0.00160702 0)
(0 0.0021361 0)
(0 0.00263912 0)
(0 0.00264005 0)
(0 0.00286821 0)
(0 0.0028344 0)
(0 0.00304051 0)
(0 0.00307436 0)
(0 0.00325416 0)
(0 0.00322105 0)
(0 0.00337819 0)
(0 0.00339338 0)
(0 0.00345638 0)
(0 0.00344269 0)
(0 0.0035849 0)
(0 0.00359076 0)
(0 0.00360631 0)
(0 0.0036009 0)
(0 0.0036521 0)
(0 0.0036521 0)
(0 0.0036521 0)
(0 0.0036521 0)
(0 0.0036521 0)
(0 0.0036521 0)
(0 0.0036521 0)
(0 0.0036521 0)
(0 0.0036521 0)
(0 0.0036521 0)
(0 0.0036521 0)
(0 0.0036521 0)
(0 0.0036521 0)
(0 0.0036521 0)
(0 0.0036521 0)
(0 0.0036521 0)
(0 0.0036521 0)
(0 0.00365195 0)
(0 0.00365142 0)
(0 0.0035849 0)
(0 0.00359076 0)
(0 0.00359463 0)
(0 0.00355811 0)
(0 0.00354522 0)
(0 0.00337798 0)
(0 0.00339359 0)
(0 0.00340381 0)
(0 0.00325416 0)
(0 0.00322572 0)
(0 0.00304413 0)
(0 0.00306662 0)
(0 0.00285932 0)
(0 0.00283687 0)
(0 0.0026302 0)
(0 0.00263322 0)
(0 0.00212954 0)
(0 0.00160035 0)
(0 0.00109013 0)
(0 0.000641746 0)
(0 0.000292865 0)
(0 7.28041e-05 0)
(0 0 0)
(0 0 0)
(0 0 0)
(0 0 0)
(0 0 0)
(0 0 0)
(0 0 0)
(0 0 0)
(0 0 0)
(0 0 0)
(0 0 0)
(0 0 0)
(0 0 0)
(0 0 0)
(0 6.10716e-05 0)
(0 0.000266908 0)
(0 0.000600482 0)
(0 0.00103334 0)
(0 0.00152883 0)
(0 0.0020453 0)
(0 0.00253974 0)
(0 0.0026111 0)
(0 0.00283888 0)
(0 0.00286746 0)
(0 0.00307381 0)
(0 0.00304521 0)
(0 0.00322585 0)
(0 0.00325381 0)
(0 0.00340367 0)
(0 0.00339566 0)
(0 0.00345864 0)
(0 0.00346628 0)
(0 0.00360103 0)
(0 0.00359913 0)
(0 0.00361371 0)
(0 0.00361543 0)
(0 0.0036521 0)
(0 0.0036521 0)
(0 0.0036521 0)
(0 0.0036521 0)
(0 0.0036521 0)
(0 0.0036521 0)
(0 0.0036521 0)
(0 0.0036521 0)
(0 0.0036521 0)
(0 0.0036521 0)
(0 0.0036521 0)
(0 0.0036521 0)
(0 0.0036521 0)
(0 0.0036521 0)
(0 0.0036521 0)
(0 0.0036521 0)
(0 0.00360103 0)
(0 0.00359757 0)
(0 0.00359567 0)
(0 0.00355924 0)
(0 0.00356338 0)
(0 0.00340051 0)
(0 0.0033954 0)
(0 0.00337991 0)
(0 0.00322805 0)
(0 0.00324983 0)
(0 0.00306908 0)
(0 0.00304682 0)
(0 0.00283985 0)
(0 0.00286209 0)
(0 0.00261142 0)
(0 0.0025462 0)
(0 0.00205004 0)
(0 0.00153193 0)
(0 0.00103504 0)
(0 0.00060116 0)
(0 0.000266974 0)
(0 6.09383e-05 0)
(0 0 0)
(0 0 0)
(0 0 0)
(0 0 0)
(0 0 0)
(0 0 0)
(0 0 0)
(0 0 0)
(0 0 0)
(0 0 0)
(0 0 0)
(0 0 0)
(0 0 0)
(0 0 0)
(0 3.08891e-05 0)
(0 0.00019402 0)
(0 0.000482586 0)
(0 0.000870672 0)
(0 0.00135365 0)
(0 0.00184752 0)
(0 0.00232925 0)
(0 0.002457 0)
(0 0.00268537 0)
(0 0.00276586 0)
(0 0.0029853 0)
(0 0.00289492 0)
(0 0.00308168 0)
(0 0.00317143 0)
(0 0.00332952 0)
(0 0.00329163 0)
(0 0.00336034 0)
(0 0.00339713 0)
(0 0.0035514 0)
(0 0.00354063 0)
(0 0.00356022 0)
(0 0.00357173 0)
(0 0.00364768 0)
(0 0.00364393 0)
(0 0.00364841 0)
(0 0.00365073 0)
(0 0.0036521 0)
(0 0.0036521 0)
(0 0.0036521 0)
(0 0.0036521 0)
(0 0.0036521 0)
(0 0.0036521 0)
(0 0.0036521 0)
(0 0.0036521 0)
(0 0.00364768 0)
(0 0.00364339 0)
(0 0.00363745 0)
(0 0.00364276 0)
(0 0.0035514 0)
(0 0.00354063 0)
(0 0.00352597 0)
(0 0.00347953 0)
(0 0.00350821 0)
(0 0.00332952 0)
(0 0.00329163 0)
(0 0.00324861 0)
(0 0.00308168 0)
(0 0.00317143 0)
(0 0.00297973 0)
(0 0.00289492 0)
(0 0.00268537 0)
(0 0.00277312 0)
(0 0.002457 0)
(0 0.00232925 0)
(0 0.00184752 0)
(0 0.0013362 0)
(0 0.000879231 0)
(0 0.000488199 0)
(0 0.000197093 0)
(0 3.19272e-05 0)
(0 0 0)
(0 0 0)
(0 0 0)
(0 0 0)
(0 0 0)
(0 0 0)
(0 0 0)
(0 0 0)
(0 0 0)
(0 0 0)
(0 0 0)
(0 0 0)
(0 0 0)
(0 0 0)
(0 3.82207e-06 0)
(0 0.000113457 0)
(0 0.00034549 0)
(0 0.000679376 0)
(0 0.00108459 0)
(0 0.00152556 0)
(0 0.0019883 0)
(0 0.00216376 0)
(0 0.00239904 0)
(0 0.00255332 0)
(0 0.00277128 0)
(0 0.00260503 0)
(0 0.00281133 0)
(0 0.00296081 0)
(0 0.00313497 0)
(0 0.00306514 0)
(0 0.00314206 0)
(0 0.0032113 0)
(0 0.0033982 0)
(0 0.00336711 0)
(0 0.00339539 0)
(0 0.00342122 0)
(0 0.00356338 0)
(0 0.00354293 0)
(0 0.00355786 0)
(0 0.00357752 0)
(0 0.00363725 0)
(0 0.00362581 0)
(0 0.00363083 0)
(0 0.00364128 0)
(0 0.0036521 0)
(0 0.00365007 0)
(0 0.00365086 0)
(0 0.0036521 0)
(0 0.0036521 0)
(0 0.0036521 0)
(0 0.0036521 0)
(0 0.0036521 0)
(0 0.0036521 0)
(0 0.0036521 0)
(0 0.00365007 0)
(0 0.00364895 0)
(0 0.00365197 0)
(0 0.00365207 0)
(0 0.00363725 0)
(0 0.00362581 0)
(0 0.0036196 0)
(0 0.00363206 0)
(0 0.00356338 0)
(0 0.00354293 0)
(0 0.0035263 0)
(0 0.00354749 0)
(0 0.00340071 0)
(0 0.00337216 0)
(0 0.00333785 0)
(0 0.00328113 0)
(0 0.0033428 0)
(0 0.00312636 0)
(0 0.00306158 0)
(0 0.00298592 0)
(0 0.00280747 0)
(0 0.00296081 0)
(0 0.00277128 0)
(0 0.00260503 0)
(0 0.00239904 0)
(0 0.00255332 0)
(0 0.00216376 0)
(0 0.0019883 0)
(0 0.00152556 0)
(0 0.00108459 0)
(0 0.000679376 0)
(0 0.00034549 0)
(0 0.000105833 0)
(0 4.591e-06 0)
(0 0 0)
(0 0 0)
(0 0 0)
(0 0 0)
(0 0 0)
(0 0 0)
(0 0 0)
(0 0 0)
(0 0 0)
(0 0 0)
(0 0 0)
(0 0 0)
(0 0 0)
(0 0 0)
(0 0 0)
(0 3.48735e-05 0)
(0 0.00018377 0)
(0 0.00043237 0)
(0 0.000754743 0)
(0 0.00115753 0)
(0 0.00157398 0)
(0 0.00177044 0)
(0 0.00200226 0)
(0 0.0022005 0)
(0 0.00241542 0)
(0 0.00221096 0)
(0 0.00240609 0)
(0 0.00261742 0)
(0 0.00280032 0)
(0 0.00258423 0)
(0 0.00273335 0)
(0 0.00285717 0)
(0 0.00296125 0)
(0 0.00288368 0)
(0 0.00309964 0)
(0 0.00299143 0)
(0 0.00305832 0)
(0 0.00316084 0)
(0 0.00331404 0)
(0 0.00322127 0)
(0 0.00325837 0)
(0 0.00335454 0)
(0 0.0034498 0)
(0 0.00336758 0)
(0 0.00339173 0)
(0 0.00347257 0)
(0 0.0035202 0)
(0 0.00344434 0)
(0 0.00345772 0)
(0 0.00352953 0)
(0 0.00354201 0)
(0 0.00347195 0)
(0 0.00346833 0)
(0 0.00353915 0)
(0 0.0035202 0)
(0 0.00344434 0)
(0 0.00342534 0)
(0 0.00350557 0)
(0 0.0034498 0)
(0 0.00336758 0)
(0 0.00333739 0)
(0 0.00342107 0)
(0 0.00331404 0)
(0 0.00322127 0)
(0 0.00317329 0)
(0 0.00326709 0)
(0 0.00309964 0)
(0 0.00299143 0)
(0 0.00292863 0)
(0 0.00303279 0)
(0 0.00280032 0)
(0 0.00258423 0)
(0 0.00240609 0)
(0 0.00261742 0)
(0 0.00241542 0)
(0 0.00221096 0)
(0 0.00200226 0)
(0 0.0022005 0)
(0 0.00177044 0)
(0 0.00157398 0)
(0 0.00115753 0)
(0 0.000754743 0)
(0 0.00043237 0)
(0 0.00018377 0)
(0 3.48735e-05 0)
(0 0 0)
(0 0 0)
(0 0 0)
(0 0 0)
(0 0 0)
(0 0 0)
(0 0 0)
(0 0 0)
(0 0 0)
(0 0 0)
(0 0 0)
(0 0 0)
(0 0 0)
(0 0 0)
(0 0 0)
(0 0 0)
(0 0 0)
(0 5.25529e-05 0)
(0 0.000217004 0)
(0 0.000465195 0)
(0 0.000772999 0)
(0 0.00111015 0)
(0 0.00144296 0)
(0 0.00170124 0)
(0 0.00197587 0)
(0 0.00177883 0)
(0 0.00188606 0)
(0 0.00216134 0)
(0 0.00232493 0)
(0 0.00205925 0)
(0 0.00221765 0)
(0 0.00249188 0)
(0 0.00263935 0)
(0 0.00250289 0)
(0 0.00255556 0)
(0 0.00270512 0)
(0 0.00287295 0)
(0 0.00273878 0)
(0 0.00278856 0)
(0 0.00292312 0)
(0 0.00303746 0)
(0 0.00290251 0)
(0 0.00292477 0)
(0 0.00306343 0)
(0 0.00313612 0)
(0 0.00300652 0)
(0 0.00302166 0)
(0 0.00315113 0)
(0 0.00316877 0)
(0 0.00304 0)
(0 0.00303377 0)
(0 0.00316312 0)
(0 0.00313612 0)
(0 0.00300652 0)
(0 0.00298533 0)
(0 0.00311505 0)
(0 0.00303746 0)
(0 0.00290251 0)
(0 0.0028705 0)
(0 0.00300542 0)
(0 0.00287295 0)
(0 0.00273878 0)
(0 0.00268325 0)
(0 0.00281686 0)
(0 0.00263935 0)
(0 0.00250289 0)
(0 0.00234517 0)
(0 0.00221765 0)
(0 0.00249188 0)
(0 0.00232493 0)
(0 0.00205925 0)
(0 0.00188606 0)
(0 0.00216134 0)
(0 0.00197587 0)
(0 0.00170124 0)
(0 0.00144296 0)
(0 0.00111015 0)
(0 0.00177883 0)
(0 0.000772999 0)
(0 0.000465195 0)
(0 0.000217004 0)
(0 5.25529e-05 0)
(0 0 0)
(0 0 0)
(0 0 0)
(0 0 0)
(0 0 0)
(0 0 0)
(0 0 0)
(0 0 0)
(0 0 0)
(0 0 0)
(0 0 0)
(0 0 0)
(0 0 0)
(0 0 0)
(0 0 0)
(0 0 0)
(0 0 0)
(0 0 0)
(0 6.66437e-07 0)
(0 5.97019e-05 0)
(0 0.00020231 0)
(0 0.000396455 0)
(0 0.000648912 0)
(0 0.000918156 0)
(0 0.00117848 0)
(0 0.00133044 0)
(0 0.00161252 0)
(0 0.00177244 0)
(0 0.00145855 0)
(0 0.00160307 0)
(0 0.00190422 0)
(0 0.0020487 0)
(0 0.00189344 0)
(0 0.00195699 0)
(0 0.00211477 0)
(0 0.00228508 0)
(0 0.00212125 0)
(0 0.00216645 0)
(0 0.00233183 0)
(0 0.00243776 0)
(0 0.00227371 0)
(0 0.00231023 0)
(0 0.00247535 0)
(0 0.0025541 0)
(0 0.00238689 0)
(0 0.0024012 0)
(0 0.00256879 0)
(0 0.00258813 0)
(0 0.00242055 0)
(0 0.00241268 0)
(0 0.00258056 0)
(0 0.0025541 0)
(0 0.00238689 0)
(0 0.00236691 0)
(0 0.0025336 0)
(0 0.00243776 0)
(0 0.00227371 0)
(0 0.00223189 0)
(0 0.00240929 0)
(0 0.00228508 0)
(0 0.00212125 0)
(0 0.00207113 0)
(0 0.00223318 0)
(0 0.0020487 0)
(0 0.00189344 0)
(0 0.00173538 0)
(0 0.00160307 0)
(0 0.00190422 0)
(0 0.00177244 0)
(0 0.00145855 0)
(0 0.00133044 0)
(0 0.00161252 0)
(0 0.00117848 0)
(0 0.000918156 0)
(0 0.000648912 0)
(0 0.000396455 0)
(0 0.00020231 0)
(0 5.97019e-05 0)
(0 6.66437e-07 0)
(0 0 0)
(0 0 0)
(0 0 0)
(0 0 0)
(0 0 0)
(0 0 0)
(0 0 0)
(0 0 0)
(0 0 0)
(0 0 0)
(0 0 0)
(0 0 0)
(0 0 0)
(0 0 0)
(0 0 0)
(0 0 0)
(0 0 0)
(0 0 0)
(0 0 0)
(0 0 0)
(0 3.13534e-05 0)
(0 0.000130586 0)
(0 0.000264541 0)
(0 0.000445438 0)
(0 0.000658646 0)
(0 0.000776653 0)
(0 0.00103489 0)
(0 0.00117041 0)
(0 0.000892295 0)
(0 0.00100267 0)
(0 0.00129865 0)
(0 0.00141678 0)
(0 0.0012593 0)
(0 0.00131036 0)
(0 0.00147127 0)
(0 0.00161315 0)
(0 0.00144364 0)
(0 0.00146797 0)
(0 0.00163507 0)
(0 0.00175844 0)
(0 0.00158446 0)
(0 0.00161493 0)
(0 0.00179065 0)
(0 0.00185853 0)
(0 0.00167923 0)
(0 0.00169128 0)
(0 0.00187125 0)
(0 0.00188978 0)
(0 0.00170927 0)
(0 0.00170096 0)
(0 0.00188146 0)
(0 0.00185853 0)
(0 0.00167923 0)
(0 0.00166243 0)
(0 0.00184081 0)
(0 0.00175844 0)
(0 0.00158446 0)
(0 0.00154969 0)
(0 0.00172166 0)
(0 0.00161315 0)
(0 0.00144364 0)
(0 0.00140278 0)
(0 0.0015697 0)
(0 0.00141678 0)
(0 0.0012593 0)
(0 0.00110509 0)
(0 0.00100267 0)
(0 0.00129865 0)
(0 0.00117041 0)
(0 0.000892295 0)
(0 0.000776653 0)
(0 0.00103489 0)
(0 0.000658646 0)
(0 0.000445438 0)
(0 0.000264541 0)
(0 0.000130586 0)
(0 3.13534e-05 0)
(0 0 0)
(0 0 0)
(0 0 0)
(0 0 0)
(0 0 0)
(0 0 0)
(0 0 0)
(0 0 0)
(0 0 0)
(0 0 0)
(0 0 0)
(0 0 0)
(0 0 0)
(0 0 0)
(0 0 0)
(0 0 0)
(0 0 0)
(0 0 0)
(0 0 0)
(0 0 0)
(0 0 0)
(0 0 0)
(0 0 0)
(0 2.66998e-06 0)
(0 4.52893e-05 0)
(0 0.000126396 0)
(0 0.000265152 0)
(0 0.000337339 0)
(0 0.000540741 0)
(0 0.000635462 0)
(0 0.00041064 0)
(0 0.000482574 0)
(0 0.000726897 0)
(0 0.000812531 0)
(0 0.000677123 0)
(0 0.000713144 0)
(0 0.000852453 0)
(0 0.000948604 0)
(0 0.000802832 0)
(0 0.000836629 0)
(0 0.000985741 0)
(0 0.00107932 0)
(0 0.000922032 0)
(0 0.000944561 0)
(0 0.00110395 0)
(0 0.00115611 0)
(0 0.000992345 0)
(0 0.00100134 0)
(0 0.00116592 0)
(0 0.00118158 0)
(0 0.00101603 0)
(0 0.00100857 0)
(0 0.0011738 0)
(0 0.00115611 0)
(0 0.000992345 0)
(0 0.000979827 0)
(0 0.00114245 0)
(0 0.00107932 0)
(0 0.000922032 0)
(0 0.000896422 0)
(0 0.0010513 0)
(0 0.000948604 0)
(0 0.000802832 0)
(0 0.000766726 0)
(0 0.00090886 0)
(0 0.000812531 0)
(0 0.000677123 0)
(0 0.000550823 0)
(0 0.000482574 0)
(0 0.000726897 0)
(0 0.000635462 0)
(0 0.00041064 0)
(0 0.000337339 0)
(0 0.000540741 0)
(0 0.000265152 0)
(0 0.000126396 0)
(0 4.52893e-05 0)
(0 2.66998e-06 0)
(0 0 0)
(0 0 0)
(0 0 0)
(0 0 0)
(0 0 0)
(0 0 0)
(0 0 0)
(0 0 0)
(0 0 0)
(0 0 0)
(0 0 0)
(0 0 0)
(0 0 0)
(0 0 0)
(0 0 0)
(0 0 0)
(0 0 0)
(0 0 0)
(0 0 0)
(0 0 0)
(0 0 0)
(0 0 0)
(0 0 0)
(0 0 0)
(0 0 0)
(0 0 0)
(0 4.83989e-07 0)
(0 3.63618e-05 0)
(0 6.33358e-05 0)
(0 0.000175624 0)
(0 0.000227544 0)
(0 9.44409e-05 0)
(0 0.000127705 0)
(0 0.000279925 0)
(0 0.000330662 0)
(0 0.000227614 0)
(0 0.000250915 0)
(0 0.000343156 0)
(0 0.000421338 0)
(0 0.000317092 0)
(0 0.00033718 0)
(0 0.000444857 0)
(0 0.000505003 0)
(0 0.000388865 0)
(0 0.000402705 0)
(0 0.000521027 0)
(0 0.000555221 0)
(0 0.000432326 0)
(0 0.000437942 0)
(0 0.000561689 0)
(0 0.000572938 0)
(0 0.000447912 0)
(0 0.000442465 0)
(0 0.000566896 0)
(0 0.000555221 0)
(0 0.000432326 0)
(0 0.000424532 0)
(0 0.000546237 0)
(0 0.000505003 0)
(0 0.000388865 0)
(0 0.000373233 0)
(0 0.000486864 0)
(0 0.000421338 0)
(0 0.000317092 0)
(0 0.000295879 0)
(0 0.000396402 0)
(0 0.000330662 0)
(0 0.000227614 0)
(0 0.000153061 0)
(0 0.000127705 0)
(0 0.000279925 0)
(0 0.000227544 0)
(0 9.44409e-05 0)
(0 6.33358e-05 0)
(0 0.000175624 0)
(0 3.63618e-05 0)
(0 4.83989e-07 0)
(0 0 0)
(0 0 0)
(0 0 0)
(0 0 0)
(0 0 0)
(0 0 0)
(0 0 0)
(0 0 0)
(0 0 0)
(0 0 0)
(0 0 0)
(0 0 0)
(0 0 0)
(0 0 0)
(0 0 0)
(0 0 0)
(0 0 0)
(0 0 0)
(0 0 0)
(0 0 0)
(0 0 0)
(0 0 0)
(0 0 0)
(0 0 0)
(0 0 0)
(0 0 0)
(0 0 0)
(0 0 0)
(0 0 0)
(0 0 0)
(0 0 0)
(0 1.7775e-05 0)
(0 6.42902e-06 0)
(0 0 0)
(0 2.79512e-05 0)
(0 4.6696e-05 0)
(0 1.42959e-06 0)
(0 6.24868e-06 0)
(0 6.72927e-05 0)
(0 8.81632e-05 0)
(0 1.31762e-05 0)
(0 2.09803e-05 0)
(0 0.000107884 0)
(0 0.000125217 0)
(0 2.85855e-05 0)
(0 3.50993e-05 0)
(0 0.000139142 0)
(0 0.00014887 0)
(0 3.9833e-05 0)
(0 4.23185e-05 0)
(0 0.00015387 0)
(0 0.00015787 0)
(0 4.44419e-05 0)
(0 4.23185e-05 0)
(0 0.00015387 0)
(0 0.00014887 0)
(0 3.9833e-05 0)
(0 3.50993e-05 0)
(0 0.000139142 0)
(0 0.000125217 0)
(0 2.85855e-05 0)
(0 2.09803e-05 0)
(0 0.000107884 0)
(0 8.81632e-05 0)
(0 1.31762e-05 0)
(0 6.24868e-06 0)
(0 6.72927e-05 0)
(0 4.6696e-05 0)
(0 1.42959e-06 0)
(0 0 0)
(0 2.79512e-05 0)
(0 1.7775e-05 0)
(0 0 0)
(0 0 0)
(0 0 0)
(0 6.42902e-06 0)
(0 0 0)
(0 0 0)
(0 0 0)
(0 0 0)
(0 0 0)
(0 0 0)
(0 0 0)
(0 0 0)
(0 0 0)
(0 0 0)
(0 0 0)
(0 0 0)
(0 0 0)
(0 0 0)
(0 0 0)
(0 0 0)
(0 0 0)
(0 0 0)
(0 0 0)
(0 0 0)
(0 0 0)
(0 0 0)
(0 0 0)
(0 0 0)
(0 0 0)
(0 0 0)
(0 0 0)
(0 0 0)
(0 0 0)
(0 0 0)
(0 0 0)
(0 0 0)
(0 0 0)
(0 0 0)
(0 0 0)
(0 0 0)
(0 0 0)
(0 0 0)
(0 0 0)
(0 0 0)
(0 1.28476e-07 0)
(0 0 0)
(0 0 0)
(0 4.94419e-07 0)
(0 2.94171e-07 0)
(0 0 0)
(0 1.28476e-07 0)
(0 2.94171e-07 0)
(0 0 0)
(0 0 0)
(0 0 0)
(0 0 0)
(0 0 0)
(0 0 0)
(0 0 0)
(0 0 0)
(0 0 0)
(0 0 0)
(0 0 0)
(0 0 0)
(0 0 0)
(0 0 0)
(0 0 0)
(0 0 0)
(0 0 0)
(0 0 0)
(0 0 0)
(0 0 0)
(0 0 0)
(0 0 0)
(0 0 0)
(0 0 0)
(0 0 0)
(0 0 0)
(0 0 0)
(0 0 0)
(0 0 0)
(0 0 0)
(0 0 0)
(0 0 0)
(0 0 0)
(0 0 0)
(0 0 0)
(0 0 0)
(0 0 0)
(0 0 0)
(0 0 0)
(0 0 0)
(0 0 0)
(0 0 0)
(0 0 0)
(0 0 0)
(0 0 0)
(0 0 0)
(0 0 0)
(0 0 0)
(0 0 0)
(0 0 0)
(0 0 0)
(0 0 0)
(0 0 0)
(0 0 0)
(0 0 0)
(0 0 0)
(0 0 0)
(0 0 0)
(0 0 0)
(0 0 0)
(0 0 0)
(0 0 0)
(0 0 0)
(0 0 0)
(0 0 0)
(0 0 0)
(0 0 0)
(0 0 0)
(0 0 0)
(0 0 0)
(0 0 0)
(0 0 0)
(0 0 0)
(0 0 0)
(0 0 0)
(0 0 0)
(0 0 0)
(0 0 0)
(0 0 0)
(0 0 0)
(0 0 0)
(0 0 0)
(0 0 0)
(0 0 0)
(0 0 0)
(0 0 0)
(0 0 0)
(0 0 0)
(0 0 0)
(0 0 0)
(0 0 0)
(0 0 0)
(0 0 0)
(0 0 0)
(0 0 0)
(0 0 0)
(0 0 0)
(0 0 0)
(0 0 0)
(0 0 0)
(0 0 0)
(0 0 0)
(0 0 0)
(0 0 0)
(0 0 0)
(0 0 0)
(0 0 0)
(0 0 0)
(0 0 0)
(0 0 0)
(0 0 0)
(0 0 0)
(0 0 0)
(0 0 0)
(0 0 0)
(0 0 0)
(0 0 0)
(0 0 0)
(0 0 0)
(0 0 0)
(0 0 0)
(0 0 0)
(0 0 0)
(0 0 0)
(0 0 0)
(0 0 0)
(0 0 0)
(0 0 0)
(0 0 0)
(0 0 0)
(0 0 0)
(0 0 0)
(0 0 0)
(0 0 0)
(0 0 0)
(0 0 0)
(0 0 0)
(0 0 0)
(0 0 0)
(0 0 0)
(0 0 0)
(0 0 0)
(0 0 0)
(0 0 0)
(0 0 0)
(0 0 0)
(0 0 0)
(0 0 0)
(0 0 0)
(0 0 0)
(0 0 0)
(0 0 0)
(0 0 0)
(0 0 0)
(0 0 0)
(0 0 0)
(0 0 0)
(0 0 0)
(0 0 0)
(0 0 0)
(0 0 0)
(0 0 0)
(0 0 0)
(0 0 0)
(0 0 0)
(0 0 0)
(0 0 0)
(0 0 0)
(0 0 0)
(0 0 0)
(0 0 0)
(0 0 0)
(0 0 0)
(0 0 0)
(0 0 0)
(0 0 0)
(0 0 0)
(0 0 0)
(0 0 0)
(0 0 0)
(0 0 0)
(0 0 0)
(0 0 0)
(0 0 0)
(0 0 0)
(0 0 0)
(0 0 0)
(0 0 0)
(0 0 0)
(0 0 0)
(0 0 0)
(0 0 0)
(0 0 0)
(0 0 0)
(0 0 0)
(0 0 0)
(0 0 0)
(0 0 0)
(0 0 0)
(0 0 0)
(0 0 0)
(0 0 0)
(0 0 0)
(0 0 0)
(0 0 0)
(0 0 0)
(0 0 0)
(0 0 0)
(0 0 0)
(0 0 0)
(0 0 0)
(0 0 0)
(0 0 0)
(0 0 0)
(0 0 0)
(0 0 0)
(0 0 0)
(0 0 0)
(0 0 0)
(0 0 0)
(0 0 0)
(0 0 0)
(0 0 0)
(0 0 0)
(0 0 0)
(0 0 0)
(0 0 0)
(0 0 0)
(0 0 0)
(0 0 0)
(0 0 0)
(0 0 0)
(0 0 0)
(0 0 0)
(0 0 0)
(0 0 0)
(0 0 0)
(0 0 0)
(0 0 0)
(0 0 0)
(0 0 0)
(0 0 0)
(0 0 0)
(0 0 0)
(0 0 0)
(0 0 0)
(0 0 0)
(0 0 0)
(0 0 0)
(0 0 0)
(0 0 0)
(0 0 0)
(0 0 0)
(0 0 0)
(0 0 0)
(0 0 0)
(0 0 0)
(0 0 0)
(0 0 0)
(0 0 0)
(0 0 0)
(0 0 0)
(0 0 0)
(0 0 0)
(0 0 0)
(0 0 0)
(0 0 0)
(0 0 0)
(0 0 0)
(0 0 0)
(0 0 0)
(0 0 0)
(0 0 0)
(0 0 0)
(0 0 0)
(0 0 0)
(0 0 0)
(0 0 0)
(0 0 0)
(0 0 0)
(0 0 0)
(0 0 0)
(0 0 0)
(0 0 0)
(0 0 0)
(0 0 0)
(0 0 0)
(0 0 0)
(0 0 0)
(0 0 0)
(0 0 0)
(0 0 0)
(0 0 0)
(0 0 0)
(0 0 0)
(0 0 0)
(0 0 0)
(0 0 0)
(0 0 0)
(0 0 0)
(0 0 0)
(0 0 0)
(0 0 0)
(0 0 0)
(0 0 0)
(0 0 0)
(0 0 0)
(0 0 0)
(0 0 0)
(0 0 0)
(0 0 0)
(0 0 0)
(0 0 0)
(0 0 0)
(0 0 0)
(0 0 0)
(0 0 0)
(0 0 0)
(0 0 0)
(0 0 0)
(0 0 0)
(0 0 0)
(0 0 0)
(0 0 0)
(0 0 0)
(0 0 0)
(0 0 0)
(0 0 0)
(0 0 0)
(0 0 0)
(0 0 0)
(0 0 0)
(0 0 0)
(0 0 0)
(0 0 0)
(0 0 0)
(0 0 0)
(0 0 0)
(0 0 0)
(0 0 0)
(0 0 0)
(0 0 0)
(0 0 0)
(0 0 0)
(0 0 0)
(0 0 0)
(0 0 0)
(0 0 0)
(0 0 0)
(0 0 0)
(0 0 0)
(0 0 0)
(0 0 0)
(0 0 0)
(0 0 0)
(0 0 0)
(0 0 0)
(0 0 0)
(0 0 0)
(0 0 0)
(0 0 0)
(0 0 0)
(0 0 0)
(0 0 0)
(0 0 0)
(0 0 0)
(0 0 0)
(0 0 0)
(0 0 0)
(0 0 0)
(0 0 0)
(0 0 0)
(0 0 0)
(0 0 0)
(0 0 0)
(0 0 0)
(0 0 0)
(0 0 0)
(0 0 0)
(0 0 0)
(0 0 0)
(0 0 0)
(0 0 0)
(0 0 0)
(0 0 0)
(0 0 0)
(0 0 0)
(0 0 0)
(0 0 0)
(0 0 0)
(0 0 0)
(0 0 0)
(0 0 0)
(0 0 0)
(0 0 0)
(0 0 0)
(0 0 0)
(0 0 0)
(0 0 0)
(0 0 0)
(0 0 0)
(0 0 0)
(0 0 0)
(0 0 0)
(0 0 0)
(0 0 0)
(0 0 0)
(0 0 0)
(0 0 0)
(0 0 0)
(0 0 0)
(0 0 0)
(0 0 0)
(0 0 0)
(0 0 0)
(0 0 0)
(0 0 0)
(0 0 0)
(0 0 0)
(0 0 0)
(0 0 0)
(0 0 0)
(0 0 0)
(0 0 0)
(0 0 0)
(0 0 0)
(0 0 0)
(0 0 0)
(0 0 0)
(0 0 0)
(0 0 0)
(0 0 0)
(0 0 0)
(0 0 0)
(0 0 0)
(0 0 0)
(0 0 0)
(0 0 0)
(0 0 0)
(0 0 0)
(0 0 0)
(0 0 0)
(0 0 0)
(0 0 0)
(0 0 0)
(0 0 0)
(0 0 0)
(0 0 0)
(0 0 0)
(0 0 0)
(0 0 0)
(0 0 0)
(0 0 0)
(0 0 0)
(0 0 0)
(0 0 0)
(0 0 0)
(0 0 0)
(0 0 0)
(0 0 0)
(0 0 0)
(0 0 0)
(0 0 0)
(0 0 0)
(0 0 0)
(0 0 0)
(0 0 0)
(0 0 0)
(0 0 0)
(0 0 0)
(0 0 0)
(0 0 0)
(0 0 0)
(0 0 0)
(0 0 0)
(0 0 0)
(0 0 0)
(0 0 0)
(0 0 0)
(0 0 0)
(0 0 0)
(0 0 0)
(0 0 0)
(0 0 0)
(0 0 0)
(0 0 0)
(0 0 0)
(0 0 0)
(0 0 0)
(0 0 0)
(0 0 0)
(0 0 0)
(0 0 0)
(0 0 0)
(0 0 0)
(0 0 0)
(0 0 0)
(0 0 0)
(0 0 0)
(0 0 0)
(0 0 0)
(0 0 0)
(0 0 0)
(0 0 0)
(0 0 0)
(0 0 0)
(0 0 0)
(0 0 0)
(0 0 0)
(0 0 0)
(0 0 0)
(0 0 0)
(0 0 0)
(0 0 0)
(0 0 0)
(0 0 0)
(0 0 0)
(0 0 0)
(0 0 0)
(0 0 0)
(0 0 0)
(0 0 0)
(0 0 0)
(0 0 0)
(0 0 0)
(0 0 0)
(0 0 0)
(0 0 0)
(0 0 0)
(0 0 0)
(0 0 0)
(0 0 0)
(0 0 0)
(0 0 0)
(0 0 0)
(0 0 0)
(0 0 0)
(0 0 0)
(0 0 0)
(0 0 0)
(0 0 0)
(0 0 0)
(0 0 0)
(0 0 0)
(0 0 0)
(0 0 0)
(0 0 0)
(0 0 0)
(0 0 0)
(0 0 0)
(0 0 0)
(0 0 0)
(0 0 0)
(0 0 0)
(0 0 0)
(0 0 0)
(0 0 0)
(0 0 0)
(0 0 0)
(0 0 0)
(0 0 0)
(0 0 0)
(0 0 0)
(0 0 0)
(0 0 0)
(0 0 0)
(0 0 0)
(0 0 0)
(0 0 0)
(0 0 0)
(0 0 0)
(0 0 0)
(0 0 0)
(0 0 0)
(0 0 0)
(0 0 0)
(0 0 0)
(0 0 0)
(0 0 0)
(0 0 0)
(0 0 0)
(0 0 0)
(0 0 0)
(0 0 0)
(0 0 0)
(0 0 0)
(0 0 0)
(0 0 0)
(0 0 0)
(0 0 0)
(0 0 0)
(0 0 0)
(0 0 0)
(0 0 0)
(0 0 0)
(0 0 0)
(0 0 0)
(0 0 0)
(0 0 0)
(0 0 0)
(0 0 0)
(0 0 0)
(0 0 0)
(0 0 0)
(0 0 0)
(0 0 0)
(0 0 0)
(0 0 0)
(0 0 0)
(0 0 0)
(0 0 0)
(0 0 0)
(0 0 0)
(0 0 0)
(0 0 0)
(0 0 0)
(0 0 0)
(0 0 0)
(0 0 0)
(0 0 0)
(0 0 0)
(0 0 0)
(0 0 0)
(0 0 0)
(0 0 0)
(0 0 0)
(0 0 0)
(0 0 0)
(0 0 0)
(0 0 0)
(0 0 0)
(0 0 0)
(0 0 0)
(0 0 0)
(0 0 0)
(0 0 0)
(0 0 0)
(0 0 0)
(0 0 0)
(0 0 0)
(0 0 0)
(0 0 0)
(0 0 0)
(0 0 0)
(0 0 0)
(0 0 0)
(0 0 0)
(0 0 0)
(0 0 0)
(0 0 0)
(0 0 0)
(0 0 0)
(0 0 0)
(0 0 0)
(0 0 0)
(0 0 0)
(0 0 0)
(0 0 0)
(0 0 0)
(0 0 0)
(0 0 0)
(0 0 0)
(0 0 0)
(0 0 0)
(0 0 0)
(0 0 0)
(0 0 0)
(0 0 0)
(0 0 0)
(0 0 0)
(0 0 0)
(0 0 0)
(0 0 0)
(0 0 0)
(0 0 0)
(0 0 0)
(0 0 0)
(0 0 0)
(0 0 0)
(0 0 0)
(0 0 0)
(0 0 0)
(0 0 0)
(0 0 0)
(0 0 0)
(0 0 0)
(0 0 0)
(0 0 0)
(0 0 0)
(0 0 0)
(0 0 0)
(0 0 0)
(0 0 0)
(0 0 0)
(0 0 0)
(0 0 0)
(0 0 0)
(0 0 0)
(0 0 0)
(0 0 0)
(0 0 0)
(0 0 0)
(0 0 0)
(0 0 0)
(0 0 0)
(0 0 0)
(0 0 0)
(0 0 0)
(0 0 0)
(0 0 0)
(0 0 0)
(0 0 0)
(0 0 0)
(0 0 0)
(0 0 0)
(0 0 0)
(0 0 0)
(0 0 0)
(0 0 0)
(0 0 0)
(0 0 0)
(0 0 0)
(0 0 0)
(0 0 0)
(0 0 0)
(0 0 0)
(0 0 0)
(0 0 0)
(0 0 0)
(0 0 0)
(0 0 0)
(0 0 0)
(0 0 0)
(0 0 0)
(0 0 0)
(0 0 0)
(0 0 0)
(0 0 0)
(0 0 0)
(0 0 0)
(0 0 0)
(0 0 0)
(0 0 0)
(0 0 0)
(0 0 0)
(0 0 0)
(0 0 0)
(0 0 0)
(0 0 0)
(0 0 0)
(0 0 0)
(0 0 0)
(0 0 0)
(0 0 0)
(0 0 0)
(0 0 0)
(0 0 0)
(0 0 0)
(0 0 0)
(0 0 0)
(0 0 0)
(0 0 0)
(0 0 0)
(0 0 0)
(0 0 0)
(0 0 0)
(0 0 0)
(0 0 0)
(0 0 0)
(0 0 0)
(0 0 0)
(0 0 0)
(0 0 0)
(0 0 0)
(0 0 0)
(0 0 0)
(0 0 0)
(0 0 0)
(0 0 0)
(0 0 0)
(0 0 0)
(0 0 0)
(0 0 0)
(0 0 0)
(0 0 0)
(0 0 0)
(0 0 0)
(0 0 0)
(0 0 0)
(0 0 0)
(0 0 0)
(0 0 0)
(0 0 0)
(0 0 0)
(0 0 0)
(0 0 0)
(0 0 0)
(0 0 0)
(0 0 0)
(0 0 0)
(0 0 0)
(0 0 0)
(0 0 0)
(0 0 0)
(0 0 0)
(0 0 0)
(0 0 0)
(0 0 0)
(0 0 0)
(0 0 0)
(0 0 0)
(0 0 0)
(0 0 0)
(0 0 0)
(0 0 0)
(0 0 0)
(0 0 0)
(0 0 0)
(0 0 0)
(0 0 0)
(0 0 0)
(0 0 0)
(0 0 0)
(0 0 0)
(0 0 0)
(0 0 0)