/*--------------------------------*- C++ -*----------------------------------*\
| =========                 |                                                 |
| \\      /  F ield         | OpenFOAM: The Open Source CFD Toolbox           |
|  \\    /   O peration     | Version:  v2106                                 |
|   \\  /    A nd           | Website:  www.openfoam.com                      |
|    \\/     M anipulation  |                                                 |
\*---------------------------------------------------------------------------*/
FoamFile
{
    version     2.0;
    format      ascii;
    arch        "LSB;label=32;scalar=64";
    class       volScalarField;
    location    "0";
    object      p;
}
// * * * * * * * * * * * * * * * * * * * * * * * * * * * * * * * * * * * * * //

dimensions      [0 2 -2 0 0 0 0];

internalField   nonuniform List<scalar> 
11644
(
0.0610238
0.0614091
0.062215
0.0634515
0.0651191
0.0672187
0.0697517
0.0727128
0.0760848
0.0798352
0.0839031
0.0882058
0.0926312
0.097005
0.101158
0.104901
0.107949
0.11007
0.111206
0.111289
0.110233
0.108002
0.104664
0.10041
0.0954558
0.0900349
0.0843725
0.0786532
0.0730701
0.0677629
0.06284
0.0583759
0.0544097
0.050963
0.0480401
0.0456342
0.043734
0.0423295
0.0414192
0.0409869
0.0603347
0.0607151
0.061502
0.0627118
0.0643534
0.0664344
0.0689618
0.0719377
0.0753544
0.0791872
0.0833952
0.0879043
0.0925901
0.0973039
0.10183
0.105908
0.109271
0.111716
0.113157
0.113405
0.112299
0.109864
0.106225
0.101597
0.0962054
0.0903429
0.0842684
0.0782251
0.0723874
0.0669108
0.061889
0.057379
0.053408
0.0499832
0.0470978
0.0447379
0.0428858
0.041527
0.0406455
0.0402191
0.058874
0.0592577
0.0600282
0.0611994
0.0627933
0.0648321
0.0673349
0.0703195
0.0737968
0.0777708
0.0822226
0.0870929
0.092293
0.0976547
0.102954
0.107886
0.112169
0.115535
0.117656
0.118197
0.117011
0.114119
0.109688
0.104101
0.0977337
0.0909129
0.0839819
0.0772415
0.0709052
0.0651042
0.0599084
0.0553332
0.051373
0.0480053
0.0451991
0.0429252
0.0411535
0.0398545
0.0389986
0.03857
0.0566722
0.057047
0.0577889
0.0589064
0.0604274
0.062388
0.064827
0.0677865
0.071311
0.0754368
0.0801823
0.0855603
0.0915095
0.0979136
0.104512
0.110968
0.116888
0.121821
0.125092
0.126208
0.124878
0.121178
0.115367
0.107997
0.0999344
0.0915193
0.0832279
0.075472
0.0684287
0.0621944
0.0567867
0.0521637
0.048256
0.0449954
0.0423214
0.0401784
0.0385195
0.0373013
0.0364916
0.0360833
0.0537999
0.0541399
0.0548193
0.0558473
0.0572517
0.0590788
0.0613863
0.0642437
0.067733
0.0719437
0.0769812
0.0829207
0.0897959
0.097541
0.105999
0.114781
0.123227
0.130789
0.136145
0.138385
0.136869
0.131764
0.123613
0.113266
0.102638
0.0917411
0.081465
0.0723365
0.0644763
0.057849
0.0523183
0.0477356
0.0439741
0.0409138
0.0384526
0.0365078
0.035015
0.0339246
0.0332024
0.0328378
0.0503219
0.0506098
0.0511869
0.052066
0.0532844
0.0548907
0.0569558
0.0595739
0.0628669
0.0669938
0.0721235
0.0784246
0.0860984
0.0954465
0.106484
0.118578
0.130987
0.143188
0.152365
0.15674
0.154922
0.14712
0.134914
0.120023
0.105223
0.090577
0.0777346
0.0671128
0.0584811
0.0516031
0.0461703
0.0418593
0.0384368
0.0357312
0.033608
0.0319628
0.0307176
0.0298196
0.0292342
0.0289453
0.046324
0.04654
0.0469724
0.0476446
0.0485883
0.0498542
0.0515197
0.0536943
0.056534
0.0602203
0.0649705
0.0711208
0.0791534
0.0898093
0.103795
0.120838
0.133756
0.151424
0.166659
0.176094
0.176439
0.167187
0.15075
0.131327
0.10518
0.0859727
0.0702958
0.0584586
0.0496948
0.0430288
0.0380534
0.0343521
0.0315727
0.0294582
0.0278521
0.0266431
0.0257517
0.0251242
0.0247215
0.0245239
0.0419344
0.0420534
0.0423017
0.0426961
0.0432628
0.0440526
0.0451298
0.0466001
0.0486076
0.0513025
0.0549719
0.0601735
0.0675063
0.0783288
0.0929733
0.112799
0.139631
0.167935
0.195882
0.214689
0.216479
0.19978
0.170272
0.137626
0.105956
0.082408
0.0648335
0.0450774
0.0371792
0.0316404
0.0278246
0.0252018
0.0234274
0.0221944
0.0213229
0.0207085
0.0202818
0.0199921
0.0198154
0.0197248
0.0372739
0.0372905
0.037323
0.0373766
0.0374778
0.0376509
0.0379342
0.0384018
0.039134
0.0402324
0.042012
0.0449918
0.0498653
0.0628016
0.0771062
0.0993227
0.129235
0.175313
0.224062
0.266072
0.276975
0.248002
0.196109
0.140793
0.0987663
0.0628253
0.0447856
0.0248427
0.0201158
0.0171954
0.0154857
0.0145913
0.0142395
0.0141806
0.0142456
0.0143676
0.0145021
0.0146235
0.0147104
0.0147661
0.0325213
0.0324148
0.032206
0.0318896
0.0314599
0.0309077
0.030235
0.0294404
0.0285145
0.0274923
0.0265281
0.0259078
0.0257352
0.035206
0.0430526
0.0645752
0.0981456
0.1562
0.246708
0.350113
0.390187
0.321355
0.206806
0.117333
0.0569633
0.0201152
0.0102059
-0.00238383
-0.00131361
-0.000106561
0.0013565
0.00291231
0.0044199
0.00580098
0.00697391
0.00794211
0.00870157
0.00926637
0.00963433
0.00980736
0.027854
0.0276492
0.0271956
0.0264884
0.0254887
0.0241675
0.0224718
0.0203112
0.0175272
0.0139983
0.00950921
0.00381092
-0.00346223
-0.00351313
-0.00824906
-0.00477676
0.00872566
0.042702
0.15458
0.404348
0.582062
0.338368
0.0881481
-0.0130085
-0.0423975
-0.0472957
-0.0381325
-0.0345797
-0.0261073
-0.0192863
-0.0136504
-0.00909409
-0.00542842
-0.00243994
-6.8944e-05
0.00177551
0.00318021
0.00418611
0.00485043
0.00517021
0.0235222
0.0231684
0.022487
0.0214185
0.0199089
0.0178756
0.0152153
0.0117681
0.00720631
0.001155
-0.00698062
-0.0180795
-0.0337112
-0.0410171
-0.0681232
-0.0931869
-0.137627
-0.226301
-0.449641
-0.588597
-0.297255
-0.182749
-0.127072
-0.090546
-0.0682843
-0.050896
-0.0377974
-0.0278818
-0.0203199
-0.014484
-0.00991492
-0.00638983
-0.00371372
-0.00169713
-0.000254357
0.000664516
0.00114021
0.0196055
0.0191789
0.0183148
0.0169695
0.0150708
0.0124795
0.00907374
0.00463639
-0.00125428
-0.00913118
-0.0198223
-0.0344144
-0.0550256
-0.0730343
-0.113856
-0.163023
-0.248665
-0.404863
-0.558362
-0.674475
-0.458294
-0.27928
-0.1873
-0.133574
-0.0940334
-0.0702558
-0.0524617
-0.0392964
-0.0293517
-0.0217579
-0.0159266
-0.0114796
-0.00811081
-0.00560051
-0.00382674
-0.00270417
-0.00217109
0.0162187
0.0158192
0.0148429
0.0133388
0.0112198
0.00833791
0.00454398
-0.000393767
-0.00685101
-0.0152898
-0.0265504
-0.0415403
-0.0618369
-0.0841506
-0.124414
-0.178784
-0.268639
-0.414066
-0.482243
-0.46571
-0.412525
-0.29824
-0.209198
-0.153799
-0.106197
-0.0804656
-0.0606995
-0.0460065
-0.0348438
-0.0263315
-0.0198361
-0.0148911
-0.011121
-0.00832643
-0.00635922
-0.00508193
-0.00448945
0.0137272
0.013148
0.0121825
0.0106905
0.00857549
0.00570275
0.00190201
-0.00297145
-0.00916521
-0.0169566
-0.0267939
-0.0392302
-0.0544306
-0.0734407
-0.0996928
-0.139936
-0.204941
-0.326141
-0.451517
-0.468945
-0.523225
-0.505103
-0.453791
-0.401084
-0.291953
-0.20423
-0.1515
-0.104109
-0.0799391
-0.0612418
-0.0470038
-0.035984
-0.027589
-0.0211869
-0.016256
-0.0124711
-0.00965358
-0.00765147
-0.0063563
-0.00569079
0.0119805
0.0116012
0.0106725
0.00924046
0.00724522
0.00459194
0.00111283
-0.00320438
-0.00840787
-0.0145732
-0.0216905
-0.0294803
-0.0372312
-0.0487337
-0.0557409
-0.0575176
-0.0624232
-0.0680176
-0.246602
-0.555887
-0.774084
-0.740322
-0.598139
-0.391082
-0.265372
-0.178039
-0.132319
-0.0891307
-0.0693115
-0.0539444
-0.0420277
-0.032699
-0.0254262
-0.0197845
-0.0154144
-0.0120231
-0.00946869
-0.00763287
-0.00646165
-0.00595346
0.0111697
0.0109333
0.0101615
0.00889281
0.00712619
0.00486252
0.00198994
-0.00150229
-0.00543136
-0.0096947
-0.0140606
-0.018019
-0.0201013
-0.0206735
-0.0190715
-0.000727866
0.0346732
0.0838701
-0.111875
-0.494122
-0.730205
-0.684462
-0.475072
-0.297648
-0.182703
-0.131907
-0.0820453
-0.0646668
-0.0508331
-0.0402008
-0.0319448
-0.0253708
-0.0200721
-0.0158522
-0.0124796
-0.00982666
-0.00780436
-0.00634488
-0.0053974
-0.00491253
0.0112138
0.0108859
0.0102734
0.00930542
0.00792903
0.00616618
0.00400006
0.00140575
-0.0015033
-0.00454718
-0.00751605
-0.010262
-0.0120814
-0.0122936
-0.0117075
-0.00551826
0.0135933
0.032965
-0.078777
-0.273755
-0.380615
-0.341393
-0.237992
-0.162754
-0.0993644
-0.0735491
-0.0419742
-0.0343461
-0.0275762
-0.0225317
-0.0185215
-0.0152186
-0.0124255
-0.0100284
-0.00792305
-0.00619475
-0.00484188
-0.0038432
-0.00318423
-0.00279966
0.0119681
0.0116454
0.0111201
0.0103768
0.00936852
0.00807757
0.00650582
0.00462273
0.0023997
-0.000170953
-0.00314145
-0.00695677
-0.0120583
-0.0179917
-0.025341
-0.0482447
-0.0786749
-0.128399
-0.18471
-0.239275
-0.239053
-0.181793
-0.119623
-0.0713801
-0.0279706
-0.016919
-0.00421
-0.00426971
-0.00463046
-0.00487175
-0.00485057
-0.00452619
-0.00401966
-0.00332605
-0.00249059
-0.00173255
-0.00108141
-0.000572362
-0.000241697
-5.8656e-05
0.0132741
0.0130634
0.0126668
0.0121066
0.0113714
0.0104465
0.00930177
0.00789555
0.00610484
0.00377463
0.000577872
-0.00416827
-0.011889
-0.0233881
-0.0370985
-0.0740173
-0.135532
-0.247623
-0.341735
-0.37558
-0.326462
-0.208696
-0.0880374
-0.0133784
0.021498
0.0246048
0.0252985
0.0205814
0.0139368
0.00992714
0.00692155
0.0049858
0.00383553
0.0032449
0.00295214
0.00283859
0.00287175
0.00295769
0.00304198
0.00306968
0.014942
0.014831
0.0146103
0.0142833
0.0138421
0.0132802
0.0125615
0.011611
0.0102977
0.00845292
0.00571791
0.00144924
-0.00567064
-0.0173069
-0.0326929
-0.0643431
-0.119429
-0.219494
-0.328184
-0.385545
-0.352045
-0.227415
-0.0838211
0.00723438
0.0478382
0.0498472
0.0457218
0.0370588
0.027648
0.021039
0.0162673
0.0128835
0.0105524
0.00893498
0.00779665
0.00705259
0.00661175
0.00636636
0.00624996
0.00619062
0.0167893
0.0167482
0.0167102
0.0166464
0.0165383
0.0163823
0.0161536
0.0157899
0.0152241
0.0143258
0.0128461
0.0101403
0.00567242
-0.00291246
-0.0152064
-0.0355274
-0.0701274
-0.122102
-0.180685
-0.219967
-0.212348
-0.148292
-0.0661212
0.00109789
0.0402139
0.0547733
0.053126
0.0434726
0.0342382
0.0277008
0.0224876
0.0184958
0.0155263
0.0133359
0.0117654
0.0106703
0.00992798
0.00944238
0.00914676
0.00899915
0.018658
0.0187255
0.018833
0.018963
0.0191299
0.0193445
0.0196282
0.019953
0.0203033
0.0205027
0.0203742
0.0193678
0.0169245
0.0117149
0.00190836
-0.00987592
-0.0276222
-0.050742
-0.0778374
-0.101786
-0.109902
-0.100606
-0.0696682
-0.0193156
0.0207575
0.0407421
0.0489527
0.0405111
0.0339709
0.0292435
0.0247778
0.0212177
0.0184409
0.0163273
0.0147339
0.0135544
0.0126998
0.0120993
0.0117086
0.0115075
0.0203634
0.0205045
0.0206859
0.020959
0.0213541
0.0218996
0.0226524
0.0236194
0.0247971
0.0259821
0.027014
0.0275471
0.0268915
0.0234892
0.0172959
0.00606068
-0.0118657
-0.0384949
-0.0740996
-0.1096
-0.129966
-0.133307
-0.109499
-0.0658567
-0.0244139
0.00934018
0.026182
0.0281181
0.028139
0.0263785
0.0239348
0.0217174
0.0197249
0.0181168
0.0167888
0.0157368
0.0149375
0.0143537
0.013976
0.013774
0.0217463
0.0218378
0.0220902
0.0225156
0.0231294
0.0239512
0.0250416
0.0264415
0.0281451
0.0300574
0.0319803
0.0335923
0.0340749
0.0320567
0.0254925
0.00861924
-0.0201989
-0.0642687
-0.1196
-0.173388
-0.211967
-0.21014
-0.171825
-0.115397
-0.0658907
-0.02599
0.00091141
0.0134635
0.0199869
0.0217815
0.0218553
0.021215
0.0201756
0.0191703
0.0182192
0.0174055
0.016752
0.016251
0.0159224
0.0157596
0.0229224
0.02297
0.0232641
0.0237654
0.0244869
0.0254429
0.0266835
0.0282383
0.0301574
0.03244
0.0349201
0.0369959
0.0383724
0.035125
0.0245792
0.00291457
-0.0310198
-0.0797747
-0.141903
-0.202691
-0.249972
-0.247226
-0.202516
-0.145847
-0.0895228
-0.0451942
-0.0123112
0.00457507
0.0142321
0.0182447
0.0202851
0.0207656
0.0205188
0.0199736
0.019354
0.018767
0.0182647
0.0178778
0.017621
0.0175048
0.0239161
0.0240268
0.0243097
0.0247794
0.0254817
0.0264332
0.0276573
0.0291834
0.0310351
0.0332714
0.0358598
0.0381235
0.0385837
0.032795
0.0191531
-0.00311503
-0.0345765
-0.0777217
-0.127495
-0.174314
-0.210481
-0.205494
-0.168134
-0.124712
-0.078273
-0.0392843
-0.0108941
0.00481027
0.0136418
0.018138
0.0203426
0.0211523
0.0212319
0.0209594
0.0205393
0.0200808
0.0196635
0.0193337
0.0191094
0.0190154
0.024463
0.0246253
0.0249147
0.0253579
0.0259879
0.0268305
0.0279174
0.0292559
0.0308159
0.0325429
0.0344223
0.0358386
0.0345714
0.0282554
0.0141212
-0.00889376
-0.0395117
-0.0761445
-0.110541
-0.134849
-0.144759
-0.134987
-0.110373
-0.0778991
-0.0455687
-0.0170623
0.00163666
0.0115711
0.0173943
0.0204875
0.0219109
0.0224198
0.0224346
0.0221906
0.021807
0.0213783
0.020971
0.0206299
0.020378
0.0202574
0.0245771
0.0247035
0.024955
0.0253397
0.0258569
0.0265107
0.0273182
0.0282585
0.0292537
0.0300487
0.0304586
0.0298596
0.0259244
0.0173133
0.00276946
-0.0182153
-0.0443359
-0.0730811
-0.0958903
-0.105099
-0.10028
-0.0858472
-0.0644085
-0.03865
-0.0156957
0.00235079
0.0127216
0.0186603
0.0220661
0.0236534
0.0241651
0.0241307
0.0238245
0.0234005
0.022921
0.0224611
0.0220582
0.0217324
0.0214932
0.0213046
0.0244687
0.0245525
0.0247348
0.0250092
0.0253558
0.0257546
0.0261634
0.0265088
0.0267009
0.0264351
0.0251688
0.0219545
0.0147331
0.00171178
-0.0160137
-0.0372228
-0.0595002
-0.0814574
-0.0947295
-0.0974727
-0.0898357
-0.0707864
-0.046923
-0.0219726
-0.00210976
0.0108688
0.0185401
0.0232428
0.0255294
0.0265618
0.0263728
0.0257986
0.0250991
0.0244106
0.0237815
0.02325
0.0228202
0.0224875
0.0222503
0.0220954
0.0242289
0.0243123
0.0244464
0.0246131
0.0247843
0.0249157
0.0249363
0.0247212
0.0241229
0.0228124
0.0200735
0.0147775
0.00469454
-0.0119895
-0.0350952
-0.0633074
-0.0909838
-0.112793
-0.125699
-0.125902
-0.112509
-0.0857335
-0.0541272
-0.025724
-0.00296441
0.0124565
0.0218482
0.0265841
0.0283931
0.0286055
0.0279415
0.0269944
0.0260063
0.0251027
0.0243453
0.023724
0.023228
0.0228625
0.022631
0.022593
0.0239178
0.0240116
0.024076
0.0241349
0.0241512
0.0240809
0.0238662
0.023329
0.0222289
0.0201717
0.0163585
0.00976833
-0.0019752
-0.0207264
-0.0466421
-0.0791477
-0.114167
-0.13962
-0.158487
-0.161346
-0.136466
-0.102826
-0.0636477
-0.0325113
-0.0075199
0.010881
0.0221521
0.0279192
0.029772
0.029516
0.028559
0.0274315
0.0263396
0.025382
0.0245911
0.0239551
0.023457
0.0231229
0.0229378
0.0229228
0.0235722
0.0236179
0.0236488
0.0236589
0.0236066
0.0234505
0.0231165
0.022459
0.021225
0.0189749
0.0150096
0.00825088
-0.00322441
-0.0205375
-0.0437811
-0.072306
-0.105136
-0.131251
-0.153499
-0.157859
-0.133808
-0.101546
-0.0653992
-0.034797
-0.0103823
0.00737402
0.0189142
0.025843
0.0289103
0.0290716
0.0281977
0.0271155
0.0261294
0.0252856
0.0245772
0.0240158
0.0235921
0.0233108
0.0231373
0.0230517
0.0232814
0.0232857
0.0233121
0.0233304
0.0232946
0.0231523
0.0228402
0.0222568
0.0212246
0.0194106
0.0163037
0.011012
0.00223114
-0.0113523
-0.0297944
-0.051334
-0.0761315
-0.0984607
-0.115478
-0.121574
-0.110363
-0.0903139
-0.0645274
-0.0387477
-0.0165369
0.00100143
0.0140055
0.0222513
0.0262689
0.0273156
0.0269503
0.0261682
0.0254404
0.0247789
0.0242109
0.023755
0.0234019
0.0231408
0.0229565
0.0228303
0.0231013
0.0231368
0.0231549
0.0231697
0.0231543
0.0230756
0.0228878
0.0225109
0.0218627
0.0207421
0.018863
0.0156762
0.0102909
0.00109296
-0.0123643
-0.0286133
-0.0464647
-0.0644755
-0.0777026
-0.0857728
-0.0880105
-0.0796471
-0.0628332
-0.0422141
-0.0225133
-0.00565871
0.00759346
0.0165457
0.0214674
0.0237524
0.0243793
0.0243437
0.0240737
0.0236922
0.0233152
0.0229921
0.0227282
0.0225257
0.0223916
0.0223011
0.0228623
0.0229066
0.0229467
0.0229843
0.0230212
0.0230481
0.0230418
0.0229527
0.0227534
0.0223166
0.0213654
0.0196143
0.0165283
0.0108812
0.00201952
-0.0106862
-0.0263846
-0.0437435
-0.0581056
-0.0690303
-0.0743715
-0.0723418
-0.0614811
-0.0454171
-0.0294934
-0.0147063
-0.00231095
0.0076171
0.0145832
0.0188056
0.0208204
0.0217847
0.0221351
0.0221705
0.0220808
0.0219485
0.0218143
0.0217067
0.0216458
0.0216402
0.0224623
0.0224539
0.0225084
0.0225982
0.0227256
0.0228878
0.0230861
0.0233191
0.0235677
0.0237323
0.0235721
0.0226839
0.0205783
0.0160143
0.00803997
-0.00413996
-0.0203928
-0.0395732
-0.0584675
-0.0737554
-0.08065
-0.0809101
-0.0729816
-0.0601301
-0.0455732
-0.029639
-0.0143808
-0.00152128
0.00796957
0.0139419
0.0173182
0.0191773
0.0201478
0.0206426
0.0208899
0.0209774
0.0209849
0.0209592
0.020936
0.0209541
0.022037
0.0219845
0.022022
0.0221271
0.0223105
0.0225646
0.0229018
0.0233297
0.0238856
0.0243676
0.0248465
0.0243651
0.0222062
0.017212
0.0082638
-0.00476736
-0.0224265
-0.043531
-0.0682988
-0.0893716
-0.104565
-0.10424
-0.0944264
-0.0812503
-0.063264
-0.0430759
-0.0237067
-0.00807381
0.00316651
0.0103896
0.0146508
0.0171006
0.0185488
0.019404
0.0198801
0.020141
0.0202847
0.0203415
0.0203513
0.020313
0.0215663
0.0215492
0.0215881
0.0216833
0.021859
0.0221124
0.0224639
0.0229101
0.0234673
0.0239139
0.0243434
0.0236215
0.0211528
0.0161207
0.00723609
-0.00593567
-0.0238568
-0.0455347
-0.0725296
-0.0950057
-0.11782
-0.115101
-0.101229
-0.08649
-0.0660943
-0.0445629
-0.0250534
-0.00988327
0.00129122
0.00870017
0.0132433
0.0158619
0.0174955
0.0184779
0.0190644
0.0194106
0.0196159
0.019707
0.0197412
0.0196762
0.0208968
0.0209437
0.0210108
0.021104
0.0212425
0.0214337
0.0216892
0.0220074
0.0224086
0.0226666
0.0225557
0.0211025
0.017684
0.0117879
0.00280128
-0.00989196
-0.0263204
-0.0459834
-0.0674719
-0.0858753
-0.100089
-0.0977524
-0.0859327
-0.0711293
-0.0522801
-0.0343568
-0.0187367
-0.00627595
0.0031123
0.00943513
0.0133935
0.0157318
0.0171509
0.0179945
0.0185085
0.0188057
0.0189711
0.0190375
0.0190602
0.0190493
0.0200392
0.0200936
0.0201433
0.0202029
0.0202807
0.0203774
0.0204972
0.0205947
0.0206415
0.0204805
0.0195874
0.0173688
0.0129085
0.00559577
-0.00422286
-0.016499
-0.0308576
-0.0466974
-0.0610966
-0.0706797
-0.0738555
-0.0695319
-0.0603296
-0.0477879
-0.0336517
-0.0202579
-0.00873808
0.000834167
0.00772593
0.0120719
0.0147225
0.016321
0.0172933
0.0178792
0.0182281
0.0184235
0.0185234
0.0185637
0.0185816
0.0186
0.019087
0.0190812
0.0190682
0.0190608
0.019051
0.0190202
0.0189429
0.018733
0.0182499
0.0172868
0.0153356
0.0119853
0.00673623
-0.000812064
-0.0103648
-0.0217333
-0.0341022
-0.0464542
-0.0559656
-0.059076
-0.0562676
-0.0500822
-0.0408216
-0.0291925
-0.0174871
-0.00676326
0.00179765
0.00829033
0.0124522
0.0148951
0.0163459
0.0171907
0.0176832
0.0179705
0.0181394
0.018231
0.0182813
0.0183058
0.0183115
0.0182908
0.0181189
0.0180506
0.0180017
0.0179415
0.0178415
0.0176575
0.0173298
0.0167666
0.0157024
0.0138961
0.0107007
0.00568675
-0.00106462
-0.00955107
-0.0194041
-0.0301149
-0.0405001
-0.0503968
-0.0562844
-0.0563437
-0.0528203
-0.0444753
-0.0329227
-0.0197684
-0.00777811
0.002272
0.00945709
0.0138247
0.0161342
0.0172985
0.0178545
0.0180404
0.0180837
0.0180663
0.018035
0.0179967
0.0179648
0.0179376
0.0179115
0.0178982
0.0172434
0.0172039
0.0171469
0.0170415
0.0168475
0.0165116
0.015946
0.0150477
0.013563
0.0111267
0.00699294
0.000484054
-0.00849899
-0.019928
-0.0325714
-0.0447702
-0.0555314
-0.0643533
-0.0694541
-0.0683531
-0.0606596
-0.0477541
-0.0323024
-0.0174458
-0.00460395
0.00546118
0.0125228
0.0164568
0.0184193
0.01907
0.0188811
0.0185588
0.0182288
0.0179449
0.0177274
0.0175684
0.0174594
0.0173966
0.0173741
0.0174141
0.0164861
0.016528
0.0164629
0.0163096
0.0160406
0.0156064
0.0149134
0.0138524
0.012118
0.00929875
0.00473226
-0.00225515
-0.0121908
-0.0251957
-0.0405536
-0.0549058
-0.0679313
-0.0773085
-0.084511
-0.0831491
-0.0689146
-0.0519978
-0.0331878
-0.0173036
-0.00413165
0.00593315
0.0128552
0.0168227
0.0187957
0.0193364
0.0189671
0.0184463
0.0179785
0.0175887
0.0172958
0.017088
0.0169542
0.0168884
0.0168781
0.0169277
0.015753
0.0157977
0.0157411
0.015603
0.0153475
0.0149328
0.014287
0.013266
0.0116202
0.00892968
0.00460092
-0.00182036
-0.0105162
-0.0220391
-0.0359821
-0.05029
-0.0646207
-0.0745783
-0.0820089
-0.0815805
-0.0670668
-0.0513795
-0.0337198
-0.0183646
-0.00565776
0.00410803
0.010803
0.0147986
0.01698
0.0178831
0.0179084
0.0176534
0.0172834
0.0169772
0.0167377
0.0165656
0.0164495
0.0163835
0.01635
0.0163457
0.0151014
0.0150819
0.0150432
0.0149618
0.014795
0.0145051
0.0140327
0.0132792
0.0120336
0.0100021
0.0066701
0.00165931
-0.00517184
-0.0138305
-0.0242966
-0.0357962
-0.0474504
-0.0565788
-0.0631475
-0.0646126
-0.0581725
-0.0478173
-0.0348158
-0.0222093
-0.0110683
-0.00192197
0.00513982
0.0102196
0.013525
0.0152914
0.0160326
0.0161742
0.0160696
0.0159554
0.0158539
0.015776
0.0157161
0.015672
0.0156299
0.0155864
0.0146637
0.0146462
0.014614
0.0145605
0.0144635
0.0142991
0.0140238
0.0135933
0.0128679
0.0116697
0.00966548
0.00640151
0.00148877
-0.00472431
-0.0121113
-0.0205973
-0.0294726
-0.0376186
-0.0441128
-0.0480624
-0.0484294
-0.0440222
-0.0360189
-0.0264543
-0.0170541
-0.00830389
-0.000963944
0.00493832
0.00911967
0.0117625
0.0132617
0.0139924
0.0143472
0.0145384
0.0146208
0.0146663
0.0146947
0.0147174
0.0147296
0.0147101
0.0143051
0.0143213
0.0143197
0.0143039
0.0142761
0.0142337
0.0141463
0.0139996
0.0137337
0.01325
0.012322
0.0107152
0.00793629
0.00362404
-0.0022493
-0.00976364
-0.0183063
-0.0270587
-0.0346037
-0.0401839
-0.0420594
-0.0419194
-0.0377621
-0.030516
-0.0224739
-0.0142753
-0.00695964
-0.000833972
0.00388246
0.00750979
0.0100303
0.0115664
0.0124853
0.0130081
0.0132986
0.0134756
0.0135889
0.0136728
0.0137399
0.0137978
0.0138383
0.0138327
0.0138571
0.0138919
0.0139455
0.0140216
0.0141268
0.0142482
0.0143749
0.0144413
0.014294
0.0136346
0.0119669
0.00874012
0.00351465
-0.00389482
-0.013185
-0.0233985
-0.0329682
-0.0406201
-0.0452359
-0.0474122
-0.0450326
-0.0392666
-0.0317919
-0.0235307
-0.0153662
-0.00778154
-0.00140767
0.00362652
0.00719785
0.0094696
0.0108432
0.011663
0.0121627
0.0124718
0.0126569
0.0127709
0.0128499
0.0129307
0.0133266
0.0132833
0.0132871
0.0133304
0.0134281
0.0135832
0.0138096
0.0141154
0.0144993
0.0149118
0.0152128
0.0148462
0.013369
0.0107003
0.0059844
-0.00101113
-0.0103628
-0.0218333
-0.0341789
-0.0454622
-0.0555909
-0.0590259
-0.0566787
-0.0511014
-0.042957
-0.0333159
-0.0232213
-0.0134193
-0.00524725
0.000933573
0.00522832
0.0079246
0.0095994
0.0106345
0.0113042
0.0117185
0.0119798
0.012128
0.012203
0.0122139
0.0127992
0.0127648
0.0127673
0.0128072
0.0129045
0.0130637
0.0132988
0.0136158
0.013987
0.0143377
0.014647
0.0143011
0.0129765
0.0104947
0.00608794
-0.000629087
-0.00959072
-0.0211643
-0.0345626
-0.0474997
-0.0600436
-0.0637713
-0.0611241
-0.0549822
-0.0453825
-0.0349523
-0.0241291
-0.0139621
-0.00592567
0.000146298
0.00441772
0.00716412
0.00887118
0.00997501
0.01069
0.0111426
0.0114195
0.0115785
0.0116476
0.0115957
0.0121623
0.0121744
0.012199
0.0122364
0.0122969
0.012388
0.0125207
0.0126943
0.0128753
0.0128648
0.0125886
0.0116492
0.00984
0.00684385
0.00222515
-0.00429579
-0.0125113
-0.0224184
-0.0335615
-0.0439569
-0.051992
-0.0544005
-0.0514375
-0.0452864
-0.0365321
-0.0271079
-0.0178227
-0.0096557
-0.00332962
0.00155354
0.0050549
0.00736014
0.00882812
0.00973672
0.0103065
0.0106579
0.0108666
0.0109756
0.0110216
0.0110003
0.0114022
0.0114305
0.0114364
0.0114275
0.0114079
0.0113782
0.011334
0.0112497
0.0110744
0.0105818
0.00953988
0.00762298
0.00473168
0.000730748
-0.0043804
-0.0106497
-0.0176845
-0.02518
-0.0322481
-0.0378564
-0.0403075
-0.0391289
-0.0352295
-0.0296732
-0.0229143
-0.0159099
-0.00934712
-0.00375683
0.000787316
0.00436629
0.00675319
0.0082774
0.00920953
0.00977531
0.0101209
0.0103231
0.0104362
0.0104929
0.0105235
0.0105512
0.0105762
0.0105571
0.0104994
0.0104194
0.0103058
0.0101436
0.00989207
0.00949146
0.00883569
0.00773937
0.0059355
0.00329902
-0.000260639
-0.00489633
-0.0103555
-0.0164972
-0.0228092
-0.0284123
-0.0319136
-0.0329902
-0.0321676
-0.0284297
-0.0234732
-0.0178412
-0.0118289
-0.00626571
-0.00151146
0.00230985
0.00525357
0.00733748
0.00860554
0.00932704
0.00973516
0.00997232
0.010115
0.0101928
0.0102396
0.010268
0.0102853
0.0102828
0.00975343
0.00966801
0.00957145
0.00944702
0.00926951
0.00899794
0.00856928
0.00787088
0.00673476
0.00496374
0.0023181
-0.00123123
-0.0055921
-0.0109401
-0.0169713
-0.0231681
-0.0290534
-0.0332617
-0.0344236
-0.0325499
-0.0298339
-0.0248741
-0.0186492
-0.0118692
-0.00524401
0.000226095
0.00437204
0.00725518
0.00895014
0.00975146
0.0100998
0.0101885
0.0101977
0.010162
0.0101241
0.0100878
0.0100577
0.0100335
0.0100124
0.00999354
0.00903107
0.00895916
0.00886759
0.0087264
0.00849919
0.00813412
0.00755997
0.00664343
0.00515911
0.00281402
-0.00066406
-0.00545895
-0.0115292
-0.0184802
-0.0257483
-0.0326489
-0.0384027
-0.0422939
-0.0425961
-0.0384204
-0.03226
-0.024695
-0.0162377
-0.00780067
-0.000951871
0.0042664
0.00782347
0.00986419
0.0109634
0.0111855
0.0109302
0.0106252
0.010323
0.010076
0.00987977
0.00974681
0.0096586
0.00960546
0.00957964
0.00960159
0.00847019
0.0084799
0.00840409
0.00824306
0.00796872
0.00753303
0.00686038
0.00581956
0.00416707
0.00155262
-0.00235446
-0.00773862
-0.0148875
-0.0230783
-0.0314071
-0.0394614
-0.0453853
-0.0501637
-0.050372
-0.0443283
-0.0350174
-0.0249846
-0.0145749
-0.00523028
0.00141299
0.00616728
0.00913185
0.010583
0.011377
0.0113878
0.0109162
0.0104953
0.010034
0.00970903
0.00945271
0.00928199
0.00918266
0.00914086
0.00914048
0.00917903
0.00797996
0.0080256
0.00796813
0.00782439
0.00756304
0.0071579
0.0065179
0.00553691
0.00400563
0.00159822
-0.00197282
-0.00670457
-0.0130002
-0.0206778
-0.0287234
-0.0366785
-0.04285
-0.0476026
-0.0482277
-0.0427285
-0.034572
-0.0247655
-0.0148496
-0.00649354
-0.000225818
0.00444817
0.00745334
0.00908843
0.00995597
0.0101362
0.00995921
0.00973387
0.00940872
0.00915656
0.00896576
0.00883123
0.00874688
0.00870915
0.00869973
0.00871794
0.00753288
0.0075342
0.00750172
0.00742129
0.00726052
0.00698691
0.00654163
0.00582391
0.00467956
0.00293666
0.000284285
-0.00326813
-0.00777192
-0.0133943
-0.01959
-0.0258473
-0.0311916
-0.0352532
-0.0371161
-0.0352504
-0.0308406
-0.0245695
-0.0175974
-0.0113481
-0.00575848
-0.00120524
0.00227287
0.00476888
0.00647557
0.0075611
0.00810912
0.00832351
0.00833005
0.00829053
0.00824854
0.00821786
0.00819527
0.00817905
0.0081609
0.00813963
0.00725204
0.00722976
0.00720761
0.00716837
0.00709402
0.00696213
0.00674202
0.0063757
0.00575665
0.00476813
0.00315694
0.000806478
-0.00209033
-0.0056643
-0.00980939
-0.0143395
-0.0188153
-0.022663
-0.0258523
-0.0273501
-0.0268128
-0.0247383
-0.0212545
-0.0167072
-0.0118815
-0.00745013
-0.00351289
-0.000201457
0.00239814
0.00433316
0.00560701
0.00636453
0.00679285
0.00705272
0.00721864
0.00733317
0.00741265
0.00746511
0.00748926
0.00747744
0.00708354
0.00709397
0.00709362
0.0070912
0.00707988
0.00705924
0.00702267
0.00695246
0.00677802
0.00643864
0.00581558
0.00466695
0.00293778
0.00049956
-0.00280208
-0.0068518
-0.0114455
-0.015798
-0.0196827
-0.0228451
-0.0246117
-0.0256945
-0.0249636
-0.0219407
-0.0176709
-0.0131334
-0.00865419
-0.00470357
-0.00145533
0.00107161
0.00297957
0.00430764
0.00519556
0.00576173
0.00612274
0.00636299
0.00652989
0.00664753
0.00673098
0.00678277
0.00684929
0.00685994
0.00688949
0.00693072
0.00698618
0.00706279
0.00716501
0.00730066
0.0074365
0.00756809
0.0076161
0.00733332
0.00637851
0.00464888
0.00182379
-0.0020363
-0.00690187
-0.0120857
-0.0173206
-0.0222583
-0.0264516
-0.0301184
-0.0308733
-0.0287769
-0.0248399
-0.0199676
-0.0146813
-0.00971116
-0.0053816
-0.00186237
0.00079319
0.00268372
0.00395384
0.00475172
0.00525988
0.00558548
0.00579991
0.00594504
0.00605141
0.00614148
0.0065447
0.00652418
0.00653668
0.00657584
0.00665923
0.00679076
0.0069816
0.00723804
0.00756735
0.00794761
0.00827766
0.00854348
0.0081996
0.00724821
0.00525269
0.00203126
-0.00274297
-0.0091854
-0.0164045
-0.0236446
-0.0304912
-0.0364343
-0.0379809
-0.0360731
-0.0321702
-0.0266545
-0.020433
-0.0142088
-0.00854512
-0.00401396
-0.00071513
0.00162507
0.00314249
0.00408961
0.00470175
0.00510346
0.00535719
0.00550997
0.00559954
0.00563833
0.00621114
0.00617561
0.00617142
0.00619583
0.00626915
0.00639438
0.00658438
0.0068445
0.00718544
0.00757935
0.00795015
0.00835342
0.00821081
0.00751477
0.00587532
0.00290866
-0.00163348
-0.00822219
-0.0159814
-0.0240664
-0.0313884
-0.0383228
-0.0396513
-0.0378564
-0.0337068
-0.0278652
-0.0213664
-0.0148621
-0.00905308
-0.00446037
-0.00116971
0.00121463
0.00271967
0.00373037
0.00438289
0.00480357
0.00507467
0.00522902
0.00529771
0.00526484
0.00581982
0.0058087
0.00581081
0.00582523
0.00586216
0.00592606
0.00602627
0.00615494
0.00629545
0.00641366
0.00636104
0.00612177
0.00542701
0.00413261
0.00208061
-0.00096105
-0.00513331
-0.0103309
-0.0165399
-0.0228912
-0.0283393
-0.0322633
-0.0326404
-0.030709
-0.0268166
-0.0217553
-0.0162819
-0.0110013
-0.00645247
-0.00289501
-0.000267027
0.00163029
0.00290002
0.00372805
0.00426004
0.0046
0.00481073
0.00492213
0.0049689
0.00494257
0.00535342
0.00536364
0.00535798
0.00533522
0.00529727
0.00524581
0.005178
0.00506074
0.0048363
0.00442306
0.00365957
0.00245553
0.000799135
-0.00131284
-0.0039432
-0.00705353
-0.0106692
-0.0143606
-0.0178973
-0.0210176
-0.023138
-0.0237109
-0.0221983
-0.0196398
-0.0163889
-0.0126531
-0.00889151
-0.00543954
-0.002543
-0.000240878
0.00150798
0.00271195
0.00350878
0.00400634
0.00431258
0.00449768
0.00460393
0.00465805
0.00468455
0.00470122
0.00483994
0.00482418
0.00477152
0.00468174
0.00455324
0.00436766
0.0040998
0.00369697
0.00308469
0.00214044
0.000782637
-0.00108913
-0.00349346
-0.00635236
-0.00960513
-0.0130002
-0.0162772
-0.018757
-0.0198487
-0.0197107
-0.0189994
-0.0172019
-0.0146969
-0.0116062
-0.00836963
-0.00520895
-0.00252141
-0.000363723
0.00129058
0.00253702
0.0034107
0.00394333
0.00424919
0.00441204
0.00450021
0.00455009
0.00457934
0.00459543
0.0046058
0.00461576
0.00433989
0.00427146
0.00417257
0.00403279
0.00383917
0.00355728
0.00313485
0.00249106
0.00153407
0.000142598
-0.0017574
-0.00425796
-0.00742835
-0.0111395
-0.0151555
-0.0190135
-0.0220524
-0.0234982
-0.0228486
-0.0203641
-0.0175286
-0.0141791
-0.010883
-0.00724043
-0.00362854
-0.000486583
0.00182559
0.003399
0.00434995
0.00480438
0.00494024
0.00493387
0.00486453
0.00479237
0.00472562
0.00467349
0.00463638
0.00460729
0.00458422
0.00456749
0.00393243
0.00386071
0.00375499
0.00360345
0.00338098
0.00304331
0.00252737
0.00172744
0.000492178
-0.00133041
-0.00386354
-0.00728622
-0.0115429
-0.0163717
-0.0213007
-0.0255991
-0.0289365
-0.0297183
-0.0279834
-0.0233607
-0.0182611
-0.0128288
-0.00776083
-0.00309061
0.000761697
0.00340974
0.00507193
0.00593505
0.00618095
0.00604532
0.00573406
0.00540777
0.00511068
0.00489526
0.00473047
0.00461004
0.00452935
0.00447679
0.0044484
0.00444096
0.00365553
0.00363955
0.00356051
0.00341786