/*--------------------------------*- C++ -*----------------------------------*\
| =========                 |                                                 |
| \\      /  F ield         | OpenFOAM: The Open Source CFD Toolbox           |
|  \\    /   O peration     | Version:  v2106                                 |
|   \\  /    A nd           | Website:  www.openfoam.com                      |
|    \\/     M anipulation  |                                                 |
\*---------------------------------------------------------------------------*/
FoamFile
{
    version     2.0;
    format      ascii;
    arch        "LSB;label=32;scalar=64";
    class       volScalarField;
    location    "0";
    object      p;
}
// * * * * * * * * * * * * * * * * * * * * * * * * * * * * * * * * * * * * * //

dimensions      [0 2 -2 0 0 0 0];

internalField   nonuniform List<scalar> 
11644
(
-0.014015
-0.0142411
-0.0146732
-0.0152581
-0.01614
-0.0173535
-0.0187191
-0.0202872
-0.0220639
-0.0236827
-0.0245525
-0.0242775
-0.0224402
-0.0184919
-0.0126458
-0.00446915
0.00420241
0.0127204
0.0249373
0.0280521
0.0338579
0.042884
0.0394131
0.0415268
0.0430466
0.0434248
0.0442644
0.0453473
0.0470847
0.0492085
0.0514438
0.0536943
0.0557781
0.0575598
0.0590229
0.0602253
0.0611303
0.0618246
0.0623628
0.0626456
-0.0127842
-0.0129262
-0.0133848
-0.0141413
-0.0151157
-0.0163087
-0.0178546
-0.0195177
-0.0209824
-0.0221233
-0.02292
-0.0227996
-0.0211484
-0.0185127
-0.0136122
-0.00642046
0.00133222
0.0107618
0.0231924
0.023527
0.0289422
0.0391289
0.039386
0.0413687
0.043158
0.0446537
0.0462934
0.0481259
0.0500393
0.0519974
0.0538684
0.0556371
0.057277
0.058827
0.0602644
0.0614613
0.0624289
0.0632005
0.063675
0.0638105
-0.0132523
-0.01307
-0.0130964
-0.0134932
-0.0141562
-0.0149417
-0.0158296
-0.0168393
-0.0178179
-0.0186736
-0.01918
-0.0193356
-0.0190222
-0.0173332
-0.0139888
-0.0079299
0.00163031
0.0117956
0.0143235
0.0185764
0.028648
0.0338807
0.0473077
0.0481177
0.0486193
0.050474
0.0530247
0.0550201
0.0565849
0.0580389
0.0592612
0.0602802
0.061229
0.062072
0.0627821
0.0633437
0.0637967
0.0640325
0.0640098
0.0638321
-0.0145883
-0.014449
-0.0143023
-0.0141142
-0.0140199
-0.0140387
-0.0140765
-0.0141462
-0.0143168
-0.0146294
-0.0153552
-0.0165275
-0.0170493
-0.0174972
-0.0161101
-0.011766
-0.00363133
0.00164354
0.00723849
0.0213824
0.0307542
0.0396609
0.0449034
0.0524777
0.0562595
0.0597105
0.0624657
0.065111
0.0663289
0.0664766
0.0664706
0.0663524
0.066045
0.0656625
0.0652246
0.0648087
0.0644054
0.0640129
0.0636488
0.063408
-0.0161509
-0.0162597
-0.0161848
-0.0158857
-0.0153056
-0.0145861
-0.0138654
-0.0132199
-0.0128116
-0.012935
-0.0137682
-0.0145988
-0.0154598
-0.0144472
-0.0136705
-0.0112183
-0.00280693
-0.00372608
-0.00301275
0.0244238
0.0361029
0.0292906
0.0457299
0.0590207
0.0647416
0.0699574
0.0741927
0.0760106
0.0767238
0.0757948
0.0737663
0.0718425
0.070016
0.0682249
0.0666127
0.0652228
0.0640303
0.0631651
0.0626381
0.0623888
-0.0188361
-0.0187425
-0.0187401
-0.0185329
-0.0180049
-0.0172251
-0.0162583
-0.0153305
-0.0147766
-0.0144833
-0.0137972
-0.0127636
-0.0108071
-0.0113454
-0.0123352
-0.0137641
-0.0103988
-0.0110023
-0.00244511
0.00859436
0.0238594
0.0352168
0.0487576
0.0657492
0.0766321
0.079914
0.0826619
0.0852816
0.084074
0.082176
0.0790819
0.0752211
0.0716126
0.0685596
0.0659843
0.0638923
0.0623415
0.0613022
0.0608819
0.0607895
-0.0220552
-0.0224211
-0.0227464
-0.0227319
-0.0226456
-0.022323
-0.0217835
-0.0211249
-0.0204651
-0.0191149
-0.0170828
-0.0150429
-0.0141921
-0.00824838
-0.00387409
-0.0101548
-0.022963
0.00129032
0.0157609
0.0291445
0.0337874
0.0530336
0.0683205
0.0784808
0.0938698
0.0997874
0.0969646
0.0912293
0.085972
0.0823436
0.0784582
0.0739178
0.0691021
0.0652252
0.062278
0.0601232
0.0587532
0.0579796
0.0576383
0.0575328
-0.0268124
-0.0272943
-0.0277001
-0.0285629
-0.0292637
-0.029852
-0.0303312
-0.0307132
-0.0303805
-0.0291534
-0.0282694
-0.0266776
-0.0215
-0.0191517
-0.0207139
-0.00722609
-0.00427015
0.00534603
0.0268584
0.0490463
0.0725644
0.0846555
0.0900208
0.0879501
0.0954603
0.109835
0.0964713
0.0899779
0.0797643
0.0737232
0.0688652
0.0650825
0.0610692
0.0575824
0.0553056
0.0537271
0.0525773
0.0519869
0.0516241
0.0516552
-0.0336988
-0.0336702
-0.0345856
-0.0356379
-0.0368595
-0.0385469
-0.0403662
-0.0424684
-0.0442962
-0.0461382
-0.0484886
-0.0515892
-0.0551535
-0.05436
-0.0481112
-0.0421012
-0.0185952
0.00648394
0.0203609
0.0571335
0.0990682
0.0986114
0.100673
0.0891796
0.0959069
0.067404
0.0653413
0.0606804
0.0587069
0.0556645
0.0515552
0.0489149
0.0472275
0.0453737
0.0443521
0.0439651
0.0438798
0.0439362
0.0443485
0.0446795
-0.0378991
-0.0395594
-0.0416193
-0.0433002
-0.0454776
-0.0480224
-0.0513172
-0.0553445
-0.0600689
-0.066505
-0.0737756
-0.0803662
-0.0810194
-0.0745004
-0.078057
-0.0800314
-0.0624471
-0.0312628
0.0196945
0.0873251
0.136002
0.134443
0.102844
0.0753347
0.0530867
0.0343887
0.0336082
0.0294103
0.0273704
0.0287914
0.0288811
0.0295531
0.0307104
0.0311244
0.0318562
0.0327746
0.0337628
0.0344888
0.0354316
0.0357592
-0.043597
-0.0448682
-0.045858
-0.048242
-0.0511994
-0.0546355
-0.0593052
-0.0653503
-0.072151
-0.080482
-0.0893275
-0.0988096
-0.102244
-0.109171
-0.120396
-0.106772
-0.106724
-0.103996
-0.0540946
0.0801945
0.220098
0.162762
0.0596214
0.0126582
0.00230735
-0.00604577
-0.013696
-0.00493945
-0.00431833
0.00141118
0.00736639
0.0116597
0.0148621
0.0175375
0.0199726
0.0217426
0.0227434
0.0238124
0.024383
0.0264947
-0.049196
-0.0486566
-0.0494457
-0.0509476
-0.0532609
-0.0567297
-0.0613744
-0.067337
-0.0736576
-0.0800125
-0.0887377
-0.100549
-0.112974
-0.128236
-0.145333
-0.164007
-0.200877
-0.273171
-0.459962
-0.277838
-0.15082
-0.0987476
-0.0739167
-0.0586057
-0.035276
-0.0246904
-0.0128791
-0.00383274
0.000226192
0.00400377
0.00789257
0.0110795
0.0133452
0.0146074
0.0157601
0.0166429
0.0157451
-0.0464446
-0.0465838
-0.0477635
-0.0486399
-0.0497407
-0.0513143
-0.0542663
-0.058035
-0.0613795
-0.0596975
-0.064423
-0.0708992
-0.0914554
-0.0919283
-0.112981
-0.153445
-0.222225
-0.355629
-0.554415
-0.47242
-0.287384
-0.153148
-0.0911797
-0.0493812
-0.0372103
-0.016011
-0.00450038
0.00270713
-0.000419247
0.00196867
0.00601585
0.00886141
0.0103065
0.0108132
0.0103697
0.00959635
0.00798921
-0.0394213
-0.0398229
-0.0372458
-0.0368035
-0.0349548
-0.0334173
-0.0346
-0.0359637
-0.0427878
-0.0169418
-0.00884694
0.0225465
-0.0552251
-0.0519003
-0.0466331
-0.0708026
-0.142032
-0.289237
-0.329777
-0.422288
-0.276468
-0.145873
-0.0657302
0.0458257
0.0029069
0.0513798
0.0351655
0.0330948
0.00476708
0.00836218
0.012375
0.0143642
0.0136194
0.0116827
0.0103674
0.00810459
0.00910957
-0.0355034
-0.0283461
-0.0184167
-0.0212351
-0.0143071
-0.00599824
-0.00167715
-0.00742849
-0.0242447
0.00676417
0.100848
0.0635778
0.0511423
0.0559911
0.0586563
-0.0171765
-0.026165
0.00269237
-0.0702323
-0.77984
-0.809879
-0.806246
-0.344366
-0.118764
-0.0963193
-0.00880026
0.0753213
0.0636411
0.0954134
0.14313
0.0513144
0.00461659
0.0185432
0.0297105
0.0296209
0.0289745
0.0252521
0.0277727
0.0204917
0.0117789
-0.0234881
-0.0159764
-0.00856099
-0.00104678
0.00666497
0.0179401
0.0214223
0.0357902
0.0441719
0.0673513
0.120697
0.16366
0.070205
-0.000244651
0.236186
0.104657
0.210302
0.33427
0.097742
0.493997
-1.01084
0.716014
-0.201899
0.106258
0.00584934
0.278436
0.180367
0.115207
0.211338
0.152741
0.0835576
0.0720115
0.0688006
0.0582948
0.0525652
0.0456487
0.039122
0.0349285
0.0320109
0.0204895
-0.000306467
-0.00470718
-0.0017216
0.00940342
0.0222143
0.0264756
0.0292318
0.0477278
0.0608243
0.0827349
0.113002
0.150816
0.18582
0.0399746
0.139529
0.35853
0.533201
0.217679
-0.668623
1.36627
-0.195353
-0.115735
-1.09451
-0.18567
0.258248
0.17733
0.103277
0.240315
0.174493
0.124255
0.127327
0.10994
0.0908206
0.065308
0.0595579
0.0537917
0.0424662
0.034065
0.0312276
0.0343026
0.0141685
0.0137837
0.0193961
0.0185264
0.014658
0.0104578
0.0310287
0.0284665
0.0373754
0.0391249
0.0526768
0.0561344
0.180078
-0.00323483
0.332644
0.174923
0.274025
0.912037
0.976057
-0.177655
-1.80946
-1.5099
1.07949
0.881065
0.236187
0.394291
0.00951054
0.320458
0.0925428
0.0901356
0.102577
0.0931091
0.0733657
0.0643234
0.0474108
0.0469096
0.0441604
0.0414619
0.0376153
0.0451484
0.0166986
0.0191223
0.01189
0.00192015
-0.00513156
-0.00807711
-0.00304624
0.0173789
0.0249655
0.0293691
0.0267718
0.0653459
-0.0101416
0.200992
0.115428
0.309541
0.41011
-1.07324
0.220598
0.708724
0.17856
0.462582
-0.775811
-1.10846
0.438562
0.243408
0.193261
0.0879291
0.12789
0.118294
0.0942307
0.0712033
0.0558513
0.032319
0.0268157
0.0308546
0.0353545
0.0390827
0.0436116
0.0391266
0.00896483
0.00861627
0.00438815
-0.00693605
-0.0194331
-0.0306626
-0.0398239
-0.0151914
-0.0115721
-0.0121031
-0.0182797
-0.0313518
-0.171536
0.03465
0.116485
0.24202
0.503885
1.79513
-0.734766
-0.6942
-0.311705
-1.03116
-0.180378
2.49154
0.169744
0.433357
0.144293
0.0454055
-0.0131168
0.044579
0.0338715
0.0279233
0.026161
-0.00843202
0.00828861
0.0219471
0.0294855
0.0340708
0.0355474
0.0335562
0.000705058
-0.00790147
-0.0117693
-0.0114722
-0.016834
-0.0292463
-0.0434442
-0.0579948
-0.0593978
-0.0570548
-0.0528295
-0.0769351
-0.131564
-0.25075
-0.0155855
0.268522
-0.262537
0.362885
2.58667
1.58265
0.688683
2.50805
2.13414
-0.834364
0.460848
0.129847
-0.190372
0.0611869
0.0891174
-0.0843865
-0.0478302
-0.0342199
-0.0231952
-0.00635779
0.00584186
0.0141728
0.0155846
0.0156703
0.0176603
0.0212948
0.00341973
0.00182852
-0.00924372
-0.0224925
-0.0322984
-0.0404648
-0.0484181
-0.0632538
-0.0625897
-0.103553
-0.153192
-0.147431
-0.171467
-0.346031
0.16449
0.106318
-0.0719184
0.0908128
0.644715
-0.543753
-0.367477
1.11076
1.31589
-0.101224
-0.539033
0.103438
-0.362079
-0.126502
-0.150071
-0.119791
-0.0793053
-0.0499155
-0.0302374
-0.0187223
-0.0153955
-0.0084095
-0.00138135
0.00609686
0.0122701
0.01381
-0.000992363
-0.00236489
-0.00502287
-0.0127826
-0.0270102
-0.052308
-0.0621825
-0.0676943
-0.0426544
-0.0949339
-0.170787
-0.313906
-0.581263
-0.770591
0.0862154
0.520024
-0.273086
-4.36886
3.88114
0.964379
2.79889
5.62904
-5.75899
-1.86846
-0.928667
-0.375297
-0.652511
-0.679876
-0.38896
-0.168893
-0.0983108
-0.0542504
-0.0449391
-0.0351099
-0.0343858
-0.0157404
-0.00502999
0.000605091
0.000801454
-0.000828208
0.00387025
-0.000375991
-0.0054849
-0.0125812
-0.0204777
-0.0295462
-0.0399648
-0.0647271
-0.0540905
-0.0938769
-0.146421
-0.244933
-0.370466
-0.526543
-1.98031
-1.32637
-0.109054
1.87081
3.19237
1.81181
4.1625
3.28053
-0.137764
-1.8528
-2.14893
-1.92216
-0.630981
-0.494313
-0.302936
-0.184125
-0.116521
-0.0731321
-0.0566721
-0.0332098
-0.0269221
-0.0185665
-0.0139398
-0.00920646
-0.006245
-0.00350749
0.0240952
0.0198266
0.0171462
0.0110718
0.00369181
-0.00557884
-0.0110443
-0.0140999
-0.0375226
-0.062775
-0.133178
-0.189297
-0.273562
-0.222845
0.717878
0.285508
-1.41595
-1.06574
1.50056
3.19068
2.47631
1.05408
-0.823396
-1.32689
0.0895226
0.563091
-0.191956
-0.243752
-0.12513
-0.0876461
-0.058219
-0.047337
-0.0184061
-0.017197
-0.015417
-0.0103924
-0.00632245
-0.00373255
-0.0014664
0.00321489
0.0347909
0.0404379
0.0386765
0.033144
0.0270792
0.0229064
0.0149275
0.00422864
-0.000659196
0.000314572
0.0106843
-0.137372
-0.0323105
-0.659787
-1.12762
-0.0543831
0.928444
0.814778
0.26973
-0.0123688
0.468606
0.799185
1.59326
1.41097
0.527058
-0.479369
-0.409838
0.0917443
-0.0274094
0.0668709
0.0238259
0.00265259
-0.00480463
-0.00488264
-0.00303028
-0.00191829
0.00155856
0.00518853
0.00736011
-0.00155738
0.0556804
0.0471301
0.0498188
0.0523361
0.0473208
0.0481836
0.0474672
0.0244881
0.0116605
0.0576826
0.0200282
-0.0328549
-0.0974756
0.366968
0.263261
-0.712387
-2.30057
-1.99355
0.559082
1.10582
1.73174
2.01659
-0.336879
-1.01164
-0.0780646
0.489108
0.546134
0.0626748
0.0572886
0.0637151
0.0536524
0.0172752
0.00978945
0.0117861
0.00663246
0.00485686
0.00487135
0.00245321
-0.0013035
0.00538201
0.0771503
0.0794189
0.0758333
0.0724092
0.0722948
0.0717733
0.071159
0.075089
0.0785296
0.0959102
0.10969
0.067269
-0.0535796
-0.583102
-0.119678
0.290607
-0.200996
-0.622076
-1.43156
-1.36666
0.350515
0.0024874
0.569648
0.778508
1.0138
0.530981
-0.103913
0.0639373
0.113168
0.111365
0.0672849
0.035696
0.0231123
0.0181965
0.0147535
0.0100826
0.0077622
0.00897586
0.01068
0.00639424
0.0953315
0.0942921
0.0953895
0.0966945
0.100045
0.10527
0.106916
0.105968
0.0826644
0.120491
0.0985127
0.158378
0.20589
0.282383
-0.269119
-0.633848
-1.17643
-0.9182
-1.62757
-3.02399
0.329195
0.599751
0.249996
-0.322395
-0.0885329
-0.0568224
0.276357
0.275538
0.113004
0.0435362
0.0661312
0.0062432
0.0246012
0.0253356
0.021065
0.0161666
0.0146283
0.0142432
0.014791
0.00535559
0.108219
0.114008
0.115136
0.11738
0.123046
0.130401
0.137514
0.135202
0.143008
0.164806
0.150528
0.273749
0.167108
0.234371
0.55168
0.390219
0.153772
-0.0842543
-2.28788
-1.77928
-0.511542
-1.22093
-0.128195
0.136988
0.542616
0.617924
0.160601
-0.00222152
0.0687559
0.0889306
0.0622662
0.0343379
0.0242943
0.0274735
0.0225085
0.0187022
0.0160155
0.0145804
0.0142205
0.00800225
0.140891
0.137166
0.139688
0.143779
0.150524
0.157176
0.16376
0.170795
0.186705
0.210763
0.261813
0.310388
0.368629
0.176704
0.0165758
0.0650826
0.24482
0.172507
0.162964
-0.00104853
-0.0903249
0.016011
-0.0572864
0.0237546
-0.216065
-0.281875
-0.063907
0.157532
0.0718693
0.0677932
0.0397281
0.0299625
0.0295987
0.0290533
0.0281081
0.0259866
0.0232477
0.0204789
0.0191472
0.0167799
0.14974
0.154508
0.158748
0.162187
0.167652
0.175775
0.184868
0.187468
0.20876
0.235159
0.255199
0.25925
0.300286
0.596064
0.778507
0.721954
0.158393
0.274804
-0.341091
0.266088
-1.6437
-1.36226
-0.755208
-0.509346
0.256435
0.473379
0.326876
-0.0245005
0.0215698
0.0472325
0.0380592
0.0267499
0.020589
0.0297822
0.0270716
0.0251028
0.0235958
0.0212665
0.0187527
0.017413
0.162919
0.158511
0.162781
0.167731
0.17417
0.180375
0.18852
0.198365
0.215327
0.220278
0.228491
0.238359
0.171833
-0.0156035
0.00215649
0.224576
0.424264
0.387555
0.652563
0.748138
0.357367
0.317733
-0.227044
0.00960247
-0.173682
-0.39525
-0.303041
0.0012539
0.0163282
-0.00154511
0.0267506
0.0307835
0.0240472
0.023982
0.0235914
0.0225359
0.0203407
0.019233
0.0166309
0.0185325
0.172454
0.172863
0.173839
0.177203
0.181981
0.18387
0.188407
0.19268
0.195591
0.195352
0.195982
0.252426
0.248541
0.430947
0.24798
0.00826819
-0.284827
-0.210388
-0.179394
0.0774767
-0.21163
-0.272658
-0.428811
-0.557044
-0.158481
0.111256
0.204739
0.0176556
-0.00486438
0.0105686
0.0192884
0.0254326
0.0149243
0.017905
0.0209441
0.0233908
0.0208279
0.021895
0.0228257
0.0207409
0.171827
0.173247
0.176274
0.182867
0.185511
0.186405
0.187627
0.187625
0.184372
0.158438
0.194908
0.195726
0.0116908
-0.203253
-0.2443
-0.420879
-0.482369
-0.629407
-0.203738
0.0520277
1.01053
0.326572
-0.611189
-0.460368
-0.625467
-0.619657
-0.300431
-0.0986687
0.0139154
0.00427724
0.000762451
-0.00634016
-0.00503983
-0.0048476
0.00507106
0.0115251
0.0148672
0.0125419
0.0117941
0.00817876
0.184013
0.193793
0.190994
0.189289
0.187706
0.188328
0.190658
0.201516
0.200432
0.183886
0.178531
0.170953
0.190709
0.0848762
-0.0945405
-0.484256
-0.650405
-1.211
0.554985
0.75488
1.79121
1.01523
-1.49622
-0.724037
-0.51784
-0.17844
0.0061579
-0.0441566
-0.0588141
-0.0458431
-0.0293992
-0.0183928
-0.023922
-0.0202019
-0.00551503
0.00388238
0.0105586
0.0171878
0.0230915
0.0138541
0.191224
0.187144
0.1932
0.198454
0.202406
0.206194
0.212231
0.224188
0.243648
0.275642
0.209637
0.0441363
-0.160693
-0.163061
-0.0892363
-0.155033
-0.181586
0.0579296
0.165203
0.0581841
0.522122
0.39591
0.123834
0.0353629
-0.178525
-0.183574
-0.278924
-0.278747
-0.122821
-0.0402034
0.00423098
-0.0100693
-0.00633347
0.00493221
0.00754598
0.0143275
0.0172021
0.0162421
0.0118078
0.0189847
0.196951
0.20275
0.199946
0.197496
0.195596
0.21208
0.217021
0.221629
0.232251
0.232551
0.245218
0.316659
0.288616
0.0856405
-0.20217
-0.207434
-0.190977
-0.0452395
0.413754
0.651869
-0.00547851
0.206364
-0.0330551
-0.0732767
-0.26682
-0.242973
-0.049398
0.0929171
0.0644028
0.0258622
-0.054441
-0.0237046
-0.00608815
0.00688521
0.00578414
0.0117598
0.0178204
0.0251906
0.0321379
0.0253069
0.20241
0.19878
0.204262
0.20892
0.213793
0.221278
0.2271
0.239553
0.24423
0.231558
0.185582
0.0435782
0.0299522
0.247406
0.318319
0.301834
0.194223
0.15864
-0.0224245
0.587098
-0.947684
-0.534767
0.00150156
0.171879
0.206922
0.171291
0.032511
-0.103833
-0.110339
-0.0503024
-0.0182532
0.00445942
0.0138541
0.0192944
0.0249418
0.0279565
0.0298222
0.029335
0.0262637
0.0292311
0.201986
0.20408
0.204378
0.206893
0.214361
0.223314
0.226015
0.233142
0.230493
0.20124
0.204048
0.304418
0.208512
-0.00230032
-0.206767
-0.124942
-0.126911
-0.23719
0.00411654
-0.095261
-0.324419
0.0471545
-0.154613
-0.088909
-0.185054
-0.297313
-0.14602
-0.0334501
0.0954664
-0.0198798
-0.0253082
0.00613226
0.0168814
0.0290975
0.0327463
0.0276378
0.0288978
0.0304977
0.0342608
0.0321868
0.207459
0.202009
0.207725
0.214934
0.223448
0.236753
0.251555
0.247803
0.254452
0.220066
0.142627
0.0617723
0.10188
0.127398
-0.0019231
-0.187769
-0.4013
-0.55201
-1.03543
-0.961633
-0.534557
-0.623889
-0.385788
-0.37256
-0.285215
-0.156314
-0.063862
-0.0110952
-0.0654719
-0.0618338
0.0429046
0.0564966
0.0613407
0.0618618
0.0547878
0.0489446
0.0439733
0.0398758
0.0370661
0.0450187
0.199986
0.200182
0.200837
0.208688
0.21558
0.220804
0.237574
0.249202
0.272881
0.235747
0.219994
0.18088
0.0441353
-0.0993373
-0.210112
-0.186945
-0.442457
-0.314209
-1.56801
-2.5469
-0.379697
-0.277453
-0.133546
-0.297491
-0.200549
-0.240841
-0.21383
-0.130862
-0.00127283
0.0184101
0.0657614
0.0948445
0.0842667
0.0814827
0.0677518
0.0590546
0.05007
0.0467921
0.0482777
0.054518
0.185285
0.197154
0.199517
0.203178
0.20729
0.212367
0.220699
0.232547
0.22123
0.209199
0.189452
0.196903
0.213597
0.18514
0.113967
-0.0151282
-0.427909
-0.511359
-1.11537
-0.924683
-0.499515
-0.763254
-0.460501
-0.39034
-0.153142
-0.0437222
0.0558835
0.096175
0.0438206
0.0394171
0.0657634
0.0795149
0.0916118
0.0847298
0.0753054
0.0698254
0.0643057
0.0620137
0.0596476
0.0508675
0.185728
0.176479
0.181088
0.185759
0.190903
0.194366
0.197716
0.201361
0.193543
0.203725
0.159644
0.101519
0.0722149
0.00104714
0.0283381
0.0587708
-0.00515129
-0.116182
-0.224586
-0.432389
-0.463172
-0.241534
-0.0558605
0.134407
0.200582
0.0807559
0.0174752
-0.00631196
0.032095
0.0950759
0.0971635
0.0882395
0.0946854
0.0875643
0.0786379
0.0698998
0.0619139
0.0605825
0.0558762
0.0607585
0.171724
0.177694
0.176027
0.17442
0.173621
0.173391
0.169406
0.171148
0.149006
0.122246
0.123896
0.142557
0.160105
0.119532
0.00901048
-0.0647165
-0.0875348
0.0609791
-0.231231
0.332556
-0.958839
-0.695433
0.127332
0.019872
0.108046
0.0879516
0.216815
0.23571
0.17773
0.107345
0.0953204
0.100679
0.0910322
0.0833728
0.07709
0.0696033
0.0675547
0.0656324
0.0662289
0.0566906
0.163325
0.153341
0.155316
0.157144
0.15719
0.155611
0.150366
0.138298
0.11791
0.0882067
0.0368427
-0.0541653
-0.0936154
-0.090663
-0.0692356
-0.170741
-0.0342647
-0.0613472
0.170497
-0.0501325
-0.208905
0.170337
0.30165
0.401349
0.24374
0.262588
0.18618
0.0670285
0.0477625
0.105659
0.103245
0.0991288
0.0838134
0.0806736
0.074885
0.0699358
0.0641362
0.0597615
0.0566049
0.0629758
0.145677
0.148378
0.142974
0.141134
0.13621
0.129395
0.121762
0.105293
0.0853745
0.0532601
0.0681942
0.0560709
-0.0324163
-0.100183
-0.205164
-0.298454
-0.392293
-0.384135
-0.301116
-0.0349475
0.175148
-0.00245139
0.0756173
0.0209336
0.00100585
0.156499
0.188628
0.186443
0.159026
0.120146
0.0911722
0.0699801
0.0642872
0.064151
0.0638208
0.0637209
0.0607514
0.0608879
0.064187
0.05765
0.138996
0.133505
0.134164
0.133642
0.129119
0.120282
0.110122
0.0919282
0.0763678
0.044016
-0.00726761
-0.0815278
-0.133752
-0.221452
-0.338436
-0.447236
-0.422157
-0.459179
-0.441666
-0.481796
0.00845939
0.265604
0.0665527
0.137965
-0.115048
-0.0473406
-0.016434
-0.0234088
0.0107382
0.0626273
0.0493316
0.0470272
0.0528323
0.0557859
0.0568656
0.0607893
0.0610039
0.0608225
0.0582351
0.0626642
0.140812
0.140106
0.134962
0.127504
0.120999
0.112878
0.103733
0.0921408
0.0694775
0.0554604
0.0607088
0.0508762
0.00597212
-0.0980596
-0.171462
-0.337761
-0.332455
-0.559522
-0.424342
-0.504804
0.895078
0.51594
0.0487701
0.274711
-0.4647
-0.193022
-0.073681
0.0428531
0.0795566
0.0346327
0.0185467
0.0330391
0.0367134
0.0437271
0.0493366
0.0538635
0.0554867
0.064677
0.0665536
0.0728468
0.129597
0.128771
0.131774
0.133823
0.130704
0.125688
0.121778
0.119964
0.117127
0.0815724
0.0346092
0.0245304
0.0673808
0.0505282
0.0217968
-0.0243035
0.0227722
0.0519008
0.0313363
-0.104989
0.0857927
0.225094
0.239185
0.193143
-0.0233848
-0.0440057
-0.0413972
-0.0300125
-0.0511941
-0.029818
0.0126947
0.0503896
0.049503
0.0549891
0.0570928
0.0612142
0.0627041
0.061024
0.0573116
0.0582873
0.131365
0.128488
0.125965
0.123758
0.124063
0.124552
0.125535
0.127726
0.136808
0.158893
0.199223
0.183416
0.130537
0.160964
0.207411
0.225491
0.296731
0.276259
0.316481
0.33751
0.151692
0.134771
0.10468
0.0295323
-0.0186592
-0.0370168
-0.0670183
-0.063633
0.0185927
0.0717556
0.0533064
0.0453154
0.0407274
0.0471134
0.0507319
0.0505598
0.0525611
0.0558171
0.0590832
0.0593316
0.124815
0.124123
0.126698
0.12735
0.129073
0.13186
0.137392
0.148133
0.151331
0.129487
0.133531
0.246089
0.340849
0.349658
0.348194
0.347905
0.486592
0.526759
0.534674
0.460668
-0.0872953
-0.137684
-0.132582
-0.160753
-0.0823198
-0.0635537
-0.0224997
0.0207085
0.0266882
-0.00288614
0.0191652
0.0294825
0.0508865
0.0515158
0.0542444
0.0562286
0.0582919
0.057433
0.0561623
0.0536467
0.121662
0.117402
0.118082
0.119022
0.124702
0.131026
0.136783
0.139738
0.155067
0.199984
0.247337
0.232575
0.255871
0.338371
0.457617
0.463236
0.412266
0.26229
0.0686284
0.015852
-0.080247
-0.25897
-0.278646
-0.2105
-0.149346
-0.107863
-0.10331
-0.0782747
-0.0236571
0.0406095
0.0310361
0.0252692
0.0323263
0.0432142
0.046718
0.0486964
0.0488701
0.0502022
0.0515917
0.0564705
0.114282
0.114441
0.115384
0.119435
0.123357
0.130274
0.145568
0.145062
0.147953
0.151198
0.183883
0.269912
0.297435
0.276073
0.292938
0.267357
0.0763261
0.0993916
-0.0117809
-0.227235
-0.271592
-0.356628
-0.461561
-0.437668
-0.359603
-0.286954
-0.182031
-0.0477021
-0.00646983
0.000497201
0.0175308
0.0335039
0.0424796
0.0498445
0.0533641
0.0526176
0.053005
0.0524109
0.0528076
0.0525827
0.104167
0.105619
0.10594
0.109046
0.110537
0.114275
0.124805
0.146108
0.164701
0.174524
0.220239
0.188988
0.198756
0.235617
0.282484
0.208729
0.0218206
-0.168592
-0.425227
-0.538381
-0.474452
-0.527639
-0.339313
-0.271226
-0.192968
-0.134835
-0.102491
-0.0927619
-0.0444399
0.0157619
0.0633949
0.0555786
0.0411911
0.049392
0.0537367
0.051442
0.0521116
0.0510397
0.0492689
0.052779
0.102208
0.103018
0.101497
0.100018
0.101949
0.108787
0.115554
0.12583
0.140632
0.161621
0.212875
0.258033
0.276582
0.267778
0.227444
0.174907
0.0959878
-0.00426665
-0.0619553
-0.129754
-0.195363
-0.365736
-0.384794
-0.269768
-0.215903
-0.147647
-0.0550483
0.0236894
0.0678661
0.0736536
0.0677959
0.0633647
0.0613154
0.0619467
0.0599365
0.0574937
0.0579004
0.0587398
0.0607421
0.0546744
0.0911174
0.0849875
0.0881876
0.0911968
0.0942261
0.098397
0.104937
0.117239
0.115932
0.135094
0.125454
0.149333
0.211508
0.256132
0.294258
0.307094
0.266001
0.262162
0.111698
-0.0358982
-0.123092
-0.16502
-0.0574748
0.0348533
0.0872789
0.117331
0.112981
0.0957915
0.0557115
0.0489512
0.0685857
0.0680901
0.0818878
0.0747518
0.0659802
0.0610731
0.057354
0.0536985
0.0487974
0.0538581
0.083454
0.0859182
0.0822779
0.0790206
0.0782207
0.0788492
0.0804755
0.0814176
0.0842406
0.103438
0.130263
0.178517
0.180017
0.194206
0.218514
0.234988
0.259883
0.264682
0.299377
0.340958
0.32048
-0.278544
-0.324605
0.267709
0.137351
0.156298
0.139085
0.117547
0.134883
0.135245
0.099105
0.0832119
0.0705484
0.0664011
0.0590797
0.0542899
0.0501186
0.0523079
0.0549373
0.0478872
0.0744913
0.0699907
0.0720889
0.0740239
0.0741352
0.0728541
0.0732508
0.0660589
0.0556901
0.0477558
0.0488221
0.0746377
0.10941
0.126766
0.13025
0.183202
0.162493
0.340164
0.336288
0.158633
0.148008
0.139055
0.125604
0.218931
0.248598
0.235087
0.200444
0.170425
0.113001
0.0771973
0.0776217
0.0715033
0.0656976
0.0639186
0.0608151
0.054927
0.0507559
0.0477989
0.0443694
0.0474572
0.0663857
0.067095
0.0629515
0.0594122
0.0570042
0.0562643
0.052397
0.0481662
0.0476306
0.0557644
0.0745043
0.0764842
0.0794289
0.0909651
0.0885014
0.0523396
0.0458098
0.0399998
0.104632
0.247809
0.243181
0.239129
0.0812118
0.0133668
0.0169034
0.0509994
0.0688559
0.0773987
0.0946798
0.107346
0.0811669
0.0605599
0.0472885
0.0477894
0.049566
0.0432375
0.0416834
0.0419799
0.0434934
0.0416405
0.0606004
0.056649
0.0578109
0.0577198
0.0572889
0.0564542
0.0548505
0.0508942
0.0288881
0.0171729
0.00958931
0.0172731
0.00143062
-0.0209308
-0.0238003
0.0286967
0.0351491
0.0766329
-0.0187312
-0.0639015
-0.0861111
0.0806183
0.152771
-0.0316201
0.0102848
-0.0394114
-0.0269596
-0.010608
0.00178737
0.00673015
0.0206944
0.0292521
0.0401131
0.042138
0.0479161
0.0440388
0.0414748
0.0394511
0.0367834
0.040477
0.0569181
0.0534485
0.0511555
0.0487249
0.0479366
0.0471855
0.0493946
0.0532027
0.0374931
0.0425372
0.041311
0.0446645
0.058362
0.0626542
0.042262
0.0660558
0.0423424
0.00807817
0.0474763
0.047147
0.0866011
0.148918
-0.00131221
-0.134044
-0.146456
-0.0962727
-0.0428979
-0.0555554
-0.0159471
-0.00773602
0.00419529
0.000728405
0.0412478
0.0375787
0.0350616
0.0328226
0.03123
0.0292045
0.0310185
0.0315366
0.0503251
0.0550466
0.0542659
0.0532981
0.0526047
0.0528436
0.0561239
0.0522915
0.0391033
0.0350489
0.0546056
0.0871611
0.106885
0.134663
0.175322
0.24332
0.334284
0.292433
0.238453
0.075847
-0.00635299
0.00890467
0.0201263
0.00885779
-0.034926
-0.057356
-0.0623799
-0.0596608
-0.047806
-0.0376055
-0.0218718
-0.00500808
0.0175255
0.0239212
0.0260205
0.0266049
0.0262662
0.0249069
0.0242617
0.018753
0.0512035
0.0481194
0.0489492
0.0484561
0.0500904
0.0522173
0.0559982
0.0552809
0.0631926
0.0900515
0.0895164
0.126441
0.179886
0.243169
0.293769
0.334018
0.311956
0.372072
0.349457
0.277596
0.235629
0.146939
0.016349
-0.0236335
-0.0549857
-0.0460959
-0.0511977
-0.0587266
-0.0634304
-0.0384155
-0.00795295
-0.00287792
0.00452714
0.00749437
0.0114145
0.0128539
0.0123062
0.0120763
0.011515
0.0183365
0.046635
0.0500864
0.0486266
0.0481864
0.048615
0.0514569
0.0555632
0.0585486
0.0647348
0.073659
0.114611
0.165329
0.187393
0.230387
0.311772
0.400058
0.517567
0.547634
0.515247
0.261911
0.177281
0.041324
0.0219266
0.00224608
-0.0435867
-0.1044
-0.111032
-0.0888213
-0.0546203
-0.030253
-0.0477658
-0.0349622
-0.00685698
0.00122307
0.00557292
0.00646874
0.00874636
0.0109841
0.013351
0.00981532
0.0455005
0.041674
0.0436648
0.0458518
0.0480421
0.0500948
0.0544761
0.0645119
0.088039
0.100909
0.112562
0.139841
0.215394
0.270388
0.305701
0.311945
0.302642
0.253871
0.23484
0.25707
0.213623
0.0543713
-0.0795185
-0.127941
-0.0897144
-0.0790865
-0.0656913
-0.0660926
-0.069676
-0.0678686
-0.0433442
-0.0284491
-0.0175718
-0.00891415
-0.00326987
6.79325e-05
0.0011589
0.00142111
0.000508488
0.00620354
0.0426552
0.0431945
0.0416484
0.0411787
0.0428714
0.0431434
0.0464681
0.05605
0.0687919
0.0760155
0.111795
0.125228
0.129981
0.123975
0.13934
0.183802
0.256214
0.276616
0.225922
0.154742
0.0644413
-0.000972743
-0.0784558
-0.102253
-0.217822
-0.215594
-0.18194
-0.125652
-0.0677878
-0.0472953
-0.0467294
-0.0370766
-0.0249001
-0.0164947
-0.00929865
-0.00712711
-0.00542011
-0.00148019
0.00187216
-0.00197261
0.0402826
0.0375796
0.0397818
0.0410442
0.0413041
0.0402072
0.0451836
0.0533442
0.0641357
0.0666402
0.0645447
0.0621432
0.0999976
0.102054
0.0634122
0.0286412
0.0928376
0.0302678
-0.0942765
-0.0194966
-0.0581098
-0.0754813
-0.0436566
-0.0640868
-0.10027
-0.0836814
-0.0884009
-0.101163
-0.100659
-0.0909194
-0.03215
-0.0246527
-0.0202205
-0.016772
-0.0115413
-0.00865778
-0.00547082
-0.00536738
-0.0071385
-0.00610718
0.0356604
0.0359232
0.0347418
0.0333397
0.0341473
0.0313739
0.0353045
0.0398602
0.0460235
0.060107
0.0724154
0.0725307
0.0618461
0.0322761
0.0158574
0.0387913
0.0633451
0.0894112
0.0668393
0.0585065
0.016496
0.010348
0.00379204
-0.0254007
-0.059328
-0.103551
-0.107836
-0.0810981
-0.0503688
-0.0374285
-0.0302256
-0.0252844
-0.021125
-0.0268522
-0.0210046
-0.0161565
-0.0107015
-0.0066219
-0.00292561
-0.0031307
0.0278323
0.0297635
0.0305286
0.0310955
0.0319972
0.0324603
0.0320718
0.0337818
0.0379878
0.0413678
0.0437334
0.046383
0.0680076
0.0931346
0.0975818
0.0874713
0.110988
0.0989918
0.0737491
0.066611
0.0729364
0.0707219
0.102442
0.133646
0.0393016
0.0445365
0.0198024
-0.01679
-0.0380511
-0.0431675
-0.041398
-0.0327112
-0.0201101
-0.0159756
-0.0124598
-0.00909312
-0.00741608
-0.00731045
-0.00871124
-0.00892843
0.02742
0.0246691
0.0240417
0.0230001
0.0227666
0.0242648
0.0254676
0.0263753
0.0394527
0.0480258
0.0567954
0.0737939
0.0927222
0.113196
0.0829047
0.140088
0.165329
0.210497
0.248138
0.231156
0.225867
0.175754
0.0857872
0.0762748
0.0329613
-0.0161155
-0.0252447
-0.0206654
-0.0246979
-0.0151391
-0.00870228
-0.00865771
-0.0134876
-0.0155669
-0.0166592
-0.0146769
-0.0131129
-0.0103247
-0.00761168
-0.00495497
0.0237834
0.0259908
0.0247218
0.0249082
0.0241548
0.0250808
0.0260963
0.0263484
0.0302637
0.035368
0.0391006
0.0502856
0.0716672
0.110192
0.146302
0.152443
0.210341
0.205465
0.185033
0.15836
0.13757
0.0667595
0.0583412
0.0835031
0.0559825
0.05406
0.0108719
-0.014877
-0.0192266
-0.0191221
-0.0240941
-0.0243964
-0.0207375
-0.00489264
-0.00692886
-0.00390333
-0.00429603
-0.00418178
-0.00447301
-0.00578101
0.0227893
0.0203165
0.0218228
0.0225805
0.0231023
0.0247802
0.0250865
0.0281929
0.0355206
0.0395518
0.0480156
0.07428
0.089559
0.0790073
0.0550865
0.042464
0.0234521
0.101262
0.116321
0.116817
0.108579
0.103608
0.0330091
-0.0834728
-0.13647
-0.128504
-0.0735922
-0.0355312
-0.0205632
-0.0189527
-0.0183566
-0.0128564
-0.0137169
-0.00915074
-0.00799525
-0.0045312
-0.00476607
-0.00427194
-0.00458523
-0.00262122
0.0177557
0.0225181
0.0224265
0.0226453
0.0228273
0.0240633
0.022728
0.0234181
0.0212372
0.0207809
0.0240544
0.0155444
-0.00685993
-0.00148747
0.0424725
0.0729396
0.0444188
-0.0220834
-0.0752213
-0.104443
-0.122973