/*--------------------------------*- C++ -*----------------------------------*\
| =========                 |                                                 |
| \\      /  F ield         | OpenFOAM: The Open Source CFD Toolbox           |
|  \\    /   O peration     | Version:  v2106                                 |
|   \\  /    A nd           | Website:  www.openfoam.com                      |
|    \\/     M anipulation  |                                                 |
\*---------------------------------------------------------------------------*/
FoamFile
{
    version     2.0;
    format      ascii;
    arch        "LSB;label=32;scalar=64";
    class       volVectorField;
    location    "0";
    object      U;
}
// * * * * * * * * * * * * * * * * * * * * * * * * * * * * * * * * * * * * * //

dimensions      [0 1 -1 0 0 0 0];

internalField   nonuniform List<vector> 
11644
(
(-0.000131744 4.03536e-05 5.05532e-21)
(-0.000132353 7.70516e-05 1.39411e-20)
(-0.000147777 0.000150537 7.47973e-21)
(-0.000221281 0.000191624 0)
(-0.000186975 0.000325047 0)
(-9.50923e-05 0.000449013 0)
(-4.34326e-05 0.000544992 0)
(-0.00010602 0.000652245 0)
(-0.000102289 0.000748369 0)
(-5.24716e-05 0.000831916 0)
(-0.000129041 0.000822776 0)
(-0.00029127 0.000761317 0)
(-7.36959e-05 0.000573587 0)
(0.000495639 0.000449019 0)
(2.17323e-05 0.000463624 0)
(-0.000315593 0.000161375 0)
(-0.000337182 0.000807225 0)
(0.000115845 0.00193938 0)
(0.000199731 0.002892 0)
(0.000273937 0.00369232 1.17306e-30)
(0.000369005 0.00479829 -1.14398e-30)
(0.000573534 0.00548363 0)
(0.000990633 0.00474461 0)
(0.000858581 0.00365434 0)
(0.000394445 0.0030376 0)
(-8.53293e-05 0.00263176 0)
(-0.000717408 0.00168639 0)
(-0.000456032 0.000921914 0)
(-3.22038e-06 0.000209352 0)
(-8.69513e-05 -0.000359713 0)
(-0.000137166 -0.000735694 0)
(-0.000164084 -0.000988856 0)
(-0.000159585 -0.0010886 0)
(-0.000195216 -0.0010743 0)
(-0.000238105 -0.000999649 0)
(-0.000269142 -0.000872585 0)
(-0.000258534 -0.000720653 0)
(-0.000318745 -0.000595644 0)
(-0.00035197 -0.00043243 0)
(-0.000320069 -0.00018281 9.80175e-22)
(-6.60513e-05 -5.50162e-05 6.49352e-21)
(-0.000212351 -0.000142045 6.01509e-21)
(-0.000372653 -0.000242464 3.23051e-21)
(-0.000590149 -0.000295208 0)
(-0.000635826 -0.000212497 0)
(-0.000754542 -5.38336e-05 0)
(-0.000891496 0.000256169 0)
(-0.000991093 0.000656928 0)
(-0.00117312 0.00105212 0)
(-0.00144672 0.00144361 0)
(-0.00115485 0.00198321 0)
(-0.0010066 0.00219225 0)
(-0.00113456 0.00258897 0)
(-0.00178279 0.00269231 0)
(-0.000969028 0.00300742 0)
(-0.000208131 0.00412268 -5.67724e-24)
(-3.91253e-05 0.00494006 7.63651e-21)
(-0.000291652 0.0064589 -9.81164e-21)
(0.000239347 0.00917877 -2.12638e-20)
(0.000742647 0.0122106 2.78488e-20)
(0.00110227 0.0142926 -3.06893e-20)
(0.00148472 0.0142784 4.08892e-20)
(0.00197895 0.0132497 -7.6043e-21)
(0.00256973 0.011557 -6.91731e-21)
(0.00262701 0.0094219 -1.18194e-22)
(0.00208132 0.00670737 0)
(0.00237142 0.00417876 0)
(0.00178377 0.00204252 0)
(0.000429696 0.000354384 0)
(1.23995e-05 -0.000916232 0)
(-6.90699e-05 -0.00185681 0)
(-0.000365601 -0.00238088 0)
(-0.000605023 -0.00260263 0)
(-0.000698025 -0.00260677 0)
(-0.00070441 -0.0024924 0)
(-0.000815871 -0.00223061 0)
(-0.000798146 -0.00189635 0)
(-0.000957909 -0.00143023 0)
(-0.00097755 -0.000903137 0)
(-0.000900012 -0.000306223 0)
(0.000746373 -0.000163204 0)
(0.000474321 -0.000598528 0)
(9.03954e-05 -0.000806773 0)
(-0.000216371 -0.000967962 0)
(-0.000486057 -0.00120097 5.93171e-21)
(-0.000907654 -0.00134866 0)
(-0.00140394 -0.00124973 0)
(-0.00198515 -0.000963274 0)
(-0.0024936 -0.000388041 0)
(-0.0029665 0.000419394 0)
(-0.00387968 0.0010858 0)
(-0.00367659 0.00213704 0)
(-0.00340073 0.00290092 2.29514e-22)
(-0.00125762 0.00394158 1.0031e-20)
(-0.00129996 0.00503227 -2.30756e-20)
(-0.00205359 0.00627233 -2.87762e-20)
(-0.00156422 0.00783758 -7.82033e-21)
(-0.00134181 0.00990172 1.1548e-19)
(-0.00114184 0.0137054 4.47928e-20)
(-3.42349e-05 0.0175278 1.07293e-19)
(0.00138264 0.0194467 -2.60098e-19)
(0.00254437 0.0201554 1.38413e-19)
(0.00342588 0.0196455 -1.42018e-19)
(0.00462531 0.0176568 1.50767e-19)
(0.00490915 0.0142839 -1.08645e-19)
(0.0052036 0.0102031 1.55782e-20)
(0.00421648 0.00610553 -1.18683e-20)
(0.0032673 0.00242515 -8.62423e-23)
(0.00315711 -0.000762053 0)
(0.00199689 -0.00278616 0)
(0.000551083 -0.00376792 0)
(-0.000163233 -0.00438571 0)
(-0.000747349 -0.00451154 0)
(-0.00108156 -0.00431742 0)
(-0.00141825 -0.00389989 0)
(-0.00151984 -0.00337669 0)
(-0.00160348 -0.00272681 0)
(-0.00166558 -0.00193728 0)
(-0.00161124 -0.00114389 0)
(-0.00146185 -0.000349885 0)
(0.00185863 -0.00074301 0)
(0.00161304 -0.00158014 0)
(0.00119229 -0.00226954 0)
(0.000739725 -0.00292265 0)
(0.000156835 -0.00349462 0)
(-0.000525151 -0.00391162 0)
(-0.00139117 -0.00411927 0)
(-0.00226704 -0.00403739 0)
(-0.00338104 -0.00362386 0)
(-0.00460519 -0.00286738 0)
(-0.00479425 -0.0010983 6.38089e-22)
(-0.00533559 0.000428224 -2.35761e-21)
(-0.00492453 0.00279987 2.09173e-20)
(-0.00746473 0.00398002 -2.12363e-19)
(-0.00796648 0.00443116 1.82322e-19)
(-0.00672036 0.00683964 2.26926e-20)
(-0.00640207 0.00895838 1.73989e-19)
(-0.00592155 0.0115497 -1.83674e-19)
(-0.00360127 0.0153598 -1.99997e-19)
(-0.000917557 0.0196173 -1.50012e-19)
(0.00237357 0.0229768 4.36391e-19)
(0.00524306 0.0243373 1.62543e-19)
(0.00670213 0.0243873 -1.00459e-19)
(0.00947894 0.0220021 1.8606e-19)
(0.0117538 0.017924 -3.94344e-19)
(0.0109059 0.0116459 -1.44132e-19)
(0.00893614 0.00533399 2.11546e-19)
(0.00709478 0.00038467 -1.74699e-20)
(0.0039451 -0.00283861 7.4128e-21)
(0.00241916 -0.00530355 -4.09016e-22)
(0.00145566 -0.00667891 0)
(-4.4185e-05 -0.00671611 0)
(-0.00105506 -0.00636973 0)
(-0.00165509 -0.00577754 0)
(-0.00212465 -0.00499679 0)
(-0.0022712 -0.00421297 0)
(-0.00238054 -0.00332158 0)
(-0.00247658 -0.00233347 0)
(-0.00253626 -0.00121628 0)
(-0.00245245 -0.000342039 0)
(0.00343323 -0.000444786 0)
(0.00319453 -0.00210458 0)
(0.00283748 -0.00361721 0)
(0.00226086 -0.00505695 0)
(0.00148469 -0.00640107 0)
(0.000516525 -0.00746062 0)
(-0.000593844 -0.00823597 0)
(-0.00184152 -0.00860874 0)
(-0.00327123 -0.00841609 0)
(-0.00464708 -0.00719752 -8.32456e-21)
(-0.00716726 -0.00484982 3.23987e-20)
(-0.0101049 -0.00103019 -2.07044e-19)
(-0.0145027 0.00113928 1.08105e-19)
(-0.0135262 0.00392497 2.63015e-19)
(-0.01282 0.00505507 -1.26315e-19)
(-0.0175776 0.00672469 2.13523e-19)
(-0.0149308 0.00944285 -1.79949e-19)
(-0.00794037 0.0122032 7.43864e-19)
(-0.00420328 0.0168583 -1.36112e-18)
(5.56313e-05 0.0206278 1.07682e-18)
(0.00601284 0.0242196 -1.41805e-18)
(0.0103783 0.0262779 1.3535e-18)
(0.012204 0.0262408 -3.8248e-19)
(0.0164233 0.0252803 5.16602e-19)
(0.0183111 0.0201369 -5.30471e-19)
(0.0189945 0.0123493 1.2026e-19)
(0.0174248 0.00503257 -2.50507e-19)
(0.011291 -0.000999762 -2.59602e-20)
(0.00737426 -0.00565522 8.70225e-20)
(0.00304053 -0.00779792 -2.53368e-20)
(0.000537505 -0.00862108 -1.31872e-21)
(-0.00059813 -0.00862549 0)
(-0.00178295 -0.00775621 0)
(-0.00252726 -0.00673308 0)
(-0.00307122 -0.0056587 0)
(-0.00341782 -0.00453818 0)
(-0.00367221 -0.00341577 0)
(-0.00377188 -0.00237188 0)
(-0.00376824 -0.00133929 0)
(-0.00382303 -0.000507339 0)
(0.00559817 -0.00151625 0)
(0.00534119 -0.00314244 0)
(0.00505962 -0.00502856 0)
(0.00464453 -0.00691674 0)
(0.00382255 -0.00897102 0)
(0.00281292 -0.0107628 0)
(0.00154915 -0.0124175 0)
(-8.60793e-05 -0.0136274 0)
(-0.00201125 -0.0140087 4.2563e-22)
(-0.00583388 -0.0130087 -5.58887e-20)
(-0.0127487 -0.0105923 1.21836e-19)
(-0.0210854 -0.00760316 -1.64192e-19)
(-0.0251741 0.000188534 1.24965e-19)
(-0.0308545 0.00562502 -3.99778e-19)
(-0.0295824 0.00509541 7.39738e-19)
(-0.0207693 0.00667561 1.074e-19)
(-0.0175147 0.0124256 -9.56893e-19)
(-0.0126119 0.0171408 7.61165e-19)
(-0.00654943 0.0177139 1.28412e-19)
(-0.00134118 0.0203594 -9.96233e-19)
(0.00708779 0.0262052 1.30998e-18)
(0.0116243 0.0254811 -2.42789e-19)
(0.0151367 0.0244987 -9.3255e-19)
(0.0194409 0.0219362 5.21703e-19)
(0.0198256 0.0191833 2.32149e-19)
(0.0204849 0.0124068 -6.75165e-19)
(0.0190238 0.00399113 3.1509e-19)
(0.0168192 -0.00264895 -1.3267e-19)
(0.0116182 -0.00586983 3.14846e-19)
(0.00539201 -0.00822554 -1.51584e-19)
(0.000171854 -0.0091122 2.82669e-20)
(-0.00211981 -0.00896546 -3.76859e-22)
(-0.00301882 -0.0080453 0)
(-0.00389039 -0.00673018 0)
(-0.00448543 -0.00540384 0)
(-0.00488503 -0.00409196 0)
(-0.00512372 -0.00300005 0)
(-0.00510891 -0.0019365 0)
(-0.00510603 -0.00126775 0)
(-0.00517913 -6.79826e-05 0)
(0.0085331 -0.000762609 0)
(0.0083311 -0.00401745 0)
(0.00801474 -0.00672736 0)
(0.00761581 -0.00967261 0)
(0.00699043 -0.0121934 0)
(0.00602085 -0.0148569 0)
(0.00474238 -0.0174 0)
(0.00290879 -0.0194274 2.02672e-21)
(-0.00130167 -0.0204298 5.44008e-20)
(-0.00929225 -0.0199313 3.04217e-20)
(-0.018534 -0.0160965 8.5885e-21)
(-0.0271257 -0.00735494 -2.13301e-19)
(-0.0347875 0.000138965 7.77954e-20)
(-0.0373966 0.00581266 1.27255e-19)
(-0.037289 0.0160042 1.15294e-20)
(-0.0362393 0.0163234 -1.73743e-19)
(-0.0225903 0.0116517 1.32519e-19)
(-0.0209148 0.0155527 -2.28584e-19)
(-0.0162516 0.0196545 -9.36391e-20)
(-0.0102106 0.0220073 1.18662e-20)
(-0.000421655 0.0224145 1.17149e-18)
(0.0050218 0.0215948 1.47987e-19)
(0.0110763 0.022805 -2.14455e-19)
(0.0180779 0.0221601 2.44315e-19)
(0.0199704 0.0168756 1.07985e-19)
(0.0198647 0.012573 -1.09959e-19)
(0.0270764 0.00695856 -1.11972e-19)
(0.0200937 0.00183465 1.17915e-19)
(0.0180106 -0.00307219 -1.86782e-20)
(0.0121248 -0.0071011 -4.25628e-20)
(0.00384402 -0.00848153 -4.83937e-21)
(-0.00217589 -0.00836563 9.44358e-21)
(-0.00461095 -0.00787755 -5.0807e-22)
(-0.0053623 -0.00668205 0)
(-0.00595241 -0.00537324 0)
(-0.00619992 -0.00425564 0)
(-0.0064136 -0.00312409 0)
(-0.00630779 -0.00233569 0)
(-0.00621007 -0.00114973 0)
(-0.00621671 -0.00106328 0)
(0.0121647 -0.00207713 0)
(0.0120256 -0.00482005 0)
(0.01187 -0.00807995 0)
(0.0116373 -0.01121 0)
(0.0111799 -0.0145552 0)
(0.0105747 -0.0181026 0)
(0.00955209 -0.0217857 0)
(0.00683757 -0.0250269 -1.98498e-20)
(-0.00143392 -0.0263603 2.79541e-20)
(-0.0123778 -0.024386 -2.57123e-20)
(-0.0234483 -0.0198265 -9.4528e-20)
(-0.033982 -0.0148472 -2.37109e-19)
(-0.0470949 -0.00615066 3.16028e-19)
(-0.0421859 0.00790889 6.93957e-20)
(-0.0494132 0.00720603 4.35444e-19)
(-0.0540562 0.0136752 4.06639e-20)
(-0.0402571 0.0214372 1.90743e-19)
(-0.0299358 0.0143942 1.81118e-19)
(-0.0195373 0.017426 6.13066e-20)
(-0.0128755 0.0165227 -7.46318e-19)
(-0.00493555 0.0157319 -3.12108e-19)
(-0.000220863 0.0191255 2.44682e-19)
(0.00654667 0.0204282 -8.62354e-19)
(0.0167329 0.0198206 3.31406e-19)
(0.0183492 0.0123628 -7.57745e-20)
(0.0200004 0.0143017 -1.78495e-19)
(0.0226606 0.0154603 3.15093e-19)
(0.0264633 0.00864408 3.69529e-20)
(0.0252995 0.00651457 -2.92851e-20)
(0.0192483 0.000164878 2.6429e-20)
(0.0103262 -0.00498442 3.21987e-20)
(0.00136232 -0.00741762 -2.96067e-20)
(-0.00530278 -0.0071922 1.25517e-20)
(-0.00713125 -0.00625285 0)
(-0.00746977 -0.00452435 0)
(-0.00764741 -0.00286681 0)
(-0.00757287 -0.00161178 0)
(-0.00735839 -0.000852576 0)
(-0.00712016 -0.000438845 0)
(-0.00716684 0.000682282 0)
(0.015915 -0.00173098 0)
(0.0159426 -0.00538736 0)
(0.0159468 -0.00915633 0)
(0.0159934 -0.0122744 0)
(0.0160419 -0.0162779 0)
(0.0162583 -0.0205986 0)
(0.0161286 -0.0252976 -8.75649e-22)
(0.0111274 -0.0284574 4.25424e-21)
(-0.00113206 -0.0292341 -1.5045e-21)
(-0.0134165 -0.0263004 -1.86493e-20)
(-0.0247786 -0.0203382 1.33096e-20)
(-0.0353286 -0.0151436 9.24947e-20)
(-0.0450502 0.00194792 -7.7313e-20)
(-0.0424556 0.00686769 2.28443e-20)
(-0.050193 0.00668539 2.99229e-19)
(-0.0381323 0.0148675 2.11871e-20)
(-0.0430252 0.02157 6.24642e-20)
(-0.0287563 0.0248342 2.71313e-19)
(-0.0163517 0.0144998 7.61339e-19)
(-0.0111055 0.0113516 -1.0242e-18)
(-0.00671417 0.00705784 -7.85112e-19)
(-0.00296433 0.0100142 1.72998e-19)
(0.00355399 0.0140441 5.13948e-19)
(0.01194 0.0139653 -2.33321e-19)
(0.0126437 0.0164758 4.4212e-20)
(0.0307479 0.0188547 1.6888e-19)
(0.0343308 0.0206023 3.12335e-20)
(0.0394709 0.0115126 1.44422e-20)
(0.0360655 0.016243 1.46147e-20)
(0.0296802 0.0075446 1.26509e-20)
(0.0189701 0.0015683 1.24452e-20)
(0.00735432 -0.00331861 -2.06019e-20)
(-0.00370505 -0.00530662 7.85714e-21)
(-0.00885847 -0.00500114 -2.36745e-21)
(-0.00918452 -0.00380897 0)
(-0.00910625 -0.00234477 0)
(-0.00887108 -0.00145766 0)
(-0.00840734 -0.000224113 0)
(-0.008147 -0.000446956 0)
(-0.00792285 -0.000520976 0)
(0.0191731 -0.0019355 0)
(0.0193643 -0.00633643 0)
(0.0196691 -0.00956879 0)
(0.0207743 -0.0142612 0)
(0.0218982 -0.018336 0)
(0.0233344 -0.0228789 0)
(0.0233874 -0.0271617 1.38695e-20)
(0.0151297 -0.0299377 -4.81165e-21)
(4.05033e-05 -0.0288959 -3.59953e-20)
(-0.0126127 -0.0247953 5.93931e-20)
(-0.0230622 -0.0216525 -8.07215e-20)
(-0.0350465 -0.015783 5.16963e-20)
(-0.0474415 0.00600987 -2.76275e-20)
(-0.04617 0.00310296 1.07805e-19)
(-0.048737 0.0061674 -6.0212e-20)
(-0.0380862 0.0243899 1.43964e-19)
(-0.0298978 0.0197982 -1.62126e-19)
(-0.0172452 0.0221723 6.25929e-20)
(-0.00767462 0.015331 5.22523e-19)
(-0.00208331 0.000238072 4.95523e-19)
(-0.010325 -0.00818061 1.76211e-19)
(-0.0146161 -0.000621812 2.48979e-20)
(-0.0100249 0.0122518 -3.57851e-19)
(0.00590996 0.020225 3.41223e-20)
(0.0207122 0.0245006 -1.16615e-19)
(0.0320835 0.018186 -3.46207e-19)
(0.0407164 0.0297707 3.89876e-20)
(0.052375 0.017368 -1.22829e-20)
(0.0510677 0.0193156 -2.65206e-21)
(0.0441649 0.0148123 1.60404e-20)
(0.0301463 0.0084101 -1.27172e-20)
(0.015242 0.00139742 8.04245e-21)
(0.000303283 -0.00232659 1.30433e-21)
(-0.00978945 -0.00292602 -3.416e-21)
(-0.0111324 -0.00222 0)
(-0.010833 -0.00141365 0)
(-0.0103827 -0.00074228 0)
(-0.00992295 -0.00103195 0)
(-0.00931867 0.000335525 0)
(-0.00908755 -0.000284685 0)
(0.0213015 -0.00142823 0)
(0.0217418 -0.00549851 0)
(0.0227408 -0.0094645 0)
(0.0241961 -0.0127687 0)
(0.0262567 -0.0164876 0)
(0.0288672 -0.0209965 0)
(0.02812 -0.0247474 -1.69998e-21)
(0.0167301 -0.0269414 -2.10372e-22)
(0.000953244 -0.0267042 -4.04388e-21)
(-0.0130111 -0.0222839 2.65015e-21)
(-0.0234465 -0.0194583 2.98636e-20)
(-0.0300268 -0.0220014 -3.81621e-20)
(-0.03609 -0.0143739 9.97342e-21)
(-0.0508716 -0.00415672 2.6381e-21)
(-0.0424728 0.00440246 -7.90455e-20)
(-0.051444 0.0117283 7.82167e-21)
(-0.0402226 0.0256089 -1.58098e-20)
(-0.0163924 0.0311347 7.54066e-21)
(0.0156554 0.0274981 -1.64808e-20)
(0.0370649 -0.0117298 3.581e-19)
(-0.00580142 -0.0524408 7.26978e-19)
(-0.0527428 -0.0179675 9.79172e-19)
(-0.0341203 0.0238497 -7.44513e-21)
(-0.00616476 0.0347323 -1.05263e-20)
(0.0167235 0.0294419 1.94138e-20)
(0.0373136 0.0271123 4.8759e-20)
(0.0544789 0.031854 -1.83346e-21)
(0.0623212 0.0289697 -4.35391e-20)
(0.0647457 0.0261953 4.62608e-20)
(0.057047 0.0183815 -2.84346e-20)
(0.0408905 0.0114694 5.7923e-21)
(0.0236858 0.00598666 3.11076e-21)
(0.00531282 0.00172524 -8.0569e-22)
(-0.00979877 -0.00030844 -1.5045e-23)
(-0.0131077 4.72523e-05 0)
(-0.0122272 0.00137542 0)
(-0.0112552 0.00261264 0)
(-0.0108667 0.00312791 0)
(-0.0108456 0.00225175 0)
(-0.0109561 0.00146855 0)
(0.0234226 -0.00463744 0)
(0.0243944 -0.00640385 0)
(0.0260617 -0.00947684 0)
(0.027595 -0.0114829 0)
(0.0304258 -0.0147132 0)
(0.0338787 -0.0184852 0)
(0.0310217 -0.0212795 5.21156e-22)
(0.0156283 -0.0224964 8.69659e-22)
(-0.000304161 -0.0227435 -6.85501e-22)
(-0.0127262 -0.0216481 1.64788e-22)
(-0.0257167 -0.0170738 -8.94112e-22)
(-0.0321466 -0.0212317 5.60074e-21)
(-0.0372051 -0.0190289 -4.48512e-21)
(-0.0396013 -0.0115345 1.711e-20)
(-0.0411319 -0.0105195 -1.70994e-20)
(-0.046393 0.00536719 2.58348e-20)
(-0.0450135 0.0186092 -2.8272e-20)
(-0.042566 0.0448066 5.88688e-21)
(-0.0928409 0.189327 -3.43793e-19)
(0.0263001 0.14568 1.58942e-18)
(0.00664427 0.0549805 2.52391e-20)
(0.0282878 0.0480663 -1.12507e-20)
(0.0494764 0.049069 1.45869e-20)
(0.0690917 0.0280856 -9.44368e-22)
(0.0790057 0.0414463 -1.03214e-21)
(0.0733232 0.0295864 -7.20337e-21)
(0.0612909 0.0178992 8.15508e-21)
(0.04621 0.0130974 1.66192e-21)
(0.02932 0.00956102 3.15568e-22)
(0.00896978 0.00565791 1.04363e-21)
(-0.0105173 0.00280183 9.81175e-23)
(-0.016554 0.00198225 0)
(-0.0155019 0.00233751 0)
(-0.0145078 0.0018941 0)
(-0.0135266 0.00179317 0)
(-0.0131959 0.000250368 0)
(-0.011937 0.000915304 0)
(0.0237888 0.0023473 0)
(0.0255181 -0.00268653 0)
(0.0268686 -0.00523276 0)
(0.0293105 -0.00832115 0)
(0.0324878 -0.0111845 0)
(0.035975 -0.0143961 0)
(0.0305654 -0.0168112 -1.21533e-21)
(0.0129605 -0.0181509 -2.16147e-22)
(-0.00733675 -0.0173097 1.72918e-21)
(-0.0217596 -0.0189769 1.39399e-22)
(-0.0371841 -0.0161294 1.69457e-20)
(-0.0444145 -0.0208709 -4.10826e-20)
(-0.0497434 -0.0295823 4.38305e-20)
(-0.0529607 -0.0254321 2.99189e-20)
(-0.0615198 -0.0327867 -1.58817e-20)
(-0.0657181 -0.0254131 -3.38733e-20)
(-0.0734803 -0.0133281 -1.14483e-20)
(-0.125148 0.0123998 9.03869e-22)
(-0.0238518 0.166354 -1.61692e-17)
(0.0595023 0.16268 1.61469e-19)
(0.0447545 0.0364331 2.06883e-20)
(0.0254835 0.0335098 -4.92149e-21)
(0.0354496 0.0473004 6.53832e-21)
(0.0550676 0.0326133 -5.24824e-20)
(0.0606161 0.0474722 -4.45488e-20)
(0.063788 0.0300679 2.72167e-20)
(0.0595754 0.0202484 -6.42188e-21)
(0.0465047 0.0174666 1.33413e-20)
(0.0283752 0.0140162 -4.73551e-21)
(0.00811741 0.0098702 -3.16943e-21)
(-0.0115101 0.00774152 5.58736e-22)
(-0.0187346 0.00660987 0)
(-0.01718 0.00570768 0)
(-0.01551 0.00441892 0)
(-0.014269 0.00272709 0)
(-0.0133069 0.00311898 0)
(-0.0144839 -0.00113949 0)
(0.0223468 -0.00258169 6.35184e-24)
(0.0253058 -0.00260959 0)
(0.0280074 -0.00495125 0)
(0.0304033 -0.00750207 0)
(0.0325384 -0.0095059 0)
(0.0353004 -0.0119928 0)
(0.0279054 -0.0136998 -1.59747e-21)
(0.00666834 -0.0164373 2.67849e-21)
(-0.0162734 -0.0156287 -1.00859e-21)
(-0.03441 -0.0189482 1.37217e-20)
(-0.0505978 -0.0192088 -4.70193e-20)
(-0.0648961 -0.0288587 1.09778e-19)
(-0.0696481 -0.0431584 -3.96262e-20)
(-0.0679343 -0.0487136 -1.62379e-20)
(-0.0680124 -0.058043 4.84994e-19)
(-0.0711421 -0.0568196 -3.31542e-19)
(-0.0785157 -0.058379 -2.41225e-19)
(-0.342632 -0.00518333 4.47908e-21)
(-0.231927 0.125736 7.0759e-19)
(0.256037 0.0860223 -2.52965e-19)
(0.0948608 0.000895694 6.08463e-20)
(0.00312198 0.00932058 7.85058e-20)
(0.00895661 0.035876 1.17445e-19)
(0.0296475 0.0465205 3.21911e-19)
(0.044826 0.0579616 1.22241e-19)
(0.0494765 0.0455168 -9.66004e-20)
(0.0480527 0.0370854 -3.46313e-20)
(0.0423531 0.0300271 5.34105e-21)
(0.0274722 0.0225091 -7.53232e-21)
(0.00741645 0.0180357 -1.9038e-21)
(-0.0130342 0.0151627 4.5967e-21)
(-0.0190493 0.0130535 0)
(-0.0161582 0.0116026 0)
(-0.0142999 0.00979868 0)
(-0.0143363 0.00714892 0)
(-0.0152372 0.00391245 0)
(-0.0177597 0.0032146 0)
(0.0364203 -0.000174688 -9.88783e-24)
(0.033953 -0.00167049 0)
(0.0337275 -0.00467663 0)
(0.035462 -0.00623053 0)
(0.0371678 -0.00748676 0)
(0.0380025 -0.00961959 0)
(0.0305026 -0.0127555 1.48016e-22)
(0.00793871 -0.0174724 -2.51695e-21)
(-0.0155266 -0.0193633 -1.01293e-21)
(-0.0373225 -0.026297 3.92732e-20)
(-0.0548318 -0.031218 -1.29727e-19)
(-0.0634425 -0.039966 1.01037e-19)
(-0.0625006 -0.0543727 -1.71276e-20)
(-0.0529983 -0.0554917 2.56042e-19)
(-0.0403688 -0.0756773 2.75545e-19)
(-0.0445995 -0.089882 -4.58517e-21)
(-0.0598118 -0.113753 2.12906e-20)
(-0.57272 -0.0710219 -4.6481e-19)
(-0.208465 -0.116368 1.23377e-19)
(-0.0236094 -0.132218 4.91127e-19)
(-0.00461393 -0.0882293 -1.63208e-20)
(-0.0318979 -0.0623699 7.48617e-19)
(0.399066 -0.0451077 5.62675e-20)
(0.152111 -0.0381108 -4.58101e-19)
(-0.0445214 -0.00841127 3.1676e-19)
(-0.0207029 0.0301415 -5.73455e-19)
(0.0103563 0.0549193 1.47896e-19)
(0.0362128 0.0695417 -5.9185e-20)
(0.0508325 0.0605946 5.28804e-20)
(0.0556583 0.050308 -5.42748e-20)
(0.046813 0.0424524 2.42271e-20)
(0.0312907 0.0362825 -1.09936e-20)
(0.0112729 0.0294421 -2.3788e-21)
(-0.0103567 0.024538 -4.95671e-22)
(-0.0176144 0.0196276 0)
(-0.0152303 0.0147235 0)
(-0.013954 0.0103067 0)
(-0.0129558 0.0067204 0)
(-0.0114055 0.00168765 0)
(-0.00864198 -0.000581623 0)
(0.037873 0.000309426 -1.17168e-21)
(0.0378911 -0.000367655 0)
(0.0382422 -0.00229374 0)
(0.0388818 -0.00465541 0)
(0.0405307 -0.00710126 0)
(0.0433515 -0.00925703 0)
(0.0394438 -0.0109473 -5.67687e-23)
(0.0182983 -0.0159918 9.17373e-22)
(-0.00584634 -0.0201992 2.53477e-20)
(-0.0272239 -0.026728 -1.56146e-20)
(-0.0393366 -0.0306468 -1.44844e-19)
(-0.0430127 -0.0387117 -3.64333e-20)
(-0.0326222 -0.0395048 8.26646e-20)
(-0.0272119 -0.0568005 1.75071e-19)
(-0.0145589 -0.0814376 1.51912e-19)
(0.0139561 -0.109569 -5.1591e-19)
(-0.00590923 -0.149977 -4.93007e-19)
(-0.672433 -0.175609 -6.12442e-18)
(-0.117841 -0.326006 8.38692e-19)
(-0.00601188 -0.342178 7.44425e-19)
(-0.108072 -0.295674 6.60237e-20)
(-0.0475852 -0.299761 1.97209e-18)
(0.306448 -0.21817 -1.09641e-18)
(0.0521284 -0.0438038 5.50606e-19)
(-0.119259 0.0129052 6.91161e-20)
(-0.0479676 0.0660175 -3.5742e-19)
(0.00972732 0.0819213 -1.18742e-19)
(0.0568004 0.0921531 -2.70661e-19)
(0.0753304 0.0819311 -1.37659e-19)
(0.0727761 0.0675876 5.95297e-20)
(0.0648044 0.0570587 3.50456e-20)
(0.0450902 0.0469719 -3.1334e-20)
(0.0206374 0.0381328 -1.26613e-21)
(-0.000213683 0.0322477 1.82879e-23)
(-0.00481605 0.026577 0)
(-0.00547364 0.0191459 0)
(-0.00449552 0.0125479 0)
(-0.00294919 0.00765871 0)
(-0.00244225 0.00389777 0)
(-0.00155506 0.000865947 -1.1068e-22)
(0.0422395 -0.000931015 -1.38001e-21)
(0.042683 -0.00205684 0)
(0.0438373 -0.00204898 0)
(0.0452258 -0.00319088 0)
(0.0468215 -0.00462852 0)
(0.0481321 -0.00548584 0)
(0.0451487 -0.00648657 0)
(0.027185 -0.00980485 2.49842e-21)
(0.00453524 -0.0129704 -4.97141e-21)
(-0.0154694 -0.0177428 -2.20406e-20)
(-0.0271558 -0.0209576 2.55971e-20)
(-0.0362503 -0.0174424 6.13902e-20)
(-0.0205441 -0.0249542 -1.91281e-19)
(0.0015012 -0.056747 8.89422e-20)
(0.0128601 -0.0658612 -1.27645e-19)
(0.0636118 -0.0815249 -6.40999e-20)
(0.0518608 -0.115238 2.65175e-19)
(-0.434709 -0.19638 -4.88353e-18)
(-0.160737 -0.259196 1.61255e-18)
(-0.172187 -0.0613486 -1.05441e-18)
(-0.133425 -0.262453 -2.69385e-18)
(0.123492 -0.119168 -1.24267e-18)
(0.0137757 -0.148724 -1.41882e-18)
(-0.134925 0.108808 1.75187e-18)
(-0.166928 0.158346 -1.65766e-19)
(-0.0474756 0.156704 5.66214e-19)
(0.0592344 0.145381 -2.37581e-20)
(0.0905755 0.118348 -5.56606e-20)
(0.10829 0.101665 8.67831e-20)
(0.0999168 0.0817108 -6.25643e-20)
(0.0888812 0.0687653 4.28019e-20)
(0.0634911 0.0544165 3.04243e-21)
(0.0379968 0.047991 -2.02787e-21)
(0.0174177 0.0409181 0)
(0.0119372 0.0324324 0)
(0.0116053 0.0242013 0)
(0.0125098 0.0177186 0)
(0.0129292 0.0123302 0)
(0.0126671 0.00797978 0)
(0.0123535 0.0032665 7.18638e-22)
(0.0455398 -6.55641e-05 -1.48055e-22)
(0.0466754 -0.00156138 0)
(0.0484174 -0.00109664 0)
(0.0498846 -0.00148301 0)
(0.0517051 -0.00282724 0)
(0.0523214 -0.00392515 0)
(0.0480057 -0.00441148 0)
(0.0336076 -0.00645563 0)
(0.0138995 -0.00902915 1.14837e-21)
(-0.00727713 -0.0116175 -1.41764e-20)
(-0.0168458 -0.0174461 2.12381e-20)
(-0.0253614 -0.0155834 5.40192e-20)
(-0.0245261 -0.0122521 -1.28525e-19)
(-0.00387612 -0.0157149 8.7689e-20)
(0.0306496 -0.023079 3.79998e-19)
(0.0852636 0.00930074 -3.082e-19)
(0.0418587 -0.0112071 2.94766e-19)
(-0.298688 0.0158096 -2.02189e-18)
(-0.267091 -0.112429 -3.27411e-19)
(-0.160535 -0.142302 6.45948e-19)
(-0.0718015 0.149613 4.17214e-19)
(-0.00642707 0.177797 5.50108e-19)
(-0.0267374 0.307121 2.60724e-19)
(-0.271997 0.399448 8.29634e-18)
(-0.0914606 0.365764 1.00699e-19)
(0.0355832 0.240219 -1.48231e-19)
(0.125649 0.174853 -1.89012e-19)
(0.144158 0.132177 2.09596e-19)
(0.14176 0.103447 -1.31399e-21)
(0.126567 0.0839767 3.77852e-20)
(0.103771 0.0728528 -9.92328e-21)
(0.0744199 0.0598577 1.07093e-21)
(0.0491379 0.0527537 0)
(0.0300257 0.0430229 0)
(0.0239839 0.0347484 0)
(0.0222155 0.0264666 0)
(0.0213634 0.0202999 9.3635e-21)
(0.0211619 0.014652 1.29491e-20)
(0.0214172 0.00885906 7.72168e-21)
(0.0212777 0.00266401 0)
(0.0477009 -0.000304536 0)
(0.0490453 -0.000714329 0)
(0.0509298 -0.000241976 0)
(0.0526232 -0.000556053 0)
(0.0549286 -0.00128452 0)
(0.0559016 -0.00202123 0)
(0.0519061 -0.00174373 0)
(0.0381814 -0.0015691 0)
(0.0230373 -0.00494859 -2.10601e-24)
(0.00531305 -0.0092716 -1.36504e-22)
(-0.00750693 -0.0149 2.38191e-21)
(-0.00658514 -0.0190646 -1.14255e-20)
(-0.0134232 -0.0183629 3.81747e-20)
(-0.00754878 0.011973 -4.7338e-20)
(0.0332465 0.0268902 1.21697e-18)
(0.0440975 0.0439034 -1.03261e-19)
(-0.0896825 0.141273 -1.23543e-19)
(-0.227236 0.18234 1.17302e-18)
(-0.178764 0.27986 1.25268e-18)
(-0.13531 0.327501 2.73219e-18)
(-0.293989 0.158028 2.45857e-18)
(-0.290917 0.351221 -2.722e-19)
(-0.175584 0.594639 6.28085e-19)
(-0.249759 0.637755 -3.20092e-19)
(0.0821931 0.445397 1.1068e-19)
(0.176388 0.284128 1.29684e-19)
(0.199548 0.164634 3.87385e-20)
(0.187739 0.116936 -5.11975e-21)
(0.165282 0.088084 2.87619e-20)
(0.140946 0.0760968 -2.68668e-21)
(0.112479 0.0706185 -6.1296e-22)
(0.0837172 0.0595946 -6.30506e-24)
(0.0586445 0.0526111 0)
(0.0407624 0.0420875 0)
(0.0328511 0.0342132 0)
(0.0295981 0.0263111 0)
(0.0273287 0.0204275 0)
(0.0257469 0.0143569 0)
(0.0251024 0.00861678 0)
(0.0249822 0.00233247 -1.39069e-21)
(0.049348 -0.00034291 0)
(0.0492935 0.000675948 0)
(0.0506926 0.00120674 0)
(0.0521054 0.00137757 0)
(0.0541549 0.00183388 0)
(0.0548542 0.00213323 0)
(0.0510785 0.00282205 0)
(0.0389367 0.0034458 0)
(0.0267194 0.000735453 0)
(0.0148294 -0.00657051 0)
(0.00309455 -0.00933318 5.26387e-22)
(0.00340774 -0.0184023 1.10213e-20)
(-0.00132742 -0.0258039 1.23852e-20)
(-0.0019835 0.00758838 -1.14177e-20)
(-0.0361579 0.013277 3.34392e-18)
(-0.088787 0.054461 -2.9193e-19)
(-0.24859 0.177935 1.56578e-18)
(-0.278503 0.241389 5.75268e-20)
(-0.346146 0.251623 -5.98172e-19)
(-0.291273 0.241068 1.44408e-18)
(-0.260457 0.288331 -1.54509e-18)
(-0.343522 0.377351 1.59609e-19)
(-0.443745 0.462267 2.2204e-19)
(-0.329113 0.416832 -1.07685e-19)
(0.550212 0.405022 -9.53614e-19)
(0.34756 0.213082 -2.43052e-20)
(0.268442 0.0967609 1.63726e-20)
(0.21897 0.0797562 -2.73105e-20)
(0.176383 0.0655107 4.49953e-20)
(0.146839 0.0609419 -1.7879e-21)
(0.117171 0.0573609 0)
(0.0905741 0.0510156 0)
(0.0664901 0.0459109 0)
(0.0495904 0.0372742 0)
(0.0408134 0.030554 0)
(0.0370745 0.0237211 0)
(0.0343326 0.018529 0)
(0.0320693 0.0129173 0)
(0.0308681 0.00746871 0)
(0.0303759 0.00226526 0)
(0.0471037 0.000195029 0)
(0.046544 0.00184368 0)
(0.0468566 0.00308575 0)
(0.047879 0.00451444 0)
(0.0497225 0.00601245 0)
(0.0504633 0.00716739 0)
(0.0470438 0.00774851 0)
(0.0379363 0.00728878 0)
(0.0301121 0.00437544 0)
(0.0236247 -0.00699479 0)
(0.0151611 -0.0107217 0)
(0.0119186 -0.028656 -1.78834e-22)
(0.00556865 -0.05178 -3.32827e-22)
(-0.0186117 -0.0700306 -5.72128e-22)
(-0.0521344 -0.00299163 1.04297e-18)
(-0.259343 0.0354261 4.14238e-19)
(-0.316228 0.0769616 8.64581e-19)
(-0.155528 0.0361089 -3.00243e-20)
(-0.334127 -0.0154196 4.23503e-19)
(-0.431786 0.0184025 -1.59747e-18)
(-0.452349 0.0746539 -1.09236e-18)
(-0.477936 0.0513407 -7.16625e-19)
(-0.433725 0.0956263 3.42628e-19)
(-0.180253 0.0485657 -1.16718e-19)
(0.462111 0.0955427 1.76268e-19)
(0.531116 0.056344 -5.8095e-20)
(0.305311 0.00544454 -1.40899e-19)
(0.233223 0.0252432 9.4866e-21)
(0.179924 0.0279541 -1.2663e-23)
(0.14827 0.0369134 0)
(0.118581 0.0389787 0)
(0.0953735 0.0398455 0)
(0.0733692 0.0368769 0)
(0.0579744 0.0309015 0)
(0.0487207 0.0252427 0)
(0.044424 0.0197364 0)
(0.0414003 0.0147741 0)
(0.0389746 0.00982499 0)
(0.0374297 0.00529425 0)
(0.0368343 0.0017086 0)
(0.0413102 0.00112133 0)
(0.0415029 0.00370334 0)
(0.0421455 0.00561923 0)
(0.0434997 0.00795403 0)
(0.045581 0.010199 0)
(0.0473459 0.0120111 0)
(0.0454176 0.0127312 0)
(0.0407343 0.0111309 0)
(0.0382368 0.00513233 0)
(0.0368385 -0.00920448 0)
(0.0357183 -0.0228691 2.8758e-21)
(0.0254805 -0.0367549 0)
(0.0241531 -0.0890009 0)
(-0.0475547 -0.109963 -2.96852e-19)
(-0.224711 -0.0498545 -5.9204e-20)
(-0.248461 -0.00543629 1.79113e-18)
(-0.0448091 -0.217851 3.8893e-20)
(-0.198985 -0.280696 2.37635e-19)
(-0.336944 -0.268295 2.30343e-19)
(-0.470669 -0.269621 1.24154e-18)
(-0.433655 -0.238237 2.7942e-19)
(-0.436096 -0.215116 -1.0873e-18)
(-0.396575 -0.152463 -3.4832e-19)
(-0.220616 -0.0994347 1.93397e-19)
(0.386461 -0.147219 3.80136e-20)
(0.473715 -0.120183 3.37117e-20)
(0.28525 -0.0518319 -5.05235e-19)
(0.210862 -0.0361963 0)
(0.171206 -0.0124157 0)
(0.143158 0.00792185 2.7372e-20)
(0.117041 0.0169123 0)
(0.0986434 0.0249136 0)
(0.0799569 0.0254677 0)
(0.0666885 0.0229555 0)
(0.0572454 0.0187204 0)
(0.0517767 0.0146383 0)
(0.0477391 0.0103047 0)
(0.0447753 0.00657012 -1.54107e-21)
(0.0429032 0.00367978 -1.10558e-21)
(0.0424687 0.00113115 0)
(0.0369229 0.00187271 0)
(0.0379135 0.00497683 0)
(0.0389605 0.0078314 0)
(0.0407803 0.0109392 0)
(0.0431056 0.0140013 0)
(0.0459318 0.0165548 0)
(0.0467566 0.0174473 0)
(0.0473921 0.0155819 0)
(0.0516929 0.00563976 0)
(0.0558028 -0.0100177 0)
(0.0681355 -0.0381929 -9.47406e-21)
(0.0626594 -0.0591743 0)
(0.059686 -0.122129 0)
(-0.0284396 -0.229316 5.83926e-20)
(-0.198959 -0.195441 -7.54253e-19)
(0.06272 -0.308829 1.10981e-20)
(0.107247 -0.325399 0)
(-0.177994 -0.266513 -1.41534e-19)
(-0.393833 -0.22047 -6.69976e-19)
(-0.475866 -0.180227 -4.68809e-19)
(-0.432608 -0.254698 -1.06949e-17)
(-0.348112 -0.280357 -1.00874e-17)
(-0.160848 -0.36637 -9.19874e-21)
(0.0805497 -0.384426 0)
(0.356289 -0.256945 1.62028e-20)
(0.365327 -0.150616 1.70488e-19)
(0.222898 -0.0854807 -4.50229e-21)
(0.160073 -0.0666293 0)
(0.140264 -0.0369693 0)
(0.120698 -0.0185711 -3.69844e-20)
(0.103727 -0.00453427 0)
(0.0935469 0.00779268 0)
(0.081257 0.0115857 0)
(0.0714163 0.0128331 0)
(0.0632218 0.0109801 0)
(0.0574031 0.0090661 2.788e-21)
(0.0528677 0.00644254 -3.62297e-21)
(0.0495442 0.00401451 0)
(0.0469176 0.00238634 0)
(0.0457117 0.000631306 -8.51384e-21)
(0.0328626 0.00224349 0)
(0.0340127 0.0062171 0)
(0.0349479 0.0101666 0)
(0.0366049 0.0141646 0)
(0.0392276 0.0181905 0)
(0.0432479 0.0215486 0)
(0.0486731 0.0230748 -1.37088e-21)
(0.0567893 0.022128 0)
(0.0695853 0.0102546 0)
(0.0828931 -0.00141688 0)
(0.108914 -0.0340131 0)
(0.13161 -0.0600197 0)
(0.137716 -0.120635 0)
(0.0690392 -0.198278 -1.49003e-20)