/*--------------------------------*- C++ -*----------------------------------*\
| =========                 |                                                 |
| \\      /  F ield         | OpenFOAM: The Open Source CFD Toolbox           |
|  \\    /   O peration     | Version:  v2106                                 |
|   \\  /    A nd           | Website:  www.openfoam.com                      |
|    \\/     M anipulation  |                                                 |
\*---------------------------------------------------------------------------*/
FoamFile
{
    version     2.0;
    format      ascii;
    arch        "LSB;label=32;scalar=64";
    class       volVectorField;
    location    "0";
    object      U;
}
// * * * * * * * * * * * * * * * * * * * * * * * * * * * * * * * * * * * * * //

dimensions      [0 1 -1 0 0 0 0];

internalField   nonuniform List<vector> 
11644
(
(0.997598 -0.000209823 -6.6119e-24)
(0.997496 -0.000548507 -1.82337e-23)
(0.997435 -0.000800337 -9.78282e-24)
(0.997419 -0.00105327 0)
(0.997414 -0.00131271 0)
(0.997411 -0.00157016 0)
(0.997411 -0.00182228 0)
(0.997411 -0.00205872 0)
(0.997413 -0.00226708 0)
(0.997413 -0.00243192 0)
(0.9974 -0.00253901 0)
(0.997399 -0.00256658 0)
(0.997459 -0.00249499 0)
(0.9976 -0.00235601 0)
(0.997457 -0.00200663 0)
(0.99739 -0.00166733 0)
(0.997066 -0.00111538 0)
(0.996749 -4.57666e-05 0)
(0.996924 0.00119365 0)
(0.997283 0.00204069 3.28069e-30)
(0.997333 0.00262195 -3.28704e-30)
(0.997254 0.00323781 0)
(0.997325 0.00383014 0)
(0.997505 0.00429107 0)
(0.997464 0.00455313 0)
(0.997441 0.00467607 0)
(0.997581 0.00465939 0)
(0.99738 0.0045363 0)
(0.997375 0.00430357 0)
(0.997407 0.00398811 0)
(0.997402 0.00363042 0)
(0.997406 0.00323731 0)
(0.99741 0.0028329 0)
(0.997413 0.00242948 0)
(0.997416 0.00203762 0)
(0.99742 0.00166348 0)
(0.997424 0.00131152 0)
(0.997442 0.000984122 0)
(0.997516 0.000665731 0)
(0.997636 0.000250566 -1.28198e-24)
(0.998317 -0.000427698 -8.49294e-24)
(0.998239 -0.00128767 -7.86719e-24)
(0.99818 -0.00213992 -4.22522e-24)
(0.99816 -0.00297154 0)
(0.998156 -0.00378831 0)
(0.998148 -0.0045903 0)
(0.998127 -0.00536627 0)
(0.998083 -0.00609257 0)
(0.998006 -0.00673791 0)
(0.99788 -0.00726113 0)
(0.997737 -0.00760067 0)
(0.997509 -0.0077087 0)
(0.997129 -0.00749306 0)
(0.996584 -0.00685917 0)
(0.996383 -0.00586849 0)
(0.995849 -0.00431406 -2.00685e-24)
(0.995169 -0.00227729 2.65055e-23)
(0.994656 5.71871e-05 3.98476e-23)
(0.994557 0.00274605 -1.50154e-22)
(0.994835 0.00568722 4.47846e-22)
(0.995234 0.00835259 -4.3968e-22)
(0.995485 0.0104251 4.39628e-23)
(0.995688 0.0120455 5.34883e-23)
(0.996028 0.0133646 -2.39555e-23)
(0.996772 0.0142945 2.69336e-24)
(0.997352 0.0146319 0)
(0.997578 0.0145452 0)
(0.998176 0.0139491 0)
(0.998391 0.0131131 0)
(0.998493 0.0120762 0)
(0.998591 0.0108784 0)
(0.998597 0.00962968 0)
(0.998575 0.00836211 0)
(0.998527 0.00711682 0)
(0.998471 0.00591464 0)
(0.998413 0.00476765 0)
(0.99837 0.00367035 0)
(0.998363 0.00260145 0)
(0.998415 0.00153939 0)
(0.998493 0.000506504 0)
(0.999776 -0.000675695 0)
(0.999717 -0.00206293 0)
(0.999673 -0.003486 0)
(0.999655 -0.00490146 0)
(0.999648 -0.00630186 -7.75815e-24)
(0.999626 -0.00768432 0)
(0.999564 -0.00903029 0)
(0.999436 -0.0103074 0)
(0.99921 -0.0114673 0)
(0.998872 -0.0124348 0)
(0.998318 -0.0131359 0)
(0.997594 -0.0134287 0)
(0.996784 -0.0131751 -2.03447e-24)
(0.995876 -0.0123012 1.72889e-22)
(0.99429 -0.0105124 -1.12406e-22)
(0.99284 -0.00789018 -5.5004e-22)
(0.991412 -0.00450649 -1.8753e-22)
(0.990158 -0.000621385 6.42052e-22)
(0.989361 0.00392399 6.30387e-22)
(0.989358 0.00906463 5.60043e-22)
(0.990164 0.0141777 -2.6094e-22)
(0.991538 0.0186199 -1.57088e-22)
(0.993044 0.0218937 -1.39076e-21)
(0.994574 0.024039 6.14988e-22)
(0.995922 0.0252291 1.09099e-22)
(0.997451 0.0255958 8.31698e-23)
(0.999089 0.025063 -1.56935e-22)
(0.99975 0.023992 1.76435e-24)
(1.00047 0.0223352 0)
(1.00091 0.0203346 0)
(1.00104 0.0182022 0)
(1.00106 0.0159767 0)
(1.00096 0.0137854 0)
(1.0008 0.0116605 0)
(1.00062 0.00963167 0)
(1.00044 0.00770344 0)
(1.0003 0.00586603 0)
(1.00021 0.00409955 0)
(1.00018 0.00239959 0)
(1.0002 0.000778881 0)
(1.00201 -0.00095031 0)
(1.00196 -0.00288799 0)
(1.00194 -0.00485993 0)
(1.00193 -0.00685691 0)
(1.00193 -0.00886675 0)
(1.0019 -0.0108857 0)
(1.0018 -0.0128881 0)
(1.00157 -0.0148373 0)
(1.00117 -0.0166673 0)
(1.00048 -0.0183042 0)
(0.999563 -0.0195675 1.44467e-24)
(0.998254 -0.0203006 2.19156e-22)
(0.996315 -0.0203032 -3.18149e-22)
(0.993523 -0.0193062 1.58793e-22)
(0.991034 -0.0171212 -5.2843e-22)
(0.988087 -0.0136128 -1.71273e-22)
(0.98521 -0.00878866 -5.73458e-23)
(0.982645 -0.00287462 1.67295e-21)
(0.980701 0.0041425 1.29865e-21)
(0.980339 0.0118611 -3.57159e-21)
(0.981621 0.0195068 7.62365e-22)
(0.984268 0.0264951 -6.43469e-22)
(0.987618 0.0321765 5.76119e-22)
(0.991328 0.0358218 -5.22045e-22)
(0.99496 0.0376056 9.02556e-22)
(0.998153 0.0377915 2.48854e-22)
(1.00032 0.0368807 -9.37937e-23)
(1.00267 0.0345501 7.08301e-23)
(1.00393 0.0317484 -7.17809e-24)
(1.0046 0.0285936 -3.35335e-25)
(1.00489 0.0252725 0)
(1.00481 0.0220115 0)
(1.00455 0.0188343 0)
(1.0042 0.0158235 0)
(1.00381 0.0129895 0)
(1.00344 0.0103327 0)
(1.00313 0.00783874 0)
(1.0029 0.00547578 0)
(1.00277 0.00321807 0)
(1.00274 0.0010613 0)
(1.005 -0.00124215 0)
(1.00497 -0.00374145 0)
(1.00498 -0.00629342 0)
(1.00502 -0.00888278 0)
(1.00506 -0.0115295 0)
(1.00506 -0.0142389 0)
(1.00496 -0.0169977 0)
(1.00468 -0.0197716 0)
(1.00411 -0.0225089 0)
(1.00321 -0.025053 9.52086e-24)
(1.00168 -0.0272504 1.29405e-22)
(0.999241 -0.0288975 -6.16098e-24)
(0.99609 -0.0296013 7.11233e-22)
(0.992503 -0.0290418 -1.5133e-21)
(0.987262 -0.0269951 1.43e-21)
(0.981907 -0.0229535 -1.2202e-21)
(0.976877 -0.0169053 1.57295e-21)
(0.972053 -0.00884568 -3.38194e-21)
(0.968099 0.00131856 3.69166e-21)
(0.966742 0.0129823 -2.88689e-21)
(0.968696 0.0249823 2.172e-21)
(0.973612 0.0358598 -2.72838e-21)
(0.98016 0.0443831 3.18346e-21)
(0.988147 0.0496962 -1.00431e-21)
(0.994436 0.0518071 7.04885e-22)
(0.999893 0.0516972 -1.34557e-21)
(1.00507 0.0491604 1.03216e-21)
(1.00736 0.0458651 -7.12204e-22)
(1.00918 0.041408 2.07825e-22)
(1.00997 0.0366141 -3.94002e-23)
(1.01013 0.0319007 -3.76246e-24)
(1.0099 0.027419 0)
(1.00935 0.0232537 0)
(1.00867 0.0193832 0)
(1.00797 0.0158123 0)
(1.00732 0.0125157 0)
(1.00676 0.00945691 0)
(1.00634 0.00660118 0)
(1.00607 0.00388523 0)
(1.00597 0.00127056 0)
(1.00874 -0.00150959 0)
(1.00874 -0.00456407 0)
(1.00882 -0.00768874 0)
(1.00896 -0.0108915 0)
(1.00911 -0.0142255 0)
(1.00923 -0.0177004 0)
(1.00924 -0.021327 0)
(1.00902 -0.0250983 0)
(1.00847 -0.0289327 4.85451e-23)
(1.00725 -0.0327079 3.99311e-22)
(1.00498 -0.0362533 -4.76719e-22)
(1.00175 -0.0392286 2.13433e-22)
(0.997318 -0.0415102 -6.00123e-23)
(0.990538 -0.0428778 -1.43063e-21)
(0.98392 -0.0415116 1.56814e-21)
(0.975541 -0.0377719 7.12424e-22)
(0.965654 -0.0312529 1.94634e-22)
(0.956431 -0.0204844 -1.23809e-21)
(0.949186 -0.00554675 -2.80576e-21)
(0.946226 0.0117167 1.12119e-20)
(0.94881 0.0294993 -8.48773e-21)
(0.9563 0.0458673 -1.87015e-21)
(0.967538 0.0591838 2.82746e-21)
(0.98082 0.066679 -2.1704e-21)
(0.993115 0.0687245 1.10771e-21)
(1.00348 0.0679428 -9.3026e-22)
(1.00987 0.0645682 1.12733e-21)
(1.01512 0.0574824 -3.94471e-22)
(1.01726 0.0507823 3.87847e-22)
(1.01767 0.044074 2.05096e-22)
(1.01716 0.0377297 -1.67892e-22)
(1.01632 0.0319729 1.76895e-23)
(1.01528 0.0268057 0)
(1.0141 0.0221617 0)
(1.01295 0.0179701 0)
(1.0119 0.0141731 0)
(1.01102 0.010698 0)
(1.01035 0.00747307 0)
(1.00991 0.00442038 0)
(1.00971 0.00147621 0)
(1.01317 -0.00176259 0)
(1.01324 -0.00536606 0)
(1.01345 -0.00900531 0)
(1.01376 -0.0128281 0)
(1.01414 -0.0168406 0)
(1.01452 -0.0211206 0)
(1.01481 -0.0257048 0)
(1.01488 -0.0306059 9.3269e-26)
(1.01436 -0.035718 -7.53822e-23)
(1.01282 -0.040977 3.31921e-22)
(1.01022 -0.0462195 -6.44373e-22)
(1.00635 -0.0514392 6.70595e-22)
(1.00107 -0.0564317 2.17042e-23)
(0.994818 -0.0601968 1.19523e-21)
(0.983264 -0.0629718 6.09456e-22)
(0.969356 -0.0615181 -2.05858e-21)
(0.960215 -0.0488129 -3.67779e-21)
(0.945805 -0.0376399 4.4735e-22)
(0.932964 -0.0190666 8.41365e-22)
(0.925621 0.00512668 6.40044e-21)
(0.92736 0.0313263 3.09082e-21)
(0.937181 0.0545148 -5.15625e-22)
(0.952711 0.0718191 -2.18391e-21)
(0.970406 0.081102 -2.23411e-21)
(0.994639 0.0928494 1.21931e-21)
(1.00978 0.0888406 -1.86936e-22)
(1.02184 0.0788474 -1.21141e-21)
(1.02578 0.0706791 -1.13523e-21)
(1.02809 0.0602976 1.22009e-21)
(1.02797 0.0508473 1.60493e-23)
(1.02631 0.042543 -1.35325e-23)
(1.02423 0.0354109 -5.67886e-23)
(1.0222 0.0293058 -3.26938e-24)
(1.02032 0.0240275 0)
(1.01855 0.0193727 0)
(1.017 0.0152105 0)
(1.01571 0.0114431 0)
(1.01473 0.00795896 0)
(1.01409 0.00468292 0)
(1.0138 0.00151501 0)
(1.01824 -0.00201801 0)
(1.01841 -0.00599483 0)
(1.0188 -0.0101916 0)
(1.0194 -0.014538 0)
(1.02015 -0.0191944 0)
(1.02098 -0.024249 0)
(1.02181 -0.0297997 0)
(1.02234 -0.0358372 -2.37482e-23)
(1.02185 -0.0423003 -2.40846e-22)
(1.02049 -0.0490846 1.38631e-22)
(1.0183 -0.0563398 8.85431e-22)
(1.01494 -0.0642496 -4.79445e-22)
(1.00978 -0.0725148 -9.86309e-23)
(0.999673 -0.0769283 -1.43544e-21)
(0.990253 -0.0808366 -9.96139e-22)
(0.973105 -0.0858767 3.29495e-21)
(0.949328 -0.0838329 -9.73386e-22)
(0.924581 -0.0716551 9.77056e-22)
(0.898807 -0.0471904 2.09768e-21)
(0.881215 -0.00890567 5.4334e-21)
(0.881447 0.036376 3.74716e-21)
(0.899709 0.0765253 6.99459e-21)
(0.930293 0.102896 6.29023e-21)
(0.962813 0.114262 -1.17577e-21)
(0.992763 0.115551 3.43221e-21)
(1.0148 0.106696 -1.23863e-21)
(1.02799 0.0952734 -1.4113e-21)
(1.04207 0.0811511 2.59479e-22)
(1.04271 0.0683112 -6.13334e-22)
(1.04103 0.0563436 5.44148e-22)
(1.03763 0.0459888 -2.45207e-22)
(1.03377 0.0374096 1.95544e-22)
(1.03007 0.0304436 -3.26154e-23)
(1.02709 0.0247184 0)
(1.02455 0.019816 0)
(1.02238 0.0155027 0)
(1.02063 0.0116343 0)
(1.01931 0.0081034 0)
(1.01844 0.00478833 0)
(1.01803 0.00161537 0)
(1.02381 -0.00209162 0)
(1.0241 -0.00645032 0)
(1.02476 -0.0109038 0)
(1.02575 -0.0156653 0)
(1.02704 -0.020864 0)
(1.02857 -0.0265926 0)
(1.03021 -0.0329789 8.66183e-24)
(1.03126 -0.040025 -9.55359e-23)
(1.03116 -0.0476064 2.48265e-22)
(1.03069 -0.0558978 2.69965e-22)
(1.0297 -0.0655032 -7.32953e-23)
(1.02787 -0.0767176 -8.86812e-22)
(1.02401 -0.0906604 1.23661e-21)
(1.01218 -0.100884 -3.42955e-21)
(1.00084 -0.112034 -9.21383e-22)
(0.981514 -0.126427 3.71113e-22)
(0.952934 -0.127987 -2.07403e-21)
(0.909053 -0.123925 -1.95712e-21)
(0.85985 -0.0975635 1.75667e-21)
(0.817739 -0.0397501 1.13455e-21)
(0.809456 0.0401538 9.07113e-22)
(0.84158 0.110439 1.41223e-21)
(0.896455 0.150249 2.31778e-21)
(0.955654 0.161518 1.73332e-21)
(0.99891 0.151827 -1.14433e-21)
(1.03435 0.13513 -2.48787e-22)
(1.04884 0.113893 -7.14756e-22)
(1.06331 0.0925938 1.39676e-22)
(1.06131 0.0736614 5.94214e-23)
(1.05682 0.059186 -5.55565e-23)
(1.05084 0.047317 5.55109e-23)
(1.04462 0.0376797 -3.25881e-23)
(1.03874 0.0300677 4.29688e-23)
(1.0341 0.0241119 -3.56109e-24)
(1.03065 0.0192287 0)
(1.0278 0.015006 0)
(1.02553 0.0112427 0)
(1.02385 0.00782567 0)
(1.02275 0.00459028 0)
(1.02223 0.00150943 0)
(1.02965 -0.00220213 0)
(1.03012 -0.00664149 0)
(1.03111 -0.0112514 0)
(1.03261 -0.0162426 0)
(1.0346 -0.0216815 0)
(1.03704 -0.0277866 0)
(1.03968 -0.0346835 -2.02172e-23)
(1.04136 -0.042331 9.76191e-23)
(1.04224 -0.0507044 -2.77939e-23)
(1.04344 -0.0603365 4.26162e-23)
(1.04476 -0.0720273 -8.12376e-23)
(1.04588 -0.0867059 -2.38516e-22)
(1.04632 -0.105552 3.05517e-22)
(1.03779 -0.122441 -4.00049e-22)
(1.02924 -0.143183 -2.00494e-22)
(1.00577 -0.169428 -7.50054e-22)
(0.971377 -0.191171 -2.06679e-22)
(0.909543 -0.213815 -3.11834e-22)
(0.811108 -0.2066 2.96491e-21)
(0.696804 -0.123457 1.41736e-21)
(0.652457 0.0436322 8.05515e-22)
(0.731226 0.198526 6.10883e-22)
(0.862994 0.258283 6.5418e-22)
(0.967046 0.244008 7.06501e-23)
(1.03555 0.205934 -6.03271e-22)
(1.07455 0.16441 3.46841e-22)
(1.08341 0.125552 -1.4027e-23)
(1.09128 0.0943377 -7.9646e-23)
(1.08334 0.0730361 7.88907e-23)
(1.07464 0.0576967 2.51023e-23)
(1.06523 0.0454539 -1.30824e-22)
(1.05615 0.0355935 6.223e-23)
(1.04778 0.0279225 4.48406e-23)
(1.04107 0.0221214 1.8219e-23)
(1.03649 0.0175737 0)
(1.03293 0.0136837 0)
(1.03015 0.0102438 0)
(1.02811 0.00708547 0)
(1.02681 0.00420489 0)
(1.02619 0.00132888 0)
(1.03548 -0.00211287 0)
(1.03615 -0.00638412 0)
(1.03754 -0.0109412 0)
(1.03964 -0.0158047 0)
(1.04246 -0.0212013 0)
(1.04599 -0.0273345 0)
(1.04963 -0.0342823 -2.1467e-23)
(1.05216 -0.0419355 2.23507e-23)
(1.05466 -0.0506211 5.21085e-23)
(1.05836 -0.0611151 -1.72257e-23)
(1.06315 -0.0739693 -1.44014e-22)
(1.06886 -0.0900552 1.19282e-22)
(1.07594 -0.110183 -1.14781e-23)
(1.07405 -0.133979 -2.50967e-22)
(1.07419 -0.164896 1.89962e-23)
(1.0655 -0.206712 1.03053e-22)
(1.04094 -0.262285 -9.28931e-23)
(0.982557 -0.350062 4.15053e-22)
(0.82053 -0.448225 -2.29094e-21)
(0.458299 -0.419635 -6.68031e-20)
(0.188147 0.0676853 1.137e-20)
(0.523826 0.521667 -3.80142e-20)
(0.902693 0.50229 1.269e-21)
(1.06996 0.363848 8.42797e-23)
(1.12561 0.251781 -7.11373e-23)
(1.13974 0.169697 -3.37495e-23)
(1.13003 0.12621 -1.14089e-22)
(1.122 0.0819637 1.59257e-22)
(1.10693 0.0641301 -1.62573e-22)
(1.09282 0.050151 7.72022e-24)
(1.07942 0.0391947 -6.25299e-23)
(1.0673 0.0305661 7.74886e-23)
(1.05647 0.0238355 -1.34455e-23)
(1.04755 0.0187438 -3.26545e-24)
(1.0417 0.0149091 0)
(1.03753 0.011704 0)
(1.03432 0.00885186 0)
(1.03198 0.00621715 0)
(1.03045 0.0036793 0)
(1.02973 0.00132023 0)
(1.04104 -0.00199975 0)
(1.04191 -0.00587387 0)
(1.04369 -0.00993305 0)
(1.04639 -0.0143067 0)
(1.05007 -0.0192592 0)
(1.05474 -0.0249432 0)
(1.05937 -0.0313631 -3.0583e-23)
(1.063 -0.0384489 -2.9963e-23)
(1.06757 -0.0467217 -3.14422e-23)
(1.0743 -0.0569907 2.03119e-23)
(1.08319 -0.0696829 2.36637e-23)
(1.0941 -0.0850149 6.43795e-23)
(1.10803 -0.103583 -2.27539e-23)
(1.11369 -0.13008 -3.41266e-23)
(1.12971 -0.160215 2.89868e-22)
(1.14285 -0.207271 -1.42105e-22)
(1.16138 -0.276047 4.14722e-22)
(1.19406 -0.402054 9.40004e-22)
(0.867044 -0.459185 -7.00776e-20)
(1.16499 0.613109 7.11116e-20)
(1.32252 0.381832 1.25583e-22)
(1.26036 0.223066 -4.13441e-23)
(1.21653 0.134487 8.67009e-23)
(1.17948 0.0973049 3.34348e-23)
(1.1513 0.0563722 4.36476e-22)
(1.12772 0.0444959 -1.34431e-22)
(1.10803 0.0352655 -1.32983e-22)
(1.0911 0.0281599 -7.24087e-23)
(1.07652 0.022498 -7.41624e-23)
(1.06373 0.0178481 -5.37173e-23)
(1.05298 0.0141798 -2.68579e-23)
(1.04588 0.0114084 0)
(1.0412 0.00909301 0)
(1.03766 0.00692007 0)
(1.03513 0.00490021 0)
(1.03348 0.00287946 0)
(1.03273 0.000914698 0)
(1.04584 -0.00135225 0)
(1.04692 -0.00470944 0)
(1.04909 -0.00809354 0)
(1.05242 -0.0117951 0)
(1.05694 -0.0158955 0)
(1.06266 -0.0206033 0)
(1.06817 -0.0258961 -3.6624e-24)
(1.07308 -0.0318644 1.64526e-23)
(1.07993 -0.0390582 -8.39665e-24)
(1.0896 -0.0480492 4.44582e-23)
(1.10238 -0.0592424 -6.05756e-23)
(1.11804 -0.0724148 -9.16199e-23)
(1.13722 -0.0873441 2.59607e-22)
(1.14908 -0.110119 1.57989e-22)
(1.17712 -0.131017 2.74618e-21)
(1.20605 -0.163343 -2.17526e-22)
(1.25709 -0.202647 1.41148e-23)
(1.32819 -0.239009 1.72595e-21)
(0.0105254 0.0181166 3.74787e-19)
(0.072054 0.0069012 -2.14504e-19)
(1.50101 0.170697 -4.27724e-22)
(1.35786 0.107945 2.96476e-23)
(1.27096 0.058769 2.37754e-21)
(1.21569 0.0423057 4.3006e-21)
(1.16781 0.0175802 5.34338e-22)
(1.13918 0.016454 1.29133e-22)
(1.11641 0.0148011 -4.85501e-23)
(1.09793 0.0134788 -7.52736e-23)
(1.0822 0.0120812 -8.27325e-24)
(1.06839 0.0105114 1.41395e-23)
(1.05662 0.00888864 6.33034e-24)
(1.04878 0.00752425 0)
(1.04382 0.00622998 0)
(1.04013 0.00484421 0)
(1.0375 0.00341684 0)
(1.03588 0.00212628 0)
(1.03508 0.000614763 0)
(1.04972 -0.00135864 2.59142e-25)
(1.051 -0.00346303 0)
(1.05354 -0.00579731 0)
(1.05729 -0.00834894 0)
(1.06238 -0.0111614 0)
(1.06885 -0.0144026 0)
(1.07524 -0.0181216 1.5271e-24)
(1.0816 -0.0225585 3.62614e-23)
(1.09065 -0.0281816 -1.2504e-22)
(1.10294 -0.0352656 1.44506e-22)
(1.11859 -0.0439499 -1.28727e-22)
(1.13732 -0.054079 -6.65671e-23)
(1.15912 -0.0651879 2.96507e-23)
(1.1736 -0.0824345 2.52808e-22)
(1.20255 -0.0935677 -1.19442e-21)
(1.23174 -0.107672 1.30692e-21)
(1.28 -0.113027 8.12775e-22)
(1.16432 -0.0675926 2.21309e-22)
(0.0480672 0.0291556 1.279e-21)
(0.309209 0.00814077 2.18413e-20)
(1.47831 -0.0345426 1.03895e-22)
(1.37387 -0.0281598 -3.78116e-22)
(1.28004 -0.0327065 -1.36768e-21)
(1.22222 -0.0240286 -1.66378e-21)
(1.16633 -0.0257957 7.89001e-22)
(1.13783 -0.0145454 -1.21828e-22)
(1.11552 -0.00737435 -3.78394e-22)
(1.09767 -0.00216619 -9.05735e-24)
(1.08265 0.00103347 -3.47465e-23)
(1.06961 0.00279141 -9.93911e-25)
(1.05805 0.00360465 -4.07732e-23)
(1.05022 0.00375777 0)
(1.04545 0.00353767 0)
(1.0419 0.00303785 0)
(1.0393 0.00231827 0)
(1.03757 0.00142104 0)
(1.03673 0.000621178 0)
(1.05284 -0.000513529 -1.30516e-26)
(1.05397 -0.00171306 0)
(1.05642 -0.00288469 0)
(1.06033 -0.00409826 0)
(1.06576 -0.00539364 0)
(1.07272 -0.0068563 0)
(1.08014 -0.00871729 -3.00296e-24)
(1.08793 -0.0112737 -1.40411e-23)
(1.09892 -0.0149067 -3.0633e-23)
(1.11319 -0.0196433 7.26494e-23)
(1.13055 -0.0254431 4.93218e-22)
(1.1514 -0.0327253 -1.00084e-21)
(1.1741 -0.0414186 6.39075e-22)
(1.18884 -0.0555263 2.41977e-23)
(1.21201 -0.0640983 4.25216e-22)
(1.23045 -0.0688998 1.59577e-21)
(1.24953 -0.054694 -1.67912e-22)
(0.942025 0.0432346 -9.42824e-22)
(-0.0919488 0.198802 1.53175e-21)
(-0.22003 0.347468 1.25665e-21)
(-0.0323293 0.490477 9.3973e-23)
(0.266467 0.321172 -3.87635e-22)
(0.772451 -0.0571855 -4.84562e-22)
(1.44907 -0.188603 -1.4983e-21)
(1.33834 -0.154466 -2.2999e-21)
(1.24702 -0.119021 4.0889e-22)
(1.19716 -0.0854264 -7.37783e-22)
(1.14424 -0.0619385 1.25317e-21)
(1.12188 -0.0413415 -6.4218e-22)
(1.10427 -0.0266535 -2.21473e-22)
(1.08992 -0.0157245 -2.93553e-22)
(1.07765 -0.00844482 1.19199e-22)
(1.06669 -0.00361343 -2.10384e-23)
(1.05686 -0.000750107 2.01398e-23)
(1.05002 0.000677123 0)
(1.04571 0.00124408 0)
(1.04251 0.00134716 0)
(1.04019 0.00117353 0)
(1.03865 0.000746238 0)
(1.03797 0.000251971 0)
(1.05319 0.000302984 -1.28865e-23)
(1.05472 0.000456236 0)
(1.0573 0.00055953 0)
(1.06125 0.000711944 0)
(1.06679 0.000985178 0)
(1.074 0.00143748 0)
(1.08239 0.00175014 4.75449e-25)
(1.09143 0.00123277 2.18296e-23)
(1.10359 -3.78775e-05 1.16343e-22)
(1.11914 -0.00201861 -1.40417e-22)
(1.13781 -0.00472085 6.71515e-23)
(1.16013 -0.00885573 1.24031e-22)
(1.18416 -0.0137833 -2.65901e-22)
(1.20125 -0.0286019 8.12171e-22)
(1.2234 -0.041931 -1.05868e-21)
(1.23841 -0.0607152 2.10652e-22)
(1.21137 -0.0724633 3.62537e-21)
(0.619207 -0.00204337 1.03447e-20)
(-0.231942 0.0389034 6.09449e-22)
(-0.325055 0.0183258 -1.26301e-20)
(0.159698 -0.103613 -1.87623e-21)
(0.62708 -0.246672 1.42467e-20)
(1.24582 -0.471756 -3.82174e-21)
(1.33549 -0.377938 1.71741e-21)
(1.24476 -0.265102 4.10061e-22)
(1.17517 -0.184388 -1.07943e-21)
(1.14496 -0.12616 1.45015e-23)
(1.10493 -0.0840116 1.67674e-21)
(1.09408 -0.0563321 -1.15052e-21)
(1.08431 -0.0374863 -1.99158e-22)
(1.07593 -0.023473 3.56515e-22)
(1.06825 -0.013663 -2.74088e-22)
(1.06069 -0.00697971 -2.69893e-23)
(1.05365 -0.0031079 -2.32359e-25)
(1.04875 -0.00126777 0)
(1.04527 -0.000386161 0)
(1.04255 4.46956e-05 0)
(1.04058 0.000142909 0)
(1.03935 0.000208445 0)
(1.03887 -5.0012e-05 1.07214e-22)
(1.05222 0.000549845 4.28045e-23)
(1.0536 0.00198728 0)
(1.05617 0.00362263 0)
(1.06 0.00531695 0)
(1.06529 0.00724047 0)
(1.07228 0.0096017 0)
(1.08109 0.0122492 0)
(1.0914 0.0142836 -4.78434e-24)
(1.10412 0.0157381 1.46343e-23)
(1.12005 0.017088 -4.71257e-23)
(1.13949 0.018624 1.05801e-22)
(1.16297 0.0190551 -4.16987e-22)
(1.19082 0.0198584 -1.6014e-22)
(1.22528 0.0135704 2.92352e-22)
(1.24751 -0.00808482 1.10048e-21)
(1.28642 -0.0384141 -1.62152e-21)
(1.26513 -0.101231 1.76643e-21)
(0.616695 -0.180059 -8.14754e-20)
(-0.0172052 -0.402496 2.80685e-21)
(-0.135539 -0.660428 -6.43485e-21)
(0.303946 -0.770549 -2.37246e-20)
(0.832621 -0.811683 -5.19639e-21)
(1.07317 -0.705327 3.49706e-21)
(1.09421 -0.468821 1.49689e-20)
(1.07275 -0.298489 2.9809e-21)
(1.07488 -0.204288 -2.81949e-21)
(1.05539 -0.125096 -7.52696e-22)
(1.05931 -0.0812459 3.34285e-22)
(1.06037 -0.0554112 -1.0693e-22)
(1.05984 -0.0370658 -1.26709e-22)
(1.05866 -0.0233859 6.52314e-23)
(1.05636 -0.0136287 -6.30348e-24)
(1.053 -0.00701511 1.28003e-23)
(1.04975 -0.00295457 0)
(1.04702 -0.00122596 0)
(1.04457 -0.000458122 0)
(1.04248 -4.30292e-05 0)
(1.04082 7.74521e-05 0)
(1.03965 0.000108305 0)
(1.03895 0.000173625 -4.26275e-23)
(1.05 0.00102976 3.12255e-24)
(1.05114 0.00334859 0)
(1.05332 0.00599052 0)
(1.05668 0.00896994 0)
(1.06134 0.0124156 0)
(1.06757 0.016544 0)
(1.07606 0.0214534 0)
(1.08694 0.0264927 0)
(1.09994 0.031532 1.08198e-23)
(1.11525 0.0370657 -5.19327e-23)
(1.13422 0.0440212 7.18524e-24)
(1.15797 0.0515578 -1.82662e-22)
(1.18812 0.0618575 3.38785e-23)
(1.2277 0.0725906 -1.8012e-22)
(1.26804 0.0560764 6.24147e-22)
(1.33959 0.0477058 2.6181e-22)
(1.38435 -0.00824397 -9.62609e-22)
(0.9678 -0.18946 2.79504e-21)
(0.385757 -0.507531 1.12188e-20)
(0.148447 -0.789066 -5.60532e-21)
(0.315029 -0.901258 -5.21169e-22)
(0.632925 -0.773503 -9.61776e-21)
(0.788041 -0.547887 -1.53827e-21)
(0.841468 -0.396042 8.31997e-21)
(0.926426 -0.248885 1.4066e-21)
(0.973578 -0.164677 1.28248e-21)
(0.995077 -0.0852363 -5.55062e-22)
(1.01658 -0.0550689 4.73428e-22)
(1.0303 -0.0371768 1.65729e-22)
(1.03861 -0.0243585 -3.40331e-23)
(1.04319 -0.0150058 7.71957e-23)
(1.04507 -0.00829183 -2.89012e-23)
(1.0458 -0.00360089 0)
(1.04603 -0.00104407 0)
(1.04532 -0.000148686 0)
(1.04375 0.000178468 0)
(1.04212 0.000330056 -1.22466e-23)
(1.04075 0.000351344 -1.69363e-23)
(1.03977 0.000229236 -1.00993e-23)
(1.03926 0.000139536 0)
(1.04645 0.00142216 0)
(1.0473 0.00446636 0)
(1.04902 0.00780865 0)
(1.05166 0.0116179 0)
(1.05532 0.0161245 0)
(1.06029 0.0215966 0)
(1.06757 0.0282788 0)
(1.07767 0.0359011 0)
(1.08975 0.0446324 7.603e-26)
(1.10341 0.0548854 8.95604e-24)
(1.11976 0.0680085 -1.21449e-23)
(1.14044 0.08403 -5.22088e-24)
(1.1667 0.105916 -4.13842e-22)
(1.20357 0.134651 -4.20012e-23)
(1.25181 0.142028 1.28896e-21)
(1.32821 0.176665 -1.68571e-22)
(1.43994 0.191136 -5.05903e-21)
(1.30829 0.136113 -8.56811e-21)
(0.853758 -0.135149 -3.88624e-21)
(0.491203 -0.460527 1.29846e-20)
(0.337946 -0.646654 -5.10895e-21)
(0.355004 -0.601885 -1.20307e-20)
(0.491313 -0.408202 5.9569e-21)
(0.681512 -0.226704 6.36966e-22)
(0.818563 -0.132481 5.48517e-22)
(0.895146 -0.077657 -8.61812e-22)
(0.954437 -0.0130345 1.26618e-22)
(0.990558 -0.0100093 -1.59675e-22)
(1.01391 -0.00483473 -3.91936e-23)
(1.02736 -0.00258607 3.8851e-23)
(1.03494 -0.000641123 -4.93108e-24)
(1.03924 0.000818161 -6.97313e-26)
(1.04219 0.00184057 0)
(1.04425 0.00199727 0)
(1.04463 0.00160876 0)
(1.0434 0.00123149 0)
(1.04189 0.000936218 0)
(1.04063 0.000669912 0)
(1.03979 0.000351143 0)
(1.03934 1.09445e-05 1.81889e-24)
(1.04208 0.00160649 0)
(1.04258 0.00502655 0)
(1.0437 0.00878546 0)
(1.04546 0.0130596 0)
(1.04788 0.0181479 0)
(1.05125 0.024321 0)
(1.05669 0.0319172 0)
(1.06485 0.0410114 0)
(1.07439 0.0522058 0)
(1.08445 0.0661038 0)
(1.09561 0.0842181 1.94743e-24)
(1.10907 0.107073 2.55562e-23)
(1.12527 0.137644 -6.57364e-23)
(1.14823 0.177051 -2.37852e-23)
(1.18914 0.209736 -4.48115e-21)
(1.2319 0.276708 -4.03255e-22)
(1.32559 0.36095 3.99446e-21)
(1.38521 0.467537 7.40646e-21)
(1.18153 0.453719 -5.29769e-21)
(0.844821 0.303602 2.84063e-20)
(0.530278 0.114208 8.90986e-21)
(0.327406 -0.0336595 -1.2787e-21)
(0.334353 -0.10357 5.64064e-22)
(0.523222 -0.0871485 4.41482e-22)
(0.754348 0.0199118 8.49358e-21)
(0.860639 0.0473157 -2.18824e-22)
(0.953094 0.0701138 -8.43223e-24)
(0.994804 0.0436673 -2.55615e-23)
(1.01827 0.0321865 3.23094e-23)
(1.03034 0.0211544 7.37965e-25)
(1.0368 0.0144059 0)
(1.04048 0.00992814 0)
(1.04321 0.00701182 0)
(1.04536 0.00473827 0)
(1.04559 0.00306605 0)
(1.0441 0.00193833 0)
(1.04238 0.00118193 0)
(1.041 0.000642975 0)
(1.04004 0.000284859 0)
(1.03941 1.62659e-05 0)
(1.03747 0.00162962 0)
(1.03756 0.00509376 0)
(1.03798 0.00886263 0)
(1.03876 0.0131514 0)
(1.03984 0.0182228 0)
(1.04146 0.0243191 0)
(1.04475 0.0319008 0)
(1.05017 0.0413265 0)
(1.05584 0.0534258 0)
(1.06066 0.0688513 0)
(1.06485 0.0890389 0)
(1.06857 0.114906 1.39785e-25)
(1.07275 0.148239 -2.08066e-23)
(1.07764 0.193342 5.24832e-23)
(1.09973 0.238563 -1.29578e-21)
(1.11215 0.304882 5.81255e-22)
(1.13976 0.399482 -2.53567e-21)
(1.17916 0.566254 3.64749e-21)
(1.12835 0.730943 1.61241e-21)
(0.965769 0.791659 1.57521e-21)
(0.759369 0.724456 4.06603e-22)
(0.589641 0.551475 9.04781e-21)
(0.534693 0.335649 6.07945e-22)
(0.565141 0.173319 1.94196e-21)
(0.658503 0.170781 -2.00655e-21)
(0.8842 0.176755 -2.86937e-21)
(1.00338 0.13639 2.42243e-22)
(1.03416 0.0872866 -7.39208e-23)
(1.04541 0.0600656 5.66571e-24)
(1.04825 0.038399 0)
(1.04857 0.0248034 0)
(1.04817 0.0157562 0)
(1.04838 0.00979973 0)
(1.04894 0.00573924 0)
(1.04796 0.00322113 0)
(1.04563 0.00167943 0)
(1.04336 0.000754109 0)
(1.04159 0.00022006 0)
(1.04034 1.17909e-05 0)
(1.0395 -3.27517e-05 0)
(1.03281 0.0015965 0)
(1.0326 0.00470556 0)
(1.03248 0.00801474 0)
(1.03242 0.0117033 0)
(1.03232 0.0160143 0)
(1.03225 0.0211711 0)
(1.03312 0.0277579 0)
(1.03518 0.03646 0)
(1.03638 0.0480345 0)
(1.03553 0.0629579 0)
(1.03244 0.0823857 2.26771e-23)
(1.02662 0.107622 0)
(1.01847 0.13928 0)
(1.0076 0.182764 -1.16489e-21)
(0.992484 0.240036 -1.62109e-21)
(0.998042 0.299868 -2.34446e-21)
(0.969348 0.369849 7.46671e-22)
(0.951131 0.449338 -1.09315e-21)
(0.935395 0.542803 -2.73938e-22)
(0.892955 0.620698 -1.3414e-20)
(0.833268 0.660113 -3.56404e-21)
(0.79004 0.640372 4.25414e-21)
(0.77181 0.57809 1.67662e-22)
(0.742462 0.479041 -7.94361e-22)
(0.720754 0.346457 -6.97889e-23)
(1.02189 0.256265 -1.11262e-21)
(1.09324 0.152683 1.72888e-21)
(1.09934 0.101461 0)
(1.0877 0.0664728 0)
(1.07618 0.0415799 -4.41619e-24)
(1.06693 0.0258774 0)
(1.06024 0.0152806 0)
(1.05629 0.00825452 0)
(1.05392 0.0037681 0)
(1.05086 0.00137107 0)
(1.04728 0.000126162 0)
(1.04422 -0.000435646 0)
(1.04194 -0.000560871 2.01558e-24)
(1.04035 -0.000400796 1.446e-24)
(1.03936 -0.000115002 0)
(1.02867 0.00123928 0)
(1.02844 0.00356752 0)
(1.02812 0.00597516 0)
(1.02757 0.00856661 0)
(1.02658 0.0115458 0)
(1.02509 0.0150703 0)
(1.02353 0.0196966 0)
(1.02202 0.0263696 0)
(1.01892 0.0357344 0)
(1.01301 0.047972 0)
(1.00356 0.0640345 -5.6523e-23)
(0.989634 0.0853274 0)
(0.970676 0.112093 0)
(0.945377 0.148511 -4.98998e-22)
(0.919207 0.195306 9.59707e-22)
(0.894271 0.257155 1.40901e-21)
(0.858246 0.330597 0)
(0.802876 0.41941 -4.20102e-22)
(0.754971 0.51936 -2.8684e-21)
(0.732915 0.616041 5.02996e-21)
(0.741212 0.657881 1.11204e-20)
(0.791922 0.660452 -1.50387e-20)
(0.861539 0.608757 5.13655e-22)
(0.942094 0.507712 0)
(1.04045 0.345246 -5.14613e-22)
(1.18184 0.193742 -7.78339e-21)
(1.19789 0.109222 2.83621e-22)
(1.16447 0.0729246 0)
(1.12878 0.0445571 0)
(1.10351 0.0265967 5.74603e-22)
(1.08512 0.0147074 0)
(1.07238 0.0065891 0)
(1.06407 0.00133076 0)
(1.05826 -0.00157604 0)
(1.0529 -0.00257086 0)
(1.04805 -0.00272429 -3.64645e-24)
(1.04426 -0.00241205 4.73851e-24)
(1.04154 -0.0018332 0)
(1.03976 -0.00109462 0)
(1.03882 -0.000338931 1.11353e-23)
(1.02612 0.000521647 0)
(1.02593 0.00179462 0)
(1.02555 0.00300847 0)
(1.02474 0.00426629 0)
(1.0233 0.00560393 0)
(1.02094 0.00706804 0)
(1.01757 0.00900226 1.79299e-24)
(1.01312 0.0122762 0)
(1.00657 0.0174752 0)
(0.996715 0.0245568 0)
(0.982107 0.0341898 0)
(0.960981 0.0476011 0)
(0.932091 0.0657394 0)
(0.898064 0.0921075 -1.755e-22)
(0.8428 0.128787 2.61163e-23)
(0.78208 0.188538 -2.95115e-23)
(0.721545 0.269688 0)
(0.663442 0.345342 0)
(0.640722 0.408265 9.77807e-22)
(0.675361 0.455504 -6.77856e-22)
(0.759977 0.447733 6.39309e-20)
(0.870453 0.436244 -1.58673e-20)
(0.994551 0.342955 0)
(1.12026 0.238799 0)
(1.24012 0.112066 0)
(1.30822 0.038743 -3.02033e-23)
(1.26164 0.0118325 -6.6938e-22)
(1.1986 0.00711114 1.15777e-23)
(1.15111 -0.000366421 0)
(1.11864 -0.00371576 0)
(1.09537 -0.00696816 0)
(1.07916 -0.00894842 0)
(1.06786 -0.00979579 -1.60018e-23)
(1.0595 -0.00935169 -6.55754e-24)
(1.05262 -0.00794254 -3.30361e-25)
(1.04711 -0.00641193 0)
(1.04301 -0.00487592 0)
(1.04012 -0.00342262 0)
(1.0383 -0.00201014 0)
(1.03742 -0.000671774 0)
(1.02546 -4.3e-05 0)
(1.02517 8.70851e-05 0)
(1.02477 5.30244e-05 0)
(1.02402 -0.000101876 0)
(1.0227 -0.000537328 0)
(1.02033 -0.0013314 0)
(1.01633 -0.00242534 0)
(1.01048 -0.0033923 0)
(1.00223 -0.00396906 6.98094e-25)
(0.990406 -0.00448716 0)
(0.972861 -0.00499856 0)
(0.946735 -0.00525121 0)
(0.909885 -0.00239736 -9.78253e-22)
(0.85889 0.00426272 -1.07515e-20)
(0.783788 0.0266898 0)
(0.705347 0.051232 0)
(0.650858 0.0650824 0)
(0.618775 0.0624621 0)
(0.622809 0.0469053 -6.19895e-21)
(0.693978 0.0284929 -1.44579e-20)
(0.827196 -0.0131104 -1.13291e-19)
(0.973665 -0.0175375 4.63654e-20)
(1.12198 -0.0856872 0)
(1.24438 -0.118448 0)
(1.31883 -0.152626 0)
(1.32426 -0.132153 0)
(1.25119 -0.0966506 3.5625e-22)
(1.18778 -0.0678432 -1.41623e-22)
(1.1455 -0.0512588 0)
(1.11511 -0.0391289 4.58583e-25)
(1.09305 -0.031988 -5.50591e-24)
(1.07701 -0.0264546 -6.96739e-24)
(1.06512 -0.0219036 0)
(1.05608 -0.0175978 0)
(1.04914 -0.0135616 0)
(1.04397 -0.010182 0)
(1.04023 -0.00731784 0)
(1.03761 -0.00490359 0)
(1.03595 -0.00281752 0)
(1.0351 -0.000846519 0)
(1.02597 -0.000246119 0)
(1.02581 -0.00103239 0)
(1.02568 -0.00210181 0)
(1.02542 -0.0035335 0)
(1.02484 -0.0055729 0)
(1.02336 -0.00844126 0)
(1.02017 -0.0123403 0)
(1.01507 -0.0173673 0)
(1.00802 -0.0239724 0)
(0.998077 -0.0330598 0)
(0.982746 -0.0457512 1.56292e-23)
(0.957445 -0.0632133 -1.86084e-22)
(0.912912 -0.0837086 -1.13983e-20)
(0.851968 -0.100604 -7.19575e-21)
(0.784734 -0.110522 0)
(0.730875 -0.146247 0)
(0.705539 -0.204414 0)
(0.686978 -0.264373 0)
(0.692576 -0.329023 9.47006e-21)
(0.75322 -0.375485 -1.27962e-20)
(0.879801 -0.417087 -1.85254e-20)
(1.01304 -0.40784 6.38314e-20)
(1.13732 -0.417066 0)
(1.22387 -0.372432 0)
(1.25613 -0.319527 0)
(1.23204 -0.23759 0)
(1.17783 -0.169021 -2.35926e-22)
(1.14097 -0.121392 1.28483e-21)
(1.1151 -0.0892362 6.98918e-23)