/*--------------------------------*- C++ -*----------------------------------*\
| =========                 |                                                 |
| \\      /  F ield         | OpenFOAM: The Open Source CFD Toolbox           |
|  \\    /   O peration     | Version:  v2106                                 |
|   \\  /    A nd           | Website:  www.openfoam.com                      |
|    \\/     M anipulation  |                                                 |
\*---------------------------------------------------------------------------*/
FoamFile
{
    version     2.0;
    format      ascii;
    arch        "LSB;label=32;scalar=64";
    class       volScalarField;
    location    "0";
    object      p;
}
// * * * * * * * * * * * * * * * * * * * * * * * * * * * * * * * * * * * * * //

dimensions      [0 2 -2 0 0 0 0];

internalField   nonuniform List<scalar> 
11644
(
0.058909
0.0593081
0.0601478
0.0614383
0.0631767
0.0653622
0.067994
0.071065
0.074555
0.0784249
0.0826147
0.0870342
0.0915597
0.0960296
0.100249
0.104037
0.10716
0.109403
0.110601
0.110671
0.109643
0.10754
0.104366
0.100228
0.0953879
0.0901272
0.0846586
0.0791611
0.0738178
0.0687663
0.0640992
0.0598829
0.0561546
0.0529263
0.0501969
0.0479565
0.0461917
0.0448907
0.0440478
0.0436462
0.0582046
0.0585995
0.0594178
0.0606767
0.062384
0.0645459
0.0671679
0.0702491
0.0737777
0.0777265
0.0820486
0.0866597
0.0914388
0.0962354
0.100845
0.105008
0.108504
0.111082
0.112542
0.112742
0.111625
0.109257
0.105803
0.101377
0.0961671
0.0904673
0.0845975
0.0787839
0.0731888
0.0679649
0.0632033
0.0589456
0.0552124
0.0520052
0.0493122
0.047117
0.0453999
0.0441422
0.0433267
0.0429323
0.0566844
0.0570899
0.0578972
0.0591201
0.0607811
0.0629009
0.0654961
0.0685812
0.0721665
0.0762526
0.0808143
0.0858077
0.0911405
0.0966364
0.102066
0.10714
0.111526
0.114926
0.117018
0.117527
0.116253
0.113303
0.108984
0.103616
0.0975011
0.090928
0.0842445
0.0777828
0.0717415
0.0662291
0.0613051
0.0569923
0.0532745
0.050127
0.0475173
0.0454116
0.0437766
0.042581
0.0417959
0.0414051
0.0543772
0.0547753
0.0555629
0.0567428
0.0583415
0.0603937
0.0629354
0.0660053
0.0696447
0.0738929
0.0787883
0.0843313
0.0904347
0.096975
0.103744
0.110326
0.116243
0.121185
0.124437
0.125485
0.124064
0.120257
0.11447
0.107276
0.0994423
0.0913427
0.0833895
0.0759532
0.0692469
0.0633633
0.0582757
0.0539351
0.0502877
0.0472645
0.0448007
0.0428373
0.0413243
0.0402189
0.0394873
0.0391187
0.0513364
0.0517072
0.0524412
0.0535446
0.0550453
0.0569862
0.0594225
0.0624221
0.0660668
0.0704498
0.075656
0.0817322
0.0887384
0.0966371
0.105274
0.114175
0.122516
0.130209
0.135499
0.137583
0.135975
0.130764
0.122587
0.112488
0.101997
0.0914644
0.0816141
0.0728646
0.0653486
0.0590605
0.0538854
0.0496408
0.0461818
0.0433922
0.0411671
0.0394221
0.0380911
0.0371224
0.036485
0.0361647
0.0476307
0.0479504
0.0485902
0.049566
0.0509065
0.05266
0.0548956
0.0577084
0.061221
0.0655545
0.070835
0.077281
0.0851236
0.0945733
0.105796
0.118255
0.130571
0.142533
0.151474
0.155739
0.153911
0.146085
0.13378
0.118858
0.104272
0.0902795
0.0779403
0.0677173
0.0594858
0.0529599
0.047873
0.0439399
0.0408825
0.0384952
0.0366435
0.0352235
0.0341595
0.0333978
0.0329001
0.032655
0.0433538
0.0435984
0.0441013
0.0448771
0.0459655
0.0474163
0.0493052
0.0517387
0.0548491
0.058779
0.0637869
0.0702109
0.0784636
0.0892728
0.103423
0.120386
0.133549
0.15041
0.16523
0.174688
0.175326
0.166238
0.149911
0.130243
0.104479
0.0856279
0.0704696
0.0590441
0.0507529
0.0445677
0.0400254
0.0367342
0.0343636
0.0326167
0.0313176
0.030357
0.029656
0.0291653
0.0288512
0.0286919
0.0385945
0.0387622
0.039087
0.0395973
0.0403233
0.0413183
0.0426554
0.0444407
0.0467829
0.049863
0.0540149
0.0597106
0.067465
0.0782147
0.0930917
0.111855
0.137626
0.165914
0.193492
0.212536
0.21504
0.198991
0.170163
0.137776
0.106577
0.0819499
0.064557
0.0454497
0.038186
0.0333474
0.030164
0.0280637
0.0267321
0.0258965
0.0253441
0.0249803
0.0247424
0.0245865
0.024495
0.024455
0.0335455
0.033588
0.0336894
0.0338595
0.0341147
0.0344978
0.0350629
0.0358903
0.0370505
0.0387409
0.0412296
0.0448814
0.050306
0.0631749
0.0769405
0.0987318
0.127512
0.171308
0.219653
0.261996
0.274954
0.248234
0.197217
0.143004
0.0992378
0.063311
0.0450069
0.0253406
0.0213333
0.019205
0.018303
0.0180838
0.0182266
0.018576
0.0189622
0.0193223
0.0196326
0.0198758
0.0200345
0.0201069
0.0283559
0.0282811
0.0281311
0.0278908
0.027583
0.0272122
0.0268057
0.0263749
0.0259177
0.0255412
0.0253882
0.0255978
0.0260615
0.0360178
0.0438513
0.0642387
0.0956051
0.149697
0.236429
0.340423
0.387056
0.325762
0.213579
0.122406
0.0594957
0.021067
0.0105893
-0.00131149
0.000500851
0.00260917
0.0049708
0.00724731
0.00926979
0.0110394
0.0125074
0.0136776
0.0145774
0.0152329
0.0156558
0.0158676
0.0232392
0.0230497
0.022617
0.0219569
0.021037
0.0198254
0.0182983
0.016374
0.0139493
0.0109004
0.00705717
0.00238802
-0.00355052
-0.00233154
-0.00610876
-0.00372086
0.00605395
0.0312141
0.129126
0.372353
0.57755
0.365198
0.113456
-0.000119053
-0.0383674
-0.0469021
-0.0373886
-0.032923
-0.02306
-0.0150826
-0.00867426
-0.00355025
0.000547683
0.00381212
0.00638595
0.00837612
0.0098763
0.0109407
0.011625
0.0119424
0.0185745
0.018197
0.0174719
0.0163625
0.0148174
0.0127643
0.0100801
0.00659168
0.00208526
-0.00378844
-0.011585
-0.0218792
-0.0354678
-0.0412092
-0.0651223
-0.0875193
-0.132616
-0.23386
-0.508614
-0.513128
-0.280276
-0.181798
-0.128162
-0.0892656
-0.0644455
-0.045253
-0.0312685
-0.0209088
-0.0130693
-0.00706888
-0.00246599
0.00108413
0.00378781
0.00580457
0.00722709
0.00813487
0.00857115
0.014455
0.0139591
0.0129888
0.0114806
0.00937192
0.00654895
0.002822
-0.00205344
-0.00839131
-0.0166932
-0.0277073
-0.0425606
-0.06239
-0.0767487
-0.113348
-0.153798
-0.227166
-0.370397
-0.522945
-0.684647
-0.475555
-0.290742
-0.188033
-0.12903
-0.0849639
-0.060308
-0.0426183
-0.0295922
-0.0199091
-0.0126387
-0.00713761
-0.00293277
0.000252443
0.00260622
0.0042804
0.00536292
0.00595392
0.0110376
0.0104409
0.00927242
0.00748436
0.00496949
0.00159863
-0.00285351
-0.00866654
-0.0161686
-0.0259842
-0.0388615
-0.0560626
-0.0786396
-0.0988805
-0.138344
-0.181806
-0.244975
-0.325275
-0.349338
-0.585005
-0.479937
-0.309696
-0.19683
-0.137927
-0.0878856
-0.0642079
-0.0463487
-0.0329657
-0.0229719
-0.0154225
-0.00969767
-0.00531944
-0.00197222
0.000508889
0.00228579
0.0034478
0.00397022
0.00828333
0.00770903
0.00648036
0.00457427
0.00189528
-0.00169307
-0.00639739
-0.0124909
-0.0203314
-0.0304931
-0.0437562
-0.0611203
-0.0834505
-0.105814
-0.145084
-0.190318
-0.250936
-0.318189
-0.317909
-0.384943
-0.44624
-0.568802
-0.606238
-0.413839
-0.247159
-0.154611
-0.113723
-0.0741539
-0.0562744
-0.0419186
-0.0306475
-0.0219707
-0.0152009
-0.00997737
-0.00593342
-0.0028133
-0.000490317
0.00117277
0.00225297
0.0027748
0.00649574
0.00601473
0.00487136
0.00304054
0.000452627
-0.00299519
-0.00744117
-0.0131473
-0.0204491
-0.0298104
-0.0417967
-0.0573121
-0.077455
-0.100321
-0.138082
-0.192557
-0.266195
-0.395042
-0.514287
-0.612504
-0.598838
-0.475735
-0.291509
-0.1514
-0.110464
-0.0777131
-0.0674067
-0.0466799
-0.0382437
-0.0305662
-0.0235605
-0.0174654
-0.0123518
-0.0081967
-0.00484843
-0.0022395
-0.00029613
0.00108432
0.00198296
0.00251302
0.00604509
0.00557128
0.00456395
0.00298999
0.000772799
-0.00216014
-0.00591033
-0.0107019
-0.0167318
-0.0242517
-0.0337313
-0.0460728
-0.0621573
-0.0841737
-0.115683
-0.164675
-0.238498
-0.374351
-0.583086
-0.723069
-0.676329
-0.382488
-0.0452088
0.0669312
0.0296057
-0.00148005
-0.0123607
-0.0151181
-0.0164506
-0.0155521
-0.0132689
-0.0103995
-0.00748906
-0.00472585
-0.0023332
-0.000399517
0.00111541
0.00222719
0.00293392
0.00310808
0.00677932
0.00635322
0.00555299
0.00435136
0.00268334
0.000505492
-0.00222386
-0.00561733
-0.00980226
-0.0148725
-0.0211111
-0.0292064
-0.0399165
-0.0541882
-0.0813508
-0.112907
-0.166284
-0.244868
-0.37133
-0.494505
-0.483159
-0.270119
-0.0124961
0.118712
0.0769993
0.0376888
0.0154696
0.00571759
-5.75126e-05
-0.00240923
-0.00309737
-0.00270564
-0.0016271
-0.000229042
0.00114489
0.00234541
0.00334766
0.00408441
0.00453061
0.00469093
0.00840542
0.00812614
0.00760287
0.00682494
0.00578714
0.00448321
0.00294138
0.00120652
-0.000803369
-0.00315832
-0.00593304
-0.00937156
-0.0143465
-0.0207885
-0.0396308
-0.055155
-0.0890494
-0.129027
-0.185804
-0.243373
-0.249084
-0.171746
-0.0453867
0.041718
0.0346817
0.0277071
0.0182018
0.0105398
0.00717258
0.00519837
0.00406458
0.00372785
0.00391465
0.004377
0.0049248
0.00546676
0.00594442
0.00630155
0.00656498
0.00677156
0.0106061
0.0104901
0.0102454
0.00988796
0.00946404
0.00900574
0.00858777
0.00833196
0.00828036
0.00844658
0.00887071
0.00958536
0.0102884
0.0101001
-0.000808048
-0.00898385
-0.0313352
-0.0643909
-0.118441
-0.183733
-0.228199
-0.217091
-0.157181
-0.0917467
-0.041692
-0.00810271
0.00473826
0.00619481
0.00793025
0.0083798
0.00839937
0.00840415
0.00839958
0.0084003
0.00847881
0.00861528
0.00876573
0.00891154
0.00906059
0.0091865
0.0130448
0.0130131
0.0129895
0.0130087
0.0131107
0.013365
0.0138373
0.0146341
0.0159606
0.0180288
0.0209501
0.0247822
0.0297214
0.0337046
0.0278301
0.0238818
0.00545201
-0.0349933
-0.114944
-0.228351
-0.321737
-0.344014
-0.295749
-0.20256
-0.0940647
-0.0351309
-0.00763428
0.00198307
0.00773955
0.0103759
0.011476
0.0119191
0.0119653
0.0118776
0.0117995
0.0117561
0.011741
0.0117483
0.01177
0.0117839
0.0154254
0.0154677
0.0156216
0.0159179
0.0164007
0.0171604
0.0182746
0.0198322
0.0220512
0.0252546
0.0296037
0.0352992
0.0430256
0.0501623
0.0529632
0.0440741
0.0179742
-0.041138
-0.141468
-0.264706
-0.346864
-0.346257
-0.276838
-0.173583
-0.0853191
-0.0267527
-0.00759989
0.00432367
0.0104244
0.0134454
0.0147916
0.0153122
0.0153792
0.0152562
0.0150557
0.0148505
0.014681
0.0145505
0.0144618
0.0144181
0.0175612
0.0177033
0.0179875
0.0184605
0.0191673
0.0201978
0.0216572
0.0236501
0.0263204
0.0298874
0.0344708
0.04012
0.0476648
0.0557376
0.0519048
0.0333462
-0.00318228
-0.0565169
-0.114905
-0.158583
-0.170051
-0.151256
-0.112333
-0.0665681
-0.0330808
-0.0112949
0.00348652
0.0120256
0.0162455
0.0182761
0.0190412
0.0191662
0.0189707
0.0186213
0.0182028
0.0177952
0.0174466
0.0171701
0.0169806
0.0169065
0.0193567
0.0195439
0.0199009
0.0204569
0.021246
0.0223292
0.0237781
0.0256971
0.0281584
0.0312635
0.0350497
0.0387943
0.042589
0.0449922
0.03585
0.0130999
-0.0250873
-0.0714101
-0.108623
-0.122163
-0.111847
-0.08804
-0.0559537
-0.0252968
-0.00514034
0.00764424
0.0161522
0.0208538
0.0231264
0.0238551
0.0237102
0.02314
0.0224173
0.021681
0.0210012
0.0204095
0.0199252
0.0195491
0.0192791
0.0191363
0.020857
0.0210403
0.0213898
0.0219185
0.0226376
0.0235767
0.0247358
0.0261205
0.0277825
0.0295321
0.0312516
0.0317453
0.0295474
0.022377
0.00452092
-0.0238606
-0.0582092
-0.0946386
-0.119746
-0.123256
-0.106426
-0.0739997
-0.0388644
-0.0113529
0.00688372
0.0186424
0.0252897
0.0284715
0.0293887
0.0290089
0.0279963
0.0267224
0.0254334
0.0242845
0.0233332
0.0225751
0.0219886
0.021564
0.0212752
0.0210721
0.0220885
0.0222508
0.0225445
0.022975
0.0235364
0.0242106
0.0249707
0.0257129
0.0263411
0.0265193
0.0257304
0.0233025
0.0157764
0.00181654
-0.0247211
-0.0596734
-0.103497
-0.145232
-0.172239
-0.172355
-0.145572
-0.101432
-0.055411
-0.019108
0.0067446
0.0230942
0.0313546
0.0341473
0.0342527
0.0330975
0.0313652
0.0295449
0.0278536
0.026405
0.0252347
0.0243106
0.023598
0.0230895
0.0227709
0.0226291
0.0230831
0.0231933
0.0234169
0.0237321
0.0241252
0.0245483
0.0249486
0.0252317
0.0250794
0.0243566
0.0219809
0.0173971
0.00770367
-0.00920591
-0.0398153
-0.0801833
-0.135081
-0.180455
-0.217444
-0.216851
-0.177241
-0.125741
-0.0708298
-0.0292257
0.00223641
0.0232421
0.0341248
0.0376937
0.0373584
0.0354931
0.0333748
0.0312972
0.0294622
0.0279192
0.0266507
0.025635
0.0248526
0.0242934
0.0239451
0.0238943
0.0239237
0.0239894
0.0241505
0.0243785
0.0246558
0.0249293
0.0251333
0.0251601
0.0247714
0.0236463
0.0209848
0.016042
0.00643631
-0.00984197
-0.0376529
-0.0737581
-0.117426
-0.158187
-0.191885
-0.196415
-0.1597
-0.116402
-0.0685364
-0.0299698
-0.000788622
0.0195205
0.0314353
0.0374398
0.0380858
0.0360755
0.034
0.0319988
0.0302531
0.0287886
0.0275725
0.026603
0.0258739
0.0253734
0.0250699
0.0249497
0.0246166
0.0246877
0.0248463
0.0250601
0.0252997
0.0255223
0.0256645
0.0256411
0.0253057
0.0244108
0.0224637
0.0186675
0.011793
1.84958e-05
-0.0201364
-0.0470718
-0.0759469
-0.105534
-0.12826
-0.135565
-0.121508
-0.0971154
-0.0657475
-0.0335022
-0.00721415
0.0131338
0.0266415
0.0340057
0.0359955
0.0350255
0.0334038
0.0317906
0.0303122
0.0290391
0.0279775
0.0271398
0.0265078
0.0260596
0.0257613
0.0255737
0.0251715
0.0252946
0.0254504
0.0256567
0.0258892
0.0261276
0.0263251
0.0264184
0.0263238
0.0258887
0.0248627
0.0228679
0.018986
0.0122395
0.000217544
-0.0187757
-0.0405691
-0.0642336
-0.0821225
-0.0935702
-0.0970873
-0.0883379
-0.0674201
-0.0411694
-0.0164353
0.00424653
0.0188547
0.0272712
0.0310805
0.0317888
0.03133
0.0304964
0.0294917
0.028541
0.0277186
0.0270425
0.0265051
0.0261028
0.0258314
0.0256891
0.0255466
0.0256603
0.02581
0.0260121
0.0262608
0.0265582
0.0268877
0.0272082
0.0274735
0.0275576
0.027232
0.026169
0.0237009
0.0189629
0.0112468
-0.00206621
-0.0210228
-0.0434686
-0.0644874
-0.08128
-0.0886378
-0.0857952
-0.0710823
-0.0507238
-0.0297461
-0.0106798
0.00504187
0.0168856
0.0238029
0.0267927
0.0279808
0.0281737
0.0278769
0.0274306
0.0269565
0.0265104
0.0261261
0.0258312
0.0256389
0.0255647
0.0257013
0.0257281
0.025878
0.0261129
0.0264285
0.0268233
0.0273077
0.0278871
0.0285148
0.0290877
0.0293138
0.0288287
0.0268434
0.0222545
0.0140904
0.000975768
-0.0190784
-0.0438422
-0.0706908
-0.0936664
-0.102437
-0.102262
-0.0911089
-0.0733442
-0.0516607
-0.0288445
-0.00895238
0.00658511
0.0164269
0.0216687
0.0243634
0.025569
0.0260547
0.0261714
0.026093
0.0259243
0.0257304
0.0255572
0.0254253
0.0253526
0.0257663
0.02575
0.0258769
0.026116
0.026473
0.0269362
0.0275169
0.0282258
0.0290312
0.02998
0.03065
0.0306959
0.0287147
0.023359
0.0130217
-0.00274878
-0.0248939
-0.0523081
-0.0850403
-0.114344
-0.131675
-0.131863
-0.117488
-0.0977734
-0.0705944
-0.0420092
-0.0181661
-0.000286598
0.0112445
0.0177608
0.021467
0.0234133
0.024486
0.0250316
0.0252571
0.0253173
0.0252911
0.0252234
0.0251448
0.0250493
0.0257442
0.0257856
0.0258987
0.0261011
0.0264221
0.0268657
0.0274253
0.0281039
0.0288951
0.0297344
0.0304916
0.0304131
0.0276995
0.0219668
0.0113109
-0.00476433
-0.0267552
-0.0538284
-0.0864101
-0.116227
-0.138354
-0.13661
-0.11953
-0.0973997
-0.0681511
-0.0406819
-0.0185226
-0.00176408
0.00928321
0.0159094
0.0198942
0.0221314
0.0234356
0.0241297
0.0244894
0.0246683
0.0247449
0.0247481
0.0247247
0.0246571
0.0254167
0.0255152
0.0256584
0.0258547
0.0261296
0.0264937
0.0269548
0.0274993
0.0281118
0.0287353
0.0289788
0.0278545
0.0241773
0.0173617
0.00686192
-0.00813546
-0.027728
-0.0512511
-0.0761304
-0.0963583
-0.110482
-0.106662
-0.0913747
-0.0714257
-0.0481631
-0.0279346
-0.0111596
0.00208241
0.0110562
0.0166538
0.0200147
0.0219373
0.023048
0.0236764
0.0240276
0.0242091
0.0242832
0.0242923
0.0242817
0.0242804
0.0247855
0.0248729
0.0249939
0.0251596
0.0253755
0.0256412
0.0259617
0.0262927
0.0265538
0.0266391
0.0260686
0.0239868
0.0193998
0.0110764
-0.0007948
-0.0156548
-0.0327704
-0.0515954
-0.0673329
-0.0761392
-0.0767599
-0.0707254
-0.0595485
-0.0435474
-0.0272506
-0.0123807
0.000443721
0.0098642
0.0156707
0.0191365
0.0212027
0.0224361
0.0231859
0.0236346
0.0238817
0.024003
0.0240491
0.0240519
0.0240474
0.0240454
0.0240426
0.0240562
0.0241056
0.0241928
0.0243072
0.0244237
0.024515
0.0245083
0.0242271
0.0234371
0.0216773
0.0180174
0.0119424
0.0029098
-0.00890657
-0.0229679
-0.037989
-0.0529631
-0.0638104
-0.0659402
-0.0610588
-0.052032
-0.0397504
-0.0247076
-0.0107423
0.00155204
0.0107501
0.0165975
0.0198499
0.0216541
0.022666
0.0232424
0.0235815
0.0237761
0.0238652
0.0238998
0.023909
0.0239008
0.0238853
0.023851
0.0232885
0.0232587
0.0232628
0.0232727
0.0232628
0.023181
0.0229711
0.0225291
0.021649
0.0199412
0.0168482
0.0113052
0.00292902
-0.00798484
-0.0207996
-0.0346941
-0.0479482
-0.0601398
-0.0679342
-0.0683459
-0.0629213
-0.049918
-0.0337329
-0.0169243
-0.0020988
0.00914104
0.0165961
0.020757
0.022835
0.023759
0.024082
0.0240866
0.0239965
0.0238772
0.0237712
0.0236803
0.0236125
0.0235634
0.0235306
0.0235238
0.0225653
0.0225737
0.0225628
0.0225089
0.0223782
0.0221126
0.0216314
0.0208072
0.0194336
0.0170992
0.013041
0.0061022
-0.00432805
-0.0183023
-0.0349939
-0.0518263
-0.066473
-0.0779776
-0.0858932
-0.0851745
-0.0748439
-0.0569752
-0.0358915
-0.0170655
-0.00115421
0.010547
0.0184845
0.0228388
0.0248085
0.025331
0.0250615
0.0246351
0.024197
0.0238289
0.0235499
0.0233415
0.0231911
0.0230995
0.023064
0.0231181
0.0218758
0.0219318
0.0218935
0.0217785
0.0215694
0.0211996
0.0205818
0.0196122
0.0179874
0.0152984
0.0109082
0.00386658
-0.00699598
-0.0218288
-0.0405186
-0.0593871
-0.0774775
-0.090078
-0.0997619
-0.0994802
-0.0829889
-0.0610487
-0.0378615
-0.0183662
-0.00223372
0.00974956
0.0181374
0.0227695
0.0250346
0.0255199
0.0250518
0.0245442
0.0239937
0.0235631
0.0232302
0.0229823
0.0228127
0.0227215
0.022693
0.0227284
0.0211822
0.0212134
0.0211643
0.0210518
0.0208407
0.0204833
0.0199067
0.0190075
0.0174992
0.0150308
0.0110157
0.00476586
-0.00439356
-0.0165115
-0.0317668
-0.0491113
-0.0666827
-0.0799065
-0.0903166
-0.0909893
-0.0760176
-0.0577111
-0.0374002
-0.0192959
-0.00405731
0.00754241
0.0155573
0.0202794
0.0229625
0.0240685
0.0240439
0.0237552
0.0233428
0.0230082
0.0227393
0.022539
0.0223993
0.0223123
0.0222563
0.0222119
0.0206172
0.0205825
0.0205438
0.0204689
0.0203221
0.0200627
0.0196347
0.0189651
0.0178804
0.0161123
0.0131867
0.00860425
0.00177204
-0.00719542
-0.017901
-0.0306268
-0.04395
-0.055565
-0.0635264
-0.0665105
-0.0617016
-0.051282
-0.0377317
-0.0227581
-0.00963621
0.00131859
0.00968906
0.0157088
0.0194952
0.0214427
0.0221939
0.0222964
0.0221663
0.0220263
0.0218812
0.0217628
0.0216693
0.0215954
0.0215311
0.0214723
0.0202561
0.0202439
0.020214
0.0201603
0.0200661
0.0199085
0.0196557
0.0192595
0.018658
0.017694
0.0160768
0.0134299
0.00905712
0.00257788
-0.00543287
-0.0150964
-0.0253809
-0.0355281
-0.0433079
-0.0485864
-0.0507353
-0.0474054
-0.038854
-0.0274089
-0.0161399
-0.00576075
0.00311571
0.0101139
0.014896
0.0178117
0.0194189
0.0201463
0.0204871
0.0206241
0.0206455
0.0206417
0.0206263
0.020616
0.0206117
0.0206024
0.0199263
0.0199418
0.0199377
0.0199186
0.0198868
0.0198448
0.0197768
0.019666
0.0194946
0.0191609
0.0185072
0.0172548
0.0148655
0.0105339
0.00390769
-0.00503437
-0.0154899
-0.0266492
-0.0366302
-0.0440764
-0.0471457
-0.047009
-0.0414836
-0.0324754
-0.022747
-0.0130126
-0.00417071
0.003205
0.00903108
0.0133626
0.0161194
0.0176969
0.0186089
0.0190909
0.0193455
0.0194862
0.0195626
0.0196158
0.0196615
0.0197195
0.0194862
0.0194656
0.0194754
0.0195045
0.0195591
0.0196463
0.0197706
0.0199391
0.0201474
0.0203404
0.0203675
0.0198493
0.0182628
0.0149355
0.00878668
-0.00017827
-0.0117825
-0.0247951
-0.0377725
-0.0484791
-0.0537235
-0.0553313
-0.0513493
-0.0436822
-0.0343041
-0.0239636
-0.0136172
-0.00417146
0.00360783
0.00943189
0.0132422
0.0155473
0.0169225
0.0177335
0.0182311
0.0185297
0.0186985
0.0187937
0.0188479
0.0188958
0.0190205
0.0189615
0.0189679
0.019024
0.019136
0.0193085
0.0195533
0.0198958
0.0203322
0.0207994
0.0212326
0.020913
0.0192586
0.016099
0.010192
0.00160841
-0.0101503
-0.0239948
-0.0401192
-0.0547273
-0.0663198
-0.0685997
-0.0640712
-0.0565718
-0.0456334
-0.0334836
-0.0207965
-0.00900973
0.000217779
0.00692805
0.0113374
0.0139926
0.0156466
0.0166587
0.0173322
0.0177527
0.0180065
0.0181433
0.0181999
0.0181775
0.0185493
0.0185367
0.0185515
0.0186054
0.018715
0.018886
0.0191275
0.0194457
0.0198357
0.020196
0.0206095
0.0200241
0.0182337
0.0151047
0.00944808
0.00114773
-0.00991273
-0.0234196
-0.0392828
-0.054542
-0.0681373
-0.0707266
-0.0651205
-0.057051
-0.0452927
-0.0320717
-0.019328
-0.00816412
0.000187075
0.00643706
0.0106578
0.013267
0.0148949
0.0159625
0.0166439
0.0170766
0.0173399
0.0174878
0.0175581
0.0175078
0.0179363
0.0179759
0.0180192
0.0180707
0.0181428
0.0182435
0.0183826
0.0185408
0.0187181
0.0187009
0.0183104
0.0170976
0.0147831
0.0109565
0.00512097
-0.00289858
-0.0128698
-0.0243879
-0.0366453
-0.0474165
-0.05516
-0.0555856
-0.0502832
-0.0424378
-0.0318915
-0.0211831
-0.0112554
-0.00309754
0.00316348
0.00805511
0.0114032
0.0135104
0.0148418
0.0156636
0.0161872
0.0165153
0.016714
0.0168198
0.0168726
0.0168849
0.0171572
0.0171852
0.0171995
0.0172066
0.0172101
0.0172058
0.0171807
0.017098
0.0169061
0.0164029
0.0152357
0.0130594
0.0095511
0.00461015
-0.00176206
-0.00943631
-0.0180488
-0.0269549
-0.0345547
-0.0395531
-0.0400753
-0.0372409
-0.0318362
-0.0248119
-0.0169201
-0.00921695
-0.00244392
0.00318046
0.0077618
0.0110582
0.0131126
0.0143887
0.0151738
0.0156722
0.0159897
0.0161886
0.016306
0.0163733
0.016414
0.0164546
0.0163151
0.0162816
0.0162315
0.0161693
0.0160875
0.0159607
0.0157437
0.0153494
0.0146588
0.0134737
0.0114681
0.00840185
0.00413293
-0.00142005
-0.00814959
-0.0155261
-0.0230473
-0.0297945
-0.034021
-0.034886
-0.03296
-0.0278813
-0.0213459
-0.014005
-0.00670896
-0.000179196
0.00517053
0.0093037
0.0121662
0.013844
0.0148261
0.0153493
0.0156632
0.0158663
0.0159974
0.0160817
0.0161384
0.0161735
0.0161913
0.0161888
0.0155087
0.0154329
0.0153556
0.0152534
0.0151001
0.0148481
0.0144351
0.013735
0.0125611
0.0106211
0.00761233
0.0033915
-0.00193526
-0.00835909
-0.0156173
-0.023152
-0.0301833
-0.0357615
-0.0382186
-0.036563
-0.0330905
-0.0264825
-0.0180137
-0.00906959
-0.000739721
0.00592311
0.0107856
0.0138424
0.0154096
0.0160142
0.0161815
0.016148
0.0160828
0.0160142
0.0159629
0.0159244
0.0159041
0.0158918
0.0158813
0.0158689
0.0148063
0.0147731
0.0147072
0.0145848
0.0143631
0.0139919
0.0134033
0.0124613
0.0109492
0.00848685
0.00460535
-0.000867878
-0.00799112
-0.0164415
-0.0253158
-0.0337991
-0.0411149
-0.0461676
-0.0480483
-0.0446647
-0.036676
-0.0270881
-0.0161989
-0.00572757
0.00298258
0.00945226
0.0137967
0.0161116
0.0172228
0.0173847
0.0170009
0.0165888
0.0162177
0.0159276
0.0157177
0.0155715
0.0154784
0.0154279
0.0154127
0.0154472
0.0142157
0.0142542
0.0141907
0.0140426
0.0137718
0.0133347
0.0126588
0.0116208
0.00996879
0.00738537
0.00334577
-0.00251253
-0.010341
-0.0198232
-0.0299407
-0.0393804
-0.0474938
-0.0527763
-0.0548304
-0.0506
-0.0392113
-0.026826
-0.0143257
-0.00353666
0.0046331
0.0105689
0.0143998
0.016294
0.0173516
0.0175021
0.0169375
0.0164682
0.0159698
0.0156128
0.0153438
0.0151587
0.015042
0.0149871
0.0149797
0.0150247
0.0136618
0.0136978
0.0136378
0.0135097
0.0132688
0.0128826
0.0122725
0.0113605
0.00987608
0.00759538
0.00414423
-0.000651363
-0.00696555
-0.0150949
-0.0242114
-0.033101
-0.0413773
-0.0467346
-0.049003
-0.0458048
-0.0366791
-0.0257142
-0.0147238
-0.00530205
0.00226201
0.00800034
0.0119238
0.0142148
0.0155014
0.01596
0.015862
0.0156483
0.0153287
0.0150722
0.0148684
0.0147288
0.0146389
0.0145908
0.0145665
0.0145558
0.0131924
0.0131648
0.0131261
0.0130507
0.0129095
0.0126669
0.0122747
0.0116391
0.0106281
0.00903999
0.00658254
0.00315588
-0.00107689
-0.00658848
-0.01306
-0.0197954
-0.0264184
-0.0313608
-0.0344545
-0.0345473
-0.0311788
-0.0247115
-0.0174507
-0.0103822
-0.00367634
0.00200857
0.00647052
0.009678
0.0118276
0.0131907
0.0138855
0.0141399
0.0141758
0.014139
0.0140924
0.014056
0.0140248
0.0139969
0.0139655
0.0139298
0.0129175
0.0128928
0.0128682
0.0128325
0.012767
0.0126565
0.012474
0.0121875
0.0117081
0.0109126
0.0095435
0.00739568
0.00458115
0.000989652
-0.00342598
-0.00842365
-0.013767
-0.0186042
-0.0228355
-0.0258077
-0.0262794
-0.0244426
-0.0208225
-0.0156567
-0.00983704
-0.00440469
0.000516846
0.00453627
0.00764272
0.00987821
0.011297
0.0121071
0.0125566
0.0128205
0.0129699
0.0130585
0.0131176
0.0131588
0.0131833
0.013183
0.0127245
0.0127416
0.0127468
0.012749
0.0127455
0.0127428
0.012729
0.0127103
0.0126431
0.0124658
0.012016
0.0111023
0.00939519
0.00675201
0.00306006
-0.0016677
-0.00731445
-0.0130426
-0.0185166
-0.0228703
-0.0250211
-0.0260494
-0.0246913
-0.0209481
-0.0156733
-0.0102893
-0.00500053
-0.000353545
0.00342446
0.00636564
0.00853684
0.0099995
0.0109236
0.0114927
0.0118329
0.0120424
0.0121813
0.0122841
0.0123644
0.0124291
0.0124314
0.0124392
0.0124633
0.0125058
0.0125711
0.012672
0.012815
0.0130127
0.0132604
0.0135389
0.0137677
0.0136719
0.0127908
0.0109361
0.0077061
0.00302991
-0.00310969
-0.0102255
-0.0173652
-0.0235115
-0.0284635
-0.0319064
-0.0319257
-0.0288875
-0.0238723
-0.0179892
-0.01175
-0.00589158
-0.00080527
0.00325173
0.0062544
0.00832774
0.00965326
0.0104655
0.0109653
0.0112773
0.0114711
0.0115946
0.011679
0.0117506
0.0120577
0.0120226
0.012041
0.0121002
0.0122126
0.0123846
0.0126342
0.0129802
0.0134235
0.0139354
0.0144888
0.0147174
0.0143258
0.0132852
0.0108893
0.00688813
0.00114785
-0.00711588
-0.0163045
-0.0254799
-0.0335763
-0.0389552
-0.0394384
-0.0363256
-0.031325
-0.0247267
-0.0174327
-0.0102275
-0.00381614
0.0011603
0.0047663
0.00722098
0.00877316
0.00972461
0.0103423
0.0107457
0.0109924
0.011129
0.0111942
0.0112003
0.0116817
0.0116558
0.0116676
0.0117181
0.0118243
0.0119948
0.0122413
0.0125703
0.0130041
0.0134348
0.0139377
0.0140749
0.0137231
0.0127957
0.0106807
0.0069826
0.00161308
-0.00609853
-0.0153684
-0.0248715
-0.0331791
-0.039126
-0.039495
-0.0360002
-0.0309083
-0.024071
-0.0167729
-0.00967671
-0.00356259
0.00108813
0.00450643
0.00683522
0.00829025
0.00927598
0.00991798
0.0103152
0.010575
0.0107225
0.0107846
0.0107399
0.0112289
0.0112496
0.0112756
0.0113146
0.0113769
0.0114703
0.0116038
0.0117673
0.0119372
0.0120113
0.0119142
0.0114293
0.0104427
0.00876179
0.00611237
0.00232762
-0.00261409
-0.00852233
-0.0153426
-0.0222387
-0.0272532
-0.0303013
-0.0294945
-0.0260078
-0.0214532
-0.015751
-0.00998627
-0.00465546
-0.000343644
0.00300186
0.00555645
0.00730203
0.00845805
0.00921339
0.00968837
0.00999108
0.0101769
0.0102787
0.0103246
0.0103146
0.010636
0.0106592
0.0106714
0.0106704
0.0106591
0.010635
0.0105884
0.0104904
0.0102874
0.00984978
0.00899949
0.00758462
0.00561652
0.00300397
-0.000307435
-0.00418725
-0.00861233
-0.0127926
-0.0163658
-0.0191962
-0.0204089
-0.0197795
-0.0173182
-0.0140401
-0.0101563
-0.00606735
-0.00225079
0.00103375
0.00365334
0.00581788
0.00739006
0.00838332
0.00904246
0.00943511
0.00967774
0.00982808
0.00991434
0.00995853
0.00998307
0.0100152
0.00996853
0.00994567
0.00989892
0.00982752
0.00972576
0.00957529
0.00933956
0.00895244
0.00834572
0.0073666
0.00588513
0.00381863
0.00109359
-0.00222797
-0.00603818
-0.00996508
-0.0138051
-0.0168823
-0.0180704
-0.0177279
-0.0165307
-0.0138615
-0.010436
-0.00664424
-0.00282338
0.000662235
0.00350233
0.00566513
0.00728744
0.00846365
0.00912427
0.00949861
0.00968699
0.00977044
0.00981779
0.00984959
0.00986719
0.00987274
0.00987618
0.00987942
0.00933291
0.00926513
0.00917822
0.00906167
0.00889857
0.00865105
0.00826068
0.00762928
0.00663108
0.00513261
0.00301675
0.000249219
-0.00328093
-0.00746737
-0.0120505
-0.0164056
-0.0200777
-0.0221984
-0.0218783
-0.019211
-0.0157847
-0.0117397
-0.00732223
-0.00270846
0.00161879
0.00517468
0.0077318
0.00930394
0.0101741
0.0104745
0.0104246
0.010308
0.0101541
0.0100228
0.00992144
0.00985536
0.00981373
0.009781
0.00975641
0.00973007
0.00878694
0.00873798
0.0086632
0.00854135
0.00834293
0.00802627
0.00752543
0.00671886
0.00541786
0.00343432
0.000633763
-0.00315094
-0.00795707
-0.0133759
-0.0189511
-0.0238764
-0.0274599
-0.0290162
-0.027687
-0.0228719
-0.0168008
-0.0105587
-0.00414204
0.00161306
0.00602171
0.00909344
0.0109674
0.0118157
0.011984
0.011629
0.0111484
0.0106893
0.0103008
0.0100095
0.00979399
0.00964067
0.00954309
0.00948385
0.00945518
0.00945645
0.00835096
0.00836498
0.00831129
0.00818627
0.00796028
0.00759663
0.00703003
0.00614803
0.00476089
0.00257826
-0.000533062
-0.00478638
-0.0101877
-0.0161469
-0.0221102
-0.0273471
-0.0309894
-0.0325828
-0.0308915
-0.0249836
-0.017462
-0.00963824
-0.0019958
0.0042728
0.00844715
0.0110163
0.0122636
0.0125887
0.0123491
0.0116899
0.0111293
0.0105685
0.0100999
0.00974184
0.00947924
0.00929519
0.00917855
0.00911786
0.00910099
0.00913778
0.00798287
0.00801496
0.00796858
0.00785453
0.00765278
0.00731624
0.00680558
0.00601937
0.0048058
0.00294924
0.000364263
-0.00314222
-0.0076713
-0.0127967
-0.018046
-0.0228067
-0.0263662
-0.0279615
-0.0271235
-0.0223411
-0.0163345
-0.00959283
-0.00322038
0.00205456
0.00583363
0.00843388
0.00991949
0.010626
0.0107643
0.0105381
0.0102541
0.00988918
0.0095547
0.00928134
0.00907261
0.00893847
0.00885437
0.00881375
0.00880044
0.0088099
0.00766118
0.00765587
0.00762454
0.0075634
0.00744687
0.00724984
0.0069224
0.00640099
0.00560144
0.00439567
0.00269535
0.000473997
-0.00237274
-0.00575085
-0.0094045
-0.0129492
-0.0158477
-0.017891
-0.0187058
-0.0172273
-0.014403
-0.0106702
-0.00695283
-0.00335056
-5.62535e-05
0.00270692
0.00482612
0.00637867
0.00744876
0.00813238
0.00850738
0.00861227
0.00860812
0.008558
0.00850663
0.00846996
0.00844337
0.00842452
0.0084049
0.00838202
0.00746796
0.00744684
0.00743701
0.00742684
0.00740024
0.00734741
0.00724584
0.00705803
0.00672628
0.0061718
0.0052837
0.00408031
0.00254178
0.000599494
-0.00173943
-0.00438202
-0.00693213
-0.00944122
-0.0114969
-0.0125039
-0.012728
-0.0121533
-0.0108517
-0.00860254
-0.00579329
-0.00297385
-0.000354025
0.00192468
0.00380369
0.00525536
0.00626945
0.00690388
0.007287
0.00751134
0.00765365
0.00774265
0.00779689
0.00782929
0.0078405
0.00783601
0.0073771
0.00739258
0.0074095
0.00743465
0.00746597
0.00751177
0.00757302
0.00763605
0.00766717
0.00762152
0.00742716
0.0069612
0.00614211
0.00487213
0.00302623
0.000520769
-0.00227914
-0.00523025
-0.00788607
-0.0103771
-0.0125919
-0.0143214
-0.0147362
-0.0134646
-0.0110036
-0.00794393
-0.00477679
-0.00184265
0.000657958
0.00261827
0.00411049
0.00518902
0.00593583
0.00641716
0.00672928
0.00693202
0.00706921
0.00716897
0.00723845
0.00727898
0.00722496
0.00725274
0.00728899
0.00734359
0.0074228
0.00754003
0.00770434
0.00792735
0.00821446
0.00854415
0.00886884
0.00904088
0.00886379
0.00815271
0.00674759
0.00449927
0.00148121
-0.00208153
-0.00590992
-0.0101836
-0.0144363