/*--------------------------------*- C++ -*----------------------------------*\
| =========                 |                                                 |
| \\      /  F ield         | OpenFOAM: The Open Source CFD Toolbox           |
|  \\    /   O peration     | Version:  v2106                                 |
|   \\  /    A nd           | Website:  www.openfoam.com                      |
|    \\/     M anipulation  |                                                 |
\*---------------------------------------------------------------------------*/
FoamFile
{
    version     2.0;
    format      ascii;
    arch        "LSB;label=32;scalar=64";
    class       pointVectorField;
    location    "0";
    object      pointDisplacement;
}
// * * * * * * * * * * * * * * * * * * * * * * * * * * * * * * * * * * * * * //

dimensions      [0 1 0 0 0 0 0];

internalField   nonuniform List<vector> 
24440
(
(0 0 0)
(0 0 0)
(0 0 0)
(0 0 0)
(0 0 0)
(0 0 0)
(0 0 0)
(0 0 0)
(0 0 0)
(0 0 0)
(0 0 0)
(0 0 0)
(0 0 0)
(0 0 0)
(0 0 0)
(0 0 0)
(0 0 0)
(0 0 0)
(0 0 0)
(0 0 0)
(0 0 0)
(0 0 0)
(0 0 0)
(0 0 0)
(0 0 0)
(0 0 0)
(0 0 0)
(0 0 0)
(0 0 0)
(0 0 0)
(0 0 0)
(0 0 0)
(0 0 0)
(0 0 0)
(0 0 0)
(0 0 0)
(0 0 0)
(0 0 0)
(0 0 0)
(0 0 0)
(0 0 0)
(0 0 0)
(0 0 0)
(0 0 0)
(0 0 0)
(0 0 0)
(0 0 0)
(0 0 0)
(0 0 0)
(0 0 0)
(0 0 0)
(0 0 0)
(0 0 0)
(0 0 0)
(0 0 0)
(0 0 0)
(0 0 0)
(0 0 0)
(0 0 0)
(0 0 0)
(0 0 0)
(0 0 0)
(0 0 0)
(0 0 0)
(0 0 0)
(0 0 0)
(0 0 0)
(0 0 0)
(0 0 0)
(0 0 0)
(0 0 0)
(0 0 0)
(0 0 0)
(0 0 0)
(0 0 0)
(0 0 0)
(0 0 0)
(0 0 0)
(0 0 0)
(0 0 0)
(0 0 0)
(0 0 0)
(0 0 0)
(0 0 0)
(0 0 0)
(0 0 0)
(0 0 0)
(0 0 0)
(0 0 0)
(0 0 0)
(0 0 0)
(0 0 0)
(0 0 0)
(0 0 0)
(0 0 0)
(0 0 0)
(0 0 0)
(0 0 0)
(0 -5.84076e-06 0)
(0 -3.68322e-05 0)
(0 -0.000101281 0)
(0 -0.000156068 0)
(0 -0.000177094 0)
(0 -0.000156068 0)
(0 -0.000101281 0)
(0 -3.68322e-05 0)
(0 -5.84076e-06 0)
(0 0 0)
(0 0 0)
(0 0 0)
(0 0 0)
(0 0 0)
(0 0 0)
(0 0 0)
(0 0 0)
(0 0 0)
(0 0 0)
(0 0 0)
(0 0 0)
(0 0 0)
(0 0 0)
(0 0 0)
(0 0 0)
(0 0 0)
(0 0 0)
(0 0 0)
(0 0 0)
(0 0 0)
(0 0 0)
(0 0 0)
(0 0 0)
(0 0 0)
(0 0 0)
(0 0 0)
(0 0 0)
(0 0 0)
(0 -9.78169e-06 0)
(0 -0.000129395 0)
(0 -0.000380801 0)
(0 -0.000685989 0)
(0 -0.000978498 0)
(0 -0.00118242 0)
(0 -0.00137198 0)
(0 -0.00143868 0)
(0 -0.00137198 0)
(0 -0.00118242 0)
(0 -0.000978498 0)
(0 -0.000685989 0)
(0 -0.000380801 0)
(0 -0.000129395 0)
(0 -9.78169e-06 0)
(0 0 0)
(0 0 0)
(0 0 0)
(0 0 0)
(0 0 0)
(0 0 0)
(0 0 0)
(0 0 0)
(0 0 0)
(0 0 0)
(0 0 0)
(0 0 0)
(0 0 0)
(0 0 0)
(0 0 0)
(0 0 0)
(0 0 0)
(0 0 0)
(0 0 0)
(0 0 0)
(0 0 0)
(0 0 0)
(0 0 0)
(0 0 0)
(0 -4.10692e-06 0)
(0 -0.000170167 0)
(0 -0.000580324 0)
(0 -0.00114439 0)
(0 -0.00172538 0)
(0 -0.00237355 0)
(0 -0.00293491 0)
(0 -0.00328258 0)
(0 -0.00361502 0)
(0 -0.00372992 0)
(0 -0.00361502 0)
(0 -0.00328258 0)
(0 -0.00293491 0)
(0 -0.00237355 0)
(0 -0.00172538 0)
(0 -0.00114439 0)
(0 -0.000580324 0)
(0 -0.000170167 0)
(0 -4.10692e-06 0)
(0 0 0)
(0 0 0)
(0 0 0)
(0 0 0)
(0 0 0)
(0 0 0)
(0 0 0)
(0 0 0)
(0 0 0)
(0 0 0)
(0 0 0)
(0 0 0)
(0 0 0)
(0 0 0)
(0 0 0)
(0 0 0)
(0 0 0)
(0 0 0)
(0 0 0)
(0 0 0)
(0 0 0)
(0 -3.88329e-05 0)
(0 -0.00040384 0)
(0 -0.00107323 0)
(0 -0.00188299 0)
(0 -0.0028884 0)
(0 -0.00390244 0)
(0 -0.00478092 0)
(0 -0.00560384 0)
(0 -0.0061878 0)
(0 -0.0065367 0)
(0 -0.00669686 0)
(0 -0.0065367 0)
(0 -0.0061878 0)
(0 -0.00560384 0)
(0 -0.00478092 0)
(0 -0.00390244 0)
(0 -0.0028884 0)
(0 -0.00188299 0)
(0 -0.00107323 0)
(0 -0.00040384 0)
(0 -4.11112e-05 0)
(0 0 0)
(0 0 0)
(0 0 0)
(0 0 0)
(0 0 0)
(0 0 0)
(0 0 0)
(0 0 0)
(0 0 0)
(0 0 0)
(0 0 0)
(0 0 0)
(0 0 0)
(0 0 0)
(0 0 0)
(0 0 0)
(0 0 0)
(0 0 0)
(0 0 0)
(0 -7.63756e-05 0)
(0 -0.000535545 0)
(0 -0.00133665 0)
(0 -0.00245389 0)
(0 -0.00378168 0)
(0 -0.00516146 0)
(0 -0.00642766 0)
(0 -0.00762803 0)
(0 -0.00807908 0)
(0 -0.00856686 0)
(0 -0.00897486 0)
(0 -0.00929633 0)
(0 -0.0095262 0)
(0 -0.00968516 0)
(0 -0.00983201 0)
(0 -0.00988118 0)
(0 -0.00983201 0)
(0 -0.00968516 0)
(0 -0.0095262 0)
(0 -0.00929633 0)
(0 -0.00897486 0)
(0 -0.00856686 0)
(0 -0.00807908 0)
(0 -0.00762803 0)
(0 -0.00642766 0)
(0 -0.00516146 0)
(0 -0.00378168 0)
(0 -0.00245389 0)
(0 -0.00130891 0)
(0 -0.000483919 0)
(0 -6.10291e-05 0)
(0 0 0)
(0 0 0)
(0 0 0)
(0 0 0)
(0 0 0)
(0 0 0)
(0 0 0)
(0 0 0)
(0 0 0)
(0 0 0)
(0 0 0)
(0 0 0)
(0 0 0)
(0 0 0)
(0 0 0)
(0 0 0)
(0 0 0)
(0 -4.49229e-05 0)
(0 -0.000514094 0)
(0 -0.00143236 0)
(0 -0.00269528 0)
(0 -0.00417459 0)
(0 -0.00591509 0)
(0 -0.00674731 0)
(0 -0.00748498 0)
(0 -0.00830141 0)
(0 -0.00906667 0)
(0 -0.00976682 0)
(0 -0.0103616 0)
(0 -0.00903032 0)
(0 -0.00958168 0)
(0 -0.0100168 0)
(0 -0.0104557 0)
(0 -0.0108 0)
(0 -0.0110453 0)
(0 -0.0111924 0)
(0 -0.0113483 0)
(0 -0.0114005 0)
(0 -0.0113483 0)
(0 -0.0111924 0)
(0 -0.0110453 0)
(0 -0.0108 0)
(0 -0.0104557 0)
(0 -0.0100168 0)
(0 -0.00958168 0)
(0 -0.00903032 0)
(0 -0.0103616 0)
(0 -0.00976682 0)
(0 -0.00906667 0)
(0 -0.00830141 0)
(0 -0.00748498 0)
(0 -0.00674731 0)
(0 -0.00591509 0)
(0 -0.00417459 0)
(0 -0.00269528 0)
(0 -0.00138011 0)
(0 -0.000491727 0)
(0 -4.07965e-05 0)
(0 0 0)
(0 0 0)
(0 0 0)
(0 0 0)
(0 0 0)
(0 0 0)
(0 0 0)
(0 0 0)
(0 0 0)
(0 0 0)
(0 0 0)
(0 0 0)
(0 0 0)
(0 0 0)
(0 0 0)
(0 0 0)
(0 -0.000284235 0)
(0 -0.00116157 0)
(0 -0.00248327 0)
(0 -0.00414348 0)
(0 -0.00599258 0)
(0 -0.00787147 0)
(0 -0.00692833 0)
(0 -0.00783333 0)
(0 -0.00870417 0)
(0 -0.00952415 0)
(0 -0.0102527 0)
(0 -0.0109915 0)
(0 -0.0116444 0)
(0 -0.0121838 0)
(0 -0.0109475 0)
(0 -0.011441 0)
(0 -0.0126924 0)
(0 -0.0130586 0)
(0 -0.0118335 0)
(0 -0.0121927 0)
(0 -0.0134228 0)
(0 -0.0136792 0)
(0 -0.0124475 0)
(0 -0.0125767 0)
(0 -0.0138278 0)
(0 -0.0139457 0)
(0 -0.0127374 0)
(0 -0.0127911 0)
(0 -0.013999 0)
(0 -0.0139457 0)
(0 -0.0127374 0)
(0 -0.0125767 0)
(0 -0.0138278 0)
(0 -0.0136792 0)
(0 -0.0124475 0)
(0 -0.0121927 0)
(0 -0.0134228 0)
(0 -0.0130586 0)
(0 -0.0118335 0)
(0 -0.011441 0)
(0 -0.0126924 0)
(0 -0.0121838 0)
(0 -0.0109475 0)
(0 -0.0116444 0)
(0 -0.0109915 0)
(0 -0.0102527 0)
(0 -0.00952415 0)
(0 -0.00870417 0)
(0 -0.00783333 0)
(0 -0.00692833 0)
(0 -0.00787147 0)
(0 -0.00599258 0)
(0 -0.00409361 0)
(0 -0.00246367 0)
(0 -0.00116033 0)
(0 -0.000309009 0)
(0 0 0)
(0 0 0)
(0 0 0)
(0 0 0)
(0 0 0)
(0 0 0)
(0 0 0)
(0 0 0)
(0 0 0)
(0 0 0)
(0 0 0)
(0 0 0)
(0 0 0)
(0 0 0)
(0 0 0)
(0 -6.20056e-05 0)
(0 -0.000637027 0)
(0 -0.00183622 0)
(0 -0.00344034 0)
(0 -0.00534735 0)
(0 -0.00753221 0)
(0 -0.00963673 0)
(0 -0.00881772 0)
(0 -0.00977111 0)
(0 -0.00877363 0)
(0 -0.0097549 0)
(0 -0.0106673 0)
(0 -0.0115662 0)
(0 -0.0106185 0)
(0 -0.0114072 0)
(0 -0.0123768 0)
(0 -0.0127464 0)
(0 -0.0130904 0)
(0 -0.0126226 0)
(0 -0.0120729 0)
(0 -0.0127428 0)
(0 -0.0132233 0)
(0 -0.0135201 0)
(0 -0.0130395 0)
(0 -0.0137611 0)
(0 -0.0142168 0)
(0 -0.0144277 0)
(0 -0.0139752 0)
(0 -0.014447 0)
(0 -0.0148929 0)
(0 -0.015004 0)
(0 -0.0145843 0)
(0 -0.0148367 0)
(0 -0.0152452 0)
(0 -0.0153034 0)
(0 -0.0149043 0)
(0 -0.014977 0)
(0 -0.0153674 0)
(0 -0.0153557 0)
(0 -0.0149644 0)
(0 -0.0148367 0)
(0 -0.0152452 0)
(0 -0.0151901 0)
(0 -0.0147787 0)
(0 -0.014447 0)
(0 -0.0148929 0)
(0 -0.0147652 0)
(0 -0.0143204 0)
(0 -0.0137611 0)
(0 -0.0142168 0)
(0 -0.0140306 0)
(0 -0.0135193 0)
(0 -0.0127428 0)
(0 -0.0132233 0)
(0 -0.0128995 0)
(0 -0.0124203 0)
(0 -0.0114072 0)
(0 -0.0123768 0)
(0 -0.0115662 0)
(0 -0.0106185 0)
(0 -0.0097549 0)
(0 -0.0106673 0)
(0 -0.00977111 0)
(0 -0.00877363 0)
(0 -0.00881772 0)
(0 -0.00959332 0)
(0 -0.00752701 0)
(0 -0.00543354 0)
(0 -0.00341145 0)
(0 -0.00181834 0)
(0 -0.000668954 0)
(0 -7.09066e-05 0)
(0 0 0)
(0 0 0)
(0 0 0)
(0 0 0)
(0 0 0)
(0 0 0)
(0 0 0)
(0 0 0)
(0 0 0)
(0 0 0)
(0 0 0)
(0 0 0)
(0 0 0)
(0 0 0)
(0 -0.000202868 0)
(0 -0.00102673 0)
(0 -0.00241234 0)
(0 -0.00423881 0)
(0 -0.00634956 0)
(0 -0.00867116 0)
(0 -0.0108379 0)
(0 -0.0103033 0)
(0 -0.0113229 0)
(0 -0.010629 0)
(0 -0.0115554 0)
(0 -0.0122686 0)
(0 -0.0131226 0)
(0 -0.0123993 0)
(0 -0.0131469 0)
(0 -0.0135341 0)
(0 -0.0138671 0)
(0 -0.0135336 0)
(0 -0.0144746 0)
(0 -0.0146348 0)
(0 -0.0147641 0)
(0 -0.0146053 0)
(0 -0.0153228 0)
(0 -0.0154509 0)
(0 -0.0155341 0)
(0 -0.0154086 0)
(0 -0.0158249 0)
(0 -0.0159183 0)
(0 -0.0159606 0)
(0 -0.0158666 0)
(0 -0.0160449 0)
(0 -0.0161134 0)
(0 -0.0161232 0)
(0 -0.0160567 0)
(0 -0.0161012 0)
(0 -0.0161564 0)
(0 -0.0161555 0)
(0 -0.0160999 0)
(0 -0.0160449 0)
(0 -0.0161134 0)
(0 -0.0160999 0)
(0 -0.0160289 0)
(0 -0.0158249 0)
(0 -0.0159183 0)
(0 -0.0158827 0)
(0 -0.0157747 0)
(0 -0.0153228 0)
(0 -0.0154509 0)
(0 -0.0153785 0)
(0 -0.0152294 0)
(0 -0.0144746 0)
(0 -0.0146348 0)
(0 -0.0147814 0)
(0 -0.0145024 0)
(0 -0.0141905 0)
(0 -0.0131469 0)
(0 -0.0135341 0)
(0 -0.0138704 0)
(0 -0.0131226 0)
(0 -0.0123993 0)
(0 -0.0115554 0)
(0 -0.0122405 0)
(0 -0.0113156 0)
(0 -0.010629 0)
(0 -0.0103156 0)
(0 -0.01087 0)
(0 -0.00864937 0)
(0 -0.00641281 0)
(0 -0.00428326 0)
(0 -0.00244029 0)
(0 -0.00104138 0)
(0 -0.000207872 0)
(0 0 0)
(0 0 0)
(0 0 0)
(0 0 0)
(0 0 0)
(0 0 0)
(0 0 0)
(0 0 0)
(0 0 0)
(0 0 0)
(0 0 0)
(0 0 0)
(0 0 0)
(0 0 0)
(0 -0.000312817 0)
(0 -0.00127548 0)
(0 -0.00280684 0)
(0 -0.00477758 0)
(0 -0.00702172 0)
(0 -0.00935071 0)
(0 -0.0115696 0)
(0 -0.0112947 0)
(0 -0.0123062 0)
(0 -0.0118366 0)
(0 -0.0127524 0)
(0 -0.0132278 0)
(0 -0.0140413 0)
(0 -0.0136484 0)
(0 -0.0143889 0)
(0 -0.0145719 0)
(0 -0.0148906 0)
(0 -0.0147119 0)
(0 -0.0154793 0)
(0 -0.0155638 0)
(0 -0.0156591 0)
(0 -0.0155773 0)
(0 -0.0160674 0)
(0 -0.0161082 0)
(0 -0.0161423 0)
(0 -0.0161063 0)
(0 -0.0162082 0)
(0 -0.0162082 0)
(0 -0.0162082 0)
(0 -0.0162082 0)
(0 -0.0162082 0)
(0 -0.0162082 0)
(0 -0.0162082 0)
(0 -0.0162082 0)
(0 -0.0162082 0)
(0 -0.0162082 0)
(0 -0.0162082 0)
(0 -0.0162082 0)
(0 -0.0162082 0)
(0 -0.0162082 0)
(0 -0.0162082 0)
(0 -0.0162082 0)
(0 -0.0162082 0)
(0 -0.0162082 0)
(0 -0.0162082 0)
(0 -0.0162082 0)
(0 -0.0160674 0)
(0 -0.0161082 0)
(0 -0.0160633 0)
(0 -0.0160207 0)
(0 -0.0154793 0)
(0 -0.0155638 0)
(0 -0.015636 0)
(0 -0.0154155 0)
(0 -0.0152576 0)
(0 -0.0143806 0)
(0 -0.0145931 0)
(0 -0.0147554 0)
(0 -0.0140218 0)
(0 -0.0136605 0)
(0 -0.0128251 0)
(0 -0.0132114 0)
(0 -0.0122932 0)
(0 -0.0118889 0)
(0 -0.0112851 0)
(0 -0.0115753 0)
(0 -0.00934687 0)
(0 -0.00701056 0)
(0 -0.00476225 0)
(0 -0.00279085 0)
(0 -0.00126225 0)
(0 -0.000305307 0)
(0 0 0)
(0 0 0)
(0 0 0)
(0 0 0)
(0 0 0)
(0 0 0)
(0 0 0)
(0 0 0)
(0 0 0)
(0 0 0)
(0 0 0)
(0 0 0)
(0 0 0)
(0 0 0)
(0 -0.000331656 0)
(0 -0.00131625 0)
(0 -0.00287111 0)
(0 -0.00486557 0)
(0 -0.00713207 0)
(0 -0.00948017 0)
(0 -0.0117126 0)
(0 -0.0117167 0)
(0 -0.0127293 0)
(0 -0.0125792 0)
(0 -0.013494 0)
(0 -0.0136442 0)
(0 -0.0144421 0)
(0 -0.0142952 0)
(0 -0.0149926 0)
(0 -0.01506 0)
(0 -0.0153396 0)
(0 -0.0152789 0)
(0 -0.01591 0)
(0 -0.015936 0)
(0 -0.016005 0)
(0 -0.015981 0)
(0 -0.0162082 0)
(0 -0.0162082 0)
(0 -0.0162082 0)
(0 -0.0162082 0)
(0 -0.0162082 0)
(0 -0.0162082 0)
(0 -0.0162082 0)
(0 -0.0162082 0)
(0 -0.0162082 0)
(0 -0.0162082 0)
(0 -0.0162082 0)
(0 -0.0162082 0)
(0 -0.0162082 0)
(0 -0.0162082 0)
(0 -0.0162082 0)
(0 -0.0162082 0)
(0 -0.0162082 0)
(0 -0.0162076 0)
(0 -0.0162052 0)
(0 -0.01591 0)
(0 -0.015936 0)
(0 -0.0159532 0)
(0 -0.0157911 0)
(0 -0.0157339 0)
(0 -0.0149917 0)
(0 -0.015061 0)
(0 -0.0151063 0)
(0 -0.0144421 0)
(0 -0.014316 0)
(0 -0.01351 0)
(0 -0.0136098 0)
(0 -0.0126898 0)
(0 -0.0125902 0)
(0 -0.011673 0)
(0 -0.0116864 0)
(0 -0.00945101 0)
(0 -0.00710247 0)
(0 -0.00483808 0)
(0 -0.00284811 0)
(0 -0.00129976 0)
(0 -0.000323109 0)
(0 0 0)
(0 0 0)
(0 0 0)
(0 0 0)
(0 0 0)
(0 0 0)
(0 0 0)
(0 0 0)
(0 0 0)
(0 0 0)
(0 0 0)
(0 0 0)
(0 0 0)
(0 0 0)
(0 -0.00027104 0)
(0 -0.00118455 0)
(0 -0.00266497 0)
(0 -0.00458601 0)
(0 -0.00678504 0)
(0 -0.00907715 0)
(0 -0.0112715 0)
(0 -0.0115882 0)
(0 -0.0125991 0)
(0 -0.012726 0)
(0 -0.0136418 0)
(0 -0.0135148 0)
(0 -0.0143165 0)
(0 -0.0144406 0)
(0 -0.0151057 0)
(0 -0.0150701 0)
(0 -0.0153497 0)
(0 -0.0153836 0)
(0 -0.0159816 0)
(0 -0.0159732 0)
(0 -0.0160379 0)
(0 -0.0160455 0)
(0 -0.0162082 0)
(0 -0.0162082 0)
(0 -0.0162082 0)
(0 -0.0162082 0)
(0 -0.0162082 0)
(0 -0.0162082 0)
(0 -0.0162082 0)
(0 -0.0162082 0)
(0 -0.0162082 0)
(0 -0.0162082 0)
(0 -0.0162082 0)
(0 -0.0162082 0)
(0 -0.0162082 0)
(0 -0.0162082 0)
(0 -0.0162082 0)
(0 -0.0162082 0)
(0 -0.0159816 0)
(0 -0.0159662 0)
(0 -0.0159578 0)
(0 -0.0157961 0)
(0 -0.0158145 0)
(0 -0.0150917 0)
(0 -0.015069 0)
(0 -0.0150002 0)
(0 -0.0143263 0)
(0 -0.0144229 0)
(0 -0.0136208 0)
(0 -0.013522 0)
(0 -0.0126034 0)
(0 -0.0127021 0)
(0 -0.0115896 0)
(0 -0.0113002 0)
(0 -0.0090982 0)
(0 -0.00679878 0)
(0 -0.00459358 0)
(0 -0.00266798 0)
(0 -0.00118485 0)
(0 -0.000270448 0)
(0 0 0)
(0 0 0)
(0 0 0)
(0 0 0)
(0 0 0)
(0 0 0)
(0 0 0)
(0 0 0)
(0 0 0)
(0 0 0)
(0 0 0)
(0 0 0)
(0 0 0)
(0 0 0)
(0 -0.000137088 0)
(0 -0.000861075 0)
(0 -0.00214175 0)
(0 -0.0038641 0)
(0 -0.00600758 0)
(0 -0.00819942 0)
(0 -0.0103374 0)
(0 -0.0109043 0)
(0 -0.0119178 0)
(0 -0.0122751 0)
(0 -0.0132489 0)
(0 -0.0128478 0)
(0 -0.0136767 0)
(0 -0.014075 0)
(0 -0.0147766 0)
(0 -0.0146085 0)
(0 -0.0149134 0)
(0 -0.0150767 0)
(0 -0.0157614 0)
(0 -0.0157135 0)
(0 -0.0158005 0)
(0 -0.0158516 0)
(0 -0.0161886 0)
(0 -0.016172 0)
(0 -0.0161919 0)
(0 -0.0162021 0)
(0 -0.0162082 0)
(0 -0.0162082 0)
(0 -0.0162082 0)
(0 -0.0162082 0)
(0 -0.0162082 0)
(0 -0.0162082 0)
(0 -0.0162082 0)
(0 -0.0162082 0)
(0 -0.0161886 0)
(0 -0.0161696 0)
(0 -0.0161432 0)
(0 -0.0161668 0)
(0 -0.0157614 0)
(0 -0.0157135 0)
(0 -0.0156485 0)
(0 -0.0154424 0)
(0 -0.0155697 0)
(0 -0.0147766 0)
(0 -0.0146085 0)
(0 -0.0144175 0)
(0 -0.0136767 0)
(0 -0.014075 0)
(0 -0.0132242 0)
(0 -0.0128478 0)
(0 -0.0119178 0)
(0 -0.0123073 0)
(0 -0.0109043 0)
(0 -0.0103374 0)
(0 -0.00819942 0)
(0 -0.00593016 0)
(0 -0.00390208 0)
(0 -0.00216666 0)
(0 -0.00087471 0)
(0 -0.000141695 0)
(0 0 0)
(0 0 0)
(0 0 0)
(0 0 0)
(0 0 0)
(0 0 0)
(0 0 0)
(0 0 0)
(0 0 0)
(0 0 0)
(0 0 0)
(0 0 0)
(0 0 0)
(0 0 0)
(0 -1.69626e-05 0)
(0 -0.000503531 0)
(0 -0.00153331 0)
(0 -0.00301511 0)
(0 -0.00481346 0)
(0 -0.00677055 0)
(0 -0.00882421 0)
(0 -0.0096029 0)
(0 -0.0106471 0)
(0 -0.0113318 0)
(0 -0.0122991 0)
(0 -0.0115613 0)
(0 -0.0124768 0)
(0 -0.0131403 0)
(0 -0.0139132 0)
(0 -0.0136033 0)
(0 -0.0139447 0)
(0 -0.014252 0)
(0 -0.0150814 0)
(0 -0.0149434 0)
(0 -0.0150689 0)
(0 -0.0151836 0)
(0 -0.0158145 0)
(0 -0.0157238 0)
(0 -0.01579 0)
(0 -0.0158773 0)
(0 -0.0161423 0)
(0 -0.0160916 0)
(0 -0.0161139 0)
(0 -0.0161602 0)
(0 -0.0162082 0)
(0 -0.0161992 0)
(0 -0.0162027 0)
(0 -0.0162082 0)
(0 -0.0162082 0)
(0 -0.0162082 0)
(0 -0.0162082 0)
(0 -0.0162082 0)
(0 -0.0162082 0)
(0 -0.0162082 0)
(0 -0.0161992 0)
(0 -0.0161943 0)
(0 -0.0162077 0)
(0 -0.0162081 0)
(0 -0.0161423 0)
(0 -0.0160916 0)
(0 -0.016064 0)
(0 -0.0161193 0)
(0 -0.0158145 0)
(0 -0.0157238 0)
(0 -0.0156499 0)
(0 -0.015744 0)
(0 -0.0150926 0)
(0 -0.0149659 0)
(0 -0.0148136 0)
(0 -0.0145618 0)
(0 -0.0148356 0)
(0 -0.013875 0)
(0 -0.0135875 0)
(0 -0.0132517 0)
(0 -0.0124597 0)
(0 -0.0131403 0)
(0 -0.0122991 0)
(0 -0.0115613 0)
(0 -0.0106471 0)
(0 -0.0113318 0)
(0 -0.0096029 0)
(0 -0.00882421 0)
(0 -0.00677055 0)
(0 -0.00481346 0)
(0 -0.00301511 0)
(0 -0.00153331 0)
(0 -0.000469694 0)
(0 -2.03751e-05 0)
(0 0 0)
(0 0 0)
(0 0 0)
(0 0 0)
(0 0 0)
(0 0 0)
(0 0 0)
(0 0 0)
(0 0 0)
(0 0 0)
(0 0 0)
(0 0 0)
(0 0 0)
(0 0 0)
(0 0 0)
(0 -0.000154771 0)
(0 -0.000815585 0)
(0 -0.00191889 0)
(0 -0.0033496 0)
(0 -0.00513718 0)
(0 -0.00698544 0)
(0 -0.00785733 0)
(0 -0.00888617 0)
(0 -0.00976597 0)
(0 -0.0107198 0)
(0 -0.0098124 0)
(0 -0.0106784 0)
(0 -0.0116163 0)
(0 -0.012428 0)
(0 -0.011469 0)
(0 -0.0121308 0)
(0 -0.0126803 0)
(0 -0.0131422 0)
(0 -0.012798 0)
(0 -0.0137564 0)
(0 -0.0132762 0)
(0 -0.013573 0)
(0 -0.014028 0)
(0 -0.0147079 0)
(0 -0.0142962 0)
(0 -0.0144609 0)
(0 -0.0148876 0)
(0 -0.0153104 0)
(0 -0.0149455 0)
(0 -0.0150527 0)
(0 -0.0154115 0)
(0 -0.0156229 0)
(0 -0.0152862 0)
(0 -0.0153456 0)
(0 -0.0156643 0)
(0 -0.0157197 0)
(0 -0.0154087 0)
(0 -0.0153926 0)
(0 -0.015707 0)
(0 -0.0156229 0)
(0 -0.0152862 0)
(0 -0.0152019 0)
(0 -0.0155579 0)
(0 -0.0153104 0)
(0 -0.0149455 0)
(0 -0.0148116 0)
(0 -0.0151829 0)
(0 -0.0147079 0)
(0 -0.0142962 0)
(0 -0.0140833 0)
(0 -0.0144995 0)
(0 -0.0137564 0)
(0 -0.0132762 0)
(0 -0.0129974 0)
(0 -0.0134597 0)
(0 -0.012428 0)
(0 -0.011469 0)
(0 -0.0106784 0)
(0 -0.0116163 0)
(0 -0.0107198 0)
(0 -0.0098124 0)
(0 -0.00888617 0)
(0 -0.00976597 0)
(0 -0.00785733 0)
(0 -0.00698544 0)
(0 -0.00513718 0)
(0 -0.0033496 0)
(0 -0.00191889 0)
(0 -0.000815585 0)
(0 -0.000154771 0)
(0 0 0)
(0 0 0)
(0 0 0)
(0 0 0)
(0 0 0)
(0 0 0)
(0 0 0)
(0 0 0)
(0 0 0)
(0 0 0)
(0 0 0)
(0 0 0)
(0 0 0)
(0 0 0)
(0 0 0)
(0 0 0)
(0 0 0)
(0 -0.000233233 0)
(0 -0.000963076 0)
(0 -0.00206456 0)
(0 -0.00343062 0)
(0 -0.0049269 0)
(0 -0.00640396 0)
(0 -0.00755019 0)
(0 -0.00876903 0)
(0 -0.00789454 0)
(0 -0.00837047 0)
(0 -0.00959216 0)
(0 -0.0103182 0)
(0 -0.00913908 0)
(0 -0.00984206 0)
(0 -0.0110591 0)
(0 -0.0117136 0)
(0 -0.011108 0)
(0 -0.0113417 0)
(0 -0.0120055 0)
(0 -0.0127503 0)
(0 -0.0121549 0)
(0 -0.0123758 0)
(0 -0.012973 0)
(0 -0.0134805 0)
(0 -0.0128815 0)
(0 -0.0129803 0)
(0 -0.0135957 0)
(0 -0.0139183 0)
(0 -0.0133431 0)
(0 -0.0134103 0)
(0 -0.0139849 0)
(0 -0.0140632 0)
(0 -0.0134917 0)
(0 -0.0134641 0)
(0 -0.0140381 0)
(0 -0.0139183 0)
(0 -0.0133431 0)
(0 -0.0132491 0)
(0 -0.0138248 0)
(0 -0.0134805 0)
(0 -0.0128815 0)
(0 -0.0127395 0)
(0 -0.0133382 0)
(0 -0.0127503 0)
(0 -0.0121549 0)
(0 -0.0119084 0)
(0 -0.0125014 0)
(0 -0.0117136 0)
(0 -0.011108 0)
(0 -0.010408 0)
(0 -0.00984206 0)
(0 -0.0110591 0)
(0 -0.0103182 0)
(0 -0.00913908 0)
(0 -0.00837047 0)
(0 -0.00959216 0)
(0 -0.00876903 0)
(0 -0.00755019 0)
(0 -0.00640396 0)
(0 -0.0049269 0)
(0 -0.00789454 0)
(0 -0.00343062 0)
(0 -0.00206456 0)
(0 -0.000963076 0)
(0 -0.000233233 0)
(0 0 0)
(0 0 0)
(0 0 0)
(0 0 0)
(0 0 0)
(0 0 0)
(0 0 0)
(0 0 0)
(0 0 0)
(0 0 0)
(0 0 0)
(0 0 0)
(0 0 0)
(0 0 0)
(0 0 0)
(0 0 0)
(0 0 0)
(0 0 0)
(0 -2.95769e-06 0)
(0 -0.000264961 0)
(0 -0.000897865 0)
(0 -0.00175949 0)
(0 -0.00287991 0)
(0 -0.00407483 0)
(0 -0.00523015 0)
(0 -0.0059046 0)
(0 -0.00715647 0)
(0 -0.00786622 0)
(0 -0.00647312 0)
(0 -0.00711454 0)
(0 -0.00845103 0)
(0 -0.00909225 0)
(0 -0.00840322 0)
(0 -0.00868526 0)
(0 -0.00938546 0)
(0 -0.0101413 0)
(0 -0.00941422 0)
(0 -0.00961485 0)
(0 -0.0103488 0)
(0 -0.0108189 0)
(0 -0.0100909 0)
(0 -0.0102529 0)
(0 -0.0109857 0)
(0 -0.0113353 0)
(0 -0.0105932 0)
(0 -0.0106567 0)
(0 -0.0114004 0)
(0 -0.0114863 0)
(0 -0.0107426 0)
(0 -0.0107076 0)
(0 -0.0114527 0)
(0 -0.0113353 0)
(0 -0.0105932 0)
(0 -0.0105045 0)
(0 -0.0112443 0)
(0 -0.0108189 0)
(0 -0.0100909 0)
(0 -0.00990525 0)
(0 -0.0106926 0)
(0 -0.0101413 0)
(0 -0.00941422 0)
(0 -0.00919181 0)
(0 -0.00991101 0)
(0 -0.00909225 0)
(0 -0.00840322 0)
(0 -0.00770173 0)
(0 -0.00711454 0)
(0 -0.00845103 0)
(0 -0.00786622 0)
(0 -0.00647312 0)
(0 -0.0059046 0)
(0 -0.00715647 0)
(0 -0.00523015 0)
(0 -0.00407483 0)
(0 -0.00287991 0)
(0 -0.00175949 0)
(0 -0.000897865 0)
(0 -0.000264961 0)
(0 -2.95769e-06 0)
(0 0 0)
(0 0 0)
(0 0 0)
(0 0 0)
(0 0 0)
(0 0 0)
(0 0 0)
(0 0 0)
(0 0 0)
(0 0 0)
(0 0 0)
(0 0 0)
(0 0 0)
(0 0 0)
(0 0 0)
(0 0 0)
(0 0 0)
(0 0 0)
(0 0 0)
(0 0 0)
(0 -0.000139148 0)
(0 -0.000579547 0)
(0 -0.00117405 0)
(0 -0.00197688 0)
(0 -0.00292311 0)
(0 -0.00344683 0)
(0 -0.00459289 0)
(0 -0.00519435 0)
(0 -0.00396006 0)
(0 -0.0044499 0)
(0 -0.00576347 0)
(0 -0.00628777 0)
(0 -0.00558887 0)
(0 -0.00581547 0)
(0 -0.0065296 0)
(0 -0.00715928 0)
(0 -0.00640698 0)
(0 -0.00651492 0)
(0 -0.00725655 0)
(0 -0.00780408 0)
(0 -0.00703194 0)
(0 -0.00716718 0)
(0 -0.00794703 0)
(0 -0.00824829 0)
(0 -0.00745252 0)
(0 -0.00750602 0)
(0 -0.00830472 0)
(0 -0.00838695 0)
(0 -0.00758585 0)
(0 -0.00754898 0)
(0 -0.00835003 0)
(0 -0.00824829 0)
(0 -0.00745252 0)
(0 -0.00737796 0)
(0 -0.00816962 0)
(0 -0.00780408 0)
(0 -0.00703194 0)
(0 -0.00687763 0)
(0 -0.00764083 0)
(0 -0.00715928 0)
(0 -0.00640698 0)
(0 -0.00622561 0)
(0 -0.00696645 0)
(0 -0.00628777 0)
(0 -0.00558887 0)
(0 -0.00490446 0)
(0 -0.0044499 0)
(0 -0.00576347 0)
(0 -0.00519435 0)
(0 -0.00396006 0)
(0 -0.00344683 0)
(0 -0.00459289 0)
(0 -0.00292311 0)
(0 -0.00197688 0)
(0 -0.00117405 0)
(0 -0.000579547 0)
(0 -0.000139148 0)
(0 0 0)
(0 0 0)
(0 0 0)
(0 0 0)
(0 0 0)
(0 0 0)
(0 0 0)
(0 0 0)
(0 0 0)
(0 0 0)
(0 0 0)
(0 0 0)
(0 0 0)
(0 0 0)
(0 0 0)
(0 0 0)
(0 0 0)
(0 0 0)
(0 0 0)
(0 0 0)
(0 0 0)
(0 0 0)
(0 0 0)
(0 -1.18496e-05 0)
(0 -0.000200997 0)
(0 -0.000560953 0)
(0 -0.00117676 0)
(0 -0.00149713 0)
(0 -0.00239984 0)
(0 -0.00282022 0)
(0 -0.00182245 0)
(0 -0.0021417 0)
(0 -0.00322601 0)
(0 -0.00360606 0)
(0 -0.00300511 0)
(0 -0.00316498 0)
(0 -0.00378324 0)
(0 -0.00420997 0)
(0 -0.00356302 0)
(0 -0.00371301 0)
(0 -0.00437478 0)
(0 -0.0047901 0)
(0 -0.00409204 0)
(0 -0.00419202 0)
(0 -0.00489939 0)
(0 -0.00513087 0)
(0 -0.00440409 0)
(0 -0.00444402 0)
(0 -0.0051744 0)
(0 -0.00524393 0)
(0 -0.00450919 0)
(0 -0.00447612 0)
(0 -0.00520939 0)
(0 -0.00513087 0)
(0 -0.00440409 0)
(0 -0.00434853 0)
(0 -0.00507028 0)
(0 -0.0047901 0)
(0 -0.00409204 0)
(0 -0.00397838 0)
(0 -0.00466572 0)
(0 -0.00420997 0)
(0 -0.00356302 0)
(0 -0.00340278 0)
(0 -0.00403358 0)
(0 -0.00360606 0)
(0 -0.00300511 0)
(0 -0.00244459 0)
(0 -0.0021417 0)
(0 -0.00322601 0)
(0 -0.00282022 0)
(0 -0.00182245 0)
(0 -0.00149713 0)
(0 -0.00239984 0)
(0 -0.00117676 0)
(0 -0.000560953 0)
(0 -0.000200997 0)
(0 -1.18496e-05 0)
(0 0 0)
(0 0 0)
(0 0 0)
(0 0 0)
(0 0 0)
(0 0 0)
(0 0 0)
(0 0 0)
(0 0 0)
(0 0 0)
(0 0 0)
(0 0 0)
(0 0 0)
(0 0 0)
(0 0 0)
(0 0 0)
(0 0 0)
(0 0 0)
(0 0 0)
(0 0 0)
(0 0 0)
(0 0 0)
(0 0 0)
(0 0 0)
(0 0 0)
(0 0 0)
(0 -2.14798e-06 0)
(0 -0.000161376 0)
(0 -0.000281088 0)
(0 -0.000779428 0)
(0 -0.00100985 0)
(0 -0.000419135 0)
(0 -0.000566762 0)
(0 -0.00124232 0)
(0 -0.0014675 0)
(0 -0.00101017 0)
(0 -0.00111358 0)
(0 -0.00152295 0)
(0 -0.00186992 0)
(0 -0.00140727 0)
(0 -0.00149642 0)
(0 -0.0019743 0)
(0 -0.00224123 0)
(0 -0.00172581 0)
(0 -0.00178723 0)
(0 -0.00231235 0)
(0 -0.00246411 0)
(0 -0.00191869 0)
(0 -0.00194361 0)
(0 -0.00249281 0)
(0 -0.00254274 0)
(0 -0.00198786 0)
(0 -0.00196369 0)
(0 -0.00251592 0)
(0 -0.00246411 0)
(0 -0.00191869 0)
(0 -0.0018841 0)
(0 -0.00242424 0)
(0 -0.00224123 0)
(0 -0.00172581 0)
(0 -0.00165643 0)
(0 -0.00216073 0)
(0 -0.00186992 0)
(0 -0.00140727 0)
(0 -0.00131313 0)
(0 -0.00175926 0)
(0 -0.0014675 0)
(0 -0.00101017 0)
(0 -0.000679294 0)
(0 -0.000566762 0)
(0 -0.00124232 0)
(0 -0.00100985 0)
(0 -0.000419135 0)
(0 -0.000281088 0)
(0 -0.000779428 0)
(0 -0.000161376 0)
(0 -2.14798e-06 0)
(0 0 0)
(0 0 0)
(0 0 0)
(0 0 0)
(0 0 0)
(0 0 0)
(0 0 0)
(0 0 0)
(0 0 0)
(0 0 0)
(0 0 0)
(0 0 0)
(0 0 0)
(0 0 0)
(0 0 0)
(0 0 0)
(0 0 0)
(0 0 0)
(0 0 0)
(0 0 0)
(0 0 0)
(0 0 0)
(0 0 0)
(0 0 0)
(0 0 0)
(0 0 0)
(0 0 0)
(0 0 0)
(0 0 0)
(0 0 0)
(0 0 0)
(0 -7.88867e-05 0)
(0 -2.85324e-05 0)
(0 0 0)
(0 -0.000124049 0)
(0 -0.00020724 0)
(0 -6.34462e-06 0)
(0 -2.7732e-05 0)
(0 -0.000298649 0)
(0 -0.000391274 0)
(0 -5.84767e-05 0)
(0 -9.31118e-05 0)
(0 -0.000478795 0)
(0 -0.000555722 0)
(0 -0.000126864 0)
(0 -0.000155773 0)
(0 -0.000617519 0)
(0 -0.000660696 0)
(0 -0.000176781 0)
(0 -0.000187812 0)
(0 -0.000682884 0)
(0 -0.000700638 0)
(0 -0.000197236 0)
(0 -0.000187812 0)
(0 -0.000682884 0)
(0 -0.000660696 0)
(0 -0.000176781 0)
(0 -0.000155773 0)
(0 -0.000617519 0)
(0 -0.000555722 0)
(0 -0.000126864 0)
(0 -9.31118e-05 0)
(0 -0.000478795 0)
(0 -0.000391274 0)
(0 -5.84767e-05 0)
(0 -2.7732e-05 0)
(0 -0.000298649 0)
(0 -0.00020724 0)
(0 -6.34462e-06 0)
(0 0 0)
(0 -0.000124049 0)
(0 -7.88867e-05 0)
(0 0 0)
(0 0 0)
(0 0 0)
(0 -2.85324e-05 0)
(0 0 0)
(0 0 0)
(0 0 0)
(0 0 0)
(0 0 0)
(0 0 0)
(0 0 0)
(0 0 0)
(0 0 0)
(0 0 0)
(0 0 0)
(0 0 0)
(0 0 0)
(0 0 0)
(0 0 0)
(0 0 0)
(0 0 0)
(0 0 0)
(0 0 0)
(0 0 0)
(0 0 0)
(0 0 0)
(0 0 0)
(0 0 0)
(0 0 0)
(0 0 0)
(0 0 0)
(0 0 0)
(0 0 0)
(0 0 0)
(0 0 0)
(0 0 0)
(0 0 0)
(0 0 0)
(0 0 0)
(0 0 0)
(0 0 0)
(0 0 0)
(0 0 0)
(0 0 0)
(0 -5.70186e-07 0)
(0 0 0)
(0 0 0)
(0 -2.19426e-06 0)
(0 -1.30555e-06 0)
(0 0 0)
(0 -5.70186e-07 0)
(0 -1.30555e-06 0)
(0 0 0)
(0 0 0)
(0 0 0)
(0 0 0)
(0 0 0)
(0 0 0)
(0 0 0)
(0 0 0)
(0 0 0)
(0 0 0)
(0 0 0)
(0 0 0)
(0 0 0)
(0 0 0)
(0 0 0)
(0 0 0)
(0 0 0)
(0 0 0)
(0 0 0)
(0 0 0)
(0 0 0)
(0 0 0)
(0 0 0)
(0 0 0)
(0 0 0)
(0 0 0)
(0 0 0)
(0 0 0)
(0 0 0)
(0 0 0)
(0 0 0)
(0 0 0)
(0 0 0)
(0 0 0)
(0 0 0)
(0 0 0)
(0 0 0)
(0 0 0)
(0 0 0)
(0 0 0)
(0 0 0)
(0 0 0)
(0 0 0)
(0 0 0)
(0 0 0)
(0 0 0)
(0 0 0)
(0 0 0)
(0 0 0)
(0 0 0)
(0 0 0)
(0 0 0)
(0 0 0)
(0 0 0)
(0 0 0)
(0 0 0)
(0 0 0)
(0 0 0)
(0 0 0)
(0 0 0)
(0 0 0)
(0 0 0)
(0 0 0)
(0 0 0)
(0 0 0)
(0 0 0)
(0 0 0)
(0 0 0)
(0 0 0)
(0 0 0)
(0 0 0)
(0 0 0)
(0 0 0)
(0 0 0)
(0 0 0)
(0 0 0)
(0 0 0)
(0 0 0)
(0 0 0)
(0 0 0)
(0 0 0)
(0 0 0)
(0 0 0)
(0 0 0)
(0 0 0)
(0 0 0)
(0 0 0)
(0 0 0)
(0 0 0)
(0 0 0)
(0 0 0)
(0 0 0)
(0 0 0)
(0 0 0)
(0 0 0)
(0 0 0)
(0 0 0)
(0 0 0)
(0 0 0)
(0 0 0)
(0 0 0)
(0 0 0)
(0 0 0)
(0 0 0)
(0 0 0)
(0 0 0)
(0 0 0)
(0 0 0)
(0 0 0)
(0 0 0)
(0 0 0)
(0 0 0)
(0 0 0)
(0 0 0)
(0 0 0)
(0 0 0)
(0 0 0)
(0 0 0)
(0 0 0)
(0 0 0)
(0 0 0)
(0 0 0)
(0 0 0)
(0 0 0)
(0 0 0)
(0 0 0)
(0 0 0)
(0 0 0)
(0 0 0)
(0 0 0)
(0 0 0)
(0 0 0)
(0 0 0)
(0 0 0)
(0 0 0)
(0 0 0)
(0 0 0)
(0 0 0)
(0 0 0)
(0 0 0)
(0 0 0)
(0 0 0)
(0 0 0)
(0 0 0)
(0 0 0)
(0 0 0)
(0 0 0)
(0 0 0)
(0 0 0)
(0 0 0)
(0 0 0)
(0 0 0)
(0 0 0)
(0 0 0)
(0 0 0)
(0 0 0)
(0 0 0)
(0 0 0)
(0 0 0)
(0 0 0)
(0 0 0)
(0 0 0)
(0 0 0)
(0 0 0)
(0 0 0)
(0 0 0)
(0 0 0)
(0 0 0)
(0 0 0)
(0 0 0)
(0 0 0)
(0 0 0)
(0 0 0)
(0 0 0)
(0 0 0)
(0 0 0)
(0 0 0)
(0 0 0)
(0 0 0)
(0 0 0)
(0 0 0)
(0 0 0)
(0 0 0)
(0 0 0)
(0 0 0)
(0 0 0)
(0 0 0)
(0 0 0)
(0 0 0)
(0 0 0)
(0 0 0)
(0 0 0)
(0 0 0)
(0 0 0)
(0 0 0)
(0 0 0)
(0 0 0)
(0 0 0)
(0 0 0)
(0 0 0)
(0 0 0)
(0 0 0)
(0 0 0)
(0 0 0)
(0 0 0)
(0 0 0)
(0 0 0)
(0 0 0)
(0 0 0)
(0 0 0)
(0 0 0)
(0 0 0)
(0 0 0)
(0 0 0)
(0 0 0)
(0 0 0)
(0 0 0)
(0 0 0)
(0 0 0)
(0 0 0)
(0 0 0)
(0 0 0)
(0 0 0)
(0 0 0)
(0 0 0)
(0 0 0)
(0 0 0)
(0 0 0)
(0 0 0)
(0 0 0)
(0 0 0)
(0 0 0)
(0 0 0)
(0 0 0)
(0 0 0)
(0 0 0)
(0 0 0)
(0 0 0)
(0 0 0)
(0 0 0)
(0 0 0)
(0 0 0)
(0 0 0)
(0 0 0)
(0 0 0)
(0 0 0)
(0 0 0)
(0 0 0)
(0 0 0)
(0 0 0)
(0 0 0)
(0 0 0)
(0 0 0)
(0 0 0)
(0 0 0)
(0 0 0)
(0 0 0)
(0 0 0)
(0 0 0)
(0 0 0)
(0 0 0)
(0 0 0)
(0 0 0)
(0 0 0)
(0 0 0)
(0 0 0)
(0 0 0)
(0 0 0)
(0 0 0)
(0 0 0)
(0 0 0)
(0 0 0)
(0 0 0)
(0 0 0)
(0 0 0)
(0 0 0)
(0 0 0)
(0 0 0)
(0 0 0)
(0 0 0)
(0 0 0)
(0 0 0)
(0 0 0)
(0 0 0)
(0 0 0)
(0 0 0)
(0 0 0)
(0 0 0)
(0 0 0)
(0 0 0)
(0 0 0)
(0 0 0)
(0 0 0)
(0 0 0)
(0 0 0)
(0 0 0)
(0 0 0)
(0 0 0)
(0 0 0)
(0 0 0)
(0 0 0)
(0 0 0)
(0 0 0)
(0 0 0)
(0 0 0)
(0 0 0)
(0 0 0)
(0 0 0)
(0 0 0)
(0 0 0)
(0 0 0)
(0 0 0)
(0 0 0)
(0 0 0)
(0 0 0)
(0 0 0)
(0 0 0)
(0 0 0)
(0 0 0)
(0 0 0)
(0 0 0)
(0 0 0)
(0 0 0)
(0 0 0)
(0 0 0)
(0 0 0)
(0 0 0)
(0 0 0)
(0 0 0)
(0 0 0)
(0 0 0)
(0 0 0)
(0 0 0)
(0 0 0)
(0 0 0)
(0 0 0)
(0 0 0)
(0 0 0)
(0 0 0)
(0 0 0)
(0 0 0)
(0 0 0)
(0 0 0)
(0 0 0)
(0 0 0)
(0 0 0)
(0 0 0)
(0 0 0)
(0 0 0)
(0 0 0)
(0 0 0)
(0 0 0)
(0 0 0)
(0 0 0)
(0 0 0)
(0 0 0)
(0 0 0)
(0 0 0)
(0 0 0)
(0 0 0)
(0 0 0)
(0 0 0)
(0 0 0)
(0 0 0)
(0 0 0)
(0 0 0)
(0 0 0)
(0 0 0)
(0 0 0)
(0 0 0)
(0 0 0)
(0 0 0)
(0 0 0)
(0 0 0)
(0 0 0)
(0 0 0)
(0 0 0)
(0 0 0)
(0 0 0)
(0 0 0)
(0 0 0)
(0 0 0)
(0 0 0)
(0 0 0)
(0 0 0)
(0 0 0)
(0 0 0)
(0 0 0)
(0 0 0)
(0 0 0)
(0 0 0)
(0 0 0)
(0 0 0)
(0 0 0)
(0 0 0)
(0 0 0)
(0 0 0)
(0 0 0)
(0 0 0)
(0 0 0)
(0 0 0)
(0 0 0)
(0 0 0)
(0 0 0)
(0 0 0)
(0 0 0)
(0 0 0)
(0 0 0)
(0 0 0)
(0 0 0)
(0 0 0)
(0 0 0)
(0 0 0)
(0 0 0)
(0 0 0)
(0 0 0)
(0 0 0)
(0 0 0)
(0 0 0)
(0 0 0)
(0 0 0)
(0 0 0)
(0 0 0)
(0 0 0)
(0 0 0)
(0 0 0)
(0 0 0)
(0 0 0)
(0 0 0)
(0 0 0)
(0 0 0)
(0 0 0)
(0 0 0)
(0 0 0)
(0 0 0)
(0 0 0)
(0 0 0)
(0 0 0)
(0 0 0)
(0 0 0)
(0 0 0)
(0 0 0)
(0 0 0)
(0 0 0)
(0 0 0)
(0 0 0)
(0 0 0)
(0 0 0)
(0 0 0)
(0 0 0)
(0 0 0)
(0 0 0)
(0 0 0)
(0 0 0)
(0 0 0)
(0 0 0)
(0 0 0)
(0 0 0)
(0 0 0)
(0 0 0)
(0 0 0)
(0 0 0)
(0 0 0)
(0 0 0)
(0 0 0)
(0 0 0)
(0 0 0)
(0 0 0)
(0 0 0)
(0 0 0)
(0 0 0)
(0 0 0)
(0 0 0)
(0 0 0)
(0 0 0)
(0 0 0)
(0 0 0)
(0 0 0)
(0 0 0)
(0 0 0)
(0 0 0)
(0 0 0)
(0 0 0)
(0 0 0)
(0 0 0)
(0 0 0)
(0 0 0)
(0 0 0)
(0 0 0)
(0 0 0)
(0 0 0)
(0 0 0)
(0 0 0)
(0 0 0)
(0 0 0)
(0 0 0)
(0 0 0)
(0 0 0)
(0 0 0)
(0 0 0)
(0 0 0)
(0 0 0)
(0 0 0)
(0 0 0)
(0 0 0)
(0 0 0)
(0 0 0)
(0 0 0)
(0 0 0)
(0 0 0)
(0 0 0)
(0 0 0)
(0 0 0)
(0 0 0)
(0 0 0)
(0 0 0)
(0 0 0)
(0 0 0)
(0 0 0)
(0 0 0)
(0 0 0)
(0 0 0)
(0 0 0)
(0 0 0)
(0 0 0)
(0 0 0)
(0 0 0)
(0 0 0)
(0 0 0)
(0 0 0)
(0 0 0)
(0 0 0)
(0 0 0)
(0 0 0)
(0 0 0)
(0 0 0)
(0 0 0)
(0 0 0)
(0 0 0)
(0 0 0)
(0 0 0)
(0 0 0)
(0 0 0)
(0 0 0)
(0 0 0)
(0 0 0)
(0 0 0)
(0 0 0)
(0 0 0)
(0 0 0)
(0 0 0)
(0 0 0)
(0 0 0)
(0 0 0)
(0 0 0)
(0 0 0)
(0 0 0)
(0 0 0)
(0 0 0)
(0 0 0)
(0 0 0)
(0 0 0)
(0 0 0)
(0 0 0)
(0 0 0)
(0 0 0)
(0 0 0)
(0 0 0)
(0 0 0)
(0 0 0)
(0 0 0)
(0 0 0)
(0 0 0)
(0 0 0)
(0 0 0)
(0 0 0)
(0 0 0)
(0 0 0)
(0 0 0)
(0 0 0)
(0 0 0)
(0 0 0)
(0 0 0)
(0 0 0)
(0 0 0)
(0 0 0)
(0 0 0)
(0 0 0)
(0 0 0)
(0 0 0)
(0 0 0)
(0 0 0)
(0 0 0)
(0 0 0)
(0 0 0)
(0 0 0)
(0 0 0)
(0 0 0)
(0 0 0)
(0 0 0)
(0 0 0)
(0 0 0)
(0 0 0)
(0 0 0)
(0 0 0)
(0 0 0)
(0 0 0)
(0 0 0)
(0 0 0)
(0 0 0)
(0 0 0)
(0 0 0)
(0 0 0)
(0 0 0)
(0 0 0)
(0 0 0)
(0 0 0)
(0 0 0)
(0 0 0)
(0 0 0)
(0 0 0)
(0 0 0)
(0 0 0)
(0 0 0)
(0 0 0)
(0 0 0)
(0 0 0)
(0 0 0)
(0 0 0)
(0 0 0)
(0 0 0)
(0 0 0)
(0 0 0)
(0 0 0)
(0 0 0)
(0 0 0)
(0 0 0)
(0 0 0)
(0 0 0)
(0 0 0)
(0 0 0)
(0 0 0)
(0 0 0)
(0 0 0)
(0 0 0)
(0 0 0)
(0 0 0)
(0 0 0)
(0 0 0)
(0 0 0)
(0 0 0)
(0 0 0)
(0 0 0)
(0 0 0)
(0 0 0)
(0 0 0)
(0 0 0)
(0 0 0)
(0 0 0)
(0 0 0)
(0 0 0)
(0 0 0)
(0 0 0)
(0 0 0)
(0 0 0)
(0 0 0)
(0 0 0)
(0 0 0)
(0 0 0)
(0 0 0)
(0 0 0)
(0 0 0)
(0 0 0)
(0 0 0)
(0 0 0)
(0 0 0)
(0 0 0)
(0 0 0)
(0 0 0)
(0 0 0)
(0 0 0)
(0 0 0)
(0 0 0)
(0 0 0)
(0 0 0)
(0 0 0)
(0 0 0)
(0 0 0)
(0 0 0)
(0 0 0)
(0 0 0)
(0 0 0)
(0 0 0)
(0 0 0)
(0 0 0)
(0 0 0)
(0 0 0)
(0 0 0)
(0 0 0)
(0 0 0)
(0 0 0)
(0 0 0)
(0 0 0)
(0 0 0)
(0 0 0)
(0 0 0)
(0 0 0)
(0 0 0)
(0 0 0)
(0 0 0)
(0 0 0)
(0 0 0)
(0 0 0)
(0 0 0)
(0 0 0)
(0 0 0)
(0 0 0)
(0 0 0)
(0 0 0)
(0 0 0)
(0 0 0)
(0 0 0)
(0 0 0)
(0 0 0)
(0 0 0)
(0 0 0)
(0 0 0)
(0 0 0)
(0 0 0)
(0 0 0)
(0 0 0)
(0 0 0)
(0 0 0)
(0 0 0)
(0 0 0)
(0 0 0)
(0 0 0)
(0 0 0)
(0 0 0)
(0 0 0)
(0 0 0)
(0 0 0)
(0 0 0)
(0 0 0)
(0 0 0)
(0 0 0)
(0 0 0)
(0 0 0)
(0 0 0)
(0 0 0)
(0 0 0)
(0 0 0)
(0 0 0)
(0 0 0)
(0 0 0)
(0 0 0)
(0 0 0)
(0 0 0)
(0 0 0)
(0 0 0)
(0 0 0)
(0 0 0)
(0 0 0)
(0 0 0)
(0 0 0)
(0 0 0)
(0 0 0)
(0 0 0)
(0 0 0)
(0 0 0)
(0 0 0)