/*--------------------------------*- C++ -*----------------------------------*\
| =========                 |                                                 |
| \\      /  F ield         | OpenFOAM: The Open Source CFD Toolbox           |
|  \\    /   O peration     | Version:  v2106                                 |
|   \\  /    A nd           | Website:  www.openfoam.com                      |
|    \\/     M anipulation  |                                                 |
\*---------------------------------------------------------------------------*/
FoamFile
{
    version     2.0;
    format      ascii;
    arch        "LSB;label=32;scalar=64";
    class       volScalarField;
    location    "0";
    object      p;
}
// * * * * * * * * * * * * * * * * * * * * * * * * * * * * * * * * * * * * * //

dimensions      [0 2 -2 0 0 0 0];

internalField   nonuniform List<scalar> 
11644
(
0.0333534
0.0337779
0.034677
0.0360764
0.037984
0.0404201
0.0434122
0.0469881
0.05117
0.0559699
0.0613803
0.0673541
0.0738233
0.080682
0.0877392
0.094792
0.101601
0.107903
0.113414
0.117818
0.120936
0.122766
0.123403
0.122898
0.121303
0.118809
0.115709
0.112192
0.108462
0.10471
0.10107
0.0976432
0.0945061
0.0917095
0.0892859
0.0872542
0.0856248
0.0844082
0.0836159
0.0832408
0.0326365
0.033053
0.0339124
0.0352431
0.0370734
0.0394339
0.0423558
0.0458729
0.0500174
0.0548152
0.0602697
0.0663723
0.0730694
0.0802059
0.0876591
0.095207
0.102545
0.109311
0.115113
0.119695
0.12294
0.124793
0.125254
0.124432
0.122493
0.11968
0.116206
0.112366
0.10838
0.104413
0.100607
0.0970691
0.0938618
0.091027
0.0885906
0.0865646
0.0849561
0.0837662
0.082991
0.082616
0.0309893
0.0314063
0.032234
0.0334886
0.0352089
0.0374382
0.0402242
0.0436185
0.0476764
0.0524468
0.0579815
0.0643007
0.0713773
0.0791662
0.0874855
0.0960562
0.104471
0.112229
0.118891
0.124182
0.127842
0.129676
0.12965
0.12807
0.125273
0.12158
0.11732
0.11276
0.108174
0.103761
0.0996414
0.0958876
0.0925475
0.0896404
0.0871723
0.0851397
0.0835366
0.0823491
0.081558
0.0811555
0.0285131
0.0288995
0.0296623
0.0308109
0.0323824
0.034427
0.0370075
0.0401984
0.0440856
0.0487721
0.0543536
0.0609252
0.0686048
0.0773272
0.0869973
0.0971768
0.107334
0.117055
0.125492
0.132013
0.136132
0.137615
0.136619
0.133667
0.129462
0.124318
0.118744
0.113146
0.107717
0.102644
0.098061
0.0940132
0.090495
0.0874918
0.084978
0.0829295
0.0813191
0.0801203
0.0793142
0.0789027
0.0253221
0.0256481
0.0262948
0.0272783
0.0286316
0.0304074
0.0326788
0.0355411
0.0391171
0.0435585
0.0490666
0.0559215
0.0643245
0.0744337
0.0860741
0.0987624
0.111692
0.124603
0.135758
0.143996
0.148637
0.149323
0.146597
0.141146
0.134565
0.127209
0.119847
0.112854
0.106465
0.100709
0.0956193
0.0912486
0.0875532
0.0844626
0.0819187
0.0798688
0.0782683
0.0770833
0.0762916
0.0758918
0.0215515
0.0217849
0.0222622
0.0229985
0.0240308
0.0254141
0.027224
0.0295686
0.0325957
0.0365637
0.0418632
0.0488756
0.0580057
0.0694068
0.0834873
0.0998724
0.117078
0.134969
0.150622
0.161993
0.167285
0.166136
0.159979
0.150448
0.140037
0.129271
0.119334
0.110822
0.103479
0.0972358
0.091872
0.0873052
0.083508
0.0804091
0.0779048
0.0759135
0.0743757
0.0732488
0.0725079
0.0721341
0.0173132
0.0174459
0.0177072
0.0181197
0.0187183
0.0195534
0.0207008
0.0222708
0.0244572
0.027665
0.0323445
0.0389546
0.0479257
0.060608
0.0774907
0.0985297
0.116695
0.139725
0.161941
0.179308
0.187714
0.186269
0.176887
0.163089
0.144318
0.129182
0.116124
0.105872
0.0978752
0.0914503
0.0861879
0.0817968
0.0781358
0.0751866
0.0728512
0.0710271
0.069642
0.0686437
0.0679956
0.0676811
0.0128102
0.0128023
0.0128042
0.012823
0.0128818
0.0130141
0.013285
0.013789
0.0147944
0.0167119
0.0198867
0.0248898
0.0328659
0.0453344
0.062094
0.0845801
0.116088
0.152307
0.188763
0.2174
0.229318
0.222343
0.201514
0.175712
0.150644
0.129142
0.113728
0.0968235
0.0887727
0.0827465
0.07807
0.0743161
0.071202
0.0686793
0.0667248
0.0652308
0.0641158
0.063328
0.0628179
0.0625626
0.00823486
0.00810144
0.00781377
0.00737868
0.00680196
0.00609591
0.00528534
0.00443831
0.00380983
0.00365601
0.00429061
0.00620741
0.0100928
0.0244094
0.0392298
0.0644422
0.0995779
0.150696
0.211361
0.265449
0.289665
0.27358
0.23207
0.18707
0.14852
0.117782
0.100263
0.0816563
0.0752699
0.0707647
0.0673507
0.0647144
0.0626022
0.0608764
0.0595696
0.0585988
0.0578885
0.057383
0.0570669
0.0569086
0.00387696
0.00358666
0.00299489
0.00208555
0.000831835
-0.000795509
-0.00284276
-0.00529107
-0.00802449
-0.0110438
-0.014175
-0.0170994
-0.0198016
-0.010341
-0.00345486
0.0191218
0.0561392
0.120747
0.22353
0.344773
0.404293
0.353844
0.254237
0.174705
0.120075
0.0856757
0.0734266
0.0587491
0.0567723
0.0552101
0.0540148
0.05317
0.0525195
0.0519544
0.0515508
0.0512872
0.0511203
0.0510136
0.050944
0.0509173
-1.90152e-06
-0.000442286
-0.00132481
-0.00269865
-0.00461199
-0.00715204
-0.0104513
-0.0146028
-0.0197066
-0.0260301
-0.0338286
-0.0434269
-0.0551064
-0.0568608
-0.0668285
-0.0666682
-0.0550687
-0.0200003
0.104614
0.383712
0.598757
0.389103
0.162813
0.0705692
0.0402865
0.0300956
0.0336294
0.0300045
0.0337802
0.0364543
0.0385661
0.0401914
0.0414164
0.0423169
0.0430335
0.0436285
0.044084
0.0444237
0.0446375
0.0447296
-0.00320866
-0.00372105
-0.00483945
-0.00658471
-0.00905847
-0.012377
-0.0167455
-0.0224078
-0.029697
-0.0391461
-0.0514702
-0.0679281
-0.0900134
-0.102224
-0.140039
-0.173366
-0.232439
-0.346469
-0.622514
-0.402385
-0.161251
-0.0739129
-0.0361692
-0.0130157
-0.00150673
0.00872165
0.0164812
0.0223539
0.0267172
0.0300156
0.0325317
0.034464
0.0359695
0.0370912
0.0379014
0.0384484
0.038724
-0.00534491
-0.0060236
-0.00731316
-0.00930563
-0.0121185
-0.0159026
-0.020915
-0.0275165
-0.0362047
-0.0477207
-0.0630886
-0.0838794
-0.112077
-0.138302
-0.193462
-0.258239
-0.369968
-0.57977
-0.828043
-0.402352
-0.274587
-0.151043
-0.0895753
-0.0534634
-0.0300386
-0.0139428
-0.00179931
0.00726397
0.0140821
0.0193121
0.0233586
0.0264609
0.0288182
0.030575
0.0318407
0.0326825
0.0331023
-0.00649215
-0.00715693
-0.00848304
-0.0105389
-0.0134046
-0.0172609
-0.022326
-0.0290175
-0.0378886
-0.049715
-0.0654723
-0.0866017
-0.114401
-0.147041
-0.204141
-0.278683
-0.397219
-0.577758
-0.674587
-0.271932
-0.23722
-0.169189
-0.11567
-0.0793273
-0.0493757
-0.0304444
-0.0158767
-0.00483003
0.00368212
0.0103169
0.0155434
0.0195891
0.0226236
0.0248746
0.0264681
0.027503
0.0281251
-0.00668593
-0.00718708
-0.0083793
-0.0102366
-0.0128415
-0.0163293
-0.0208092
-0.0266873
-0.0344369
-0.0444839
-0.0575623
-0.0745145
-0.096425
-0.127108
-0.171382
-0.238223
-0.34601
-0.535183
-0.742721
-0.725133
-0.493885
-0.303489
-0.213144
-0.213523
-0.176648
-0.127828
-0.0915491
-0.0590435
-0.0396447
-0.0242818
-0.0126676
-0.00336638
0.00392313
0.00977291
0.0143191
0.0177383
0.0202984
0.0221134
0.0232598
0.023679
-0.0056734
-0.00618329
-0.00713155
-0.00858547
-0.0106095
-0.0132917
-0.0166829
-0.02093
-0.0263824
-0.0330076
-0.0409592
-0.0506473
-0.0620734
-0.0862511
-0.106898
-0.136345
-0.205344
-0.324084
-0.535557
-0.634071
-0.490379
-0.364059
-0.308214
-0.275416
-0.199281
-0.135652
-0.095928
-0.0605123
-0.0415636
-0.026832
-0.0154559
-0.00639518
0.000808673
0.00656872
0.0110513
0.0145078
0.0170902
0.0188969
0.0200077
0.020445
-0.00358021
-0.00396453
-0.00461489
-0.00558315
-0.00690054
-0.00860071
-0.0106449
-0.0128794
-0.0152668
-0.0177789
-0.0199687
-0.0217558
-0.0227165
-0.0209212
-0.0296577
-0.0230806
-0.0327758
-0.0468825
-0.157329
-0.381138
-0.527864
-0.551751
-0.481675
-0.337386
-0.197376
-0.131402
-0.077768
-0.0541231
-0.0369772
-0.0238271
-0.0137391
-0.005696
0.000766906
0.00593601
0.00994225
0.0130456
0.01537
0.0170102
0.0180731
0.0186185
-0.000707366
-0.000756238
-0.00110985
-0.00163545
-0.00227782
-0.00297155
-0.00358933
-0.00382778
-0.00336618
-0.0021832
0.000142919
0.00455688
0.0127318
0.0221123
0.0307857
0.0617659
0.0854879
0.0921053
-0.0487687
-0.34547
-0.562623
-0.58697
-0.455302
-0.283604
-0.163113
-0.108746
-0.0600503
-0.0410104
-0.0269136
-0.0163573
-0.00832647
-0.00189254
0.00330616
0.0074791
0.0107358
0.0132765
0.0151936
0.0165785
0.0175081
0.0179923
0.00261629
0.00262479
0.00257805
0.00251379
0.00249723
0.00266697
0.00319036
0.0043018
0.00629959
0.009391
0.0141225
0.0211994
0.0328759
0.0480464
0.0596533
0.0894337
0.116282
0.0881603
-0.0410387
-0.239547
-0.37089
-0.355923
-0.259168
-0.170741
-0.10127
-0.069091
-0.0338608
-0.021475
-0.0121616
-0.00529936
-1.79973e-05
0.0043041
0.00783369
0.0107125
0.0130256
0.0148722
0.0162847
0.0173108
0.0179884
0.0183372
0.00591327
0.00592997
0.00609416
0.00639175
0.00684314
0.00754866
0.0086255
0.0101209
0.0123127
0.0154518
0.0199981
0.0260614
0.0345339
0.0461212
0.0545117
0.0636296
0.0644297
0.0280173
-0.0566401
-0.142752
-0.184141
-0.170949
-0.130363
-0.0908466
-0.0478571
-0.0278808
-0.00493484
0.000705098
0.00489699
0.00773229
0.0100083
0.0119343
0.0135719
0.0150054
0.0162639
0.0173295
0.0181786
0.0188042
0.0191995
0.0193928
0.00915936
0.00923457
0.0094699
0.00989223
0.0105103
0.0113581
0.012484
0.0138489
0.0155006
0.0174852
0.0199539
0.0232074
0.0247955
0.027447
0.0260122
0.00622289
-0.0207922
-0.0755027
-0.14119
-0.183759
-0.180399
-0.140349
-0.0891657
-0.0450751
-0.0101153
0.00510179
0.0199323
0.0205945
0.0207014
0.0200527
0.019695
0.0194581
0.0193874
0.0194913
0.019736
0.0200475
0.0203559
0.0206219
0.0207952
0.0208675
0.01225
0.0123789
0.0126445
0.0130659
0.0136461
0.0143814
0.0152831
0.0163057
0.0173149
0.0180886
0.0183102
0.0178225
0.0128508
0.00544404
-0.0141004
-0.046302
-0.126476
-0.2147
-0.288792
-0.313837
-0.266859
-0.171716
-0.080617
-0.0187399
0.0140761
0.0368372
0.037135
0.0352605
0.0325764
0.02967
0.0273361
0.0255063
0.0242287
0.0233896
0.0228689
0.0225606
0.0224056
0.0223564
0.0223626
0.0223964
0.0150905
0.0152235
0.0154986
0.0159079
0.0164386
0.01707
0.017751
0.0184196
0.0189266
0.0189691
0.0179704
0.0152733
0.00818067
-0.00581099
-0.0295634
-0.0830738
-0.164403
-0.253437
-0.336104
-0.346345
-0.275969
-0.174427
-0.0785208
-0.0107224
0.0301761
0.0440516
0.0490501
0.0445572
0.0402153
0.0360616
0.0325593
0.0298014
0.0278305
0.02642
0.0254165
0.0246991
0.0242326
0.0239524
0.0238146
0.0238103
0.0175929
0.0177242
0.0180157
0.0184402
0.0189797
0.0196014
0.0202232
0.0207522
0.0210478
0.0208817
0.0197328
0.0168545
0.0108613
-0.00100678
-0.0220263
-0.0558549
-0.10845
-0.161399
-0.20504
-0.214646
-0.18212
-0.128441
-0.0676546
-0.0140858
0.0230527
0.043751
0.0521959
0.0488902
0.0440417
0.0394964
0.0355844
0.0325235
0.0302495
0.0285563
0.0272923
0.0263967
0.0257822
0.0253815
0.0251463
0.0250485
0.0196861
0.0198529
0.0201864
0.0206428
0.0212129
0.0218665
0.0225413
0.0231776
0.0236513
0.0238255
0.0233237
0.021622
0.0179398
0.0114254
3.14361e-05
-0.0183031
-0.0495302
-0.0840204
-0.11408
-0.130168
-0.12871
-0.108717
-0.0700806
-0.0264679
0.00925223
0.0310638
0.0421845
0.0442523
0.0422665
0.0391295
0.0359534
0.0333331
0.0312619
0.0296282
0.0283917
0.0274891
0.026837
0.0263899
0.0261046
0.0259526
0.0214327
0.0216531
0.0219803
0.0224342
0.0230213
0.0237369
0.0245599
0.0254729
0.026389
0.0271811
0.0275599
0.0272551
0.0253417
0.0218099
0.0141562
0.00109741
-0.0201013
-0.0486915
-0.0801094
-0.105078
-0.115416
-0.109182
-0.0836007
-0.0498592
-0.0186106
0.00613879
0.0224689
0.031567
0.0344719
0.0344833
0.0333966
0.0320379
0.0307313
0.02959
0.0286597
0.0279244
0.0273537
0.0269386
0.0266612
0.0265161
0.022843
0.0230209
0.0233316
0.0238027
0.0244421
0.0252596
0.0262662
0.0274705
0.0288338
0.0302055
0.0313736
0.0318986
0.0307731
0.0267382
0.0186548
0.00427964
-0.0185473
-0.0503963
-0.0906044
-0.125301
-0.142246
-0.141997
-0.121037
-0.0886207
-0.0528692
-0.0222396
0.00207958
0.0174864
0.0249294
0.0282154
0.0294199
0.0295003
0.029266
0.0288126
0.0283388
0.0278862
0.0274859
0.027183
0.0269694
0.0268362
0.0238935
0.0239552
0.024271
0.0247842
0.0254904
0.0263921
0.0275034
0.0288543
0.0304151
0.0321019
0.0336006
0.0349013
0.0341139
0.0296255
0.0182935
-0.00178222
-0.0308757
-0.0683178
-0.115462
-0.159337
-0.190879
-0.190055
-0.165296
-0.126934
-0.0806834
-0.0410025
-0.0100393
0.00787743
0.0179746
0.0231838
0.0259309
0.0272075
0.0277765
0.0278865
0.0277978
0.027608
0.0273985
0.0272115
0.0270617
0.0269672
0.0246978
0.02477
0.0250422
0.0255063
0.0261805
0.0270605
0.0281455
0.0294538
0.0309892
0.0326869
0.0342087
0.0359331
0.0346562
0.028867
0.0165819
-0.00481673
-0.0354554
-0.0738713
-0.121305
-0.164242
-0.202881
-0.197519
-0.166264
-0.127067
-0.0804361
-0.0428033
-0.0136033
0.00431102
0.0150715
0.0208439
0.0242182
0.0258948
0.0268086
0.0271931
0.0273231
0.027311
0.0272339
0.0271448
0.027069
0.0270265
0.0251925
0.0253454
0.025603
0.0259971
0.0265685
0.0273251
0.0282689
0.029413
0.0307385
0.0322476
0.0335779
0.0345258
0.0321513
0.0246769
0.011601
-0.00796345
-0.0347438
-0.0679274
-0.104157
-0.134475
-0.155437
-0.148742
-0.122944
-0.0921521
-0.0589824
-0.0311184
-0.00802504
0.0068811
0.0160885
0.0211814
0.0241395
0.0257116
0.0265761
0.0270059
0.0271944
0.0272387
0.0272077
0.0271545
0.0271069
0.027088
0.0252519
0.0254068
0.0256468
0.025994
0.0264673
0.0270782
0.0278282
0.0287199
0.0296906
0.0306502
0.0313299
0.0307669
0.0270083
0.0185973
0.00418649
-0.0154708
-0.0395844
-0.0662411
-0.0889586
-0.101958
-0.105001
-0.0965161
-0.0786885
-0.0554022
-0.03206
-0.0110937
0.00476554
0.0143129
0.0200002
0.0232809
0.0252361
0.0263166
0.0269224
0.0272233
0.0273481
0.0273571
0.0273121
0.027242
0.0271803
0.0271295
0.0249886
0.0250652
0.025243
0.025516
0.025872
0.0262996
0.0267711
0.0272619
0.0276212
0.0275994
0.0268436
0.0242403
0.0182086
0.00784455
-0.00722293
-0.0260987
-0.0472447
-0.068065
-0.0839214
-0.0875833
-0.0814469
-0.0688625
-0.0506149
-0.0296992
-0.0102013
0.0051318
0.0150364
0.0209097
0.0241875
0.0258888
0.0268407
0.0272756
0.0274835
0.0275306
0.0275067
0.0274308
0.0273545
0.0272741
0.0272095
0.0271339
0.0245934
0.0246334
0.024739
0.024898
0.0250865
0.0252681
0.0253751
0.0253284
0.0249385
0.0238481
0.0214155
0.0165196
0.00745164
-0.00601535
-0.0231959
-0.0429986
-0.0626504
-0.07986
-0.0915509
-0.0920027
-0.0842074
-0.0652412
-0.0419132
-0.0193789
-0.000114028
0.0129848
0.0209898
0.0254112
0.0275283
0.0283522
0.0285564
0.028371
0.0281044
0.0278226
0.0275899
0.0273881
0.027235
0.0271193
0.0270434
0.0270089
0.0241692
0.0242201
0.0242785
0.0243294
0.0243387
0.0242709
0.0240339
0.0235012
0.0224389
0.0205034
0.0168664
0.0103712
-0.0010873
-0.0181184
-0.0399652
-0.0646639
-0.0876481
-0.104997
-0.117016
-0.116578
-0.10314
-0.0777017
-0.0476285
-0.0218377
-0.000743934
0.0136357
0.0229061
0.0278817
0.0300324
0.0303114
0.029826
0.0291862
0.0285404
0.0279872
0.0275699
0.0272332
0.026985
0.0268216
0.0267361
0.026786
0.0237064
0.0237838
0.0237909
0.0237597
0.0236462
0.0234184
0.0229722
0.0221766
0.0207581
0.0183729
0.0142036
0.00737497
-0.00434428
-0.0218498
-0.0455684
-0.0725463
-0.101099
-0.120725
-0.136382
-0.137813
-0.116433
-0.0869123
-0.0536085
-0.026996
-0.00448132
0.0113814
0.0224747
0.0283341
0.0307695
0.0309772
0.0299477
0.0292053
0.0284813
0.0278428
0.0273589
0.0269801
0.0267121
0.0265564
0.0264887
0.0265022
0.0232404
0.0232706
0.0232585
0.0232044
0.0230602
0.0227959
0.0223285
0.0215453
0.0201824
0.0179072
0.013975
0.00745125
-0.00286124
-0.017409
-0.0365028
-0.0596192
-0.0852442
-0.105031
-0.122456
-0.125599
-0.106818
-0.0820652
-0.0529269
-0.0279779
-0.00679513
0.00864632
0.0192138
0.025421
0.0287261
0.0296298
0.0291177
0.0284993
0.0278732
0.0273414
0.0269152
0.0265857
0.0263494
0.0261963
0.0260933
0.0260237
0.0228843
0.0228758
0.0228664
0.0228346
0.0227369
0.0225385
0.0221771
0.0215742
0.020559
0.0188914
0.0160392
0.0113193
0.00360777
-0.00756748
-0.0218246
-0.0383222
-0.0569291
-0.0734721
-0.0860567
-0.0909497
-0.0841773
-0.070177
-0.0507053
-0.0302423
-0.0121069
0.00227721
0.0133548
0.0208752
0.0251767
0.0270004
0.0272816
0.0270439
0.0266928
0.0263541
0.0260564
0.0258175
0.0256325
0.0254947
0.0253867
0.0252991
0.0226708
0.0226812
0.0226854
0.0226789
0.0226353
0.0225381
0.0223426
0.022008
0.0214407
0.0205358
0.0189941
0.0163413
0.0117227
0.00422536
-0.0065516
-0.0193951
-0.0335321
-0.0476906
-0.0587573
-0.0653305
-0.0674848
-0.063066
-0.050403
-0.0346852
-0.019262
-0.00568191
0.00587027
0.0144429
0.0199212
0.0229532
0.024305
0.0247974
0.0249304
0.0248899
0.0247834
0.0246733
0.0245768
0.0245015
0.0244509
0.0244203
0.0224565
0.022479
0.0224969
0.0225176
0.022537
0.0225638
0.0225689
0.0225466
0.0224467
0.0222311
0.0216898
0.0205245
0.0179386
0.0131128
0.00497186
-0.00615218
-0.0197913
-0.0346376
-0.0482572
-0.0588527
-0.063039
-0.0625874
-0.0538723
-0.041529
-0.028361
-0.0153937
-0.00361339
0.00598251
0.0131579
0.0179113
0.0206028
0.0220697
0.0228285
0.0231901
0.0233528
0.023418
0.0234348
0.0234398
0.0234539
0.0234895
0.0221186
0.0220995
0.0221365
0.0222111
0.022324
0.0224873
0.0227011
0.0229854
0.0233257
0.0236325
0.023747
0.0232297
0.0215329
0.017803
0.0102545
-0.000931319
-0.0159383
-0.0331318
-0.051317
-0.0659316
-0.0730439
-0.0742212
-0.0668787
-0.0559064
-0.0429712
-0.0288049
-0.0145909
-0.00260316
0.00686659
0.01336
0.0172476
0.0195195
0.0208172
0.021579
0.022038
0.0222973
0.0224386
0.0225093
0.0225472
0.0225809
0.0217395
0.0216878
0.0217216
0.0218224
0.0219967
0.0222509
0.0225922
0.0230633
0.0236503
0.0242437
0.0248696
0.0244621
0.0223974
0.0181751
0.0101482
-0.00126109
-0.0167793
-0.0352379
-0.0568615
-0.0764579
-0.0906052
-0.0912947
-0.0824599
-0.0711764
-0.0561671
-0.0393696
-0.0222368
-0.00787742
0.00314285
0.0105448
0.0149037
0.0176242
0.0192621
0.0202803
0.0209534
0.0213625
0.0216061
0.0217352
0.0217907
0.0217693
0.0212981
0.0213079
0.02135
0.021443
0.0216087
0.0218613
0.0222007
0.0226454
0.0232058
0.0237297
0.0241609
0.0235337
0.0211986
0.0167185
0.00860274
-0.00265719
-0.018111
-0.0357104
-0.0577529
-0.0767032
-0.0950446
-0.0950466
-0.0828212
-0.0712397
-0.0543584
-0.0370861
-0.0204865
-0.00714062
0.00280458
0.00963045
0.0139671
0.0166469
0.018369
0.0194362
0.0201331
0.020575
0.0208424
0.0209908
0.0210617
0.0210186
0.0206743
0.0207289
0.0207989
0.0208895
0.0210188
0.0211956
0.0214273
0.0217099
0.0220346
0.0222054
0.0219011
0.0204854
0.0173929
0.0123879
0.0045243
-0.00624904
-0.0200158
-0.0357308
-0.0525955
-0.0662277
-0.0762342
-0.0744401
-0.0652097
-0.0538835
-0.0389973
-0.0249968
-0.0125441
-0.00247022
0.00544334
0.0109642
0.0145707
0.016784
0.018165
0.0190298
0.019589
0.0199424
0.0201587
0.0202746
0.0203337
0.0203467
0.0198741
0.0199152
0.0199504
0.0199922
0.0200444
0.0201059
0.0201666
0.0201792
0.0201113
0.0197417
0.0185477
0.0161871
0.011954
0.00571098
-0.00254611
-0.0126003
-0.0243063
-0.0366339
-0.0474106
-0.0533515
-0.0547541
-0.0509885
-0.0432707
-0.0333423
-0.0220174
-0.0116545
-0.00262826
0.00480919
0.0103991
0.0139985
0.0162359
0.0175866
0.0184586
0.0190074
0.0193619
0.0195818
0.0197135
0.0197855
0.0198275
0.0198589
0.0189922
0.0189624
0.018934
0.0189058
0.0188647
0.0187832
0.0186273
0.0182946
0.0176491
0.0164821
0.014262
0.0106885
0.00542249
-0.00158681
-0.0101761
-0.0197124
-0.0296812
-0.0390917
-0.0458652
-0.0470692
-0.0443858
-0.0380626
-0.0292333
-0.019177
-0.00908455
-0.000333081
0.00676685
0.0118319
0.0151537
0.0170276
0.0180544
0.0186043
0.0189586
0.0191805
0.0193245
0.0194122
0.0194708
0.0195049
0.0195217
0.0195221
0.0181107
0.0180462
0.017982
0.0178967
0.0177618
0.0175277
0.0171306
0.0164481
0.0152545
0.0132396
0.00989363
0.00487278
-0.00180259
-0.00999939
-0.0194248
-0.0292008
-0.0385324
-0.0464012
-0.0508577
-0.049148
-0.0449571
-0.0360144
-0.024541
-0.0127086
-0.001577
0.00709952
0.013367
0.0169483
0.0188153
0.0194575
0.0195786
0.0195229
0.0194258
0.0193273
0.0192554
0.0192017
0.0191744
0.0191605
0.0191528
0.0191463
0.0173289
0.0173005
0.0172359
0.0171114
0.0168835
0.0165045
0.0158973
0.0149362
0.0133708
0.0107677
0.00648704
0.000127151
-0.00843271
-0.0189778
-0.0304332
-0.0415146
-0.0513635
-0.0587747
-0.063043
-0.0605972
-0.0513879
-0.0384686
-0.023871
-0.0102966
0.00142719
0.0101901
0.0161896
0.0191941
0.0206514
0.0209382
0.0204852
0.0200419
0.0196064
0.0192625
0.0190121
0.0188367
0.0187239
0.0186594
0.0186355
0.0186798
0.0166691
0.0167073
0.0166385
0.0164793
0.0161932
0.0157433
0.0150315
0.013962
0.0122338
0.00947656
0.00507552
-0.00151946
-0.0106176
-0.0222992
-0.0351804
-0.047631
-0.0590946
-0.0668761
-0.0721505
-0.0694879
-0.0553896
-0.0400047
-0.0236379
-0.00972711
0.00167996
0.0100922
0.0158794
0.0189538
0.0206819
0.0210026
0.0204634
0.0198868
0.0193067
0.018898
0.0185849
0.0183702
0.0182342
0.01817
0.018155
0.0181936
0.0160671
0.0160972
0.0160358
0.0158987
0.015643
0.0152371
0.0145966
0.0136197
0.0120416
0.00956437
0.00564269
-3.13623e-05
-0.00745911
-0.0172746
-0.0287884
-0.0405197
-0.0522551
-0.0600675
-0.0654189
-0.0637171
-0.0517648
-0.0385581
-0.0237328
-0.0110488
-0.000509494
0.00752555
0.0132693
0.0166332
0.0185719
0.0192741
0.0192356
0.0189496
0.0185587
0.0182481
0.0180109
0.0178425
0.0177325
0.0176699
0.017632
0.0176127
0.0155775
0.0155503
0.015501
0.0154152
0.0152507
0.0149791
0.0145445
0.0138615
0.0127699
0.0109968
0.00823066
0.00403342
-0.00147783
-0.00831962
-0.0165991
-0.0256312
-0.0348887
-0.0421538
-0.0472299
-0.0479669
-0.0433791
-0.035478
-0.025358
-0.0151637
-0.00597047
0.00168922
0.00763883
0.0118124
0.014677
0.0162988
0.0170492
0.0172766
0.0172388
0.0171653
0.0170876
0.0170267
0.016979
0.0169419
0.0169051
0.0168655
0.0152616
0.0152375
0.015214
0.0151762
0.0151004
0.0149717
0.0147585
0.0144255
0.0138883
0.0129845
0.011479
0.00904006
0.00533021
0.00056747
-0.00536956
-0.0121946
-0.0194561
-0.0262774
-0.0319606
-0.0355841
-0.036156
-0.0334262
-0.0277313
-0.0203087
-0.0125907
-0.00538617
0.000905218
0.00598892
0.00986244
0.0124775
0.0141088
0.0149821
0.0154312
0.0156827
0.0158157
0.0158954
0.0159466
0.015983
0.0160053
0.016007
0.0150308
0.0150425
0.0150451
0.0150457
0.0150442
0.0150447
0.0150326
0.0150089
0.0149534
0.0147897
0.0143007
0.0132445
0.011126
0.0078572
0.0030482
-0.00313146
-0.0106486
-0.0184391
-0.0258152
-0.0315317
-0.0339642
-0.0348287
-0.0321034
-0.0265479
-0.0196647
-0.0125499
-0.00581355
2.85385e-05
0.00477308
0.0083943
0.0109532
0.0125758
0.0135668
0.0141657
0.0145164
0.0147344
0.0148748
0.0149759
0.0150553
0.0151223
0.0147136
0.0147146
0.0147404
0.0147878
0.0148667
0.0149889
0.0151575
0.0153887
0.0156791
0.0160051
0.0162594
0.0161196
0.0149734
0.0125727
0.00819482
0.00194157
-0.0063097
-0.0157113
-0.0250522
-0.0329563
-0.0385874
-0.0419162
-0.0406131
-0.0358864
-0.0291228
-0.0214559
-0.01361
-0.00630666
-9.45723e-05
0.00474674
0.00826907
0.0105731
0.0120178
0.0128973
0.0134449
0.0137938
0.0140101
0.0141444
0.0142326
0.0143014
0.0143142
0.0142732
0.0142985
0.0143684
0.0144974
0.0146984
0.014985
0.0153718
0.015878
0.016442
0.0170429
0.0170825
0.0161349
0.0143286
0.0105484
0.00470559
-0.00333817
-0.0137888
-0.0253833
-0.0363453
-0.045959
-0.0507785
-0.0494299
-0.0445899
-0.0374411
-0.0287181
-0.0196216
-0.0107869
-0.00318803
0.00251393
0.00660551
0.00926565
0.0109461
0.0119659
0.0126612
0.0131107
0.0133922
0.0135454
0.013623
0.0136324
0.0138797
0.0138637
0.0138798
0.0139358
0.0140529
0.0142441
0.0145243
0.0148932
0.0153739
0.0158216
0.0163905
0.0162662
0.0151814
0.013443
0.00994368
0.00450992
-0.00287495
-0.0127889
-0.0245335
-0.0362935
-0.0467915
-0.0519051
-0.0501856
-0.0447782
-0.0371098
-0.0282182
-0.0188952
-0.0101196
-0.00290224
0.00236412
0.00620542
0.00875223
0.0103978
0.0114598
0.0121632
0.0125931
0.0128834
0.0130458
0.013115
0.0130711
0.0133351
0.0133593
0.0133953
0.013443
0.013517
0.0136252
0.0137825
0.0139736
0.014195
0.0142614
0.0141104
0.0134289
0.0118823
0.00947014
0.00561633
0.000231759
-0.00649643
-0.0146321
-0.0238309
-0.0325481
-0.0386815
-0.0410772
-0.0387424
-0.0337045
-0.0269494
-0.0193602
-0.0118081
-0.0051528
6.12453e-05
0.00412614
0.00718592
0.0092115
0.010513
0.0113464
0.0118737
0.0122055
0.0124174
0.0125322
0.0125857
0.0125802
0.0126585
0.0126827
0.0126915
0.0126876
0.0126768
0.0126546
0.012613
0.0125177
0.0123227
0.011835
0.0108352
0.00913084
0.00660704
0.00322171
-0.00115739
-0.00646167
-0.0123999
-0.0182702
-0.0234686
-0.0274547
-0.0287686
-0.0276984
-0.0242453
-0.0196303
-0.0141393
-0.0084806
-0.0032922
0.00108648
0.00454313
0.00730309
0.00919375
0.0103462
0.011093
0.0115457
0.0118266
0.0119998
0.0121032
0.0121576
0.0121906
0.0122187
0.0119108
0.0118811
0.0118245
0.0117436
0.011633
0.0114682
0.0112108
0.0107827
0.0101002
0.00896511
0.00716127
0.00458124
0.0011746
-0.0030519
-0.00794138
-0.0131742
-0.018417
-0.0227864
-0.0248961
-0.0249268
-0.0235373
-0.0198163
-0.0148616
-0.00982746
-0.00462885
6.44306e-05
0.00385606
0.00681578
0.00894773
0.0103544
0.0111559
0.0115569
0.0117746
0.0118761
0.0119401
0.0119766
0.0119951
0.0120011
0.0120042
0.0120116
0.0111727
0.0110948
0.0109966
0.0108668
0.0106859
0.0104066
0.00996857
0.00925412
0.00811267
0.00634559
0.00377946
0.000330857
-0.00408923
-0.00933779
-0.0151226
-0.0207759
-0.0258316
-0.0292246
-0.0294731
-0.026519
-0.0225855
-0.0174209
-0.0111808
-0.00474533
0.00106224
0.00576055
0.00908281
0.0111708
0.01233
0.0127006
0.0126494
0.0124746
0.0122948
0.0121265
0.0120081
0.0119282
0.0118788
0.0118464
0.0118254
0.0118044
0.0105374
0.0104808
0.010392
0.0102483
0.010016
0.00964715
0.00907166
0.00815822
0.00669095
0.00438189
0.0010534
-0.00344182
-0.00921545
-0.0157999
-0.0226315
-0.0289717
-0.0339377
-0.0370869
-0.036727
-0.031638
-0.0247151
-0.0170562
-0.00870763
-0.000862162
0.0051431
0.0095541
0.0123285
0.0136932
0.0142023
0.0139533
0.0134157
0.0129116
0.0124724
0.0121283
0.011868
0.0116902
0.0115753
0.0115035
0.0114667
0.0114774
0.0100535
0.0100663
0.00999774
0.00985011
0.00958465
0.0091646
0.00851846
0.00750968
0.00599558
0.00351791
-5.87589e-05
-0.00496
-0.0113619
-0.0186696
-0.0261248
-0.0331257
-0.0381152
-0.0417114
-0.0411178
-0.0349029
-0.0259234
-0.0165447
-0.00692751
0.00139348
0.00697854
0.0108886
0.0130729
0.0139769
0.0142419
0.013929
0.0133236
0.0127349
0.0122018
0.0117963
0.0114924
0.0112788
0.0111435
0.0110756
0.0110538
0.0110913
0.00965996
0.00969862
0.00964427
0.00951287
0.009277
0.00889826
0.00831555
0.00739924
0.00603278
0.00387937
0.000796455
-0.00332206
-0.00875445
-0.0151976
-0.0218996
-0.0284228
-0.0332337
-0.0365613
-0.0367073
-0.0318784
-0.0247066
-0.0161741
-0.00776855
-0.000601107
0.00462207
0.00837766
0.0106642
0.0119251
0.0124975
0.012493
0.0122301
0.0118862
0.0115085
0.0112111
0.0109858
0.0108268
0.0107237
0.0106758
0.0106578
0.0106556
0.00932972
0.00932858
0.00928788
0.00920882
0.00906399
0.00882671
0.00844784
0.00783824
0.00688628
0.00546367
0.00333135
0.000496303
-0.00303437
-0.00742139
-0.0122741
-0.0172892
-0.0215334
-0.0248391
-0.0263488
-0.024791
-0.0214756
-0.0165025
-0.0111938
-0.00610261
-0.00147804
0.00238796
0.0053109
0.00748178
0.00890145
0.00976064
0.0102249
0.0103684
0.010363
0.0103121
0.0102574
0.0102146
0.0101794
0.0101524
0.0101244
0.0100975
0.00911646
0.00909266
0.0090802
0.00906404
0.00902336
0.0089458
0.00881066
0.00857485
0.00815156
0.00748377
0.00641366
0.00480334
0.00272522
3.02198e-05
-0.00319657
-0.00691436
-0.0106006
-0.0140938
-0.017075
-0.018487
-0.0186883
-0.0175528
-0.0153653
-0.0119281
-0.0080051
-0.00419935
-0.000764615
0.00220066
0.00457513
0.00636932
0.00759635
0.00834414
0.00878683
0.00904841
0.00920881
0.00931401
0.00938285
0.00942691
0.00944722
0.00944439
0.0090193
0.0090266
0.00903905
0.00906033
0.00908678
0.00912909
0.00918359
0.00924772
0.00927771
0.00921202
0.00896023
0.00834385
0.00728486
0.00556523
0.00311708
-0.000284041
-0.00415236
-0.00829697
-0.0122365
-0.0154945
-0.01816
-0.0201078
-0.0202105
-0.0179766
-0.0144714
-0.0103853
-0.00626459
-0.00250377
0.000682549
0.00316291
0.00502711
0.0063358
0.00720663
0.00776416
0.00812269
0.0083587
0.00851832
0.00863485
0.00871901
0.00877461
0.0088848
0.00890386
0.00893498
0.00898598
0.00906897
0.00920008
0.0093841
0.00963491
0.00995382
0.0103191
0.0106835
0.0108427
0.0104801
0.00939187
0.00742191
0.00426817
0.000154146
-0.00491001
-0.0101053
-0.0153795
-0.0203979
-0.0247365
-0.0261592
-0.0248371
-0.0215398
-0.01703
-0.0120412
-0.00717322
-0.00290416
0.000456588
0.0029869
0.0048016
0.00602402
0.0068056
0.00729983
0.00762083
0.00783059
0.00797622
0.00808086
0.00815742
0.0086237
0.00861056
0.00864246
0.00871239
0.0088339
0.0090194
0.00927863
0.00963144
0.0101002
0.0106781
0.0112799
0.0118649
0.0120915
0.0116573
0.0103484
0.00774888
0.00367639
-0.00224235
-0.00908126
-0.0162522
-0.0232064
-0.0291182
-0.0311115
-0.030289
-0.0267555
-0.0219093
-0.0163115
-0.0106334
-0.00549441
-0.00133362
0.00170921
0.00387858
0.00530808
0.00621292
0.00679579
0.00717261
0.00741075
0.00755428
0.00763448
0.00766507
0.00831224
0.00828908
0.00830253
0.00835257
0.00845827
0.00862076
0.00887034
0.00922031
0.00965453
0.0102181
0.0107226
0.0112773
0.0115567
0.0112476
0.0101535
0.00787756
0.00415483
-0.00150502
-0.00844176
-0.0158869
-0.0230461
-0.0288319
-0.030505
-0.0295638
-0.0261904
-0.0214733
-0.0159988
-0.0104209
-0.00536139
-0.00133738
0.00150901
0.00362156
0.00502159
0.00592794
0.00650878
0.00689505
0.00714047
0.00727712
0.00733529
0.00731016
0.00794311
0.00795075
0.00796477
0.00799316
0.00804964
0.00813856
0.00827575
0.00846267
0.00866854
0.00888254
0.0089516
0.00887678
0.00845748
0.00746339
0.00584246
0.00334289
-5.66227e-05
-0.00450466
-0.00962134
-0.0148202
-0.0193663
-0.0225103
-0.0229392
-0.0214303
-0.0184515
-0.0145951
-0.0103231
-0.00615004
-0.00247648
0.000410088
0.00255774
0.00417552
0.00525559
0.00595024
0.00641167
0.00670809
0.00689255
0.00699721
0.00704322
0.00701751
0.00746563
0.00748063
0.00748899
0.00748364
0.00746857
0.00744145
0.00739492
0.00731228
0.00712957
0.0067917
0.00613972
0.00512917
0.00369528
0.00180249
-0.000462271
-0.00318783
-0.00613876
-0.00899338
-0.0114079
-0.0134353
-0.014736
-0.0150606
-0.0137033
-0.0114401
-0.00891763
-0.00593707
-0.00307929
-0.000503622
0.00160062
0.00323234
0.00450958
0.00538502
0.00593933
0.00629059
0.00650824
0.00663838
0.00671023
0.00674644
0.00676337
0.00677949
0.00693564
0.00691867
0.00687588
0.0068008
0.00669129
0.00652844
0.00628227
0.00591085
0.00532412
0.0044457
0.00315878
0.00141385
-0.00079905
-0.00340066
-0.00624736
-0.009225
-0.0118826
-0.0136493
-0.0139427
-0.0131382
-0.0117388
-0.00993068
-0.00740504
-0.00458621
-0.00195104
0.00063585
0.00261664
0.00416232