/*--------------------------------*- C++ -*----------------------------------*\
| =========                 |                                                 |
| \\      /  F ield         | OpenFOAM: The Open Source CFD Toolbox           |
|  \\    /   O peration     | Version:  v2106                                 |
|   \\  /    A nd           | Website:  www.openfoam.com                      |
|    \\/     M anipulation  |                                                 |
\*---------------------------------------------------------------------------*/
FoamFile
{
    version     2.0;
    format      ascii;
    arch        "LSB;label=32;scalar=64";
    class       volVectorField;
    location    "0";
    object      U;
}
// * * * * * * * * * * * * * * * * * * * * * * * * * * * * * * * * * * * * * //

dimensions      [0 1 -1 0 0 0 0];

internalField   nonuniform List<vector> 
11644
(
(0.995853 -0.000234181 -1.75656e-23)
(0.995745 -0.000625053 -4.84407e-23)
(0.995676 -0.000932472 -2.59897e-23)
(0.995658 -0.00124731 0)
(0.995654 -0.00158494 0)
(0.995653 -0.00194265 0)
(0.995653 -0.00231847 0)
(0.995653 -0.00270562 0)
(0.99565 -0.00309718 0)
(0.995658 -0.00347256 0)
(0.995635 -0.00382668 0)
(0.995603 -0.00413293 0)
(0.995668 -0.00434221 0)
(0.995836 -0.00446268 0)
(0.995656 -0.0044638 0)
(0.995613 -0.00432827 0)
(0.995678 -0.00411339 0)
(0.995795 -0.00384382 0)
(0.995746 -0.00345567 0)
(0.995426 -0.00275002 3.40494e-30)
(0.995076 -0.00170775 -3.38726e-30)
(0.99498 -0.000498829 0)
(0.9952 0.000535343 0)
(0.995475 0.00126738 0)
(0.995559 0.00179619 0)
(0.995572 0.00221288 0)
(0.995745 0.00254535 0)
(0.995602 0.00271489 0)
(0.99559 0.00277898 0)
(0.99562 0.00273629 0)
(0.995617 0.00261549 0)
(0.995629 0.00242887 0)
(0.995632 0.00220003 0)
(0.995636 0.00194079 0)
(0.995638 0.00166473 0)
(0.995643 0.00138305 0)
(0.99565 0.001106 0)
(0.995667 0.000838097 0)
(0.995729 0.000575489 0)
(0.995837 0.000220705 -3.40579e-24)
(0.996651 -0.000464186 -2.25629e-23)
(0.996586 -0.00141022 -2.09005e-23)
(0.99655 -0.00237931 -1.1225e-23)
(0.996564 -0.00336017 0)
(0.996609 -0.00436923 0)
(0.996665 -0.00541962 0)
(0.996722 -0.00651206 0)
(0.996769 -0.00763708 0)
(0.996798 -0.00877303 0)
(0.996779 -0.0098914 0)
(0.996729 -0.0109254 0)
(0.996636 -0.0118165 0)
(0.996355 -0.0125144 0)
(0.995818 -0.0129098 0)
(0.995591 -0.0129007 0)
(0.995212 -0.0125568 3.56709e-24)
(0.99479 -0.0117587 4.52348e-24)
(0.994171 -0.0103457 2.84991e-23)
(0.993356 -0.00811598 -1.88138e-23)
(0.992773 -0.00542426 4.16544e-22)
(0.992601 -0.00267371 -4.15331e-22)
(0.9928 -0.000114519 8.69582e-23)
(0.993213 0.00219896 -9.30957e-23)
(0.993659 0.00429765 -2.66325e-24)
(0.994158 0.00609791 -5.05541e-24)
(0.994652 0.0074287 0)
(0.994838 0.00829695 0)
(0.995444 0.00872753 0)
(0.995798 0.00877921 0)
(0.996013 0.00853704 0)
(0.996188 0.00805267 0)
(0.996298 0.00740294 0)
(0.996373 0.00663821 0)
(0.996414 0.00580443 0)
(0.996431 0.00493468 0)
(0.996431 0.004052 0)
(0.996427 0.00316842 0)
(0.996443 0.00227779 0)
(0.996507 0.00136857 0)
(0.996593 0.000454798 0)
(0.99821 -0.000707488 0)
(0.998192 -0.00217248 0)
(0.998225 -0.00369741 0)
(0.998317 -0.00527378 0)
(0.998453 -0.00690076 -2.06108e-23)
(0.998611 -0.00859759 0)
(0.998769 -0.0103654 0)
(0.9989 -0.0121919 0)
(0.998968 -0.0140484 0)
(0.998938 -0.0158782 0)
(0.998759 -0.0176072 0)
(0.998298 -0.0191502 0)
(0.997626 -0.0203057 2.79607e-24)
(0.996919 -0.0209603 -8.65122e-23)
(0.99554 -0.0209968 7.68173e-25)
(0.994133 -0.0202324 7.16847e-22)
(0.992453 -0.0184324 -9.26475e-22)
(0.990408 -0.0153091 3.0947e-22)
(0.988753 -0.0112845 5.6817e-22)
(0.987827 -0.0068195 -2.94298e-21)
(0.987659 -0.00222924 2.88907e-21)
(0.988168 0.00227772 -1.25798e-21)
(0.989168 0.00640932 3.99614e-22)
(0.990424 0.00997862 -2.1347e-22)
(0.991723 0.0127903 4.82052e-22)
(0.993034 0.0147708 -5.85126e-23)
(0.994708 0.0159459 1.21694e-22)
(0.995524 0.0163563 -4.17213e-24)
(0.996335 0.0161345 0)
(0.997025 0.0153919 0)
(0.997509 0.0142945 0)
(0.99781 0.0129654 0)
(0.997974 0.0115003 0)
(0.99805 0.00996222 0)
(0.998067 0.00840009 0)
(0.998054 0.00683986 0)
(0.998034 0.00528919 0)
(0.998034 0.00374488 0)
(0.998073 0.00220706 0)
(0.998134 0.000717006 0)
(1.0005 -0.000955758 0)
(1.00052 -0.00288868 0)
(1.00062 -0.00491438 0)
(1.00082 -0.00700005 0)
(1.00108 -0.0091794 0)
(1.00138 -0.0114619 0)
(1.00168 -0.0138573 0)
(1.00194 -0.0163572 0)
(1.00208 -0.0189319 0)
(1.00204 -0.0215162 0)
(1.00164 -0.0240359 -6.57412e-25)
(1.00093 -0.0262916 1.67634e-23)
(0.999637 -0.028139 -4.20975e-23)
(0.997457 -0.0293262 -5.44649e-23)
(0.995239 -0.0292901 7.32818e-22)
(0.99203 -0.0278918 -8.25036e-23)
(0.988093 -0.0246702 -8.75603e-22)
(0.984273 -0.0199226 5.34074e-22)
(0.981434 -0.0138927 2.86889e-23)
(0.979773 -0.00709081 2.39779e-21)
(0.979363 6.70642e-05 -2.65215e-21)
(0.98012 0.00705454 8.90383e-22)
(0.98209 0.0134508 -1.27602e-21)
(0.984853 0.0187137 1.68839e-21)
(0.987893 0.0225751 -2.64165e-22)
(0.991024 0.0250262 -1.15292e-21)
(0.99329 0.0262231 1.63247e-22)
(0.996099 0.026042 -4.98135e-23)
(0.997938 0.025059 -8.80295e-24)
(0.999142 0.0234671 2.27952e-24)
(0.99991 0.0214387 0)
(1.00039 0.0191595 0)
(1.00062 0.0167777 0)
(1.0007 0.01438 0)
(1.00067 0.0120122 0)
(1.0006 0.00970059 0)
(1.00053 0.00744795 0)
(1.00048 0.00525131 0)
(1.00047 0.00310764 0)
(1.00051 0.00102756 0)
(1.00341 -0.00115276 0)
(1.00348 -0.0035391 0)
(1.00368 -0.00596713 0)
(1.004 -0.00850727 0)
(1.00442 -0.0111761 0)
(1.0049 -0.0140003 0)
(1.0054 -0.0169949 0)
(1.00585 -0.0201652 0)
(1.00614 -0.0234895 0)
(1.0061 -0.0269519 1.36362e-23)
(1.0057 -0.0304193 1.07782e-22)
(1.00463 -0.0337925 1.88965e-22)
(1.00259 -0.0366755 -5.22477e-22)
(0.999831 -0.0384871 8.62801e-22)
(0.994674 -0.038914 8.43096e-22)
(0.988816 -0.0370346 -1.95793e-21)
(0.982556 -0.0330893 7.78897e-22)
(0.975457 -0.0265726 -1.41644e-21)
(0.970156 -0.0175451 2.17106e-21)
(0.966994 -0.00653384 1.31426e-22)
(0.966569 0.00523686 -1.54837e-21)
(0.968823 0.0162476 -2.71508e-21)
(0.973027 0.0254005 3.57346e-21)
(0.978289 0.0320355 -5.48462e-22)
(0.983764 0.0365046 2.17152e-21)
(0.989227 0.0389275 -1.75888e-21)
(0.994672 0.0390712 -1.0435e-21)
(0.997725 0.0380869 3.58778e-22)
(1.00052 0.0358394 5.10038e-22)
(1.00256 0.0328057 -1.98796e-22)
(1.00376 0.0294143 -2.19158e-24)
(1.00432 0.0258866 0)
(1.00452 0.0223699 0)
(1.0045 0.0189584 0)
(1.00434 0.0156901 0)
(1.00414 0.0125726 0)
(1.00394 0.0095996 0)
(1.00379 0.00675079 0)
(1.00371 0.00398464 0)
(1.00371 0.00131099 0)
(1.00684 -0.00137894 0)
(1.00696 -0.00410916 0)
(1.00727 -0.00694026 0)
(1.00775 -0.00987031 0)
(1.00838 -0.012954 0)
(1.00911 -0.0162538 0)
(1.00989 -0.0198021 0)
(1.01062 -0.0236274 0)
(1.01118 -0.027774 6.094e-24)
(1.01149 -0.0322363 1.07371e-22)
(1.01128 -0.0370003 3.06298e-23)
(1.01007 -0.0418259 4.81208e-22)
(1.00731 -0.046288 -2.5907e-22)
(1.00164 -0.0503156 5.6952e-22)
(0.994795 -0.0513811 1.4054e-21)
(0.984775 -0.0496944 -1.51773e-21)
(0.972981 -0.0454925 1.27885e-21)
(0.961576 -0.0367782 -1.04982e-21)
(0.952131 -0.0227283 4.67632e-22)
(0.946788 -0.00596032 -2.18533e-21)
(0.946292 0.0118214 2.06795e-21)
(0.95091 0.0287654 -4.99237e-21)
(0.959278 0.0427993 6.15008e-21)
(0.969839 0.051652 -3.17007e-21)
(0.980123 0.0556766 3.13147e-21)
(0.989151 0.0572454 -1.48026e-21)
(0.995547 0.0564246 -2.87403e-22)
(1.00202 0.0522 -3.72454e-22)
(1.0056 0.0477615 -1.69896e-22)
(1.00791 0.0429475 -3.22381e-22)
(1.00936 0.0378591 9.51314e-23)
(1.00993 0.0327993 8.67242e-24)
(1.00991 0.0279611 0)
(1.00961 0.0234153 0)
(1.00918 0.0191848 0)
(1.00871 0.0152466 0)
(1.00828 0.0115697 0)
(1.00794 0.00810104 0)
(1.00772 0.00480586 0)
(1.00765 0.00157707 0)
(1.0107 -0.00147306 0)
(1.01089 -0.00452729 0)
(1.01133 -0.00765645 0)
(1.01201 -0.010911 0)
(1.01289 -0.0143837 0)
(1.01395 -0.0181136 0)
(1.01511 -0.022171 0)
(1.01629 -0.0266418 8.36275e-24)
(1.01749 -0.0316796 -9.87014e-24)
(1.01847 -0.0374024 2.0528e-22)
(1.01864 -0.0437678 -1.88722e-22)
(1.01742 -0.0506354 9.26455e-23)
(1.01401 -0.0579691 -2.82653e-22)
(1.00898 -0.0635042 -1.45158e-22)
(0.997235 -0.0695245 1.78867e-21)
(0.982813 -0.0704841 -1.52326e-21)
(0.970522 -0.06055 -3.34823e-21)
(0.95388 -0.0516215 -3.37452e-22)
(0.937999 -0.0349263 -1.56805e-21)
(0.927554 -0.0115206 3.53924e-21)
(0.925455 0.0148625 4.83916e-21)
(0.931999 0.0390716 3.72089e-21)
(0.944167 0.0578783 1.25093e-21)
(0.959501 0.0694555 -2.2587e-21)
(0.977941 0.0832763 1.32749e-21)
(0.99237 0.0817295 -2.23144e-21)
(1.00438 0.0751257 2.98046e-22)
(1.00937 0.0688223 -3.32284e-22)
(1.01361 0.0608282 1.2544e-21)
(1.01598 0.0530857 -8.83344e-22)
(1.01712 0.0459447 1.96356e-22)
(1.01738 0.0392676 9.45882e-23)
(1.01695 0.0330493 7.43763e-24)
(1.0161 0.027353 0)
(1.01515 0.0221968 0)
(1.01424 0.0175235 0)
(1.01345 0.0132398 0)
(1.01282 0.00925935 0)
(1.01241 0.0054554 0)
(1.01223 0.00183199 0)
(1.01488 -0.00165156 0)
(1.01514 -0.00488901 0)
(1.01574 -0.0082147 0)
(1.01665 -0.0117131 0)
(1.01786 -0.0154452 0)
(1.01933 -0.0195014 0)
(1.021 -0.0239854 0)
(1.02292 -0.0290836 -7.83273e-23)
(1.02516 -0.0350361 1.23947e-22)
(1.02709 -0.0420384 -9.18017e-23)
(1.02815 -0.0500661 4.52809e-22)
(1.02784 -0.0589765 -9.35258e-22)
(1.02575 -0.068393 1.10161e-21)
(1.01558 -0.0777915 6.10651e-22)
(1.00683 -0.0827048 5.21985e-22)
(0.991294 -0.0889617 -2.94982e-22)
(0.965211 -0.0912221 2.31006e-22)
(0.936269 -0.0822213 -6.79425e-23)
(0.905984 -0.0606595 4.86952e-21)
(0.884113 -0.024016 2.49659e-21)
(0.879007 0.0208943 -1.40569e-21)
(0.892669 0.0622427 2.84143e-22)
(0.918139 0.0914071 8.94371e-22)
(0.94767 0.105597 3.64584e-21)
(0.973718 0.109814 -8.67801e-22)
(0.995054 0.103626 -1.74739e-21)
(1.00886 0.093905 2.53638e-21)
(1.02276 0.0846488 -8.48221e-22)
(1.02616 0.073028 1.51061e-21)
(1.02739 0.0622776 -6.17615e-22)
(1.02742 0.0526959 -6.44511e-23)
(1.0267 0.0443474 1.78291e-22)
(1.02553 0.0369289 -1.46209e-23)
(1.02388 0.0302652 0)
(1.02214 0.0243313 0)
(1.02058 0.0190532 0)
(1.01927 0.0142907 0)
(1.01826 0.00993421 0)
(1.01758 0.0058442 0)
(1.01728 0.00189174 0)
(1.01927 -0.00160358 0)
(1.01961 -0.0050224 0)
(1.02038 -0.00851255 0)
(1.02157 -0.0121832 0)
(1.02315 -0.0160934 0)
(1.02512 -0.0203801 0)
(1.02747 -0.0251723 -5.4113e-24)
(1.03048 -0.0307512 -2.56918e-23)
(1.03399 -0.0374447 1.19027e-22)
(1.03723 -0.0453299 5.04031e-23)
(1.0399 -0.0545574 -2.39693e-23)
(1.04159 -0.065731 -7.97716e-23)
(1.04127 -0.0809961 4.31239e-23)
(1.03113 -0.0940947 -1.24537e-21)
(1.02171 -0.106558 -4.23582e-22)
(1.00288 -0.123315 1.41326e-22)
(0.972994 -0.130506 1.13428e-21)
(0.926873 -0.1327 -4.36574e-21)
(0.871168 -0.110012 2.05301e-21)
(0.822995 -0.0558417 -6.03919e-22)
(0.807168 0.0226136 1.5657e-21)
(0.832274 0.0946172 -5.91056e-21)
(0.881848 0.139203 -2.07137e-21)
(0.934468 0.155277 -3.57229e-21)
(0.977365 0.150405 -2.25054e-21)
(1.01011 0.138663 -5.87794e-24)
(1.02586 0.120165 -1.60646e-21)
(1.04211 0.101613 -1.29366e-22)
(1.04356 0.0837806 6.7722e-22)
(1.04248 0.0692793 -3.93318e-22)
(1.04037 0.057191 9.7922e-23)
(1.03785 0.047241 -5.19155e-23)
(1.03533 0.0388761 -1.62971e-22)
(1.03266 0.0315866 -1.38297e-24)
(1.02988 0.0251938 0)
(1.02746 0.0195979 0)
(1.02548 0.014642 0)
(1.02398 0.0101194 0)
(1.023 0.0059939 0)
(1.02253 0.00197509 0)
(1.02377 -0.00177448 0)
(1.0242 -0.00511132 0)
(1.02516 -0.00860934 0)
(1.02663 -0.0122597 0)
(1.02863 -0.0162129 0)
(1.03117 -0.0205495 0)
(1.03438 -0.0254603 -5.04818e-24)
(1.03867 -0.0312509 5.60785e-23)
(1.0435 -0.0381111 -2.38819e-23)
(1.04843 -0.0461936 4.25958e-23)
(1.05348 -0.0559577 -7.10664e-24)
(1.05865 -0.0683249 -3.33214e-23)
(1.06346 -0.0862392 1.20748e-23)
(1.05908 -0.105764 -8.39323e-23)
(1.0534 -0.127948 6.18718e-23)
(1.03264 -0.160573 -4.12666e-22)
(0.998948 -0.188739 7.92981e-23)
(0.936253 -0.220024 -8.62895e-22)
(0.831241 -0.222848 -1.35451e-22)
(0.706382 -0.146457 -2.93701e-21)
(0.65044 0.0181675 7.46476e-22)
(0.717422 0.175147 -6.90784e-22)
(0.83927 0.241777 8.53398e-22)
(0.937373 0.237909 3.73298e-22)
(1.00428 0.210008 -1.4105e-22)
(1.04524 0.17574 1.14552e-21)
(1.05768 0.141655 -8.72436e-22)
(1.0702 0.112544 1.09935e-22)
(1.06649 0.0896501 -6.60038e-22)
(1.06129 0.0722516 4.15804e-22)
(1.05582 0.0584101 5.86649e-23)
(1.05054 0.0472346 -6.65902e-23)
(1.04593 0.0382883 8.99015e-23)
(1.04191 0.0308753 -5.47471e-23)
(1.03794 0.0244711 0)
(1.03452 0.0189588 0)
(1.03179 0.0141377 0)
(1.02975 0.00982587 0)
(1.02837 0.00570284 0)
(1.02773 0.00195732 0)
(1.02825 -0.00159027 0)
(1.02877 -0.00494989 0)
(1.02992 -0.00836816 0)
(1.03169 -0.0119468 0)
(1.03413 -0.0157998 0)
(1.03727 -0.0199949 0)
(1.04145 -0.0247531 -1.82688e-23)
(1.04691 -0.0302918 2.84944e-23)
(1.05291 -0.0365485 -2.13969e-23)
(1.05968 -0.0437458 9.76289e-23)
(1.06779 -0.0528478 -1.92592e-22)
(1.07772 -0.06456 1.35809e-23)
(1.08916 -0.0795922 -4.37335e-23)
(1.09503 -0.104491 4.95091e-22)
(1.10215 -0.135726 1.94672e-22)
(1.10183 -0.183818 -3.4089e-22)
(1.0844 -0.250473 -1.58803e-22)
(1.03003 -0.356073 2.66924e-23)
(0.85988 -0.477366 -1.47296e-21)
(0.475776 -0.464552 -6.30048e-20)
(0.187347 0.0216859 1.41896e-20)
(0.503111 0.475356 -4.36395e-20)
(0.859667 0.472496 2.24513e-21)
(1.01924 0.358514 -1.02772e-22)
(1.0799 0.265613 5.05105e-23)
(1.1043 0.19688 7.43819e-23)
(1.10277 0.152938 -9.08805e-24)
(1.10424 0.110204 7.79588e-23)
(1.09372 0.0876413 -8.54213e-23)
(1.08309 0.0696082 2.55835e-23)
(1.07301 0.0550783 -1.1525e-22)
(1.06413 0.0436219 1.27241e-22)
(1.05675 0.0347524 -4.47452e-23)
(1.05093 0.0277521 1.31807e-23)
(1.04569 0.0218797 0)
(1.04116 0.0168334 0)
(1.03761 0.0124495 0)
(1.03502 0.00857751 0)
(1.03336 0.00508402 0)
(1.03254 0.00155382 0)
(1.03256 -0.00147601 0)
(1.03319 -0.00466368 0)
(1.03452 -0.00782206 0)
(1.03661 -0.0112291 0)
(1.03948 -0.0148198 0)
(1.04319 -0.0186946 0)
(1.04819 -0.022967 1.56085e-23)
(1.05437 -0.0276541 3.27835e-23)
(1.0612 -0.0325192 4.85784e-23)
(1.06954 -0.0377657 5.38407e-23)
(1.08031 -0.0441076 1.40557e-22)
(1.09474 -0.0520173 2.14696e-22)
(1.11432 -0.0622096 -5.3005e-22)
(1.12795 -0.0849231 -1.73167e-22)
(1.1579 -0.11174 -7.89569e-23)
(1.18653 -0.16228 -5.06914e-22)
(1.22564 -0.241652 -4.9965e-23)
(1.28365 -0.393842 1.68775e-21)
(0.996646 -0.544987 -1.07592e-19)
(1.02713 0.532721 4.58405e-20)
(1.23079 0.394814 -5.02e-23)
(1.19653 0.261893 -2.23718e-22)
(1.17676 0.181921 4.69212e-23)
(1.15519 0.14263 7.23018e-23)
(1.14074 0.0954266 7.20501e-23)
(1.12237 0.0760135 -5.0888e-23)
(1.10545 0.0594821 -4.05138e-23)
(1.0903 0.0462478 -2.29212e-24)
(1.07751 0.0360028 -8.91691e-26)
(1.0671 0.0282062 1.3671e-23)
(1.05911 0.0222677 2.15398e-23)
(1.05262 0.017529 0)
(1.04713 0.0135225 0)
(1.04287 0.0100688 0)
(1.03973 0.00695066 0)
(1.03767 0.00411904 0)
(1.03667 0.00144444 0)
(1.0366 -0.00163508 0)
(1.03737 -0.00432754 0)
(1.03893 -0.00725856 0)
(1.04126 -0.010204 0)
(1.04445 -0.013326 0)
(1.04858 -0.0166686 0)
(1.054 -0.0201968 -8.90476e-24)
(1.06027 -0.0235636 1.56221e-24)
(1.0672 -0.0264588 -1.38186e-25)
(1.0762 -0.0289898 6.02539e-23)
(1.08808 -0.0313309 -9.45075e-23)
(1.10428 -0.0333337 1.07613e-22)
(1.12727 -0.0345042 3.41143e-22)
(1.1514 -0.0480815 2.21686e-22)
(1.19544 -0.056986 4.19517e-21)
(1.24824 -0.0843108 -4.3712e-22)
(1.33242 -0.122165 -1.1071e-22)
(1.47071 -0.166423 2.83085e-21)
(0.0245383 -0.0135519 6.48654e-19)
(0.0267867 -0.0204004 -1.12025e-19)
(1.36732 0.249354 -2.09264e-22)
(1.28917 0.192083 -8.30741e-23)
(1.2395 0.136598 8.73676e-22)
(1.20216 0.106883 1.54874e-21)
(1.17287 0.0675231 2.86418e-23)
(1.14715 0.0537057 1.31119e-22)
(1.1248 0.0416277 -6.63845e-23)
(1.10539 0.0320262 -3.1589e-24)
(1.08911 0.0245251 -9.64963e-25)
(1.0758 0.0188016 3.5189e-24)
(1.06559 0.0146195 1.52329e-24)
(1.05784 0.0115219 0)
(1.05155 0.00896234 0)
(1.04675 0.00672946 0)
(1.04323 0.00469616 0)
(1.04084 0.00275133 0)
(1.03961 0.000905625 0)
(1.04038 -0.0010147 -6.04196e-25)
(1.04114 -0.00357931 0)
(1.04278 -0.00607693 0)
(1.04532 -0.00862527 0)
(1.0488 -0.0113166 0)
(1.05322 -0.0141135 0)
(1.05854 -0.0167815 -7.22928e-25)
(1.06412 -0.0187003 -3.74351e-23)
(1.07031 -0.0196329 3.26155e-23)
(1.07866 -0.0195116 -7.15062e-23)
(1.0901 -0.0179336 1.24727e-22)
(1.10545 -0.0141201 3.15301e-22)
(1.12687 -0.00497865 -4.06617e-22)
(1.15359 -0.00472858 1.00001e-22)
(1.19549 0.00696235 -4.84422e-22)
(1.25403 0.0127543 -7.59733e-22)
(1.34042 0.0230006 1.99952e-21)
(1.41646 0.0529578 -3.02138e-22)
(0.254603 0.0184229 -1.03739e-21)
(0.0303105 0.0218602 1.09774e-20)
(1.31427 0.117818 1.379e-22)
(1.33029 0.110124 -2.35606e-22)
(1.27747 0.076432 2.90346e-22)
(1.23428 0.0577687 -5.14793e-22)
(1.19347 0.0292379 2.02398e-22)
(1.16356 0.0233394 -1.0991e-22)
(1.13788 0.0178024 3.71959e-22)
(1.11586 0.0134825 -8.45688e-23)
(1.09726 0.00998393 -2.56362e-23)
(1.0818 0.00729551 1.48932e-23)
(1.06975 0.00548602 -1.38002e-23)
(1.06087 0.00441617 0)
(1.05412 0.00359413 0)
(1.04903 0.0027875 0)
(1.0454 0.00201204 0)
(1.04312 0.00120605 0)
(1.04206 0.000441979 0)
(1.04352 -0.000844573 -1.33016e-26)
(1.04442 -0.00282119 0)
(1.0462 -0.00478892 0)
(1.04892 -0.00692729 0)
(1.05257 -0.0090983 0)
(1.05707 -0.0113044 0)
(1.06162 -0.0131038 4.33096e-24)
(1.06598 -0.0139237 2.15678e-23)
(1.07089 -0.0135362 -1.09355e-23)
(1.07763 -0.0116313 2.61924e-22)
(1.08615 -0.0075317 -3.07967e-22)
(1.09597 -0.00015385 -7.15759e-22)
(1.10827 0.0128518 1.06841e-21)
(1.12933 0.0287963 -2.28489e-21)
(1.15731 0.0557772 -1.19577e-21)
(1.20241 0.0956335 -1.59465e-21)
(1.27408 0.151816 -1.31598e-21)
(1.34058 0.241124 3.86441e-23)
(0.605885 0.163202 -1.42751e-21)
(-0.00843362 0.0278124 -3.82168e-22)
(-0.245855 0.151561 1.56359e-22)
(-0.0614797 0.307032 -9.88881e-23)
(0.195978 0.143846 5.20637e-22)
(1.25601 0.0609654 -2.73016e-21)
(1.35672 0.0364217 2.2924e-21)
(1.29804 0.00907561 -6.30955e-22)
(1.24861 0.00145608 -1.50609e-21)
(1.20034 -0.0145219 5.50219e-22)
(1.1687 -0.0114271 -6.37071e-22)
(1.14202 -0.00948551 2.57639e-22)
(1.11932 -0.0075517 7.47325e-24)
(1.10006 -0.00629864 8.44577e-23)
(1.08394 -0.00535343 4.71117e-23)
(1.07095 -0.00433701 9.35845e-25)
(1.06141 -0.00305792 0)
(1.05464 -0.00202385 0)
(1.04963 -0.00136005 0)
(1.04608 -0.000913549 0)
(1.04382 -0.00062471 0)
(1.04252 -0.00035569 0)
(1.04629 -0.00107045 -3.1768e-23)
(1.04726 -0.00234396 0)
(1.04922 -0.00378976 0)
(1.05201 -0.00527099 0)
(1.05563 -0.00677053 0)
(1.05992 -0.00832714 0)
(1.06357 -0.00951682 -7.63302e-25)
(1.06649 -0.00987225 -4.1987e-23)
(1.06988 -0.00936237 -9.81301e-23)
(1.07377 -0.00759454 4.50835e-22)
(1.07802 -0.00463369 -6.48551e-22)
(1.08168 0.000388146 7.69757e-22)
(1.0843 0.0101127 -5.30964e-22)
(1.09419 0.0318015 -3.16518e-22)
(1.09437 0.0654977 -2.96102e-22)
(1.0908 0.13408 1.26724e-21)
(1.11436 0.229279 -2.91371e-21)
(1.09722 0.411986 5.9115e-21)
(0.669024 0.609547 -3.32806e-21)
(-0.113129 0.712367 -6.36427e-21)
(-0.334222 0.689198 1.50573e-21)
(0.131978 0.502344 7.93897e-21)
(0.640863 0.212109 -2.59631e-21)
(1.3707 -0.0207881 5.19266e-21)
(1.38302 -0.0596619 4.04683e-21)
(1.30184 -0.0730335 1.39728e-21)
(1.24488 -0.0603623 -3.69254e-22)
(1.19095 -0.0606463 1.5097e-21)
(1.1605 -0.0469122 -1.2684e-21)
(1.13555 -0.0368053 7.50471e-22)
(1.11437 -0.0284114 -5.6512e-22)
(1.09632 -0.0221582 2.03366e-22)
(1.08098 -0.0173562 -1.70573e-23)
(1.06815 -0.0133347 -8.63973e-25)
(1.05898 -0.00978431 0)
(1.0528 -0.00700802 0)
(1.04825 -0.00491575 0)
(1.04498 -0.00324599 0)
(1.04288 -0.00177317 0)
(1.04181 -0.000532062 3.40723e-23)
(1.04855 -0.000330191 -8.41185e-24)
(1.04938 -0.00135303 0)
(1.05111 -0.00229571 0)
(1.05383 -0.00318783 0)
(1.0575 -0.00408358 0)
(1.06169 -0.00507885 0)
(1.06485 -0.00605716 0)
(1.06656 -0.00668356 -9.35829e-24)
(1.06902 -0.00723641 -1.82701e-23)
(1.07222 -0.00833801 3.42303e-23)
(1.07442 -0.00939859 6.72481e-23)
(1.07417 -0.00994208 -2.73017e-22)
(1.06898 -0.00956671 -1.07727e-22)
(1.04907 -0.00695495 2.04728e-22)
(1.0332 0.029467 -1.72692e-22)
(0.986054 0.0705696 -8.11306e-22)
(0.931067 0.16609 3.95602e-22)
(0.795376 0.314164 1.07123e-20)
(0.332639 0.596852 8.58819e-21)
(-0.176597 0.731791 8.06897e-22)
(-0.020864 0.54643 -8.79094e-21)
(0.561991 0.221928 2.22065e-20)
(1.05576 -0.0724978 6.86775e-21)
(1.46218 -0.228547 1.81776e-20)
(1.34823 -0.206821 -1.41592e-21)
(1.27259 -0.16375 -1.70923e-21)
(1.19844 -0.133051 -9.51162e-22)
(1.16339 -0.102041 8.56356e-22)
(1.13833 -0.0776034 -5.02623e-22)
(1.1181 -0.0596982 7.89195e-23)
(1.10096 -0.045404 -8.36834e-23)
(1.08611 -0.034713 3.45464e-23)
(1.07293 -0.0264732 -5.21826e-24)
(1.06154 -0.0199723 0)
(1.05376 -0.0147488 0)
(1.04881 -0.0106814 0)
(1.04517 -0.00748575 0)
(1.04253 -0.00488502 0)
(1.0408 -0.0026789 0)
(1.03996 -0.000777893 -9.5983e-24)
(1.04886 0.000107159 5.72523e-25)
(1.05 -8.8557e-05 0)
(1.05185 -0.00030905 0)
(1.05463 -0.000651086 0)
(1.0584 -0.00102878 0)
(1.06273 -0.00153523 0)
(1.0661 -0.00242045 0)
(1.06801 -0.00388565 0)
(1.07088 -0.00622813 3.32931e-24)
(1.07472 -0.0100123 -5.01544e-24)
(1.0781 -0.0156518 -4.40119e-23)
(1.07898 -0.023949 1.35791e-22)
(1.07375 -0.0347148 2.85953e-23)
(1.05473 -0.0582375 -2.45156e-22)
(1.01421 -0.0490578 -2.71299e-22)
(0.937214 -0.0583617 2.74566e-22)
(0.820134 -0.0201026 2.03904e-21)
(0.484867 0.137386 1.97105e-21)
(0.0996316 0.271292 1.50552e-21)
(0.0314535 0.130452 -5.9362e-21)
(0.400191 -0.164743 2.85766e-21)
(0.915693 -0.405903 -4.00867e-21)
(1.30558 -0.509316 -8.15125e-21)
(1.36043 -0.439496 1.91708e-21)
(1.24959 -0.314946 6.39701e-22)
(1.20126 -0.239775 -2.40731e-21)
(1.13862 -0.173989 2.47189e-23)
(1.11894 -0.129576 -3.1635e-22)
(1.10427 -0.0978681 2.91909e-22)
(1.09197 -0.0740277 1.22061e-22)
(1.0812 -0.0553514 -5.03169e-23)
(1.07117 -0.0415536 -2.76645e-24)
(1.06141 -0.0310959 0)
(1.05254 -0.0232098 0)
(1.04679 -0.0171703 0)
(1.04337 -0.0125209 0)
(1.04089 -0.00881629 -3.25351e-23)
(1.03907 -0.005813 -4.4994e-23)
(1.03789 -0.00323604 -2.68303e-23)
(1.03741 -0.00103755 0)
(1.04835 0.000284733 0)
(1.04958 0.000986553 0)
(1.05164 0.00166439 0)
(1.05458 0.00212412 0)
(1.0585 0.00243244 0)
(1.06316 0.00254969 0)
(1.0674 0.00204925 0)
(1.07071 0.000212069 0)
(1.07537 -0.00323894 -2.11131e-26)
(1.08194 -0.00880287 1.29598e-23)
(1.0896 -0.0174101 -3.13642e-23)
(1.09775 -0.0315598 1.20739e-23)
(1.10322 -0.0517092 1.30262e-22)
(1.09981 -0.0871756 -1.14334e-22)
(1.05781 -0.122476 -3.21474e-21)
(0.996448 -0.191499 -4.26695e-22)
(0.735231 -0.208897 -2.98089e-21)
(0.34492 -0.147202 -1.58739e-21)
(0.313027 -0.299376 -2.64587e-21)
(0.435342 -0.571712 9.55036e-22)
(0.713748 -0.786953 1.16326e-21)
(0.984685 -0.832897 2.75695e-21)
(1.12525 -0.694027 1.39117e-21)
(1.13956 -0.490461 6.95127e-24)
(1.11395 -0.354484 7.54156e-22)
(1.09841 -0.268636 1.00229e-21)
(1.06548 -0.185208 -2.41869e-22)
(1.06467 -0.137265 2.40635e-22)
(1.06249 -0.103569 -2.42608e-22)
(1.06036 -0.0773238 -1.39373e-23)
(1.05745 -0.0571365 3.64325e-24)
(1.05338 -0.0422087 2.41741e-26)
(1.04804 -0.0309778 0)
(1.04264 -0.0227205 0)
(1.03927 -0.0168161 0)
(1.03748 -0.0123621 0)
(1.03618 -0.00876898 0)
(1.03521 -0.00586974 0)
(1.0346 -0.0033765 0)
(1.03438 -0.0011006 4.83218e-24)
(1.04713 0.000586862 0)
(1.04827 0.00198314 0)
(1.05034 0.00343579 0)
(1.05337 0.00483682 0)
(1.05748 0.00613029 0)
(1.06266 0.0072895 0)
(1.06827 0.00792764 0)
(1.07396 0.00703669 0)
(1.08157 0.0042079 0)
(1.09209 -0.000789359 0)
(1.10594 -0.00866172 7.1113e-24)
(1.12398 -0.0219226 7.30092e-23)
(1.14649 -0.0430327 -2.84704e-22)
(1.1695 -0.072217 4.42579e-22)
(1.16069 -0.135784 -1.21321e-20)
(1.12978 -0.232415 1.6012e-22)
(0.757591 -0.326579 -3.84145e-21)
(0.526377 -0.499633 1.77732e-21)
(0.567532 -0.648286 -1.84283e-21)
(0.655843 -0.736055 2.11346e-21)
(0.765398 -0.739938 2.95415e-21)
(0.854571 -0.663396 1.84888e-21)
(0.902348 -0.554263 1.82812e-21)
(0.94959 -0.457698 -2.11298e-21)
(0.976351 -0.339571 3.25018e-21)
(0.991762 -0.249212 -4.59448e-22)
(0.993123 -0.168509 -3.04222e-23)
(1.00902 -0.12286 1.32761e-23)
(1.02014 -0.092388 2.47828e-23)
(1.028 -0.0681933 -7.23052e-24)
(1.03273 -0.0498937 0)
(1.03462 -0.0361427 0)
(1.03426 -0.0257801 0)
(1.03294 -0.0185086 0)
(1.03226 -0.0137203 0)
(1.03206 -0.0102 0)
(1.03182 -0.00735187 0)
(1.03153 -0.00501664 0)
(1.03134 -0.00296327 0)
(1.03133 -0.000975097 0)
(1.04496 0.000982297 0)
(1.04591 0.00305509 0)
(1.04783 0.0052305 0)
(1.0508 0.00753129 0)
(1.05494 0.00996062 0)
(1.06044 0.0125527 0)
(1.06725 0.0151295 0)
(1.07529 0.0167593 0)
(1.08571 0.0169512 0)
(1.0996 0.0157371 0)
(1.11839 0.0132018 0)
(1.14388 0.00848689 1.65334e-24)
(1.17976 -0.00184327 1.81842e-23)
(1.22696 -0.00969268 8.79725e-24)
(1.26484 -0.0660914 -3.92134e-21)
(1.28997 -0.141721 1.69844e-21)
(1.02828 -0.301644 -2.38549e-21)
(0.788606 -0.5333 -1.2964e-21)
(0.689191 -0.696277 -1.52253e-21)
(0.659892 -0.75308 -7.03356e-22)
(0.666805 -0.717285 1.15632e-22)
(0.707987 -0.615425 1.58249e-21)
(0.774635 -0.495374 -5.13373e-22)
(0.841298 -0.388057 8.30168e-22)
(0.844101 -0.272832 -4.77959e-22)
(0.898818 -0.195355 -1.54026e-22)
(0.930887 -0.120723 4.91556e-22)
(0.961238 -0.0858139 -1.54327e-23)
(0.984791 -0.0633007 -2.48818e-24)
(1.00099 -0.0458901 0)
(1.01203 -0.0328363 0)
(1.01894 -0.0230177 0)
(1.02301 -0.0157573 0)
(1.02549 -0.0110605 0)
(1.02722 -0.00828583 0)
(1.02822 -0.00628913 0)
(1.02862 -0.00463612 0)
(1.02872 -0.00319978 0)
(1.0287 -0.00189557 0)
(1.02873 -0.000634234 0)
(1.04166 0.00131066 0)
(1.04246 0.00398819 0)
(1.04414 0.00684293 0)
(1.04679 0.00998659 0)
(1.05056 0.0135693 0)
(1.05572 0.0177121 0)
(1.0627 0.0224834 0)
(1.07179 0.0273655 0)
(1.08344 0.0320639 0)
(1.09836 0.0368443 0)
(1.11808 0.042577 7.70508e-23)
(1.14495 0.0503714 0)
(1.18179 0.0584819 0)
(1.23637 0.0751651 -1.05145e-21)
(1.32849 0.095625 -8.8241e-22)
(1.38826 0.055784 -6.20244e-21)
(1.29035 -0.0166121 -2.39433e-22)
(1.09565 -0.187736 5.83451e-22)
(0.898388 -0.366998 1.16254e-21)
(0.735455 -0.490142 3.12934e-20)
(0.59308 -0.531431 3.25568e-21)
(0.536371 -0.488989 4.42231e-22)
(0.564942 -0.387224 6.90278e-22)
(0.641621 -0.256941 -3.84675e-22)
(0.736314 -0.15119 -2.06023e-23)
(0.841224 -0.0725892 6.181e-21)
(0.892075 -0.043871 -6.10067e-22)
(0.93206 -0.0285134 0)
(0.964 -0.0189542 0)
(0.985798 -0.0129675 1.29772e-23)
(1.00056 -0.00856118 0)
(1.01049 -0.00530523 0)
(1.01732 -0.00305575 0)
(1.02216 -0.00202409 0)
(1.02522 -0.0017552 0)
(1.02669 -0.00157167 0)
(1.02729 -0.00129927 0)
(1.02746 -0.000952287 5.35471e-24)
(1.02747 -0.000576169 3.84153e-24)
(1.02746 -0.000166048 0)
(1.03762 0.00141518 0)
(1.03824 0.00455077 0)
(1.03949 0.00793944 0)
(1.04149 0.0118133 0)
(1.04436 0.016364 0)
(1.0484 0.0217903 0)
(1.05437 0.0283173 0)
(1.06276 0.0358574 0)
(1.07341 0.0446089 0)
(1.0863 0.0551145 0)
(1.10238 0.068818 -2.01506e-23)
(1.12366 0.0876395 0)
(1.15073 0.112961 0)
(1.19073 0.148762 -3.9795e-22)
(1.25598 0.207978 -1.15882e-21)
(1.33531 0.298136 3.94572e-22)
(1.32882 0.379263 0)
(1.22142 0.415124 -1.98489e-21)
(1.04904 0.396477 1.89213e-20)
(0.852021 0.368924 5.08725e-20)
(0.666281 0.292405 5.56797e-21)
(0.560972 0.209063 -6.42021e-21)
(0.541633 0.11974 1.27424e-22)
(0.580906 0.0519745 0)
(0.682848 0.0240156 -4.70183e-21)
(0.79288 0.0487908 -1.04721e-20)
(0.874256 0.0496501 -1.77601e-21)
(0.927741 0.0425936 0)
(0.964387 0.0327843 0)
(0.986861 0.0234131 1.56084e-22)
(1.00142 0.0170093 0)
(1.01124 0.0126133 0)
(1.01827 0.00930116 0)
(1.02343 0.00655702 0)
(1.02641 0.00432323 0)
(1.02747 0.00270135 -9.6874e-24)
(1.0277 0.00161037 1.25886e-23)
(1.02768 0.000911236 0)
(1.0276 0.000434045 0)
(1.02755 0.000127113 2.95828e-23)
(1.03333 0.00151561 0)
(1.03353 0.00484498 0)
(1.03413 0.00849687 0)
(1.03522 0.0127173 0)
(1.03688 0.0176857 0)
(1.03936 0.0236809 0)
(1.04354 0.0310344 4.76338e-24)
(1.0499 0.0399172 0)
(1.0576 0.0509912 0)
(1.06597 0.0650325 0)
(1.07525 0.0837184 0)
(1.08634 0.108641 0)
(1.09885 0.14302 0)
(1.11552 0.188099 -2.93999e-22)
(1.13569 0.253012 -8.00633e-24)
(1.16876 0.348783 -2.0542e-23)
(1.17643 0.465243 0)
(1.12538 0.560454 0)
(1.02201 0.608781 6.76941e-22)
(0.893059 0.620342 -2.76692e-20)
(0.770017 0.58034 2.06217e-20)
(0.714721 0.50829 -3.09147e-21)
(0.707583 0.413082 0)
(0.718802 0.311266 0)
(0.737368 0.216107 0)
(0.79895 0.186083 6.78964e-23)
(0.887462 0.152496 9.23414e-21)
(0.958789 0.112574 1.93297e-22)
(0.991681 0.0797741 0)
(1.00656 0.0544102 0)
(1.01534 0.0378375 0)
(1.02099 0.0265056 0)
(1.02531 0.0184974 -4.25114e-23)
(1.02875 0.0127208 -1.74212e-23)
(1.03035 0.00851727 -8.77658e-25)
(1.03024 0.00553222 0)
(1.02958 0.00344647 0)
(1.02896 0.00199231 0)
(1.0285 0.00095996 0)
(1.02818 0.000220817 0)
(1.02885 0.00171164 0)
(1.02863 0.00487262 0)
(1.02862 0.00835884 0)
(1.02886 0.0122826 0)
(1.02929 0.0169023 0)
(1.03011 0.0225229 0)
(1.03215 0.0295986 0)
(1.03572 0.0385018 0)
(1.03941 0.0500315 -1.99055e-24)
(1.0421 0.0649681 0)
(1.04371 0.0847702 0)
(1.04394 0.110663 0)
(1.04199 0.144843 -3.81534e-22)
(1.03938 0.188801 -2.0124e-21)
(1.03325 0.242411 0)
(1.02762 0.310539 0)
(1.02116 0.399176 0)
(0.995938 0.487613 0)
(0.939466 0.557993 -1.08773e-20)
(0.871438 0.599696 -2.29686e-20)
(0.810813 0.601741 1.05549e-21)
(0.799016 0.567068 -2.33846e-21)
(0.807607 0.519423 0)
(0.836256 0.455053 0)
(0.840011 0.368838 0)
(0.876673 0.291686 0)
(0.96343 0.215656 -1.847e-21)
(1.02755 0.150584 -7.33291e-22)
(1.04326 0.104016 0)
(1.04226 0.0700649 1.2183e-24)
(1.03963 0.0480133 6.13592e-24)
(1.03748 0.0327549 1.56076e-25)
(1.03671 0.0221996 0)
(1.03683 0.0148387 0)
(1.03603 0.00975652 0)
(1.03419 0.00628854 0)
(1.03233 0.00391427 0)
(1.03088 0.00228294 0)
(1.02982 0.00115125 0)
(1.02907 0.000322713 0)
(1.0244 0.00147711 0)
(1.02417 0.00414996 0)
(1.02386 0.00696079 0)
(1.02346 0.0100213 0)
(1.02282 0.0136389 0)
(1.02203 0.0180648 0)
(1.02177 0.023841 0)
(1.02217 0.0315931 0)
(1.02162 0.0420192 0)
(1.01876 0.0557217 0)
(1.01318 0.0737523 2.49711e-23)
(1.00419 0.0975834 -9.76367e-23)
(0.991157 0.12779 -2.41564e-22)
(0.978625 0.166831 2.75826e-21)
(0.963274 0.214789 0)
(0.937412 0.269717 0)
(0.911378 0.340608 0)
(0.883029 0.421402 0)
(0.846547 0.494698 2.21691e-21)
(0.817864 0.558913 8.35305e-22)
(0.804679 0.575757 6.18902e-21)
(0.821619 0.56122 -2.79745e-20)
(0.848441 0.530021 0)
(0.904743 0.478563 0)
(0.949097 0.40097 0)
(1.00455 0.305642 0)
(1.08026 0.207168 8.88879e-23)
(1.11529 0.137515 2.19015e-21)