/*--------------------------------*- C++ -*----------------------------------*\
| =========                 |                                                 |
| \\      /  F ield         | OpenFOAM: The Open Source CFD Toolbox           |
|  \\    /   O peration     | Version:  v2106                                 |
|   \\  /    A nd           | Website:  www.openfoam.com                      |
|    \\/     M anipulation  |                                                 |
\*---------------------------------------------------------------------------*/
FoamFile
{
    version     2.0;
    format      ascii;
    arch        "LSB;label=32;scalar=64";
    class       volScalarField;
    location    "0";
    object      p;
}
// * * * * * * * * * * * * * * * * * * * * * * * * * * * * * * * * * * * * * //

dimensions      [0 2 -2 0 0 0 0];

internalField   nonuniform List<scalar> 
11644
(
0.0487695
0.0474734
0.0449017
0.0411822
0.036063
0.0294621
0.0214977
0.0122958
0.00207445
-0.00868412
-0.0194641
-0.0295854
-0.0383896
-0.0445941
-0.0485006
-0.0500775
-0.049785
-0.0491242
-0.0554095
-0.0582563
-0.0585899
-0.066859
-0.0812583
-0.0881194
-0.0939685
-0.0987389
-0.100112
-0.0987145
-0.0951218
-0.0894467
-0.0825096
-0.0748712
-0.0671598
-0.0598411
-0.0532571
-0.0476418
-0.0431741
-0.0397854
-0.0373688
-0.0360705
0.0530985
0.0519496
0.0493606
0.0453185
0.0399138
0.0333159
0.0253209
0.0160051
0.00572615
-0.0051242
-0.0163256
-0.0270698
-0.0363752
-0.0454079
-0.0515461
-0.0548344
-0.0574121
-0.0577591
-0.0626673
-0.0618818
-0.0709028
-0.0754114
-0.0864739
-0.0943343
-0.100009
-0.102443
-0.1028
-0.0997053
-0.093754
-0.0866131
-0.0789572
-0.0710862
-0.0633914
-0.056238
-0.049743
-0.044041
-0.0392444
-0.0354447
-0.0329214
-0.0318556
0.0555481
0.0550128
0.0533206
0.0500752
0.0454514
0.0395922
0.0325707
0.0243956
0.0151282
0.00471323
-0.00634774
-0.0180568
-0.0303468
-0.0413411
-0.0512373
-0.0581019
-0.062833
-0.0679011
-0.0727019
-0.0715951
-0.0792156
-0.0793439
-0.0867788
-0.0941494
-0.100658
-0.102341
-0.0992257
-0.0944352
-0.0878419
-0.0798958
-0.0715835
-0.0636307
-0.0561531
-0.0493566
-0.0433078
-0.03817
-0.0339759
-0.0309399
-0.0292959
-0.0289447
0.0576008
0.0572676
0.056046
0.053987
0.0509514
0.046756
0.041475
0.0350952
0.0274998
0.0185801
0.00749383
-0.00637243
-0.0207947
-0.0376928
-0.0530702
-0.0640375
-0.0718963
-0.0811052
-0.0874902
-0.08819
-0.0907721
-0.0898791
-0.0925595
-0.0941433
-0.0967502
-0.0959246
-0.091737
-0.0840849
-0.076264
-0.0686326
-0.0606674
-0.052925
-0.0460927
-0.0401918
-0.0352867
-0.0313927
-0.0285538
-0.0267436
-0.0257491
-0.0252622
0.0603468
0.0597235
0.0587483
0.057617
0.0560464
0.0536851
0.0502967
0.045734
0.039692
0.0316115
0.0208026
0.00756561
-0.00921903
-0.0260691
-0.0456885
-0.0626328
-0.0703316
-0.0924777
-0.109383
-0.115441
-0.115147
-0.111623
-0.103781
-0.0919869
-0.0898894
-0.0837707
-0.075075
-0.067764
-0.0594285
-0.0521276
-0.046128
-0.0401441
-0.0347994
-0.0305346
-0.0272149
-0.0247428
-0.0230142
-0.0217217
-0.0207896
-0.0203512
0.0637621
0.0630515
0.0620615
0.0608295
0.0596722
0.0583678
0.0565993
0.0538761
0.0494373
0.0431094
0.0351044
0.0240175
0.0104303
-0.0145007
-0.0450369
-0.0745744
-0.0922402
-0.126819
-0.149232
-0.155221
-0.150604
-0.13761
-0.118777
-0.0914327
-0.0711896
-0.0624937
-0.054239
-0.0437954
-0.0395898
-0.0343495
-0.0298337
-0.0265548
-0.0237291
-0.0212058
-0.0193435
-0.0180792
-0.0172703
-0.0167717
-0.0161815
-0.0158067
0.0643474
0.0644085
0.0637393
0.0630093
0.0619451
0.0607593
0.0595865
0.0581649
0.0557531
0.0520338
0.0450087
0.0332129
0.014922
0.0031311
-0.0253147
-0.0777399
-0.133874
-0.134806
-0.141162
-0.152767
-0.157322
-0.13146
-0.103545
-0.0779327
-0.0339257
-0.0154434
-0.00968408
-0.0155107
-0.0185764
-0.0179477
-0.0163233
-0.0148102
-0.0143956
-0.0139195
-0.0135968
-0.0134391
-0.013123
-0.0126735
-0.0121165
-0.0114417
0.0650745
0.0636018
0.0626086
0.0614103
0.0601832
0.0589646
0.0578701
0.0566814
0.0551963
0.0513263
0.0413584
0.0260866
0.0144647
-0.00939432
-0.0437161
-0.0616327
-0.114171
-0.149427
-0.161631
-0.161652
-0.145283
-0.113815
-0.0813562
-0.0586145
-0.0354128
0.0106293
-0.000944002
0.00916308
-0.00288634
-0.00691996
-0.00981242
-0.0100337
-0.0105103
-0.0112372
-0.0113184
-0.0112525
-0.0110435
-0.0106054
-0.0105168
-0.0109203
0.0616787
0.0617852
0.060435
0.0581497
0.0558501
0.053396
0.0508684
0.0476218
0.0433534
0.034976
0.0220558
0.00383899
-0.0196175
-0.052102
-0.0794983
-0.121755
-0.133081
-0.175181
-0.222939
-0.220212
-0.200332
-0.145218
-0.0885792
-0.072923
-0.00992558
-0.0218057
-0.0132768
-0.000425799
-0.00186334
-0.00495723
-0.0107713
-0.0134537
-0.0134692
-0.0137828
-0.0132839
-0.012667
-0.0124484
-0.0124676
-0.0119197
-0.0110568
0.0598101
0.0579882
0.0555939
0.053114
0.0497416
0.0454358
0.0396563
0.0320458
0.0224876
0.00724397
-0.0126362
-0.0324652
-0.0523386
-0.0682756
-0.0882252
-0.151078
-0.190906
-0.239485
-0.283987
-0.300612
-0.245256
-0.148142
-0.0730738
-0.0371514
-0.0262498
-0.0207758
-0.0271503
-0.023089
-0.0230312
-0.0227641
-0.0233604
-0.0227915
-0.0208822
-0.0199232
-0.0182506
-0.0164133
-0.0148404
-0.0137472
-0.012877
-0.0125267
0.0615773
0.0585956
0.0547308
0.0499082
0.0441175
0.0374593
0.0289223
0.017594
0.00323339
-0.0139316
-0.0337479
-0.0567753
-0.0680305
-0.0554186
-0.097599
-0.109619
-0.164
-0.234747
-0.344208
-0.4548
-0.329143
-0.046534
0.026569
0.00303608
-0.017611
-0.0402412
-0.0604503
-0.053273
-0.0587334
-0.0496175
-0.0393087
-0.0328184
-0.0282973
-0.0244601
-0.0209368
-0.0184967
-0.017382
-0.0166884
-0.0163617
-0.015709
0.0600295
0.0593438
0.0569255
0.0524186
0.0459811
0.0377653
0.0283362
0.0165879
0.00236862
-0.0113693
-0.0226647
-0.0429565
-0.0545065
-0.050153
-0.0707465
-0.071521
-0.0874925
-0.114243
-0.146398
0.140186
-0.0200102
-0.0825322
-0.110798
-0.114935
-0.0940576
-0.0809336
-0.0586526
-0.0431921
-0.0339551
-0.0275165
-0.0226412
-0.019588
-0.0182423
-0.0182517
-0.0180116
-0.0174959
-0.015583
0.0673354
0.0631453
0.0596644
0.0571826
0.0535615
0.0484634
0.0430031
0.0368453
0.0313125
0.0274004
0.0309285
0.0292279
0.0327512
0.045852
0.0618445
0.0714472
0.0759795
0.0719269
0.0384608
-0.341264
-0.203165
-0.138048
-0.114108
-0.0990565
-0.0839946
-0.0566261
-0.0338448
-0.0231978
-0.0154473
-0.0109308
-0.00936902
-0.00919334
-0.00974737
-0.0105181
-0.0116401
-0.0141537
-0.0206581
0.0714838
0.0754705
0.0758294
0.0747035
0.0746968
0.0746807
0.0760116
0.0807276
0.0852118
0.0977754
0.123986
0.157926
0.169648
0.206696
0.231634
0.260052
0.285472
0.28077
0.186763
-0.503884
-0.314593
-0.146397
-0.0220828
-0.0266486
0.015372
0.0233884
0.0313772
0.0249725
0.0276412
0.020719
0.014545
0.00926003
0.00373975
-0.000713869
-0.00486835
-0.00830302
-0.00956078
0.0773071
0.0888508
0.0970781
0.102502
0.109005
0.114521
0.123022
0.133098
0.152056
0.163381
0.212205
0.283493
0.311581
0.299822
0.315117
0.370195
0.490786
0.69886
0.690019
0.462949
-0.088723
-0.90061
-0.609302
-0.212687
-0.032771
0.0597227
0.112393
0.134214
0.125255
0.126337
0.114625
0.0793846
0.0563661
0.0415059
0.0299027
0.0188948
0.0132151
0.00928194
0.0101953
0.0135261
0.11077
0.108143
0.114393
0.12526
0.139009
0.151338
0.162883
0.171397
0.192514
0.220622
0.258466
0.295352
0.383457
0.387546
0.371572
0.462272
0.466057
0.799492
1.53138
0.459123
0.130913
-0.533863
-0.640408
0.129762
0.249036
0.198889
0.210311
0.151333
0.228068
0.202165
0.167156
0.128396
0.0924388
0.0644661
0.0478279
0.0358448
0.0313118
0.0284794
0.026494
0.0172845
0.151108
0.142511
0.146155
0.154848
0.166923
0.180254
0.193016
0.205399
0.227301
0.25211
0.253903
0.253913
0.26036
0.43876
0.425478
0.440038
0.246235
0.0278244
0.180928
2.05604
0.0895108
-1.74542
0.664284
0.748464
0.40205
0.309434
0.183179
0.318879
0.291312
0.224273
0.168239
0.130874
0.103804
0.0717357
0.0521737
0.0434563
0.0364669
0.0295753
0.0250452
0.0213691
0.175666
0.178197
0.183548
0.188169
0.194283
0.201164
0.208514
0.229107
0.256368
0.274081
0.271759
0.305628
0.273821
0.301994
0.363748
0.409827
0.396697
-0.655473
-1.92981
-1.46491
-0.432179
0.945726
1.48434
0.42423
0.313208
0.210655
0.289094
0.31017
0.191211
0.152772
0.113806
0.0999771
0.0947482
0.0760739
0.055501
0.0406263
0.0304762
0.02393
0.02239
0.0264296
0.193229
0.19769
0.199398
0.199356
0.20018
0.200537
0.201668
0.210268
0.224591
0.246958
0.271847
0.286582
0.305695
0.3296
0.279633
0.128909
-0.0732174
0.267408
-0.975862
-2.05587
-0.992458
0.161005
-0.927448
-0.906701
0.205547
0.319852
0.192052
0.191744
0.149634
0.124323
0.125174
0.117955
0.103661
0.0849605
0.0626284
0.0477778
0.0367391
0.0300673
0.0271031
0.0258202
0.198524
0.199431
0.200299
0.201461
0.200542
0.203032
0.20234
0.197035
0.190674
0.192853
0.206497
0.240987
0.142437
0.0397784
0.0580413
-0.0915326
-1.02546
-1.85941
-1.05249
-1.10136
-1.40101
-1.59718
-0.624543
1.4443
0.468896
0.197712
0.353236
0.252653
0.149659
0.170273
0.161052
0.135082
0.103166
0.080938
0.0624573
0.0522493
0.0421043
0.0365153
0.032191
0.0277533
0.196196
0.195356
0.196843
0.200706
0.203982
0.206666
0.209856
0.208377
0.199644
0.188669
0.178984
0.223319
0.173474
0.155492
-0.0761865
-0.224171
-0.332877
-1.28272
-2.59188
-2.56434
-1.01348
0.898491
1.29463
0.0141358
-0.258424
0.179615
0.0154225
0.0826207
0.0681183
0.169686
0.134082
0.101901
0.0758159
0.0605468
0.0518468
0.0446132
0.0382084
0.0338336
0.0293524
0.0258992
0.20405
0.204384
0.203687
0.201117
0.19924
0.198444
0.199252
0.201046
0.190388
0.174472
0.152936
0.0942249
-0.015145
-0.0839031
0.0557429
-0.501941
-1.04356
-0.565666
-0.725626
-1.26704
-1.17704
-1.6431
-1.12094
-0.0900235
0.446066
-0.22706
0.147836
0.15504
0.108126
0.0862632
0.0717779
0.0567926
0.0460364
0.0418004
0.03622
0.029592
0.0220873
0.015361
0.0116474
0.0102305
0.20491
0.204469
0.204208
0.20282
0.199228
0.195522
0.183422
0.171064
0.158234
0.151166
0.147826
0.0283843
-0.0739402
-0.364418
-1.15367
-0.922865
-1.25339
-1.41923
-3.20391
-2.53199
0.402056
0.589605
1.25731
0.844194
0.574121
0.964865
0.3033
0.116823
0.0887405
0.0185732
0.0279735
0.0283529
0.0219583
0.014841
0.00861885
0.00208113
-0.00243886
-0.00487923
-0.00648443
-0.00674668
0.199405
0.193226
0.191295
0.189838
0.187981
0.184624
0.174174
0.1548
0.131001
0.105194
0.0617512
0.0270587
-0.0505578
-0.137904
-0.664181
-1.74432
-3.36918
-3.95575
-2.81367
-0.869663
0.131881
1.95706
3.11743
2.18015
0.751775
0.0445563
-0.0733915
0.0308771
0.0339514
0.0252393
0.0116859
-0.000132975
-0.00310913
-0.0120834
-0.014408
-0.0152235
-0.0156862
-0.0159014
-0.0162477
-0.0212796
0.206424
0.206843
0.200613
0.193106
0.186093
0.17645
0.16779
0.159114
0.130422
0.0984728
0.0172034
-0.0626311
-0.130514
-0.336456
-0.142292
-0.156218
-1.14891
-2.18925
-2.24705
-1.30622
0.948418
1.30149
1.01882
0.20444
-0.264735
-0.0372972
0.186739
0.0842036
0.0604697
0.0212919
-0.0227197
-0.0379361
-0.0352008
-0.0343078
-0.0338241
-0.0357955
-0.0378081
-0.041912
-0.0464724
-0.0443228
0.210676
0.210568
0.210544
0.206016
0.198297
0.185648
0.16912
0.153938
0.135062
0.118914
0.103346
-0.0120682
-0.0332085
-0.536268
-1.00982
-0.851025
-0.379051
-0.656371
-0.700158
-0.324302
0.35834
0.487065
0.601163
0.253208
0.696839
0.7606
0.352236
-0.0172752
-0.0369864
-0.0881332
-0.0782379
-0.0690701
-0.0624537
-0.0620187
-0.0640155
-0.0660584
-0.0654665
-0.0640089
-0.0602082
-0.0611843
0.211155
0.211676
0.207863
0.203937
0.199946
0.192323
0.18026
0.17105
0.142387
0.110683
0.0703568
0.0344589
0.0548094
0.198671
-0.103321
-1.22453
-1.82057
-1.61374
-0.728135
0.0956055
0.88551
1.62967
1.42773
1.64406
0.924173
0.0687757
-0.210118
-0.127368
-0.10317
-0.0948098
-0.106904
-0.0970453
-0.0989514
-0.0978827
-0.0905414
-0.0849565
-0.0796861
-0.0778324
-0.0787018
-0.0762132
0.220149
0.21762
0.21781
0.217175
0.212805
0.205343
0.194434
0.179813
0.160598
0.135856
0.100064
0.0465482
-0.0541682
-0.210408
0.337905
0.846599
0.431417
0.132531
-0.216061
0.212091
0.809289
0.798698
0.405548
-0.170377
-0.641616
-0.336836
0.0350325
-0.00272102
-0.104982
-0.152637
-0.152767
-0.144648
-0.136798
-0.128307
-0.119621
-0.116519
-0.109094
-0.101572
-0.0961346
-0.0986799
0.237639
0.240682
0.235851
0.229189
0.223073
0.217405
0.206304
0.193095
0.179326
0.177566
0.170992
0.162603
0.199789
-0.00584237
-0.371475
-0.243706
0.164617
0.597844
1.3027
1.85758
-0.299345
-0.118938
0.143343
0.147474
0.26631
0.252552
-0.0388705
-0.269554
-0.25742
-0.210451
-0.191307
-0.171427
-0.160998
-0.149809
-0.142998
-0.13399
-0.129666
-0.129092
-0.129754
-0.12335
0.239241
0.240375
0.241767
0.242129
0.241938
0.24124
0.24003
0.239365
0.232858
0.234466
0.242717
0.166194
0.265779
0.491469
0.528859
0.364721
0.14147
0.355852
-0.126608
0.301943
0.875372
0.918021
0.615179
0.479822
-0.0445931
-0.380416
-0.501302
-0.313284
-0.215898
-0.242065
-0.22205
-0.211493
-0.198181
-0.177842
-0.163532
-0.152591
-0.14486
-0.138678
-0.133795
-0.130722
0.252087
0.244883
0.246422
0.250196
0.254678
0.258134
0.261812
0.270373
0.286127
0.307948
0.325547
0.337583
0.359551
0.415496
0.812376
1.24274
1.26529
1.23795
0.983881
0.859456
0.0174709
-0.158134
-0.440418
-0.825912
-1.00054
-0.668501
-0.237554
-0.248986
-0.29539
-0.28227
-0.266245
-0.235573
-0.206876
-0.184486
-0.16962
-0.157426
-0.147419
-0.139574
-0.134242
-0.139975
0.275087
0.27865
0.275187
0.272532
0.273361
0.278542
0.287345
0.29785
0.316354
0.344887
0.389537
0.504076
0.655741
0.670528
0.553362
0.763197
1.19142
1.50729
1.53043
1.60299
-0.994764
-0.97062
-0.939359
-0.624272
-0.164974
-0.0662533
-0.303997
-0.460791
-0.365243
-0.293946
-0.253786
-0.229404
-0.208104
-0.190601
-0.175326
-0.165314
-0.160875
-0.16078
-0.161633
-0.156777
0.276502
0.275938
0.282544
0.292188
0.300095
0.308026
0.317967
0.331693
0.350281
0.36258
0.399484
0.458827
0.627664
0.953855
1.24179
1.30166
1.28354
1.27622
0.858849
0.666082
0.098508
-0.163863
-0.572273
-0.592516
-0.713642
-0.79352
-0.58159
-0.318439
-0.234226
-0.245776
-0.230714
-0.222775
-0.212808
-0.201002
-0.188974
-0.180224
-0.171707
-0.162777
-0.155454
-0.152362
0.281734
0.283537
0.284189
0.287306
0.293911
0.303628
0.314285
0.331093
0.362202
0.397891
0.475532
0.554105
0.614701
0.721839
0.972633
1.25984
1.36408
1.30245
1.25782
0.984178
-0.31603
-0.697987
-0.755063
-0.765306
-0.633831
-0.369643
-0.179053
-0.211681
-0.279496
-0.261044
-0.236302
-0.211544
-0.187768
-0.180156
-0.171468
-0.164302
-0.158103
-0.156858
-0.15572
-0.155739
0.286315
0.288936
0.291788
0.295812
0.302566
0.314235
0.328686
0.349013
0.37012
0.407307
0.430934
0.56679
0.724436
0.797479
0.77752
0.887661
0.991381
1.01908
0.886779
0.707631
-0.117499
-0.257692
-0.350762
-0.236754
-0.282487
-0.201014
-0.418082
-0.422393
-0.304329
-0.213972
-0.204605
-0.18705
-0.180817
-0.175346
-0.168494
-0.163787
-0.160734
-0.158229
-0.157253
-0.152479
0.283895
0.282356
0.287763
0.298022
0.31128
0.325531
0.339046
0.35901
0.380449
0.404412
0.427694
0.469431
0.608718
0.902769
1.15207
1.14343
1.03299
0.872694
0.690606
0.615081
-0.346107
-0.399306
-0.41873
-0.582008
-0.699538
-0.67948
-0.443502
-0.214091
-0.16162
-0.178964
-0.176768
-0.172509
-0.173557
-0.171238
-0.166084
-0.160985
-0.154277
-0.147243
-0.142899
-0.145532
0.290679
0.292672
0.293315
0.294246
0.298918
0.311971
0.325155
0.343975
0.374708
0.420518
0.462152
0.519771
0.473415
0.450445
0.508826
0.68994
0.829194
0.774483
0.750857
0.548953
-0.562553
-0.686397
-0.72842
-0.580184
-0.389831
-0.156153
-0.0908814
-0.161186
-0.21845
-0.179955
-0.157756
-0.14711
-0.141418
-0.142958
-0.143038
-0.142704
-0.144478
-0.148179
-0.151181
-0.148207
0.28435
0.288767
0.293457
0.299411
0.305699
0.319287
0.332252
0.347243
0.36125
0.38315
0.394103
0.484782
0.599515
0.669489
0.568012
0.462985
0.326807
0.189707
0.133036
-0.0631275
-0.205092
-0.159383
-0.186894
-0.118503
-0.167368
-0.241116
-0.278178
-0.224033
-0.161492
-0.110173
-0.128394
-0.138998
-0.148712
-0.150536
-0.149924
-0.147259
-0.146767
-0.144241
-0.140591
-0.138203
0.272921
0.272049
0.276133
0.28203
0.289454
0.300152
0.314168
0.337637
0.361704
0.373594
0.394565
0.378885
0.449616
0.627449
0.752786
0.763931
0.583215
0.336136
0.40525
0.702589
-0.735353
-0.256205
-0.187936
-0.201351
-0.327736
-0.284076
-0.23419
-0.11458
-0.103574
-0.133522
-0.129079
-0.142263
-0.140312
-0.135353
-0.133355
-0.132117
-0.130308
-0.130155
-0.12943
-0.132245
0.269538
0.271021
0.270028
0.269528
0.272027
0.279531
0.288911
0.310343
0.328465
0.360573
0.412307
0.473352
0.471557
0.422724
0.469659
0.630835
0.699887
0.692482
0.763801
0.577233
-0.0734097
-0.191116
-0.240743
-0.180284
-0.102739
-0.000127185
-0.0745602
-0.145847
-0.183791
-0.156842
-0.129255
-0.129527
-0.127684
-0.125765
-0.125205
-0.125365
-0.127748
-0.130524
-0.133626
-0.132444
0.256764
0.25759
0.262163
0.268688
0.275231
0.282121
0.288194
0.300188
0.307756
0.328712
0.336488
0.402749
0.563566
0.724735
0.750006
0.708966
0.682251
0.663195
0.656716
0.587415
0.255373
0.0543697
0.0121543
-0.038645
-0.122324
-0.217142
-0.283259
-0.242067
-0.174886
-0.135786
-0.136637
-0.144205
-0.143801
-0.138524
-0.138291
-0.136037
-0.132974
-0.128122
-0.124813
-0.126472
0.249581
0.249298
0.250003
0.24904
0.250658
0.25442
0.258342
0.266569
0.277131
0.308377
0.334972
0.330759
0.352461
0.450282
0.585099
0.692933
0.736174
0.657252
1.01123
1.20455
-0.204007
-0.111336
0.0339493
-0.0747508
-0.138531
-0.141536
-0.102281
-0.0848662
-0.116773
-0.156169
-0.161323
-0.140469
-0.129568
-0.122576
-0.12162
-0.121275
-0.123994
-0.124562
-0.124574
-0.124729
0.235634
0.238394
0.238333
0.237669
0.238432
0.241252
0.247554
0.254359
0.251169
0.27234
0.313625
0.370701
0.413841
0.401886
0.406711
0.477984
0.450877
0.501771
0.502067
0.446915
0.282728
0.109766
0.0359167
-0.00991863
-0.0452741
-0.0599585
-0.111506
-0.191303
-0.204804
-0.168529
-0.1392
-0.122084
-0.12144
-0.119796
-0.12006
-0.117465
-0.117798
-0.119143
-0.119874
-0.116376
0.217529
0.213115
0.215903
0.220482
0.22485
0.227801
0.232749
0.237986
0.241296
0.243697
0.254471
0.295998
0.406829
0.508882
0.557111
0.553914
0.513411
0.455364
0.347721
0.272853
-0.00620127
0.0128174
-0.0639097
-0.181203
-0.278887
-0.326603
-0.342447
-0.252005
-0.138876
-0.116923
-0.116446
-0.11667
-0.115372
-0.112986
-0.111073
-0.109207
-0.105545
-0.102593
-0.0995324
-0.102925
0.209296
0.209501
0.205835
0.201191
0.198307
0.19707
0.199639
0.203814
0.206319
0.210866
0.231781
0.236656
0.211213
0.265091
0.394234
0.49483
0.590216
0.587764
0.595214
0.601064
-0.346568
-0.311209
-0.218319
-0.275116
-0.203136
-0.117631
-0.0155465
-0.000769805
-0.0788603
-0.101866
-0.0955411
-0.0860279
-0.0836457
-0.0840514
-0.0852419
-0.0891613
-0.0917208
-0.096744
-0.10039
-0.101568
0.192317
0.194185
0.194936
0.195541
0.1948
0.192305
0.193512
0.191706
0.180819
0.18568
0.187669
0.222548
0.268827
0.266515
0.253107
0.283577
0.345957
0.371789
0.452012
0.284388
0.186562
0.0848861
0.154402
0.167374
0.100322
0.0581177
-0.00711885
-0.0891947
-0.0778411
-0.0438922
-0.0532876
-0.0581974
-0.0749151
-0.0847631
-0.0891397
-0.0918473
-0.0939153
-0.0946186
-0.0951651
-0.0929571
0.175949
0.175109
0.175703
0.174638
0.17281
0.169128
0.165588
0.162511
0.158719
0.148577
0.142717
0.131114
0.157482
0.190766
0.210533
0.229829
0.218391
0.241275
0.266007
0.304989
0.379337
0.311706
0.356758
0.304181
0.226967
0.150828
0.105017
0.0891478
0.0737252
0.0117211
-0.0149623
-0.0438762
-0.0608436
-0.0667239
-0.0721411
-0.0765969
-0.0804731
-0.0803922
-0.0796744
-0.0826213
0.167379
0.167273
0.163181
0.157069
0.151134
0.147076
0.142011
0.138798
0.130743
0.131397
0.133613
0.120011
0.0748393
0.0693889
0.10966
0.157702
0.245384
0.272456
0.369394
0.414761
0.312602
0.324803
0.278501
0.30679
0.319422
0.293043
0.260328
0.170375
0.0520675
6.10908e-05
-0.010313
-0.0234852
-0.0368706
-0.048303
-0.0561075
-0.0619864
-0.0671248
-0.0747646
-0.0801926
-0.0779699
0.152536
0.149716
0.150173
0.152118
0.152386
0.150135
0.147096
0.146905
0.131251
0.11486
0.114356
0.15836
0.207978
0.204374
0.166107
0.137697
0.156407
0.197618
0.221549
0.383161
0.127596
0.204131
0.231618
0.225545
0.253305
0.165593
0.0830148
0.0185715
0.0409697
0.0511058
0.0116384
-0.0263678
-0.0439257
-0.0586578
-0.0658705
-0.0690912
-0.0694436
-0.0681477
-0.06665
-0.0707657
0.1483
0.146516
0.145444
0.14379
0.141553
0.139445
0.138135
0.137884
0.139825
0.125888
0.107231
0.0621329
0.0362831
0.0478678
0.105659
0.135656
0.13293
0.172196
0.064777
0.0125112
0.0670577
0.0727147
0.0729392
0.101456
0.114866
0.130422
0.152023
0.154119
0.100608
0.0217967
-0.00744742
-0.0294849
-0.0375428
-0.0487345
-0.0544888
-0.060108
-0.0649591
-0.0688922
-0.0709961
-0.0721471
0.14561
0.14868
0.14734
0.145194
0.144084
0.144058
0.146404
0.146533
0.149003
0.160473
0.176401
0.183406
0.143034
0.101968
0.0735309
0.0570831
0.0292636
0.00227493
-0.0145429
-0.039499
0.0532834
0.024524
0.10303
0.122038
0.165798
0.127242
0.0902311
0.0283583
-0.019007
-0.023617
-0.0408132
-0.0449842
-0.0544247
-0.0602623
-0.0654267
-0.0684787
-0.0720382
-0.0748475
-0.0760571
-0.0733569
0.130731
0.12987
0.134838
0.138848
0.144466
0.149951
0.157017
0.166987
0.172939
0.171458
0.198025
0.260112
0.323657
0.316694
0.267818
0.184863
0.181903
0.123305
0.0911838
0.17064
-0.0115551
0.117192
0.112471
0.0748862
0.0433453
-0.0453363
-0.103434
-0.132788
-0.100937
-0.0670577
-0.058678
-0.0678307
-0.0744891
-0.0754612
-0.074554
-0.073193
-0.0703908
-0.0678494
-0.0650056
-0.0686638
0.125813
0.12594
0.12497
0.12271
0.124829
0.129716
0.139338
0.154494
0.181832
0.225117
0.262066
0.269494
0.301667
0.410572
0.524383
0.601308
0.6279
0.597284
0.504324
0.342419
0.0837721
-0.0858771
-0.196468
-0.254565
-0.262236
-0.241132
-0.201505
-0.132711
-0.122712
-0.132014
-0.11239
-0.0895618
-0.0801461
-0.0719013
-0.0674423
-0.0662245
-0.0672935
-0.0705305
-0.0732917
-0.073483
0.11709
0.118599
0.119935
0.1239
0.129205
0.136472
0.145713
0.16537
0.187222
0.233049
0.297551
0.402874
0.482168
0.559355
0.609468
0.684375
0.730504
0.700211
0.612555
0.419688
0.115557
-0.111191
-0.253346
-0.33037
-0.337895
-0.364455
-0.342216
-0.310192
-0.255092
-0.186154
-0.143344
-0.120632
-0.107426
-0.0930657
-0.0885365
-0.0833167
-0.0790051
-0.07493
-0.0738017
-0.0744374
0.105484
0.103804
0.107341
0.111281
0.117413
0.124399
0.134636
0.148802
0.17122
0.207813
0.244325
0.302244
0.384074
0.46755
0.527891
0.587556
0.632841
0.627364
0.508063
0.303575
0.0942628
-0.121337
-0.312758
-0.356648
-0.372665
-0.359003
-0.31597
-0.263482
-0.20047
-0.156682
-0.132923
-0.122111
-0.102292
-0.0944167
-0.0856559
-0.0815875
-0.077995
-0.0744871
-0.0716815
-0.0722141
0.0942326
0.0980439
0.0963104
0.0936413
0.0938963
0.0969104
0.104268
0.118348
0.141833
0.178322
0.20244
0.236147
0.262834
0.310497
0.396196
0.467575
0.493213
0.457581
0.392747
0.196214
-0.0408033
-0.285713
-0.393608
-0.430186
-0.416705
-0.335513
-0.311559
-0.231167
-0.18151
-0.161552
-0.134274
-0.10599
-0.0852819
-0.075948
-0.0694092
-0.0692006
-0.0711824
-0.0740643
-0.0756357
-0.0726606
0.0737905
0.0717495
0.0738291
0.0772279
0.0812089
0.0843261
0.0870802
0.0902748
0.0984893
0.108553
0.134175
0.187681
0.226468
0.237929
0.251775
0.262768
0.259191
0.217376
0.121742
-0.00435577
-0.142645
-0.280856
-0.316876
-0.327606
-0.328143
-0.308644
-0.287549
-0.260257
-0.195595
-0.117627
-0.0837501
-0.0733176
-0.0695142
-0.0698103
-0.0687347
-0.0671786
-0.0646442
-0.0618689
-0.0605164
-0.0624222
0.0585752
0.0563288
0.0542302
0.0514935
0.0484389
0.0457902
0.0417627
0.0398126
0.039796
0.0296811
0.00594172
-0.0245439
-0.0260596
-0.00201181
0.0298575
0.110019
0.112832
0.213366
0.189294
0.0154765
-0.0941269
-0.364441
-0.365319
-0.181153
-0.198037
-0.124425
-0.0528281
-0.000437835
0.0215967
0.00137573
-0.0173321
-0.0233166
-0.033533
-0.0376226
-0.0421552
-0.0464937
-0.0505985
-0.0536323
-0.0560003
-0.0604182
0.0453366
0.0471894
0.0440262
0.038417
0.0306215
0.0246806
0.0128245
0.00234035
-0.00440453
-0.0296694
-0.0552825
-0.101569
-0.142102
-0.183558
-0.176361
-0.167449
-0.0908821
-0.104508
-0.00710151
0.0349423
0.0138636
0.0273702
0.129211
0.168898
0.177636
0.197136
0.171239
0.123256
0.079388
0.0482002
0.0267072
0.00474628
-0.012959
-0.0270571
-0.0361667
-0.0456885
-0.0523956
-0.0579322
-0.0619657
-0.060898
0.0280667
0.0260195
0.0255906
0.0244298
0.0197823
0.0105857
-0.00337464
-0.0245857
-0.0543582
-0.0951769
-0.138044
-0.194047
-0.274916
-0.376152
-0.456198
-0.494411
-0.476265
-0.343976
-0.191318
0.0342008
0.297837
0.364101
0.481941
0.558449
0.54543
0.481998
0.381831
0.268101
0.188941
0.135088
0.0816495
0.0322747
-0.000299239
-0.0245364
-0.0390912
-0.0494858
-0.0540431
-0.0542624
-0.0536243
-0.0554247
0.0196634
0.0189408
0.01397
0.00607823
-0.00373373
-0.0161248
-0.033228
-0.0539623
-0.081479
-0.123172
-0.185805
-0.280448
-0.359476
-0.417843
-0.462784
-0.477811
-0.458015
-0.30744
-0.119584
0.0778732
0.21856
0.387674
0.501673
0.575203
0.543372
0.503037
0.433766
0.356663
0.267774
0.15871
0.0857666
0.0428261
0.0118982
-0.00845837
-0.0247061
-0.0376091
-0.0480644
-0.0565191
-0.0612869
-0.0594601
0.0130414
0.0113855
0.00779397
0.00453323
-0.00044683
-0.00893332
-0.0225184
-0.0403566
-0.0638826
-0.0968006
-0.121996
-0.155848
-0.225196
-0.305616
-0.383265
-0.493837
-0.444596
-0.397769
-0.213269
0.0358258
0.241886
0.411424
0.492854
0.493059
0.458761
0.393647
0.302337
0.214312
0.130935
0.0923244
0.0606506
0.0198267
-0.0129903
-0.0324631
-0.0453569
-0.0536572
-0.0584328
-0.0604924
-0.0615279
-0.0623931
0.0102594
0.00638321
0.00651204
0.00715922
0.00598103
0.000512016
-0.010152
-0.0187821
-0.0349771
-0.0622268
-0.10599
-0.16344
-0.227421
-0.293679
-0.350641
-0.394876
-0.377849
-0.237613
-0.162659
-0.025327
0.116352
0.209198
0.265769
0.337172
0.323267
0.272669
0.216375
0.169304
0.119308
0.056845
0.00870191
-0.0200944
-0.0412805
-0.0522633
-0.0598523
-0.0641448
-0.0665445
-0.0669341
-0.0673259
-0.0710695
0.0145709
0.0176341
0.0166825
0.0139808
0.0107274
0.00811509
0.00540018
0.00381504
0.015371
0.0116952
-0.00103373
-0.0378007
-0.0684294
-0.088262
-0.108909
-0.133348
-0.132373
-0.0855174
-0.0533307
0.0143983
0.0363581
0.0744089
0.0724067
0.093863
0.0508754
0.021995
-0.00208572
-0.00801885
-0.0317748
-0.0606004
-0.0671927
-0.0736702
-0.0758719
-0.076814
-0.0782705
-0.0800618
-0.0834216
-0.0872187
-0.0895477
-0.0856155
0.0114476
0.0135713
0.0173295
0.022472
0.0279729
0.0336441
0.0409961
0.0503715
0.0664585
0.0850248
0.127621
0.168746
0.170912
0.146571
0.120586
0.0893599
0.102992
0.0875556
0.086941
0.00629908
0.0610099
-0.0478053
-0.0475456
-0.0924205
-0.129587
-0.189217
-0.2218
-0.231918
-0.225409
-0.1848
-0.153894
-0.137941
-0.127514
-0.118327
-0.111358
-0.106897
-0.101675
-0.0966542
-0.0931922
-0.0924451
0.0102404
0.00931929
0.0117467
0.015473
0.0214184
0.0311485
0.0464522
0.0680748
0.0993524
0.140405
0.175719
0.228444
0.316435
0.403213
0.489521
0.535675
0.537762
0.533453
0.426163
0.19328
-0.0665975
-0.340301
-0.497687
-0.553385
-0.575071
-0.52917
-0.452664
-0.362053
-0.277616
-0.235827
-0.212056
-0.180977
-0.153342
-0.135
-0.121427
-0.112948
-0.10812
-0.10675
-0.105521
-0.104764
0.00838665
0.00929377
0.0100496
0.0132463
0.020084
0.0317611
0.0517991
0.079037
0.121798
0.183352
0.263504
0.354229
0.462763
0.572062
0.668545
0.727524
0.71666
0.61521
0.429364
0.202593
-0.0795518
-0.374281
-0.615307
-0.735165
-0.7492
-0.703737
-0.627738
-0.52439
-0.418468
-0.33348
-0.26287
-0.214058
-0.178481
-0.155195
-0.141185
-0.130306
-0.123224
-0.119715
-0.117781
-0.115031
-0.000735267
-0.00230892
0.00185068
0.00976394
0.0191992
0.0323552
0.0516549
0.0759071
0.11163
0.165203
0.226151
0.298836
0.379583
0.450879
0.505747
0.528583
0.524742
0.448642
0.354701
0.0703016
-0.167754
-0.447822
-0.605488
-0.684808
-0.657323
-0.608898
-0.535771
-0.456518
-0.37933
-0.306376
-0.249113
-0.213215
-0.184774
-0.164267
-0.15145
-0.139525
-0.129832
-0.121938
-0.116877
-0.116789
-0.0101333
-0.00782812
-0.00705187
-0.00628708
-0.00343051
0.00378852
0.0163374
0.035921
0.0638102
0.0984703
0.129732
0.169587
0.242956
0.318742
0.385092
0.42259
0.401686
0.319269
0.214044
0.00301786
-0.301284
-0.52664
-0.631067
-0.664396
-0.668521
-0.617123
-0.512563
-0.380249
-0.28507
-0.234154
-0.205725
-0.180716
-0.155152
-0.139314
-0.129664
-0.124619
-0.122762
-0.122635
-0.122162
-0.119297
-0.0288059
-0.0272205
-0.0256974
-0.0242033
-0.0214333
-0.0167985
-0.0124417
-0.00432429
0.00874872
0.0302406
0.0672739
0.0939978
0.119153
0.12734
0.121282
0.0968223
0.0478443
-0.0468384
-0.136257
-0.210824
-0.283905
-0.355425
-0.405431
-0.436502
-0.409183
-0.391204
-0.363355
-0.315699
-0.267418
-0.217128
-0.16644
-0.141172
-0.128833
-0.122609
-0.11976
-0.116716
-0.114865
-0.113937
-0.11426
-0.114588
-0.049893
-0.0519841
-0.0520732
-0.0521743
-0.0525903
-0.0534769
-0.0555346
-0.0619779
-0.068157
-0.0792968
-0.0991276
-0.122301
-0.143046
-0.167472
-0.171436
-0.185306
-0.190241
-0.168226
-0.178848
-0.228392
-0.290991
-0.328186
-0.312125
-0.254444
-0.190775
-0.161484
-0.125102
-0.0922791
-0.0720446
-0.0709026
-0.0850701
-0.0905957
-0.0948079
-0.0990368
-0.101221
-0.101949
-0.102223
-0.102372
-0.103941
-0.108727
-0.0644934
-0.063874
-0.0679897
-0.0744478
-0.0830126
-0.0908458
-0.101685
-0.116769
-0.138239
-0.168591
-0.201331
-0.246016
-0.293857
-0.337738
-0.368967
-0.401168
-0.499317
-0.442716
-0.37439
-0.277042
-0.141118
-0.0582723
0.0386536
0.104017
0.0747343
0.0759735
0.0507745
0.0385958
0.0136854
-0.0118429
-0.0334093
-0.0534667
-0.0703005
-0.0770851
-0.0867577
-0.0940908
-0.100095
-0.104852
-0.108516
-0.108576
-0.0828697
-0.084172
-0.0864694
-0.0896753
-0.0957153
-0.106133
-0.122054
-0.145691
-0.179313
-0.220593
-0.268477
-0.342515
-0.458487
-0.588865
-0.700185
-0.77023
-0.739119
-0.668855
-0.466457
-0.254294
-0.000247203
0.192701
0.341461
0.422888
0.431076
0.383877
0.291481
0.193352
0.0961751
0.0313924
-0.00317619
-0.0372223
-0.0658951
-0.0835723
-0.0957275
-0.102367
-0.105937
-0.106177
-0.106153
-0.104711
-0.0954084
-0.0969901
-0.100918
-0.107072
-0.116379
-0.128831
-0.146968
-0.173216
-0.214267
-0.264671
-0.340921
-0.426235
-0.511781
-0.588788
-0.640905
-0.654268
-0.606193
-0.492176
-0.327097
-0.145752
0.0499326
0.201835
0.317016
0.367914
0.366575
0.330697
0.275192
0.217916
0.14279
0.0757124
0.00828751
-0.0321419
-0.0585483
-0.0769656
-0.0878909
-0.0969445
-0.103059
-0.105883
-0.106403
-0.105278
-0.100722
-0.102146
-0.106438
-0.111403
-0.121055
-0.133221
-0.149356
-0.168913
-0.199924
-0.233112
-0.263207
-0.309117
-0.370417
-0.438997
-0.494538
-0.497372