/*--------------------------------*- C++ -*----------------------------------*\
| =========                 |                                                 |
| \\      /  F ield         | OpenFOAM: The Open Source CFD Toolbox           |
|  \\    /   O peration     | Version:  v2106                                 |
|   \\  /    A nd           | Website:  www.openfoam.com                      |
|    \\/     M anipulation  |                                                 |
\*---------------------------------------------------------------------------*/
FoamFile
{
    version     2.0;
    format      ascii;
    arch        "LSB;label=32;scalar=64";
    class       volVectorField;
    location    "0";
    object      U;
}
// * * * * * * * * * * * * * * * * * * * * * * * * * * * * * * * * * * * * * //

dimensions      [0 1 -1 0 0 0 0];

internalField   nonuniform List<vector> 
11644
(
(-0.000253555 1.50077e-05 1.37149e-21)
(-0.000251739 2.97414e-05 3.78217e-21)
(-0.000259811 4.26593e-05 2.02923e-21)
(-0.000278106 5.37962e-05 0)
(-0.000274387 7.86864e-05 0)
(-0.000263258 7.25622e-05 0)
(-0.000259147 8.89031e-05 0)
(-0.000245489 7.83627e-05 0)
(-0.000220858 2.99173e-05 0)
(-0.000196358 -5.41322e-05 0)
(-0.00016729 -0.000213582 0)
(-0.000182783 -0.000349477 0)
(-0.000228108 -0.000552111 0)
(-0.000184332 -0.000593973 0)
(-0.00019456 -0.000810268 0)
(3.04479e-05 -0.00081644 0)
(0.000256082 -0.00105956 0)
(0.000110732 -0.000931821 0)
(-0.00146166 -0.00147461 0)
(-0.00103505 0.000277101 -5.95162e-31)
(0.00101939 0.000354362 1.84603e-31)
(0.00120433 -0.00134755 0)
(-0.000661504 -0.000520424 0)
(-0.000568785 -0.000448262 0)
(-0.000276116 -0.00032027 0)
(-0.000149328 -0.000379808 0)
(-0.000172211 -0.000374847 0)
(-0.000196017 -0.000492888 0)
(-0.000257262 -0.00045367 0)
(-0.000297374 -0.000439285 0)
(-0.000293402 -0.00036356 0)
(-0.000285852 -0.000322292 0)
(-0.000275025 -0.00028073 0)
(-0.000267884 -0.000247004 0)
(-0.000274559 -0.000222951 0)
(-0.000278034 -0.000163544 0)
(-0.000271954 -0.000129675 0)
(-0.000283241 -9.57606e-05 0)
(-0.000287426 -6.62715e-05 0)
(-0.000273818 -2.4831e-05 2.65918e-22)
(-0.000267434 3.79778e-06 1.76167e-21)
(-0.000278934 8.94543e-06 1.63187e-21)
(-0.000279731 4.39331e-06 8.76428e-22)
(-0.00027466 -2.23298e-06 0)
(-0.000260977 -2.45368e-05 0)
(-0.000260525 -2.87947e-05 0)
(-0.000250211 -7.02829e-05 0)
(-0.000228334 -9.6074e-05 0)
(-0.000191236 -0.000116576 0)
(-0.000142499 -0.000148062 0)
(-0.000102532 -0.000186319 0)
(-2.47576e-05 -0.000317086 0)
(4.30747e-05 -0.000466529 0)
(2.19865e-05 -0.000852049 0)
(5.14277e-05 -0.00107502 0)
(-5.71976e-05 -0.00127767 -2.90178e-22)
(-0.000269607 -0.00111239 -1.04926e-22)
(-0.000674694 -0.000738912 -6.7255e-21)
(0.000548666 -0.00022134 2.60389e-21)
(0.000470149 -0.00290135 -1.1524e-20)
(-0.000916353 -0.00263131 2.58452e-20)
(-0.00114209 0.000753106 -1.66584e-20)
(0.000277814 0.000271594 6.13519e-21)
(-0.00011144 -0.000366193 3.1235e-22)
(-0.000228332 -0.000447674 9.43752e-23)
(-0.00024764 -0.000439787 0)
(-0.000255901 -0.000445386 0)
(-0.000313216 -0.000308481 0)
(-0.000334414 -0.000326685 0)
(-0.000348456 -0.000336151 0)
(-0.000361844 -0.000368662 0)
(-0.000354738 -0.000368282 0)
(-0.000360842 -0.000346566 0)
(-0.000362329 -0.000306722 0)
(-0.000356605 -0.000232224 0)
(-0.000351531 -0.000203256 0)
(-0.00034272 -0.000155729 0)
(-0.00034657 -0.000109836 0)
(-0.000344305 -6.82809e-05 0)
(-0.000338926 -2.45358e-05 0)
(-0.000186615 -1.47166e-05 0)
(-0.00020231 -3.00669e-05 0)
(-0.000223448 -3.46378e-05 0)
(-0.000218836 -4.74789e-05 0)
(-0.000211092 -7.56898e-05 1.60926e-21)
(-0.000207864 -9.32559e-05 0)
(-0.00020333 -0.000116319 0)
(-0.000191453 -0.000156472 0)
(-0.000163425 -0.00020716 0)
(-0.000114186 -0.000264814 0)
(-4.67905e-05 -0.000314798 0)
(5.73322e-05 -0.000409866 0)
(0.000185602 -0.000503131 1.90582e-22)
(0.000261738 -0.000631542 -6.4014e-21)
(0.000195241 -0.0008658 -4.60556e-21)
(0.000155735 -0.00111512 4.24927e-20)
(1.77161e-05 -0.00147184 -4.8184e-20)
(-0.000497964 -0.0014995 -1.89661e-21)
(0.000227918 -0.00132862 -3.84644e-20)
(0.000365771 -0.00129675 1.29209e-19)
(-0.00129252 -0.00124282 -8.70463e-20)
(-0.00106914 -0.000646481 1.3263e-20)
(5.81279e-05 -0.00047489 -2.58025e-20)
(-0.0001869 -0.000728753 3.37006e-20)
(-0.000328118 -0.000468578 -1.17293e-20)
(-0.000260223 -0.000447553 8.27645e-22)
(-0.000351106 -0.00042847 4.54168e-21)
(-0.000426403 -0.000449872 -1.75741e-22)
(-0.000427577 -0.000486936 0)
(-0.000427873 -0.000448853 0)
(-0.000443677 -0.000406428 0)
(-0.00044758 -0.000327962 0)
(-0.000437764 -0.000252952 0)
(-0.000424197 -0.000189616 0)
(-0.00042078 -0.00015205 0)
(-0.000395058 -0.000120559 0)
(-0.000382445 -8.24765e-05 0)
(-0.000357313 -5.09778e-05 0)
(-0.000339677 -2.33549e-05 0)
(-0.00032592 -4.78968e-06 0)
(-0.000161498 -1.75958e-05 0)
(-0.000156723 -4.33172e-05 0)
(-0.000154433 -6.2333e-05 0)
(-0.000156387 -8.43559e-05 0)
(-0.000176011 -9.08111e-05 0)
(-0.000179409 -0.000101413 0)
(-0.000183276 -0.000103854 0)
(-0.000167395 -0.000111897 0)
(-0.000151864 -0.000118229 0)
(-0.000113137 -0.000142842 0)
(-3.47436e-05 -0.000154988 2.83212e-23)
(7.18779e-05 -0.000229367 -6.49034e-22)
(0.000138747 -0.000315665 -4.25624e-21)
(0.000243857 -0.000463961 1.38437e-21)
(0.000421198 -0.000833948 -8.61185e-20)
(0.000270209 -0.00120995 1.32486e-20)
(3.81499e-05 -0.00128396 1.88792e-19)
(0.000299488 -0.00160117 -2.50696e-19)
(-0.000525553 -0.00206441 9.80428e-20)
(-0.00074549 -0.000723922 1.28745e-19)
(-0.00019213 -0.000362872 -8.0465e-20)
(0.00022778 -0.00147913 -1.19191e-19)
(-0.000785421 -0.000814046 2.23889e-19)
(-0.000272114 -0.000330545 -1.22232e-19)
(-0.000406761 -0.000549584 -7.45277e-20)
(-0.000575301 -0.000501503 8.17407e-20)
(-0.000559941 -0.000564297 -4.34958e-21)
(-0.000588526 -0.000605112 2.44357e-21)
(-0.000670127 -0.000533604 3.91364e-21)
(-0.000672116 -0.000449939 3.57527e-23)
(-0.000640039 -0.000364564 0)
(-0.000604429 -0.000272392 0)
(-0.000563008 -0.000193576 0)
(-0.000511149 -0.000131755 0)
(-0.000462287 -9.43657e-05 0)
(-0.000421501 -5.84742e-05 0)
(-0.000389608 -3.78174e-05 0)
(-0.00036868 -2.08325e-05 0)
(-0.000353143 7.60044e-07 0)
(-0.000346661 -1.13139e-06 0)
(-0.000137215 -3.82139e-06 0)
(-0.000137125 -1.44909e-05 0)
(-0.000120486 -3.30262e-05 0)
(-0.000126563 -3.97732e-05 0)
(-0.000135282 -5.74677e-05 0)
(-0.000149521 -6.43229e-05 0)
(-0.000149978 -6.65517e-05 0)
(-0.000154224 -5.29067e-05 0)
(-0.000132157 -2.29807e-05 0)
(-0.000108744 3.12566e-05 -1.43749e-22)
(-9.09853e-05 4.24892e-05 5.9772e-21)
(-5.73564e-05 3.04027e-05 9.50788e-21)
(9.92433e-06 -0.000125522 -1.86751e-20)
(0.000334166 -0.000440716 1.17535e-20)
(0.000469707 -0.000843414 -1.15483e-19)
(0.000274294 -0.00102835 -1.59236e-20)
(0.000601944 -0.00153271 2.3761e-19)
(0.000463011 -0.0015446 8.58052e-20)
(-4.59938e-05 -0.00155742 -2.29751e-19)
(-0.000672177 -0.0014196 1.45705e-19)
(0.000607504 -0.000890365 -2.53874e-19)
(0.000308621 -0.000851145 2.00486e-19)
(-0.000400535 -0.000658482 7.87881e-20)
(-0.0007626 -0.000408997 -2.3377e-19)
(-0.000483115 -0.000314138 -6.16235e-21)
(-0.000609982 -0.000608578 8.73043e-20)
(-0.000788653 -0.000705021 -5.68043e-21)
(-0.000902135 -0.000598133 4.37448e-20)
(-0.000909074 -0.000493609 -2.34442e-20)
(-0.000925361 -0.000323958 -2.90609e-21)
(-0.000860207 -0.00020933 -6.40279e-22)
(-0.000758307 -0.000143824 0)
(-0.000659676 -8.60492e-05 0)
(-0.000574233 -3.67534e-05 0)
(-0.000496449 -4.19047e-06 0)
(-0.000447354 1.75373e-05 0)
(-0.000408826 2.53698e-05 0)
(-0.000373111 2.85307e-05 0)
(-0.000344627 1.32868e-05 0)
(-0.0003465 1.68326e-05 0)
(-8.56834e-05 -2.52958e-05 0)
(-9.52525e-05 -5.27793e-05 0)
(-9.55229e-05 -5.19927e-05 0)
(-9.0084e-05 -6.17142e-05 0)
(-9.6006e-05 -6.09821e-05 0)
(-0.000106324 -6.17445e-05 0)
(-0.00011416 -5.65162e-05 0)
(-0.000131069 -1.53707e-05 0)
(-0.000126186 4.15142e-05 1.1189e-21)
(-0.000154052 9.12307e-05 -9.26063e-21)
(-0.000164153 0.000148877 -1.20575e-20)
(-0.000181694 9.39649e-05 1.85658e-21)
(3.15053e-05 0.000237145 -1.87329e-20)
(-4.96142e-05 0.000203414 1.94512e-19)
(1.59982e-05 -0.000435798 -1.35009e-19)
(0.000352947 -0.000992618 6.03221e-21)
(0.000678028 -0.00155905 9.67037e-21)
(0.0010324 -0.00129583 -2.41238e-20)
(0.000648866 -0.00103972 -1.54875e-19)
(8.51791e-05 -0.00143556 1.68713e-19)
(0.000320092 -0.00107147 4.97042e-20)
(-0.0005669 -0.000349337 5.99953e-20)
(-0.000919037 -0.000468643 -9.02802e-20)
(-0.000553937 -0.000921287 1.2865e-19)
(-0.000520345 -0.000444475 -1.86816e-19)
(-0.00111411 -0.000551688 1.54706e-19)
(-0.00126024 -0.000884913 -2.06476e-19)
(-0.00136903 -0.00075978 3.38493e-20)
(-0.00129829 -0.000388858 4.58607e-20)
(-0.0011271 -0.000190045 -3.0294e-20)
(-0.000968386 -2.5161e-06 1.53472e-20)
(-0.00082146 7.89221e-05 -1.14823e-21)
(-0.000667561 9.96609e-05 0)
(-0.000557545 0.000102842 0)
(-0.000471763 0.000105285 0)
(-0.000406264 8.77223e-05 0)
(-0.00036009 7.03134e-05 0)
(-0.000317555 4.21543e-05 0)
(-0.000303255 3.36515e-05 0)
(-0.000296627 -1.69814e-06 0)
(-4.15301e-05 1.71295e-05 0)
(-2.88699e-05 -1.25648e-05 0)
(-4.23642e-05 -5.37234e-05 0)
(-4.37997e-05 -8.72547e-05 0)
(-4.02286e-05 -9.87261e-05 0)
(-4.8323e-05 -0.000108948 0)
(-6.90443e-05 -9.62514e-05 0)
(-8.49084e-05 -4.87613e-05 2.81361e-22)
(-0.000118908 -1.6392e-06 -6.8916e-21)
(-0.000151761 1.18143e-06 -2.20271e-21)
(-0.000156265 -3.97919e-05 -1.77273e-21)
(-0.000176862 0.000287699 6.66674e-21)
(-0.000502506 0.000281951 1.96304e-20)
(0.000333935 0.000116089 -2.51393e-20)
(-6.15444e-05 0.000194199 4.29022e-20)
(0.000521855 2.80814e-06 -4.58062e-20)
(-0.000547684 -0.000895493 3.79427e-19)
(0.000494011 -0.00181564 -2.16313e-19)
(0.000418654 -0.00139603 8.95602e-21)
(0.000319038 -0.00207372 -7.72312e-20)
(-0.00032417 -0.000320231 7.87498e-20)
(-0.00106199 -0.000745434 -3.45781e-19)
(-0.00159381 -0.0012944 -4.32435e-20)
(-0.000361083 0.000972677 1.54314e-19)
(-0.00272032 -0.00061041 2.3429e-20)
(-0.00224226 -0.0011733 -1.72111e-20)
(-0.00146233 -0.000642509 4.25312e-20)
(-0.00198205 -0.000373518 -2.12365e-20)
(-0.0014782 -0.000209039 -1.17129e-19)
(-0.00125142 2.33344e-05 1.24426e-19)
(-0.000967533 0.000204176 -1.48273e-20)
(-0.000761934 0.000307698 -3.84208e-21)
(-0.000602038 0.00029923 -6.62385e-22)
(-0.000474408 0.000237758 0)
(-0.000394401 0.000200003 0)
(-0.000322783 0.000173169 0)
(-0.000276768 0.000141693 0)
(-0.000250153 0.000103007 0)
(-0.000229044 7.14172e-05 0)
(-0.000221223 2.65052e-05 0)
(1.54059e-05 -5.52955e-05 0)
(2.589e-05 -4.21711e-05 0)
(3.62811e-05 -6.2513e-05 0)
(3.61467e-05 -5.44477e-05 0)
(3.00946e-05 -9.13102e-05 0)
(4.26772e-05 -0.000112192 0)
(2.45614e-05 -0.000121398 0)
(2.62436e-05 -9.53879e-05 4.81319e-21)
(5.30879e-05 -0.000154624 1.73816e-20)
(8.40614e-05 -0.000213046 -4.00961e-20)
(6.35264e-05 -0.000130648 2.82423e-20)
(2.19088e-05 -0.000321332 2.57246e-20)
(-0.000537328 0.000559501 -7.5267e-20)
(0.000399373 0.00102341 1.58088e-20)
(-0.000168811 -0.000288438 4.92535e-20)
(0.000321926 0.000247038 6.04993e-20)
(0.00148287 0.000821407 -1.03686e-19)
(0.000903479 -0.0021858 3.73534e-20)
(3.13078e-05 -0.00258863 -4.39607e-19)
(0.000228892 -0.00272837 -1.90444e-19)
(-0.000257939 -0.000368916 -2.44749e-19)
(-0.000418554 -0.00155893 4.09414e-19)
(-0.000949148 -0.00150066 -5.43252e-19)
(-0.00299421 -0.000671077 7.94101e-20)
(-0.00265133 -0.00104669 6.82178e-20)
(-0.00256156 -2.88523e-06 8.49828e-20)
(-0.00265957 0.00046203 -5.09604e-20)
(-0.00210313 -0.000551278 -1.03969e-20)
(-0.00158311 0.000550614 1.91066e-20)
(-0.00127861 0.000289503 -1.5146e-20)
(-0.000891409 0.000435293 -1.28733e-20)
(-0.000612782 0.00049078 1.33916e-20)
(-0.000431428 0.000491896 1.79401e-21)
(-0.000319375 0.00039181 0)
(-0.000250094 0.000295131 0)
(-0.000214513 0.000243317 0)
(-0.000172883 0.00017123 0)
(-0.0001459 0.000135379 0)
(-0.000128976 5.54337e-05 0)
(-0.000125716 4.66263e-05 0)
(7.11669e-05 2.53353e-05 0)
(7.27155e-05 -3.60885e-05 0)
(8.59665e-05 -4.95671e-05 0)
(0.000105647 -0.000111771 0)
(0.000122488 -0.000142571 0)
(0.000140972 -0.000180826 0)
(0.000168326 -0.000170569 -1.46594e-21)
(0.000257004 -0.000182551 3.82818e-21)
(0.000410036 -0.000290326 -1.96304e-20)
(0.000591625 -0.000383175 -4.66248e-21)
(0.000720517 -0.000448696 1.48475e-20)
(0.000794604 -0.000613495 7.94185e-20)
(0.000997544 0.00169167 -9.17001e-20)
(0.00249992 7.66591e-05 1.933e-20)
(0.000258816 -0.00022525 -5.4641e-20)
(0.00110861 0.000413778 5.65369e-20)
(7.19548e-05 -0.000669957 1.8674e-19)
(-0.00226057 0.00146432 2.91881e-19)
(0.00123773 -0.00292371 -1.39597e-19)
(0.000472086 -0.00350673 -1.37411e-19)
(-0.000836817 -0.00149352 -2.77192e-19)
(-0.00160627 -0.00349643 8.29769e-20)
(-0.00200257 -0.00196211 -1.04556e-19)
(0.000580814 -0.00217738 2.11419e-19)
(-0.00259765 -0.000170519 2.58408e-19)
(-0.00232461 0.000378698 6.49073e-20)
(-0.00146923 0.000400915 5.64728e-21)
(-0.00159338 -0.000247098 -1.72481e-20)
(-0.00125648 0.00077071 2.98026e-20)
(-0.000906677 0.000699812 -2.01439e-20)
(-0.000632418 0.000738867 7.61914e-21)
(-0.000376473 0.000642615 -1.16237e-20)
(-0.000178155 0.00060052 2.26391e-21)
(-7.22855e-05 0.00049594 -7.73157e-23)
(-4.97972e-05 0.000347835 0)
(-3.88471e-05 0.000231912 0)
(-3.25383e-05 0.000153581 0)
(-3.27808e-05 6.23051e-05 0)
(-2.62859e-05 5.68813e-05 0)
(-1.79309e-05 -4.0083e-05 0)
(6.71831e-05 3.32366e-05 0)
(0.000102175 -6.7275e-08 0)
(0.000106099 -6.93382e-06 0)
(0.000167188 -7.28827e-05 0)
(0.00021736 -0.000108647 0)
(0.000248926 -0.000146456 0)
(0.000309579 -0.000119892 -6.46365e-22)
(0.000538257 -0.000173109 2.8002e-21)
(0.000820516 -0.000279576 -6.8682e-22)
(0.00110856 -0.000259927 1.86242e-21)
(0.00141923 -0.000211561 5.98551e-21)
(0.0018749 -0.000204727 8.08942e-21)
(0.00189522 -1.47454e-05 -1.50419e-20)
(-0.00216433 0.000690857 -5.02055e-21)
(6.71179e-05 -0.000603687 -2.44119e-20)
(0.00351051 0.00132921 -1.16096e-20)
(0.00219148 -3.59348e-05 -1.69249e-20)
(0.00386449 -0.000948178 -1.30739e-19)
(0.00211064 -0.00178323 -2.20063e-20)
(0.00225956 -0.00440896 9.08815e-20)
(-0.00101834 -0.00490553 -7.61691e-20)
(-0.00336507 -0.00389202 7.16861e-20)
(-0.00408437 -0.00145624 -6.74561e-21)
(-0.00343391 -0.000643151 -1.31792e-19)
(-0.0029049 0.000724098 2.36662e-20)
(-0.00212063 -0.000597905 -1.02643e-19)
(-0.00132651 0.00249328 2.07468e-20)
(-0.000646791 -2.73241e-05 -1.57352e-20)
(-0.000324471 0.00130196 7.79194e-21)
(-0.000198749 0.00100732 -4.64724e-21)
(-0.000168348 0.000826452 -1.48801e-22)
(-4.35529e-05 0.00069548 5.03115e-21)
(9.75681e-05 0.000617439 -4.1896e-22)
(0.000184171 0.000493781 1.88732e-21)
(0.000171747 0.000370953 0)
(0.000153944 0.00028647 0)
(0.000137957 0.000255733 0)
(0.000117222 0.000200597 0)
(8.2587e-05 0.000133776 0)
(6.53408e-05 9.55025e-05 0)
(0.000118115 -0.000156582 0)
(0.000139225 -5.91123e-06 0)
(0.000237809 -7.69493e-05 0)
(0.00025322 -1.95626e-05 0)
(0.000266181 -6.70569e-05 0)
(0.000282057 -7.40233e-05 0)
(0.000370108 -3.21847e-05 -1.88976e-21)
(0.000652323 -4.06363e-05 5.24673e-22)
(0.00103465 -5.46966e-05 4.43867e-21)
(0.00137911 -1.68896e-06 1.92693e-21)
(0.00145721 0.000433737 -4.65805e-21)
(0.00182765 0.000437074 -5.29661e-21)
(0.00247893 -0.00211844 7.23135e-21)
(0.000875984 -0.000338723 -1.8355e-20)
(0.00315979 0.00158822 1.15008e-20)
(0.0006253 0.00234272 1.56524e-20)
(0.00175468 0.00342409 3.70922e-21)
(0.00498836 0.00181815 -9.57012e-21)
(0.00812019 -0.000843445 -6.10384e-21)
(0.00774211 -0.00798712 -6.79603e-21)
(-0.000617027 -0.0135815 4.80507e-20)
(-0.00899838 -0.00777713 -7.25166e-19)
(-0.00801765 -0.00109982 9.67732e-21)
(-0.0056637 0.00137794 8.3922e-22)
(-0.00376555 0.00251884 5.11101e-21)
(-0.00132262 0.00240582 -2.18649e-21)
(-0.000744319 0.00157092 -9.98562e-21)
(0.000563938 0.00126528 1.24604e-20)
(0.000730477 0.0014498 -1.10061e-20)
(0.000425929 0.000833658 -3.48831e-21)
(0.000266524 0.00070175 9.42906e-22)
(0.000288995 0.00061333 -3.91459e-21)
(0.000346419 0.000510455 1.15153e-21)
(0.000386656 0.000385467 5.74751e-22)
(0.000276417 0.000229433 0)
(0.000170545 0.000169431 0)
(0.000107912 9.5405e-05 0)
(0.000118354 9.10632e-05 0)
(0.000165414 -2.20432e-05 0)
(0.000165377 -4.66995e-06 0)
(0.000131471 0.000260887 0)
(0.000156795 6.33905e-05 0)
(0.000148665 -4.59105e-05 0)
(0.000164537 -0.000131469 0)
(0.000243232 -0.000191462 0)
(0.000241645 -0.000184261 0)
(0.000270623 -5.64999e-05 4.29245e-23)
(0.000477986 3.14256e-07 -1.98981e-22)
(0.00070082 0.000217935 6.57378e-22)
(0.000943019 0.000341592 5.95005e-22)
(0.00102507 0.00076283 -1.1321e-21)
(0.000608848 0.00100727 9.371e-22)
(-0.000588012 -0.000907494 -2.02771e-21)
(0.00359962 0.00017019 1.7828e-20)
(0.0016955 0.00291615 -1.4035e-20)
(0.00268209 0.00367285 -7.27405e-21)
(0.00315639 0.00504218 5.06772e-21)
(0.00524542 0.00691867 1.84881e-21)
(0.0137054 0.00881749 7.53628e-21)
(-0.0134652 0.00795837 -1.06076e-19)
(-0.00475356 0.00645817 -7.89904e-22)
(-0.00131164 0.00637311 1.40843e-20)
(8.93441e-05 0.00578803 6.67948e-21)
(0.00178624 0.0033208 3.90481e-21)
(0.00145328 0.00192856 1.49985e-21)
(0.00100965 0.00177278 1.09828e-21)
(0.000594346 0.000886559 -5.40076e-22)
(0.0006293 0.00068394 2.7393e-22)
(0.00041344 0.00042958 -2.68222e-22)
(0.000452415 0.000260924 -1.65646e-23)
(0.000480541 0.000173524 7.70766e-23)
(0.000390386 4.48894e-05 0)
(0.000263184 -2.16628e-05 0)
(0.00025038 -5.75714e-05 0)
(0.000212987 -0.000134122 0)
(0.000187568 1.94767e-05 0)
(0.000310182 -1.70631e-05 0)
(3.5306e-05 0.000139225 0)
(0.000256902 0.000239314 0)
(0.000184671 0.000308833 0)
(0.000146127 5.92291e-05 0)
(5.69735e-05 -0.000145784 0)
(-2.57887e-05 -0.000302581 0)
(-0.000108493 -0.000299606 2.37831e-23)
(-7.71433e-05 -0.000179407 1.38729e-21)
(0.000147442 6.06088e-05 -2.04727e-21)
(-0.000214917 8.36674e-05 3.68749e-21)
(0.000160639 2.33298e-05 -5.17815e-21)
(0.000876028 -0.00113362 -2.20668e-21)
(-0.0011418 -0.00129249 8.40791e-22)
(-0.000389093 0.00315175 -1.38266e-20)
(-0.00166147 0.00310134 1.69233e-20)
(7.36673e-05 0.00292154 8.988e-21)
(-0.00158362 0.00627168 9.23769e-21)
(-0.00902923 0.010635 -1.95464e-22)
(-0.000978739 0.0171652 -2.21403e-18)
(0.00301278 0.0163892 3.0803e-19)
(-0.00115324 0.00794603 -2.79641e-21)
(0.000692857 0.00499864 1.01476e-20)
(0.000140779 0.00459327 7.65084e-22)
(0.000165985 0.00387668 -1.33475e-21)
(-0.000351981 0.00125073 9.2998e-21)
(-0.00127912 0.000535997 -8.90977e-21)
(-0.000129868 0.000720859 -4.17138e-21)
(0.00058451 0.000633957 1.27276e-21)
(0.000213144 0.000267372 -9.27025e-22)
(0.000431377 5.60316e-05 8.92638e-22)
(0.000391069 -0.000101555 -1.65285e-23)
(0.00030014 -1.01139e-05 0)
(0.000274207 0.000158378 0)
(0.000230373 0.000406045 0)
(0.000179698 0.000511376 0)
(0.000103843 0.000395922 0)
(0.000131877 0.000161585 0)
(0.00104222 -1.73153e-06 2.38126e-23)
(0.000315938 0.000152234 0)
(0.000378079 -3.75044e-05 0)
(0.000514935 -0.000141513 0)
(0.000423927 -0.000298917 0)
(0.000318092 -0.000550699 0)
(-0.000498318 -0.000580136 7.61766e-22)
(-0.000988203 -0.000381406 4.6258e-21)
(-0.000389365 -0.00065772 -3.89119e-21)
(0.000109773 0.000419631 3.58956e-21)
(-0.000661116 0.00292113 7.37576e-21)
(-0.00661771 0.000401582 3.5827e-22)
(-0.0112743 -0.00254146 -2.6269e-20)
(-0.00853747 -0.00182956 2.93512e-20)
(-0.00445189 0.00528692 7.9997e-20)
(-0.00077993 0.00638509 -2.51187e-20)
(-0.0053884 0.0035804 -1.44149e-19)
(-0.0107203 0.0155416 1.21992e-20)
(-0.00650094 0.00351494 -3.18587e-19)
(0.0128197 0.00699061 -1.70677e-19)
(0.00852728 0.00548292 -1.08804e-20)
(0.00294878 0.00245614 -2.77546e-20)
(0.00208546 0.00178659 2.48825e-20)
(0.00386443 -0.00202613 6.50402e-20)
(0.00838368 0.000456568 -8.59615e-21)
(0.00470629 0.00291107 -2.68461e-20)
(-0.000732716 0.00464105 1.92678e-20)
(-0.000668917 0.00151635 -6.51876e-21)
(0.000121609 -3.76106e-05 -7.8086e-21)
(0.000803571 0.000185748 4.68019e-21)
(0.000361562 -0.000175051 -9.38659e-22)
(-0.000400132 -0.000201459 0)
(-0.000385425 2.15324e-05 0)
(-0.000394881 0.000151001 0)
(-0.000191686 0.000308473 0)
(1.8968e-05 0.000325196 0)
(-0.000548522 0.000374064 0)
(-0.000659437 0.000155277 -1.46634e-24)
(0.000423427 -0.000719562 0)
(0.000870283 -0.0010829 0)
(0.000678272 -0.0013486 0)
(0.000629297 -0.0014919 0)
(0.00079134 -0.0016498 0)
(-0.00100597 -0.0013113 -4.96778e-24)
(-0.000977261 -0.00100411 1.09003e-22)
(-0.000139383 0.000769413 -6.42788e-21)
(0.00199239 0.00197251 1.30255e-20)
(-0.00193652 0.00287841 4.80228e-21)
(-0.00802173 0.000590261 -1.68256e-20)
(-0.00332148 -0.00462755 -1.76092e-20)
(0.0138846 0.00826105 1.44791e-19)
(0.010253 0.0118035 9.15524e-20)
(-0.00857182 -0.000381926 -1.40226e-19)
(-0.00603937 -0.00620798 5.19656e-20)
(-0.0282161 0.00606204 -6.79653e-20)
(0.165777 -0.133822 1.33054e-21)
(-0.0589851 0.220199 1.3063e-19)
(0.00848482 -0.229132 1.33621e-20)
(0.187443 0.167792 1.04535e-19)
(-0.205106 -0.105992 2.22972e-20)
(0.0226005 0.0115057 6.40944e-20)
(0.0028435 -0.00490409 -1.34948e-19)
(-0.0184043 0.0230439 7.84358e-20)
(-0.0222243 0.00908377 1.68513e-19)
(0.00283303 -0.00104473 -2.94603e-20)
(0.00537249 0.0039195 -1.29208e-20)
(-0.000534722 0.00483992 1.09347e-20)
(-0.00330638 0.00419663 1.10479e-20)
(-0.000782625 0.0020615 -9.36627e-21)
(0.000423794 -0.00024461 5.32417e-21)
(0.000568115 -0.000778458 -6.51437e-22)
(-0.000750796 -0.00105121 0)
(-0.000574599 -0.000972024 0)
(-0.000519604 -0.00102305 0)
(-0.000534124 -0.000914822 0)
(-7.55558e-05 -0.000676713 0)
(0.00109445 0.000320991 0)
(0.00368344 -5.51792e-05 7.13407e-22)
(0.000606692 -0.000633141 0)
(-0.00027813 -0.000145801 0)
(-0.000291043 -0.000442995 0)
(-0.000426229 -0.000231059 0)
(-0.00190006 -0.000705679 0)
(-0.00103595 -0.00249729 4.44792e-23)
(-0.000625353 -0.00211266 8.24315e-22)
(-0.00210266 -0.00282148 -6.07181e-22)
(-0.00683086 -0.0015797 -1.04164e-20)
(-0.00787431 -0.0134582 4.76828e-20)
(-0.0031846 -0.00702456 -5.20001e-20)
(0.00700991 0.0303176 3.85876e-20)
(-0.00496986 0.0083692 -1.00113e-20)
(-0.0246432 -0.0200679 -1.76589e-19)
(-0.0336781 0.0259586 -1.80417e-19)
(0.047424 0.00319783 2.72197e-19)
(0.506368 -0.12866 -1.24711e-19)
(-1.12188 0.652824 1.61653e-19)
(1.72364 0.364033 -4.00909e-18)
(-0.21473 -0.55318 1.61785e-19)
(-0.602937 0.492778 -1.3041e-19)
(0.526755 -0.00234176 1.7957e-20)
(0.029407 -0.0630514 3.67532e-20)
(-0.051299 0.0133289 -7.13962e-20)
(0.0243204 -0.0132357 -9.15355e-20)
(0.0136175 -0.0355749 1.51351e-21)
(-0.00980137 0.0346197 -2.28321e-20)
(0.00226094 -0.00451989 3.79036e-20)
(0.00772064 -0.0113599 -4.97431e-20)
(0.00532324 0.00100533 -8.62108e-21)
(0.00122047 -0.00134867 -2.06748e-21)
(0.000373936 -0.000756856 1.4959e-21)
(0.000675728 -0.00119427 1.27945e-23)
(0.00176143 0.000610915 0)
(0.000638831 0.000818921 0)
(0.000769147 0.000439117 0)
(0.000819556 0.000414914 0)
(-7.64329e-05 -0.000118903 0)
(-0.0029534 7.10475e-05 -1.15645e-21)
(-0.000790896 -0.000748889 3.8812e-21)
(0.000843209 0.000902154 0)
(0.00106974 0.000207183 0)
(0.000148367 -0.00082241 0)
(-0.000638108 -0.00184177 0)
(0.000233624 -0.00209935 0)
(0.00113003 -0.00109993 0)
(-0.000332463 -0.000895154 -2.86241e-22)
(-0.000929946 -0.0011385 5.36948e-21)
(-0.000323405 -0.0104114 -1.19705e-21)
(-0.0048238 -0.00875327 -7.53996e-22)
(-0.0148189 -0.0186771 -5.76107e-21)
(-0.0280873 -0.0237234 5.82837e-20)
(-0.015864 0.028946 -3.93607e-20)
(0.0182632 0.033568 -2.43324e-20)
(-0.0233958 -0.0473343 1.63557e-20)
(-0.00588949 0.0731134 -1.84829e-19)
(-0.538304 0.637169 3.09357e-18)
(-0.44302 -1.8205 -7.82017e-19)
(-0.225592 0.335739 -9.49043e-19)
(0.0852295 4.35069 1.77002e-18)
(-0.199721 -0.76305 -1.44825e-18)
(-0.157633 -0.557992 -4.86835e-19)
(0.00888218 0.188055 -1.50799e-18)
(0.0754376 -0.0538495 1.50973e-19)
(-0.00544229 0.0212782 -6.71704e-20)
(0.0167312 0.0353137 6.60447e-20)
(0.0269477 -0.0217399 -4.18976e-20)
(0.0131225 -0.0166114 -1.74489e-20)
(0.00295786 -0.00527304 5.9507e-21)
(-0.00171172 -0.00740887 -8.5627e-21)
(-0.000619184 0.00204694 1.33702e-21)
(-0.00133557 0.00174835 -1.49492e-21)
(-0.00140155 0.000735758 0)
(-7.7205e-05 -0.000455803 0)
(0.00102317 -0.000444637 0)
(0.000421674 0.000352938 0)
(-0.00030636 0.00108387 0)
(-9.74098e-05 0.00150043 0)
(0.00122018 -0.000600647 3.71366e-21)
(-0.00183536 0.00115198 2.02789e-22)
(0.000850735 -0.00015988 0)
(-1.58552e-05 -0.00047778 0)
(6.23445e-05 -4.25619e-05 0)
(0.000254319 -0.000627299 0)
(-0.00062673 -0.0010778 0)
(-0.000399204 0.000279053 0)
(0.00308205 0.00397245 0)
(0.00712536 0.00568508 -3.38171e-22)
(0.00862081 0.00743346 2.81971e-21)
(0.0148203 0.00420015 1.04931e-21)
(0.0124763 0.00531936 -1.72207e-20)
(0.00967242 -0.0339125 1.89889e-20)
(-0.0397964 -0.0668596 -2.94791e-20)
(-0.0118038 -0.0187013 3.56897e-21)
(0.00187357 0.10638 6.69014e-20)
(-0.391014 -0.0479429 -1.2085e-20)
(0.252596 -0.514318 4.35341e-19)
(1.8003 3.1519 -5.7062e-19)
(-2.28086 -0.777065 -1.89614e-19)
(0.52274 -5.88497 3.10161e-19)
(1.51986 0.720777 1.03238e-19)
(-1.76318 2.13434 1.25569e-19)
(-0.0827997 -0.112387 2.24261e-18)
(0.0689218 -0.0217604 -1.38246e-20)
(0.00361911 0.00768193 -5.30704e-22)
(0.0320358 -0.0601315 7.45469e-21)
(-0.0122406 -0.0276844 3.61716e-20)
(-0.013958 0.0112222 -2.77994e-20)
(-0.0150937 0.00895648 -1.3646e-20)
(-0.00828691 0.0113209 -1.45488e-22)
(-0.00639802 0.00875384 8.28504e-22)
(-0.001719 0.0061323 0)
(0.00176362 0.00192603 0)
(0.00163946 0.000453048 0)
(0.000665217 0.000528503 0)
(0.00060881 0.000807888 2.54029e-21)
(0.000469802 7.64937e-05 3.51305e-21)
(-0.000193835 0.000184837 2.09487e-21)
(0.00267757 0.00101653 0)
(0.000610416 -0.00122521 0)
(0.00031412 -0.000561927 0)
(0.00176574 -0.00109049 0)
(0.00201277 -0.00181001 0)
(0.00187955 -0.00195783 0)
(0.00173188 -0.0022303 0)
(-0.00184617 -0.0054421 0)
(-0.00928062 -0.00756976 0)
(-0.0102632 -0.00561124 5.4017e-24)
(-0.00551176 0.00025674 4.34308e-22)
(-0.000610894 0.00688752 -1.95962e-22)
(0.0132761 0.00666269 -8.02141e-22)
(0.00901402 0.00248865 -3.20556e-20)
(0.037422 0.00039684 -4.04465e-20)
(-0.0326484 -0.0683554 2.8998e-19)
(0.0754197 -0.152908 -3.95192e-20)
(0.362623 -0.252408 -4.28554e-21)
(-1.71599 0.0607652 -1.08768e-20)
(0.454265 -1.5875 -2.32648e-19)
(2.76001 0.531342 1.57721e-18)
(-0.291317 2.25331 2.32148e-19)
(-2.65269 -0.0360768 6.28323e-19)
(0.211669 -1.50262 2.29813e-20)
(1.43446 0.100072 2.88266e-20)
(-0.120056 0.151964 5.4854e-20)
(-0.0120849 -0.109955 -9.20818e-20)
(-0.0352713 0.0131354 6.75205e-20)
(-0.00871652 0.0105022 -2.03557e-20)
(-0.0116487 0.0117705 1.20619e-20)
(0.00260377 0.0110634 -2.26954e-22)
(0.00847181 0.00264321 1.31406e-22)
(0.0122677 -0.00462817 -4.05289e-24)
(0.0105731 -0.00682945 0)
(0.00297246 -0.00411545 0)
(-0.000628392 -0.00112305 0)
(-0.000770421 -0.00101816 0)
(-0.000954411 -0.000961057 0)
(-0.000648518 -0.000463865 0)
(0.000788618 -0.000385461 0)
(0.000286047 -0.00113393 -3.77289e-22)
(0.00203522 0.000485636 0)
(0.000360458 -1.6975e-05 0)
(0.00112844 0.000806085 0)
(0.00308155 0.00166999 0)
(0.00431529 0.00201826 0)
(0.00553677 0.00252911 0)
(0.00714 0.00135545 0)
(0.00595722 -0.00624878 0)
(0.00254672 -0.0130129 0)
(0.0019587 -0.0166622 0)
(0.00287161 -0.0141816 -5.41908e-22)
(0.00974817 -0.0166946 -3.11887e-21)
(0.017999 0.007127 4.80552e-21)
(-0.0178926 0.00718025 -2.54264e-21)
(0.0283096 0.0538296 8.91166e-19)
(-0.0799235 -0.0126185 -6.23764e-20)
(1.18955 0.214388 1.61209e-19)
(0.261537 -0.990298 5.56791e-20)
(-2.12979 -0.385989 -1.00863e-19)
(-1.51878 0.374768 -8.24907e-19)
(0.137031 0.598632 -2.8281e-19)
(1.71493 0.334615 1.44363e-18)
(1.8691 -0.375843 -2.55117e-19)
(-0.965075 -0.747677 -2.39171e-20)
(-0.449172 0.0646759 5.4083e-19)
(0.00151682 0.112675 1.02249e-19)
(0.0193626 0.0116845 -2.64985e-21)
(-0.0180364 0.013685 4.17743e-21)
(-0.00694699 -0.0112575 -3.46244e-21)
(-0.000586491 -0.0117011 -6.16084e-23)
(-5.4188e-05 -0.0133898 0)
(-0.000732764 -0.00969155 0)
(-0.00470865 -0.00288417 0)
(-0.00622407 0.00378268 0)
(-0.00411706 0.00399952 0)
(-0.00271173 0.00291557 0)
(-0.00129886 0.00214399 0)
(0.000608487 0.00102727 0)
(0.0010018 0.000198688 0)
(-0.000851436 0.00075482 0)
(-0.000744449 -0.000624702 0)
(8.68003e-05 -0.00108004 0)
(-0.0011971 -0.00107053 0)
(-0.00159025 0.000131477 0)
(-0.000118268 0.00175862 0)
(0.00210098 0.00326344 0)
(0.00595524 0.00626701 0)
(0.0109124 0.0072769 0)
(0.00812806 0.00356252 0)
(0.00449603 -0.000266195 0)
(0.00640964 -0.00911018 0)
(0.004937 -0.0102381 -1.76007e-22)
(0.0417122 -0.0152448 1.59043e-22)
(0.0470164 -0.0319984 1.86926e-21)
(-0.00533726 -0.118797 2.90865e-19)
(-0.457444 -0.249862 -3.3248e-19)
(-1.1113 0.672575 2.08002e-19)
(1.74659 2.16029 -1.38342e-19)
(1.10713 0.099162 2.06465e-19)
(0.156963 -1.78648 -5.58388e-19)
(-0.0842192 -2.12045 -7.19424e-21)
(-0.415868 -1.62697 -1.8148e-19)
(-1.4233 0.521037 2.56367e-19)
(-1.16175 2.1099 -1.01547e-19)
(1.80316 -0.305979 1.12736e-19)
(-0.0343019 -0.119731 -9.17192e-20)
(-0.0527183 -0.00706705 -3.59446e-20)
(-0.0337197 -0.00511574 1.44977e-21)
(-0.000232655 -0.00143611 2.46769e-23)
(-0.00190487 -0.00314369 0)
(-0.00136343 0.00495794 0)
(-0.0052817 0.00754907 0)
(-0.00784295 0.0103191 0)
(-0.00272708 0.00795154 0)
(0.000743685 0.004117 0)
(0.00243072 0.00218303 0)
(0.00339773 0.000258936 0)
(0.00265552 -0.0010254 0)
(0.00152075 -0.00104072 0)
(0.00296734 -0.000717909 0)
(0.0043356 0.00162161 0)
(0.00329096 0.00177273 0)
(0.00271159 0.000698965 0)
(0.00179081 -0.000894453 0)
(0.000541228 -0.000898578 0)
(-0.000360016 -0.000642084 0)
(-0.000189639 0.000655511 0)
(0.00398674 0.00566497 0)
(0.00882624 0.00789903 0)
(0.0084558 0.00532254 0)
(0.00600781 -0.000765939 3.12009e-21)
(0.0102499 0.00195006 0)
(-0.00943157 -0.02814 0)
(-0.0134724 0.0315721 9.99456e-20)
(0.353919 0.136545 3.28083e-19)
(0.976519 0.0147696 4.91387e-19)
(-1.91608 -1.78521 -2.20741e-20)
(-2.28447 -1.3882 -6.29851e-20)
(-0.678077 0.929483 1.56879e-19)
(-0.233387 2.45113 -1.724e-18)
(0.191945 3.11765 -1.28656e-19)
(0.458721 1.9399 -9.68485e-20)
(1.69227 -0.391659 -8.37817e-20)
(2.51493 -2.1609 5.07301e-21)
(-0.314281 -0.703019 -1.38829e-22)
(-0.332127 0.171855 3.03697e-20)
(0.0347055 0.0475532 3.6901e-20)
(0.0252633 -0.015153 0)
(-0.00213554 0.00890703 0)
(0.00211895 0.00502461 -1.89941e-21)
(-0.00243288 0.00772262 0)
(-0.00345633 0.009309 0)