/*--------------------------------*- C++ -*----------------------------------*\
| =========                 |                                                 |
| \\      /  F ield         | OpenFOAM: The Open Source CFD Toolbox           |
|  \\    /   O peration     | Version:  v2106                                 |
|   \\  /    A nd           | Website:  www.openfoam.com                      |
|    \\/     M anipulation  |                                                 |
\*---------------------------------------------------------------------------*/
FoamFile
{
    version     2.0;
    format      ascii;
    arch        "LSB;label=32;scalar=64";
    class       volVectorField;
    location    "0";
    object      U;
}
// * * * * * * * * * * * * * * * * * * * * * * * * * * * * * * * * * * * * * //

dimensions      [0 1 -1 0 0 0 0];

internalField   nonuniform List<vector> 
11644
(
(0.993975 -0.000226737 8.35516e-24)
(0.99387 -0.000603032 2.30411e-23)
(0.993804 -0.000897718 1.23621e-23)
(0.993786 -0.00119862 0)
(0.993782 -0.0015192 0)
(0.993782 -0.00185589 0)
(0.993783 -0.00220662 0)
(0.993784 -0.00256459 0)
(0.993783 -0.00292263 0)
(0.993791 -0.00326016 0)
(0.993764 -0.00357472 0)
(0.993737 -0.00383425 0)
(0.993812 -0.00399916 0)
(0.993974 -0.00408131 0)
(0.993785 -0.00402831 0)
(0.993782 -0.00387346 0)
(0.99388 -0.003668 0)
(0.993882 -0.00336597 0)
(0.993645 -0.00278717 0)
(0.993333 -0.00186277 3.37268e-30)
(0.99318 -0.000760693 -3.35829e-30)
(0.993256 0.000315795 0)
(0.993491 0.00116876 0)
(0.993698 0.00179945 0)
(0.993717 0.00227219 0)
(0.993713 0.0026349 0)
(0.993873 0.00290009 0)
(0.993722 0.00301645 0)
(0.993722 0.00302563 0)
(0.993754 0.00293364 0)
(0.993747 0.00277092 0)
(0.99376 0.00254745 0)
(0.993763 0.00228855 0)
(0.993767 0.00200506 0)
(0.99377 0.0017101 0)
(0.993774 0.00141354 0)
(0.993781 0.00112629 0)
(0.993796 0.000851465 0)
(0.993859 0.000584401 0)
(0.993969 0.00022359 1.61998e-24)
(0.994749 -0.000450395 1.07321e-23)
(0.994683 -0.00136836 9.94141e-24)
(0.994645 -0.00230083 5.33922e-24)
(0.994654 -0.0032411 0)
(0.994691 -0.00420177 0)
(0.994736 -0.00519404 0)
(0.994779 -0.00621481 0)
(0.994811 -0.00725308 0)
(0.994824 -0.00828506 0)
(0.994785 -0.00928169 0)
(0.994734 -0.0101719 0)
(0.994626 -0.0109129 0)
(0.994321 -0.0114396 0)
(0.993794 -0.0116448 0)
(0.993623 -0.0114801 0)
(0.993265 -0.0109668 -8.87992e-25)
(0.992738 -0.00991659 -2.49604e-24)
(0.99197 -0.00816886 1.70033e-23)
(0.991231 -0.0057569 7.47541e-23)
(0.990874 -0.00312068 7.65301e-22)
(0.990882 -0.000538796 -8.33009e-22)
(0.991148 0.00188444 1.15957e-22)
(0.991544 0.00409735 -1.36516e-22)
(0.991951 0.00605543 7.20168e-24)
(0.992465 0.00766312 -3.46124e-24)
(0.992964 0.00877971 0)
(0.993155 0.00945308 0)
(0.993763 0.00967663 0)
(0.994074 0.00955269 0)
(0.994264 0.00915734 0)
(0.99443 0.00853419 0)
(0.994516 0.0077725 0)
(0.994573 0.00691532 0)
(0.994596 0.00600777 0)
(0.994599 0.00508085 0)
(0.994587 0.00415611 0)
(0.994574 0.00324035 0)
(0.994585 0.00232438 0)
(0.994649 0.00139216 0)
(0.994735 0.000462467 0)
(0.99627 -0.000694465 0)
(0.996244 -0.00212364 0)
(0.996262 -0.00360908 0)
(0.996333 -0.00513087 0)
(0.996443 -0.00668895 9.80362e-24)
(0.996568 -0.00829803 0)
(0.996685 -0.00995573 0)
(0.996768 -0.0116452 0)
(0.996781 -0.0133342 0)
(0.9967 -0.014959 0)
(0.996449 -0.0164567 0)
(0.995946 -0.0177197 0)
(0.995275 -0.0185639 2.80866e-24)
(0.99456 -0.0189044 -1.00233e-22)
(0.993178 -0.0185473 1.78097e-22)
(0.991698 -0.0173493 6.52064e-22)
(0.989923 -0.0150777 -4.18836e-22)
(0.988038 -0.0116719 -1.09979e-22)
(0.986707 -0.00760622 3.03508e-23)
(0.986092 -0.00318399 -2.38056e-21)
(0.986114 0.00134325 1.98518e-21)
(0.986683 0.00573369 -4.58267e-22)
(0.987694 0.00970898 9.4837e-22)
(0.989041 0.0130411 -6.81711e-22)
(0.990394 0.0155041 4.59773e-22)
(0.991724 0.0171139 -2.25087e-22)
(0.993385 0.0178944 1.25823e-22)
(0.994147 0.0179727 -3.78125e-24)
(0.99494 0.017433 0)
(0.995574 0.0164138 0)
(0.995975 0.015093 0)
(0.996215 0.0135712 0)
(0.99632 0.0119532 0)
(0.996345 0.0102942 0)
(0.996321 0.00863748 0)
(0.996276 0.00700445 0)
(0.996233 0.00539685 0)
(0.996216 0.0038098 0)
(0.996245 0.00224154 0)
(0.996302 0.00072549 0)
(0.998522 -0.000940558 0)
(0.998527 -0.00285123 0)
(0.998604 -0.00483999 0)
(0.998755 -0.00687751 0)
(0.998959 -0.00899061 0)
(0.999191 -0.01118 0)
(0.999411 -0.0134492 0)
(0.999571 -0.0157841 0)
(0.999609 -0.0181448 0)
(0.999433 -0.0204698 0)
(0.998939 -0.0226498 -1.84293e-24)
(0.998123 -0.0245086 -5.85173e-24)
(0.996728 -0.0258919 2.19628e-22)
(0.994443 -0.0265222 -2.12092e-22)
(0.992121 -0.0259417 8.41796e-22)
(0.988891 -0.0239473 -6.58099e-22)
(0.985121 -0.0202775 -5.06943e-22)
(0.981656 -0.0152754 1.80955e-21)
(0.979216 -0.00907343 -2.2863e-21)
(0.977961 -0.00208766 4.29933e-21)
(0.977889 0.00515838 -3.73073e-21)
(0.978894 0.0120424 8.19781e-22)
(0.981005 0.018148 -1.06495e-21)
(0.983925 0.0229713 1.85657e-21)
(0.987137 0.0263449 -2.79597e-22)
(0.990351 0.0282525 -1.16714e-21)
(0.992568 0.0289295 3.13428e-22)
(0.995283 0.0281929 -1.83404e-22)
(0.996983 0.0267512 -6.89736e-23)
(0.998065 0.0247679 2.79816e-24)
(0.998721 0.0224182 0)
(0.999061 0.0198945 0)
(0.999185 0.0173149 0)
(0.99916 0.0147633 0)
(0.999057 0.0122775 0)
(0.998924 0.00987718 0)
(0.998798 0.00756102 0)
(0.998712 0.00531875 0)
(0.998684 0.00314249 0)
(0.998711 0.00104352 0)
(1.00141 -0.001157 0)
(1.00145 -0.00354035 0)
(1.00161 -0.00595421 0)
(1.00187 -0.0084706 0)
(1.0022 -0.0110902 0)
(1.00258 -0.0138389 0)
(1.00294 -0.0167204 0)
(1.00322 -0.0197279 0)
(1.00333 -0.0228319 0)
(1.0031 -0.0259817 -3.52959e-24)
(1.00247 -0.0290365 -7.43281e-23)
(1.00111 -0.0318856 5.68033e-23)
(0.998819 -0.0341396 -1.07597e-21)
(0.995817 -0.0352825 1.93915e-21)
(0.990627 -0.0349599 -9.84617e-23)
(0.98481 -0.032431 -1.41272e-21)
(0.978853 -0.0279647 9.30131e-22)
(0.972364 -0.0210676 1.09532e-21)
(0.967534 -0.0116878 -1.49889e-21)
(0.964932 -0.000398741 1.60997e-21)
(0.965116 0.0114893 -1.22111e-21)
(0.967979 0.0224461 -7.51572e-22)
(0.972636 0.0312734 8.82456e-22)
(0.978358 0.0373153 -9.6641e-22)
(0.983987 0.0410753 2.11029e-21)
(0.989458 0.0427946 -7.34762e-22)
(0.994897 0.0421733 -2.2365e-21)
(0.997711 0.0405547 1.03343e-21)
(1.00025 0.0376979 3.93654e-22)
(1.00199 0.0341598 2.61099e-23)
(1.00294 0.0303754 -7.36348e-24)
(1.00331 0.0265548 0)
(1.00333 0.0228294 0)
(1.00315 0.0192603 0)
(1.00287 0.015878 0)
(1.00257 0.0126795 0)
(1.00229 0.00965347 0)
(1.00207 0.00677279 0)
(1.00195 0.00399173 0)
(1.00193 0.00130343 0)
(1.00486 -0.00139988 0)
(1.00495 -0.0041605 0)
(1.0052 -0.00703317 0)
(1.00559 -0.00997479 0)
(1.0061 -0.0130557 0)
(1.00668 -0.0163211 0)
(1.00727 -0.0197974 0)
(1.00777 -0.0235003 0)
(1.00806 -0.0274463 -1.23048e-23)
(1.00801 -0.0315875 5.81501e-23)
(1.00731 -0.035891 -5.77276e-23)
(1.00558 -0.0400916 -2.98008e-22)
(1.00239 -0.0437885 8.58568e-22)
(0.996457 -0.0468591 8.9435e-22)
(0.989635 -0.0471844 1.82557e-21)
(0.980083 -0.0448475 -3.25808e-21)
(0.968743 -0.0399521 6.98861e-22)
(0.95798 -0.0306985 6.57497e-23)
(0.949116 -0.0163396 -5.73565e-23)
(0.944454 0.000686796 -4.06212e-21)
(0.944852 0.0185787 3.38142e-21)
(0.950333 0.0353843 -2.1522e-21)
(0.959466 0.0491472 3.25498e-21)
(0.97072 0.0574211 -8.54071e-22)
(0.981229 0.0606307 3.62059e-21)
(0.99051 0.0613824 -2.07684e-21)
(0.996847 0.0597661 -9.23015e-22)
(1.00304 0.0546118 -3.26314e-22)
(1.00623 0.0494564 -1.44561e-22)
(1.00805 0.0440424 -6.14589e-22)
(1.00901 0.0385126 1.68769e-22)
(1.00923 0.0331544 1.41164e-23)
(1.00896 0.0281194 0)
(1.00844 0.0234537 0)
(1.00782 0.01915 0)
(1.0072 0.0151775 0)
(1.00666 0.0114919 0)
(1.00624 0.00803521 0)
(1.00596 0.00476443 0)
(1.00586 0.00157545 0)
(1.0088 -0.00150861 0)
(1.00895 -0.00466285 0)
(1.00932 -0.00785742 0)
(1.0099 -0.0111884 0)
(1.01064 -0.0147237 0)
(1.0115 -0.0184953 0)
(1.01242 -0.0225645 0)
(1.0133 -0.026997 6.02017e-24)
(1.01405 -0.03188 2.70911e-23)
(1.01439 -0.0372961 -1.01412e-22)
(1.01383 -0.043138 -1.59028e-22)
(1.01189 -0.0492561 3.38051e-22)
(1.00795 -0.0556671 -7.01681e-23)
(1.00253 -0.0604606 -8.97951e-22)
(0.990936 -0.0653181 1.91028e-21)
(0.976791 -0.0654609 -1.58712e-21)
(0.965551 -0.0550245 -8.76827e-22)
(0.949521 -0.0454476 -3.2335e-21)
(0.934369 -0.0282396 -4.46299e-21)
(0.924792 -0.00456489 2.14496e-21)
(0.923823 0.0218041 4.29925e-21)
(0.931413 0.0458004 3.61117e-21)
(0.944563 0.0642564 -8.13447e-23)
(0.960574 0.0751324 -3.36843e-21)
(0.980331 0.0882555 1.33213e-21)
(0.994825 0.0857755 -2.46021e-21)
(1.00691 0.0779537 8.85753e-22)
(1.01149 0.0709175 -3.32646e-22)
(1.01525 0.062046 3.96039e-22)
(1.01695 0.0536177 -4.09765e-22)
(1.01735 0.0459969 2.03833e-22)
(1.01698 0.0390448 1.72088e-22)
(1.01613 0.0326995 3.25562e-24)
(1.01499 0.0269679 0)
(1.01382 0.0218276 0)
(1.01272 0.0171972 0)
(1.01179 0.0129736 0)
(1.01106 0.00906562 0)
(1.01058 0.00532842 0)
(1.01036 0.0017811 0)
(1.01313 -0.00174125 0)
(1.01335 -0.00511979 0)
(1.01388 -0.00860489 0)
(1.01467 -0.0122572 0)
(1.01572 -0.016126 0)
(1.01698 -0.0203183 0)
(1.01837 -0.0249241 0)
(1.01988 -0.0300813 -2.51541e-23)
(1.02138 -0.0359445 9.24715e-23)
(1.02237 -0.0426259 -2.24495e-22)
(1.02248 -0.0501107 -1.61215e-22)
(1.02128 -0.0583291 -4.79175e-22)
(1.01841 -0.0669315 7.54804e-22)
(1.00829 -0.0748752 -2.1337e-23)
(0.999563 -0.0791697 1.41534e-21)
(0.98379 -0.0848063 -7.55547e-22)
(0.958551 -0.0857644 -4.27963e-24)
(0.930891 -0.0759566 -1.34873e-21)
(0.901741 -0.053667 6.74525e-22)
(0.881076 -0.0167174 9.25628e-22)
(0.877523 0.0281072 -3.93048e-21)
(0.892533 0.0690865 3.13599e-21)
(0.919406 0.0975951 -3.29042e-21)
(0.949964 0.110996 3.88874e-21)
(0.977074 0.114419 -1.94228e-21)
(0.998521 0.107207 -8.3257e-22)
(1.01213 0.0966442 2.84029e-21)
(1.02612 0.0858213 -9.09168e-22)
(1.02877 0.0735076 1.67118e-21)
(1.02916 0.0620945 -7.12635e-22)
(1.02821 0.0520044 1.90595e-22)
(1.02661 0.0433793 3.82589e-23)
(1.02474 0.035914 -4.85917e-23)
(1.0227 0.0293369 0)
(1.0207 0.0235369 0)
(1.01893 0.0183989 0)
(1.01746 0.0137811 0)
(1.01635 0.00955825 0)
(1.0156 0.00563783 0)
(1.01526 0.00180943 0)
(1.01777 -0.00169729 0)
(1.01807 -0.00534176 0)
(1.01877 -0.00906591 0)
(1.01984 -0.0129588 0)
(1.02127 -0.0171188 0)
(1.02303 -0.0216633 0)
(1.02508 -0.0267137 -3.94799e-24)
(1.02748 -0.0324635 -2.95039e-24)
(1.02991 -0.0391297 3.88781e-24)
(1.03199 -0.0467412 1.77948e-23)
(1.03351 -0.0555203 -1.63364e-22)
(1.0341 -0.0661228 2.8216e-22)
(1.03278 -0.080501 -2.65779e-22)
(1.02263 -0.0925489 2.91044e-22)
(1.01285 -0.10415 -5.8308e-22)
(0.99424 -0.12003 8.10751e-22)
(0.96514 -0.125559 7.59135e-22)
(0.91977 -0.126189 -2.12433e-21)
(0.866023 -0.102713 2.3596e-21)
(0.819541 -0.0478966 3.32408e-22)
(0.80584 0.0304696 2.4385e-22)
(0.832811 0.10187 -7.25108e-21)
(0.883839 0.145264 -4.6576e-21)
(0.938094 0.160344 -1.52209e-21)
(0.981557 0.154139 -2.72966e-21)
(1.01523 0.141021 -1.65335e-22)
(1.0307 0.121614 -2.3633e-22)
(1.04658 0.101742 -3.63579e-22)
(1.04711 0.0831765 6.70799e-22)
(1.04497 0.0681511 -3.06126e-22)
(1.04164 0.0556956 2.22971e-22)
(1.03798 0.0455247 -3.91243e-23)
(1.03447 0.0371595 -2.55521e-22)
(1.03122 0.0300751 -7.05809e-24)
(1.02816 0.0239541 0)
(1.02555 0.0186282 0)
(1.02343 0.0139233 0)
(1.02184 0.00964278 0)
(1.02079 0.00569143 0)
(1.02028 0.00192197 0)
(1.02258 -0.00194091 0)
(1.02299 -0.00553579 0)
(1.02389 -0.00930805 0)
(1.02528 -0.0132679 0)
(1.02716 -0.0175686 0)
(1.02952 -0.0222845 0)
(1.03241 -0.0275885 2.58552e-23)
(1.03583 -0.0336808 -8.65031e-23)
(1.0393 -0.0406135 -9.27275e-24)
(1.04287 -0.0485752 9.09585e-23)
(1.04661 -0.0581924 8.93763e-23)
(1.05046 -0.0702929 -1.72176e-22)
(1.05403 -0.0875146 9.41312e-23)
(1.04921 -0.106098 -2.68486e-23)
(1.04306 -0.127409 -8.94609e-24)
(1.02228 -0.158312 5.79263e-23)
(0.988937 -0.184719 -1.16493e-22)
(0.92715 -0.213922 -2.97822e-22)
(0.824237 -0.214568 6.37625e-22)
(0.7022 -0.136869 -2.16373e-21)
(0.649467 0.0278678 -6.72124e-22)
(0.719407 0.183877 -2.18331e-23)
(0.843469 0.248682 -7.19873e-22)
(0.943006 0.242468 9.49637e-22)
(1.01065 0.212349 2.97512e-23)
(1.05181 0.176431 -5.60525e-22)
(1.06382 0.140971 -7.15008e-22)
(1.07556 0.110553 2.61971e-22)
(1.07067 0.087552 -7.67222e-22)
(1.06429 0.0700332 4.9129e-22)
(1.05739 0.0560472 6.02818e-23)
(1.05076 0.0448037 -9.23229e-23)
(1.0449 0.035948 1.50119e-23)
(1.04003 0.0288286 -4.11815e-23)
(1.03576 0.0228161 0)
(1.03218 0.0176678 0)
(1.02934 0.0131632 0)
(1.02724 0.00914724 0)
(1.02583 0.00531634 0)
(1.02517 0.0017697 0)
(1.02743 -0.00167502 0)
(1.02794 -0.00541525 0)
(1.02908 -0.00916905 0)
(1.03083 -0.013144 0)
(1.03321 -0.0174193 0)
(1.03626 -0.0221074 0)
(1.04006 -0.0273757 -2.29821e-24)
(1.04439 -0.0333332 6.48107e-24)
(1.04888 -0.0398698 -4.69359e-23)
(1.05419 -0.0472809 3.92389e-23)
(1.06087 -0.056625 -9.13358e-23)
(1.06938 -0.0686316 4.68774e-23)
(1.07957 -0.083626 -9.06543e-23)
(1.08434 -0.107632 4.24771e-22)
(1.09027 -0.138174 5.29855e-23)
(1.08886 -0.184428 -3.12864e-22)
(1.07078 -0.248544 -1.54361e-22)
(1.01643 -0.350365 -8.49507e-23)
(0.848647 -0.466774 -1.41227e-21)
(0.46996 -0.450191 -6.12587e-20)
(0.187176 0.0358171 1.9971e-21)
(0.507631 0.487972 -4.29959e-20)
(0.868136 0.481078 2.09562e-21)
(1.02911 0.362267 -7.03649e-23)
(1.08929 0.265509 4.58902e-23)
(1.11253 0.193954 1.74202e-22)
(1.10986 0.149977 1.30637e-22)
(1.10979 0.105819 -2.32921e-23)
(1.09806 0.0838668 2.59534e-23)
(1.08612 0.0660533 3.44358e-23)
(1.07455 0.0517683 -1.1225e-22)
(1.06422 0.0405488 7.6205e-23)
(1.05542 0.0319424 -2.06915e-23)
(1.04848 0.025323 1.13633e-23)
(1.0429 0.0199454 0)
(1.03829 0.0153611 0)
(1.0347 0.0113756 0)
(1.03209 0.00782429 0)
(1.03044 0.00466485 0)
(1.0296 0.00144237 0)
(1.03214 -0.0017502 0)
(1.0328 -0.00517687 0)
(1.03417 -0.00870489 0)
(1.03629 -0.0124821 0)
(1.0392 -0.0165261 0)
(1.04292 -0.0209613 0)
(1.04749 -0.0258429 1.49668e-23)
(1.0524 -0.0310781 3.56465e-23)
(1.05772 -0.0364981 5.69202e-23)
(1.06467 -0.0424322 6.81818e-23)
(1.07399 -0.0495117 1.49649e-22)
(1.08686 -0.0583119 2.52107e-22)
(1.10498 -0.0695219 -5.75617e-22)
(1.11729 -0.0917578 -2.02859e-22)
(1.14491 -0.11834 -1.07593e-22)
(1.17145 -0.167547 -4.60524e-22)
(1.20768 -0.244506 -1.17368e-22)
(1.26175 -0.391639 1.60093e-21)
(0.969406 -0.526684 -1.02415e-19)
(1.05249 0.548629 4.74229e-20)
(1.24802 0.39467 -4.61362e-23)
(1.2096 0.257063 -8.79107e-23)
(1.18647 0.174864 -6.60591e-23)
(1.1625 0.135291 -4.25204e-23)
(1.1459 0.0884422 1.09069e-22)
(1.12596 0.0699739 -7.10548e-23)
(1.10772 0.0543602 -5.29618e-23)
(1.09123 0.0419858 -1.07885e-23)
(1.07707 0.0323945 6.53715e-24)
(1.06525 0.0251073 1.75149e-23)
(1.05599 0.0196666 2.26767e-23)
(1.0491 0.0154882 0)
(1.04366 0.0120066 0)
(1.03947 0.00899373 0)
(1.03636 0.00625179 0)
(1.0343 0.00368924 0)
(1.03331 0.00133523 0)
(1.0366 -0.00171897 0)
(1.03741 -0.00476257 0)
(1.03905 -0.00800736 0)
(1.0415 -0.0113129 0)
(1.04485 -0.0148989 0)
(1.04913 -0.0188291 0)
(1.05415 -0.0230192 -6.23834e-24)
(1.05915 -0.0270689 -8.17333e-24)
(1.06475 -0.0308325 -1.5641e-24)
(1.07257 -0.0345583 6.16825e-23)
(1.08332 -0.0383151 -8.80522e-23)
(1.0982 -0.0419708 1.41388e-22)
(1.11977 -0.0452649 3.27318e-22)
(1.1414 -0.0591794 3.75585e-22)
(1.18268 -0.069155 5.1005e-21)
(1.2323 -0.0962749 -4.24134e-22)
(1.31186 -0.133678 -1.81091e-22)
(1.44012 -0.176783 2.65516e-21)
(0.0223323 -0.00731322 6.0425e-19)
(0.0314063 -0.0143469 -1.25374e-19)
(1.3926 0.238849 -2.26574e-22)
(1.30411 0.179213 1.42783e-23)
(1.24897 0.123322 1.11568e-21)
(1.20852 0.0949545 1.60856e-21)
(1.17559 0.0572039 2.21686e-22)
(1.14866 0.0454054 -6.1199e-23)
(1.12537 0.0350821 -5.63791e-23)
(1.10503 0.0269839 2.84921e-23)
(1.08768 0.0205991 -2.8461e-24)
(1.07312 0.0156798 1.85435e-25)
(1.06168 0.0121339 -6.85939e-25)
(1.0535 0.00961942 0)
(1.04735 0.00755946 0)
(1.04269 0.00571347 0)
(1.03931 0.00402094 0)
(1.03706 0.00236906 0)
(1.03591 0.000744125 0)
(1.04068 -0.00101262 -5.53381e-25)
(1.04152 -0.00383681 0)
(1.04332 -0.00658006 0)
(1.04609 -0.00947942 0)
(1.04986 -0.01257 0)
(1.05459 -0.0158841 0)
(1.05959 -0.019156 1.06063e-24)
(1.06411 -0.0218989 -3.44355e-23)
(1.06943 -0.0240055 1.22825e-22)
(1.07713 -0.0255509 -4.67723e-22)
(1.0879 -0.0261755 2.74582e-22)
(1.10236 -0.0250554 7.27641e-22)
(1.12246 -0.0195402 -6.56915e-22)
(1.14598 -0.0209062 4.3719e-23)
(1.18497 -0.0115524 6.30402e-24)
(1.23955 -0.00643565 -3.89296e-22)
(1.32123 0.00313539 6.9098e-22)
(1.3751 0.033319 -2.85731e-22)
(0.222642 0.0132166 -2.56947e-21)
(0.0598835 0.0352756 1.02902e-20)
(1.35672 0.0993929 3.33438e-22)
(1.34393 0.0874787 -6.31649e-22)
(1.28379 0.0557656 3.70143e-22)
(1.23704 0.0408738 2.84491e-22)
(1.19235 0.0161462 -1.7437e-22)
(1.16178 0.0134335 -3.39809e-22)
(1.1357 0.0103956 4.43731e-22)
(1.11337 0.008103 -1.56422e-22)
(1.09427 0.00610021 8.43233e-23)
(1.07804 0.0044981 1.47836e-23)
(1.06501 0.00344648 6.62313e-24)
(1.05587 0.00293584 0)
(1.04941 0.00253132 0)
(1.04456 0.00203981 0)
(1.04111 0.001514 0)
(1.03895 0.000930357 0)
(1.0379 0.000326179 0)
(1.04406 -0.00110553 2.54826e-26)
(1.04511 -0.00305648 0)
(1.04714 -0.00516785 0)
(1.05015 -0.00745017 0)
(1.05417 -0.00981473 0)
(1.05908 -0.0123222 0)
(1.0636 -0.014615 3.24477e-25)
(1.0674 -0.01633 9.04375e-24)
(1.07209 -0.0173393 -2.27004e-23)
(1.07888 -0.0175244 1.81437e-22)
(1.08765 -0.0163169 -1.3602e-23)
(1.09779 -0.012593 -5.85255e-23)
(1.10977 -0.00462099 2.84939e-22)
(1.12739 0.00775788 -1.98898e-21)
(1.15167 0.0303099 6.83636e-23)
(1.19033 0.0678884 -2.10875e-21)
(1.25437 0.124215 -5.87074e-22)
(1.28334 0.221321 1.64176e-21)
(0.490638 0.185256 -1.30801e-21)
(-0.124266 0.153867 -2.71325e-21)
(-0.220206 0.321405 1.22315e-22)
(0.0331254 0.392594 -2.88371e-22)
(0.28018 0.147364 1.30849e-21)
(1.33238 0.0274823 -9.38633e-22)
(1.36522 0.000644179 3.35145e-21)
(1.29694 -0.0191856 -2.24058e-21)
(1.24485 -0.0195528 4.94837e-22)
(1.19378 -0.0289929 6.45808e-22)
(1.16253 -0.0217735 -4.70468e-22)
(1.13644 -0.0167851 1.57026e-22)
(1.11421 -0.0124762 1.04994e-22)
(1.09513 -0.0094972 5.55845e-23)
(1.0788 -0.0073588 3.43748e-23)
(1.06528 -0.00551376 2.22271e-24)
(1.05583 -0.00376681 0)
(1.04951 -0.00246436 0)
(1.04486 -0.00161887 0)
(1.04155 -0.00105724 0)
(1.03943 -0.000670179 0)
(1.03827 -0.000314915 0)
(1.04722 -0.000951679 -1.98362e-23)
(1.04819 -0.00227235 0)
(1.05025 -0.00368007 0)
(1.05332 -0.0051191 0)
(1.05739 -0.0066132 0)
(1.06226 -0.00823154 0)
(1.06642 -0.009743 -6.85037e-25)
(1.06952 -0.0108516 -5.87972e-23)
(1.0736 -0.011685 -3.49448e-23)
(1.07879 -0.0120728 2.08925e-22)
(1.08466 -0.0118658 -1.95979e-22)
(1.09022 -0.0107331 1.86034e-22)
(1.09445 -0.00748551 -1.08649e-22)
(1.10093 0.00764226 -1.80714e-21)
(1.09817 0.0323556 -6.86374e-22)
(1.08692 0.0894752 1.8883e-21)
(1.09381 0.179436 -7.08779e-21)
(1.00973 0.36232 -5.41649e-21)
(0.423597 0.587843 -5.38961e-22)
(-0.28997 0.717899 -1.90825e-20)
(-0.229818 0.652728 5.86579e-22)
(0.356669 0.41618 4.75375e-22)
(0.774702 0.105041 -1.82297e-21)
(1.42795 -0.099234 -1.63426e-22)
(1.37293 -0.108716 4.90846e-21)
(1.28684 -0.105102 3.02724e-21)
(1.23172 -0.0822791 -3.19823e-21)
(1.17748 -0.0731787 1.20068e-21)
(1.14926 -0.0552868 -1.58716e-21)
(1.12609 -0.0421762 8.37047e-23)
(1.10641 -0.0315996 -2.56479e-22)
(1.08935 -0.023735 9.93133e-23)
(1.0744 -0.0178267 4.17523e-24)
(1.06173 -0.0132191 1.12858e-25)
(1.05308 -0.00950419 0)
(1.0475 -0.00670787 0)
(1.04341 -0.00462478 0)
(1.04045 -0.00300883 0)
(1.03854 -0.00165641 0)
(1.0376 -0.000501773 2.5116e-23)
(1.04895 -6.99507e-05 9.43898e-23)
(1.04998 -0.000840013 0)
(1.05189 -0.00154382 0)
(1.05495 -0.00224155 0)
(1.05915 -0.00293081 0)
(1.06412 -0.00369067 0)
(1.0683 -0.00460741 0)
(1.0711 -0.00564519 -2.09822e-24)
(1.07508 -0.00704177 -6.4357e-23)
(1.08038 -0.0094037 7.32101e-23)
(1.08562 -0.0125967 -7.52871e-23)
(1.08945 -0.0165342 3.49439e-22)
(1.089 -0.0213707 -4.11655e-22)
(1.07561 -0.0293918 -7.03253e-23)
(1.05604 -0.00636635 4.68353e-23)
(1.00617 0.0138506 1.04256e-21)
(0.932024 0.0854691 1.04916e-21)
(0.684039 0.239979 2.79963e-20)
(0.106898 0.517568 5.09123e-21)
(-0.226193 0.523817 9.31526e-21)
(0.129064 0.258066 -4.35378e-22)
(0.73194 -0.00838776 2.49366e-20)
(1.17985 -0.247315 4.35629e-21)
(1.42788 -0.313611 -1.35306e-20)
(1.30616 -0.246471 -1.96693e-21)
(1.2411 -0.189948 -2.95681e-21)
(1.17232 -0.145286 -9.88931e-22)
(1.14312 -0.108778 1.25436e-21)
(1.12248 -0.0814483 -7.70155e-22)
(1.10544 -0.0612744 1.71951e-22)
(1.09078 -0.0453787 -1.53513e-22)
(1.0776 -0.0336786 9.62748e-23)
(1.06553 -0.0248502 -9.55625e-24)
(1.05495 -0.0182778 0)
(1.04797 -0.0133097 0)
(1.04369 -0.00956258 0)
(1.04055 -0.00664408 0)
(1.03826 -0.00431097 0)
(1.03675 -0.00233578 0)
(1.03608 -0.000677939 2.62633e-24)
(1.04873 0.000222692 -4.0787e-24)
(1.05004 0.000557999 0)
(1.05219 0.000872666 0)
(1.05535 0.00102821 0)
(1.05963 0.00115438 0)
(1.06475 0.00124837 0)
(1.06941 0.000960966 0)
(1.07297 -0.000192459 0)
(1.07788 -0.00252202 4.08775e-24)
(1.08445 -0.00644833 4.31864e-24)
(1.09176 -0.0125508 1.8327e-23)
(1.09865 -0.0220236 -2.52872e-23)
(1.10215 -0.035093 1.27077e-22)
(1.09658 -0.0614856 2.53684e-22)
(1.06243 -0.0714008 -5.66723e-22)
(1.00289 -0.107117 1.38149e-21)
(0.855341 -0.107998 1.74872e-21)
(0.37153 0.0338852 1.65995e-21)
(0.0535122 0.0449518 2.50913e-21)
(0.125485 -0.198375 -4.62935e-21)
(0.517635 -0.484891 6.59168e-21)
(0.955606 -0.638149 -3.4439e-21)
(1.25474 -0.60983 -3.93501e-21)
(1.2667 -0.45778 -1.4929e-21)
(1.19079 -0.32951 1.27114e-22)
(1.15712 -0.248472 -3.02067e-21)
(1.10583 -0.173909 2.87036e-22)
(1.09486 -0.127473 -4.77481e-22)
(1.08553 -0.0952793 1.1752e-24)
(1.07738 -0.0707475 6.42792e-26)
(1.06977 -0.0516783 -3.05938e-23)
(1.06207 -0.0377364 -9.98375e-24)
(1.05401 -0.0273855 0)
(1.04648 -0.0198762 0)
(1.04167 -0.0145064 0)
(1.03887 -0.0105182 0)
(1.03682 -0.00735491 1.54755e-23)
(1.0353 -0.00484179 2.14016e-23)
(1.03434 -0.00270133 1.2762e-23)
(1.03395 -0.000888945 0)
(1.04776 0.000482794 0)
(1.04901 0.00170848 0)
(1.05123 0.00301759 0)
(1.05444 0.00423046 0)
(1.05876 0.00538068 0)
(1.0641 0.00650331 0)
(1.06965 0.00721715 0)
(1.0749 0.00660367 0)
(1.08182 0.00432598 -8.19725e-26)
(1.09117 0.000214607 7.8998e-24)
(1.10285 -0.00637736 -2.84559e-23)
(1.11728 -0.0178102 -1.25361e-22)
(1.13261 -0.0349665 2.23993e-22)
(1.14587 -0.0629725 -7.66336e-22)
(1.12682 -0.108612 8.19923e-22)
(1.10429 -0.187574 -4.51744e-22)
(0.832824 -0.251783 -2.56644e-21)
(0.366454 -0.296216 -6.53713e-22)
(0.353899 -0.487923 1.30695e-21)
(0.490552 -0.701158 -2.88479e-21)
(0.711827 -0.817756 1.8105e-21)
(0.90048 -0.790663 7.15126e-21)
(0.99773 -0.645895 -1.81795e-21)
(1.05165 -0.477579 1.01496e-21)
(1.05355 -0.344963 -8.78379e-23)
(1.05048 -0.255428 1.74543e-21)
(1.03375 -0.17195 -2.47456e-22)
(1.04028 -0.125223 4.53227e-22)
(1.04366 -0.0935489 -2.2482e-22)
(1.04571 -0.0686353 -1.77069e-23)
(1.04598 -0.0496787 1.0638e-24)
(1.04435 -0.0356996 3.89268e-26)
(1.04111 -0.0252779 0)
(1.03749 -0.0179539 0)
(1.0352 -0.0131118 0)
(1.03395 -0.00960009 0)
(1.03296 -0.00679459 0)
(1.03217 -0.00456961 0)
(1.03164 -0.00266423 0)
(1.03144 -0.000859167 -2.29845e-24)
(1.04585 0.000880837 0)
(1.04693 0.00284028 0)
(1.04898 0.00493377 0)
(1.05208 0.00714434 0)
(1.05634 0.00945329 0)
(1.06185 0.0119014 0)
(1.06843 0.0142554 0)
(1.07584 0.0155203 0)
(1.08532 0.0152352 0)
(1.09778 0.0134814 0)
(1.1142 0.0102322 5.13255e-24)
(1.13603 0.00360167 6.5018e-23)
(1.16496 -0.00824768 -1.63061e-22)
(1.20057 -0.0222799 3.03528e-22)
(1.22107 -0.0760474 4.52389e-21)
(1.24743 -0.152178 3.38375e-23)
(0.970072 -0.278031 1.27532e-21)
(0.635671 -0.503316 -1.01935e-21)
(0.561978 -0.674826 -6.3456e-22)
(0.595102 -0.73888 -1.44213e-20)
(0.671324 -0.710896 1.19986e-22)
(0.756453 -0.619408 1.73887e-21)
(0.8336 -0.51906 -1.77946e-21)
(0.895775 -0.431392 -1.70003e-21)
(0.905996 -0.30598 2.40316e-21)
(0.949001 -0.217849 -2.58656e-22)
(0.965686 -0.139836 -4.52084e-23)
(0.988207 -0.100071 1.07103e-23)
(1.00486 -0.0740007 -6.96633e-24)
(1.01621 -0.0535688 -1.7099e-24)
(1.02346 -0.0382738 0)
(1.02736 -0.026825 0)
(1.02895 -0.01833 0)
(1.02939 -0.0127225 0)
(1.0297 -0.00933739 0)
(1.0298 -0.00693232 0)
(1.02963 -0.00500798 0)
(1.02934 -0.00342692 0)
(1.0291 -0.00203647 0)
(1.02904 -0.000672373 0)
(1.04281 0.00128239 0)
(1.04367 0.00391543 0)
(1.04545 0.00671049 0)
(1.04823 0.00976542 0)
(1.05215 0.013192 0)
(1.05744 0.0170977 0)
(1.06443 0.0214842 0)
(1.07326 0.0256642 0)
(1.08445 0.0292238 0)
(1.09865 0.032377 0)
(1.11731 0.0359046 0)
(1.14246 0.0395106 4.65626e-25)
(1.17711 0.0417955 1.6012e-23)
(1.22552 0.0500225 8.08236e-24)
(1.28081 0.0201793 1.55637e-21)
(1.35995 -0.00716595 -5.78364e-23)
(1.22983 -0.116599 1.84547e-21)
(0.95178 -0.328249 -3.78245e-21)
(0.754108 -0.547907 -2.24359e-21)
(0.644207 -0.682347 -7.08379e-21)
(0.593666 -0.707013 -3.04766e-21)
(0.603733 -0.630319 3.94286e-22)
(0.6698 -0.49295 -1.72896e-21)
(0.743865 -0.34027 5.42391e-22)
(0.786749 -0.203547 4.24282e-22)
(0.869565 -0.144009 -1.49242e-22)
(0.913951 -0.0758045 -2.49042e-22)
(0.949668 -0.0524374 2.7376e-23)
(0.977213 -0.0372926 7.78981e-26)
(0.99558 -0.0263843 0)
(1.00783 -0.0182085 0)
(1.01573 -0.0120996 0)
(1.02088 -0.0077111 0)
(1.02439 -0.00518757 0)
(1.02655 -0.0039401 0)
(1.02744 -0.00307024 0)
(1.02764 -0.00231415 0)
(1.02756 -0.00160375 0)
(1.02742 -0.000947213 0)
(1.02735 -0.00031153 0)
(1.03875 0.00148984 0)
(1.03943 0.00462837 0)
(1.04084 0.0080026 0)
(1.04306 0.0117881 0)
(1.04622 0.0161933 0)
(1.05061 0.0213969 0)
(1.05692 0.0275801 0)
(1.06561 0.0345238 0)
(1.07658 0.0421923 0)
(1.08991 0.0509833 0)
(1.10671 0.0622346 2.94939e-23)
(1.12902 0.0770211 0)
(1.1582 0.0957526 0)
(1.20069 0.123773 1.35309e-22)
(1.27025 0.167713 -2.03868e-21)
(1.36009 0.181869 3.06267e-21)
(1.36591 0.198126 -3.29725e-22)
(1.22418 0.126668 1.04703e-21)
(1.0122 0.00498781 7.26971e-22)
(0.801703 -0.11059 4.13646e-20)
(0.59867 -0.187034 -9.76487e-23)
(0.489342 -0.214858 3.47727e-21)
(0.480045 -0.194253 7.76087e-22)
(0.554687 -0.137959 3.74548e-22)
(0.69655 -0.0731759 -5.28774e-23)
(0.830344 -0.00515602 1.05389e-20)
(0.890564 0.0100914 -5.01235e-22)
(0.935472 0.0104802 0)
(0.968455 0.00986164 0)
(0.989524 0.0073015 1.49723e-23)
(1.00327 0.00571222 0)
(1.01248 0.00469203 0)
(1.01898 0.00384673 0)
(1.02369 0.00278571 0)
(1.02637 0.00169533 0)
(1.02726 0.000905304 0)
(1.02737 0.000426827 0)
(1.02723 0.000172432 -2.54699e-24)
(1.02706 5.08578e-05 -1.82724e-24)
(1.02695 1.69757e-05 0)
(1.03427 0.00153252 0)
(1.03465 0.00494716 0)
(1.03549 0.00866006 0)
(1.03688 0.0129154 0)
(1.03891 0.0179097 0)
(1.04186 0.0238814 0)
(1.04662 0.0311169 0)
(1.0537 0.0397254 0)
(1.06242 0.0501778 0)
(1.07221 0.0631309 0)
(1.08359 0.0801821 -1.50705e-22)
(1.09775 0.102833 0)
(1.11511 0.133281 0)
(1.13946 0.173492 2.72618e-22)
(1.17196 0.234401 1.01292e-21)
(1.22137 0.330641 8.53707e-23)
(1.24225 0.45311 0)
(1.17641 0.550544 -5.81969e-22)
(1.04406 0.59317 8.65584e-21)
(0.882346 0.58755 2.9644e-20)
(0.726378 0.525168 -1.93911e-22)
(0.634798 0.430431 2.66489e-21)
(0.614841 0.310032 -5.04515e-22)
(0.635941 0.196005 0)
(0.702127 0.122513 -3.74417e-21)
(0.801368 0.127495 -1.05795e-20)
(0.89281 0.103397 -4.93656e-21)
(0.951685 0.0786677 0)
(0.983696 0.0570062 0)
(1.00069 0.0389546 9.37765e-23)
(1.01116 0.0272099 0)
(1.01807 0.0192299 0)
(1.02317 0.0135292 0)
(1.02706 0.00930094 0)
(1.02895 0.00615717 0)
(1.02904 0.00392751 4.60786e-24)
(1.02853 0.00239036 -5.98784e-24)
(1.02802 0.00134915 0)
(1.02763 0.000633956 0)
(1.02737 0.000141612 -1.40712e-23)
(1.02971 0.00165146 0)
(1.02963 0.00500833 0)
(1.02981 0.00868465 0)
(1.03031 0.0128616 0)
(1.03111 0.0177493 0)
(1.03244 0.0236346 0)
(1.0352 0.0309177 -2.26572e-24)
(1.03976 0.0399196 0)
(1.04483 0.0513727 0)
(1.04938 0.0661015 0)
(1.05354 0.0855471 0)
(1.05736 0.111141 0)
(1.06095 0.145229 0)
(1.06574 0.189372 -9.3906e-23)
(1.06571 0.245582 -1.54335e-23)
(1.06715 0.3215 -7.958e-23)
(1.06969 0.423459 0)
(1.04082 0.521714 0)
(0.971225 0.591823 2.92468e-21)
(0.881213 0.623431 3.15623e-20)
(0.795714 0.611236 1.32766e-20)
(0.765611 0.560302 -2.13584e-22)
(0.769559 0.489006 0)
(0.787143 0.400487 0)
(0.786746 0.301879 0)
(0.845249 0.245462 1.11377e-22)
(0.940871 0.182976 7.38713e-21)
(1.00463 0.129875 1.40153e-22)
(1.02377 0.0898295 0)
(1.02837 0.0599533 0)
(1.03016 0.0409759 0)
(1.03102 0.0279703 0)
(1.03218 0.0189574 2.02207e-23)
(1.03354 0.0126535 8.28647e-24)
(1.03355 0.00826508 4.17462e-25)
(1.03222 0.00526488 0)
(1.03071 0.00321527 0)
(1.0295 0.00182092 0)
(1.02861 0.000873148 0)
(1.02799 0.000212622 0)
(1.02514 0.00164114 0)
(1.02486 0.00457619 0)
(1.0246 0.00773119 0)
(1.02439 0.0112017 0)
(1.02408 0.0152685 0)
(1.02381 0.0201981 0)
(1.02434 0.026501 0)
(1.02589 0.034748 0)
(1.02679 0.0456155 -1.90537e-24)
(1.02579 0.05986 0)
(1.02267 0.0785049 0)
(1.01683 0.103118 0)
(1.00759 0.134579 -5.7129e-22)
(0.998945 0.175995 -1.02169e-21)
(0.988166 0.225207 0)
(0.965539 0.281278 0)
(0.94595 0.352205 0)
(0.919437 0.433956 0)
(0.87567 0.508038 -1.74202e-21)
(0.831753 0.567544 -9.60284e-21)
(0.801167 0.583414 2.02267e-20)
(0.807343 0.564108 -8.26946e-21)
(0.828608 0.529533 0)
(0.875642 0.473659 0)
(0.899142 0.388799 0)
(0.957248 0.295355 0)
(1.04343 0.202099 1.40306e-21)
(1.08367 0.137718 -5.60729e-23)
(1.07842 0.0937376 0)
(1.06558 0.0624783 -5.79491e-25)
(1.05523 0.0423045 1.49854e-24)
(1.04797 0.0281507 2.79369e-24)
(1.04378 0.0183954 0)
(1.04146 0.0117344 0)
(1.03886 0.00738065 0)
(1.03577 0.00456739 0)
(1.03308 0.00273281 0)
(1.03108 0.00155358 0)
(1.02968 0.000799998 0)
(1.02877 0.00025816 0)
(1.0213 0.00105472 0)
(1.02108 0.0032267 0)
(1.02067 0.00540385 0)
(1.01997 0.00775491 0)
(1.01878 0.010494 0)
(1.0171 0.0138077 0)
(1.01541 0.0182003 0)
(1.01376 0.0244677 0)
(1.01061 0.033178 0)
(1.00454 0.044855 0)
(0.994791 0.0602005 1.72281e-23)
(0.980646 0.0808912 -8.92717e-23)
(0.961503 0.107779 1.34161e-21)
(0.940282 0.143098 8.58324e-22)
(0.917952 0.193379 0)
(0.883969 0.253839 0)
(0.849166 0.322356 0)
(0.815281 0.399226 0)
(0.786119 0.466696 1.46963e-20)
(0.778798 0.531686 -2.16708e-20)
(0.794284 0.54141 2.18182e-21)
(0.832116 0.53098 -3.41908e-21)
(0.882252 0.484175 0)
(0.959262 0.42276 0)
(1.02401 0.333935 0)
(1.1002 0.236986 0)
(1.1574 0.147065 -5.58994e-22)
(1.15919 0.0965067 1.64544e-21)