/*--------------------------------*- C++ -*----------------------------------*\
| =========                 |                                                 |
| \\      /  F ield         | OpenFOAM: The Open Source CFD Toolbox           |
|  \\    /   O peration     | Version:  v2106                                 |
|   \\  /    A nd           | Website:  www.openfoam.com                      |
|    \\/     M anipulation  |                                                 |
\*---------------------------------------------------------------------------*/
FoamFile
{
    version     2.0;
    format      ascii;
    arch        "LSB;label=32;scalar=64";
    class       pointVectorField;
    location    "0";
    object      pointDisplacement;
}
// * * * * * * * * * * * * * * * * * * * * * * * * * * * * * * * * * * * * * //

dimensions      [0 1 0 0 0 0 0];

internalField   nonuniform List<vector> 
24440
(
(0 0 0)
(0 0 0)
(0 0 0)
(0 0 0)
(0 0 0)
(0 0 0)
(0 0 0)
(0 0 0)
(0 0 0)
(0 0 0)
(0 0 0)
(0 0 0)
(0 0 0)
(0 0 0)
(0 0 0)
(0 0 0)
(0 0 0)
(0 0 0)
(0 0 0)
(0 0 0)
(0 0 0)
(0 0 0)
(0 0 0)
(0 0 0)
(0 0 0)
(0 0 0)
(0 0 0)
(0 0 0)
(0 0 0)
(0 0 0)
(0 0 0)
(0 0 0)
(0 0 0)
(0 0 0)
(0 0 0)
(0 0 0)
(0 0 0)
(0 0 0)
(0 0 0)
(0 0 0)
(0 0 0)
(0 0 0)
(0 0 0)
(0 0 0)
(0 0 0)
(0 0 0)
(0 0 0)
(0 0 0)
(0 0 0)
(0 0 0)
(0 0 0)
(0 0 0)
(0 0 0)
(0 0 0)
(0 0 0)
(0 0 0)
(0 0 0)
(0 0 0)
(0 0 0)
(0 0 0)
(0 0 0)
(0 0 0)
(0 0 0)
(0 0 0)
(0 0 0)
(0 0 0)
(0 0 0)
(0 0 0)
(0 0 0)
(0 0 0)
(0 0 0)
(0 0 0)
(0 0 0)
(0 0 0)
(0 0 0)
(0 0 0)
(0 0 0)
(0 0 0)
(0 0 0)
(0 0 0)
(0 0 0)
(0 0 0)
(0 0 0)
(0 0 0)
(0 0 0)
(0 0 0)
(0 0 0)
(0 0 0)
(0 0 0)
(0 0 0)
(0 0 0)
(0 0 0)
(0 0 0)
(0 0 0)
(0 0 0)
(0 0 0)
(0 0 0)
(0 0 0)
(0 -8.12007e-07 0)
(0 -5.12056e-06 0)
(0 -1.40805e-05 0)
(0 -2.16973e-05 0)
(0 -2.46204e-05 0)
(0 -2.16973e-05 0)
(0 -1.40805e-05 0)
(0 -5.12056e-06 0)
(0 -8.12007e-07 0)
(0 0 0)
(0 0 0)
(0 0 0)
(0 0 0)
(0 0 0)
(0 0 0)
(0 0 0)
(0 0 0)
(0 0 0)
(0 0 0)
(0 0 0)
(0 0 0)
(0 0 0)
(0 0 0)
(0 0 0)
(0 0 0)
(0 0 0)
(0 0 0)
(0 0 0)
(0 0 0)
(0 0 0)
(0 0 0)
(0 0 0)
(0 0 0)
(0 0 0)
(0 0 0)
(0 0 0)
(0 0 0)
(0 0 0)
(0 -1.35989e-06 0)
(0 -1.79891e-05 0)
(0 -5.29406e-05 0)
(0 -9.5369e-05 0)
(0 -0.000136035 0)
(0 -0.000164385 0)
(0 -0.000190739 0)
(0 -0.000200012 0)
(0 -0.000190739 0)
(0 -0.000164385 0)
(0 -0.000136035 0)
(0 -9.5369e-05 0)
(0 -5.29406e-05 0)
(0 -1.79891e-05 0)
(0 -1.35989e-06 0)
(0 0 0)
(0 0 0)
(0 0 0)
(0 0 0)
(0 0 0)
(0 0 0)
(0 0 0)
(0 0 0)
(0 0 0)
(0 0 0)
(0 0 0)
(0 0 0)
(0 0 0)
(0 0 0)
(0 0 0)
(0 0 0)
(0 0 0)
(0 0 0)
(0 0 0)
(0 0 0)
(0 0 0)
(0 0 0)
(0 0 0)
(0 0 0)
(0 -5.70961e-07 0)
(0 -2.36574e-05 0)
(0 -8.0679e-05 0)
(0 -0.000159098 0)
(0 -0.000239869 0)
(0 -0.00032998 0)
(0 -0.000408024 0)
(0 -0.000456358 0)
(0 -0.000502576 0)
(0 -0.000518549 0)
(0 -0.000502576 0)
(0 -0.000456358 0)
(0 -0.000408024 0)
(0 -0.00032998 0)
(0 -0.000239869 0)
(0 -0.000159098 0)
(0 -8.0679e-05 0)
(0 -2.36574e-05 0)
(0 -5.70961e-07 0)
(0 0 0)
(0 0 0)
(0 0 0)
(0 0 0)
(0 0 0)
(0 0 0)
(0 0 0)
(0 0 0)
(0 0 0)
(0 0 0)
(0 0 0)
(0 0 0)
(0 0 0)
(0 0 0)
(0 0 0)
(0 0 0)
(0 0 0)
(0 0 0)
(0 0 0)
(0 0 0)
(0 0 0)
(0 -5.39871e-06 0)
(0 -5.61436e-05 0)
(0 -0.000149204 0)
(0 -0.000261781 0)
(0 -0.000401557 0)
(0 -0.000542534 0)
(0 -0.000664664 0)
(0 -0.00077907 0)
(0 -0.000860254 0)
(0 -0.000908759 0)
(0 -0.000931025 0)
(0 -0.000908759 0)
(0 -0.000860254 0)
(0 -0.00077907 0)
(0 -0.000664664 0)
(0 -0.000542534 0)
(0 -0.000401557 0)
(0 -0.000261781 0)
(0 -0.000149204 0)
(0 -5.61436e-05 0)
(0 -5.71545e-06 0)
(0 0 0)
(0 0 0)
(0 0 0)
(0 0 0)
(0 0 0)
(0 0 0)
(0 0 0)
(0 0 0)
(0 0 0)
(0 0 0)
(0 0 0)
(0 0 0)
(0 0 0)
(0 0 0)
(0 0 0)
(0 0 0)
(0 0 0)
(0 0 0)
(0 0 0)
(0 -1.06181e-05 0)
(0 -7.44537e-05 0)
(0 -0.000185827 0)
(0 -0.000341149 0)
(0 -0.000525746 0)
(0 -0.000717568 0)
(0 -0.0008936 0)
(0 -0.00106048 0)
(0 -0.00112319 0)
(0 -0.001191 0)
(0 -0.00124772 0)
(0 -0.00129241 0)
(0 -0.00132437 0)
(0 -0.00134647 0)
(0 -0.00136689 0)
(0 -0.00137372 0)
(0 -0.00136689 0)
(0 -0.00134647 0)
(0 -0.00132437 0)
(0 -0.00129241 0)
(0 -0.00124772 0)
(0 -0.001191 0)
(0 -0.00112319 0)
(0 -0.00106048 0)
(0 -0.0008936 0)
(0 -0.000717568 0)
(0 -0.000525746 0)
(0 -0.000341149 0)
(0 -0.00018197 0)
(0 -6.72764e-05 0)
(0 -8.48452e-06 0)
(0 0 0)
(0 0 0)
(0 0 0)
(0 0 0)
(0 0 0)
(0 0 0)
(0 0 0)
(0 0 0)
(0 0 0)
(0 0 0)
(0 0 0)
(0 0 0)
(0 0 0)
(0 0 0)
(0 0 0)
(0 0 0)
(0 0 0)
(0 -6.24536e-06 0)
(0 -7.14716e-05 0)
(0 -0.000199133 0)
(0 -0.000374709 0)
(0 -0.000580368 0)
(0 -0.000822341 0)
(0 -0.00093804 0)
(0 -0.00104059 0)
(0 -0.0011541 0)
(0 -0.00126049 0)
(0 -0.00135782 0)
(0 -0.00144052 0)
(0 -0.00125543 0)
(0 -0.00133209 0)
(0 -0.00139258 0)
(0 -0.00145359 0)
(0 -0.00150146 0)
(0 -0.00153557 0)
(0 -0.00155602 0)
(0 -0.00157769 0)
(0 -0.00158494 0)
(0 -0.00157769 0)
(0 -0.00155602 0)
(0 -0.00153557 0)
(0 -0.00150146 0)
(0 -0.00145359 0)
(0 -0.00139258 0)
(0 -0.00133209 0)
(0 -0.00125543 0)
(0 -0.00144052 0)
(0 -0.00135782 0)
(0 -0.00126049 0)
(0 -0.0011541 0)
(0 -0.00104059 0)
(0 -0.00093804 0)
(0 -0.000822341 0)
(0 -0.000580368 0)
(0 -0.000374709 0)
(0 -0.000191869 0)
(0 -6.8362e-05 0)
(0 -5.67169e-06 0)
(0 0 0)
(0 0 0)
(0 0 0)
(0 0 0)
(0 0 0)
(0 0 0)
(0 0 0)
(0 0 0)
(0 0 0)
(0 0 0)
(0 0 0)
(0 0 0)
(0 0 0)
(0 0 0)
(0 0 0)
(0 0 0)
(0 -3.95156e-05 0)
(0 -0.000161486 0)
(0 -0.000345235 0)
(0 -0.000576045 0)
(0 -0.000833114 0)
(0 -0.00109432 0)
(0 -0.000963205 0)
(0 -0.00108902 0)
(0 -0.00121009 0)
(0 -0.00132409 0)
(0 -0.00142537 0)
(0 -0.00152808 0)
(0 -0.00161885 0)
(0 -0.00169384 0)
(0 -0.00152197 0)
(0 -0.00159057 0)
(0 -0.00176455 0)
(0 -0.00181546 0)
(0 -0.00164515 0)
(0 -0.00169508 0)
(0 -0.0018661 0)
(0 -0.00190174 0)
(0 -0.00173051 0)
(0 -0.00174846 0)
(0 -0.0019224 0)
(0 -0.00193879 0)
(0 -0.00177081 0)
(0 -0.00177827 0)
(0 -0.0019462 0)
(0 -0.00193879 0)
(0 -0.00177081 0)
(0 -0.00174846 0)
(0 -0.0019224 0)
(0 -0.00190174 0)
(0 -0.00173051 0)
(0 -0.00169508 0)
(0 -0.0018661 0)
(0 -0.00181546 0)
(0 -0.00164515 0)
(0 -0.00159057 0)
(0 -0.00176455 0)
(0 -0.00169384 0)
(0 -0.00152197 0)
(0 -0.00161885 0)
(0 -0.00152808 0)
(0 -0.00142537 0)
(0 -0.00132409 0)
(0 -0.00121009 0)
(0 -0.00108902 0)
(0 -0.000963205 0)
(0 -0.00109432 0)
(0 -0.000833114 0)
(0 -0.00056911 0)
(0 -0.00034251 0)
(0 -0.000161314 0)
(0 -4.29597e-05 0)
(0 0 0)
(0 0 0)
(0 0 0)
(0 0 0)
(0 0 0)
(0 0 0)
(0 0 0)
(0 0 0)
(0 0 0)
(0 0 0)
(0 0 0)
(0 0 0)
(0 0 0)
(0 0 0)
(0 0 0)
(0 -8.62027e-06 0)
(0 -8.85621e-05 0)
(0 -0.000255279 0)
(0 -0.00047829 0)
(0 -0.000743411 0)
(0 -0.00104716 0)
(0 -0.00133974 0)
(0 -0.00122588 0)
(0 -0.00135842 0)
(0 -0.00121975 0)
(0 -0.00135617 0)
(0 -0.00148301 0)
(0 -0.00160799 0)
(0 -0.00147623 0)
(0 -0.00158587 0)
(0 -0.00172067 0)
(0 -0.00177205 0)
(0 -0.00181988 0)
(0 -0.00175485 0)
(0 -0.00167842 0)
(0 -0.00177156 0)
(0 -0.00183836 0)
(0 -0.00187962 0)
(0 -0.0018128 0)
(0 -0.00191312 0)
(0 -0.00197648 0)
(0 -0.0020058 0)
(0 -0.00194289 0)
(0 -0.00200848 0)
(0 -0.00207047 0)
(0 -0.00208592 0)
(0 -0.00202757 0)
(0 -0.00206266 0)
(0 -0.00211946 0)
(0 -0.00212755 0)
(0 -0.00207206 0)
(0 -0.00208216 0)
(0 -0.00213644 0)
(0 -0.00213481 0)
(0 -0.00208042 0)
(0 -0.00206266 0)
(0 -0.00211946 0)
(0 -0.00211179 0)
(0 -0.0020546 0)
(0 -0.00200848 0)
(0 -0.00207047 0)
(0 -0.00205272 0)
(0 -0.00199089 0)
(0 -0.00191312 0)
(0 -0.00197648 0)
(0 -0.0019506 0)
(0 -0.00187951 0)
(0 -0.00177156 0)
(0 -0.00183836 0)
(0 -0.00179335 0)
(0 -0.00172673 0)
(0 -0.00158587 0)
(0 -0.00172067 0)
(0 -0.00160799 0)
(0 -0.00147623 0)
(0 -0.00135617 0)
(0 -0.00148301 0)
(0 -0.00135842 0)
(0 -0.00121975 0)
(0 -0.00122588 0)
(0 -0.0013337 0)
(0 -0.00104644 0)
(0 -0.000755393 0)
(0 -0.000474273 0)
(0 -0.000252793 0)
(0 -9.30008e-05 0)
(0 -9.85773e-06 0)
(0 0 0)
(0 0 0)
(0 0 0)
(0 0 0)
(0 0 0)
(0 0 0)
(0 0 0)
(0 0 0)
(0 0 0)
(0 0 0)
(0 0 0)
(0 0 0)
(0 0 0)
(0 0 0)
(0 -2.82035e-05 0)
(0 -0.00014274 0)
(0 -0.000335374 0)
(0 -0.000589297 0)
(0 -0.000882742 0)
(0 -0.0012055 0)
(0 -0.00150673 0)
(0 -0.00143241 0)
(0 -0.00157416 0)
(0 -0.00147769 0)
(0 -0.00160648 0)
(0 -0.00170563 0)
(0 -0.00182436 0)
(0 -0.00172381 0)
(0 -0.00182773 0)
(0 -0.00188156 0)
(0 -0.00192787 0)
(0 -0.0018815 0)
(0 -0.00201232 0)
(0 -0.00203459 0)
(0 -0.00205256 0)
(0 -0.00203049 0)
(0 -0.00213024 0)
(0 -0.00214805 0)
(0 -0.00215962 0)
(0 -0.00214217 0)
(0 -0.00220004 0)
(0 -0.00221302 0)
(0 -0.00221892 0)
(0 -0.00220584 0)
(0 -0.00223063 0)
(0 -0.00224016 0)
(0 -0.00224152 0)
(0 -0.00223227 0)
(0 -0.00223846 0)
(0 -0.00224613 0)
(0 -0.002246 0)
(0 -0.00223827 0)
(0 -0.00223063 0)
(0 -0.00224016 0)
(0 -0.00223828 0)
(0 -0.00222841 0)
(0 -0.00220004 0)
(0 -0.00221302 0)
(0 -0.00220809 0)
(0 -0.00219307 0)
(0 -0.00213024 0)
(0 -0.00214805 0)
(0 -0.00213799 0)
(0 -0.00211726 0)
(0 -0.00201232 0)
(0 -0.00203459 0)
(0 -0.00205497 0)
(0 -0.00201619 0)
(0 -0.00197282 0)
(0 -0.00182773 0)
(0 -0.00188156 0)
(0 -0.00192833 0)
(0 -0.00182436 0)
(0 -0.00172381 0)
(0 -0.00160648 0)
(0 -0.00170173 0)
(0 -0.00157315 0)
(0 -0.00147769 0)
(0 -0.00143412 0)
(0 -0.0015112 0)
(0 -0.00120247 0)
(0 -0.000891536 0)
(0 -0.000595476 0)
(0 -0.000339259 0)
(0 -0.000144777 0)
(0 -2.88993e-05 0)
(0 0 0)
(0 0 0)
(0 0 0)
(0 0 0)
(0 0 0)
(0 0 0)
(0 0 0)
(0 0 0)
(0 0 0)
(0 0 0)
(0 0 0)
(0 0 0)
(0 0 0)
(0 0 0)
(0 -4.34891e-05 0)
(0 -0.000177322 0)
(0 -0.000390218 0)
(0 -0.000664199 0)
(0 -0.000976189 0)
(0 -0.00129997 0)
(0 -0.00160845 0)
(0 -0.00157023 0)
(0 -0.00171087 0)
(0 -0.00164558 0)
(0 -0.00177289 0)
(0 -0.00183898 0)
(0 -0.00195208 0)
(0 -0.00189745 0)
(0 -0.00200041 0)
(0 -0.00202584 0)
(0 -0.00207015 0)
(0 -0.00204531 0)
(0 -0.00215199 0)
(0 -0.00216374 0)
(0 -0.002177 0)
(0 -0.00216562 0)
(0 -0.00223376 0)
(0 -0.00223943 0)
(0 -0.00224417 0)
(0 -0.00223916 0)
(0 -0.00225334 0)
(0 -0.00225334 0)
(0 -0.00225334 0)
(0 -0.00225334 0)
(0 -0.00225334 0)
(0 -0.00225334 0)
(0 -0.00225334 0)
(0 -0.00225334 0)
(0 -0.00225334 0)
(0 -0.00225334 0)
(0 -0.00225334 0)
(0 -0.00225334 0)
(0 -0.00225334 0)
(0 -0.00225334 0)
(0 -0.00225334 0)
(0 -0.00225334 0)
(0 -0.00225334 0)
(0 -0.00225334 0)
(0 -0.00225334 0)
(0 -0.00225334 0)
(0 -0.00223376 0)
(0 -0.00223943 0)
(0 -0.00223318 0)
(0 -0.00222726 0)
(0 -0.00215199 0)
(0 -0.00216374 0)
(0 -0.00217378 0)
(0 -0.00214313 0)
(0 -0.00212117 0)
(0 -0.00199925 0)
(0 -0.00202879 0)
(0 -0.00205136 0)
(0 -0.00194937 0)
(0 -0.00189914 0)
(0 -0.00178299 0)
(0 -0.0018367 0)
(0 -0.00170905 0)
(0 -0.00165285 0)
(0 -0.0015689 0)
(0 -0.00160925 0)
(0 -0.00129944 0)
(0 -0.000974637 0)
(0 -0.000662068 0)
(0 -0.000387996 0)
(0 -0.000175484 0)
(0 -4.24451e-05 0)
(0 0 0)
(0 0 0)
(0 0 0)
(0 0 0)
(0 0 0)
(0 0 0)
(0 0 0)
(0 0 0)
(0 0 0)
(0 0 0)
(0 0 0)
(0 0 0)
(0 0 0)
(0 0 0)
(0 -4.61082e-05 0)
(0 -0.000182991 0)
(0 -0.000399153 0)
(0 -0.000676432 0)
(0 -0.000991531 0)
(0 -0.00131797 0)
(0 -0.00162833 0)
(0 -0.0016289 0)
(0 -0.00176968 0)
(0 -0.00174882 0)
(0 -0.00187599 0)
(0 -0.00189687 0)
(0 -0.00200781 0)
(0 -0.00198738 0)
(0 -0.00208434 0)
(0 -0.00209371 0)
(0 -0.00213258 0)
(0 -0.00212413 0)
(0 -0.00221188 0)
(0 -0.00221549 0)
(0 -0.00222509 0)
(0 -0.00222175 0)
(0 -0.00225334 0)
(0 -0.00225334 0)
(0 -0.00225334 0)
(0 -0.00225334 0)
(0 -0.00225334 0)
(0 -0.00225334 0)
(0 -0.00225334 0)
(0 -0.00225334 0)
(0 -0.00225334 0)
(0 -0.00225334 0)
(0 -0.00225334 0)
(0 -0.00225334 0)
(0 -0.00225334 0)
(0 -0.00225334 0)
(0 -0.00225334 0)
(0 -0.00225334 0)
(0 -0.00225334 0)
(0 -0.00225325 0)
(0 -0.00225292 0)
(0 -0.00221188 0)
(0 -0.00221549 0)
(0 -0.00221788 0)
(0 -0.00219535 0)
(0 -0.00218739 0)
(0 -0.00208421 0)
(0 -0.00209384 0)
(0 -0.00210015 0)
(0 -0.00200781 0)
(0 -0.00199027 0)
(0 -0.00187822 0)
(0 -0.0018921 0)
(0 -0.00176419 0)
(0 -0.00175034 0)
(0 -0.00162283 0)
(0 -0.00162469 0)
(0 -0.00131392 0)
(0 -0.000987415 0)
(0 -0.00067261 0)
(0 -0.000395956 0)
(0 -0.000180697 0)
(0 -4.492e-05 0)
(0 0 0)
(0 0 0)
(0 0 0)
(0 0 0)
(0 0 0)
(0 0 0)
(0 0 0)
(0 0 0)
(0 0 0)
(0 0 0)
(0 0 0)
(0 0 0)
(0 0 0)
(0 0 0)
(0 -3.76811e-05 0)
(0 -0.000164682 0)
(0 -0.000370496 0)
(0 -0.000637567 0)
(0 -0.000943284 0)
(0 -0.00126194 0)
(0 -0.00156701 0)
(0 -0.00161105 0)
(0 -0.00175159 0)
(0 -0.00176922 0)
(0 -0.00189654 0)
(0 -0.00187889 0)
(0 -0.00199034 0)
(0 -0.0020076 0)
(0 -0.00210006 0)
(0 -0.00209511 0)
(0 -0.00213398 0)
(0 -0.00213869 0)
(0 -0.00222183 0)
(0 -0.00222065 0)
(0 -0.00222965 0)
(0 -0.00223071 0)
(0 -0.00225334 0)
(0 -0.00225334 0)
(0 -0.00225334 0)
(0 -0.00225334 0)
(0 -0.00225334 0)
(0 -0.00225334 0)
(0 -0.00225334 0)
(0 -0.00225334 0)
(0 -0.00225334 0)
(0 -0.00225334 0)
(0 -0.00225334 0)
(0 -0.00225334 0)
(0 -0.00225334 0)
(0 -0.00225334 0)
(0 -0.00225334 0)
(0 -0.00225334 0)
(0 -0.00222183 0)
(0 -0.00221969 0)
(0 -0.00221852 0)
(0 -0.00219604 0)
(0 -0.0021986 0)
(0 -0.00209811 0)
(0 -0.00209496 0)
(0 -0.0020854 0)
(0 -0.0019917 0)
(0 -0.00200514 0)
(0 -0.00189362 0)
(0 -0.00187988 0)
(0 -0.00175218 0)
(0 -0.0017659 0)
(0 -0.00161124 0)
(0 -0.001571 0)
(0 -0.00126487 0)
(0 -0.000945195 0)
(0 -0.000638619 0)
(0 -0.000370914 0)
(0 -0.000164723 0)
(0 -3.75988e-05 0)
(0 0 0)
(0 0 0)
(0 0 0)
(0 0 0)
(0 0 0)
(0 0 0)
(0 0 0)
(0 0 0)
(0 0 0)
(0 0 0)
(0 0 0)
(0 0 0)
(0 0 0)
(0 0 0)
(0 -1.90585e-05 0)
(0 -0.00011971 0)
(0 -0.000297755 0)
(0 -0.000537203 0)
(0 -0.000835199 0)
(0 -0.00113992 0)
(0 -0.00143714 0)
(0 -0.00151597 0)
(0 -0.00165687 0)
(0 -0.00170653 0)
(0 -0.00184192 0)
(0 -0.00178616 0)
(0 -0.00190139 0)
(0 -0.00195677 0)
(0 -0.0020543 0)
(0 -0.00203093 0)
(0 -0.00207332 0)
(0 -0.00209602 0)
(0 -0.00219121 0)
(0 -0.00218456 0)
(0 -0.00219665 0)
(0 -0.00220375 0)
(0 -0.00225061 0)
(0 -0.0022483 0)
(0 -0.00225106 0)
(0 -0.00225249 0)
(0 -0.00225334 0)
(0 -0.00225334 0)
(0 -0.00225334 0)
(0 -0.00225334 0)
(0 -0.00225334 0)
(0 -0.00225334 0)
(0 -0.00225334 0)
(0 -0.00225334 0)
(0 -0.00225061 0)
(0 -0.00224796 0)
(0 -0.0022443 0)
(0 -0.00224757 0)
(0 -0.00219121 0)
(0 -0.00218456 0)
(0 -0.00217552 0)
(0 -0.00214686 0)
(0 -0.00216456 0)
(0 -0.0020543 0)
(0 -0.00203093 0)
(0 -0.00200438 0)
(0 -0.00190139 0)
(0 -0.00195677 0)
(0 -0.00183849 0)
(0 -0.00178616 0)
(0 -0.00165687 0)
(0 -0.00171101 0)
(0 -0.00151597 0)
(0 -0.00143714 0)
(0 -0.00113992 0)
(0 -0.000824436 0)
(0 -0.000542484 0)
(0 -0.000301218 0)
(0 -0.000121606 0)
(0 -1.9699e-05 0)
(0 0 0)
(0 0 0)
(0 0 0)
(0 0 0)
(0 0 0)
(0 0 0)
(0 0 0)
(0 0 0)
(0 0 0)
(0 0 0)
(0 0 0)
(0 0 0)
(0 0 0)
(0 0 0)
(0 -2.35821e-06 0)
(0 -7.00029e-05 0)
(0 -0.000213167 0)
(0 -0.000419173 0)
(0 -0.000669188 0)
(0 -0.00094127 0)
(0 -0.00122678 0)
(0 -0.00133503 0)
(0 -0.0014802 0)
(0 -0.00157539 0)
(0 -0.00170987 0)
(0 -0.0016073 0)
(0 -0.00173458 0)
(0 -0.00182682 0)
(0 -0.00193427 0)
(0 -0.00189118 0)
(0 -0.00193865 0)
(0 -0.00198137 0)
(0 -0.00209668 0)
(0 -0.0020775 0)
(0 -0.00209495 0)
(0 -0.00211088 0)
(0 -0.0021986 0)
(0 -0.00218598 0)
(0 -0.00219519 0)
(0 -0.00220732 0)
(0 -0.00224417 0)
(0 -0.00223712 0)
(0 -0.00224022 0)
(0 -0.00224666 0)
(0 -0.00225334 0)
(0 -0.00225208 0)
(0 -0.00225257 0)
(0 -0.00225334 0)
(0 -0.00225334 0)
(0 -0.00225334 0)
(0 -0.00225334 0)
(0 -0.00225334 0)
(0 -0.00225334 0)
(0 -0.00225334 0)
(0 -0.00225208 0)
(0 -0.00225139 0)
(0 -0.00225326 0)
(0 -0.00225332 0)
(0 -0.00224417 0)
(0 -0.00223712 0)
(0 -0.00223329 0)
(0 -0.00224097 0)
(0 -0.0021986 0)
(0 -0.00218598 0)
(0 -0.00217572 0)
(0 -0.0021888 0)
(0 -0.00209823 0)
(0 -0.00208062 0)
(0 -0.00205945 0)
(0 -0.00202445 0)
(0 -0.0020625 0)
(0 -0.00192896 0)
(0 -0.00188899 0)
(0 -0.00184231 0)
(0 -0.0017322 0)
(0 -0.00182682 0)
(0 -0.00170987 0)
(0 -0.0016073 0)
(0 -0.0014802 0)
(0 -0.00157539 0)
(0 -0.00133503 0)
(0 -0.00122678 0)
(0 -0.00094127 0)
(0 -0.000669188 0)
(0 -0.000419173 0)
(0 -0.000213167 0)
(0 -6.52988e-05 0)
(0 -2.83264e-06 0)
(0 0 0)
(0 0 0)
(0 0 0)
(0 0 0)
(0 0 0)
(0 0 0)
(0 0 0)
(0 0 0)
(0 0 0)
(0 0 0)
(0 0 0)
(0 0 0)
(0 0 0)
(0 0 0)
(0 0 0)
(0 -2.15169e-05 0)
(0 -0.000113386 0)
(0 -0.000266772 0)
(0 -0.000465675 0)
(0 -0.000714192 0)
(0 -0.000971145 0)
(0 -0.00109236 0)
(0 -0.00123539 0)
(0 -0.00135771 0)
(0 -0.00149031 0)
(0 -0.00136416 0)
(0 -0.00148456 0)
(0 -0.00161494 0)
(0 -0.00172779 0)
(0 -0.00159446 0)
(0 -0.00168647 0)
(0 -0.00176287 0)
(0 -0.00182709 0)
(0 -0.00177923 0)
(0 -0.00191247 0)
(0 -0.00184571 0)
(0 -0.00188698 0)
(0 -0.00195023 0)
(0 -0.00204476 0)
(0 -0.00198751 0)
(0 -0.00201041 0)
(0 -0.00206974 0)
(0 -0.00212852 0)
(0 -0.00207779 0)
(0 -0.00209269 0)
(0 -0.00214257 0)
(0 -0.00217196 0)
(0 -0.00212515 0)
(0 -0.00213341 0)
(0 -0.00217771 0)
(0 -0.00218541 0)
(0 -0.00214219 0)
(0 -0.00213995 0)
(0 -0.00218365 0)
(0 -0.00217196 0)
(0 -0.00212515 0)
(0 -0.00211343 0)
(0 -0.00216293 0)
(0 -0.00212852 0)
(0 -0.00207779 0)
(0 -0.00205917 0)
(0 -0.00211079 0)
(0 -0.00204476 0)
(0 -0.00198751 0)
(0 -0.00195791 0)
(0 -0.00201579 0)
(0 -0.00191247 0)
(0 -0.00184571 0)
(0 -0.00180696 0)
(0 -0.00187123 0)
(0 -0.00172779 0)
(0 -0.00159446 0)
(0 -0.00148456 0)
(0 -0.00161494 0)
(0 -0.00149031 0)
(0 -0.00136416 0)
(0 -0.00123539 0)
(0 -0.00135771 0)
(0 -0.00109236 0)
(0 -0.000971145 0)
(0 -0.000714192 0)
(0 -0.000465675 0)
(0 -0.000266772 0)
(0 -0.000113386 0)
(0 -2.15169e-05 0)
(0 0 0)
(0 0 0)
(0 0 0)
(0 0 0)
(0 0 0)
(0 0 0)
(0 0 0)
(0 0 0)
(0 0 0)
(0 0 0)
(0 0 0)
(0 0 0)
(0 0 0)
(0 0 0)
(0 0 0)
(0 0 0)
(0 0 0)
(0 -3.2425e-05 0)
(0 -0.000133891 0)
(0 -0.000287024 0)
(0 -0.000476939 0)
(0 -0.000684958 0)
(0 -0.000890305 0)
(0 -0.00104966 0)
(0 -0.00121911 0)
(0 -0.00109753 0)
(0 -0.0011637 0)
(0 -0.00133354 0)
(0 -0.00143448 0)
(0 -0.00127055 0)
(0 -0.00136828 0)
(0 -0.00153749 0)
(0 -0.00162847 0)
(0 -0.00154428 0)
(0 -0.00157678 0)
(0 -0.00166906 0)
(0 -0.0017726 0)
(0 -0.00168982 0)
(0 -0.00172054 0)
(0 -0.00180356 0)
(0 -0.00187411 0)
(0 -0.00179085 0)
(0 -0.00180457 0)
(0 -0.00189013 0)
(0 -0.00193498 0)
(0 -0.00185502 0)
(0 -0.00186436 0)
(0 -0.00194424 0)
(0 -0.00195513 0)
(0 -0.00187567 0)
(0 -0.00187183 0)
(0 -0.00195164 0)
(0 -0.00193498 0)
(0 -0.00185502 0)
(0 -0.00184194 0)
(0 -0.00192198 0)
(0 -0.00187411 0)
(0 -0.00179085 0)
(0 -0.00177109 0)
(0 -0.00185434 0)
(0 -0.0017726 0)
(0 -0.00168982 0)
(0 -0.00165556 0)
(0 -0.001738 0)
(0 -0.00162847 0)
(0 -0.00154428 0)
(0 -0.00144697 0)
(0 -0.00136828 0)
(0 -0.00153749 0)
(0 -0.00143448 0)
(0 -0.00127055 0)
(0 -0.0011637 0)
(0 -0.00133354 0)
(0 -0.00121911 0)
(0 -0.00104966 0)
(0 -0.000890305 0)
(0 -0.000684958 0)
(0 -0.00109753 0)
(0 -0.000476939 0)
(0 -0.000287024 0)
(0 -0.000133891 0)
(0 -3.2425e-05 0)
(0 0 0)
(0 0 0)
(0 0 0)
(0 0 0)
(0 0 0)
(0 0 0)
(0 0 0)
(0 0 0)
(0 0 0)
(0 0 0)
(0 0 0)
(0 0 0)
(0 0 0)
(0 0 0)
(0 0 0)
(0 0 0)
(0 0 0)
(0 0 0)
(0 -4.11191e-07 0)
(0 -3.68359e-05 0)
(0 -0.000124825 0)
(0 -0.000244612 0)
(0 -0.000400377 0)
(0 -0.0005665 0)
(0 -0.000727118 0)
(0 -0.000820882 0)
(0 -0.000994922 0)
(0 -0.0010936 0)
(0 -0.00089992 0)
(0 -0.000989094 0)
(0 -0.0011749 0)
(0 -0.00126404 0)
(0 -0.00116825 0)
(0 -0.00120746 0)
(0 -0.00130481 0)
(0 -0.00140989 0)
(0 -0.0013088 0)
(0 -0.0013367 0)
(0 -0.00143873 0)
(0 -0.00150409 0)
(0 -0.00140287 0)
(0 -0.00142541 0)
(0 -0.00152728 0)
(0 -0.00157588 0)
(0 -0.0014727 0)
(0 -0.00148153 0)
(0 -0.00158494 0)
(0 -0.00159687 0)
(0 -0.00149348 0)
(0 -0.00148862 0)
(0 -0.0015922 0)
(0 -0.00157588 0)
(0 -0.0014727 0)
(0 -0.00146038 0)
(0 -0.00156323 0)
(0 -0.00150409 0)
(0 -0.00140287 0)
(0 -0.00137707 0)
(0 -0.00148653 0)
(0 -0.00140989 0)
(0 -0.0013088 0)
(0 -0.00127788 0)
(0 -0.00137787 0)
(0 -0.00126404 0)
(0 -0.00116825 0)
(0 -0.00107073 0)
(0 -0.000989094 0)
(0 -0.0011749 0)
(0 -0.0010936 0)
(0 -0.00089992 0)
(0 -0.000820882 0)
(0 -0.000994922 0)
(0 -0.000727118 0)
(0 -0.0005665 0)
(0 -0.000400377 0)
(0 -0.000244612 0)
(0 -0.000124825 0)
(0 -3.68359e-05 0)
(0 -4.11191e-07 0)
(0 0 0)
(0 0 0)
(0 0 0)
(0 0 0)
(0 0 0)
(0 0 0)
(0 0 0)
(0 0 0)
(0 0 0)
(0 0 0)
(0 0 0)
(0 0 0)
(0 0 0)
(0 0 0)
(0 0 0)
(0 0 0)
(0 0 0)
(0 0 0)
(0 0 0)
(0 0 0)
(0 -1.9345e-05 0)
(0 -8.05711e-05 0)
(0 -0.000163221 0)
(0 -0.000274834 0)
(0 -0.000406383 0)
(0 -0.000479193 0)
(0 -0.000638522 0)
(0 -0.000722141 0)
(0 -0.000550545 0)
(0 -0.000618644 0)
(0 -0.000801262 0)
(0 -0.000874152 0)
(0 -0.000776988 0)
(0 -0.000808492 0)
(0 -0.000907773 0)
(0 -0.000995313 0)
(0 -0.000890725 0)
(0 -0.000905732 0)
(0 -0.00100884 0)
(0 -0.00108496 0)
(0 -0.000977609 0)
(0 -0.000996411 0)
(0 -0.00110483 0)
(0 -0.00114671 0)
(0 -0.00103608 0)
(0 -0.00104352 0)
(0 -0.00115456 0)
(0 -0.00116599 0)
(0 -0.00105462 0)
(0 -0.00104949 0)
(0 -0.00116086 0)
(0 -0.00114671 0)
(0 -0.00103608 0)
(0 -0.00102572 0)
(0 -0.00113578 0)
(0 -0.00108496 0)
(0 -0.000977609 0)
(0 -0.000956157 0)
(0 -0.00106226 0)
(0 -0.000995313 0)
(0 -0.000890725 0)
(0 -0.00086551 0)
(0 -0.000968504 0)
(0 -0.000874152 0)
(0 -0.000776988 0)
(0 -0.000681839 0)
(0 -0.000618644 0)
(0 -0.000801262 0)
(0 -0.000722141 0)
(0 -0.000550545 0)
(0 -0.000479193 0)
(0 -0.000638522 0)
(0 -0.000406383 0)
(0 -0.000274834 0)
(0 -0.000163221 0)
(0 -8.05711e-05 0)
(0 -1.9345e-05 0)
(0 0 0)
(0 0 0)
(0 0 0)
(0 0 0)
(0 0 0)
(0 0 0)
(0 0 0)
(0 0 0)
(0 0 0)
(0 0 0)
(0 0 0)
(0 0 0)
(0 0 0)
(0 0 0)
(0 0 0)
(0 0 0)
(0 0 0)
(0 0 0)
(0 0 0)
(0 0 0)
(0 0 0)
(0 0 0)
(0 0 0)
(0 -1.64738e-06 0)
(0 -2.79434e-05 0)
(0 -7.79861e-05 0)
(0 -0.000163598 0)
(0 -0.000208138 0)
(0 -0.000333636 0)
(0 -0.000392079 0)
(0 -0.000253364 0)
(0 -0.000297747 0)
(0 -0.000448494 0)
(0 -0.00050133 0)
(0 -0.000417783 0)
(0 -0.000440008 0)
(0 -0.000525962 0)
(0 -0.000585287 0)
(0 -0.000495346 0)
(0 -0.000516198 0)
(0 -0.0006082 0)
(0 -0.000665939 0)
(0 -0.000568892 0)
(0 -0.000582792 0)
(0 -0.000681134 0)
(0 -0.000713315 0)
(0 -0.000612275 0)
(0 -0.000617826 0)
(0 -0.000719367 0)
(0 -0.000729033 0)
(0 -0.000626887 0)
(0 -0.000622289 0)
(0 -0.000724231 0)
(0 -0.000713315 0)
(0 -0.000612275 0)
(0 -0.000604552 0)
(0 -0.000704891 0)
(0 -0.000665939 0)
(0 -0.000568892 0)
(0 -0.000553091 0)
(0 -0.000648648 0)
(0 -0.000585287 0)
(0 -0.000495346 0)
(0 -0.000473069 0)
(0 -0.000560765 0)
(0 -0.00050133 0)
(0 -0.000417783 0)
(0 -0.000339857 0)
(0 -0.000297747 0)
(0 -0.000448494 0)
(0 -0.000392079 0)
(0 -0.000253364 0)
(0 -0.000208138 0)
(0 -0.000333636 0)
(0 -0.000163598 0)
(0 -7.79861e-05 0)
(0 -2.79434e-05 0)
(0 -1.64738e-06 0)
(0 0 0)
(0 0 0)
(0 0 0)
(0 0 0)
(0 0 0)
(0 0 0)
(0 0 0)
(0 0 0)
(0 0 0)
(0 0 0)
(0 0 0)
(0 0 0)
(0 0 0)
(0 0 0)
(0 0 0)
(0 0 0)
(0 0 0)
(0 0 0)
(0 0 0)
(0 0 0)
(0 0 0)
(0 0 0)
(0 0 0)
(0 0 0)
(0 0 0)
(0 0 0)
(0 -2.98621e-07 0)
(0 -2.24352e-05 0)
(0 -3.90781e-05 0)
(0 -0.000108359 0)
(0 -0.000140394 0)
(0 -5.82698e-05 0)
(0 -7.87936e-05 0)
(0 -0.000172713 0)
(0 -0.000204018 0)
(0 -0.000140438 0)
(0 -0.000154814 0)
(0 -0.000211727 0)
(0 -0.000259964 0)
(0 -0.000195645 0)
(0 -0.000208039 0)
(0 -0.000274476 0)
(0 -0.000311586 0)
(0 -0.000239929 0)
(0 -0.000248468 0)
(0 -0.000321473 0)
(0 -0.00034257 0)
(0 -0.000266744 0)
(0 -0.000270209 0)
(0 -0.000346561 0)
(0 -0.000353502 0)
(0 -0.000276361 0)
(0 -0.000273 0)
(0 -0.000349774 0)
(0 -0.00034257 0)
(0 -0.000266744 0)
(0 -0.000261935 0)
(0 -0.000337027 0)
(0 -0.000311586 0)
(0 -0.000239929 0)
(0 -0.000230284 0)
(0 -0.000300394 0)
(0 -0.000259964 0)
(0 -0.000195645 0)
(0 -0.000182557 0)
(0 -0.000244579 0)
(0 -0.000204018 0)
(0 -0.000140438 0)
(0 -9.44383e-05 0)
(0 -7.87936e-05 0)
(0 -0.000172713 0)
(0 -0.000140394 0)
(0 -5.82698e-05 0)
(0 -3.90781e-05 0)
(0 -0.000108359 0)
(0 -2.24352e-05 0)
(0 -2.98621e-07 0)
(0 0 0)
(0 0 0)
(0 0 0)
(0 0 0)
(0 0 0)
(0 0 0)
(0 0 0)
(0 0 0)
(0 0 0)
(0 0 0)
(0 0 0)
(0 0 0)
(0 0 0)
(0 0 0)
(0 0 0)
(0 0 0)
(0 0 0)
(0 0 0)
(0 0 0)
(0 0 0)
(0 0 0)
(0 0 0)
(0 0 0)
(0 0 0)
(0 0 0)
(0 0 0)
(0 0 0)
(0 0 0)
(0 0 0)
(0 0 0)
(0 0 0)
(0 -1.09672e-05 0)
(0 -3.9667e-06 0)
(0 0 0)
(0 -1.72458e-05 0)
(0 -2.88113e-05 0)
(0 -8.82056e-07 0)
(0 -3.85542e-06 0)
(0 -4.15195e-05 0)
(0 -5.43965e-05 0)
(0 -8.12968e-06 0)
(0 -1.29448e-05 0)
(0 -6.6564e-05 0)
(0 -7.72589e-05 0)
(0 -1.76372e-05 0)
(0 -2.16562e-05 0)
(0 -8.58501e-05 0)
(0 -9.18527e-05 0)
(0 -2.45769e-05 0)
(0 -2.61104e-05 0)
(0 -9.49375e-05 0)
(0 -9.74056e-05 0)
(0 -2.74206e-05 0)
(0 -2.61104e-05 0)
(0 -9.49375e-05 0)
(0 -9.18527e-05 0)
(0 -2.45769e-05 0)
(0 -2.16562e-05 0)
(0 -8.58501e-05 0)
(0 -7.72589e-05 0)
(0 -1.76372e-05 0)
(0 -1.29448e-05 0)
(0 -6.6564e-05 0)
(0 -5.43965e-05 0)
(0 -8.12968e-06 0)
(0 -3.85542e-06 0)
(0 -4.15195e-05 0)
(0 -2.88113e-05 0)
(0 -8.82056e-07 0)
(0 0 0)
(0 -1.72458e-05 0)
(0 -1.09672e-05 0)
(0 0 0)
(0 0 0)
(0 0 0)
(0 -3.9667e-06 0)
(0 0 0)
(0 0 0)
(0 0 0)
(0 0 0)
(0 0 0)
(0 0 0)
(0 0 0)
(0 0 0)
(0 0 0)
(0 0 0)
(0 0 0)
(0 0 0)
(0 0 0)
(0 0 0)
(0 0 0)
(0 0 0)
(0 0 0)
(0 0 0)
(0 0 0)
(0 0 0)
(0 0 0)
(0 0 0)
(0 0 0)
(0 0 0)
(0 0 0)
(0 0 0)
(0 0 0)
(0 0 0)
(0 0 0)
(0 0 0)
(0 0 0)
(0 0 0)
(0 0 0)
(0 0 0)
(0 0 0)
(0 0 0)
(0 0 0)
(0 0 0)
(0 0 0)
(0 0 0)
(0 -7.92696e-08 0)
(0 0 0)
(0 0 0)
(0 -3.05056e-07 0)
(0 -1.81503e-07 0)
(0 0 0)
(0 -7.92696e-08 0)
(0 -1.81503e-07 0)
(0 0 0)
(0 0 0)
(0 0 0)
(0 0 0)
(0 0 0)
(0 0 0)
(0 0 0)
(0 0 0)
(0 0 0)
(0 0 0)
(0 0 0)
(0 0 0)
(0 0 0)
(0 0 0)
(0 0 0)
(0 0 0)
(0 0 0)
(0 0 0)
(0 0 0)
(0 0 0)
(0 0 0)
(0 0 0)
(0 0 0)
(0 0 0)
(0 0 0)
(0 0 0)
(0 0 0)
(0 0 0)
(0 0 0)
(0 0 0)
(0 0 0)
(0 0 0)
(0 0 0)
(0 0 0)
(0 0 0)
(0 0 0)
(0 0 0)
(0 0 0)
(0 0 0)
(0 0 0)
(0 0 0)
(0 0 0)
(0 0 0)
(0 0 0)
(0 0 0)
(0 0 0)
(0 0 0)
(0 0 0)
(0 0 0)
(0 0 0)
(0 0 0)
(0 0 0)
(0 0 0)
(0 0 0)
(0 0 0)
(0 0 0)
(0 0 0)
(0 0 0)
(0 0 0)
(0 0 0)
(0 0 0)
(0 0 0)
(0 0 0)
(0 0 0)
(0 0 0)
(0 0 0)
(0 0 0)
(0 0 0)
(0 0 0)
(0 0 0)
(0 0 0)
(0 0 0)
(0 0 0)
(0 0 0)
(0 0 0)
(0 0 0)
(0 0 0)
(0 0 0)
(0 0 0)
(0 0 0)
(0 0 0)
(0 0 0)
(0 0 0)
(0 0 0)
(0 0 0)
(0 0 0)
(0 0 0)
(0 0 0)
(0 0 0)
(0 0 0)
(0 0 0)
(0 0 0)
(0 0 0)
(0 0 0)
(0 0 0)
(0 0 0)
(0 0 0)
(0 0 0)
(0 0 0)
(0 0 0)
(0 0 0)
(0 0 0)
(0 0 0)
(0 0 0)
(0 0 0)
(0 0 0)
(0 0 0)
(0 0 0)
(0 0 0)
(0 0 0)
(0 0 0)
(0 0 0)
(0 0 0)
(0 0 0)
(0 0 0)
(0 0 0)
(0 0 0)
(0 0 0)
(0 0 0)
(0 0 0)
(0 0 0)
(0 0 0)
(0 0 0)
(0 0 0)
(0 0 0)
(0 0 0)
(0 0 0)
(0 0 0)
(0 0 0)
(0 0 0)
(0 0 0)
(0 0 0)
(0 0 0)
(0 0 0)
(0 0 0)
(0 0 0)
(0 0 0)
(0 0 0)
(0 0 0)
(0 0 0)
(0 0 0)
(0 0 0)
(0 0 0)
(0 0 0)
(0 0 0)
(0 0 0)
(0 0 0)
(0 0 0)
(0 0 0)
(0 0 0)
(0 0 0)
(0 0 0)
(0 0 0)
(0 0 0)
(0 0 0)
(0 0 0)
(0 0 0)
(0 0 0)
(0 0 0)
(0 0 0)
(0 0 0)
(0 0 0)
(0 0 0)
(0 0 0)
(0 0 0)
(0 0 0)
(0 0 0)
(0 0 0)
(0 0 0)
(0 0 0)
(0 0 0)
(0 0 0)
(0 0 0)
(0 0 0)
(0 0 0)
(0 0 0)
(0 0 0)
(0 0 0)
(0 0 0)
(0 0 0)
(0 0 0)
(0 0 0)
(0 0 0)
(0 0 0)
(0 0 0)
(0 0 0)
(0 0 0)
(0 0 0)
(0 0 0)
(0 0 0)
(0 0 0)
(0 0 0)
(0 0 0)
(0 0 0)
(0 0 0)
(0 0 0)
(0 0 0)
(0 0 0)
(0 0 0)
(0 0 0)
(0 0 0)
(0 0 0)
(0 0 0)
(0 0 0)
(0 0 0)
(0 0 0)
(0 0 0)
(0 0 0)
(0 0 0)
(0 0 0)
(0 0 0)
(0 0 0)
(0 0 0)
(0 0 0)
(0 0 0)
(0 0 0)
(0 0 0)
(0 0 0)
(0 0 0)
(0 0 0)
(0 0 0)
(0 0 0)
(0 0 0)
(0 0 0)
(0 0 0)
(0 0 0)
(0 0 0)
(0 0 0)
(0 0 0)
(0 0 0)
(0 0 0)
(0 0 0)
(0 0 0)
(0 0 0)
(0 0 0)
(0 0 0)
(0 0 0)
(0 0 0)
(0 0 0)
(0 0 0)
(0 0 0)
(0 0 0)
(0 0 0)
(0 0 0)
(0 0 0)
(0 0 0)
(0 0 0)
(0 0 0)
(0 0 0)
(0 0 0)
(0 0 0)
(0 0 0)
(0 0 0)
(0 0 0)
(0 0 0)
(0 0 0)
(0 0 0)
(0 0 0)
(0 0 0)
(0 0 0)
(0 0 0)
(0 0 0)
(0 0 0)
(0 0 0)
(0 0 0)
(0 0 0)
(0 0 0)
(0 0 0)
(0 0 0)
(0 0 0)
(0 0 0)
(0 0 0)
(0 0 0)
(0 0 0)
(0 0 0)
(0 0 0)
(0 0 0)
(0 0 0)
(0 0 0)
(0 0 0)
(0 0 0)
(0 0 0)
(0 0 0)
(0 0 0)
(0 0 0)
(0 0 0)
(0 0 0)
(0 0 0)
(0 0 0)
(0 0 0)
(0 0 0)
(0 0 0)
(0 0 0)
(0 0 0)
(0 0 0)
(0 0 0)
(0 0 0)
(0 0 0)
(0 0 0)
(0 0 0)
(0 0 0)
(0 0 0)
(0 0 0)
(0 0 0)
(0 0 0)
(0 0 0)
(0 0 0)
(0 0 0)
(0 0 0)
(0 0 0)
(0 0 0)
(0 0 0)
(0 0 0)
(0 0 0)
(0 0 0)
(0 0 0)
(0 0 0)
(0 0 0)
(0 0 0)
(0 0 0)
(0 0 0)
(0 0 0)
(0 0 0)
(0 0 0)
(0 0 0)
(0 0 0)
(0 0 0)
(0 0 0)
(0 0 0)
(0 0 0)
(0 0 0)
(0 0 0)
(0 0 0)
(0 0 0)
(0 0 0)
(0 0 0)
(0 0 0)
(0 0 0)
(0 0 0)
(0 0 0)
(0 0 0)
(0 0 0)
(0 0 0)
(0 0 0)
(0 0 0)
(0 0 0)
(0 0 0)
(0 0 0)
(0 0 0)
(0 0 0)
(0 0 0)
(0 0 0)
(0 0 0)
(0 0 0)
(0 0 0)
(0 0 0)
(0 0 0)
(0 0 0)
(0 0 0)
(0 0 0)
(0 0 0)
(0 0 0)
(0 0 0)
(0 0 0)
(0 0 0)
(0 0 0)
(0 0 0)
(0 0 0)
(0 0 0)
(0 0 0)
(0 0 0)
(0 0 0)
(0 0 0)
(0 0 0)
(0 0 0)
(0 0 0)
(0 0 0)
(0 0 0)
(0 0 0)
(0 0 0)
(0 0 0)
(0 0 0)
(0 0 0)
(0 0 0)
(0 0 0)
(0 0 0)
(0 0 0)
(0 0 0)
(0 0 0)
(0 0 0)
(0 0 0)
(0 0 0)
(0 0 0)
(0 0 0)
(0 0 0)
(0 0 0)
(0 0 0)
(0 0 0)
(0 0 0)
(0 0 0)
(0 0 0)
(0 0 0)
(0 0 0)
(0 0 0)
(0 0 0)
(0 0 0)
(0 0 0)
(0 0 0)
(0 0 0)
(0 0 0)
(0 0 0)
(0 0 0)
(0 0 0)
(0 0 0)
(0 0 0)
(0 0 0)
(0 0 0)
(0 0 0)
(0 0 0)
(0 0 0)
(0 0 0)
(0 0 0)
(0 0 0)
(0 0 0)
(0 0 0)
(0 0 0)
(0 0 0)
(0 0 0)
(0 0 0)
(0 0 0)
(0 0 0)
(0 0 0)
(0 0 0)
(0 0 0)
(0 0 0)
(0 0 0)
(0 0 0)
(0 0 0)
(0 0 0)
(0 0 0)
(0 0 0)
(0 0 0)
(0 0 0)
(0 0 0)
(0 0 0)
(0 0 0)
(0 0 0)
(0 0 0)
(0 0 0)
(0 0 0)
(0 0 0)
(0 0 0)
(0 0 0)
(0 0 0)
(0 0 0)
(0 0 0)
(0 0 0)
(0 0 0)
(0 0 0)
(0 0 0)
(0 0 0)
(0 0 0)
(0 0 0)
(0 0 0)
(0 0 0)
(0 0 0)
(0 0 0)
(0 0 0)
(0 0 0)
(0 0 0)
(0 0 0)
(0 0 0)
(0 0 0)
(0 0 0)
(0 0 0)
(0 0 0)
(0 0 0)
(0 0 0)
(0 0 0)
(0 0 0)
(0 0 0)
(0 0 0)
(0 0 0)
(0 0 0)
(0 0 0)
(0 0 0)
(0 0 0)
(0 0 0)
(0 0 0)
(0 0 0)
(0 0 0)
(0 0 0)
(0 0 0)
(0 0 0)
(0 0 0)
(0 0 0)
(0 0 0)
(0 0 0)
(0 0 0)
(0 0 0)
(0 0 0)
(0 0 0)
(0 0 0)
(0 0 0)
(0 0 0)
(0 0 0)
(0 0 0)
(0 0 0)
(0 0 0)
(0 0 0)
(0 0 0)
(0 0 0)
(0 0 0)
(0 0 0)
(0 0 0)
(0 0 0)
(0 0 0)
(0 0 0)
(0 0 0)
(0 0 0)
(0 0 0)
(0 0 0)
(0 0 0)
(0 0 0)
(0 0 0)
(0 0 0)
(0 0 0)
(0 0 0)
(0 0 0)
(0 0 0)
(0 0 0)
(0 0 0)
(0 0 0)
(0 0 0)
(0 0 0)
(0 0 0)
(0 0 0)
(0 0 0)
(0 0 0)
(0 0 0)
(0 0 0)
(0 0 0)
(0 0 0)
(0 0 0)
(0 0 0)
(0 0 0)
(0 0 0)
(0 0 0)
(0 0 0)
(0 0 0)
(0 0 0)
(0 0 0)
(0 0 0)
(0 0 0)
(0 0 0)
(0 0 0)
(0 0 0)
(0 0 0)
(0 0 0)
(0 0 0)
(0 0 0)
(0 0 0)
(0 0 0)
(0 0 0)
(0 0 0)
(0 0 0)
(0 0 0)
(0 0 0)
(0 0 0)
(0 0 0)
(0 0 0)
(0 0 0)
(0 0 0)
(0 0 0)
(0 0 0)
(0 0 0)
(0 0 0)
(0 0 0)
(0 0 0)
(0 0 0)
(0 0 0)
(0 0 0)
(0 0 0)
(0 0 0)
(0 0 0)
(0 0 0)
(0 0 0)
(0 0 0)
(0 0 0)
(0 0 0)
(0 0 0)
(0 0 0)
(0 0 0)
(0 0 0)
(0 0 0)
(0 0 0)
(0 0 0)
(0 0 0)
(0 0 0)
(0 0 0)
(0 0 0)
(0 0 0)
(0 0 0)
(0 0 0)
(0 0 0)
(0 0 0)
(0 0 0)
(0 0 0)
(0 0 0)
(0 0 0)
(0 0 0)
(0 0 0)
(0 0 0)
(0 0 0)
(0 0 0)
(0 0 0)
(0 0 0)
(0 0 0)
(0 0 0)
(0 0 0)
(0 0 0)
(0 0 0)
(0 0 0)
(0 0 0)
(0 0 0)
(0 0 0)
(0 0 0)
(0 0 0)
(0 0 0)
(0 0 0)
(0 0 0)
(0 0 0)
(0 0 0)
(0 0 0)
(0 0 0)
(0 0 0)
(0 0 0)
(0 0 0)
(0 0 0)
(0 0 0)
(0 0 0)
(0 0 0)
(0 0 0)
(0 0 0)
(0 0 0)
(0 0 0)
(0 0 0)
(0 0 0)
(0 0 0)
(0 0 0)
(0 0 0)
(0 0 0)
(0 0 0)
(0 0 0)
(0 0 0)
(0 0 0)
(0 0 0)
(0 0 0)
(0 0 0)
(0 0 0)
(0 0 0)
(0 0 0)
(0 0 0)
(0 0 0)
(0 0 0)
(0 0 0)
(0 0 0)
(0 0 0)
(0 0 0)
(0 0 0)
(0 0 0)
(0 0 0)