/*--------------------------------*- C++ -*----------------------------------*\
| =========                 |                                                 |
| \\      /  F ield         | OpenFOAM: The Open Source CFD Toolbox           |
|  \\    /   O peration     | Version:  v2106                                 |
|   \\  /    A nd           | Website:  www.openfoam.com                      |
|    \\/     M anipulation  |                                                 |
\*---------------------------------------------------------------------------*/
FoamFile
{
    version     2.0;
    format      ascii;
    arch        "LSB;label=32;scalar=64";
    class       volScalarField;
    location    "0";
    object      p;
}
// * * * * * * * * * * * * * * * * * * * * * * * * * * * * * * * * * * * * * //

dimensions      [0 2 -2 0 0 0 0];

internalField   nonuniform List<scalar> 
11644
(
0.0843837
0.0847683
0.0855719
0.0867984
0.0884372
0.0904775
0.0929033
0.0956881
0.098791
0.102151
0.10568
0.109268
0.112767
0.115975
0.118695
0.120712
0.121757
0.121745
0.120645
0.118297
0.114627
0.109743
0.103883
0.0973078
0.0902339
0.0829113
0.0755767
0.0684379
0.0616779
0.0554058
0.0497056
0.0446304
0.0401932
0.0363899
0.0332026
0.0306053
0.028571
0.0270779
0.0261149
0.0256574
0.0837018
0.0840861
0.0848798
0.0860937
0.0877268
0.0897738
0.0922253
0.0950621
0.0982516
0.101742
0.105459
0.109285
0.113062
0.116618
0.119704
0.122054
0.123468
0.123742
0.122751
0.120395
0.116687
0.111637
0.105388
0.0982688
0.0906447
0.0828257
0.0750828
0.0676331
0.0606324
0.0542258
0.0484747
0.0433983
0.0389981
0.0352533
0.0321354
0.0296116
0.0276486
0.0262175
0.0252917
0.0248434
0.0822345
0.0826357
0.083436
0.0846446
0.0862749
0.0883358
0.09083
0.0937551
0.0970976
0.100829
0.104889
0.109187
0.113586
0.11786
0.121755
0.124986
0.127243
0.128214
0.12764
0.125275
0.121201
0.115516
0.10843
0.100244
0.091459
0.082565
0.0739171
0.0658015
0.0583868
0.0517483
0.0459168
0.0408712
0.036568
0.0329585
0.029988
0.0276058
0.0257651
0.0244225
0.0235414
0.0231021
0.0799941
0.0804032
0.0812102
0.0824176
0.084045
0.0861175
0.0886579
0.0916876
0.0952252
0.0992748
0.103825
0.108817
0.114097
0.119482
0.124698
0.129373
0.133038
0.135322
0.135653
0.133547
0.128953
0.122049
0.113269
0.103178
0.0926042
0.0820065
0.0719191
0.0627793
0.0547327
0.0478119
0.0419311
0.0369885
0.0328787
0.0294987
0.026762
0.0245925
0.0229274
0.0217137
0.020911
0.020508
0.0770111
0.0774078
0.0781966
0.0793799
0.0809832
0.0830431
0.0856048
0.0887198
0.0924436
0.0968334
0.101916
0.107637
0.113945
0.120725
0.127765
0.134653
0.140662
0.145418
0.147503
0.146191
0.141004
0.132262
0.120628
0.107279
0.0940187
0.080853
0.0686967
0.0581481
0.0493231
0.042123
0.0363253
0.0316458
0.0278791
0.0248677
0.0224821
0.0206219
0.0192087
0.0181849
0.0175118
0.0171734
0.0733041
0.0736756
0.0744117
0.0755295
0.0770574
0.0790419
0.0815482
0.0846609
0.088482
0.093075
0.0984488
0.104688
0.111938
0.12041
0.13008
0.140295
0.150219
0.159284
0.164822
0.165253
0.159298
0.147369
0.131119
0.112614
0.0949699
0.0779898
0.0632832
0.0512805
0.0417431
0.0343931
0.0288593
0.0246975
0.0215273
0.0190881
0.0172164
0.0157937
0.0147353
0.0139807
0.0134925
0.0132535
0.0689365
0.0692506
0.0698925
0.0708809
0.0722506
0.0740563
0.0763742
0.0793129
0.0829767
0.0873806
0.0926324
0.0990266
0.106978
0.117025
0.129851
0.14477
0.154976
0.169786
0.181261
0.186514
0.182367
0.168479
0.147607
0.124146
0.0930929
0.0712018
0.0536986
0.0406166
0.0312033
0.0242898
0.0194175
0.0160967
0.0138474
0.0122542
0.0111039
0.0102737
0.00968372
0.00928016
0.0090243
0.0088956
0.0639562
0.0642058
0.0647117
0.0654926
0.0665957
0.0680749
0.0700096
0.0725046
0.0755991
0.0793178
0.0839422
0.0899409
0.0977458
0.107747
0.121695
0.139883
0.164003
0.1889
0.212527
0.226487
0.223038
0.200841
0.166039
0.128655
0.0924831
0.0660415
0.0464785
0.0247539
0.0166041
0.0113072
0.0079765
0.00602458
0.0050417
0.00458785
0.00437059
0.00428582
0.00426739
0.00427802
0.00429621
0.00431179
0.0584677
0.0586315
0.0589524
0.0594621
0.0601811
0.0611608
0.0624715
0.0641813
0.0662762
0.0688499
0.0721672
0.0766409
0.0830528
0.0954351
0.109977
0.130964
0.158115
0.199678
0.24343
0.279944
0.285114
0.249855
0.191549
0.129124
0.0829681
0.0427058
0.0230189
0.00146099
-0.00260001
-0.00467871
-0.00537644
-0.00520717
-0.0045018
-0.0035542
-0.00265429
-0.00187153
-0.00123371
-0.000752786
-0.000433506
-0.000278075
0.0526621
0.052698
0.052788
0.05293
0.053141
0.0534585
0.0539199
0.0545315
0.0552359
0.0561398
0.057411
0.0590756
0.0612515
0.0722432
0.0813732
0.10205
0.1333
0.186248
0.269239
0.365191
0.400028
0.324922
0.201006
0.10222
0.034788
-0.00613831
-0.0163154
-0.0287718
-0.0260678
-0.0232168
-0.0201242
-0.0170786
-0.0142517
-0.0116921
-0.00954357
-0.00782551
-0.00649975
-0.00553637
-0.00490995
-0.00460748
0.0466633
0.0465865
0.046413
0.0461341
0.0457586
0.045278
0.0447036
0.0439771
0.0429569
0.0415887
0.0398395
0.0376261
0.0340506
0.0378619
0.0370178
0.0428427
0.0555355
0.0841528
0.181466
0.414579
0.59443
0.349366
0.0787036
-0.0397044
-0.0766001
-0.0825744
-0.0705612
-0.0640405
-0.0523436
-0.0428606
-0.0350362
-0.0286561
-0.0234674
-0.019209
-0.0158061
-0.0131793
-0.0111943
-0.00976655
-0.00884715
-0.00838203
0.0407603
0.0405222
0.0400452
0.0393325
0.0383407
0.0370077
0.0353068
0.0331077
0.0301892
0.0263048
0.0210178
0.0140365
0.00448545
0.000699192
-0.016212
-0.0335018
-0.0690498
-0.151673
-0.381341
-0.645071
-0.358738
-0.238122
-0.173941
-0.128903
-0.0991855
-0.0770963
-0.0605604
-0.0481076
-0.0385682
-0.0311682
-0.0253846
-0.0208995
-0.0174936
-0.0149472
-0.013142
-0.0119846
-0.0114516
0.0351576
0.0347793
0.0340194
0.0328782
0.0312956
0.0291601
0.0263593
0.0227266
0.018012
0.0118675
0.00360431
-0.00750339
-0.0224096
-0.0315342
-0.0603889
-0.0928045
-0.153811
-0.271443
-0.3819
-0.861912
-0.578676
-0.35819
-0.2412
-0.173746
-0.122395
-0.0937559
-0.072488
-0.0568774
-0.045162
-0.0362688
-0.0294853
-0.0243106
-0.0204034
-0.0174965
-0.0154465
-0.0141275
-0.0134606
0.0300233
0.0294782
0.0285407
0.0270909
0.0250306
0.0222387
0.018505
0.0137044
0.0076105
-0.000153358
-0.0102519
-0.0236181
-0.0409059
-0.054591
-0.083722
-0.11605
-0.16631
-0.23943
-0.281464
-0.67188
-0.556088
-0.380647
-0.256747
-0.186716
-0.127297
-0.0977908
-0.0756954
-0.0594098
-0.0471611
-0.0379199
-0.0309451
-0.0256382
-0.0216077
-0.018607
-0.0164634
-0.0150858
-0.0143893
0.0253801
0.0249903
0.0239193
0.0222336
0.0198387
0.0166307
0.0123179
0.00681003
-1.44707e-05
-0.0086182
-0.01936
-0.0332634
-0.0505312
-0.065224
-0.0916661
-0.118537
-0.149927
-0.169673
-0.215506
-0.369296
-0.607968
-0.765052
-0.717089
-0.518748
-0.33997
-0.224995
-0.16655
-0.112232
-0.0879575
-0.0693244
-0.0550083
-0.0441896
-0.0358298
-0.0295568
-0.0247418
-0.0209991
-0.0182132
-0.0162247
-0.0149502
-0.0144031
0.0217639
0.0213703
0.0203076
0.0185537
0.0160423
0.0126923
0.00830545
0.00267366
-0.00427271
-0.0128734
-0.0234921
-0.0368411
-0.0536097
-0.0695093
-0.0958332
-0.130421
-0.157117
-0.166716
-0.189478
-0.368753
-0.671913
-0.781858
-0.585087
-0.359895
-0.239341
-0.156319
-0.121444
-0.0809044
-0.0660846
-0.0538923
-0.0441854
-0.0364395
-0.030233
-0.0255148
-0.0217646
-0.0187551
-0.0164772
-0.0148385
-0.0137623
-0.0132681
0.0193974
0.0188652
0.0178152
0.0161714
0.0138205
0.0106725
0.00660499
0.00138733
-0.00510942
-0.0130931
-0.0229225
-0.0353947
-0.0511499
-0.0732743
-0.0982853
-0.141797
-0.197616
-0.28164
-0.314359
-0.384221
-0.441422
-0.368025
-0.227748
-0.142782
-0.0832276
-0.0701017
-0.0457082
-0.0430232
-0.0379908
-0.0331835
-0.028978
-0.0252103
-0.0220407
-0.0193644
-0.0169822
-0.0149867
-0.0134082
-0.012238
-0.0114547
-0.0109626
0.0182403
0.0177101
0.016714
0.0152293
0.0131758
0.0104649
0.00697357
0.00251217
-0.00306204
-0.00992355
-0.0184729
-0.0296256
-0.0441708
-0.0641304
-0.0918116
-0.139084
-0.209711
-0.343372
-0.461491
-0.499754
-0.424205
-0.226999
-0.0469528
0.0115487
0.0222146
0.00780876
-0.000388168
-0.00514205
-0.00991485
-0.0120726
-0.0127807
-0.0127784
-0.0124642
-0.0117944
-0.010861
-0.00996679
-0.00917216
-0.00853274
-0.00808298
-0.0078584
0.0180164
0.0175996
0.0168024
0.0156097
0.0139711
0.0118309
0.00910117
0.00563657
0.0013182
-0.00399157
-0.0105831
-0.0191492
-0.0305601
-0.0462091
-0.0699621
-0.104524
-0.159798
-0.262305
-0.395902
-0.470543
-0.418051
-0.224036
-0.0232779
0.0703231
0.0818044
0.0560816
0.0346892
0.0228565
0.0118482
0.00524259
0.00105128
-0.00160205
-0.00322324
-0.00409085
-0.00444789
-0.00452317
-0.00443213
-0.00429046
-0.00417059
-0.00416428
0.018553
0.0182832
0.0177468
0.0169252
0.0157955
0.0143408
0.0125289
0.0103026
0.00757875
0.00428105
0.000219811
-0.00488306
-0.0118044
-0.0208776
-0.03946
-0.0593833
-0.092287
-0.135237
-0.204986
-0.265096
-0.256798
-0.157972
-0.0288981
0.0586737
0.0846552
0.0687881
0.0486082
0.0348935
0.0235928
0.0158181
0.0103353
0.00653734
0.00398999
0.00233121
0.0012179
0.000522986
9.1627e-05
-0.000174209
-0.000333364
-0.000409576
0.0196331
0.0195089
0.0192231
0.0187635
0.0181499
0.0174049
0.0165676
0.0156839
0.014708
0.0135639
0.0121068
0.0102018
0.0069262
0.00277629
-0.0100901
-0.0239301
-0.0475323
-0.0712879
-0.100029
-0.128915
-0.13707
-0.109563
-0.0502957
0.00805062
0.0347528
0.0454441
0.0395518
0.0314218
0.024824
0.0189859
0.0145646
0.0112398
0.00880964
0.00704351
0.0057274
0.0047659
0.00408187
0.0036021
0.0033056
0.0031898
0.0209638
0.0209261
0.0208227
0.0206815
0.0205474
0.0204604
0.020491
0.0207338
0.0211946
0.0218644
0.022626
0.0232171
0.0228748
0.0204651
0.0160013
0.00122602
-0.0179267
-0.0511417
-0.0964447
-0.148118
-0.186418
-0.192082
-0.154585
-0.0947287
-0.0414917
0.00185502
0.0193659
0.0198155
0.0199552
0.0177734
0.0156064
0.0136032
0.0118741
0.0104326
0.00924896
0.00831867
0.00761009
0.0070962
0.00677538
0.00663905
0.0222851
0.0222616
0.0223039
0.0224385
0.0227099
0.0231518
0.0238239
0.0248276
0.0262147
0.0281184
0.0304454
0.0329406
0.034836
0.0350921
0.0305755
0.0187741
-0.0135475
-0.0707069
-0.15207
-0.245272
-0.317609
-0.316989
-0.245528
-0.169733
-0.0925746
-0.0243341
-0.00349585
0.00883534
0.0148671
0.0157646
0.0159141
0.015202
0.0141933
0.0131552
0.012215
0.0114312
0.0108014
0.0103294
0.0100244
0.00987613
0.0235185
0.0235282
0.0237006
0.0240322
0.0245614
0.0253289
0.0264009
0.0278488
0.0297965
0.0324418
0.0357689
0.0396086
0.0432606
0.045079
0.0378793
0.0186806
-0.0177016
-0.0767032
-0.151013
-0.227959
-0.292349
-0.281835
-0.219943
-0.150992
-0.0851919
-0.0352637
-0.00945318
0.00588006
0.0130322
0.0159358
0.017109
0.017057
0.0164995
0.0157464
0.0149788
0.0142797
0.0136916
0.0132427
0.0129502
0.0128161
0.0245933
0.0246948
0.0249399
0.0253544
0.0259818
0.0268841
0.0281397
0.0297922
0.0319696
0.0348115
0.0384077
0.0424263
0.0460912
0.0453614
0.034872
0.0131517
-0.0209638
-0.0695995
-0.121908
-0.167463
-0.196664
-0.185297
-0.145468
-0.0983381
-0.0534507
-0.0208072
-0.00123104
0.0100987
0.015618
0.0183706
0.0194083
0.0194007
0.0189715
0.018323
0.0176086
0.0169141
0.0163101
0.0158335
0.0155064
0.015369
0.0253363
0.0254926
0.0257645
0.0261969
0.0268264
0.0277002
0.028878
0.0304026
0.0322882
0.0345445
0.0371187
0.0393451
0.0399562
0.0345584
0.0224324
0.00137657
-0.0290313
-0.0654867
-0.0972736
-0.114661
-0.115353
-0.100634
-0.0755277
-0.0451053
-0.0179115
0.00133852
0.0121667
0.0181429
0.0210117
0.0224223
0.0225468
0.0221312
0.021483
0.0207364
0.0199634
0.0192371
0.0186128
0.0181153
0.0177539
0.0175478
0.0257082
0.0258408
0.0261092
0.0265101
0.0270578
0.0277499
0.0285964
0.0295989
0.0306669
0.0316222
0.0321137
0.0313033
0.0274792
0.0172482
-1.08269e-05
-0.0237879
-0.0514706
-0.0806423
-0.0992119
-0.103672
-0.094769
-0.0733015
-0.0471892
-0.0202485
0.00173864
0.014594
0.0214822
0.0250291
0.0265065
0.0266279
0.02594
0.0249367
0.0238872
0.0228654
0.021945
0.0211546
0.0205085
0.0200086
0.019652
0.0193981
0.0258754
0.0259898
0.0262005
0.0264956
0.0268692
0.0272841
0.0276887
0.0280044
0.0280721
0.0276165
0.0260135
0.0223712
0.0144744
-0.000677447
-0.0246027
-0.0549139
-0.0887532
-0.117825
-0.135532
-0.136074
-0.121294
-0.0894877
-0.0527912
-0.0213805
0.00275472
0.0169825
0.0250721
0.0290563
0.0303548
0.0299373
0.0287902
0.0273556
0.0259042
0.0246115
0.0235216
0.0226346
0.0219327
0.0214104
0.0210645
0.0208987
0.0259486
0.0260523
0.0261877
0.0263518
0.0265306
0.02668
0.0267122
0.0264984
0.0258223
0.0244461
0.0215017
0.0158478
0.00512098
-0.013858
-0.0428982
-0.0791117
-0.121255
-0.154734
-0.177478
-0.179499
-0.151773
-0.110942
-0.0661789
-0.0307108
-0.00362069
0.0150943
0.0263379
0.0315533
0.0329543
0.0318848
0.0305235
0.0288625
0.0272456
0.0258502
0.0246812
0.0237312
0.0229863
0.0224539
0.0221306
0.0220724
0.0259161
0.0259823
0.0260598
0.0261418
0.026201
0.0261864
0.0260311
0.0256294
0.0246699
0.022847
0.019418
0.0131027
0.00185711
-0.0167408
-0.045878
-0.0817205
-0.123891
-0.157837
-0.185816
-0.188259
-0.156645
-0.115756
-0.0716138
-0.0350013
-0.00693907
0.0139027
0.0263314
0.0324765
0.0341633
0.0325234
0.0310945
0.0294009
0.0278641
0.0265457
0.025434
0.0245295
0.0238324
0.023347
0.023055
0.0229731
0.0258274
0.025852
0.0259093
0.0259729
0.0260059
0.0259566
0.0257631
0.0253194
0.0243988
0.0226718
0.0195622
0.0142182
0.0049354
-0.00981525
-0.0324343
-0.0606594
-0.0933644
-0.123262
-0.146595
-0.152131
-0.131285
-0.102128
-0.0676722
-0.0352083
-0.00926699
0.01046
0.0232118
0.030407
0.0328423
0.0320696
0.0307065
0.0291795
0.0278414
0.0266937
0.025728
0.0249528
0.0243636
0.0239509
0.0236789
0.0235071
0.0257947
0.0258339
0.0258847
0.0259399
0.0259732
0.0259469
0.025799
0.0254481
0.0247958
0.0235987
0.0215046
0.0179715
0.0118563
0.00197453
-0.013026
-0.0321777
-0.0539465
-0.0765829
-0.0931539
-0.101234
-0.0985441
-0.0847845
-0.0627744
-0.0370671
-0.0146568
0.00349878
0.0167096
0.0249078
0.0287073
0.0295137
0.0289899
0.0280886
0.0271204
0.0262345
0.025459
0.0248333
0.0243436
0.0239818
0.023729
0.0235681
0.0257601
0.0258207
0.0258805
0.0259444
0.0260006
0.0260382
0.0260232
0.025902
0.0256462
0.025104
0.0240378
0.0221262
0.0186257
0.012301
0.00222347
-0.0120446
-0.0290436
-0.0482613
-0.0631193
-0.074592
-0.0803002
-0.0770134
-0.0632361
-0.043803
-0.0249258
-0.0080098
0.00578112
0.0158759
0.0220407
0.0249451
0.0258682
0.0259656
0.0256199
0.0251451
0.0246585
0.0242232
0.0238519
0.0235654
0.023376
0.0233051
0.0255825
0.0256069
0.0256747
0.0257741
0.0259043
0.0260669
0.0262565
0.0264541
0.0266256
0.0266829
0.0263715
0.02542
0.0232106
0.0184496
0.0100814
-0.00346672
-0.021668
-0.0425816
-0.0630013
-0.0799128
-0.087221
-0.0866467
-0.0765419
-0.061018
-0.0433466
-0.0246559
-0.00780028
0.00544182
0.0145088
0.0195325
0.0220396
0.0232272
0.0236551
0.023735
0.0236359
0.0234604
0.0232691
0.0231059
0.0229991
0.0229692
0.0252879
0.0252497
0.0253106
0.0254401
0.025654
0.0259417
0.0263166
0.0267859
0.0273258
0.0277974
0.0281601
0.0275723
0.025333
0.0203128
0.0113954
-0.00271776
-0.0229947
-0.0471175
-0.0749048
-0.0987785
-0.11174
-0.111219
-0.0998307
-0.0841466
-0.0628835
-0.0401723
-0.019453
-0.00331421
0.00814425
0.0148718
0.0187059
0.0207441
0.0218381
0.0224179
0.0226819
0.0227682
0.0227616
0.0227099
0.0226543
0.0225946
0.0249226
0.0249018
0.0249649
0.025108
0.0253506
0.0256852
0.0261233
0.0266922
0.0273624
0.028015
0.028685
0.0281974
0.0256065
0.0199347
0.00998078
-0.00472565
-0.0254732
-0.0506392
-0.0809611
-0.108689
-0.128828
-0.127518
-0.112954
-0.0953411
-0.0712148
-0.0461849
-0.0242136
-0.00705383
0.00494779
0.0123193
0.0167343
0.0191609
0.0205644
0.0213775
0.0218487
0.0220941
0.0222081
0.0222351
0.0222168
0.0221402
0.0244212
0.0244755
0.0245641
0.0247012
0.0249123
0.0252035
0.0255829
0.0260565
0.0266399
0.0271805
0.0276274
0.0267753
0.023621
0.0175195
0.00733188
-0.00734587
-0.0267355
-0.050148
-0.0766021
-0.0999582
-0.117877
-0.116021
-0.10193
-0.0839409
-0.0603664
-0.03843
-0.019456
-0.00455037
0.00571569
0.0122729
0.0162776
0.0186128
0.0200103
0.0207933
0.0212618
0.02152
0.0216507
0.021691
0.0216967
0.0216569
0.0236949
0.02378
0.0238651
0.0239724
0.0241218
0.0243218
0.0245757
0.0248611
0.0251529
0.0253161
0.0249746
0.0232704
0.0192682
0.0122539
0.00203762
-0.0116718
-0.0287213
-0.0480904
-0.0667241
-0.0802211
-0.0875489
-0.0834248
-0.0719468
-0.0563697
-0.0385386
-0.0222792
-0.00863388
0.0020925
0.00956054
0.0143202
0.0172183
0.0189619
0.0200204
0.0206201
0.0209775
0.0211682
0.0212556
0.0212828
0.0212911
0.0212924
0.0227661
0.0227894
0.0228293
0.022888
0.0229639
0.0230432
0.0231138
0.0231152
0.0229269
0.022354
0.0208724
0.0178219
0.0126744
0.00483284
-0.00550857
-0.0182734
-0.0327187
-0.0478783
-0.0593189
-0.0641197
-0.0607944
-0.0549441
-0.0456211
-0.0321286
-0.0188016
-0.00705321
0.00248477
0.00969837
0.0144035
0.0171971
0.0188382
0.0198237
0.0204058
0.0207428
0.020941
0.0210384
0.0210785
0.0210885
0.0210813
0.0210735
0.0217967
0.0217453
0.0217256
0.0217145
0.0216873
0.0216036
0.0214194
0.0210356
0.020254
0.018786
0.016027
0.0112126
0.00410473
-0.00533708
-0.016473
-0.0286984
-0.0408403
-0.0526001
-0.0600422
-0.0605371
-0.0560391
-0.0466515
-0.0347197
-0.0208537
-0.00815459
0.00255071
0.010673
0.0157932
0.0185411
0.0198694
0.0205149
0.0208044
0.0209264
0.0209693
0.0209715
0.0209493
0.020924
0.0208962
0.0208687
0.0208484
0.0209127
0.020876
0.0208267
0.0207434
0.0205925
0.0203166
0.0198437
0.0190604
0.0177063
0.0154113
0.0114759
0.00495223
-0.00434198
-0.0163069
-0.0300872
-0.0438423
-0.0562162
-0.0666372
-0.0733315
-0.0727575
-0.0660639
-0.0519585
-0.0348774
-0.0185173
-0.00405009
0.00725456
0.0151658
0.0193404
0.0212549
0.021912
0.0218381
0.0216108
0.0213271
0.0210646
0.0208598
0.0207033
0.0205945
0.0205271
0.0204957
0.0205109
0.0201032
0.0201279
0.0200733
0.0199477
0.0196978
0.0192792
0.0186177
0.0175437
0.0158127
0.013007
0.00835866
0.000956147
-0.00968123
-0.0236448
-0.0400485
-0.056346
-0.070991
-0.0818887
-0.0905535
-0.0901904
-0.0754754
-0.0568722
-0.0359573
-0.0179
-0.00259968
0.00872817
0.0163244
0.020394
0.0223849
0.0228704
0.0224666
0.0219102
0.0213707
0.0209242
0.0205838
0.0203367
0.0201692
0.0200772
0.0200484
0.0200944
0.0193184
0.0193623
0.0193012
0.0191548
0.0188773
0.0184413
0.0177506
0.0166463
0.0149448
0.0121116
0.00760552
0.000604366
-0.00961942
-0.0231064
-0.039158
-0.0558611
-0.0722406
-0.0837796
-0.0926339
-0.0921019
-0.0756437
-0.0565809
-0.0356336
-0.0178983
-0.00342689
0.00758178
0.0150467
0.0194093
0.0217147
0.0223343
0.0220143
0.0215103
0.0209399
0.0205081
0.0201693
0.0199246
0.0197549
0.0196547
0.019607
0.0196114
0.0186156
0.0186089
0.0185485
0.0184314
0.0182142
0.0178626
0.0173009
0.0164103
0.0150013
0.0127269
0.00906903
0.00353884
-0.0044186
-0.0148937
-0.027571
-0.0416092
-0.0557655
-0.0666682
-0.074696
-0.0758357
-0.0654359
-0.0515893
-0.0352867
-0.0199797
-0.00704545
0.00333222
0.0108587
0.0158706
0.0188221
0.020169
0.0204413
0.0202732
0.0199485
0.0196838
0.0194674
0.0193045
0.0191889
0.0191104
0.0190497
0.0189942
0.0181034
0.0180712
0.0180273
0.0179521
0.0178152
0.0175904
0.0172277
0.0166528
0.0157475
0.0142954
0.0119237
0.00820727
0.00282963
-0.00422451
-0.0127502
-0.0229888
-0.0337817
-0.0433971
-0.0503585
-0.0538249
-0.0526109
-0.0462992
-0.0359988
-0.0239961
-0.0128457
-0.00312474
0.0046132
0.0104995
0.0143921
0.0166616
0.017834
0.0182687
0.0183846
0.0184034
0.0183641
0.0183201
0.0182848
0.0182566
0.0182291
0.0181844
0.0177437
0.0177381
0.0177242
0.0176905
0.0176273
0.0175273
0.017364
0.0171097
0.0167149
0.0160567
0.0148845
0.0128433
0.00946578
0.00453291
-0.00191721
-0.0101652
-0.0193197
-0.0288499
-0.0366159
-0.0423858
-0.0450321
-0.0440616
-0.0382517
-0.0292156
-0.0198431
-0.0107375
-0.00274369
0.00380207
0.00874151
0.0123061
0.0145608
0.0157978
0.0164759
0.0168383
0.0170126
0.0171061
0.0171538
0.0171852
0.0172152
0.017256
0.0173587
0.0173653
0.0173726
0.0173845
0.0174011
0.0174316
0.0174685
0.0175091
0.0175433
0.0175243
0.0172455
0.0163986
0.0143435
0.0104459
0.00437311
-0.00392484
-0.0140507
-0.0250719
-0.0355573
-0.0438112
-0.047744
-0.0492113
-0.0455198
-0.0383714
-0.0298877
-0.0208083
-0.0118899
-0.00382853
0.002892
0.00797201
0.0113111
0.0133794
0.0146047
0.0153188
0.0157371
0.0159876
0.0161329
0.0162278
0.0162999
0.0163762
0.016877
0.016849
0.0168576
0.0169013
0.0169912
0.0171376
0.0173482
0.0176285
0.0179777
0.0183449
0.0186277
0.018315
0.016865
0.0137846
0.00807186
-0.000304952
-0.0113762
-0.0240727
-0.0377946
-0.0498102
-0.0586298
-0.0613136
-0.0576789
-0.0511055
-0.0419247
-0.031348
-0.0204601
-0.0101808
-0.0017832
0.00450079
0.0087761
0.0114779
0.0131149
0.0141327
0.014764
0.01516
0.0153967
0.0155346
0.0156066
0.0156228
0.0163451
0.0163024
0.0163147
0.0163748
0.0164992
0.0166929
0.0169934
0.0173709
0.0178532
0.0183383
0.0188183
0.0185674
0.0171738
0.0145274
0.00944344
0.00159795
-0.00896742
-0.0220622
-0.0372995
-0.0515712
-0.0660056
-0.0692041
-0.065505
-0.0586441
-0.0476098
-0.0358709
-0.0237477
-0.012502
-0.00366842
0.00294971
0.00751354
0.010385
0.0121765
0.0133032
0.0140337
0.0144978
0.0147859
0.0149303
0.014994
0.0149525
0.0157565
0.0157611
0.0157942
0.0158528
0.0159563
0.0161113
0.0163385
0.0166348
0.0169958
0.0172608
0.0173425
0.0166973
0.014933
0.0119019
0.00684984
-0.000447823
-0.00991328
-0.0216721
-0.0351972
-0.0484283
-0.0597102
-0.0623542
-0.0585726
-0.0515789
-0.0412353
-0.0301532
-0.0191087
-0.00941348
-0.00187825
0.0038522
0.00775979
0.0102403
0.0118437
0.0128549
0.0135021
0.0139008
0.0141562
0.0142926
0.0143526
0.0143252
0.0150514
0.0150941
0.0151179
0.0151359
0.0151632
0.0152053
0.0152629
0.0153159
0.0153317
0.0151072
0.0143896
0.012871
0.0102565
0.0063256
0.00087093
-0.00619596
-0.0145924
-0.0238884
-0.0333364
-0.0413153
-0.0456361
-0.0452539
-0.0410609
-0.0345559
-0.0261809
-0.0176016
-0.00957127
-0.00284004
0.00246562
0.00651053
0.009215
0.0109825
0.0121001
0.0127949
0.0132294
0.0134965
0.0136598
0.0137488
0.0137994
0.0138235
0.0141938
0.0141946
0.0141701
0.0141282
0.0140682
0.0139783
0.0138289
0.0135549
0.0130741
0.0121847
0.0105865
0.00813884
0.00463567
-0.000188588
-0.00614789
-0.0131001
-0.0205375
-0.0274904
-0.0324844
-0.0348793
-0.0342146
-0.030939
-0.0257289
-0.0193433
-0.0125514
-0.00606325
-0.000532764
0.00384473
0.00723244
0.00962913
0.0111692
0.0121088
0.0126803
0.0130175
0.0132251
0.01335
0.0134257
0.0134653
0.0134882
0.0135115
0.0132923
0.013216
0.0131382
0.0130403
0.012901
0.0126833
0.0123311
0.011734
0.0107443
0.00910918
0.00656326
0.00296671
-0.00163835
-0.00732672
-0.0137717
-0.0206468
-0.027286
-0.0326387
-0.03499
-0.0338734
-0.0313941
-0.0260759
-0.0192531
-0.0119108
-0.00486889
0.00108956
0.0057024
0.00902445
0.0112093
0.0123676
0.0129521
0.0131611
0.0132573
0.0132879
0.0133019
0.0133024
0.0132999
0.0132937
0.0132843
0.0132734
0.0125059
0.012432
0.0123361
0.012197
0.0119811
0.0116351
0.0110899
0.0102188
0.00878683
0.00647896
0.0030053
-0.00185461
-0.00805186
-0.0152799
-0.0229221
-0.0304066
-0.0369262
-0.0416019
-0.0428997
-0.0397058
-0.0342958
-0.0266676
-0.0175598
-0.00844534
-0.000549847
0.00558652
0.00992182
0.0125668
0.0139647
0.0142857
0.0141084
0.0138418
0.0135823
0.0133619
0.0132037
0.0130905
0.0130177
0.0129727
0.0129514
0.0129487
0.0118615
0.0118599
0.0117844
0.0116338
0.0113608
0.0109227
0.0102304
0.00919146
0.00747341
0.00474533
0.000672754
-0.00497562
-0.0124301
-0.0212313
-0.030297
-0.0390899
-0.0462117
-0.0510622
-0.0522139
-0.0470673
-0.0372929
-0.0266188
-0.0151424
-0.00481346
0.00314905
0.0088824
0.0125287
0.0143292
0.0151531
0.0150756
0.0145328
0.0140392
0.0135255
0.0131573
0.012882
0.0126905
0.0125696
0.0125079
0.0124928
0.0125303
0.0112881
0.0113347
0.0112741
0.011123
0.0108496
0.0104146
0.00972307
0.00865998
0.00699058
0.0043484
0.000386935
-0.00505528
-0.01222
-0.0210364
-0.0302789
-0.0391907
-0.0465763
-0.0514409
-0.0526174
-0.0473882
-0.0369181
-0.0251671
-0.0135914
-0.00378585
0.0034942
0.00876026
0.0120105
0.0135857
0.0144172
0.0144886
0.0140347
0.0135813
0.0130975
0.0127228
0.0124432
0.0122479
0.0121217
0.0120581
0.0120357
0.012061
0.0107778
0.0107888
0.0107366
0.0106245
0.0104185
0.0100846
0.00955036
0.00870554
0.00740281
0.00535957
0.0022737
-0.00191508
-0.00731045
-0.0140759
-0.0215213
-0.0289194
-0.0354272
-0.0401117
-0.0420945
-0.0394472
-0.033134
-0.0242004
-0.0152286
-0.00744199
-0.000978473
0.00406723
0.00764185
0.00995198
0.011435
0.0121874
0.0123728
0.0123304
0.012126
0.01194
0.0117955
0.0116935
0.0116249
0.0115831
0.0115519
0.0115297
0.0104094
0.0103835
0.010349
0.0102918
0.0101872
0.0100107
0.00971337
0.00923401
0.00846013
0.00725113
0.00535682
0.00268304
-0.000672611
-0.00497806
-0.0100486
-0.0154838
-0.0208584
-0.0251566
-0.0283666
-0.0293278
-0.0278818
-0.0240673
-0.0192264
-0.0135911
-0.00784424
-0.00279183
0.00143127
0.00471927
0.00714578
0.00881934
0.0098326
0.010365
0.0106147
0.0107425
0.010813
0.0108545
0.0108818
0.0108995
0.0108994
0.0108685
0.0101961
0.0101881
0.0101865
0.010182
0.0101622
0.0101207
0.0100394
0.00989885
0.00962665
0.00915402
0.00828742
0.00682539
0.00477027
0.00197418
-0.00168585
-0.00613231
-0.0111321
-0.0157241
-0.0201273
-0.0234621
-0.0249094
-0.025244
-0.0235596
-0.0195959
-0.0145206
-0.0094982
-0.00472364
-0.0005977
0.0026671
0.00514969
0.00695328
0.00813633
0.0088766
0.0093451
0.00962811
0.00980333
0.009918
0.0099994
0.010057
0.0100945
0.00998975
0.0100089
0.0100339
0.0100687
0.0101109
0.0101745
0.0102584
0.0103749
0.0104884
0.0105531
0.010474
0.00994204
0.00863608
0.00654115
0.0033465
-0.000999422
-0.00636315
-0.0122613
-0.0179917
-0.0228439
-0.0264653
-0.029492
-0.0294798
-0.0265491
-0.0219955
-0.0167813
-0.0113038
-0.00620167
-0.00181375
0.0017071
0.00433499
0.00616462
0.00735222
0.00809658
0.00855641
0.00884917
0.00903696
0.00916868
0.00926991
0.0093579
0.00967564
0.00967312
0.00969613
0.00974775
0.00983815
0.00998349
0.0101968
0.010478
0.0108544
0.0112707
0.011686
0.011853
0.011307
0.00999997
0.00741538
0.00339226
-0.00211164
-0.00938932
-0.0171083
-0.0243885
-0.031041
-0.0365362
-0.0374283
-0.0346627
-0.0302652
-0.0243254
-0.0177714
-0.0112953
-0.00554255
-0.000967659
0.00239654
0.00476432
0.00628305
0.00723721
0.00783796
0.00823128
0.00847995
0.00863402
0.00872836
0.00877664
0.00928046
0.00924574
0.00925808
0.00931221
0.00942632
0.00960972
0.00987771
0.0102415
0.0107254
0.0112834
0.0118362
0.0123178
0.0123011
0.0116303
0.00975152
0.00624924
0.00110696
-0.00658714
-0.0155124
-0.0248779
-0.0334027
-0.0399838
-0.0412826
-0.0389118
-0.0343195
-0.0278232
-0.0206225
-0.0133846
-0.0070626
-0.00210222
0.00152552
0.00408288
0.00568114
0.00673162
0.00740813
0.00784908
0.00812078
0.00826799
0.00833256
0.00831362
0.008849
0.00883035
0.00885099
0.00889795
0.00898896
0.00913167
0.00933808
0.00961265
0.00997526
0.0103147
0.0105505
0.0106098
0.010242
0.00926915
0.00736902
0.0041706
-0.000496865
-0.0068927
-0.0148581
-0.0232625
-0.0303231
-0.035338
-0.0358808
-0.0334191
-0.0290947
-0.0232042
-0.0168365
-0.0106577
-0.00529389
-0.00108171
0.002023
0.0041952
0.00560987
0.0065409
0.00712834
0.00751498
0.00775663
0.00788793
0.00794131
0.00790715
0.00835787
0.00838176
0.00839446
0.00840116
0.00841206
0.00843224
0.0084658
0.00849713
0.0084845
0.0083134
0.00783916
0.00695081
0.00562307
0.00373069
0.00115292
-0.0022304
-0.00644441
-0.0110543
-0.0159101
-0.0207255
-0.0239655
-0.0255126
-0.0243269
-0.0215699
-0.0177918
-0.0132625
-0.0087149
-0.00455239
-0.00110446
0.00162737
0.00369453
0.00511724
0.00607058
0.00667911
0.00706115
0.00730494
0.00745176
0.00753265
0.00757469
0.00758228
0.00774832
0.00775518
0.00772918
0.007675
0.00759079
0.00746736
0.00728169
0.00699138
0.0065282
0.00576755
0.00459491
0.00285461
0.000563224
-0.00227398
-0.00565774
-0.00930378
-0.0131036
-0.0162135
-0.0179734
-0.0188492
-0.0187852
-0.0170401
-0.0145154
-0.0113463
-0.00786934
-0.0043504
-0.00126089
0.00127031
0.00319435
0.00467786
0.00575036
0.00641703
0.00684637
0.00708101
0.00721738
0.00730109
0.00734661
0.00736762
0.0073815
0.00740242
0.00707679
0.00701909
0.00694016
0.0068299
0.00667178
0.00643442
0.00606932
0.00549643
0.004616
0.00330711
0.00146446
-0.000988245
-0.00411894
-0.00781572
-0.0119183
-0.0158702
-0.0193077
-0.0213744
-0.0213055
-0.0193005
-0.0167843
-0.0134098
-0.00980688
-0.00594499
-0.00215406
0.00112732
0.00361187
0.00534268
0.00646325
0.00714515
0.00744069
0.00754124
0.00753933
0.00749205
0.00744175
0.00740301
0.00737557
0.00735139
0.00733147
0.00731843
0.00650243
0.00642436
0.00631992
0.00617397
0.00596158
0.00564051
0.00514954
0.00436919
0.00314462
0.00133784
-0.00119138
-0.00454121
-0.00876729
-0.0135608
-0.0185403
-0.0230047
-0.0262877
-0.0276742
-0.0264487
-0.0222563
-0.0174414
-0.0122244
-0.00705827
-0.0021769
0.00200449
0.00509637
0.00713928
0.00829085
0.00878096
0.00876422
0.00848688
0.00817629
0.00788829
0.00765892
0.00748719
0.00736472
0.00728453
0.00723235
0.00719909
0.00717792
0.00608015
0.00605261
0.00596932
0.00582053
0.00558135
0.00520181
0.00463338
0.0037249
0.00227924
0.000101264
-0.0029136
-0.00706065
-0.0122733
-0.0180678
-0.0239067
-0.0289219
-0.0324524
-0.0333209
-0.0312447
-0.0252809
-0.0182827
-0.0110449
-0.00401726
0.00181964
0.00598194
0.00856244
0.00992333
0.0103249
0.0100794
0.00948125
0.00887134
0.00830814
0.00785733
0.00751993
0.00727265
0.00709785
0.00698609
0.0069265
0.00690424
0.00692176
0.00575385
0.00577499
0.00572115
0.00559231
0.00535724
0.00498309
0.00440023
0.00348726
0.00206953
-9.15367e-05
-0.00304133
-0.00715168
-0.0123006
-0.0179639
-0.0235909
-0.0284021
-0.0318741
-0.0326899
-0.0306274
-0.0250818
-0.0179217
-0.0104224
-0.003206
0.00252496
0.00636032
0.00863647
0.00977186
0.010014
0.00965648
0.00906664
0.00852142
0.00795527
0.00750896
0.00717056
0.00692153
0.00675108
0.00664259
0.00658956
0.006576
0.00660968
0.00548758
0.00550444
0.00545999
0.00536239
0.00518091
0.00489075
0.00443025
0.00371449
0.00262306
0.000976907
-0.00127758
-0.00429241
-0.00805843
-0.0122805
-0.0165997
-0.0204072
-0.0235288
-0.0249256
-0.0244025
-0.0211438
-0.0164745
-0.0111287
-0.00597741
-0.00161685
0.00173671
0.00411959
0.00568208
0.00659135
0.00701367
0.0071615
0.00712717
0.00695005
0.00675949
0.00658876
0.00645789
0.00637125
0.00631818
0.00629248
0.00628075
0.00628274
0.00530724
0.00529397
0.00526572
0.00522212
0.00513844
0.00499675
0.00476101
0.00437775
0.00379168
0.0028883
0.00160211
-5.55923e-05
-0.0021946
-0.00480132
-0.00768369
-0.0106262
-0.0131979