/*--------------------------------*- C++ -*----------------------------------*\
| =========                 |                                                 |
| \\      /  F ield         | OpenFOAM: The Open Source CFD Toolbox           |
|  \\    /   O peration     | Version:  v2106                                 |
|   \\  /    A nd           | Website:  www.openfoam.com                      |
|    \\/     M anipulation  |                                                 |
\*---------------------------------------------------------------------------*/
FoamFile
{
    version     2.0;
    format      ascii;
    arch        "LSB;label=32;scalar=64";
    class       volVectorField;
    location    "0";
    object      U;
}
// * * * * * * * * * * * * * * * * * * * * * * * * * * * * * * * * * * * * * //

dimensions      [0 1 -1 0 0 0 0];

internalField   nonuniform List<vector> 
11644
(
(0.995437 -0.000214873 1.90014e-23)
(0.995332 -0.000560691 5.24001e-23)
(0.995271 -0.000816707 2.8114e-23)
(0.995253 -0.00107498 0)
(0.995245 -0.00133898 0)
(0.995241 -0.00160107 0)
(0.99524 -0.00185617 0)
(0.995238 -0.00209115 0)
(0.995236 -0.00229283 0)
(0.995227 -0.00244807 0)
(0.995224 -0.00253613 0)
(0.995206 -0.00254097 0)
(0.995232 -0.00243777 0)
(0.995358 -0.00223928 0)
(0.995188 -0.00185349 0)
(0.995133 -0.00141381 0)
(0.99492 -0.000814804 0)
(0.994643 0.000129892 0)
(0.99464 0.00134827 0)
(0.994955 0.00249559 3.42991e-30)
(0.995306 0.00328547 -3.43863e-30)
(0.995379 0.00375917 0)
(0.995236 0.00412113 0)
(0.995195 0.00448927 0)
(0.99523 0.00474768 0)
(0.995284 0.00484888 0)
(0.995433 0.00480418 0)
(0.995248 0.00465176 0)
(0.995206 0.0044008 0)
(0.995236 0.00405994 0)
(0.99525 0.00367648 0)
(0.995248 0.003269 0)
(0.995253 0.00284956 0)
(0.995255 0.0024369 0)
(0.995257 0.00203808 0)
(0.995258 0.00165962 0)
(0.995262 0.00130541 0)
(0.995281 0.000975837 0)
(0.995354 0.00065461 0)
(0.995467 0.000244823 3.68417e-24)
(0.996174 -0.000441609 2.44071e-23)
(0.996091 -0.00132789 2.26088e-23)
(0.996027 -0.00220591 1.21425e-23)
(0.996005 -0.00306244 0)
(0.995999 -0.0039049 0)
(0.995988 -0.00473587 0)
(0.99596 -0.00553849 0)
(0.995907 -0.00628865 0)
(0.995819 -0.00695295 0)
(0.995691 -0.00748645 0)
(0.995517 -0.00783345 0)
(0.995277 -0.00793096 0)
(0.994897 -0.00770961 0)
(0.994313 -0.00707928 0)
(0.994112 -0.00604433 0)
(0.993617 -0.00450508 -3.05299e-24)
(0.993079 -0.00253803 7.0309e-24)
(0.992536 -0.00030297 1.2391e-23)
(0.99217 0.00224796 4.32085e-23)
(0.992236 0.00511343 2.44183e-23)
(0.992717 0.00802562 -1.20619e-22)
(0.993408 0.0105501 4.85435e-23)
(0.993984 0.0123577 -9.53342e-24)
(0.994293 0.0134602 -5.96828e-24)
(0.994753 0.0141609 3.59158e-24)
(0.995256 0.0144303 0)
(0.995537 0.0143135 0)
(0.9961 0.0137277 0)
(0.996336 0.0128742 0)
(0.996427 0.0118295 0)
(0.996483 0.0106451 0)
(0.996485 0.00940108 0)
(0.996446 0.0081512 0)
(0.996388 0.00692688 0)
(0.996322 0.00574858 0)
(0.996258 0.00462519 0)
(0.99621 0.00355129 0)
(0.996196 0.0025108 0)
(0.996235 0.00148353 0)
(0.996303 0.000488079 0)
(0.997677 -0.000698496 0)
(0.997612 -0.00214118 0)
(0.997564 -0.00362366 0)
(0.997546 -0.00510158 0)
(0.997541 -0.00657093 2.22954e-23)
(0.997521 -0.0080317 0)
(0.997461 -0.00946688 0)
(0.997335 -0.0108462 0)
(0.997113 -0.0121171 0)
(0.99676 -0.0132104 0)
(0.996205 -0.0140378 0)
(0.995476 -0.0144631 0)
(0.994645 -0.0143419 1.21491e-24)
(0.993761 -0.013581 -7.41036e-23)
(0.992106 -0.0119765 1.22419e-22)
(0.990762 -0.00957944 3.2733e-22)
(0.98946 -0.00637498 1.78375e-23)
(0.988246 -0.00259528 -4.69039e-22)
(0.987263 0.0017068 -1.11404e-22)
(0.986934 0.00647869 3.59307e-22)
(0.987464 0.0113624 -3.64449e-22)
(0.988831 0.0160094 -1.5576e-22)
(0.990708 0.0198637 7.08748e-22)
(0.992661 0.0224367 -5.33248e-22)
(0.994098 0.0236645 2.0521e-22)
(0.995493 0.0240246 -1.01354e-22)
(0.996971 0.0235944 6.79859e-23)
(0.997668 0.0226206 -9.09543e-25)
(0.998365 0.0211066 0)
(0.998783 0.0192475 0)
(0.998903 0.017243 0)
(0.998896 0.0151559 0)
(0.99878 0.0130841 0)
(0.998608 0.0110718 0)
(0.998416 0.00914509 0)
(0.998232 0.00731223 0)
(0.998076 0.00556831 0)
(0.997971 0.00389161 0)
(0.997929 0.00228313 0)
(0.997943 0.000740854 0)
(0.999989 -0.000994881 0)
(0.999938 -0.00301867 0)
(0.999918 -0.00508716 0)
(0.999928 -0.00719327 0)
(0.999949 -0.00933026 0)
(0.999944 -0.0114963 0)
(0.999873 -0.0136774 0)
(0.999689 -0.0158404 0)
(0.999328 -0.0179273 0)
(0.998706 -0.0198533 0)
(0.997824 -0.0214483 3.19678e-25)
(0.996508 -0.0225409 -2.93538e-23)
(0.994561 -0.0229447 2.19716e-22)
(0.9917 -0.0224354 -2.1566e-22)
(0.989338 -0.0206378 -3.66578e-23)
(0.986316 -0.017551 3.40996e-22)
(0.983472 -0.0131231 -5.49964e-23)
(0.980885 -0.00744221 -7.9001e-22)
(0.978929 -0.00071033 4.76609e-22)
(0.978357 0.00655188 1.02433e-21)
(0.979213 0.0138196 -1.12973e-21)
(0.981471 0.0206579 5.09283e-22)
(0.984819 0.0266158 -1.98766e-22)
(0.988934 0.0309311 -6.93885e-22)
(0.992883 0.0334017 4.70837e-22)
(0.996013 0.0340205 5.12751e-23)
(0.998146 0.0334038 2.15842e-22)
(1.00033 0.0315238 -1.81681e-22)
(1.00153 0.0291104 2.27727e-23)
(1.00218 0.0263302 -3.68973e-25)
(1.00247 0.0233611 0)
(1.0024 0.020413 0)
(1.00215 0.0175189 0)
(1.0018 0.0147554 0)
(1.00142 0.012141 0)
(1.00105 0.00967954 0)
(1.00074 0.00735648 0)
(1.00051 0.00515075 0)
(1.00038 0.00302316 0)
(1.00034 0.00100256 0)
(1.0031 -0.00129527 0)
(1.00308 -0.00390432 0)
(1.00311 -0.00659753 0)
(1.00319 -0.00934391 0)
(1.00329 -0.0121825 0)
(1.00337 -0.0151213 0)
(1.00336 -0.0181603 0)
(1.00319 -0.0212771 0)
(1.00277 -0.024425 0)
(1.00199 -0.0274748 1.84563e-24)
(1.00054 -0.0302717 2.81629e-22)
(0.998195 -0.0325876 -2.49461e-22)
(0.995143 -0.0340187 -2.10052e-22)
(0.991804 -0.0341751 -1.22798e-22)
(0.986435 -0.0330237 -1.04287e-21)
(0.981033 -0.0297202 1.94012e-22)
(0.975819 -0.024385 1.0268e-21)
(0.970952 -0.0169517 -4.60533e-22)
(0.967083 -0.00727374 2.35605e-21)
(0.965392 0.00392766 -1.10988e-21)
(0.96655 0.015646 1.70952e-21)
(0.970573 0.0264536 -3.26801e-21)
(0.976621 0.0351568 6.49466e-22)
(0.984458 0.0411611 -5.85136e-22)
(0.990969 0.0442994 -2.8159e-22)
(0.996754 0.045181 6.79017e-22)
(1.00186 0.0436425 3.14272e-22)
(1.00431 0.0409708 1.53798e-22)
(1.00615 0.0372278 1.49771e-22)
(1.00696 0.0331272 -1.86896e-22)
(1.00715 0.0290449 -1.66267e-24)
(1.00698 0.0250922 0)
(1.00649 0.0213854 0)
(1.00588 0.0179048 0)
(1.00523 0.0146657 0)
(1.00462 0.0116499 0)
(1.0041 0.00882831 0)
(1.00371 0.00617438 0)
(1.00346 0.00364919 0)
(1.00337 0.00118515 0)
(1.00699 -0.0015547 0)
(1.00702 -0.00475795 0)
(1.00716 -0.00801193 0)
(1.00738 -0.0114083 0)
(1.00766 -0.0149757 0)
(1.00792 -0.0187523 0)
(1.00812 -0.0227567 0)
(1.00812 -0.0269989 0)
(1.00781 -0.0314152 -5.29614e-24)
(1.00682 -0.0359044 3.54793e-23)
(1.00485 -0.0402745 -2.41976e-22)
(1.00199 -0.0441942 3.61585e-22)
(0.997922 -0.047582 2.211e-22)
(0.991184 -0.050428 -1.02901e-21)
(0.9847 -0.0501674 7.17272e-22)
(0.976049 -0.0474956 1.44566e-22)
(0.96602 -0.0422451 -1.15004e-21)
(0.956279 -0.0324363 -2.85206e-22)
(0.948766 -0.0179643 2.4919e-21)
(0.945152 -0.000898192 -4.59144e-21)
(0.946717 0.0167784 3.26626e-21)
(0.953057 0.033213 -8.38134e-22)
(0.96338 0.0467994 3.31991e-22)
(0.975754 0.0548443 7.55716e-22)
(0.988054 0.0580978 1.31212e-22)
(0.99848 0.0587158 -6.92253e-22)
(1.00521 0.0565089 6.77326e-22)
(1.01059 0.0510176 -9.81531e-23)
(1.01292 0.0454719 -1.96803e-22)
(1.0136 0.0397296 -1.10163e-22)
(1.01329 0.0342332 1.09126e-22)
(1.01262 0.029217 -6.21457e-24)
(1.01175 0.0246556 0)
(1.01074 0.0205155 0)
(1.00972 0.0167346 0)
(1.0088 0.0132682 0)
(1.00802 0.0100677 0)
(1.00743 0.00705495 0)
(1.00704 0.00417803 0)
(1.00688 0.00140426 0)
(1.01156 -0.00184466 0)
(1.01169 -0.00551148 0)
(1.01199 -0.00931241 0)
(1.01246 -0.013296 0)
(1.01304 -0.0175378 0)
(1.01368 -0.0221263 0)
(1.01428 -0.0271304 0)
(1.01472 -0.0325805 1.39737e-24)
(1.01458 -0.0383987 -1.16751e-22)
(1.01357 -0.0444893 2.14775e-22)
(1.01165 -0.050794 -2.25105e-22)
(1.00842 -0.0574363 2.61036e-22)
(1.00357 -0.0640518 9.60941e-23)
(0.99802 -0.0692184 4.12933e-22)
(0.986166 -0.0739617 -2.2896e-21)
(0.971921 -0.0740487 1.08308e-21)
(0.961619 -0.0616884 3.9399e-21)
(0.94659 -0.0519537 6.44851e-22)
(0.933019 -0.0339749 -1.95565e-22)
(0.924651 -0.0099906 -8.55572e-22)
(0.925089 0.0164012 2.04562e-21)
(0.933762 0.0400638 -1.29252e-21)
(0.948243 0.0576657 7.69275e-22)
(0.964906 0.0674819 2.92251e-21)
(0.987711 0.0796874 -1.40097e-21)
(1.0026 0.0773868 1.37957e-21)
(1.01456 0.0695837 -1.18339e-22)
(1.01905 0.0629035 2.39282e-22)
(1.02185 0.0541925 -4.44214e-22)
(1.02232 0.0461503 -7.52583e-23)
(1.02121 0.0389361 9.85106e-23)
(1.01956 0.0326411 -4.10458e-23)
(1.01786 0.0272124 -9.47531e-25)
(1.01629 0.0224882 0)
(1.01479 0.0182655 0)
(1.01347 0.0144338 0)
(1.01237 0.0109109 0)
(1.01154 0.00763005 0)
(1.01099 0.00449561 0)
(1.01076 0.00145076 0)
(1.01671 -0.00199014 0)
(1.01695 -0.00602649 0)
(1.0175 -0.0102682 0)
(1.01832 -0.0147073 0)
(1.01936 -0.0195397 0)
(1.02059 -0.0248486 0)
(1.02189 -0.0307673 0)
(1.02297 -0.0373234 2.23591e-23)
(1.0232 -0.0444698 1.50279e-22)
(1.0228 -0.0522326 -5.86307e-24)
(1.02165 -0.0608903 -4.67262e-22)
(1.01931 -0.0704868 1.46541e-22)
(1.01485 -0.0807732 -3.93018e-22)
(1.00442 -0.0869258 -8.17619e-23)
(0.994684 -0.0928294 8.99128e-23)
(0.977573 -0.0994248 -4.35961e-22)
(0.953293 -0.0991135 1.08375e-21)
(0.927049 -0.0883116 -2.56818e-21)
(0.899862 -0.0648186 -4.7001e-22)
(0.880632 -0.0269111 -1.84823e-21)
(0.878919 0.0186155 8.92451e-23)
(0.895674 0.0596566 -2.93618e-21)
(0.924836 0.0867569 -3.60099e-21)
(0.955813 0.0989586 -1.16372e-21)
(0.984372 0.100979 -1.66755e-21)
(1.00573 0.0938857 8.04854e-22)
(1.01882 0.0844662 1.06647e-22)
(1.03274 0.0727047 -1.45975e-22)
(1.03405 0.0619316 2.87172e-22)
(1.0333 0.0517716 -2.36227e-22)
(1.03093 0.0428006 1.54682e-22)
(1.02793 0.0351783 -1.60322e-22)
(1.02486 0.0288871 5.95574e-24)
(1.02238 0.0236445 0)
(1.02028 0.0191159 0)
(1.01847 0.0150708 0)
(1.01701 0.0113809 0)
(1.01591 0.00796897 0)
(1.01518 0.00473357 0)
(1.01486 0.00161699 0)
(1.0222 -0.00203265 0)
(1.0226 -0.00632892 0)
(1.02344 -0.0106586 0)
(1.02473 -0.0154141 0)
(1.02642 -0.0206128 0)
(1.02846 -0.0264338 0)
(1.03075 -0.0330166 1.36128e-23)
(1.03262 -0.0404087 1.5166e-23)
(1.03375 -0.048605 -2.17576e-22)
(1.03477 -0.0580303 4.82698e-23)
(1.03536 -0.0693228 -1.0133e-23)
(1.03492 -0.0826962 3.79284e-22)
(1.03219 -0.0988583 -2.90547e-22)
(1.02011 -0.111296 5.32e-23)
(1.00849 -0.124417 7.44236e-22)
(0.988879 -0.140434 -8.42641e-23)
(0.958688 -0.144104 8.80382e-22)
(0.913149 -0.141242 2.31374e-21)
(0.862112 -0.116018 1.11904e-21)
(0.817866 -0.0590493 1.34459e-21)
(0.806764 0.0207269 4.16595e-22)
(0.836662 0.0918015 -2.60272e-21)
(0.889658 0.132542 -2.8989e-21)
(0.947118 0.145033 -4.93711e-22)
(0.98857 0.136804 1.89374e-22)
(1.0222 0.122055 3.29668e-22)
(1.0367 0.102528 -1.48414e-22)
(1.05054 0.0841641 -9.42811e-23)
(1.04962 0.0675187 -2.43557e-23)
(1.04656 0.0551915 2.47462e-23)
(1.04221 0.0450055 -4.00949e-23)
(1.03745 0.0365073 2.77319e-23)
(1.03271 0.0295511 -7.31961e-24)
(1.02884 0.0239627 2.38679e-24)
(1.02599 0.019302 0)
(1.02364 0.0151877 0)
(1.02176 0.0114659 0)
(1.02037 0.00799526 0)
(1.01946 0.00471227 0)
(1.01905 0.00149109 0)
(1.02777 -0.00215906 0)
(1.02835 -0.00623795 0)
(1.02959 -0.0106918 0)
(1.03145 -0.0154087 0)
(1.0339 -0.0206177 0)
(1.03695 -0.0265482 0)
(1.04038 -0.0333632 5.83687e-24)
(1.04327 -0.0410741 -4.20194e-23)
(1.04605 -0.0499975 6.37166e-23)
(1.04946 -0.06086 1.12397e-22)
(1.05302 -0.074173 -1.94761e-22)
(1.05617 -0.0909033 -6.27022e-24)
(1.05823 -0.11288 1.41782e-22)
(1.04848 -0.131761 -4.55435e-22)
(1.04016 -0.154754 4.05419e-23)
(1.01562 -0.182676 7.18113e-22)
(0.97945 -0.205997 -1.8781e-22)
(0.915937 -0.230033 -5.15101e-23)
(0.815615 -0.224418 -4.96924e-22)
(0.698899 -0.14339 -3.77275e-22)
(0.650309 0.0224811 2.33885e-22)
(0.724755 0.178061 4.39921e-22)
(0.853972 0.239731 -7.82218e-22)
(0.95629 0.227366 2.66107e-22)
(1.02279 0.191186 2.78071e-22)
(1.05954 0.151729 -1.28683e-21)
(1.06793 0.115244 -2.18037e-23)
(1.07479 0.0870761 8.41435e-23)
(1.06827 0.0681308 -1.1176e-22)
(1.06153 0.0549515 2.12342e-23)
(1.05445 0.0444722 5.89636e-23)
(1.04754 0.0358729 2.38558e-25)
(1.04103 0.0288583 -1.11313e-23)
(1.03551 0.0232549 -3.83129e-24)
(1.0317 0.0186917 0)
(1.02877 0.014708 0)
(1.02647 0.0111095 0)
(1.02478 0.00777214 0)
(1.0237 0.00462222 0)
(1.02319 0.0015729 0)
(1.03309 -0.00180448 0)
(1.03387 -0.00573548 0)
(1.03548 -0.00977397 0)
(1.03791 -0.0141254 0)
(1.04123 -0.0190617 0)
(1.04544 -0.0247302 0)
(1.05005 -0.031252 1.33695e-24)
(1.05435 -0.038726 -1.22177e-23)
(1.05959 -0.0478261 2.15421e-23)
(1.06628 -0.0593723 5.82216e-23)
(1.07404 -0.0737786 -6.22638e-23)
(1.0823 -0.0915564 -2.72844e-23)
(1.09116 -0.114406 1.53041e-23)
(1.08878 -0.141204 8.77519e-23)
(1.08856 -0.17401 -1.5104e-22)
(1.07778 -0.217947 -1.23554e-22)
(1.05095 -0.274509 -6.49027e-23)
(0.990981 -0.363236 -4.77938e-23)
(0.828826 -0.46334 -1.45921e-21)
(0.465699 -0.44041 -5.14148e-20)
(0.18724 0.0417764 -2.6889e-20)
(0.513293 0.49868 -2.40076e-20)
(0.8897 0.484825 8.61298e-22)
(1.05616 0.349032 -3.23235e-23)
(1.11004 0.238807 -4.01163e-23)
(1.12168 0.159151 1.25312e-23)
(1.11093 0.117371 2.12136e-22)
(1.10187 0.0770682 1.14174e-22)
(1.08848 0.0614186 -1.31554e-22)
(1.07674 0.0494503 5.02553e-23)
(1.06638 0.0401559 -2.98093e-23)
(1.05729 0.0327724 3.7017e-25)
(1.04912 0.0266104 -1.46922e-23)
(1.04204 0.0214925 7.33824e-24)
(1.03715 0.0173162 0)
(1.03366 0.0137054 0)
(1.03097 0.0103954 0)
(1.02902 0.00733507 0)
(1.02775 0.00433051 0)
(1.02717 0.00148336 0)
(1.03788 -0.00165739 0)
(1.03886 -0.00490685 0)
(1.04083 -0.00825352 0)
(1.04388 -0.011971 0)
(1.04803 -0.0161443 0)
(1.05335 -0.0209782 0)
(1.05911 -0.0265709 2.47527e-24)
(1.06524 -0.0332061 4.42267e-24)
(1.07338 -0.0416139 8.04803e-24)
(1.08379 -0.0524985 -5.25599e-24)
(1.09646 -0.0664127 4.33983e-24)
(1.11091 -0.0835668 5.26063e-24)
(1.12694 -0.103791 -1.51827e-23)
(1.13286 -0.134016 1.58389e-23)
(1.14799 -0.167259 -1.87743e-22)
(1.15785 -0.216798 1.13256e-22)
(1.17241 -0.286841 -1.66493e-22)
(1.20169 -0.411897 8.16653e-22)
(0.867092 -0.456875 -7.20759e-20)
(1.15553 0.609372 2.52776e-20)
(1.30814 0.370229 5.01884e-23)
(1.24267 0.211688 1.01904e-22)
(1.1951 0.126064 1.09593e-22)
(1.15652 0.0913708 -3.50421e-23)
(1.12766 0.0550164 -6.5648e-24)
(1.10608 0.0452634 2.00445e-23)
(1.08927 0.03776 -5.59737e-24)
(1.07615 0.0319304 1.0152e-23)
(1.06538 0.0271338 -5.43464e-24)
(1.05606 0.0227678 2.48417e-24)
(1.04792 0.0187696 1.25148e-24)
(1.04209 0.0153058 0)
(1.03811 0.0122034 0)
(1.03508 0.00927036 0)
(1.0329 0.00647088 0)
(1.03152 0.00386905 0)
(1.03088 0.00113271 0)
(1.04152 -0.00111842 0)
(1.04279 -0.0035372 0)
(1.04521 -0.00606686 0)
(1.04879 -0.00880179 0)
(1.05362 -0.0118138 0)
(1.05986 -0.015308 0)
(1.06679 -0.0194173 7.86192e-25)
(1.07495 -0.0245695 -4.47731e-24)
(1.08606 -0.0313999 -3.70615e-24)
(1.10007 -0.0402858 -2.12032e-23)
(1.11724 -0.0516356 3.6705e-23)
(1.13734 -0.0656825 1.14932e-24)
(1.16041 -0.0818607 -4.30403e-23)
(1.17226 -0.109243 -7.66359e-23)
(1.201 -0.134529 -1.79275e-22)
(1.22687 -0.173041 1.38667e-23)
(1.27096 -0.216962 1.0317e-23)
(1.33111 -0.255207 1.49179e-21)
(0.00636393 0.0228837 2.86829e-19)
(0.0844434 0.010067 -2.35764e-19)
(1.48933 0.156785 -4.7661e-22)
(1.33687 0.0962525 1.62498e-23)
(1.24408 0.0526034 -1.25196e-22)
(1.18782 0.0406841 -2.52431e-22)
(1.13999 0.0219487 -4.37799e-23)
(1.11461 0.0224504 6.14103e-23)
(1.09583 0.0217485 -2.30171e-23)
(1.08175 0.0208667 -1.31221e-23)
(1.07044 0.0195881 2.45153e-23)
(1.06093 0.0177265 2.05984e-23)
(1.05253 0.0153444 1.14483e-24)
(1.04627 0.0128617 0)
(1.04203 0.0104489 0)
(1.03881 0.00809196 0)
(1.03646 0.00575966 0)
(1.03493 0.00347274 0)
(1.03419 0.00129956 0)
(1.04465 -0.000821139 -1.49673e-25)
(1.04577 -0.00201288 0)
(1.04825 -0.00337435 0)
(1.05206 -0.00480092 0)
(1.05732 -0.00635967 0)
(1.06419 -0.00812387 0)
(1.07232 -0.0103174 1.60167e-24)
(1.0825 -0.0134124 -1.61131e-23)
(1.09619 -0.0178195 6.29226e-23)
(1.1131 -0.0235714 -4.60022e-23)
(1.1334 -0.0307444 -3.14165e-23)
(1.15749 -0.0397941 -1.82858e-22)
(1.18497 -0.0499685 7.79994e-23)
(1.20308 -0.0727666 -1.08664e-22)
(1.23691 -0.0900642 5.21602e-22)
(1.26628 -0.116487 -2.24826e-22)
(1.30775 -0.137301 3.10855e-22)
(1.16516 -0.107616 -1.53283e-23)
(-0.0115424 0.00947006 -2.01002e-21)
(0.363037 -0.0301582 1.32129e-20)
(1.45653 -0.0612926 -1.84523e-22)
(1.34242 -0.0423634 -1.16279e-21)
(1.24387 -0.0343245 4.76563e-22)
(1.18827 -0.0187705 9.85713e-22)
(1.1365 -0.0137347 -1.46738e-22)
(1.11259 -0.00156835 -5.19672e-22)
(1.09486 0.00517872 2.27535e-22)
(1.0817 0.00946324 -4.02497e-25)
(1.07157 0.0116653 -1.00016e-22)
(1.06321 0.0123569 1.59448e-23)
(1.05556 0.0117619 1.15355e-23)
(1.04949 0.0102632 0)
(1.04522 0.00851435 0)
(1.04193 0.00668883 0)
(1.03954 0.00486308 0)
(1.03793 0.00289128 0)
(1.03717 0.000992224 0)
(1.04599 0.000219052 2.62247e-26)
(1.04732 2.01969e-06 0)
(1.04971 -0.000208044 0)
(1.05351 -0.000296822 0)
(1.0589 -0.00028446 0)
(1.06606 -9.81375e-05 0)
(1.07524 -4.09994e-06 1.39781e-24)
(1.08686 -0.000592262 2.87452e-24)
(1.10212 -0.0018414 -1.70944e-23)
(1.1206 -0.0035891 1.85313e-23)
(1.14249 -0.00564103 -5.86752e-23)
(1.16888 -0.00863118 1.71876e-23)
(1.19859 -0.0121003 -3.79042e-23)
(1.22167 -0.0297367 -6.70417e-22)
(1.25897 -0.0415052 -1.02599e-21)
(1.29062 -0.0635506 -4.46475e-22)
(1.32241 -0.0826966 6.17501e-23)
(0.992785 -0.0587548 -1.76108e-22)
(0.0276823 -0.0701235 -9.81804e-22)
(-0.200325 -0.0502376 -3.46406e-21)
(-0.176519 0.169498 -1.29319e-22)
(0.223264 0.124835 1.96023e-21)
(0.812212 -0.171275 -1.07047e-21)
(1.39236 -0.236287 -7.23407e-22)
(1.28238 -0.16506 6.36107e-22)
(1.19676 -0.107183 -2.89574e-22)
(1.1564 -0.0670049 -2.49526e-21)
(1.11327 -0.0384179 5.00838e-22)
(1.09801 -0.0198651 -6.70543e-22)
(1.08613 -0.00793534 2.37123e-22)
(1.07678 0.000223492 -4.81604e-23)
(1.06913 0.00511756 3.13597e-23)
(1.06275 0.00774988 3.34617e-23)
(1.05691 0.00854975 -8.38662e-24)
(1.05183 0.00788459 0)
(1.04769 0.00657525 0)
(1.04441 0.00511425 0)
(1.04202 0.00359685 0)
(1.04051 0.0021444 0)
(1.03985 0.000490043 0)
(1.04549 0.000448468 5.76541e-24)
(1.04676 0.00154358 0)
(1.04918 0.00279168 0)
(1.05285 0.00411827 0)
(1.05798 0.00573168 0)
(1.0649 0.00786776 0)
(1.07445 0.0104105 -2.41413e-25)
(1.08685 0.0127108 -7.92293e-24)
(1.10233 0.0150355 -3.2938e-23)
(1.12092 0.0178652 5.04259e-23)
(1.14288 0.0216735 1.50205e-22)
(1.16916 0.0256578 1.12343e-22)
(1.20012 0.0310537 -1.58823e-22)
(1.23018 0.0201269 3.65359e-23)
(1.27276 0.0166323 1.12405e-22)
(1.3276 0.00530009 8.79568e-22)
(1.36453 -0.0306672 -2.07745e-21)
(0.930864 -0.0947127 -1.50508e-20)
(0.249381 -0.323385 5.11752e-22)
(-0.311005 -0.475296 3.45818e-21)
(-0.200531 -0.537652 3.55152e-22)
(0.440517 -0.557072 -4.00262e-21)
(1.05957 -0.588263 -1.05291e-21)
(1.18983 -0.397654 -3.0307e-22)
(1.15442 -0.246481 3.12401e-21)
(1.1125 -0.143069 2.6055e-21)
(1.10285 -0.0853569 -2.5523e-22)
(1.07904 -0.0435606 3.18308e-22)
(1.07551 -0.0233856 -9.75952e-22)
(1.07128 -0.0117745 -9.44952e-23)
(1.06752 -0.00385259 -2.05477e-22)
(1.06412 0.00177549 6.78749e-23)
(1.06044 0.00493628 -1.40336e-23)
(1.05704 0.00623404 -2.47843e-25)
(1.05356 0.00603479 0)
(1.04984 0.00511107 0)
(1.04673 0.00405463 0)
(1.04436 0.00288418 0)
(1.04271 0.00176716 0)
(1.04181 0.000732212 1.29619e-23)
(1.04377 0.000836446 -1.02939e-23)
(1.04483 0.00275374 0)
(1.04689 0.00500596 0)
(1.05009 0.00758269 0)
(1.05455 0.0106543 0)
(1.06059 0.0144932 0)
(1.06948 0.0192569 0)
(1.08176 0.0246053 6.12331e-24)
(1.09633 0.0307126 -8.74935e-25)
(1.11318 0.0383069 6.13031e-23)
(1.1332 0.0481279 -2.39308e-22)
(1.15727 0.0598778 2.32286e-22)
(1.18688 0.0761686 4.81967e-22)
(1.22635 0.0939491 -4.87991e-22)
(1.26975 0.0904411 6.77635e-22)
(1.3365 0.104282 2.57552e-21)
(1.41707 0.0849108 -1.6487e-21)
(1.20758 -0.0056784 2.70829e-20)
(0.594737 -0.287245 3.17748e-22)
(0.0248477 -0.61531 3.78331e-21)
(-0.0905706 -0.886631 5.29099e-21)
(0.31722 -0.837135 9.57182e-22)
(0.771834 -0.580186 -6.91434e-21)
(0.913605 -0.371219 -1.99317e-20)
(0.975894 -0.206458 -7.5307e-22)
(1.01556 -0.118067 1.29006e-21)
(1.02983 -0.046786 2.02751e-22)
(1.04831 -0.023979 1.1166e-22)
(1.05541 -0.0124628 -3.80995e-22)
(1.05843 -0.00528126 2.45702e-22)
(1.05916 -0.000755706 -4.40659e-23)
(1.05834 0.00204397 -1.10348e-23)
(1.05733 0.00397964 -2.7958e-23)
(1.05659 0.00485788 0)
(1.05448 0.00453532 0)
(1.05132 0.00381802 0)
(1.04844 0.00308647 0)
(1.04617 0.00230041 0)
(1.0446 0.00144991 0)
(1.04386 0.000634227 5.57894e-23)
(1.04089 0.00114254 -4.5473e-24)
(1.04167 0.00369542 0)
(1.04327 0.00658072 0)
(1.04572 0.00992581 0)
(1.0491 0.0139678 0)
(1.05372 0.0189888 0)
(1.06102 0.0252949 0)
(1.07176 0.0329085 0)
(1.08422 0.0422845 -7.58793e-25)
(1.09782 0.0540903 4.97535e-23)
(1.11353 0.06962 -2.75144e-23)
(1.13251 0.0890961 -1.55018e-22)
(1.15556 0.115618 1.08602e-22)
(1.18794 0.151218 1.41128e-22)
(1.23353 0.168908 -4.86995e-22)
(1.29505 0.215574 -6.46872e-23)
(1.38785 0.256644 -1.09997e-21)
(1.40575 0.296567 -3.92431e-21)
(1.02002 0.112238 -3.62178e-21)
(0.510529 -0.216806 1.24472e-20)
(0.138709 -0.51176 1.09151e-21)
(0.0971543 -0.587626 5.53491e-21)
(0.396638 -0.417262 1.41638e-21)
(0.723334 -0.198606 -7.72088e-21)
(0.857687 -0.0797419 -6.60969e-22)
(0.941176 -0.0342572 -4.92541e-22)
(1.00368 0.0160048 2.58841e-22)
(1.03295 0.00990712 -3.07539e-22)
(1.0473 0.00925174 -7.27231e-23)
(1.0538 0.00759259 7.00682e-23)
(1.05587 0.00625274 -3.63417e-23)
(1.05614 0.00530586 7.84042e-25)
(1.05632 0.00472469 0)
(1.05657 0.00400269 0)
(1.05505 0.00317154 0)
(1.05204 0.00245961 0)
(1.04918 0.00188102 3.51944e-23)
(1.04701 0.00131375 4.86716e-23)
(1.04562 0.000726992 2.90234e-23)
(1.04484 7.88839e-05 0)
(1.03736 0.00133567 0)
(1.03776 0.00415066 0)
(1.03875 0.00731125 0)
(1.04031 0.0109584 0)
(1.04243 0.0153842 0)
(1.0454 0.0208326 0)
(1.05061 0.0277412 0)
(1.05878 0.0364688 0)
(1.0678 0.0477313 1.13029e-26)
(1.07662 0.0623674 1.82273e-24)
(1.08583 0.0818289 -4.96552e-24)
(1.09614 0.106765 -1.41562e-23)
(1.10813 0.139579 5.20968e-23)
(1.12417 0.184462 2.71053e-22)
(1.16191 0.224014 2.60164e-21)
(1.1948 0.292607 -4.6896e-23)
(1.24351 0.372122 -1.21323e-21)
(1.32992 0.511226 -5.14639e-22)
(1.22895 0.604 7.45756e-22)
(0.878481 0.529488 2.26184e-20)
(0.474318 0.319954 -9.06415e-22)
(0.210949 0.0766192 6.0738e-21)
(0.259193 -0.0774578 -2.22872e-21)
(0.510762 -0.0468334 -2.71028e-22)
(0.804894 0.100211 6.46199e-22)
(0.927678 0.0889976 1.37653e-21)
(1.01871 0.0788429 1.26966e-22)
(1.04571 0.0473152 7.33861e-23)
(1.0566 0.03243 8.49123e-23)
(1.05978 0.0204768 -1.76087e-23)
(1.05968 0.0129561 -4.80453e-24)
(1.0586 0.00810028 -6.72077e-26)
(1.05805 0.00499098 0)
(1.05786 0.00281749 0)
(1.05593 0.00149609 0)
(1.05267 0.000754533 0)
(1.04966 0.000295365 0)
(1.04737 -8.18214e-06 0)
(1.0458 -9.79032e-05 0)
(1.04479 -0.000105742 -5.22715e-24)
(1.03355 0.00134298 0)
(1.03362 0.00412483 0)
(1.03399 0.00712571 0)
(1.03463 0.0105646 0)
(1.03548 0.014732 0)
(1.03674 0.0198081 0)
(1.03955 0.0263665 0)
(1.04435 0.0351474 0)
(1.04885 0.0468804 0)
(1.05189 0.0622312 0)
(1.05353 0.0825655 -3.78062e-24)
(1.05338 0.109011 3.09646e-24)
(1.05279 0.14268 8.95946e-23)
(1.05051 0.190033 -2.23689e-23)
(1.0709 0.239195 1.17153e-20)
(1.08066 0.308143 -6.92126e-22)
(1.09187 0.387468 4.81444e-21)
(1.0749 0.52539 -7.00663e-22)
(1.05364 0.711075 -3.35556e-21)
(0.933383 0.822211 -5.62014e-21)
(0.738187 0.782829 -2.70498e-21)
(0.5635 0.605372 3.09483e-21)
(0.49728 0.379866 -1.6872e-21)
(0.484653 0.229254 -4.37851e-22)
(0.756274 0.245913 1.25098e-20)
(0.999143 0.193778 8.21481e-22)
(1.07955 0.113156 -2.13716e-22)
(1.08695 0.0704187 1.97334e-22)
(1.08299 0.0446801 -1.17571e-22)
(1.07643 0.0263172 -5.9089e-25)
(1.07023 0.0149398 0)
(1.06524 0.00761158 0)
(1.06218 0.00293115 0)
(1.06022 9.87226e-05 0)
(1.05704 -0.00114545 0)
(1.05314 -0.00157103 0)
(1.04977 -0.00160139 0)
(1.04722 -0.00135308 0)
(1.04543 -0.00085131 0)
(1.04434 -0.000259937 0)
(1.02977 0.00118676 0)
(1.02965 0.00351192 0)
(1.02962 0.00594769 0)
(1.02956 0.00866746 0)
(1.02937 0.0118963 0)
(1.02903 0.015807 0)
(1.02919 0.0210076 0)
(1.03008 0.028566 0)
(1.02976 0.0391162 0)
(1.02706 0.0529847 0)
(1.02137 0.0711645 0)
(1.01172 0.0950147 7.21761e-25)
(0.99819 0.12492 3.72286e-24)
(0.979476 0.169474 -1.90803e-23)
(0.981082 0.21978 4.14967e-21)
(0.969313 0.284776 -1.67139e-21)
(0.963377 0.371096 3.41038e-21)
(0.910348 0.438565 -1.09443e-21)
(0.875186 0.51757 -3.93412e-22)
(0.836003 0.609989 1.19803e-21)
(0.777476 0.675624 3.12406e-23)
(0.725512 0.680007 -3.46643e-21)
(0.687047 0.624513 -1.87994e-21)
(0.659066 0.513926 -1.28117e-21)
(0.85509 0.327513 7.99748e-22)
(1.12917 0.212079 -1.69286e-21)
(1.16467 0.0963193 -5.26789e-22)
(1.14102 0.0610585 1.97586e-23)
(1.1164 0.035072 -3.1019e-24)
(1.09805 0.0185335 0)
(1.08412 0.00807946 0)
(1.07409 0.00127005 0)
(1.06744 -0.00291249 0)
(1.06265 -0.00489025 0)
(1.05767 -0.005102 0)
(1.05289 -0.0046027 0)
(1.04907 -0.00379018 0)
(1.04627 -0.00276508 0)
(1.04437 -0.00163417 0)
(1.04332 -0.00048957 0)
(1.02677 0.000747629 0)
(1.02667 0.00223006 0)
(1.02651 0.00374591 0)
(1.02612 0.00537706 0)
(1.02527 0.00722724 0)
(1.02375 0.00940428 0)
(1.0216 0.0123461 0)
(1.01887 0.0171426 0)
(1.01434 0.0243727 0)
(1.0069 0.0340922 0)
(0.995207 0.047003 -2.29437e-23)
(0.977713 0.0642282 0)
(0.953173 0.0863767 0)
(0.921951 0.118949 1.40353e-21)
(0.881221 0.162252 -4.10756e-22)
(0.855317 0.230089 6.79625e-21)
(0.843901 0.308124 -2.24098e-22)
(0.788683 0.412324 3.55271e-22)
(0.720521 0.529838 -3.32292e-22)
(0.683805 0.64655 8.74113e-21)
(0.689772 0.72025 3.29324e-22)
(0.735181 0.715388 9.96098e-22)
(0.81035 0.634553 -4.73245e-22)
(0.923137 0.470234 7.25741e-22)
(1.10945 0.258247 -9.2859e-23)
(1.30511 0.0700878 1.93655e-22)
(1.23357 0.0272008 -8.94031e-22)
(1.18045 0.0155121 0)
(1.1411 0.0022075 0)
(1.11409 -0.00437941 1.26634e-22)
(1.0944 -0.00886928 0)
(1.08043 -0.0115385 0)
(1.07059 -0.0125535 0)
(1.06311 -0.011928 0)
(1.0566 -0.0101611 0)
(1.0512 -0.00821449 0)
(1.04714 -0.00628443 0)
(1.04425 -0.00440446 -5.79238e-24)
(1.0424 -0.00258362 -4.15552e-24)
(1.0415 -0.000837072 0)
(1.02546 0.000167755 0)
(1.02537 0.000679188 0)
(1.02517 0.00112029 0)
(1.02469 0.00151908 0)
(1.02368 0.00180623 0)
(1.02175 0.00196934 0)
(1.01835 0.0021663 0)
(1.01337 0.00309377 0)
(1.00624 0.00515872 0)
(0.995927 0.00821462 0)
(0.980516 0.012472 9.92184e-24)
(0.957343 0.0185131 0)
(0.924334 0.0278737 0)
(0.884211 0.0448847 1.22114e-21)
(0.818526 0.069546 -6.28719e-21)
(0.716835 0.116705 -3.24073e-21)
(0.623997 0.186178 0)
(0.558127 0.243176 4.97578e-22)
(0.544905 0.271311 1.84869e-21)
(0.616353 0.264758 -5.21177e-21)
(0.771841 0.221691 1.56176e-21)
(0.950015 0.180086 2.36789e-20)
(1.12551 0.0689178 -2.5472e-21)
(1.27369 -0.0296203 0)
(1.37435 -0.0938797 2.31549e-22)
(1.3358 -0.0907265 -1.23935e-20)
(1.24486 -0.0667278 5.35121e-23)
(1.18414 -0.0505859 0)
(1.14409 -0.0429729 0)
(1.1156 -0.0357354 6.34484e-22)
(1.09486 -0.0312782 0)
(1.07975 -0.0274775 0)
(1.06848 -0.0237018 0)
(1.05972 -0.0196083 0)
(1.05282 -0.0154864 0)
(1.0476 -0.0118783 1.04792e-23)
(1.04378 -0.00873144 -1.36176e-23)
(1.0411 -0.00597731 0)
(1.03941 -0.00348336 0)
(1.03861 -0.00114417 -3.20008e-23)
(1.02556 -0.000152893 0)
(1.02547 -0.000500274 0)
(1.02538 -0.00105171 0)
(1.02515 -0.00184978 0)
(1.02459 -0.00308904 0)
(1.02313 -0.00491269 0)
(1.01991 -0.00743068 -5.15272e-24)
(1.0147 -0.0105112 0)
(1.00744 -0.0142716 0)
(0.997261 -0.0192336 0)
(0.981851 -0.0262509 0)
(0.957703 -0.0362889 0)
(0.918593 -0.047943 0)
(0.861076 -0.0563141 6.64617e-21)
(0.779688 -0.05322 -3.86932e-23)
(0.684468 -0.0462297 -3.50539e-22)
(0.620604 -0.0819926 0)
(0.598999 -0.137846 0)
(0.613152 -0.204751 -4.75381e-22)
(0.695632 -0.270762 1.41788e-20)
(0.85332 -0.328057 8.46414e-20)
(1.02444 -0.339119 -1.08582e-20)
(1.18052 -0.365974 0)
(1.28691 -0.344932 0)
(1.32013 -0.292233 0)
(1.26588 -0.21069 1.53419e-23)
(1.19547 -0.147456 1.41703e-22)
(1.15173 -0.109532 -2.98814e-23)
(1.12297 -0.0832049 0)
(1.10059 -0.0642625 0)
(1.08377 -0.0511934 0)
(1.07073 -0.0412113 0)
(1.06037 -0.0330333 4.59861e-23)
(1.05219 -0.0259926 1.88451e-23)
(1.0462 -0.0199114 9.49395e-25)
(1.04201 -0.014881 0)
(1.03904 -0.0106863 0)
(1.03698 -0.00713975 0)
(1.03568 -0.0040797 0)
(1.03502 -0.00124006 0)
(1.02629 -0.00027016 0)
(1.02651 -0.00116229 0)
(1.02685 -0.00237636 0)
(1.02729 -0.00404492 0)
(1.0277 -0.00640731 0)
(1.02752 -0.00974047 0)
(1.02578 -0.0143853 0)
(1.02242 -0.0206672 0)
(1.01809 -0.0293771 2.55758e-25)
(1.01232 -0.0416749 0)
(1.00296 -0.0593909 0)
(0.986243 -0.0855322 0)
(0.948672 -0.119149 -3.1076e-21)
(0.878728 -0.159475 -1.18677e-20)
(0.805538 -0.189228 0)
(0.75716 -0.23753 0)
(0.742379 -0.327453 0)
(0.727525 -0.411167 0)
(0.731131 -0.4902 1.08122e-20)
(0.776326 -0.548387 2.08304e-20)
(0.889577 -0.581777 -9.2724e-21)
(1.00758 -0.567352 3.19268e-21)
(1.10815 -0.530371 0)
(1.16455 -0.449275 0)
(1.17114 -0.349241 0)
(1.13903 -0.254472 0)
(1.11372 -0.186812 7.24805e-23)
(1.09798 -0.140712 8.81808e-23)
(1.08514 -0.10574 0)
(1.07358 -0.0807872 -1.31788e-24)
(1.06397 -0.0623783 1.41133e-24)
(1.05555 -0.0485979 3.61502e-24)
(1.04809 -0.0378491 0)
(1.0419 -0.0292465 0)
(1.03767 -0.0221839 0)
(1.03501 -0.0164667 0)
(1.03322 -0.0117811 0)
(1.03204 -0.00783137 0)
(1.03141 -0.00445099 0)
(1.03122 -0.00140175 0)
(1.02739 -0.000417217 0)
(1.02811 -0.00146075 0)
(1.0291 -0.00284074 0)
(1.03044 -0.00475985 0)
(1.03215 -0.00748667 0)
(1.03383 -0.0113854 0)
(1.0346 -0.0169887 0)
(1.03473 -0.0248977 0)
(1.03579 -0.0361627 0)
(1.03822 -0.0523856 0)
(1.04088 -0.0757227 -4.77532e-23)
(1.04002 -0.110467 -4.61943e-22)
(1.01759 -0.15812 -3.79432e-21)
(0.952776 -0.224309 1.55473e-21)
(0.886462 -0.293847 0)
(0.862619 -0.369269 0)
(0.846566 -0.446774 0)
(0.816404 -0.503581 0)
(0.807519 -0.548575 2.65672e-21)
(0.815769 -0.580489 -8.50505e-21)
(0.869249 -0.582502 5.25793e-21)
(0.932506 -0.544733 -2.43185e-20)
(0.990607 -0.482274 0)
(1.01983 -0.398271 0)
(1.03208 -0.310887 0)
(1.0323 -0.24004 0)
(1.03714 -0.186155 -4.64876e-22)
(1.04022 -0.142542 -2.55763e-21)