/*--------------------------------*- C++ -*----------------------------------*\
| =========                 |                                                 |
| \\      /  F ield         | OpenFOAM: The Open Source CFD Toolbox           |
|  \\    /   O peration     | Version:  v2106                                 |
|   \\  /    A nd           | Website:  www.openfoam.com                      |
|    \\/     M anipulation  |                                                 |
\*---------------------------------------------------------------------------*/
FoamFile
{
    version     2.0;
    format      ascii;
    arch        "LSB;label=32;scalar=64";
    class       volScalarField;
    location    "0";
    object      p;
}
// * * * * * * * * * * * * * * * * * * * * * * * * * * * * * * * * * * * * * //

dimensions      [0 2 -2 0 0 0 0];

internalField   nonuniform List<scalar> 
11644
(
0.295436
0.29767
0.30238
0.30965
0.319473
0.33188
0.346912
0.364586
0.384862
0.407613
0.432594
0.459384
0.487399
0.515806
0.543562
0.569592
0.592456
0.610927
0.62412
0.631109
0.631342
0.624801
0.612035
0.593975
0.571478
0.545748
0.518237
0.490025
0.462148
0.435461
0.410553
0.387848
0.367603
0.349948
0.334929
0.322533
0.312718
0.305456
0.300751
0.298519
0.29158
0.293789
0.298353
0.305385
0.314965
0.327166
0.342056
0.359686
0.380066
0.403138
0.428724
0.456492
0.485885
0.516028
0.54592
0.574155
0.599277
0.61983
0.634566
0.642367
0.64259
0.635253
0.620978
0.600858
0.576114
0.548206
0.518557
0.488589
0.459342
0.431663
0.406131
0.383095
0.362732
0.345113
0.330231
0.318035
0.308459
0.301431
0.296871
0.294665
0.282974
0.285232
0.289719
0.296509
0.305751
0.317598
0.332193
0.349679
0.370181
0.393779
0.420467
0.450081
0.482202
0.516091
0.550518
0.583913
0.614424
0.640034
0.658595
0.668417
0.668681
0.659407
0.641327
0.616175
0.586055
0.552979
0.518798
0.48508
0.453063
0.423517
0.396863
0.373277
0.352779
0.335294
0.320698
0.308849
0.299607
0.29282
0.288336
0.286079
0.269933
0.272121
0.276438
0.282915
0.29171
0.303037
0.317137
0.334284
0.354776
0.378924
0.406995
0.439134
0.475241
0.514662
0.556447
0.59842
0.63791
0.672717
0.698555
0.712465
0.712793
0.699528
0.674248
0.639956
0.600905
0.559261
0.517681
0.478373
0.442333
0.4102
0.382127
0.357968
0.33746
0.320302
0.306192
0.294859
0.286061
0.279583
0.275264
0.273075
0.252868
0.25485
0.258782
0.264716
0.272812
0.283319
0.296563
0.312961
0.333013
0.357315
0.386518
0.421277
0.462082
0.509126
0.561448
0.616569
0.670154
0.720505
0.758636
0.77953
0.779914
0.759703
0.722211
0.672405
0.61931
0.564539
0.512484
0.465581
0.424784
0.389968
0.360682
0.336324
0.316233
0.299808
0.286544
0.276027
0.267923
0.261984
0.258047
0.256065
0.232232
0.233872
0.237173
0.242219
0.249192
0.258365
0.270128
0.285013
0.303711
0.327131
0.356415
0.392931
0.438258
0.493397
0.559659
0.634277
0.710325
0.785793
0.845761
0.880257
0.880741
0.847021
0.787763
0.712802
0.637366
0.56307
0.496978
0.441944
0.39666
0.360094
0.330704
0.307169
0.288394
0.273466
0.261675
0.25248
0.245492
0.240435
0.237127
0.235481
0.208522
0.209723
0.212149
0.215916
0.221216
0.228336
0.237694
0.249882
0.265728
0.286441
0.313634
0.349402
0.396036
0.458839
0.541207
0.641097
0.72087
0.82565
0.91982
0.984223
0.998831
0.959542
0.878967
0.778648
0.644743
0.544804
0.462591
0.39989
0.353187
0.317419
0.290164
0.269344
0.253381
0.241125
0.231723
0.224571
0.219249
0.215467
0.213032
0.211828
0.182459
0.183095
0.18441
0.186492
0.189518
0.193741
0.199548
0.207498
0.218455
0.233704
0.254992
0.285167
0.328511
0.390456
0.475468
0.586976
0.740003
0.909458
1.07683
1.19702
1.22408
1.14754
0.998122
0.827133
0.661975
0.531001
0.436323
0.33226
0.288917
0.258744
0.237435
0.222149
0.211087
0.203046
0.197185
0.192924
0.189873
0.187775
0.186449
0.185807
0.154929
0.154927
0.154913
0.154944
0.15512
0.1556
0.156645
0.158638
0.162272
0.168588
0.179161
0.196365
0.224013
0.297433
0.376805
0.503676
0.674885
0.930946
1.21997
1.47282
1.55907
1.42364
1.15321
0.862545
0.630207
0.43739
0.336373
0.227688
0.200013
0.182811
0.172228
0.165909
0.162223
0.160149
0.15906
0.158549
0.15835
0.158299
0.158302
0.158299
0.127117
0.126387
0.124885
0.122588
0.119471
0.11553
0.110771
0.105238
0.0991275
0.0927662
0.0869873
0.0828108
0.0803647
0.135128
0.177801
0.295514
0.481632
0.803384
1.31494
1.91853
2.18899
1.85443
1.24591
0.757915
0.423192
0.217009
0.155854
0.0837874
0.0862633
0.0904647
0.0962526
0.102627
0.108736
0.114219
0.118951
0.122879
0.125982
0.128268
0.129759
0.130485
0.100328
0.09885
0.0957929
0.0910523
0.0844628
0.075784
0.0646573
0.0506454
0.0331412
0.0112095
-0.0161319
-0.0500137
-0.092768
-0.0904112
-0.121788
-0.109533
-0.0473786
0.119333
0.72227
2.13701
3.25694
2.03766
0.676042
0.0919181
-0.097336
-0.142936
-0.10028
-0.0898061
-0.0468993
-0.0129067
0.0145165
0.0364808
0.0540159
0.0680077
0.0791265
0.0878096
0.0943893
0.0991191
0.102162
0.103627
0.0759722
0.0737398
0.0692032
0.0621693
0.0522996
0.0391038
0.0218437
-0.000490558
-0.0293618
-0.067073
-0.116873
-0.183362
-0.27292
-0.316134
-0.472013
-0.615129
-0.884576
-1.44787
-2.90249
-2.80205
-1.40662
-0.850731
-0.573084
-0.383964
-0.270384
-0.180471
-0.113805
-0.0639007
-0.0261561
0.00275489
0.0250736
0.0423323
0.0555347
0.0653894
0.0724116
0.0769445
0.0791798
0.055282
0.0523918
0.0466194
0.037736
0.0252429
0.00844127
-0.0136858
-0.0426234
-0.0804421
-0.130304
-0.196857
-0.286901
-0.408821
-0.508642
-0.74308
-1.01334
-1.49295
-2.40521
-3.40597
-3.41072
-2.33285
-1.39473
-0.8989
-0.612686
-0.405991
-0.283815
-0.193692
-0.127136
-0.0772949
-0.0394777
-0.0105741
0.0115476
0.0283404
0.040806
0.0496709
0.0554324
0.0582976
0.0390288
0.0357423
0.0292673
0.0192916
0.00528423
-0.0135815
-0.0383912
-0.0707862
-0.113009
-0.16831
-0.241331
-0.338777
-0.467279
-0.597586
-0.840238
-1.13713
-1.59983
-2.27885
-2.60094
-2.63742
-2.21283
-1.49672
-0.994268
-0.705668
-0.462906
-0.33479
-0.237659
-0.16495
-0.109858
-0.0677561
-0.0354291
-0.0106406
0.00817862
0.0221355
0.0320673
0.0385185
0.0418235
0.0273708
0.0243874
0.0179284
0.00786338
-0.00629156
-0.0252984
-0.0501064
-0.0821614
-0.123456
-0.176575
-0.244944
-0.333468
-0.44608
-0.574998
-0.778825
-1.04591
-1.44013
-2.02522
-2.5437
-2.84601
-2.95912
-2.85194
-2.55762
-1.95598
-1.33047
-0.898118
-0.660728
-0.439007
-0.327891
-0.240453
-0.172815
-0.120245
-0.07925
-0.0473489
-0.0225958
-0.00365786
0.0104473
0.0204882
0.0269546
0.0299602
0.0213769
0.018887
0.013061
0.00387979
-0.0090328
-0.026213
-0.0483132
-0.0763789
-0.111727
-0.15571
-0.210051
-0.277566
-0.360341
-0.472416
-0.615502
-0.809853
-1.09701
-1.55411
-2.4047
-3.32841
-3.68602
-3.09806
-2.11349
-1.35816
-0.983886
-0.681264
-0.525082
-0.350327
-0.270417
-0.204806
-0.151682
-0.108487
-0.0735941
-0.0457468
-0.0237698
-0.00666434
0.00622499
0.0154049
0.0212242
0.0236952
0.0220945
0.0197925
0.0149343
0.00737261
-0.0031734
-0.0169509
-0.0343136
-0.0556594
-0.0814491
-0.112228
-0.148387
-0.191587
-0.24243
-0.303624
-0.408113
-0.51864
-0.704172
-1.0095
-1.78823
-2.8605
-3.26452
-2.54376
-1.43298
-0.813389
-0.540149
-0.429054
-0.286885
-0.230921
-0.184049
-0.143119
-0.108402
-0.0784642
-0.0531292
-0.0319754
-0.0147645
-0.00107083
0.00942815
0.016952
0.021774
0.024049
0.0285577
0.0266435
0.0229948
0.0174918
0.0100029
0.000454634
-0.0112395
-0.0248291
-0.0402717
-0.0577452
-0.0771187
-0.0991347
-0.123057
-0.153368
-0.222336
-0.278965
-0.403618
-0.660134
-1.28389
-2.08905
-2.39549
-1.86071
-1.0245
-0.49908
-0.283253
-0.221171
-0.140001
-0.114439
-0.093521
-0.0731775
-0.0548451
-0.0379436
-0.0227848
-0.0093203
0.00225982
0.0117624
0.0192262
0.0247074
0.028345
0.0302552
0.0390105
0.0377677
0.0354626
0.0321116
0.0277304
0.0224158
0.0163029
0.00972122
0.00292226
-0.00386422
-0.0102019
-0.0167278
-0.0227751
-0.0323797
-0.0784316
-0.120676
-0.23633
-0.505419
-1.01203
-1.58575
-1.80419
-1.45408
-0.856089
-0.395892
-0.150052
-0.0833353
-0.0274432
-0.019947
-0.0146757
-0.00867977
-0.00252863
0.00424634
0.0110459
0.0176782
0.0238256
0.0291792
0.0335886
0.036955
0.039272
0.0405273
0.0517872
0.0512205
0.0501841
0.0487708
0.0470863
0.0453377
0.0437921
0.0426485
0.0423341
0.0431779
0.0456961
0.0489129
0.0535993
0.0525211
0.0165878
-0.0325853
-0.167232
-0.453316
-0.900419
-1.35726
-1.53064
-1.28293
-0.810996
-0.387082
-0.0999555
-0.00584219
0.0486616
0.0506487
0.0472182
0.0447254
0.0429185
0.0425476
0.0432387
0.0446789
0.0464203
0.0483018
0.0500689
0.0515368
0.052599
0.0531788
0.0654571
0.0654145
0.0654135
0.0655417
0.0659398
0.0668573
0.0685613
0.0712687
0.0753515
0.0810945
0.0887023
0.0974309
0.104971
0.104934
0.071098
0.00421726
-0.150045
-0.447132
-0.8595
-1.25157
-1.40017
-1.20393
-0.801622
-0.403511
-0.0970999
0.0301312
0.0945738
0.0975809
0.0930085
0.0860211
0.0797896
0.0749033
0.0714324
0.0691684
0.0677605
0.0670399
0.0667651
0.0667113
0.0667485
0.0668082
0.0789346
0.0792634
0.0800108
0.0812472
0.0831102
0.0858232
0.0896303
0.0947599
0.101432
0.109807
0.119471
0.129367
0.135184
0.132964
0.0880741
0.000210097
-0.193121
-0.50501
-0.882439
-1.19194
-1.27777
-1.08655
-0.737034
-0.376849
-0.113091
0.06957
0.119418
0.126831
0.124123
0.116493
0.108342
0.10094
0.0948999
0.0902281
0.0867253
0.0842108
0.0824742
0.0813194
0.0806174
0.0803072
0.0915043
0.0920731
0.0932998
0.0952533
0.0980482
0.101851
0.10686
0.113246
0.121098
0.130363
0.140073
0.14895
0.151125
0.142181
0.0862276
-0.0648228
-0.294519
-0.589814
-0.898161
-1.08718
-1.08983
-0.909932
-0.607476
-0.313994
-0.0827116
0.0706418
0.130514
0.143894
0.144515
0.137718
0.129381
0.120986
0.113663
0.107636
0.102868
0.0992123
0.0965193
0.0946376
0.0934545
0.0929013
0.102712
0.103419
0.104918
0.107265
0.110554
0.114892
0.120404
0.127182
0.135154
0.144014
0.152496
0.158144
0.154692
0.133383
0.0612028
-0.0876594
-0.304321
-0.574713
-0.842551
-1.00118
-0.997755
-0.838821
-0.572926
-0.305554
-0.0912331
0.0556401
0.128072
0.151377
0.156238
0.15178
0.144059
0.135686
0.127992
0.121435
0.116068
0.111803
0.108566
0.106252
0.104769
0.104075
0.112311
0.11307
0.114696
0.117195
0.120639
0.125086
0.130561
0.137067
0.144405
0.151932
0.158133
0.159633
0.149238
0.11371
0.0295475
-0.114929
-0.321613
-0.572354
-0.811706
-0.948593
-0.941934
-0.797688
-0.557332
-0.309248
-0.107214
0.0342212
0.116521
0.151141
0.161056
0.159473
0.15322
0.14568
0.138344
0.131864
0.126384
0.121939
0.118505
0.116008
0.114384
0.113624
0.120212
0.120988
0.122618
0.125093
0.128455
0.132698
0.137803
0.143648
0.149865
0.155674
0.159151
0.157087
0.140599
0.0964149
0.003106
-0.141867
-0.339658
-0.567022
-0.780558
-0.901533
-0.891799
-0.760564
-0.543446
-0.318418
-0.124766
0.01521
0.103989
0.146202
0.161128
0.162134
0.158028
0.151799
0.145301
0.139296
0.134079
0.129777
0.126381
0.123898
0.122264
0.121478
0.126454
0.12721
0.128766
0.131089
0.134207
0.138066
0.142584
0.147608
0.152563
0.156803
0.157975
0.152739
0.132084
0.0821659
-0.0128614
-0.156391
-0.347123
-0.552962
-0.747055
-0.853467
-0.843509
-0.727747
-0.528718
-0.325256
-0.138211
0.00016367
0.0914245
0.138943
0.157824
0.161744
0.159685
0.154797
0.149408
0.144124
0.139426
0.135466
0.132287
0.129937
0.128371
0.127625
0.131142
0.131851
0.133262
0.135359
0.138137
0.14152
0.145387
0.14952
0.153346
0.155939
0.155009
0.147517
0.123068
0.0703024
-0.0251379
-0.16347
-0.340965
-0.52952
-0.70283
-0.800659
-0.79392
-0.688287
-0.512093
-0.324275
-0.150072
-0.0143267
0.078621
0.129741
0.152432
0.158669
0.158675
0.155439
0.151191
0.146792
0.142748
0.139249
0.136408
0.134282
0.132862
0.132174
0.134414
0.135048
0.136292
0.138127
0.140539
0.143434
0.146651
0.149948
0.152758
0.154092
0.151536
0.142033
0.114999
0.0603155
-0.0326821
-0.163678
-0.328324
-0.499961
-0.656778
-0.747785
-0.745383
-0.650412
-0.491339
-0.319336
-0.156004
-0.0264018
0.0653127
0.119507
0.145576
0.154189
0.156151
0.154319
0.151236
0.147768
0.144436
0.141475
0.139034
0.137183
0.135935
0.135313
0.136449
0.136984
0.138069
0.139654
0.141711
0.144129
0.146753
0.149358
0.151292
0.151555
0.147682
0.136822
0.107948
0.0526766
-0.0374453
-0.161332
-0.314747
-0.472486
-0.619134
-0.703577
-0.702198
-0.61836
-0.47294
-0.316097
-0.16289
-0.0389077
0.0522321
0.108699
0.137957
0.148891
0.152581
0.152163
0.150147
0.1475
0.144863
0.142439
0.140392
0.138818
0.137747
0.137204
0.137449
0.137912
0.138814
0.140137
0.141845
0.143829
0.145925
0.147873
0.149078
0.148532
0.143834
0.131319
0.101162
0.0457615
-0.0411635
-0.159176
-0.302568
-0.450149
-0.586502
-0.667005
-0.670081
-0.593435
-0.460194
-0.314125
-0.169624
-0.0491347
0.0406782
0.098059
0.129768
0.143269
0.148422
0.149218
0.148186
0.146326
0.144295
0.142351
0.14067
0.139357
0.138461
0.137997
0.137513
0.137902
0.138649
0.139746
0.141135
0.142726
0.144357
0.145778
0.146322
0.14502
0.139372
0.125557
0.0945281
0.0392495
-0.0445181
-0.156372
-0.291589
-0.429061
-0.557922
-0.634589
-0.639784
-0.569169
-0.444268
-0.308103
-0.171447
-0.0568492
0.0302363
0.0885748
0.121986
0.137437
0.144024
0.145855
0.145658
0.144443
0.14296
0.141443
0.140099
0.13903
0.138297
0.137907
0.136755
0.13707
0.137679
0.138575
0.139696
0.140953
0.142163
0.143066
0.143031
0.141141
0.134719
0.119723
0.0879436
0.0331489
-0.0482092
-0.155112
-0.281728
-0.410539
-0.53113
-0.603336
-0.608369
-0.542471
-0.426591
-0.299475
-0.17174
-0.0620687
0.0229974
0.0810955
0.115347
0.13205
0.139546
0.142208
0.142696
0.142096
0.141086
0.139948
0.138902
0.138049
0.137454
0.137122
0.135373
0.135611
0.136084
0.136779
0.137638
0.138582
0.13941
0.13985
0.139262
0.136592
0.129569
0.11365
0.0812992
0.0270898
-0.0519459
-0.153748
-0.272772
-0.393544
-0.505427
-0.572546
-0.577125
-0.515555
-0.407685
-0.288076
-0.167643
-0.0634083
0.0182458
0.075003
0.109434
0.126976
0.135119
0.138452
0.139497
0.139363
0.138744
0.137929
0.137147
0.136479
0.136008
0.135758
0.133445
0.133637
0.134003
0.13453
0.13516
0.1358
0.136251
0.136239
0.13513
0.131792
0.124069
0.107083
0.0743104
0.0212302
-0.054862
-0.150916
-0.263331
-0.375694
-0.479549
-0.541185
-0.545042
-0.486323
-0.384719
-0.273459
-0.160021
-0.0627218
0.0152302
0.0700576
0.104203
0.122364
0.130879
0.134699
0.136141
0.136353
0.136042
0.135489
0.134906
0.134398
0.134035
0.133837
0.131057
0.131217
0.131501
0.131892
0.132317
0.132691
0.132818
0.132419
0.130833
0.126904
0.118324
0.100201
0.0669091
0.0147949
-0.0586433
-0.150221
-0.25526
-0.35956
-0.455849
-0.51192
-0.513311
-0.457995
-0.362206
-0.258065
-0.152874
-0.0609102
0.0133249
0.0661137
0.0996401
0.118054
0.126908
0.131005
0.132681
0.133154
0.13308
0.132729
0.132303
0.131915
0.131628
0.131469
0.128352
0.128478
0.12868
0.128951
0.129213
0.129385
0.129234
0.128471
0.12643
0.121867
0.112604
0.0937714
0.0601536
0.00828615
-0.0635066
-0.150914
-0.249737
-0.347476
-0.436079
-0.487889
-0.486464
-0.433726
-0.343417
-0.245043
-0.145607
-0.0587362
0.0120824
0.0629185
0.0955933
0.113946
0.122889
0.127251
0.129144
0.129811
0.129921
0.129728
0.12944
0.129158
0.128953
0.128831
0.125406
0.125486
0.125624
0.125795
0.125918
0.12592
0.125541
0.124494
0.122122
0.117111
0.107202
0.0876529
0.0540902
0.00363322
-0.0657113
-0.149281
-0.243703
-0.335701
-0.419477
-0.466458
-0.464323
-0.412709
-0.32603
-0.232885
-0.138803
-0.056407
0.0109084
0.059615
0.0915387
0.109878
0.118905
0.123413
0.125477
0.126338
0.126579
0.126525
0.126364
0.12618
0.126034
0.125947
0.122294
0.12234
0.122424
0.122517
0.122535
0.122379
0.121828
0.120566
0.117915
0.112622
0.102311
0.0825823
0.0492384
-5.9226e-05
-0.066629
-0.146385
-0.234954
-0.321606
-0.401663
-0.445722
-0.442717
-0.393443
-0.309977
-0.222161
-0.133834
-0.0553175
0.00924993
0.0561777
0.0874046
0.105624
0.1149
0.119484
0.121687
0.122706
0.123088
0.123153
0.123081
0.122956
0.122863
0.122813
0.119083
0.119123
0.119166
0.119186
0.119119
0.118842
0.118146
0.116748
0.113942
0.108393
0.0978737
0.0783222
0.0456698
-0.00202492
-0.0664189
-0.142399
-0.226802
-0.308796
-0.382789
-0.424241
-0.42058
-0.374655
-0.297251
-0.21366
-0.129992
-0.055532
0.00689976
0.0523032
0.0830881
0.101164
0.110614
0.115441
0.117785
0.118925
0.119438
0.119599
0.119619
0.11957
0.119529
0.119509
0.115783
0.115816
0.115822
0.115789
0.115645
0.115278
0.114489
0.113
0.110086
0.104496
0.0939577
0.0745458
0.0428643
-0.00282077
-0.0639275
-0.136255
-0.215981
-0.293523
-0.363148
-0.402145
-0.399462
-0.356416
-0.283743
-0.205113
-0.12607
-0.0552508
0.00405878
0.0478806
0.0781573
0.0965352
0.106126
0.111204
0.11376
0.115043
0.115699
0.115984
0.116089
0.11611
0.116111
0.116107
0.112394
0.112401
0.11238
0.112313
0.112123
0.111715
0.110896
0.109334
0.106396
0.100825
0.0903366
0.0715116
0.041074
-0.00244744
-0.0603944
-0.128563
-0.203997
-0.276691
-0.343045
-0.379992
-0.37796
-0.339268
-0.271118
-0.197891
-0.12307
-0.0559295
0.000780068
0.0434069
0.0730595
0.0915155
0.101636
0.106912
0.109711
0.111178
0.11196
0.11235
0.112524
0.112592
0.11262
0.112626
0.108981
0.108959
0.108917
0.108821
0.108602
0.10817
0.107323
0.105742
0.102916
0.0973868
0.0871906
0.0689566
0.0396159
-0.00188582
-0.0566987
-0.121261
-0.192762
-0.261749
-0.323909
-0.359385
-0.359089
-0.323938
-0.26173
-0.193078
-0.122183
-0.0581788
-0.00358703
0.0381995
0.067841
0.0865563
0.0971057
0.102724
0.105677
0.107319
0.108187
0.108674
0.108923
0.109043
0.109102
0.109115
0.105581
0.105555
0.105489
0.105361
0.105109
0.104642
0.103774
0.102196
0.0993617
0.0939727
0.0840437
0.0663231
0.03836
-0.00108929
-0.0531193
-0.114435
-0.182053
-0.247911
-0.307393
-0.341717
-0.344004
-0.312088
-0.253726
-0.18887
-0.121563
-0.0599223
-0.00693039
0.0339588
0.0631599
0.0819701
0.0926975
0.0985628
0.101712
0.103482
0.104476
0.105027
0.10533
0.10548
0.105566
0.10559
0.102144
0.102115
0.102036
0.10189
0.101619
0.101123
0.100244
0.0986722
0.095834
0.0905322
0.0806675
0.063598
0.0368582
-0.000753158
-0.0504684
-0.108645
-0.172937
-0.235442
-0.292871
-0.325566
-0.329441
-0.299391
-0.244195
-0.183015
-0.1187
-0.0598657
-0.0087722
0.0305537
0.0590406
0.077684
0.0886515
0.0946083
0.0979288
0.0997808
0.100837
0.10142
0.101753
0.101925
0.10202
0.102063
0.0986683
0.09863
0.098536
0.0983727
0.0980794
0.0975618
0.0966696
0.0950991
0.0922873
0.0870064
0.0772968
0.0605532
0.0346339
-0.00158353
-0.0488916
-0.104148
-0.165762
-0.225133
-0.279403
-0.310532
-0.313039
-0.285546
-0.23453
-0.176579
-0.115086
-0.0590397
-0.0103353
0.027799
0.0557162
0.0740696
0.0849739
0.0909885
0.0943302
0.0961935
0.0972863
0.0979051
0.0982603
0.0984509
0.0985534
0.0985892
0.0952215
0.0951686
0.0950535
0.094868
0.0945434
0.0939996
0.0930708
0.0914412
0.0885436
0.0832326
0.0736492
0.0570558
0.0318072
-0.0030312
-0.0481194
-0.100879
-0.158906
-0.215341
-0.265942
-0.295494
-0.297587
-0.272001
-0.223892
-0.168901
-0.110992
-0.0571028
-0.0105113
0.0260797
0.0529203
0.0708899
0.0815315
0.0875507
0.0908462
0.0927591
0.093863
0.0945013
0.0948633
0.0950624
0.0951697
0.0951999
0.0918166
0.091763
0.0916414
0.091434
0.0910823
0.0905006
0.0895133
0.087823
0.0848178
0.0793589
0.0696621
0.0533754
0.0288787
-0.0047285
-0.0477785
-0.0978969
-0.153015
-0.206061
-0.253125
-0.280014
-0.281937
-0.257691
-0.212215
-0.160188
-0.10504
-0.054037
-0.009704
0.0251143
0.0508052
0.0680229
0.0784023
0.0843041
0.0875427
0.0894223
0.0904942
0.0911243
0.0914912
0.091702
0.0918131
0.0918436
0.0884585
0.0884047
0.0882799
0.0880634
0.0876843
0.0870533
0.0860073
0.0842259
0.0810718
0.0754131
0.0654651
0.0491629
0.0250522
-0.00767541
-0.049055
-0.0967975
-0.149063
-0.198546
-0.241898
-0.265614
-0.266454
-0.243134
-0.200279
-0.150732
-0.0981686
-0.0501464
-0.00835847
0.0245988
0.0491285
0.0655653
0.0755445
0.081233
0.0843618
0.0861528
0.0871934
0.0878006
0.088159
0.0883565
0.0884701
0.0885156
0.0851698
0.085113
0.0849718
0.0847348
0.084327
0.08366
0.0825503
0.0806781
0.0773816
0.0715795
0.0615045
0.0451416
0.0211451
-0.0108441
-0.0509931
-0.0967428
-0.146048
-0.192671
-0.232631
-0.253974
-0.252497
-0.229669
-0.188844
-0.141415
-0.0920434
-0.0465276
-0.00698174
0.0242056
0.0475223
0.0632301
0.0727576
0.0782104
0.0812415
0.0829608
0.0839634
0.084542
0.084894
0.0851001
0.0852195
0.0852745
0.0819134
0.0818594
0.0817174
0.0814747
0.0810589
0.0803714
0.0792279
0.0772955
0.0739397
0.0680246
0.057918
0.0418279
0.0184199
-0.0127649
-0.0514709
-0.0953718
-0.142554
-0.186528
-0.223371
-0.242595
-0.240349
-0.217894
-0.178841
-0.133638
-0.0866729
-0.0433758
-0.00597183
0.0236881
0.0457477
0.0607168
0.0699097
0.0752192
0.0781412
0.0798091
0.0807855
0.0813601
0.0817153
0.0819272
0.0820488
0.0820976
0.0787376
0.0786789
0.0785391
0.0783044
0.0778907
0.0772017
0.0760478
0.0740973
0.070754
0.0648486
0.0548603
0.0390173
0.0162696
-0.0136496
-0.0507819
-0.0926485
-0.137461
-0.179132
-0.213723
-0.231459
-0.228326
-0.207074
-0.170392
-0.127432
-0.082624
-0.041461
-0.00580321
0.022586
0.0437185
0.05811
0.0669945
0.0721781
0.0750105
0.0766555
0.0776225
0.0782001
0.0785445
0.078753
0.0788758
0.0789287
0.0756839
0.0756345
0.0755016
0.0752655
0.0748531
0.074166
0.0730198
0.0711041
0.0677898
0.0619581
0.0522108
0.0368475
0.0147292
-0.0140936
-0.0497626
-0.0897575
-0.132055
-0.17158
-0.203757
-0.219927
-0.217
-0.197187
-0.162699
-0.12183
-0.0796423
-0.0405148
-0.00642721
0.0207851
0.0412803
0.0552423
0.0638743
0.0689964
0.0718309
0.0734744
0.0744364
0.0750179
0.0753753
0.0755964
0.0757302
0.0757875
0.072724
0.072684
0.0725553
0.0723229
0.0719133
0.0712409
0.0701144
0.0682668
0.0650234
0.0593378
0.0499175
0.0352145
0.0140244
-0.0135504
-0.0475532
-0.085687
-0.125984
-0.163531
-0.193773
-0.208675
-0.20592
-0.187855
-0.155444
-0.11679
-0.0769845
-0.0396992
-0.00732533
0.0187403
0.0385145
0.0520784
0.0606727
0.0658136
0.068681
0.0703167
0.0713072
0.0719115
0.0722895
0.0725166
0.0726605
0.0727304
0.0698148
0.0697696
0.0696415
0.0694151
0.0690247
0.0683887
0.0673283
0.0655505
0.0624351
0.0569502
0.048052
0.0341176
0.014016
-0.0120356
-0.0440532
-0.080359
-0.118288
-0.154184
-0.182918
-0.196819
-0.19544
-0.179867
-0.149932
-0.113493
-0.0758218
-0.0403795
-0.00925236
0.0160377
0.0353716
0.0487171
0.0573742
0.0626091
0.0655399
0.0672709
0.0683018
0.0689126
0.069302
0.0695376
0.0696757
0.0697422
0.0669703
0.0669159
0.0667908
0.0665734
0.0662144
0.0656239
0.064637
0.062942
0.0600321
0.0548355
0.0464144
0.0332442
0.014259
-0.0103093
-0.0404491
-0.0746071
-0.110372
-0.144797
-0.172544
-0.186213
-0.186161
-0.172744
-0.1456
-0.111464
-0.0760453
-0.0421523
-0.0119679
0.0126377
0.0317572
0.0452122
0.0540093
0.0594114
0.0624751
0.0642698
0.0653284
0.0659743
0.0663842
0.066633
0.066777
0.066836
0.0642368
0.0641799
0.0640522
0.0638376
0.0634906
0.0629211
0.0619859
0.0603661
0.0576213
0.0526775
0.0446527
0.0322262
0.0143012
-0.00887224
-0.0372287
-0.0695161
-0.10346
-0.136396
-0.162958
-0.176643
-0.177594
-0.166597
-0.141966
-0.10934
-0.0758777
-0.0432249
-0.0142003
0.00992551
0.028774
0.0421223
0.0509074
0.0563787
0.0594827
0.0613383
0.0624378
0.0631142
0.0635344
0.0637885
0.0639414
0.0639996
0.061558
0.0615075
0.0613834
0.061171
0.060829
0.0602735
0.0593638
0.057802
0.0551574
0.0504252
0.0426959
0.0308884
0.0139086
-0.00808709
-0.0349656
-0.0657947
-0.0978138
-0.129635
-0.154796
-0.167589
-0.169071
-0.160135
-0.136953
-0.106011
-0.0743126
-0.0431071
-0.0151507
0.00822007
0.0264718
0.0394534
0.0481133
0.0535609
0.0567116
0.0585812
0.0596762
0.0603498
0.0607648
0.0610169
0.061165
0.0612256
0.0589013
0.0588456
0.0587191
0.0585052
0.0581623
0.0576173
0.0567183
0.0552151
0.0526124
0.0480257
0.040578
0.0292286
0.0129252
-0.00812157
-0.0337367
-0.0629823
-0.0932691
-0.123682
-0.147338
-0.159182
-0.160949
-0.152587
-0.131097
-0.102341
-0.0722467
-0.0424773
-0.0157176
0.00675919
0.0244692
0.0371953
0.0457026
0.0510415
0.0541617
0.0559674
0.0570487
0.0577163
0.0581275
0.0583711
0.0585117
0.05857
0.0563021
0.0562362
0.0560979
0.0558742
0.0555235
0.0549737
0.0540738
0.0525568
0.0499595
0.0454181
0.0381836
0.0271732
0.0115041
-0.00860647
-0.0329734
-0.0606763
-0.0893347
-0.117847
-0.140111
-0.1508
-0.152645
-0.145451
-0.125464
-0.0982092
-0.0696841
-0.0412297
-0.0156549
0.00593612
0.0230173
0.0352812
0.04351
0.0487146
0.0517168
0.0535196
0.0545862
0.0552248
0.0556266
0.0558631
0.0559916
0.0560358
0.053787
0.0537213
0.053581
0.0533543
0.0529906
0.0524193
0.0515029
0.0499395
0.0473426
0.04281
0.0356319
0.0249094
0.00977569
-0.00967055
-0.0331013
-0.0596083
-0.086632
-0.113267
-0.13359
-0.143051
-0.144188
-0.137455
-0.118856
-0.0928209
-0.0660163
-0.0389541
-0.0146642
0.00586791
0.0220772
0.033727
0.0415622
0.0465349
0.049457
0.0511826
0.0521917
0.0528121
0.0531902
0.0534143
0.0535383
0.053582
0.0513608
0.0512982
0.0511613
0.0509306
0.0505548
0.0499562
0.0490031
0.047383
0.0446627
0.0400203
0.032746
0.0220554
0.0071028
-0.0119243
-0.0345386
-0.0599752
-0.0853671
-0.109907
-0.128275
-0.136088
-0.136264
-0.129033
-0.111068
-0.0868008
-0.0612195
-0.0357753
-0.0129147
0.00643993
0.021633
0.0324937
0.0398706
0.0445573
0.0472904
0.0489148
0.0498737
0.0504535
0.0508019
0.0510141
0.0511405
0.0511903
0.0490179
0.0489607
0.0488139
0.0485657
0.0481658
0.0475384
0.0465503
0.0448712
0.0420682
0.0373259
0.0299482
0.0192341
0.00442989
-0.0142461
-0.0362072
-0.0604866
-0.0846231
-0.107597
-0.124039
-0.129808
-0.128963
-0.121316
-0.103976
-0.0808893
-0.0567044
-0.0326923
-0.0112066
0.00694025
0.0211862
0.0313442
0.0382724
0.0426493
0.0452355
0.0467498
0.0476283
0.0481747
0.0485083
0.0487119
0.0488308
0.0488849
0.0467323
0.0466682
0.0465228
0.0462789
0.04588
0.0452437
0.0442211
0.0425235
0.03968
0.0349557
0.0276784
0.0171845
0.00266642
-0.0156273
-0.036894
-0.0602215
-0.0831201
-0.104469
-0.119253
-0.123693
-0.122246
-0.114652
-0.0981659
-0.0761836
-0.0532365
-0.0304247
-0.0101563
0.00696062
0.0204244
0.0300467
0.0365878
0.0407313
0.0431931
0.0446114
0.0454474
0.04598
0.0463117
0.0465141
0.0466333
0.0466882
0.0445503
0.0444877
0.044344
0.044101
0.043708
0.0430894
0.0420837
0.0404029
0.037571
0.0329307
0.0257767
0.0155932
0.00154871
-0.0161238
-0.0365728
-0.0589115
-0.0806529
-0.100315
-0.114005
-0.117505
-0.11572
-0.109071
-0.0933395
-0.0727735
-0.0508944
-0.0291817
-0.00983441
0.00651544
0.0193787
0.0285654
0.0347851
0.0387783
0.041112
0.0425024
0.0433237
0.0438383
0.0441658
0.0443715
0.044493
0.0445413
0.0425079
0.0424572
0.0423219
0.0420855
0.0417034
0.0410962
0.040111
0.0384716
0.0357092
0.0312021
0.0242553
0.0143212
0.000714803
-0.0163242
-0.035874
-0.0571228
-0.0776699
-0.0962218
-0.108724
-0.112069
-0.110265
-0.103435
-0.0888346
-0.0695616
-0.0487637
-0.0282879
-0.00989741
0.00572244
0.018053
0.0268135
0.0328439
0.0367137
0.0390393
0.0403966
0.0412016
0.0417093
0.0420348
0.0422407
0.0423693
0.0424313
0.0405666
0.0405266
0.0404024
0.0401797
0.039816
0.0392256
0.038285
0.0367051
0.0340399
0.029702
0.0230597
0.0135161
0.000466354
-0.0158513
-0.0345625
-0.054872
-0.0745745
-0.0919326
-0.10349
-0.106393
-0.104802
-0.0985737
-0.0849872
-0.0670437
-0.0472475
-0.0277632
-0.010206
0.00473228
0.0164974
0.0249809
0.0308399
0.0346482
0.0369532
0.0383118
0.0391248
0.0396379
0.0399665
0.0401826
0.0403191
0.0403833
0.0386922
0.038655
0.0385349
0.0383235
0.0379813
0.0374209
0.0365375
0.0350469
0.0325205
0.0284452
0.0222078
0.0132674
0.00100455
-0.0144049
-0.0321549
-0.051325
-0.0700595
-0.086297
-0.097233
-0.100676
-0.0999112
-0.0948947
-0.0826019
-0.065955
-0.0473431
-0.0286997
-0.011699
0.0029351
0.014534
0.0229629
0.0287426
0.0325685
0.034922
0.0363223
0.0371583
0.0376853
0.0380237
0.0382396
0.0383725
0.0384381
0.0368852
0.0368421
0.0367267
0.0365327
0.0362178
0.0357121
0.0348904
0.0335081
0.0311794
0.0274034
0.0216407
0.0133395
0.0019453
-0.0124571
-0.0290967
-0.0471372
-0.0650435
-0.0808056
-0.0915811
-0.0955621
-0.0957545
-0.0917118
-0.081056
-0.0657462
-0.047999
-0.030167
-0.0136684
0.000699474
0.0121893
0.0206909
0.0265925
0.0305094
0.0329497
0.0343779
0.0352609
0.0358147
0.0361677
0.0363921
0.0365271
0.0365774
0.0351657
0.0351137
0.0350068
0.0348282
0.0345367
0.0340738
0.0333211
0.0320476
0.0298817
0.0263825
0.020997
0.013265
0.00261002
-0.0108767
-0.0265424
-0.0435442
-0.0609495
-0.0758771
-0.0864022
-0.0907395
-0.0915951
-0.0889115
-0.0797034
-0.0654754
-0.0483878
-0.0312523
-0.0151462
-0.00106176
0.0102923
0.0187674
0.0246695
0.028625
0.0310663
0.0325486
0.0334515
0.0340134
0.0343717
0.0345905
0.0347184
0.0347751
0.0335442
0.0334987
0.0333919
0.033215
0.0329362
0.0324983
0.0317772
0.0305886
0.028552
0.0252323
0.0201611
0.0128179
0.00276108
-0.00997677
-0.0249813
-0.0412046
-0.0577117
-0.0718997
-0.0818905
-0.0863956
-0.0875377
-0.0857489
-0.0774089
-0.0640425
-0.0479126
-0.0314225
-0.0158179
-0.00207492
0.00900766
0.0172695
0.0230405
0.026934
0.0293839
0.0308442
0.0317404
0.0323022
0.032659
0.0328834
0.0330167
0.0330748
0.031975
0.0319244
0.0318204
0.0316488
0.0313785
0.0309583
0.030266
0.0291126
0.0271503
0.0239838
0.0191868
0.0121673
0.00254225
-0.00965473
-0.0238866
-0.0392141
-0.0552564
-0.0687
-0.0780203
-0.0823496
-0.0836663
-0.0821196
-0.0745703
-0.0621985
-0.0467713
-0.0310471
-0.015983
-0.00269967
0.00798848
0.016039
0.0217
0.0255057
0.027905
0.0293113
0.0301997
0.0307414
0.0310986
0.0313245
0.0314579
0.03151
0.0304356
0.0303786
0.0302687
0.0300978
0.0298301
0.0294164
0.0287362
0.0276084
0.0257028
0.0226393
0.0180004
0.0112617
0.00207969
-0.0095561
-0.0231071
-0.0376595
-0.0528568
-0.0656584
-0.0744706
-0.0786343
-0.0799782
-0.0784844
-0.0716896
-0.0600478
-0.0451644
-0.0302472
-0.0158273
-0.00303938
0.00731403
0.0151272
0.0205595
0.0242441
0.0265721
0.0279687
0.0288119
0.0293318
0.0296675
0.0298705
0.0299908
0.0300389
0.0289743
0.0289158
0.0288049
0.0286322
0.0283585
0.0279303
0.0272445
0.0261222
0.0242582
0.021241
0.0167281
0.010188
0.00132725
-0.00989767
-0.0231079
-0.0370841
-0.0514854
-0.0634838
-0.0715086
-0.0751165
-0.0760402
-0.0744982
-0.0683789
-0.0573439
-0.0431429
-0.0288896
-0.0151095
-0.00288313
0.00700047
0.0144478
0.0196479
0.0231319
0.0253493
0.0266848
0.0274894
0.0279859
0.0282964
0.0284862
0.0285938
0.0286296
0.0276078
0.0275601
0.0274485
0.0272727
0.0269858
0.026543
0.0258406
0.0246896
0.0227643
0.0197174
0.0152074
0.00864843
-0.000204955
-0.0113158
-0.0240867
-0.0374149
-0.0514252
-0.0622963
-0.069316
-0.072017
-0.0723839
-0.0703998
-0.0641673
-0.0535902
-0.0402134
-0.0266979
-0.0136139
-0.00210448
0.00714513
0.0140763
0.0189079
0.0221613
0.0242117
0.0254676
0.0262185
0.0266856
0.026979
0.0271592
0.0272624
0.0272988
0.0262906
0.0262502