/*--------------------------------*- C++ -*----------------------------------*\
| =========                 |                                                 |
| \\      /  F ield         | OpenFOAM: The Open Source CFD Toolbox           |
|  \\    /   O peration     | Version:  v2106                                 |
|   \\  /    A nd           | Website:  www.openfoam.com                      |
|    \\/     M anipulation  |                                                 |
\*---------------------------------------------------------------------------*/
FoamFile
{
    version     2.0;
    format      ascii;
    arch        "LSB;label=32;scalar=64";
    class       pointVectorField;
    location    "0";
    object      pointDisplacement;
}
// * * * * * * * * * * * * * * * * * * * * * * * * * * * * * * * * * * * * * //

dimensions      [0 1 0 0 0 0 0];

internalField   nonuniform List<vector> 
24440
(
(0 0 0)
(0 0 0)
(0 0 0)
(0 0 0)
(0 0 0)
(0 0 0)
(0 0 0)
(0 0 0)
(0 0 0)
(0 0 0)
(0 0 0)
(0 0 0)
(0 0 0)
(0 0 0)
(0 0 0)
(0 0 0)
(0 0 0)
(0 0 0)
(0 0 0)
(0 0 0)
(0 0 0)
(0 0 0)
(0 0 0)
(0 0 0)
(0 0 0)
(0 0 0)
(0 0 0)
(0 0 0)
(0 0 0)
(0 0 0)
(0 0 0)
(0 0 0)
(0 0 0)
(0 0 0)
(0 0 0)
(0 0 0)
(0 0 0)
(0 0 0)
(0 0 0)
(0 0 0)
(0 0 0)
(0 0 0)
(0 0 0)
(0 0 0)
(0 0 0)
(0 0 0)
(0 0 0)
(0 0 0)
(0 0 0)
(0 0 0)
(0 0 0)
(0 0 0)
(0 0 0)
(0 0 0)
(0 0 0)
(0 0 0)
(0 0 0)
(0 0 0)
(0 0 0)
(0 0 0)
(0 0 0)
(0 0 0)
(0 0 0)
(0 0 0)
(0 0 0)
(0 0 0)
(0 0 0)
(0 0 0)
(0 0 0)
(0 0 0)
(0 0 0)
(0 0 0)
(0 0 0)
(0 0 0)
(0 0 0)
(0 0 0)
(0 0 0)
(0 0 0)
(0 0 0)
(0 0 0)
(0 0 0)
(0 0 0)
(0 0 0)
(0 0 0)
(0 0 0)
(0 0 0)
(0 0 0)
(0 0 0)
(0 0 0)
(0 0 0)
(0 0 0)
(0 0 0)
(0 0 0)
(0 0 0)
(0 0 0)
(0 0 0)
(0 0 0)
(0 0 0)
(0 -2.95589e-06 0)
(0 -1.864e-05 0)
(0 -5.1256e-05 0)
(0 -7.8983e-05 0)
(0 -8.96239e-05 0)
(0 -7.8983e-05 0)
(0 -5.1256e-05 0)
(0 -1.864e-05 0)
(0 -2.95589e-06 0)
(0 0 0)
(0 0 0)
(0 0 0)
(0 0 0)
(0 0 0)
(0 0 0)
(0 0 0)
(0 0 0)
(0 0 0)
(0 0 0)
(0 0 0)
(0 0 0)
(0 0 0)
(0 0 0)
(0 0 0)
(0 0 0)
(0 0 0)
(0 0 0)
(0 0 0)
(0 0 0)
(0 0 0)
(0 0 0)
(0 0 0)
(0 0 0)
(0 0 0)
(0 0 0)
(0 0 0)
(0 0 0)
(0 0 0)
(0 -4.95031e-06 0)
(0 -6.54843e-05 0)
(0 -0.000192716 0)
(0 -0.000347165 0)
(0 -0.000495198 0)
(0 -0.000598398 0)
(0 -0.000694333 0)
(0 -0.000728088 0)
(0 -0.000694333 0)
(0 -0.000598398 0)
(0 -0.000495198 0)
(0 -0.000347165 0)
(0 -0.000192716 0)
(0 -6.54843e-05 0)
(0 -4.95031e-06 0)
(0 0 0)
(0 0 0)
(0 0 0)
(0 0 0)
(0 0 0)
(0 0 0)
(0 0 0)
(0 0 0)
(0 0 0)
(0 0 0)
(0 0 0)
(0 0 0)
(0 0 0)
(0 0 0)
(0 0 0)
(0 0 0)
(0 0 0)
(0 0 0)
(0 0 0)
(0 0 0)
(0 0 0)
(0 0 0)
(0 0 0)
(0 0 0)
(0 -2.07843e-06 0)
(0 -8.61181e-05 0)
(0 -0.00029369 0)
(0 -0.000579153 0)
(0 -0.000873179 0)
(0 -0.0012012 0)
(0 -0.0014853 0)
(0 -0.00166125 0)
(0 -0.00182949 0)
(0 -0.00188763 0)
(0 -0.00182949 0)
(0 -0.00166125 0)
(0 -0.0014853 0)
(0 -0.0012012 0)
(0 -0.000873179 0)
(0 -0.000579153 0)
(0 -0.00029369 0)
(0 -8.61181e-05 0)
(0 -2.07843e-06 0)
(0 0 0)
(0 0 0)
(0 0 0)
(0 0 0)
(0 0 0)
(0 0 0)
(0 0 0)
(0 0 0)
(0 0 0)
(0 0 0)
(0 0 0)
(0 0 0)
(0 0 0)
(0 0 0)
(0 0 0)
(0 0 0)
(0 0 0)
(0 0 0)
(0 0 0)
(0 0 0)
(0 0 0)
(0 -1.96525e-05 0)
(0 -0.000204375 0)
(0 -0.000543138 0)
(0 -0.000952943 0)
(0 -0.00146176 0)
(0 -0.00197495 0)
(0 -0.00241953 0)
(0 -0.00283599 0)
(0 -0.00313152 0)
(0 -0.00330809 0)
(0 -0.00338914 0)
(0 -0.00330809 0)
(0 -0.00313152 0)
(0 -0.00283599 0)
(0 -0.00241953 0)
(0 -0.00197495 0)
(0 -0.00146176 0)
(0 -0.000952943 0)
(0 -0.000543138 0)
(0 -0.000204375 0)
(0 -2.08055e-05 0)
(0 0 0)
(0 0 0)
(0 0 0)
(0 0 0)
(0 0 0)
(0 0 0)
(0 0 0)
(0 0 0)
(0 0 0)
(0 0 0)
(0 0 0)
(0 0 0)
(0 0 0)
(0 0 0)
(0 0 0)
(0 0 0)
(0 0 0)
(0 0 0)
(0 0 0)
(0 -3.86521e-05 0)
(0 -0.000271028 0)
(0 -0.000676453 0)
(0 -0.00124186 0)
(0 -0.00191383 0)
(0 -0.00261211 0)
(0 -0.0032529 0)
(0 -0.00386039 0)
(0 -0.00408866 0)
(0 -0.00433551 0)
(0 -0.00454199 0)
(0 -0.00470468 0)
(0 -0.00482101 0)
(0 -0.00490146 0)
(0 -0.00497578 0)
(0 -0.00500066 0)
(0 -0.00497578 0)
(0 -0.00490146 0)
(0 -0.00482101 0)
(0 -0.00470468 0)
(0 -0.00454199 0)
(0 -0.00433551 0)
(0 -0.00408866 0)
(0 -0.00386039 0)
(0 -0.0032529 0)
(0 -0.00261211 0)
(0 -0.00191383 0)
(0 -0.00124186 0)
(0 -0.000662412 0)
(0 -0.000244901 0)
(0 -3.08856e-05 0)
(0 0 0)
(0 0 0)
(0 0 0)
(0 0 0)
(0 0 0)
(0 0 0)
(0 0 0)
(0 0 0)
(0 0 0)
(0 0 0)
(0 0 0)
(0 0 0)
(0 0 0)
(0 0 0)
(0 0 0)
(0 0 0)
(0 0 0)
(0 -2.27345e-05 0)
(0 -0.000260173 0)
(0 -0.000724887 0)
(0 -0.00136402 0)
(0 -0.00211267 0)
(0 -0.00299351 0)
(0 -0.00341468 0)
(0 -0.00378799 0)
(0 -0.00420117 0)
(0 -0.00458846 0)
(0 -0.00494279 0)
(0 -0.00524381 0)
(0 -0.00457006 0)
(0 -0.00484909 0)
(0 -0.0050693 0)
(0 -0.00529141 0)
(0 -0.00546566 0)
(0 -0.00558982 0)
(0 -0.00566426 0)
(0 -0.00574315 0)
(0 -0.00576953 0)
(0 -0.00574315 0)
(0 -0.00566426 0)
(0 -0.00558982 0)
(0 -0.00546566 0)
(0 -0.00529141 0)
(0 -0.0050693 0)
(0 -0.00484909 0)
(0 -0.00457006 0)
(0 -0.00524381 0)
(0 -0.00494279 0)
(0 -0.00458846 0)
(0 -0.00420117 0)
(0 -0.00378799 0)
(0 -0.00341468 0)
(0 -0.00299351 0)
(0 -0.00211267 0)
(0 -0.00136402 0)
(0 -0.000698445 0)
(0 -0.000248853 0)
(0 -2.06462e-05 0)
(0 0 0)
(0 0 0)
(0 0 0)
(0 0 0)
(0 0 0)
(0 0 0)
(0 0 0)
(0 0 0)
(0 0 0)
(0 0 0)
(0 0 0)
(0 0 0)
(0 0 0)
(0 0 0)
(0 0 0)
(0 0 0)
(0 -0.000143846 0)
(0 -0.000587846 0)
(0 -0.00125673 0)
(0 -0.00209693 0)
(0 -0.00303272 0)
(0 -0.00398359 0)
(0 -0.00350628 0)
(0 -0.00396429 0)
(0 -0.004405 0)
(0 -0.00481998 0)
(0 -0.00518867 0)
(0 -0.00556257 0)
(0 -0.00589298 0)
(0 -0.00616596 0)
(0 -0.0055403 0)
(0 -0.00579003 0)
(0 -0.00642335 0)
(0 -0.00660868 0)
(0 -0.00598871 0)
(0 -0.00617049 0)
(0 -0.00679302 0)
(0 -0.00692276 0)
(0 -0.00629944 0)
(0 -0.00636479 0)
(0 -0.00699795 0)
(0 -0.00705764 0)
(0 -0.00644615 0)
(0 -0.0064733 0)
(0 -0.00708459 0)
(0 -0.00705764 0)
(0 -0.00644615 0)
(0 -0.00636479 0)
(0 -0.00699795 0)
(0 -0.00692276 0)
(0 -0.00629944 0)
(0 -0.00617049 0)
(0 -0.00679302 0)
(0 -0.00660868 0)
(0 -0.00598871 0)
(0 -0.00579003 0)
(0 -0.00642335 0)
(0 -0.00616596 0)
(0 -0.0055403 0)
(0 -0.00589298 0)
(0 -0.00556257 0)
(0 -0.00518867 0)
(0 -0.00481998 0)
(0 -0.004405 0)
(0 -0.00396429 0)
(0 -0.00350628 0)
(0 -0.00398359 0)
(0 -0.00303272 0)
(0 -0.00207169 0)
(0 -0.00124681 0)
(0 -0.000587218 0)
(0 -0.000156383 0)
(0 0 0)
(0 0 0)
(0 0 0)
(0 0 0)
(0 0 0)
(0 0 0)
(0 0 0)
(0 0 0)
(0 0 0)
(0 0 0)
(0 0 0)
(0 0 0)
(0 0 0)
(0 0 0)
(0 0 0)
(0 -3.13797e-05 0)
(0 -0.000322386 0)
(0 -0.000929272 0)
(0 -0.00174108 0)
(0 -0.00270618 0)
(0 -0.00381189 0)
(0 -0.00487695 0)
(0 -0.00446247 0)
(0 -0.00494496 0)
(0 -0.00444016 0)
(0 -0.00493675 0)
(0 -0.00539848 0)
(0 -0.00585344 0)
(0 -0.0053738 0)
(0 -0.00577293 0)
(0 -0.00626364 0)
(0 -0.00645068 0)
(0 -0.00662478 0)
(0 -0.00638806 0)
(0 -0.00610984 0)
(0 -0.00644889 0)
(0 -0.00669204 0)
(0 -0.00684225 0)
(0 -0.00659901 0)
(0 -0.0069642 0)
(0 -0.00719484 0)
(0 -0.00730156 0)
(0 -0.00707255 0)
(0 -0.00731132 0)
(0 -0.00753697 0)
(0 -0.0075932 0)
(0 -0.00738082 0)
(0 -0.00750855 0)
(0 -0.0077153 0)
(0 -0.00774475 0)
(0 -0.00754275 0)
(0 -0.00757953 0)
(0 -0.00777714 0)
(0 -0.00777119 0)
(0 -0.00757319 0)
(0 -0.00750855 0)
(0 -0.0077153 0)
(0 -0.0076874 0)
(0 -0.00747921 0)
(0 -0.00731132 0)
(0 -0.00753697 0)
(0 -0.00747237 0)
(0 -0.00724728 0)
(0 -0.0069642 0)
(0 -0.00719484 0)
(0 -0.00710061 0)
(0 -0.00684185 0)
(0 -0.00644889 0)
(0 -0.00669204 0)
(0 -0.00652819 0)
(0 -0.00628568 0)
(0 -0.00577293 0)
(0 -0.00626364 0)
(0 -0.00585344 0)
(0 -0.0053738 0)
(0 -0.00493675 0)
(0 -0.00539848 0)
(0 -0.00494496 0)
(0 -0.00444016 0)
(0 -0.00446247 0)
(0 -0.00485498 0)
(0 -0.00380926 0)
(0 -0.0027498 0)
(0 -0.00172646 0)
(0 -0.000920224 0)
(0 -0.000338544 0)
(0 -3.58844e-05 0)
(0 0 0)
(0 0 0)
(0 0 0)
(0 0 0)
(0 0 0)
(0 0 0)
(0 0 0)
(0 0 0)
(0 0 0)
(0 0 0)
(0 0 0)
(0 0 0)
(0 0 0)
(0 0 0)
(0 -0.000102667 0)
(0 -0.000519605 0)
(0 -0.00122084 0)
(0 -0.00214517 0)
(0 -0.00321338 0)
(0 -0.0043883 0)
(0 -0.00548485 0)
(0 -0.00521429 0)
(0 -0.0057303 0)
(0 -0.00537912 0)
(0 -0.00584797 0)
(0 -0.00620887 0)
(0 -0.00664107 0)
(0 -0.00627504 0)
(0 -0.00665336 0)
(0 -0.00684932 0)
(0 -0.00701787 0)
(0 -0.00684908 0)
(0 -0.00732529 0)
(0 -0.00740636 0)
(0 -0.00747179 0)
(0 -0.00739145 0)
(0 -0.00775455 0)
(0 -0.0078194 0)
(0 -0.00786149 0)
(0 -0.00779798 0)
(0 -0.00800865 0)
(0 -0.00805591 0)
(0 -0.00807735 0)
(0 -0.00802975 0)
(0 -0.00812001 0)
(0 -0.00815467 0)
(0 -0.00815962 0)
(0 -0.00812596 0)
(0 -0.00814849 0)
(0 -0.00817642 0)
(0 -0.00817594 0)
(0 -0.00814782 0)
(0 -0.00812001 0)
(0 -0.00815467 0)
(0 -0.00814783 0)
(0 -0.0081119 0)
(0 -0.00800865 0)
(0 -0.00805591 0)
(0 -0.00803793 0)
(0 -0.00798326 0)
(0 -0.00775455 0)
(0 -0.0078194 0)
(0 -0.00778275 0)
(0 -0.0077073 0)
(0 -0.00732529 0)
(0 -0.00740636 0)
(0 -0.00748055 0)
(0 -0.00733938 0)
(0 -0.00718152 0)
(0 -0.00665336 0)
(0 -0.00684932 0)
(0 -0.00701955 0)
(0 -0.00664107 0)
(0 -0.00627504 0)
(0 -0.00584797 0)
(0 -0.00619468 0)
(0 -0.00572661 0)
(0 -0.00537912 0)
(0 -0.00522053 0)
(0 -0.00550109 0)
(0 -0.00437727 0)
(0 -0.00324539 0)
(0 -0.00216767 0)
(0 -0.00123498 0)
(0 -0.000527019 0)
(0 -0.0001052 0)
(0 0 0)
(0 0 0)
(0 0 0)
(0 0 0)
(0 0 0)
(0 0 0)
(0 0 0)
(0 0 0)
(0 0 0)
(0 0 0)
(0 0 0)
(0 0 0)
(0 0 0)
(0 0 0)
(0 -0.00015831 0)
(0 -0.000645493 0)
(0 -0.00142048 0)
(0 -0.00241783 0)
(0 -0.00355355 0)
(0 -0.0047322 0)
(0 -0.00585513 0)
(0 -0.005716 0)
(0 -0.00622793 0)
(0 -0.00599027 0)
(0 -0.00645372 0)
(0 -0.00669432 0)
(0 -0.00710601 0)
(0 -0.00690716 0)
(0 -0.00728194 0)
(0 -0.00737452 0)
(0 -0.00753581 0)
(0 -0.00744537 0)
(0 -0.00783374 0)
(0 -0.0078765 0)
(0 -0.00792476 0)
(0 -0.00788334 0)
(0 -0.00813139 0)
(0 -0.00815203 0)
(0 -0.00816927 0)
(0 -0.00815105 0)
(0 -0.00820266 0)
(0 -0.00820266 0)
(0 -0.00820266 0)
(0 -0.00820266 0)
(0 -0.00820266 0)
(0 -0.00820266 0)
(0 -0.00820266 0)
(0 -0.00820266 0)
(0 -0.00820266 0)
(0 -0.00820266 0)
(0 -0.00820266 0)
(0 -0.00820266 0)
(0 -0.00820266 0)
(0 -0.00820266 0)
(0 -0.00820266 0)
(0 -0.00820266 0)
(0 -0.00820266 0)
(0 -0.00820266 0)
(0 -0.00820266 0)
(0 -0.00820266 0)
(0 -0.00813139 0)
(0 -0.00815203 0)
(0 -0.00812929 0)
(0 -0.00810774 0)
(0 -0.00783374 0)
(0 -0.0078765 0)
(0 -0.00791305 0)
(0 -0.00780148 0)
(0 -0.00772155 0)
(0 -0.00727771 0)
(0 -0.00738527 0)
(0 -0.0074674 0)
(0 -0.00709615 0)
(0 -0.00691331 0)
(0 -0.0064905 0)
(0 -0.006686 0)
(0 -0.00622132 0)
(0 -0.00601675 0)
(0 -0.00571115 0)
(0 -0.00585804 0)
(0 -0.00473026 0)
(0 -0.0035479 0)
(0 -0.00241008 0)
(0 -0.00141239 0)
(0 -0.000638801 0)
(0 -0.00015451 0)
(0 0 0)
(0 0 0)
(0 0 0)
(0 0 0)
(0 0 0)
(0 0 0)
(0 0 0)
(0 0 0)
(0 0 0)
(0 0 0)
(0 0 0)
(0 0 0)
(0 0 0)
(0 0 0)
(0 -0.000167844 0)
(0 -0.000666127 0)
(0 -0.00145301 0)
(0 -0.00246237 0)
(0 -0.00360939 0)
(0 -0.00479772 0)
(0 -0.0059275 0)
(0 -0.00592958 0)
(0 -0.00644203 0)
(0 -0.00636609 0)
(0 -0.00682901 0)
(0 -0.00690505 0)
(0 -0.00730887 0)
(0 -0.00723451 0)
(0 -0.00758746 0)
(0 -0.00762156 0)
(0 -0.00776307 0)
(0 -0.00773232 0)
(0 -0.00805174 0)
(0 -0.00806489 0)
(0 -0.00809982 0)
(0 -0.00808767 0)
(0 -0.00820266 0)
(0 -0.00820266 0)
(0 -0.00820266 0)
(0 -0.00820266 0)
(0 -0.00820266 0)
(0 -0.00820266 0)
(0 -0.00820266 0)
(0 -0.00820266 0)
(0 -0.00820266 0)
(0 -0.00820266 0)
(0 -0.00820266 0)
(0 -0.00820266 0)
(0 -0.00820266 0)
(0 -0.00820266 0)
(0 -0.00820266 0)
(0 -0.00820266 0)
(0 -0.00820266 0)
(0 -0.00820232 0)
(0 -0.00820114 0)
(0 -0.00805174 0)
(0 -0.00806489 0)
(0 -0.00807358 0)
(0 -0.00799155 0)
(0 -0.00796261 0)
(0 -0.00758699 0)
(0 -0.00762204 0)
(0 -0.007645 0)
(0 -0.00730887 0)
(0 -0.00724502 0)
(0 -0.00683716 0)
(0 -0.00688766 0)
(0 -0.00642206 0)
(0 -0.00637163 0)
(0 -0.00590746 0)
(0 -0.00591424 0)
(0 -0.00478296 0)
(0 -0.00359441 0)
(0 -0.00244845 0)
(0 -0.00144137 0)
(0 -0.000657779 0)
(0 -0.000163519 0)
(0 0 0)
(0 0 0)
(0 0 0)
(0 0 0)
(0 0 0)
(0 0 0)
(0 0 0)
(0 0 0)
(0 0 0)
(0 0 0)
(0 0 0)
(0 0 0)
(0 0 0)
(0 0 0)
(0 -0.000137168 0)
(0 -0.000599479 0)
(0 -0.00134869 0)
(0 -0.00232089 0)
(0 -0.00343377 0)
(0 -0.00459376 0)
(0 -0.00570428 0)
(0 -0.00586457 0)
(0 -0.00637617 0)
(0 -0.00644035 0)
(0 -0.00690382 0)
(0 -0.00683957 0)
(0 -0.00724529 0)
(0 -0.00730811 0)
(0 -0.00764469 0)
(0 -0.00762668 0)
(0 -0.00776816 0)
(0 -0.00778531 0)
(0 -0.00808796 0)
(0 -0.00808368 0)
(0 -0.00811643 0)
(0 -0.00812031 0)
(0 -0.00820266 0)
(0 -0.00820266 0)
(0 -0.00820266 0)
(0 -0.00820266 0)
(0 -0.00820266 0)
(0 -0.00820266 0)
(0 -0.00820266 0)
(0 -0.00820266 0)
(0 -0.00820266 0)
(0 -0.00820266 0)
(0 -0.00820266 0)
(0 -0.00820266 0)
(0 -0.00820266 0)
(0 -0.00820266 0)
(0 -0.00820266 0)
(0 -0.00820266 0)
(0 -0.00808796 0)
(0 -0.00808019 0)
(0 -0.00807593 0)
(0 -0.00799409 0)
(0 -0.0080034 0)
(0 -0.00763758 0)
(0 -0.00762611 0)
(0 -0.00759132 0)
(0 -0.00725025 0)
(0 -0.00729915 0)
(0 -0.0068932 0)
(0 -0.00684318 0)
(0 -0.00637833 0)
(0 -0.00642829 0)
(0 -0.00586528 0)
(0 -0.00571879 0)
(0 -0.00460441 0)
(0 -0.00344072 0)
(0 -0.00232472 0)
(0 -0.00135021 0)
(0 -0.000599627 0)
(0 -0.000136868 0)
(0 0 0)
(0 0 0)
(0 0 0)
(0 0 0)
(0 0 0)
(0 0 0)
(0 0 0)
(0 0 0)
(0 0 0)
(0 0 0)
(0 0 0)
(0 0 0)
(0 0 0)
(0 0 0)
(0 -6.93773e-05 0)
(0 -0.000435772 0)
(0 -0.00108389 0)
(0 -0.00195554 0)
(0 -0.00304031 0)
(0 -0.00414956 0)
(0 -0.00523153 0)
(0 -0.00551846 0)
(0 -0.00603137 0)
(0 -0.00621217 0)
(0 -0.00670501 0)
(0 -0.00650201 0)
(0 -0.00692148 0)
(0 -0.00712307 0)
(0 -0.00747813 0)
(0 -0.00739305 0)
(0 -0.00754736 0)
(0 -0.00762999 0)
(0 -0.0079765 0)
(0 -0.00795229 0)
(0 -0.0079963 0)
(0 -0.00802214 0)
(0 -0.00819274 0)
(0 -0.00818432 0)
(0 -0.00819437 0)
(0 -0.00819957 0)
(0 -0.00820266 0)
(0 -0.00820266 0)
(0 -0.00820266 0)
(0 -0.00820266 0)
(0 -0.00820266 0)
(0 -0.00820266 0)
(0 -0.00820266 0)
(0 -0.00820266 0)
(0 -0.00819274 0)
(0 -0.00818309 0)
(0 -0.00816976 0)
(0 -0.00818167 0)
(0 -0.0079765 0)
(0 -0.00795229 0)
(0 -0.00791938 0)
(0 -0.00781507 0)
(0 -0.00787948 0)
(0 -0.00747813 0)
(0 -0.00739305 0)
(0 -0.00729641 0)
(0 -0.00692148 0)
(0 -0.00712307 0)
(0 -0.00669251 0)
(0 -0.00650201 0)
(0 -0.00603137 0)
(0 -0.00622847 0)
(0 -0.00551846 0)
(0 -0.00523153 0)
(0 -0.00414956 0)
(0 -0.00300113 0)
(0 -0.00197476 0)
(0 -0.0010965 0)
(0 -0.000442673 0)
(0 -7.17089e-05 0)
(0 0 0)
(0 0 0)
(0 0 0)
(0 0 0)
(0 0 0)
(0 0 0)
(0 0 0)
(0 0 0)
(0 0 0)
(0 0 0)
(0 0 0)
(0 0 0)
(0 0 0)
(0 0 0)
(0 -8.58442e-06 0)
(0 -0.000254826 0)
(0 -0.000775976 0)
(0 -0.00152589 0)
(0 -0.00243599 0)
(0 -0.00342644 0)
(0 -0.00446575 0)
(0 -0.00485983 0)
(0 -0.00538828 0)
(0 -0.00573479 0)
(0 -0.00622432 0)
(0 -0.00585094 0)
(0 -0.00631428 0)
(0 -0.00665002 0)
(0 -0.00704118 0)
(0 -0.00688434 0)
(0 -0.00705711 0)
(0 -0.00721262 0)
(0 -0.00763241 0)
(0 -0.00756256 0)
(0 -0.00762608 0)
(0 -0.00768409 0)
(0 -0.0080034 0)
(0 -0.00795747 0)
(0 -0.007991 0)
(0 -0.00803515 0)
(0 -0.0081693 0)
(0 -0.00814361 0)
(0 -0.00815489 0)
(0 -0.00817835 0)
(0 -0.00820266 0)
(0 -0.00819809 0)
(0 -0.00819988 0)
(0 -0.00820266 0)
(0 -0.00820266 0)
(0 -0.00820266 0)
(0 -0.00820266 0)
(0 -0.00820266 0)
(0 -0.00820266 0)
(0 -0.00820266 0)
(0 -0.00819809 0)
(0 -0.00819558 0)
(0 -0.00820238 0)
(0 -0.00820258 0)
(0 -0.0081693 0)
(0 -0.00814361 0)
(0 -0.00812967 0)
(0 -0.00815764 0)
(0 -0.0080034 0)
(0 -0.00795747 0)
(0 -0.0079201 0)
(0 -0.00796771 0)
(0 -0.00763803 0)
(0 -0.00757391 0)
(0 -0.00749686 0)
(0 -0.00736945 0)
(0 -0.00750797 0)
(0 -0.00702184 0)
(0 -0.00687636 0)
(0 -0.00670641 0)
(0 -0.0063056 0)
(0 -0.00665002 0)
(0 -0.00622432 0)
(0 -0.00585094 0)
(0 -0.00538828 0)
(0 -0.00573479 0)
(0 -0.00485983 0)
(0 -0.00446575 0)
(0 -0.00342644 0)
(0 -0.00243599 0)
(0 -0.00152589 0)
(0 -0.000775976 0)
(0 -0.000237702 0)
(0 -1.03114e-05 0)
(0 0 0)
(0 0 0)
(0 0 0)
(0 0 0)
(0 0 0)
(0 0 0)
(0 0 0)
(0 0 0)
(0 0 0)
(0 0 0)
(0 0 0)
(0 0 0)
(0 0 0)
(0 0 0)
(0 0 0)
(0 -7.83264e-05 0)
(0 -0.000412751 0)
(0 -0.000971109 0)
(0 -0.00169516 0)
(0 -0.00259982 0)
(0 -0.00353519 0)
(0 -0.00397643 0)
(0 -0.00449711 0)
(0 -0.00494236 0)
(0 -0.00542506 0)
(0 -0.00496585 0)
(0 -0.00540412 0)
(0 -0.00587876 0)
(0 -0.00628955 0)
(0 -0.0058042 0)
(0 -0.00613914 0)
(0 -0.00641724 0)
(0 -0.006651 0)
(0 -0.00647678 0)
(0 -0.00696184 0)
(0 -0.0067188 0)
(0 -0.00686902 0)
(0 -0.00709929 0)
(0 -0.00744337 0)
(0 -0.007235 0)
(0 -0.00731834 0)
(0 -0.00753433 0)
(0 -0.00774828 0)
(0 -0.00756362 0)
(0 -0.00761787 0)
(0 -0.00779944 0)
(0 -0.00790641 0)
(0 -0.00773602 0)
(0 -0.00776609 0)
(0 -0.00792736 0)
(0 -0.0079554 0)
(0 -0.00779804 0)
(0 -0.0077899 0)
(0 -0.00794897 0)
(0 -0.00790641 0)
(0 -0.00773602 0)
(0 -0.00769336 0)
(0 -0.00787355 0)
(0 -0.00774828 0)
(0 -0.00756362 0)
(0 -0.00749583 0)
(0 -0.00768377 0)
(0 -0.00744337 0)
(0 -0.007235 0)
(0 -0.00712725 0)
(0 -0.00733792 0)
(0 -0.00696184 0)
(0 -0.0067188 0)
(0 -0.00657773 0)
(0 -0.00681169 0)
(0 -0.00628955 0)
(0 -0.0058042 0)
(0 -0.00540412 0)
(0 -0.00587876 0)
(0 -0.00542506 0)
(0 -0.00496585 0)
(0 -0.00449711 0)
(0 -0.00494236 0)
(0 -0.00397643 0)
(0 -0.00353519 0)
(0 -0.00259982 0)
(0 -0.00169516 0)
(0 -0.000971109 0)
(0 -0.000412751 0)
(0 -7.83264e-05 0)
(0 0 0)
(0 0 0)
(0 0 0)
(0 0 0)
(0 0 0)
(0 0 0)
(0 0 0)
(0 0 0)
(0 0 0)
(0 0 0)
(0 0 0)
(0 0 0)
(0 0 0)
(0 0 0)
(0 0 0)
(0 0 0)
(0 0 0)
(0 -0.000118034 0)
(0 -0.000487393 0)
(0 -0.00104483 0)
(0 -0.00173617 0)
(0 -0.0024934 0)
(0 -0.00324091 0)
(0 -0.003821 0)
(0 -0.00443783 0)
(0 -0.00399527 0)
(0 -0.00423612 0)
(0 -0.00485439 0)
(0 -0.00522182 0)
(0 -0.0046251 0)
(0 -0.00498086 0)
(0 -0.00559679 0)
(0 -0.00592801 0)
(0 -0.00562152 0)
(0 -0.00573982 0)
(0 -0.00607574 0)
(0 -0.00645268 0)
(0 -0.00615133 0)
(0 -0.00626315 0)
(0 -0.00656537 0)
(0 -0.00682218 0)
(0 -0.00651908 0)
(0 -0.00656906 0)
(0 -0.00688051 0)
(0 -0.00704376 0)
(0 -0.00675269 0)
(0 -0.00678668 0)
(0 -0.00707747 0)
(0 -0.00711711 0)
(0 -0.00682788 0)
(0 -0.00681388 0)
(0 -0.0071044 0)
(0 -0.00704376 0)
(0 -0.00675269 0)
(0 -0.00670508 0)
(0 -0.00699644 0)
(0 -0.00682218 0)
(0 -0.00651908 0)
(0 -0.00644718 0)
(0 -0.0067502 0)
(0 -0.00645268 0)
(0 -0.00615133 0)
(0 -0.00602661 0)
(0 -0.0063267 0)
(0 -0.00592801 0)
(0 -0.00562152 0)
(0 -0.00526728 0)
(0 -0.00498086 0)
(0 -0.00559679 0)
(0 -0.00522182 0)
(0 -0.0046251 0)
(0 -0.00423612 0)
(0 -0.00485439 0)
(0 -0.00443783 0)
(0 -0.003821 0)
(0 -0.00324091 0)
(0 -0.0024934 0)
(0 -0.00399527 0)
(0 -0.00173617 0)
(0 -0.00104483 0)
(0 -0.000487393 0)
(0 -0.000118034 0)
(0 0 0)
(0 0 0)
(0 0 0)
(0 0 0)
(0 0 0)
(0 0 0)
(0 0 0)
(0 0 0)
(0 0 0)
(0 0 0)
(0 0 0)
(0 0 0)
(0 0 0)
(0 0 0)
(0 0 0)
(0 0 0)
(0 0 0)
(0 0 0)
(0 -1.49683e-06 0)
(0 -0.000134091 0)
(0 -0.000454391 0)
(0 -0.000890444 0)
(0 -0.00145746 0)
(0 -0.00206219 0)
(0 -0.00264687 0)
(0 -0.00298819 0)
(0 -0.00362174 0)
(0 -0.00398093 0)
(0 -0.00327591 0)
(0 -0.00360052 0)
(0 -0.00427689 0)
(0 -0.0046014 0)
(0 -0.0042527 0)
(0 -0.00439543 0)
(0 -0.00474979 0)
(0 -0.00513231 0)
(0 -0.00476434 0)
(0 -0.00486588 0)
(0 -0.00523731 0)
(0 -0.00547523 0)
(0 -0.00510677 0)
(0 -0.0051888 0)
(0 -0.00555966 0)
(0 -0.00573655 0)
(0 -0.00536098 0)
(0 -0.00539312 0)
(0 -0.00576953 0)
(0 -0.00581297 0)
(0 -0.00543659 0)
(0 -0.0054189 0)
(0 -0.00579596 0)
(0 -0.00573655 0)
(0 -0.00536098 0)
(0 -0.00531611 0)
(0 -0.0056905 0)
(0 -0.00547523 0)
(0 -0.00510677 0)
(0 -0.00501284 0)
(0 -0.00541129 0)
(0 -0.00513231 0)
(0 -0.00476434 0)
(0 -0.00465179 0)
(0 -0.00501576 0)
(0 -0.0046014 0)
(0 -0.0042527 0)
(0 -0.00389769 0)
(0 -0.00360052 0)
(0 -0.00427689 0)
(0 -0.00398093 0)
(0 -0.00327591 0)
(0 -0.00298819 0)
(0 -0.00362174 0)
(0 -0.00264687 0)
(0 -0.00206219 0)
(0 -0.00145746 0)
(0 -0.000890444 0)
(0 -0.000454391 0)
(0 -0.000134091 0)
(0 -1.49683e-06 0)
(0 0 0)
(0 0 0)
(0 0 0)
(0 0 0)
(0 0 0)
(0 0 0)
(0 0 0)
(0 0 0)
(0 0 0)
(0 0 0)
(0 0 0)
(0 0 0)
(0 0 0)
(0 0 0)
(0 0 0)
(0 0 0)
(0 0 0)
(0 0 0)
(0 0 0)
(0 0 0)
(0 -7.04201e-05 0)
(0 -0.000293297 0)
(0 -0.000594163 0)
(0 -0.00100046 0)
(0 -0.00147933 0)
(0 -0.00174437 0)
(0 -0.00232436 0)
(0 -0.00262876 0)
(0 -0.00200411 0)
(0 -0.002252 0)
(0 -0.00291677 0)
(0 -0.00318211 0)
(0 -0.00282841 0)
(0 -0.00294309 0)
(0 -0.0033045 0)
(0 -0.00362316 0)
(0 -0.00324244 0)
(0 -0.00329707 0)
(0 -0.00367239 0)
(0 -0.00394948 0)
(0 -0.00355872 0)
(0 -0.00362716 0)
(0 -0.00402183 0)
(0 -0.00417429 0)
(0 -0.00377157 0)
(0 -0.00379864 0)
(0 -0.00420285 0)
(0 -0.00424446 0)
(0 -0.00383904 0)
(0 -0.00382039 0)
(0 -0.00422578 0)
(0 -0.00417429 0)
(0 -0.00377157 0)
(0 -0.00373384 0)
(0 -0.00413448 0)
(0 -0.00394948 0)
(0 -0.00355872 0)
(0 -0.00348063 0)
(0 -0.00386687 0)
(0 -0.00362316 0)
(0 -0.00324244 0)
(0 -0.00315065 0)
(0 -0.00352557 0)
(0 -0.00318211 0)
(0 -0.00282841 0)
(0 -0.00248205 0)
(0 -0.002252 0)
(0 -0.00291677 0)
(0 -0.00262876 0)
(0 -0.00200411 0)
(0 -0.00174437 0)
(0 -0.00232436 0)
(0 -0.00147933 0)
(0 -0.00100046 0)
(0 -0.000594163 0)
(0 -0.000293297 0)
(0 -7.04201e-05 0)
(0 0 0)
(0 0 0)
(0 0 0)
(0 0 0)
(0 0 0)
(0 0 0)
(0 0 0)
(0 0 0)
(0 0 0)
(0 0 0)
(0 0 0)
(0 0 0)
(0 0 0)
(0 0 0)
(0 0 0)
(0 0 0)
(0 0 0)
(0 0 0)
(0 0 0)
(0 0 0)
(0 0 0)
(0 0 0)
(0 0 0)
(0 -5.99682e-06 0)
(0 -0.00010172 0)
(0 -0.000283887 0)
(0 -0.000595534 0)
(0 -0.000757668 0)
(0 -0.00121451 0)
(0 -0.00142726 0)
(0 -0.000922302 0)
(0 -0.00108387 0)
(0 -0.00163262 0)
(0 -0.00182496 0)
(0 -0.00152083 0)
(0 -0.00160173 0)
(0 -0.00191462 0)
(0 -0.00213058 0)
(0 -0.00180317 0)
(0 -0.00187908 0)
(0 -0.00221399 0)
(0 -0.00242417 0)
(0 -0.0020709 0)
(0 -0.0021215 0)
(0 -0.00247948 0)
(0 -0.00259663 0)
(0 -0.00222882 0)
(0 -0.00224903 0)
(0 -0.00261866 0)
(0 -0.00265384 0)
(0 -0.00228201 0)
(0 -0.00226527 0)
(0 -0.00263637 0)
(0 -0.00259663 0)
(0 -0.00222882 0)
(0 -0.0022007 0)
(0 -0.00256596 0)
(0 -0.00242417 0)
(0 -0.0020709 0)
(0 -0.00201337 0)
(0 -0.00236123 0)
(0 -0.00213058 0)
(0 -0.00180317 0)
(0 -0.00172208 0)
(0 -0.00204131 0)
(0 -0.00182496 0)
(0 -0.00152083 0)
(0 -0.00123716 0)
(0 -0.00108387 0)
(0 -0.00163262 0)
(0 -0.00142726 0)
(0 -0.000922302 0)
(0 -0.000757668 0)
(0 -0.00121451 0)
(0 -0.000595534 0)
(0 -0.000283887 0)
(0 -0.00010172 0)
(0 -5.99682e-06 0)
(0 0 0)
(0 0 0)
(0 0 0)
(0 0 0)
(0 0 0)
(0 0 0)
(0 0 0)
(0 0 0)
(0 0 0)
(0 0 0)
(0 0 0)
(0 0 0)
(0 0 0)
(0 0 0)
(0 0 0)
(0 0 0)
(0 0 0)
(0 0 0)
(0 0 0)
(0 0 0)
(0 0 0)
(0 0 0)
(0 0 0)
(0 0 0)
(0 0 0)
(0 0 0)
(0 -1.08705e-06 0)
(0 -8.16691e-05 0)
(0 -0.000142253 0)
(0 -0.000394453 0)
(0 -0.000511066 0)
(0 -0.000212115 0)
(0 -0.000286826 0)
(0 -0.000628714 0)
(0 -0.000742671 0)
(0 -0.000511224 0)
(0 -0.000563559 0)
(0 -0.000770733 0)
(0 -0.000946329 0)
(0 -0.000712192 0)
(0 -0.000757309 0)
(0 -0.000999155 0)
(0 -0.00113424 0)
(0 -0.000873395 0)
(0 -0.000904481 0)
(0 -0.00117023 0)
(0 -0.00124703 0)
(0 -0.000971008 0)
(0 -0.000983622 0)
(0 -0.00126156 0)
(0 -0.00128683 0)
(0 -0.00100602 0)
(0 -0.000993782 0)
(0 -0.00127326 0)
(0 -0.00124703 0)
(0 -0.000971008 0)
(0 -0.000953504 0)
(0 -0.00122686 0)
(0 -0.00113424 0)
(0 -0.000873395 0)
(0 -0.000838286 0)
(0 -0.0010935 0)
(0 -0.000946329 0)
(0 -0.000712192 0)
(0 -0.000664548 0)
(0 -0.000890323 0)
(0 -0.000742671 0)
(0 -0.000511224 0)
(0 -0.000343777 0)
(0 -0.000286826 0)
(0 -0.000628714 0)
(0 -0.000511066 0)
(0 -0.000212115 0)
(0 -0.000142253 0)
(0 -0.000394453 0)
(0 -8.16691e-05 0)
(0 -1.08705e-06 0)
(0 0 0)
(0 0 0)
(0 0 0)
(0 0 0)
(0 0 0)
(0 0 0)
(0 0 0)
(0 0 0)
(0 0 0)
(0 0 0)
(0 0 0)
(0 0 0)
(0 0 0)
(0 0 0)
(0 0 0)
(0 0 0)
(0 0 0)
(0 0 0)
(0 0 0)
(0 0 0)
(0 0 0)
(0 0 0)
(0 0 0)
(0 0 0)
(0 0 0)
(0 0 0)
(0 0 0)
(0 0 0)
(0 0 0)
(0 0 0)
(0 0 0)
(0 -3.9923e-05 0)
(0 -1.44397e-05 0)
(0 0 0)
(0 -6.27787e-05 0)
(0 -0.00010488 0)
(0 -3.21088e-06 0)
(0 -1.40346e-05 0)
(0 -0.00015114 0)
(0 -0.000198016 0)
(0 -2.95939e-05 0)
(0 -4.7122e-05 0)
(0 -0.000242308 0)
(0 -0.00028124 0)
(0 -6.42035e-05 0)
(0 -7.88334e-05 0)
(0 -0.000312514 0)
(0 -0.000334364 0)
(0 -8.94653e-05 0)
(0 -9.50479e-05 0)
(0 -0.000345594 0)
(0 -0.000354579 0)
(0 -9.9817e-05 0)
(0 -9.50479e-05 0)
(0 -0.000345594 0)
(0 -0.000334364 0)
(0 -8.94653e-05 0)
(0 -7.88334e-05 0)
(0 -0.000312514 0)
(0 -0.00028124 0)
(0 -6.42035e-05 0)
(0 -4.7122e-05 0)
(0 -0.000242308 0)
(0 -0.000198016 0)
(0 -2.95939e-05 0)
(0 -1.40346e-05 0)
(0 -0.00015114 0)
(0 -0.00010488 0)
(0 -3.21088e-06 0)
(0 0 0)
(0 -6.27787e-05 0)
(0 -3.9923e-05 0)
(0 0 0)
(0 0 0)
(0 0 0)
(0 -1.44397e-05 0)
(0 0 0)
(0 0 0)
(0 0 0)
(0 0 0)
(0 0 0)
(0 0 0)
(0 0 0)
(0 0 0)
(0 0 0)
(0 0 0)
(0 0 0)
(0 0 0)
(0 0 0)
(0 0 0)
(0 0 0)
(0 0 0)
(0 0 0)
(0 0 0)
(0 0 0)
(0 0 0)
(0 0 0)
(0 0 0)
(0 0 0)
(0 0 0)
(0 0 0)
(0 0 0)
(0 0 0)
(0 0 0)
(0 0 0)
(0 0 0)
(0 0 0)
(0 0 0)
(0 0 0)
(0 0 0)
(0 0 0)
(0 0 0)
(0 0 0)
(0 0 0)
(0 0 0)
(0 0 0)
(0 -2.88559e-07 0)
(0 0 0)
(0 0 0)
(0 -1.11047e-06 0)
(0 -6.60712e-07 0)
(0 0 0)
(0 -2.88559e-07 0)
(0 -6.60712e-07 0)
(0 0 0)
(0 0 0)
(0 0 0)
(0 0 0)
(0 0 0)
(0 0 0)
(0 0 0)
(0 0 0)
(0 0 0)
(0 0 0)
(0 0 0)
(0 0 0)
(0 0 0)
(0 0 0)
(0 0 0)
(0 0 0)
(0 0 0)
(0 0 0)
(0 0 0)
(0 0 0)
(0 0 0)
(0 0 0)
(0 0 0)
(0 0 0)
(0 0 0)
(0 0 0)
(0 0 0)
(0 0 0)
(0 0 0)
(0 0 0)
(0 0 0)
(0 0 0)
(0 0 0)
(0 0 0)
(0 0 0)
(0 0 0)
(0 0 0)
(0 0 0)
(0 0 0)
(0 0 0)
(0 0 0)
(0 0 0)
(0 0 0)
(0 0 0)
(0 0 0)
(0 0 0)
(0 0 0)
(0 0 0)
(0 0 0)
(0 0 0)
(0 0 0)
(0 0 0)
(0 0 0)
(0 0 0)
(0 0 0)
(0 0 0)
(0 0 0)
(0 0 0)
(0 0 0)
(0 0 0)
(0 0 0)
(0 0 0)
(0 0 0)
(0 0 0)
(0 0 0)
(0 0 0)
(0 0 0)
(0 0 0)
(0 0 0)
(0 0 0)
(0 0 0)
(0 0 0)
(0 0 0)
(0 0 0)
(0 0 0)
(0 0 0)
(0 0 0)
(0 0 0)
(0 0 0)
(0 0 0)
(0 0 0)
(0 0 0)
(0 0 0)
(0 0 0)
(0 0 0)
(0 0 0)
(0 0 0)
(0 0 0)
(0 0 0)
(0 0 0)
(0 0 0)
(0 0 0)
(0 0 0)
(0 0 0)
(0 0 0)
(0 0 0)
(0 0 0)
(0 0 0)
(0 0 0)
(0 0 0)
(0 0 0)
(0 0 0)
(0 0 0)
(0 0 0)
(0 0 0)
(0 0 0)
(0 0 0)
(0 0 0)
(0 0 0)
(0 0 0)
(0 0 0)
(0 0 0)
(0 0 0)
(0 0 0)
(0 0 0)
(0 0 0)
(0 0 0)
(0 0 0)
(0 0 0)
(0 0 0)
(0 0 0)
(0 0 0)
(0 0 0)
(0 0 0)
(0 0 0)
(0 0 0)
(0 0 0)
(0 0 0)
(0 0 0)
(0 0 0)
(0 0 0)
(0 0 0)
(0 0 0)
(0 0 0)
(0 0 0)
(0 0 0)
(0 0 0)
(0 0 0)
(0 0 0)
(0 0 0)
(0 0 0)
(0 0 0)
(0 0 0)
(0 0 0)
(0 0 0)
(0 0 0)
(0 0 0)
(0 0 0)
(0 0 0)
(0 0 0)
(0 0 0)
(0 0 0)
(0 0 0)
(0 0 0)
(0 0 0)
(0 0 0)
(0 0 0)
(0 0 0)
(0 0 0)
(0 0 0)
(0 0 0)
(0 0 0)
(0 0 0)
(0 0 0)
(0 0 0)
(0 0 0)
(0 0 0)
(0 0 0)
(0 0 0)
(0 0 0)
(0 0 0)
(0 0 0)
(0 0 0)
(0 0 0)
(0 0 0)
(0 0 0)
(0 0 0)
(0 0 0)
(0 0 0)
(0 0 0)
(0 0 0)
(0 0 0)
(0 0 0)
(0 0 0)
(0 0 0)
(0 0 0)
(0 0 0)
(0 0 0)
(0 0 0)
(0 0 0)
(0 0 0)
(0 0 0)
(0 0 0)
(0 0 0)
(0 0 0)
(0 0 0)
(0 0 0)
(0 0 0)
(0 0 0)
(0 0 0)
(0 0 0)
(0 0 0)
(0 0 0)
(0 0 0)
(0 0 0)
(0 0 0)
(0 0 0)
(0 0 0)
(0 0 0)
(0 0 0)
(0 0 0)
(0 0 0)
(0 0 0)
(0 0 0)
(0 0 0)
(0 0 0)
(0 0 0)
(0 0 0)
(0 0 0)
(0 0 0)
(0 0 0)
(0 0 0)
(0 0 0)
(0 0 0)
(0 0 0)
(0 0 0)
(0 0 0)
(0 0 0)
(0 0 0)
(0 0 0)
(0 0 0)
(0 0 0)
(0 0 0)
(0 0 0)
(0 0 0)
(0 0 0)
(0 0 0)
(0 0 0)
(0 0 0)
(0 0 0)
(0 0 0)
(0 0 0)
(0 0 0)
(0 0 0)
(0 0 0)
(0 0 0)
(0 0 0)
(0 0 0)
(0 0 0)
(0 0 0)
(0 0 0)
(0 0 0)
(0 0 0)
(0 0 0)
(0 0 0)
(0 0 0)
(0 0 0)
(0 0 0)
(0 0 0)
(0 0 0)
(0 0 0)
(0 0 0)
(0 0 0)
(0 0 0)
(0 0 0)
(0 0 0)
(0 0 0)
(0 0 0)
(0 0 0)
(0 0 0)
(0 0 0)
(0 0 0)
(0 0 0)
(0 0 0)
(0 0 0)
(0 0 0)
(0 0 0)
(0 0 0)
(0 0 0)
(0 0 0)
(0 0 0)
(0 0 0)
(0 0 0)
(0 0 0)
(0 0 0)
(0 0 0)
(0 0 0)
(0 0 0)
(0 0 0)
(0 0 0)
(0 0 0)
(0 0 0)
(0 0 0)
(0 0 0)
(0 0 0)
(0 0 0)
(0 0 0)
(0 0 0)
(0 0 0)
(0 0 0)
(0 0 0)
(0 0 0)
(0 0 0)
(0 0 0)
(0 0 0)
(0 0 0)
(0 0 0)
(0 0 0)
(0 0 0)
(0 0 0)
(0 0 0)
(0 0 0)
(0 0 0)
(0 0 0)
(0 0 0)
(0 0 0)
(0 0 0)
(0 0 0)
(0 0 0)
(0 0 0)
(0 0 0)
(0 0 0)
(0 0 0)
(0 0 0)
(0 0 0)
(0 0 0)
(0 0 0)
(0 0 0)
(0 0 0)
(0 0 0)
(0 0 0)
(0 0 0)
(0 0 0)
(0 0 0)
(0 0 0)
(0 0 0)
(0 0 0)
(0 0 0)
(0 0 0)
(0 0 0)
(0 0 0)
(0 0 0)
(0 0 0)
(0 0 0)
(0 0 0)
(0 0 0)
(0 0 0)
(0 0 0)
(0 0 0)
(0 0 0)
(0 0 0)
(0 0 0)
(0 0 0)
(0 0 0)
(0 0 0)
(0 0 0)
(0 0 0)
(0 0 0)
(0 0 0)
(0 0 0)
(0 0 0)
(0 0 0)
(0 0 0)
(0 0 0)
(0 0 0)
(0 0 0)
(0 0 0)
(0 0 0)
(0 0 0)
(0 0 0)
(0 0 0)
(0 0 0)
(0 0 0)
(0 0 0)
(0 0 0)
(0 0 0)
(0 0 0)
(0 0 0)
(0 0 0)
(0 0 0)
(0 0 0)
(0 0 0)
(0 0 0)
(0 0 0)
(0 0 0)
(0 0 0)
(0 0 0)
(0 0 0)
(0 0 0)
(0 0 0)
(0 0 0)
(0 0 0)
(0 0 0)
(0 0 0)
(0 0 0)
(0 0 0)
(0 0 0)
(0 0 0)
(0 0 0)
(0 0 0)
(0 0 0)
(0 0 0)
(0 0 0)
(0 0 0)
(0 0 0)
(0 0 0)
(0 0 0)
(0 0 0)
(0 0 0)
(0 0 0)
(0 0 0)
(0 0 0)
(0 0 0)
(0 0 0)
(0 0 0)
(0 0 0)
(0 0 0)
(0 0 0)
(0 0 0)
(0 0 0)
(0 0 0)
(0 0 0)
(0 0 0)
(0 0 0)
(0 0 0)
(0 0 0)
(0 0 0)
(0 0 0)
(0 0 0)
(0 0 0)
(0 0 0)
(0 0 0)
(0 0 0)
(0 0 0)
(0 0 0)
(0 0 0)
(0 0 0)
(0 0 0)
(0 0 0)
(0 0 0)
(0 0 0)
(0 0 0)
(0 0 0)
(0 0 0)
(0 0 0)
(0 0 0)
(0 0 0)
(0 0 0)
(0 0 0)
(0 0 0)
(0 0 0)
(0 0 0)
(0 0 0)
(0 0 0)
(0 0 0)
(0 0 0)
(0 0 0)
(0 0 0)
(0 0 0)
(0 0 0)
(0 0 0)
(0 0 0)
(0 0 0)
(0 0 0)
(0 0 0)
(0 0 0)
(0 0 0)
(0 0 0)
(0 0 0)
(0 0 0)
(0 0 0)
(0 0 0)
(0 0 0)
(0 0 0)
(0 0 0)
(0 0 0)
(0 0 0)
(0 0 0)
(0 0 0)
(0 0 0)
(0 0 0)
(0 0 0)
(0 0 0)
(0 0 0)
(0 0 0)
(0 0 0)
(0 0 0)
(0 0 0)
(0 0 0)
(0 0 0)
(0 0 0)
(0 0 0)
(0 0 0)
(0 0 0)
(0 0 0)
(0 0 0)
(0 0 0)
(0 0 0)
(0 0 0)
(0 0 0)
(0 0 0)
(0 0 0)
(0 0 0)
(0 0 0)
(0 0 0)
(0 0 0)
(0 0 0)
(0 0 0)
(0 0 0)
(0 0 0)
(0 0 0)
(0 0 0)
(0 0 0)
(0 0 0)
(0 0 0)
(0 0 0)
(0 0 0)
(0 0 0)
(0 0 0)
(0 0 0)
(0 0 0)
(0 0 0)
(0 0 0)
(0 0 0)
(0 0 0)
(0 0 0)
(0 0 0)
(0 0 0)
(0 0 0)
(0 0 0)
(0 0 0)
(0 0 0)
(0 0 0)
(0 0 0)
(0 0 0)
(0 0 0)
(0 0 0)
(0 0 0)
(0 0 0)
(0 0 0)
(0 0 0)
(0 0 0)
(0 0 0)
(0 0 0)
(0 0 0)
(0 0 0)
(0 0 0)
(0 0 0)
(0 0 0)
(0 0 0)
(0 0 0)
(0 0 0)
(0 0 0)
(0 0 0)
(0 0 0)
(0 0 0)
(0 0 0)
(0 0 0)
(0 0 0)
(0 0 0)
(0 0 0)
(0 0 0)
(0 0 0)
(0 0 0)
(0 0 0)
(0 0 0)
(0 0 0)
(0 0 0)
(0 0 0)
(0 0 0)
(0 0 0)
(0 0 0)
(0 0 0)
(0 0 0)
(0 0 0)
(0 0 0)
(0 0 0)
(0 0 0)
(0 0 0)
(0 0 0)
(0 0 0)
(0 0 0)
(0 0 0)
(0 0 0)
(0 0 0)
(0 0 0)
(0 0 0)
(0 0 0)
(0 0 0)
(0 0 0)
(0 0 0)
(0 0 0)
(0 0 0)
(0 0 0)
(0 0 0)
(0 0 0)
(0 0 0)
(0 0 0)
(0 0 0)
(0 0 0)
(0 0 0)
(0 0 0)
(0 0 0)
(0 0 0)
(0 0 0)
(0 0 0)
(0 0 0)
(0 0 0)
(0 0 0)
(0 0 0)
(0 0 0)
(0 0 0)
(0 0 0)
(0 0 0)
(0 0 0)
(0 0 0)
(0 0 0)
(0 0 0)
(0 0 0)
(0 0 0)
(0 0 0)
(0 0 0)
(0 0 0)
(0 0 0)
(0 0 0)
(0 0 0)
(0 0 0)
(0 0 0)
(0 0 0)
(0 0 0)
(0 0 0)
(0 0 0)
(0 0 0)
(0 0 0)
(0 0 0)
(0 0 0)
(0 0 0)
(0 0 0)
(0 0 0)
(0 0 0)
(0 0 0)
(0 0 0)
(0 0 0)
(0 0 0)
(0 0 0)
(0 0 0)
(0 0 0)
(0 0 0)
(0 0 0)
(0 0 0)
(0 0 0)
(0 0 0)
(0 0 0)
(0 0 0)
(0 0 0)
(0 0 0)
(0 0 0)
(0 0 0)
(0 0 0)
(0 0 0)
(0 0 0)
(0 0 0)
(0 0 0)
(0 0 0)
(0 0 0)
(0 0 0)
(0 0 0)
(0 0 0)
(0 0 0)
(0 0 0)
(0 0 0)
(0 0 0)
(0 0 0)
(0 0 0)
(0 0 0)
(0 0 0)
(0 0 0)
(0 0 0)
(0 0 0)
(0 0 0)
(0 0 0)
(0 0 0)
(0 0 0)
(0 0 0)
(0 0 0)
(0 0 0)
(0 0 0)
(0 0 0)
(0 0 0)
(0 0 0)
(0 0 0)
(0 0 0)
(0 0 0)
(0 0 0)
(0 0 0)
(0 0 0)
(0 0 0)
(0 0 0)