/*--------------------------------*- C++ -*----------------------------------*\
| =========                 |                                                 |
| \\      /  F ield         | OpenFOAM: The Open Source CFD Toolbox           |
|  \\    /   O peration     | Version:  v2106                                 |
|   \\  /    A nd           | Website:  www.openfoam.com                      |
|    \\/     M anipulation  |                                                 |
\*---------------------------------------------------------------------------*/
FoamFile
{
    version     2.0;
    format      ascii;
    arch        "LSB;label=32;scalar=64";
    class       volVectorField;
    location    "0";
    object      U;
}
// * * * * * * * * * * * * * * * * * * * * * * * * * * * * * * * * * * * * * //

dimensions      [0 1 -1 0 0 0 0];

internalField   nonuniform List<vector> 
11644
(
(0.340709 -7.79632e-05 1.9184e-24)
(0.340672 -0.000205607 5.29039e-24)
(0.340649 -0.000302612 2.83842e-24)
(0.340643 -0.000401683 0)
(0.340641 -0.000506198 0)
(0.340641 -0.000614659 0)
(0.34064 -0.000725333 0)
(0.340639 -0.000835251 0)
(0.340639 -0.000940731 0)
(0.340638 -0.0010368 0)
(0.340636 -0.00111757 0)
(0.340627 -0.00117728 0)
(0.340638 -0.00120429 0)
(0.340692 -0.00119935 0)
(0.340639 -0.00114383 0)
(0.340636 -0.00105942 0)
(0.34062 -0.000931017 0)
(0.340564 -0.000723684 0)
(0.340532 -0.00044982 0)
(0.340532 -0.000152553 1.14373e-30)
(0.340532 0.000140982 -1.14376e-30)
(0.340531 0.00043908 0)
(0.340562 0.000716115 0)
(0.340618 0.000925883 0)
(0.340636 0.0010548 0)
(0.340639 0.00113933 0)
(0.340694 0.00119645 0)
(0.34064 0.00120194 0)
(0.340627 0.00117582 0)
(0.340635 0.00111704 0)
(0.340638 0.00103667 0)
(0.340639 0.000941065 0)
(0.34064 0.000835711 0)
(0.34064 0.00072593 0)
(0.340641 0.000615291 0)
(0.340642 0.000506727 0)
(0.340643 0.000402121 0)
(0.340649 0.00030292 0)
(0.340672 0.000205737 0)
(0.340709 7.79765e-05 3.71959e-25)
(0.340976 -0.000158167 2.46418e-24)
(0.340949 -0.000478453 2.28262e-24)
(0.340931 -0.000802123 1.22592e-24)
(0.34093 -0.00112401 0)
(0.340938 -0.00144897 0)
(0.340947 -0.00178059 0)
(0.340954 -0.00211742 0)
(0.340955 -0.00245374 0)
(0.340947 -0.0027803 0)
(0.340926 -0.00308379 0)
(0.340887 -0.00334655 0)
(0.340834 -0.00354317 0)
(0.340731 -0.00365369 0)
(0.340537 -0.00365118 0)
(0.340467 -0.00350393 0)
(0.340297 -0.00320567 7.23251e-26)
(0.340091 -0.00273141 2.70173e-25)
(0.339918 -0.00210844 -4.87385e-24)
(0.339788 -0.0013472 -1.10889e-23)
(0.339729 -0.000485899 1.92011e-22)
(0.339727 0.000413954 -1.84071e-22)
(0.339783 0.00128204 1.29864e-23)
(0.339913 0.00205258 -5.15376e-24)
(0.340089 0.00268354 2.01214e-25)
(0.340297 0.00316488 -3.8459e-25)
(0.340466 0.00346943 0)
(0.340534 0.00362213 0)
(0.340728 0.00363193 0)
(0.340832 0.00352651 0)
(0.340886 0.0033339 0)
(0.340925 0.00307508 0)
(0.340947 0.00277422 0)
(0.340955 0.00244975 0)
(0.340954 0.00211478 0)
(0.340947 0.00177884 0)
(0.340938 0.00144781 0)
(0.34093 0.00112322 0)
(0.340931 0.000801594 0)
(0.340949 0.000478187 0)
(0.340976 0.000158091 0)
(0.341511 -0.000246089 0)
(0.341497 -0.00075598 0)
(0.341495 -0.00128504 0)
(0.34151 -0.00182417 0)
(0.341535 -0.0023733 2.25098e-24)
(0.341564 -0.00293567 0)
(0.341587 -0.00351025 0)
(0.341596 -0.00409057 0)
(0.34158 -0.00466367 0)
(0.341523 -0.00521005 0)
(0.341411 -0.00569778 0)
(0.341216 -0.00609433 0)
(0.340959 -0.00633903 3.39562e-25)
(0.340696 -0.00638378 -3.63856e-24)
(0.34016 -0.00618764 5.38811e-23)
(0.339667 -0.00570171 -1.88304e-23)
(0.339162 -0.00491501 -9.51074e-23)
(0.338643 -0.00382807 5.31271e-23)
(0.338238 -0.00247563 4.01732e-24)
(0.33801 -0.000910148 -8.27736e-23)
(0.338003 0.000733007 1.43727e-22)
(0.338219 0.00230775 -8.87378e-23)
(0.338619 0.00367414 -3.49378e-23)
(0.339141 0.00477888 2.51638e-23)
(0.33965 0.00558484 9.66587e-23)
(0.340144 0.00609006 -5.67052e-23)
(0.340681 0.00630603 4.14719e-24)
(0.340945 0.00627557 -4.55865e-25)
(0.341203 0.00604545 0)
(0.3414 0.00566083 0)
(0.341515 0.00518205 0)
(0.341574 0.00464336 0)
(0.341592 0.00407591 0)
(0.341584 0.00349992 0)
(0.341562 0.00292848 0)
(0.341534 0.0023684 0)
(0.341509 0.00182096 0)
(0.341495 0.0012831 0)
(0.341496 0.000754897 0)
(0.34151 0.000245789 0)
(0.342318 -0.000342173 0)
(0.342315 -0.00103598 0)
(0.342334 -0.00175544 0)
(0.342374 -0.00249598 0)
(0.342431 -0.00326213 0)
(0.342493 -0.00405731 0)
(0.342548 -0.00488123 0)
(0.342579 -0.00572819 0)
(0.342563 -0.00658484 0)
(0.342472 -0.00742565 0)
(0.342274 -0.00821455 -2.41667e-25)
(0.341944 -0.00888762 1.17928e-23)
(0.34141 -0.00938147 -2.58236e-23)
(0.340545 -0.00962841 4.98876e-24)
(0.339759 -0.00942661 -4.55171e-24)
(0.338678 -0.00879099 1.28944e-22)
(0.337518 -0.00763623 -2.27846e-22)
(0.336424 -0.0059872 1.63809e-22)
(0.335575 -0.00385771 -1.24083e-23)
(0.335116 -0.00142595 7.12984e-24)
(0.335103 0.00111117 -8.39608e-23)
(0.33554 0.00355692 -9.8543e-23)
(0.33638 0.00570675 2.05174e-23)
(0.337468 0.00738008 1.6822e-22)
(0.338627 0.0085691 -5.39857e-23)
(0.33971 0.00924074 -1.5922e-23)
(0.3405 0.00947486 1.00463e-23)
(0.341371 0.00926288 1.07193e-23)
(0.341911 0.00879567 -3.53955e-24)
(0.342245 0.00814555 3.36562e-25)
(0.342449 0.00737498 0)
(0.342545 0.0065477 0)
(0.342565 0.00570163 0)
(0.342538 0.00486248 0)
(0.342486 0.00404438 0)
(0.342426 0.00325348 0)
(0.342371 0.00249038 0)
(0.342331 0.00175207 0)
(0.342313 0.00103432 0)
(0.342316 0.000341603 0)
(0.343373 -0.000425432 0)
(0.343385 -0.00129773 0)
(0.343434 -0.00219382 0)
(0.343515 -0.00312312 0)
(0.343622 -0.00409667 0)
(0.34374 -0.00512259 0)
(0.343851 -0.0062046 0)
(0.343931 -0.00734198 0)
(0.343944 -0.00852546 0)
(0.343842 -0.00973435 1.64068e-24)
(0.343571 -0.0109257 5.47863e-24)
(0.34304 -0.0120395 -8.83934e-23)
(0.342208 -0.0129413 -2.66354e-23)
(0.341214 -0.0134341 6.70404e-23)
(0.339412 -0.0135268 4.18976e-22)
(0.337516 -0.0128469 -5.16497e-22)
(0.335543 -0.0114658 2.9918e-22)
(0.333389 -0.00923635 -3.0216e-22)
(0.33167 -0.00609692 4.15704e-22)
(0.330649 -0.0022783 -1.89229e-22)
(0.330623 0.00180305 2.60045e-22)
(0.331603 0.00564031 -6.04605e-22)
(0.333298 0.00880957 4.20057e-22)
(0.335435 0.011078 -2.40882e-22)
(0.337397 0.0125067 4.65677e-22)
(0.339296 0.0132426 -4.30795e-22)
(0.341105 0.0132085 -7.89803e-23)
(0.342116 0.0127621 9.13673e-23)
(0.342963 0.0119055 3.51606e-23)
(0.34351 0.0108271 -6.99552e-25)
(0.343794 0.00966347 -1.02745e-24)
(0.343905 0.00847497 0)
(0.343902 0.00730657 0)
(0.343829 0.00618048 0)
(0.343723 0.00510668 0)
(0.34361 0.00408662 0)
(0.343507 0.00311716 0)
(0.343428 0.0021905 0)
(0.34338 0.00129612 0)
(0.343369 0.000425049 0)
(0.344643 -0.000510072 0)
(0.344677 -0.00153248 0)
(0.344769 -0.00258755 0)
(0.344911 -0.00368649 0)
(0.345093 -0.00485012 0)
(0.3453 -0.00609512 0)
(0.34551 -0.00743491 0)
(0.345689 -0.00887855 0)
(0.34579 -0.0104279 2.78714e-25)
(0.345749 -0.0120713 4.17776e-23)
(0.345473 -0.0137776 -1.9935e-23)
(0.344872 -0.015457 -2.40668e-23)
(0.343783 -0.0170127 1.03151e-22)
(0.341725 -0.0184764 -1.04835e-22)
(0.339483 -0.0188447 9.0439e-23)
(0.336257 -0.018356 -3.60725e-22)
(0.332478 -0.0169663 1.39957e-22)
(0.328643 -0.0139322 3.84073e-22)
(0.3255 -0.00912013 -6.84035e-22)
(0.32371 -0.0033563 5.4523e-22)
(0.323675 0.0027472 -7.27211e-23)
(0.325407 0.00853058 -1.75341e-22)
(0.328504 0.0133705 2.43641e-23)
(0.332291 0.0164479 4.0255e-23)
(0.33606 0.0179051 2.35012e-22)
(0.339282 0.0184661 -1.42434e-22)
(0.34153 0.0181645 1.00085e-22)
(0.34361 0.0167796 -1.70651e-22)
(0.344726 0.015287 6.46345e-23)
(0.345361 0.0136599 -1.06757e-23)
(0.345664 0.0119923 -4.16759e-24)
(0.345725 0.0103762 1.18633e-24)
(0.345639 0.00884494 0)
(0.345473 0.0074141 0)
(0.345273 0.00608336 0)
(0.345073 0.00484443 0)
(0.344897 0.00368448 0)
(0.344759 0.00258758 0)
(0.344671 0.00153291 0)
(0.344638 0.000510353 0)
(0.346093 -0.000561583 0)
(0.346156 -0.00171378 0)
(0.346305 -0.00289883 0)
(0.34653 -0.00414335 0)
(0.346821 -0.0054742 0)
(0.347161 -0.00691783 0)
(0.347526 -0.0085004 0)
(0.347878 -0.0102475 -3.7031e-25)
(0.348164 -0.0121804 -7.65754e-24)
(0.348294 -0.0143193 1.72175e-23)
(0.348153 -0.0166576 -4.79964e-23)
(0.34755 -0.0191901 9.52469e-23)
(0.346262 -0.0218556 -1.93778e-23)
(0.344552 -0.0239287 2.19833e-23)
(0.340503 -0.0261536 -6.50053e-25)
(0.335556 -0.0266303 -8.56203e-23)
(0.331451 -0.0229649 -4.16903e-22)
(0.325856 -0.0198969 2.33575e-23)
(0.320541 -0.0140939 -5.78892e-22)
(0.317011 -0.00607607 8.67264e-22)
(0.316413 0.00296158 3.86258e-22)
(0.318809 0.011234 -3.20283e-22)
(0.323226 0.0175861 -1.96435e-22)
(0.328561 0.0214722 -3.24204e-22)
(0.335253 0.0260949 1.03529e-23)
(0.340189 0.0256985 -6.7653e-23)
(0.34424 0.0235719 -2.89356e-24)
(0.345984 0.0215787 -1.62779e-22)
(0.347312 0.0189991 1.30562e-22)
(0.347963 0.0165359 -4.43444e-23)
(0.348156 0.0142485 3.68642e-23)
(0.348066 0.0121427 1.0591e-23)
(0.347807 0.0102299 -3.45401e-25)
(0.347474 0.00849424 0)
(0.347123 0.00691863 0)
(0.346795 0.00547861 0)
(0.346513 0.0041489 0)
(0.346294 0.00290363 0)
(0.34615 0.00171738 0)
(0.346089 0.000562454 0)
(0.347674 -0.00061357 0)
(0.347772 -0.00183973 0)
(0.347991 -0.00311369 0)
(0.348324 -0.00445991 0)
(0.348759 -0.0059146 0)
(0.349284 -0.00751461 0)
(0.349874 -0.0093006 0)
(0.350494 -0.0113153 5.19599e-25)
(0.351089 -0.013618 -1.30873e-23)
(0.351565 -0.0162681 -1.83725e-24)
(0.351783 -0.019314 -1.86419e-23)
(0.351542 -0.022733 6.44756e-23)
(0.350608 -0.0263734 -7.86482e-23)
(0.347085 -0.0294354 -1.59714e-22)
(0.343889 -0.0315745 -9.95584e-23)
(0.338342 -0.0339912 2.23848e-22)
(0.329502 -0.0345772 -2.54381e-22)
(0.319772 -0.0313903 -8.13824e-23)
(0.309594 -0.0238795 -1.46562e-22)
(0.302216 -0.0112907 9.21346e-23)
(0.300612 0.00411912 5.07116e-22)
(0.305468 0.0182547 2.09301e-22)
(0.314478 0.0280332 -1.36271e-22)
(0.324591 0.0328086 -2.06469e-22)
(0.333657 0.0341592 -5.22134e-23)
(0.340915 0.0322138 4.23124e-23)
(0.345511 0.0292443 -1.19766e-22)
(0.350205 0.0260823 -1.00985e-22)
(0.351193 0.0225369 1.19167e-22)
(0.3515 0.0192006 -5.99447e-23)
(0.351357 0.0162216 1.72527e-23)
(0.350947 0.0136141 -1.54068e-25)
(0.350402 0.0113317 9.08248e-25)
(0.349811 0.00932414 0)
(0.349241 0.00753988 0)
(0.348732 0.00593907 0)
(0.348308 0.0044815 0)
(0.347984 0.00313083 0)
(0.347771 0.00185032 0)
(0.347675 0.000618278 0)
(0.349328 -0.000614597 0)
(0.349468 -0.00188261 0)
(0.349771 -0.00319256 0)
(0.350233 -0.00458767 0)
(0.350847 -0.00610846 0)
(0.351605 -0.00780083 0)
(0.352491 -0.00971767 4.92921e-25)
(0.353484 -0.0119281 -4.29687e-24)
(0.354541 -0.0145264 2.30956e-24)
(0.355573 -0.0176124 2.27018e-23)
(0.356445 -0.0213069 -2.909e-23)
(0.356955 -0.0257425 -7.63574e-23)
(0.356676 -0.0314277 8.09462e-23)
(0.35289 -0.0361345 -9.07546e-23)
(0.349356 -0.0408038 1.14674e-22)
(0.342681 -0.0466467 -1.23254e-23)
(0.332142 -0.048826 1.17939e-22)
(0.316121 -0.0490931 -1.45941e-22)
(0.297491 -0.0411853 2.57698e-22)
(0.281277 -0.0224347 4.10469e-22)
(0.276086 0.00455145 1.51006e-22)
(0.284966 0.0291031 -6.35985e-22)
(0.302045 0.0439086 -5.88505e-23)
(0.320429 0.0491118 1.23872e-22)
(0.334635 0.0472326 -2.57551e-22)
(0.345774 0.043179 4.89842e-23)
(0.350989 0.0370202 -3.97064e-23)
(0.356133 0.0311463 -6.62792e-23)
(0.356476 0.0255646 1.21926e-22)
(0.356053 0.0212208 -3.73779e-23)
(0.355285 0.0176044 1.28969e-24)
(0.354349 0.0145697 3.29604e-24)
(0.353373 0.0119936 -1.86403e-23)
(0.352426 0.009784 1.30318e-24)
(0.351565 0.00786029 0)
(0.350826 0.00615865 0)
(0.350226 0.00462722 0)
(0.349774 0.00322073 0)
(0.349478 0.00189949 0)
(0.349341 0.000618303 0)
(0.350984 -0.000619145 0)
(0.35117 -0.00184678 0)
(0.351567 -0.00313202 0)
(0.352173 -0.00450304 0)
(0.352992 -0.00600785 0)
(0.354023 -0.00769871 0)
(0.355266 -0.00963767 -1.7939e-24)
(0.356728 -0.0119137 1.86208e-25)
(0.358394 -0.014652 1.0087e-23)
(0.360208 -0.0179946 4.79067e-24)
(0.36207 -0.0220997 -3.6291e-23)
(0.363859 -0.0272501 2.54284e-23)
(0.365339 -0.0342055 8.9197e-24)
(0.36303 -0.0411567 -3.42301e-23)
(0.360658 -0.0492108 4.68845e-23)
(0.35282 -0.0599671 -1.17685e-23)
(0.340664 -0.0691784 -1.11134e-23)
(0.318855 -0.0791578 -8.23907e-23)
(0.283316 -0.0792643 2.70677e-22)
(0.24135 -0.0527906 1.27918e-22)
(0.222565 0.00359485 -2.31143e-24)
(0.245875 0.0572711 2.85064e-23)
(0.288163 0.0796776 -1.29527e-22)
(0.321977 0.0774327 6.9112e-23)
(0.344477 0.0670272 -9.21948e-23)
(0.357611 0.0549306 -1.58647e-22)
(0.361288 0.0432957 -3.02511e-23)
(0.364648 0.0339559 7.83438e-24)
(0.363246 0.0271176 -4.57097e-23)
(0.361562 0.0220644 2.72489e-23)
(0.359832 0.0180391 8.65084e-24)
(0.358149 0.0147522 9.79635e-24)
(0.3566 0.0120391 -1.20885e-23)
(0.355212 0.00975717 6.57973e-25)
(0.354 0.00780067 0)
(0.352989 0.00609118 0)
(0.352186 0.00456794 0)
(0.35159 0.00317869 0)
(0.3512 0.00187552 0)
(0.351018 0.000631422 0)
(0.352563 -0.000553245 0)
(0.352798 -0.00170981 0)
(0.353288 -0.00289764 0)
(0.354046 -0.00417125 0)
(0.355079 -0.00557179 0)
(0.356401 -0.0071511 0)
(0.358033 -0.00897098 -4.57131e-25)
(0.360026 -0.0111314 -2.2297e-24)
(0.362401 -0.0137584 3.40808e-24)
(0.365163 -0.0170133 5.95082e-24)
(0.368322 -0.0211055 -1.58248e-23)
(0.371871 -0.0262817 1.15572e-23)
(0.375665 -0.0327583 -1.74005e-23)
(0.376392 -0.0419358 5.45844e-23)
(0.377744 -0.0531867 2.36667e-23)
(0.375914 -0.0693127 -3.1764e-23)
(0.368378 -0.090971 -1.11929e-23)
(0.348812 -0.125021 1.29482e-23)
(0.291614 -0.163998 -4.54785e-22)
(0.162752 -0.159058 -1.68286e-20)
(0.0640597 0.00626232 -1.94343e-21)
(0.172243 0.162583 -8.22003e-21)
(0.296698 0.160922 4.72435e-22)
(0.3521 0.119267 -6.07666e-24)
(0.371597 0.0853664 -6.04452e-24)
(0.377756 0.0606126 -1.05722e-23)
(0.375845 0.0463149 1.75059e-24)
(0.374837 0.0325894 5.06273e-24)
(0.371122 0.0262247 -1.58329e-23)
(0.367703 0.0211426 8.07163e-24)
(0.364703 0.0171266 -9.88808e-24)
(0.362105 0.013924 6.72856e-24)
(0.359886 0.0113196 -1.5346e-24)
(0.358002 0.00914834 1.41186e-24)
(0.356411 0.00729916 0)
(0.355108 0.00568944 0)
(0.354089 0.00426055 0)
(0.353342 0.00296009 0)
(0.352858 0.00174569 0)
(0.352626 0.000562079 0)
(0.353996 -0.000507918 0)
(0.354277 -0.00149086 0)
(0.354866 -0.00251774 0)
(0.355764 -0.00360965 0)
(0.356993 -0.00480684 0)
(0.358583 -0.00614998 0)
(0.360589 -0.00769299 -1.21077e-25)
(0.363097 -0.00951932 8.34116e-25)
(0.366167 -0.0117217 7.59439e-25)
(0.369875 -0.0144296 4.70574e-25)
(0.37436 -0.0178192 4.83711e-24)
(0.379757 -0.0220581 8.59072e-24)
(0.386257 -0.0272494 -1.6399e-23)
(0.389654 -0.0364966 -1.70167e-23)
(0.397833 -0.0469245 1.69851e-23)
(0.404674 -0.0644528 -2.61817e-23)
(0.414235 -0.0905534 1.32107e-23)
(0.429734 -0.138838 4.51899e-22)
(0.324031 -0.174593 -3.17608e-20)
(0.368173 0.19238 1.15627e-20)
(0.429996 0.130045 9.18977e-24)
(0.413432 0.0810976 1.27844e-23)
(0.40219 0.0534293 5.38629e-25)
(0.392169 0.0409429 2.01386e-24)
(0.385283 0.0272122 1.9375e-24)
(0.378884 0.0221106 -8.87726e-25)
(0.373635 0.0179533 -6.80899e-25)
(0.369342 0.0146257 -3.48828e-25)
(0.365831 0.0119575 -1.1409e-24)
(0.362957 0.00976964 -8.2077e-25)
(0.360595 0.00792536 -1.06558e-25)
(0.358643 0.00634151 0)
(0.35707 0.00495602 0)
(0.355851 0.00372148 0)
(0.354961 0.00259569 0)
(0.354377 0.00153806 0)
(0.354098 0.000526551 0)
(0.35519 -0.000376642 0)
(0.355521 -0.00117621 0)
(0.356181 -0.00198195 0)
(0.357189 -0.00283064 0)
(0.358578 -0.00374466 0)
(0.360386 -0.00474757 0)
(0.36269 -0.00586903 8.64931e-26)
(0.365611 -0.0071591 -1.95372e-24)
(0.369228 -0.00865327 -1.41363e-24)
(0.373652 -0.0104103 9.59377e-24)
(0.379071 -0.0125124 -7.48584e-24)
(0.385753 -0.0150034 3.11881e-23)
(0.39404 -0.0177058 -2.68269e-23)
(0.400567 -0.0248525 -8.99903e-25)
(0.413568 -0.0307248 1.68538e-22)
(0.42747 -0.0422306 -3.0942e-23)
(0.450009 -0.0565777 -4.07452e-24)
(0.485439 -0.0712368 7.36699e-22)
(0.00514187 0.000896289 1.23142e-19)
(0.0185284 -0.00240481 -5.88824e-20)
(0.483282 0.0703414 -1.0395e-22)
(0.444722 0.0506761 8.43044e-24)
(0.420801 0.0343914 2.5252e-23)
(0.405298 0.0275065 5.81152e-23)
(0.392944 0.0178612 2.39445e-23)
(0.384781 0.0152256 -4.31869e-25)
(0.378282 0.0127822 -7.08508e-24)
(0.37307 0.010709 -1.94927e-24)
(0.368873 0.0089638 1.23437e-24)
(0.365483 0.00746697 1.79466e-24)
(0.362747 0.00614745 7.38658e-25)
(0.360515 0.00497432 0)
(0.358718 0.00391953 0)
(0.357334 0.00296098 0)
(0.356327 0.00207201 0)
(0.355668 0.00122865 0)
(0.355337 0.000392281 0)
(0.356169 -0.000273579 -4.54712e-26)
(0.35651 -0.000802813 0)
(0.357212 -0.00134891 0)
(0.358285 -0.00190365 0)
(0.35976 -0.002474 0)
(0.361681 -0.00306439 0)
(0.364147 -0.00366945 -1.06143e-24)
(0.367286 -0.00429079 2.80313e-24)
(0.371152 -0.00492254 9.77642e-24)
(0.375887 -0.00554052 -4.75257e-23)
(0.381695 -0.00608424 4.38819e-23)
(0.388811 -0.00649094 9.4381e-23)
(0.397547 -0.00621186 -9.63627e-23)
(0.405802 -0.00998189 1.1703e-22)
(0.419521 -0.0106208 -1.42488e-22)
(0.435341 -0.0142793 -7.91125e-23)
(0.458101 -0.0163404 9.22124e-23)
(0.454948 -0.00842652 -2.09363e-23)
(0.0417876 -0.00170784 -1.09015e-21)
(0.063872 -0.00149934 3.81784e-21)
(0.467187 0.010261 -1.15719e-22)
(0.451644 0.0138488 -1.4289e-23)
(0.426542 0.0109195 -1.47368e-22)
(0.410767 0.0106732 -4.03242e-24)
(0.396357 0.00666298 1.07572e-22)
(0.387812 0.0069407 -7.23448e-23)
(0.380895 0.00652451 -3.67726e-23)
(0.375315 0.00595757 -6.14366e-24)
(0.370818 0.00530995 -4.27601e-24)
(0.3672 0.00464383 1.07825e-24)
(0.364273 0.00397707 -6.3695e-25)
(0.361888 0.0033108 0)
(0.359971 0.00266252 0)
(0.358492 0.00204269 0)
(0.357414 0.00144345 0)
(0.356707 0.000857279 0)
(0.356363 0.000291191 0)
(0.356845 -0.000119791 6.71813e-27)
(0.35719 -0.000387478 0)
(0.357884 -0.000656744 0)
(0.358953 -0.000907482 0)
(0.360428 -0.00112236 0)
(0.362354 -0.00128019 0)
(0.364815 -0.00133518 3.93047e-25)
(0.367917 -0.00127107 -3.40888e-24)
(0.37172 -0.00103604 8.40542e-24)
(0.376319 -0.000520947 -3.91982e-24)
(0.381815 0.000435512 1.00377e-22)
(0.388327 0.00187649 -1.77029e-22)
(0.395997 0.00430597 9.7782e-23)
(0.404357 0.00437941 -1.53468e-22)
(0.416093 0.00781577 -9.02409e-23)
(0.430388 0.0111679 -1.89513e-23)
(0.449644 0.0178182 -1.26227e-22)
(0.423704 0.0343828 1.1853e-22)
(0.108749 0.0125748 -1.72663e-23)
(-0.00819336 -0.0302133 -2.30825e-22)
(-0.0489647 -0.00540247 3.73391e-24)
(-0.00236644 0.0185748 -5.05826e-23)
(0.141441 -0.0266775 -5.62386e-23)
(0.437744 -0.0336767 -1.95559e-23)
(0.442455 -0.0175805 -1.19455e-22)
(0.421203 -0.00992503 -5.13362e-23)
(0.408274 -0.00479892 -8.68898e-23)
(0.394822 -0.00342741 8.31957e-23)
(0.387387 -0.00112695 -6.42531e-23)
(0.381103 0.000213542 -1.07533e-23)
(0.375828 0.00106611 5.32245e-24)
(0.371466 0.00149036 1.53613e-23)
(0.367907 0.00165195 -2.97435e-24)
(0.365029 0.0016471 -8.00896e-25)
(0.36265 0.00152222 0)
(0.360719 0.00130615 0)
(0.359229 0.00104246 0)
(0.358148 0.000748996 0)
(0.357446 0.000441762 0)
(0.357099 0.000139717 0)
(0.357159 -9.51899e-06 8.64229e-24)
(0.357492 -1.69104e-05 0)
(0.358157 6.61471e-06 0)
(0.359173 5.80806e-05 0)
(0.360569 0.000186558 0)
(0.362373 0.000424278 0)
(0.364643 0.000832989 -8.48876e-26)
(0.367477 0.00146252 -4.34103e-24)
(0.370897 0.0024155 -1.00888e-23)
(0.374891 0.0038131 2.23929e-23)
(0.379507 0.00578784 1.36993e-24)
(0.384776 0.00838324 4.07405e-23)
(0.390655 0.0123142 -7.92934e-23)
(0.397999 0.0151073 1.29449e-24)
(0.406264 0.0213454 -3.72941e-23)
(0.415886 0.0319373 7.73733e-23)
(0.427491 0.0439616 -9.40976e-23)
(0.377165 0.0714214 -5.73906e-22)
(0.175262 0.0682744 -2.57301e-22)
(0.0123217 0.0303824 3.19527e-21)
(-0.0414615 -0.0128902 -2.82598e-23)
(0.0316558 -0.0520592 1.37851e-22)
(0.218613 -0.0813226 -5.61161e-22)
(0.400148 -0.0637772 8.84153e-23)
(0.421749 -0.0384512 2.19996e-22)
(0.408784 -0.0244286 1.57777e-22)
(0.400415 -0.0155904 -1.87541e-22)
(0.38974 -0.0109365 1.13491e-22)
(0.38409 -0.00732222 -1.76634e-22)
(0.379011 -0.00496222 -2.5658e-23)
(0.374582 -0.00318147 3.04954e-24)
(0.37079 -0.0019307 -7.26906e-24)
(0.367594 -0.00109224 1.23746e-24)
(0.364964 -0.000552696 -7.39811e-27)
(0.362758 -0.000215169 0)
(0.360935 -3.05293e-05 0)
(0.359512 5.40174e-05 0)
(0.358477 6.88521e-05 0)
(0.3578 5.94021e-05 0)
(0.357459 2.2387e-05 8.20193e-24)
(0.357111 8.52522e-05 1.40384e-23)
(0.357424 0.000293544 0)
(0.358028 0.000552254 0)
(0.358943 0.000859319 0)
(0.360188 0.00126614 0)
(0.361773 0.00180963 0)
(0.363737 0.00256272 0)
(0.36613 0.0036048 -7.77562e-25)
(0.368951 0.0049998 -2.11311e-24)
(0.37217 0.00684567 2.3249e-23)
(0.375712 0.00934501 5.36525e-24)
(0.379541 0.0125113 -5.78035e-23)
(0.383576 0.0169577 1.36584e-22)
(0.387564 0.022991 -8.6262e-23)
(0.393309 0.0297574 -3.77307e-23)
(0.397672 0.0396353 -2.01652e-22)
(0.399636 0.0540634 -2.25418e-22)
(0.336886 0.0806091 -3.74008e-21)
(0.200716 0.0920589 -7.21087e-23)
(0.0822949 0.0560741 -2.04109e-21)
(0.0418981 -0.00694017 -1.26079e-21)
(0.0909913 -0.0665927 8.7798e-22)
(0.218202 -0.0903727 2.62825e-22)
(0.354089 -0.068437 -1.94335e-21)
(0.395742 -0.0422931 1.76688e-23)
(0.394229 -0.0305726 -1.93799e-22)
(0.38704 -0.0204742 -4.84296e-23)
(0.383272 -0.0152016 1.20397e-24)
(0.379336 -0.0112416 -2.62118e-23)
(0.375582 -0.00843706 1.11504e-24)
(0.372138 -0.00620907 -1.85178e-23)
(0.369048 -0.00455991 5.87456e-24)
(0.366401 -0.00330661 1.12429e-24)
(0.364166 -0.00236225 0)
(0.362236 -0.00167027 0)
(0.360613 -0.00116721 0)
(0.359329 -0.000792653 0)
(0.358386 -0.00051018 0)
(0.357763 -0.00027146 0)
(0.357436 -8.01959e-05 -1.47869e-23)
(0.356743 0.000173104 7.98616e-25)
(0.357022 0.000545838 0)
(0.357547 0.000972354 0)
(0.358334 0.0014596 0)
(0.359392 0.00205499 0)
(0.360714 0.00279486 0)
(0.362313 0.00374275 0)
(0.364225 0.00496874 0)
(0.366418 0.0065458 -3.67189e-25)
(0.368828 0.0085424 -5.14048e-24)
(0.371356 0.0111605 -1.91997e-24)
(0.373865 0.0143639 -1.32964e-23)
(0.37623 0.0186562 7.19297e-23)
(0.378019 0.0241953 -7.03913e-23)
(0.381058 0.0308194 -1.07306e-23)
(0.381307 0.039294 -1.56022e-22)
(0.374229 0.0515515 1.8672e-22)
(0.303694 0.0738034 1.46781e-22)
(0.215061 0.0785694 3.5719e-22)
(0.147609 0.0515004 -1.3143e-24)
(0.124064 0.00365665 8.91581e-22)
(0.149103 -0.0433188 -5.93885e-22)
(0.220233 -0.0676619 -4.03911e-23)
(0.317818 -0.0594287 4.53845e-21)
(0.378626 -0.0385842 7.8582e-23)
(0.382012 -0.0301731 -5.05494e-23)
(0.378832 -0.0215308 -2.24179e-23)
(0.376837 -0.0169034 1.33664e-23)
(0.374304 -0.0131638 6.93391e-24)
(0.371685 -0.0103701 -5.44075e-24)
(0.369131 -0.00804009 4.93348e-25)
(0.366761 -0.00624927 -1.59045e-24)
(0.364661 -0.00481326 0)
(0.362835 -0.00366889 0)
(0.36123 -0.00275705 0)
(0.359852 -0.00203571 0)
(0.358744 -0.00145244 3.55328e-24)
(0.35792 -0.000970815 4.91395e-24)
(0.357371 -0.000545807 2.93024e-24)
(0.357077 -0.000173243 0)
(0.356149 0.000232949 0)
(0.35638 0.00071884 0)
(0.356822 0.00124704 0)
(0.35748 0.00183635 0)
(0.35835 0.00252729 0)
(0.359413 0.00335203 0)
(0.360662 0.00435953 0)
(0.362129 0.00560723 0)
(0.363774 0.00716609 -1.11351e-27)
(0.365508 0.00907209 8.59505e-25)
(0.367199 0.0115003 -5.2374e-24)
(0.368708 0.0143344 -1.58247e-23)
(0.369767 0.0180254 -9.79924e-24)
(0.370002 0.022539 -5.60727e-23)
(0.370935 0.0280758 3.80502e-22)
(0.368682 0.0345002 -1.41005e-22)
(0.350714 0.0457427 -3.42542e-22)
(0.286771 0.0602662 -1.89036e-22)
(0.23047 0.0569162 -2.01968e-22)
(0.191454 0.0376272 1.11985e-21)
(0.179209 0.00845904 -8.72177e-23)
(0.193026 -0.0217103 -1.44176e-22)
(0.236418 -0.0433535 -1.7211e-22)
(0.299043 -0.0480793 1.40694e-22)
(0.36537 -0.0333329 -6.92269e-23)
(0.373519 -0.0271112 5.6304e-23)
(0.372235 -0.0206431 -5.20864e-23)
(0.37133 -0.0168407 3.54646e-23)
(0.369789 -0.0136043 -3.07835e-23)
(0.367975 -0.0110926 -3.99847e-24)
(0.366122 -0.00888215 -2.34666e-25)
(0.364331 -0.00712711 -4.98784e-28)
(0.362692 -0.00566056 0)
(0.361238 -0.00445047 0)
(0.359943 -0.00343907 0)
(0.358809 -0.00260155 0)
(0.357884 -0.00189537 0)
(0.357187 -0.00128886 0)
(0.35672 -0.000742697 0)
(0.356474 -0.000240334 -5.2774e-25)
(0.355425 0.000262915 0)
(0.355614 0.000804733 0)
(0.355977 0.00137849 0)
(0.356519 0.00200432 0)
(0.357227 0.00271519 0)
(0.358074 0.00353683 0)
(0.359035 0.00450541 0)
(0.36014 0.00566105 0)
(0.361364 0.0070611 0)
(0.362611 0.00870375 0)
(0.36373 0.0107315 3.16898e-25)
(0.364558 0.0129604 3.37804e-24)
(0.364781 0.0158097 -2.80627e-24)
(0.36393 0.0192255 8.10864e-24)
(0.363485 0.0235073 1.16109e-21)
(0.358342 0.0283418 1.56555e-23)
(0.329481 0.0395372 7.6296e-22)
(0.28355 0.0453267 2.7956e-22)
(0.245347 0.0398261 -3.74026e-22)
(0.219611 0.0259945 7.23634e-22)
(0.213249 0.00739434 6.30672e-22)
(0.22447 -0.0125791 9.73825e-22)
(0.255384 -0.0294174 -3.0366e-22)
(0.297058 -0.0377631 -1.05806e-22)
(0.3513 -0.0305799 6.61828e-22)
(0.367734 -0.0238536 9.87439e-23)
(0.367178 -0.0189178 -1.25734e-24)
(0.36698 -0.0157555 7.15598e-24)
(0.366042 -0.013081 4.40427e-24)
(0.364775 -0.0109456 5.62891e-25)
(0.363403 -0.00897862 0)
(0.362028 -0.00736688 0)
(0.360744 -0.00596799 0)
(0.359596 -0.00478109 0)
(0.358563 -0.00375812 0)
(0.357644 -0.00288634 0)
(0.356882 -0.00213013 0)
(0.356305 -0.001464 0)
(0.355919 -0.000853705 0)
(0.355719 -0.000278258 0)
(0.354653 0.000268378 0)
(0.354809 0.000819077 0)
(0.35511 0.00139412 0)
(0.35556 0.00200908 0)
(0.356148 0.00268651 0)
(0.356837 0.00344429 0)
(0.357593 0.0043097 0)
(0.358445 0.00530307 0)
(0.35939 0.00646201 0)
(0.360337 0.00775371 0)
(0.361136 0.0092854 0)
(0.361618 0.0108495 2.21872e-25)
(0.361427 0.0127813 3.83451e-24)
(0.360062 0.0151935 1.01236e-24)
(0.357873 0.0182335 3.91005e-22)
(0.347223 0.0224573 -4.46598e-22)
(0.316819 0.0314052 2.90184e-22)
(0.285918 0.0312859 1.52309e-24)
(0.257707 0.0250761 -2.05331e-22)
(0.23922 0.0145368 -1.65402e-22)
(0.235985 0.00225912 -2.43368e-22)
(0.246969 -0.0109201 9.35167e-22)
(0.271609 -0.0228026 1.1842e-22)
(0.301928 -0.0300565 1.89593e-22)
(0.338838 -0.0286604 -1.80516e-23)
(0.362402 -0.0210443 -1.69648e-22)
(0.363445 -0.0169583 -4.80892e-23)
(0.363621 -0.0141662 -2.12141e-24)
(0.363054 -0.012012 2.56238e-25)
(0.362125 -0.0102273 0)
(0.361069 -0.00854739 0)
(0.359988 -0.00712931 0)
(0.358965 -0.00585966 0)
(0.35805 -0.00475803 0)
(0.357222 -0.00378744 0)
(0.356474 -0.00294318 0)
(0.355847 -0.00219283 0)
(0.35537 -0.00151694 0)
(0.355054 -0.000888773 0)
(0.354892 -0.000290183 0)
(0.353895 0.000258697 0)
(0.354028 0.000786135 0)
(0.354287 0.00132907 0)
(0.354676 0.00189925 0)
(0.355181 0.00251162 0)
(0.355769 0.00317335 0)
(0.356399 0.00390256 0)
(0.357103 0.00470278 0)
(0.357902 0.00559399 0)
(0.358719 0.00652747 0)
(0.359424 0.00756885 7.55562e-24)
(0.359857 0.00852522 0)
(0.359602 0.00964855 0)
(0.357764 0.0113459 1.06867e-22)
(0.351731 0.0125758 3.62259e-22)
(0.33618 0.0179891 6.91891e-22)
(0.311472 0.0198726 2.23032e-23)
(0.289257 0.0150621 1.81891e-23)
(0.266982 0.00789517 3.54111e-23)
(0.253544 0.000460101 2.21075e-21)
(0.252782 -0.00563766 9.10074e-23)
(0.264988 -0.0125978 -5.2738e-22)
(0.28713 -0.0192589 7.66974e-24)
(0.310769 -0.0241073 -6.14262e-24)
(0.332086 -0.0254292 3.95039e-24)
(0.355926 -0.0173098 7.15091e-22)
(0.360275 -0.0149742 1.65672e-22)
(0.361042 -0.0123913 0)
(0.36072 -0.0106227 0)
(0.359984 -0.00914836 5.66805e-24)
(0.359127 -0.00775419 0)
(0.358246 -0.00654608 0)
(0.35741 -0.005443 0)
(0.356668 -0.00447038 0)
(0.355995 -0.00359739 0)
(0.355378 -0.00282313 0)
(0.354855 -0.00211929 0)
(0.354456 -0.00147446 -5.84807e-25)
(0.354192 -0.000868213 -4.19547e-25)
(0.35406 -0.000284638 0)
(0.353187 0.000238406 0)
(0.353307 0.000721999 0)
(0.353541 0.00121345 0)
(0.353893 0.00172173 0)
(0.354353 0.00225248 0)
(0.354887 0.00280671 0)
(0.355457 0.00339373 0)
(0.356103 0.00400415 0)
(0.356869 0.00464362 0)
(0.357695 0.0052623 0)
(0.35848 0.0058786 3.54539e-23)
(0.359075 0.00629985 0)
(0.358955 0.00663969 0)
(0.356335 0.00770229 -4.58203e-22)
(0.347582 0.0076916 -3.33153e-21)
(0.329269 0.00941415 -2.07328e-22)
(0.313265 0.00576853 0)
(0.293867 0.00158922 -1.2582e-22)
(0.274172 -0.00362666 9.16349e-22)
(0.262622 -0.00637228 2.3431e-21)
(0.264042 -0.0118863 1.57606e-22)
(0.277446 -0.0133181 1.09242e-21)
(0.298135 -0.0162136 -1.11804e-22)
(0.317787 -0.0174165 0)
(0.333333 -0.0181252 -2.52321e-22)
(0.34988 -0.0143941 -1.26643e-21)
(0.35716 -0.0126141 -3.85732e-22)
(0.359016 -0.0102732 0)
(0.358929 -0.00896537 0)
(0.358305 -0.00782431 4.07823e-23)
(0.357567 -0.00671433 0)
(0.356813 -0.0057233 0)
(0.356104 -0.00480865 0)
(0.355484 -0.00399131 0)
(0.354923 -0.00324512 0)
(0.3544 -0.00257107 1.058e-24)
(0.353953 -0.00194539 -1.37485e-24)
(0.35361 -0.00136102 0)
(0.353385 -0.000805448 0)
(0.353275 -0.000265213 -3.23085e-24)
(0.352553 0.000211991 0)
(0.352664 0.00064091 0)
(0.352886 0.00107057 0)
(0.353222 0.00150864 0)
(0.353664 0.00195544 0)
(0.354181 0.0024071 0)
(0.354743 0.00286641 -5.20226e-25)
(0.355396 0.00331625 0)
(0.356207 0.00375098 0)
(0.357138 0.00412966 0)
(0.358112 0.0044392 0)
(0.359001 0.00451075 0)
(0.359028 0.00439216 0)
(0.355782 0.00481822 6.88021e-22)
(0.346297 0.00463668 1.29634e-23)
(0.33081 0.00490432 -1.5311e-23)
(0.316621 0.000367025 0)
(0.29771 -0.00259811 0)
(0.279208 -0.0068908 -9.44465e-22)
(0.267659 -0.00713238 -1.00328e-20)
(0.268142 -0.0115343 4.94557e-21)
(0.279948 -0.0105252 -9.36594e-22)
(0.298463 -0.0126978 0)
(0.31708 -0.0129958 0)
(0.331117 -0.0145325 0)
(0.345668 -0.0117493 6.27295e-24)
(0.354313 -0.00992038 6.27416e-22)
(0.357367 -0.00809967 1.5486e-23)
(0.357622 -0.00717149 0)
(0.357054 -0.00634755 0)
(0.356375 -0.00551705 0)
(0.355688 -0.00474975 0)
(0.355056 -0.0040335 4.64282e-24)
(0.354517 -0.00338374 1.90263e-24)
(0.354031 -0.00278049 9.58522e-26)
(0.35357 -0.00222493 0)
(0.353171 -0.00169772 0)
(0.352865 -0.00119605 0)
(0.352665 -0.000712754 0)
(0.352567 -0.000235865 0)
(0.352002 0.000183136 0)
(0.35211 0.000552161 0)
(0.352328 0.000916667 0)
(0.35266 0.00128489 0)
(0.353102 0.0016536 0)
(0.353625 0.00201677 0)
(0.354209 0.00237432 0)
(0.35491 0.00270694 0)
(0.35581 0.00300233 -2.0152e-24)
(0.356888 0.00323526 0)
(0.358089 0.00338462 0)
(0.359273 0.00335942 0)
(0.359423 0.0032836 -1.59745e-22)
(0.355736 0.00337587 -8.61036e-22)
(0.346704 0.00334553 0)
(0.333226 0.00277997 0)
(0.319545 -0.00117831 0)
(0.300639 -0.00266691 0)
(0.28302 -0.00686483 2.64248e-21)
(0.271908 -0.00586818 5.77733e-21)
(0.271547 -0.0101028 -5.31096e-21)