/*--------------------------------*- C++ -*----------------------------------*\
| =========                 |                                                 |
| \\      /  F ield         | OpenFOAM: The Open Source CFD Toolbox           |
|  \\    /   O peration     | Version:  v2106                                 |
|   \\  /    A nd           | Website:  www.openfoam.com                      |
|    \\/     M anipulation  |                                                 |
\*---------------------------------------------------------------------------*/
FoamFile
{
    version     2.0;
    format      ascii;
    arch        "LSB;label=32;scalar=64";
    class       volScalarField;
    location    "0";
    object      p;
}
// * * * * * * * * * * * * * * * * * * * * * * * * * * * * * * * * * * * * * //

dimensions      [0 2 -2 0 0 0 0];

internalField   nonuniform List<scalar> 
11644
(
-0.0793915
-0.078967
-0.0781647
-0.0771177
-0.0755959
-0.0735377
-0.0705824
-0.0668135
-0.0628728
-0.0590929
-0.0556034
-0.0528404
-0.0510184
-0.0496753
-0.0485432
-0.0504768
-0.0531945
-0.0514454
-0.0529424
-0.0453846
-0.0448388
-0.0345278
-0.0286616
-0.018266
-0.0117765
-0.00662056
-0.0023677
-0.000958822
-0.00261772
-0.00590755
-0.00998074
-0.0144252
-0.0187096
-0.0226282
-0.0264747
-0.0301232
-0.0329927
-0.0351859
-0.0367483
-0.0375344
-0.0817978
-0.0816068
-0.0807845
-0.0793356
-0.077409
-0.0751276
-0.0725613
-0.0695828
-0.0659308
-0.0619135
-0.0578373
-0.0538219
-0.0507558
-0.0482843
-0.0480689
-0.0482879
-0.0462077
-0.0438193
-0.0524492
-0.0428967
-0.0371843
-0.0271495
-0.0253323
-0.0151374
-0.00654922
-0.00218171
-0.000509982
-0.00124343
-0.00354402
-0.00694378
-0.0110912
-0.0155614
-0.0203572
-0.0251162
-0.0293077
-0.0327852
-0.0357933
-0.0382102
-0.039806
-0.0404257
-0.0812187
-0.0815461
-0.0815345
-0.0808883
-0.0797057
-0.0780989
-0.0762072
-0.0741017
-0.0716787
-0.0686423
-0.0649953
-0.0608019
-0.0559921
-0.0527997
-0.0501375
-0.047025
-0.0462255
-0.0472218
-0.0402354
-0.0413601
-0.0339263
-0.0289825
-0.0225114
-0.0151203
-0.00662746
-0.00115657
-0.00126568
-0.00272656
-0.00557235
-0.00981793
-0.0148242
-0.0199689
-0.0248564
-0.029288
-0.0331348
-0.036307
-0.0389439
-0.0408548
-0.0418489
-0.0420131
-0.0796587
-0.0798538
-0.080211
-0.0805936
-0.0808695
-0.0808091
-0.080458
-0.0798206
-0.078809
-0.0772427
-0.0747376
-0.0702821
-0.0652286
-0.057128
-0.0495277
-0.0459695
-0.0441577
-0.0412111
-0.0383866
-0.0322052
-0.0285236
-0.0266619
-0.0190002
-0.015178
-0.010839
-0.00711956
-0.00592097
-0.00868965
-0.0129381
-0.0175148
-0.0221568
-0.0268066
-0.0310743
-0.0347509
-0.0378493
-0.0403063
-0.0420291
-0.0430763
-0.0436142
-0.0437821
-0.0774086
-0.0777546
-0.0783475
-0.0793273
-0.0807005
-0.0821536
-0.083617
-0.0849276
-0.0859158
-0.0862011
-0.0852483
-0.0823849
-0.0756624
-0.0669503
-0.0562272
-0.0486559
-0.0460957
-0.0296075
-0.0114952
-0.0281017
-0.0203029
-0.0192373
-0.0208502
-0.0253366
-0.0233735
-0.0233581
-0.0241212
-0.024129
-0.0262333
-0.0289908
-0.0320083
-0.0354125
-0.0386258
-0.041288
-0.0432825
-0.0447188
-0.045608
-0.0461606
-0.0465861
-0.0469755
-0.0744362
-0.0746689
-0.0753146
-0.0768335
-0.0788574
-0.0813982
-0.0844109
-0.0876654
-0.0907455
-0.0934475
-0.0947036
-0.0927579
-0.0886474
-0.076066
-0.0570956
-0.0366368
-0.0302304
-0.00777217
0.0040297
0.00383337
-0.00365673
-0.00934835
-0.0209809
-0.0442916
-0.053625
-0.0515893
-0.0488504
-0.0479285
-0.0436341
-0.0420883
-0.0429071
-0.0445069
-0.0460947
-0.0474924
-0.0483759
-0.0488553
-0.0491696
-0.0493424
-0.049593
-0.049591
-0.0688575
-0.0691872
-0.0701798
-0.0715587
-0.0735821
-0.0766057
-0.0804639
-0.0852337
-0.0902636
-0.093784
-0.0940381
-0.0912953
-0.0867485
-0.0883732
-0.0765556
-0.040737
-0.00527377
-0.00933757
-0.0101037
-0.010143
-0.0137748
-0.0302521
-0.0488197
-0.0662782
-0.107841
-0.105197
-0.094441
-0.0770679
-0.0641006
-0.0565491
-0.0531119
-0.0525082
-0.0523048
-0.0522434
-0.0520654
-0.0515353
-0.0509628
-0.0504303
-0.0500839
-0.0500343
-0.0590425
-0.0598579
-0.0610865
-0.0624161
-0.0645754
-0.0671857
-0.070779
-0.0752675
-0.0800836
-0.082355
-0.079478
-0.0731458
-0.0702276
-0.0709849
-0.0519674
-0.0574756
-0.0250766
-0.00177452
-0.00246803
-0.016922
-0.0343223
-0.0706909
-0.097276
-0.0994207
-0.0919527
-0.132375
-0.112289
-0.0999243
-0.0798257
-0.0683015
-0.0604856
-0.0566393
-0.0547444
-0.0533087
-0.0521384
-0.0511634
-0.0502934
-0.0499192
-0.049388
-0.0493386
-0.049407
-0.0495559
-0.0493214
-0.0501401
-0.0511412
-0.0522983
-0.0539957
-0.056202
-0.057671
-0.0545621
-0.0473499
-0.0367202
-0.0203497
-0.00708264
0.00808406
0.033353
0.0145773
0.0259604
0.0387537
0.0123983
-0.0231557
-0.0855591
-0.120338
-0.142014
-0.155773
-0.122609
-0.116936
-0.0956706
-0.080098
-0.0709789
-0.0610682
-0.0547584
-0.052262
-0.0504901
-0.049338
-0.0486296
-0.0478771
-0.0469419
-0.0467383
-0.0458683
-0.0395359
-0.0393037
-0.038841
-0.0377646
-0.035783
-0.0343352
-0.0324263
-0.0298233
-0.0256286
-0.0163014
0.000553335
0.0143854
0.023306
0.0368336
0.055182
0.0879547
0.106709
0.120305
0.105157
0.0546365
-0.0499409
-0.146939
-0.183919
-0.178081
-0.155869
-0.140723
-0.119588
-0.076954
-0.0659264
-0.0585504
-0.0522931
-0.0484489
-0.0463126
-0.0450264
-0.0446427
-0.0439781
-0.0433582
-0.042391
-0.0418874
-0.0425244
-0.0284826
-0.0278055
-0.0267824
-0.0241595
-0.0210707
-0.0169761
-0.0121724
-0.00515561
0.00611884
0.0174475
0.0327443
0.054425
0.0622776
0.0918605
0.118818
0.1122
0.150525
0.205299
0.261516
0.237692
-0.0599537
-0.324871
-0.313149
-0.236208
-0.176428
-0.12061
-0.0810745
-0.0518074
-0.0387709
-0.0377689
-0.0398114
-0.0397786
-0.0392718
-0.0393838
-0.0397173
-0.03936
-0.0386594
-0.0388953
-0.0379122
-0.037744
-0.022061
-0.0201111
-0.0165122
-0.0133079
-0.00880215
-0.00236283
0.00424384
0.0122344
0.0245506
0.0378755
0.0448186
0.067502
0.0974495
0.101953
0.138798
0.151871
0.183
0.250361
0.445222
-0.431319
-0.219369
-0.10927
-0.0445651
-0.0152073
-0.0074515
-0.0147083
-0.0255158
-0.0339869
-0.0369513
-0.0381863
-0.0382086
-0.0372438
-0.0359226
-0.0339727
-0.0326414
-0.0328899
-0.0296608
-0.0190432
-0.0169738
-0.0134505
-0.00868373
-0.00261748
0.00430893
0.0106102
0.0160665
0.0224716
0.0349324
0.0275146
0.0299509
0.0430707
0.0422724
0.0465822
0.073771
0.101877
0.155592
0.24044
-0.113632
-0.106503
-0.0576586
-0.0208348
-0.0114763
-0.00200661
-0.0231954
-0.0311087
-0.0470177
-0.0450081
-0.0438648
-0.0422478
-0.0384401
-0.0335713
-0.0300981
-0.0275444
-0.0269985
-0.0295496
-0.00916088
-0.0117727
-0.0120494
-0.00716827
-0.0016972
0.00394177
0.00660057
0.00247547
-0.00367264
0.0239459
-0.0145724
-0.0167224
-0.0948697
-0.0689274
-0.0687934
-0.0312143
0.0156136
-0.000524274
0.0913549
0.0151702
-0.0190267
-0.0174546
-0.00920182
-0.0549129
-0.017659
-0.0714902
-0.0401746
-0.0954876
-0.0510067
-0.0500174
-0.0507387
-0.0445837
-0.0357694
-0.0298287
-0.0276057
-0.0287759
-0.0405799
-0.0119271
-0.0164001
-0.0165955
-0.00785164
-0.00209705
0.00415174
0.00070286
-0.0231394
-0.0304798
0.0173272
-0.0614367
-0.0925601
-0.0922455
-0.00586056
-0.107627
-0.133045
0.0337546
-0.0127318
-0.0280661
-1.02625
-0.24472
0.562869
0.130558
-0.0359051
-0.0269289
0.0374873
-0.00840132
-0.0483545
-0.0687617
-0.0706928
-0.122499
-0.0238218
-0.0466078
-0.0633886
-0.057515
-0.0435388
-0.0345633
-0.0278897
-0.0292706
-0.0204125
-0.0308174
-0.0325816
-0.0240144
-0.0167523
-0.00942688
-0.00407234
-0.0155974
-0.0292119
-0.031446
-0.0277725
-0.0198218
-0.0715433
-0.166716
-0.19765
-0.278091
-0.018178
-0.0223714
-0.161949
0.176715
0.208223
0.223604
1.00157
0.122505
0.408062
0.0783703
0.196433
0.097444
0.0135247
-0.077567
-0.131772
-0.097582
-0.0667075
-0.0517802
-0.0523313
-0.0535353
-0.0431899
-0.0271506
-0.0150665
-0.00726797
-0.0105129
-0.0148963
-0.0392718
-0.028353
-0.0273705
-0.0174921
-0.0179035
-0.0359638
-0.0492849
-0.0588941
-0.0548313
-0.0267494
-0.0257067
-0.120945
-0.258876
-0.263141
-0.0300621
-0.125159
0.0376966
2.36084
-0.774355
0.417065
-0.107088
-1.16236
-0.0351933
0.171125
0.00352527
0.13108
-0.0433056
-0.132756
-0.140207
-0.0725951
-0.0443249
-0.0303671
-0.0441589
-0.0482647
-0.0382899
-0.0226424
-0.015448
-0.00466821
-0.0211552
-0.015479
-0.02249
-0.0103145
-0.011671
-0.0222503
-0.0375043
-0.0369387
-0.0416496
-0.0604693
-0.0820259
-0.0771764
-0.0356098
0.112693
-0.377752
-0.016985
-0.222237
-0.0411957
-0.571
-0.899403
3.67449
0.404919
-1.67644
1.27631
0.616632
0.0977819
0.138877
0.379931
-0.287419
-0.0770419
-0.0246578
-0.0180006
-0.0327179
-0.0419855
-0.042153
-0.0241661
-0.0349913
-0.0429065
-0.0407761
-0.0249354
-0.0314991
-0.00253918
-0.000153
-0.00392945
-0.0186929
-0.0381374
-0.0545334
-0.0580091
-0.0367223
-0.0260057
-0.030973
-0.0529049
-0.0231514
0.186732
-0.135703
-0.00384482
0.164853
-0.20389
0.696647
0.164465
0.334631
0.911046
1.2087
0.739873
-0.175193
-0.202859
-0.0313308
-0.050872
-0.184359
0.000860982
-0.0126846
-0.0297886
-0.0692584
-0.0507695
-0.0111103
-0.0022054
-0.0162492
-0.0325447
-0.0446316
-0.051649
-0.0482058
-0.00934785
-0.0103512
-0.0110539
-0.0206148
-0.0341178
-0.0573401
-0.0709784
-0.0846598
-0.0819131
-0.0785927
-0.094367
-0.154558
-0.21849
0.0490198
-0.0906837
0.147134
0.338798
-0.317502
0.622692
1.57722
0.731383
0.0671731
0.808433
0.0205501
-0.395518
-0.064319
0.0445093
0.177258
-0.0696865
0.0170661
-0.00136324
-0.00771297
0.00165229
0.0108875
-0.00476405
-0.0294907
-0.0377531
-0.0397482
-0.0361253
-0.0368515
-0.00916784
-0.0180998
-0.026136
-0.0265729
-0.0275661
-0.0396562
-0.0604007
-0.101107
-0.132008
-0.134392
-0.121458
-0.316666
-0.245459
-0.204037
0.173256
0.297535
0.424003
2.48014
1.96715
0.358127
0.23751
0.265163
-1.61336
-1.45238
0.455435
0.265143
0.17193
0.161294
0.266791
0.0359893
0.0520029
0.0525919
0.0279774
-0.00919711
-0.027885
-0.0334823
-0.0267356
-0.0260853
-0.032506
-0.0425162
-0.019551
-0.0159025
-0.0179328
-0.0202585
-0.0240028
-0.0319108
-0.0441695
-0.0681495
-0.117812
-0.163291
-0.248898
-0.258878
-0.363124
-0.0952293
-0.18186
-0.566261
0.218373
0.399686
-1.83397
-2.38125
-0.33862
2.39764
2.33706
-0.488089
-0.0226597
0.116852
0.194973
0.187704
0.198522
0.163207
0.0911897
0.0486676
0.0138255
-0.00688546
-0.0151891
-0.0212595
-0.0245772
-0.0305429
-0.0343797
-0.0280131
-0.00192289
-1.41857e-05
-0.00241341
-0.00634571
-0.0108895
-0.015198
-0.0302933
-0.0533611
-0.0739173
-0.100711
-0.138813
-0.359289
-0.528529
-0.810075
-0.78836
0.241684
-0.442362
-1.8129
3.35521
-0.809583
-0.452269
-4.13821
1.55479
0.161525
-0.519478
0.420915
0.767557
0.518031
0.369717
0.0437192
0.0347155
0.0138339
0.0288692
0.0136291
-0.00807616
-0.0202821
-0.0264027
-0.0302557
-0.0321201
-0.0309416
0.0204341
0.00632205
0.00422411
0.00520994
0.00626297
0.00436317
-0.00961292
-0.0423169
-0.0565923
-0.0779269
-0.108278
-0.170734
-0.224705
-0.351218
-1.37615
-2.32342
-1.75162
-0.323654
0.111994
-0.96353
-0.12233
-1.2159
-0.0826603
2.21892
2.85633
1.89513
0.410483
0.261647
0.189357
0.10869
0.0658927
0.0394976
0.0345362
0.00587415
-0.0202233
-0.0226545
-0.0237896
-0.0243569
-0.0280217
-0.0423244
0.0207202
0.0306141
0.026919
0.0232956
0.0187004
0.0169689
0.0107859
2.99897e-05
-0.003887
-0.0275651
-0.0582851
-0.109279
-0.0708709
-0.148939
0.772423
1.15033
0.416627
-1.1978
-0.227751
-0.833916
0.369296
0.162084
0.874197
0.0715053
-1.44321
-0.785718
0.280633
0.0989325
0.12872
0.111959
0.0595986
0.0247304
-0.00439648
-0.0135214
-0.0264306
-0.0345097
-0.0353044
-0.0427857
-0.0475007
-0.0417006
0.0417737
0.0374238
0.0409148
0.0425935
0.0418425
0.0391264
0.0391473
0.0301325
0.0420159
0.0317661
0.0517443
-0.0788787
0.0259683
0.123813
-0.53377
-0.0943963
0.860246
0.764701
1.07465
0.860916
-1.67573
-1.4256
-1.67237
-1.4687
-0.079527
0.657658
-0.128274
0.167851
0.0973697
0.0828685
0.0320271
-0.0145775
-0.0193943
-0.0342269
-0.0440355
-0.0510166
-0.0537031
-0.052629
-0.0524145
-0.058543
0.0527739
0.0560418
0.0536818
0.0512682
0.0554981
0.0568855
0.0662244
0.0440334
0.0650752
0.00886445
0.0433503
0.0907792
0.122492
0.27907
0.782639
0.806565
-1.27893
-0.187164
-1.24432
0.551292
1.28956
3.66025
-2.78362
-1.07405
-0.816612
-0.757412
-0.0945422
-0.0520809
-0.0156387
0.00265719
0.0248174
-0.0600952
-0.0510486
-0.0598184
-0.0605506
-0.0606021
-0.0578838
-0.0587437
-0.0614518
-0.0563526
0.0531764
0.0615339
0.0627187
0.0646794
0.0655158
0.0660628
0.0670318
0.06311
0.0479901
-0.0121025
-0.0854952
0.0141944
0.0324534
0.1233
-0.307884
-0.458799
-0.497987
-0.0375261
1.58998
2.8863
-1.34081
-0.0518208
-0.894969
-0.208541
0.269118
0.0435931
-0.227147
-0.0545985
0.0120731
0.0845349
0.0152225
-0.0419841
-0.0652921
-0.0672326
-0.0663038
-0.0644621
-0.0618148
-0.0589837
-0.0584101
-0.0429171
0.0835356
0.0721479
0.074379
0.0794721
0.0775762
0.0761478
0.0777512
0.0804707
0.0854206
0.0187188
0.0314556
0.0804133
-0.184137
-0.343162
-0.0661189
-0.0223106
-0.337101
-0.515009
-1.07002
-1.9777
2.49478
1.22839
0.377911
-0.0847917
-0.319616
-0.119316
0.201475
0.120654
-0.0812705
-0.0293416
-0.029941
-0.0821461
-0.0851685
-0.0772368
-0.0718392
-0.0691311
-0.0650968
-0.0606478
-0.0591765
-0.0651775
0.0893202
0.105336
0.103274
0.100903
0.0981848
0.0954184
0.0908782
0.115217
0.0892953
0.0513055
0.0147524
0.0250377
0.136066
-0.0091488
-0.991778
-1.32267
-1.2389
-1.50497
0.343466
0.430315
-0.0583413
0.189653
0.945014
0.692755
0.941785
0.681417
-0.0832775
-0.209934
-0.0659245
-0.0525367
-0.0673997
-0.100012
-0.120149
-0.0898532
-0.0855331
-0.0821275
-0.0803844
-0.0793605
-0.0787884
-0.062528
0.107931
0.102385
0.106294
0.110593
0.118492
0.123465
0.131994
0.143366
0.14995
0.152166
0.149641
-0.00869489
-0.298755
-0.28604
0.0246672
-0.0363678
-0.755207
-0.917077
-1.03574
-1.3061
1.10406
0.888971
0.835981
0.579574
-0.0145965
-0.0601648
0.203768
0.0445987
-0.101647
-0.137694
-0.180525
-0.164264
-0.13837
-0.112566
-0.0991182
-0.0881592
-0.0811646
-0.0759867
-0.0728476
-0.0760025
0.108175
0.112834
0.115464
0.120965
0.127932
0.137647
0.157997
0.172615
0.185094
0.200463
0.193115
0.213368
0.357965
0.190055
-0.158126
-0.174735
-0.00568187
0.10615
0.169553
1.47053
-2.31174
-0.81252
-0.363158
-0.338006
-0.242223
-0.0135634
-0.264485
-0.429434
-0.284001
-0.221976
-0.196305
-0.163541
-0.137881
-0.111556
-0.0969499
-0.0871692
-0.0826463
-0.077978
-0.0751555
-0.076126
0.129776
0.124586
0.128117
0.133429
0.144854
0.161646
0.185095
0.206355
0.220383
0.28189
0.256069
0.208573
0.109918
0.259635
0.611548
0.651749
0.35862
0.710893
-0.621962
-1.25431
-0.614301
-0.9636
-1.18768
-0.79682
-0.824125
-0.756809
-0.474743
-0.267104
-0.322439
-0.278227
-0.240475
-0.156227
-0.136939
-0.117506
-0.100837
-0.0872675
-0.0800569
-0.0741721
-0.0729901
-0.0772313
0.13146
0.132928
0.137839
0.147733
0.15902
0.174492
0.19219
0.214696
0.245803
0.30891
0.246058
0.242095
0.465188
0.487999
0.377404
0.504716
0.472412
0.462595
0.00214901
-0.345928
-2.2089
-1.62726
-1.05903
-0.972026
-0.774411
-0.749521
-0.654343
-0.614932
-0.358647
-0.224767
-0.240571
-0.15625
-0.123803
-0.107282
-0.0960479
-0.0846456
-0.0804951
-0.070644
-0.0689074
-0.0672423
0.132964
0.141698
0.144227
0.145422
0.152253
0.164655
0.180684
0.195361
0.201557
0.206912
0.282746
0.196523
0.0323212
-0.00224558
0.209579
0.358906
0.377801
0.474937
0.4768
0.394097
-2.38473
-1.97258
-1.22366
-0.855396
-0.664573
-0.517742
0.0123769
-0.0236841
-0.220847
-0.210866
-0.137588
-0.131697
-0.108131
-0.093529
-0.0821539
-0.0747829
-0.0724076
-0.0745063
-0.074238
-0.0707943
0.123449
0.123184
0.129132
0.135964
0.139567
0.147426
0.16318
0.171533
0.185289
0.201387
0.152395
0.1494
0.225211
0.291864
0.0987442
-0.143182
-0.335448
-0.4812
-0.432587
-0.862457
-0.739691
-0.709056
0.380261
0.00443671
0.0590945
-0.180635
-0.364232
-0.264434
-0.110998
-0.100919
-0.14329
-0.124153
-0.0898943
-0.0710371
-0.0699286
-0.0673705
-0.0648078
-0.0597457
-0.0549348
-0.0514049
0.115111
0.111766
0.112277
0.111766
0.116494
0.122313
0.133594
0.141531
0.156822
0.167689
0.13956
0.0526921
-0.191922
-0.104847
0.113599
0.0548459
-0.0405562
-0.209389
-0.233251
-0.111381
-0.212199
-0.279022
-0.100449
-0.250669
0.0613845
-0.0266521
0.143917
0.215786
-0.0537613
-0.108678
-0.123978
-0.119307
-0.0823797
-0.0682432
-0.0561758
-0.0482236
-0.0429446
-0.0437689
-0.0422306
-0.047275
0.100151
0.0991093
0.0998179
0.100908
0.100319
0.114028
0.117553
0.126475
0.126349
0.134205
0.0797083
0.105462
0.0700144
-0.127321
-0.417997
-0.487797
-0.745005
-0.879138
-0.85169
-0.990201
0.960165
0.872558
0.594365
0.67068
0.571984
0.295956
0.0735217
-0.106769
-0.0860236
-0.0466089
-0.0880628
-0.0922719
-0.0843494
-0.0689687
-0.0487439
-0.0392896
-0.0377765
-0.0368485
-0.0372416
-0.0329399
0.089767
0.0996876
0.0977269
0.0969317
0.0987654
0.101986
0.0991004
0.101962
0.109106
0.0907988
0.0583076
-0.0528674
-0.199032
-0.196492
-0.140643
-0.135522
-0.264581
-0.109407
-0.411938
0.165439
-1.51196
-0.66995
0.354238
0.169197
0.0653311
0.048956
0.192525
0.237967
0.10821
-0.000969566
-0.0473145
-0.0825307
-0.0841535
-0.0640001
-0.0474921
-0.0359349
-0.0296746
-0.0280561
-0.0249099
-0.0230405
0.0840266
0.0921289
0.0900146
0.0846325
0.0819848
0.0758649
0.0653908
0.0650344
0.0630428
0.0634495
0.0431178
-0.0672211
-0.125311
-0.27358
-0.467979
-0.463861
-0.726162
-0.522743
-0.723237
-0.785282
0.0495293
0.0883487
0.304312
0.672453
0.45858
0.510338
0.186222
0.00150913
0.0380803
-0.000745021
-0.0829863
-0.0663243
-0.0514999
-0.0327702
-0.0226051
-0.0140257
-0.0100317
-0.0105624
-0.00948831
-0.00558225
0.0742249
0.0733194
0.0747364
0.0723573
0.0693739
0.0640276
0.051136
0.044675
0.0190975
0.0410924
-0.00921244
-0.0661097
-0.157443
-0.1026
-0.122237
-0.178927
-0.190244
-0.268587
-0.0387985
0.322866
-0.547244
-0.0742759
0.219921
0.265382
0.242526
0.165528
0.0579423
0.0727789
0.0280146
0.0344299
-0.0231536
-0.0310599
-0.0251328
-0.00784508
-0.000782938
0.00549383
0.00733781
0.00698503
0.00810725
0.0120259
0.0567477
0.0534841
0.0551835
0.056112
0.0585139
0.056729
0.0518354
0.0526631
0.0507271
0.0116672
0.0142928
-0.0661788
-0.0322772
-0.0564244
-0.205582
-0.341463
-0.301946
-0.0596517
-1.18838
-2.12921
1.13508
0.476685
0.401937
0.392872
0.205685
0.0518716
-0.068368
0.00447416
0.058921
0.0667915
0.0275144
-0.0246491
-0.0177206
0.0190817
0.0227161
0.02657
0.0306519
0.0307176
0.0325237
0.0277732
0.0640676
0.0609995
0.0567854
0.0534121
0.0538055
0.049846
0.0523059
0.0539733
0.0344059
0.0279171
0.0689153
0.0381233
-0.025255
0.0270343
0.127687
0.179127
0.435461
0.20016
0.0892326
-0.068707
-0.839617
-0.691207
-0.421043
-0.510188
-0.272804
-0.176603
-0.0296147
0.060696
0.00340565
-0.0484718
0.00928343
0.0204654
0.0128881
0.0273569
0.0375781
0.0414884
0.0438577
0.0441589
0.0436441
0.0407107
0.0569439
0.05726
0.0599284
0.0634511
0.0649494
0.0663052
0.0701855
0.0737275
0.0897043
0.0348384
0.00438575
0.0645307
0.223792
0.236784
0.206409
0.14572
0.143506
0.154607
-0.20895
-0.483325
-0.405721
-0.492659
-0.463819
-0.281296
-0.17988
-0.169607
-0.128194
-0.112756
-0.0384133
0.0051515
0.0345941
0.0273043
0.0388632
0.0396403
0.0417991
0.0467395
0.0492696
0.0559039
0.0570686
0.0555004
0.042973
0.0463493
0.0496206
0.0519857
0.0559217
0.0613643
0.0629939
0.0709028
0.084687
0.101839
0.170062
0.253816
0.175456
0.202927
0.220441
0.199096
0.210532
0.00795274
-0.281999
0.1682
-1.65966
-0.790554
-0.269639
-0.502891
-0.401108
-0.26638
-0.242138
-0.101394
-0.0753853
-0.0527129
0.00926968
0.0440848
0.0544326
0.0620007
0.0655876
0.0739725
0.0748589
0.0713992
0.0725808
0.078473
0.0324118
0.0328842
0.0338574
0.0364277
0.0410979
0.051428
0.0649085
0.0691088
0.0984062
0.123241
0.133166
0.221108
0.340404
0.333748
0.266098
0.112009
-0.201768
-0.18131
-0.264127
-0.927445
-0.280921
-0.57654
-0.190878
0.00760854
-0.160285
-0.119227
-0.151104
-0.116115
-0.0396132
0.0352229
0.0443645
0.0372609
0.0734325
0.0994604
0.101507
0.10451
0.10542
0.10507
0.104105
0.104544
0.0154806
0.0163567
0.0180465
0.0231834
0.0308725
0.041662
0.0570362
0.0706304
0.120436
0.191505
0.192265
0.290924
0.362785
0.543668
0.686628
0.74499
0.630545
0.477966
0.164993
-0.298153
-0.00822897
-0.26646
-0.231052
-0.233466
-0.133797
-0.0117014
-0.0298538
-0.0109028
-0.0032416
-0.0211565
0.0347764
0.0757065
0.120356
0.123292
0.123997
0.12672
0.132881
0.134848
0.131902
0.122897
0.0121247
0.00902973
0.0109244
0.0133136
0.0185727
0.0270806
0.0422339
0.0359363
0.0797271
0.106303
0.100718
0.12827
0.303902
0.487891
0.665214
0.834037
0.903214
1.06504
1.10042
0.923118
-0.375203
-0.616673
-0.34159
-0.18949
-0.00631528
0.134127
0.121313
0.166201
0.250933
0.20809
0.124907
0.114249
0.149315
0.151734
0.146328
0.147696
0.142471
0.137806
0.134965
0.120664
-0.00534872
0.000247848
0.00283909
0.00545497
0.0093262
0.0140488
0.00392576
0.0116372
0.0366956
0.0934643
0.110286
0.135364
0.145709
0.128267
0.244868
0.464214
0.352916
0.303356
0.0893788
-0.0236329
0.592115
0.479318
0.395113
0.200845
0.640703
0.506398
0.40929
0.281448
0.183333
0.186336
0.186597
0.170624
0.158847
0.161592
0.155131
0.147573
0.144864
0.139184
0.140905
0.145755
-0.0304927
-0.0273359
-0.0260383
-0.025112
-0.024321
-0.0240006
-0.02232
-0.0233308
-0.00508394
-0.0247772
-0.0309349
0.0250749
0.137953
0.130647
0.173971
0.0220769
-0.123616
-0.150671
0.0271976
0.281454
0.445868
0.571175
0.610461
0.639941
0.659387
0.517921
0.407444
0.322455
0.354726
0.342747
0.257777
0.18934
0.182935
0.184425
0.183766
0.172383
0.172066
0.172106
0.175743
0.172516
-0.0592091
-0.0634635
-0.0662181
-0.0668985
-0.0651676
-0.0627745
-0.0573487
-0.0542055
-0.0440978
-0.0214023
0.019098
-0.0107383
-0.038537
-0.0387269
-0.027159
-0.043278
-0.208555
-0.35544
-0.389959
-0.301056
0.645855
0.708037
0.609272
0.548046
0.565737
0.495208
0.487208
0.437189
0.34593
0.272316
0.254867
0.254283
0.227436
0.221009
0.215776
0.216013
0.208228
0.202521
0.196697
0.198386
-0.070999
-0.0805365
-0.0843468
-0.0852289
-0.0844821
-0.0826143
-0.077124
-0.0688
-0.0655702
-0.0597626
-0.0485351
-0.0340352
0.0246002
0.111512
0.173158
0.23724
0.300934
0.357851
0.402792
0.303317
-0.56552
-0.521718
-0.283871
-0.19439
0.0545301
0.0831542
0.142834
0.251776
0.352239
0.377833
0.329522
0.286408
0.248047
0.237177
0.233299
0.230453
0.222951
0.218359
0.215024
0.206228
-0.0784643
-0.0764693
-0.0782045
-0.0799467
-0.0851396
-0.0897883
-0.0925975
-0.093686
-0.092182
-0.0792108
-0.0707734
-0.110917
-0.138104
-0.137899
-0.147643
-0.0764882
0.00633511
0.00739336
-0.0888423
-0.221581
-0.0321479
0.0654265
0.131991
0.237991
0.395683
0.519668
0.450489
0.508993
0.446943
0.373762
0.321183
0.287853
0.254288
0.249957
0.243003
0.236721
0.232838
0.22499
0.221293
0.223973
-0.090674
-0.0878082
-0.0848209
-0.0918646
-0.0973789
-0.103394
-0.105835
-0.128716
-0.139728
-0.149564
-0.148389
-0.138945
-0.1191
-0.185272
-0.227051
-0.352075
-0.253545
-0.248296
-0.0664103
0.0943073
0.230506
0.357824
0.485479
0.622231
0.707247
0.65316
0.599279
0.525593
0.453271
0.429071
0.359111
0.324981
0.295034
0.27985
0.260285
0.246355
0.235404
0.222459
0.218835
0.222248
-0.130337
-0.13496
-0.134482
-0.131656
-0.135887
-0.140907
-0.154537
-0.144268
-0.166029
-0.21119
-0.162895
-0.202018
-0.20388
-0.351407
-0.40815
-0.587058
-0.571257
-0.55747
-0.414363
-0.107534
0.258134
0.442133
0.708279
0.792774
0.769124
0.700352
0.596849
0.480976
0.435576
0.449949
0.405926
0.336494
0.3263
0.29008
0.26683
0.253988
0.245942
0.241227
0.237725
0.23233
-0.14105
-0.15434
-0.163165
-0.17013
-0.179733
-0.186847
-0.194028
-0.202129
-0.205154
-0.215624
-0.221227
-0.250101
-0.203865
-0.0572476
0.0340912
0.137201
0.18519
0.208258
0.154004
-0.0676131
-0.376993
-0.373819
-0.345857
-0.196573
-0.0637463
0.0510957
0.330288
0.40266
0.43594
0.394959
0.356937
0.334476
0.316391
0.296839
0.274351
0.263313
0.254833
0.24666
0.240494
0.232814
-0.144709
-0.150325
-0.155717
-0.158796
-0.165227
-0.175596
-0.189009
-0.208348
-0.211584
-0.252792
-0.275387
-0.262523
-0.271929
-0.270866
-0.246648
-0.171807
-0.113359
0.0333303
-0.0771347
-0.200423
-0.319733
-0.66001
-0.654707
-0.0600033
0.0806288
0.294729
0.38027
0.396171
0.3597
0.338378
0.323183
0.297855
0.283871
0.267503
0.254106
0.23928
0.231556
0.229627
0.226184
0.224158
-0.142189
-0.139496
-0.138475
-0.142442
-0.151997
-0.163642
-0.17972
-0.192724
-0.234909
-0.252289
-0.332058
-0.439972
-0.559071
-0.698258
-0.825702
-0.913773
-1.06347
-0.806917
-0.771668
-0.622387
-0.0312167
0.105861
0.165041
0.666892
0.53097
0.541517
0.447064
0.370942
0.330361
0.295817
0.280317
0.27541
0.26357
0.249967
0.228591
0.214323
0.206457
0.202178
0.202352
0.205031
-0.150522
-0.144548
-0.146073
-0.152943
-0.167399
-0.182778
-0.209726
-0.212022
-0.255553
-0.314424
-0.388027
-0.500807
-0.678808
-0.936796
-1.10845
-1.18954
-1.24743
-0.883133
-0.528741
-0.0283759
-0.0805482
0.315946
0.732144
0.927218
0.856875
0.715792
0.548049
0.383434
0.299832
0.278461
0.264878
0.256711
0.244626
0.237429
0.224303
0.21305
0.205245
0.2016
0.201245
0.199556
-0.15791
-0.165729
-0.170888
-0.174602
-0.184862
-0.195751
-0.211302
-0.227991
-0.249283
-0.258726
-0.307559
-0.330312
-0.300262
-0.332626
-0.337935
-0.252069
-0.278226
-0.0359475
-0.0280902
0.449978
0.152753
0.542744
0.484228
0.447072
0.380639
0.310677
0.259899
0.217707
0.194722
0.179625
0.185002
0.198035
0.228797
0.222366
0.214948
0.214178
0.21384
0.211033
0.207241
0.194053
-0.1591
-0.170364
-0.174233
-0.175343
-0.177458
-0.183112
-0.191661
-0.196768
-0.24186
-0.261009
-0.255091
-0.239063
-0.181866
-0.0837765
0.0537572
0.310024
0.525403
0.971035
1.05782
0.813928
0.274907
-0.158057
-0.347073
0.0128654
-0.00301269
0.0792744
0.101328
0.122173
0.131832
0.174362
0.191381
0.182836
0.181301
0.183589
0.184645
0.188164
0.192014
0.193679
0.190014
0.177804
-0.140976
-0.133031
-0.135407
-0.141113
-0.147073
-0.15283
-0.163314
-0.176236
-0.179992
-0.18372
-0.212417
-0.282088
-0.310683
-0.301501
-0.27533
-0.181848
-0.168682
-0.00507665
0.030622
0.338993
0.575707
0.632616
0.480201
0.414735
0.356331
0.297379
0.238766
0.128253
0.11678
0.0920973
0.0933745
0.126379
0.113675
0.125376
0.134457
0.139195
0.145537
0.146031
0.147219
0.155491
-0.125833
-0.115919
-0.113101
-0.114178
-0.121071
-0.128258
-0.136465
-0.157289
-0.167643
-0.1958
-0.192422
-0.233739
-0.34639
-0.464783
-0.596142
-0.718663
-0.745364
-0.463019
-0.058268
0.155022
0.381469
0.49265
0.555237
0.595736
0.57082
0.455809
0.329585
0.199064
0.105274
0.0874547
0.12011
0.113307
0.096526
0.1044
0.110178
0.114014
0.12071
0.127442
0.136361
0.14828
-0.125581
-0.124291
-0.126398
-0.131295
-0.133641
-0.136315
-0.139362
-0.14423
-0.136342
-0.108338
-0.108548
-0.129956
-0.113838
-0.103147
-0.118293
-0.156885
-0.197764
-0.0992627
-0.0372171
0.0704254
0.100609
0.173311
0.149212
0.00569268
-0.0231529
-0.0228148
0.00779765
0.0570045
0.0930892
0.0823446
0.0732582
0.093672
0.11256
0.134163
0.136864
0.140886
0.143462
0.140722
0.140237
0.150558
-0.121299
-0.13212
-0.135637
-0.134026
-0.127177
-0.1219
-0.111459
-0.0994764
-0.0796343
-0.0441918
0.0152365
0.146246
0.288073
0.4735
0.696629
0.895314
1.00113
0.959803
0.713344
0.279829
-0.0409251
-0.758068
-0.847641
-0.87922
-0.792887
-0.654409
-0.489292
-0.294103
-0.127323
0.0143846
0.078827
0.109906
0.116537
0.132193
0.141714
0.148881
0.153326
0.155514
0.153673
0.145897
-0.102705
-0.104449
-0.101363
-0.0951033
-0.0860127
-0.0736199
-0.0556329
-0.0419571
0.0050545
0.0479502
0.0808267
0.140289
0.246567
0.358379
0.487465
0.593081
0.665537
0.517216
0.366284
0.151712
0.0265759
-0.180122
-0.301933
-0.318065
-0.158894
-0.148575
-0.110827
-0.0477768
0.0339827
0.0339724
0.0443541
0.0745919
0.0998367
0.115276
0.122831
0.129181
0.13331
0.136301
0.136873
0.134164
-0.0834308
-0.0667249
-0.0580336
-0.0525913
-0.0461161
-0.0362222
-0.0333177
-0.00859359
0.00449
0.0318085
0.0832506
0.0900268
0.0841154
0.0653075
0.0237039
-0.0128895
-0.026607
-0.0331901
0.104241
0.152431
0.253862
0.395228
0.446787
0.454754
0.384002
0.34098
0.281206
0.219807
0.148688
0.107942
0.117177
0.120699
0.113832
0.11075
0.110602
0.108309
0.10379
0.1032
0.105577
0.110258
-0.0873812
-0.0751708
-0.0699403
-0.0641577
-0.0610322
-0.0534859
-0.0418521
-0.0260584
-0.00264437
0.0154268
0.0750379
0.0663244
0.0459689
-0.0160814
-0.0190074
-0.0476413
-0.0909622
-0.0468549
0.00621465
0.176381
0.232503
0.405058
0.477416
0.545169
0.473694
0.409497
0.321445
0.236408
0.147709
0.125824
0.182647
0.154172
0.132836
0.118096
0.110205
0.107173
0.10545
0.104528
0.105507
0.116984
-0.101235
-0.113574
-0.11602
-0.113058
-0.106659
-0.0938574
-0.0820266
-0.0634219
-0.0278942
0.0115239
0.0896746
0.212467
0.363686
0.530275
0.695997
0.796357
0.824159
0.770746
0.512428
0.227542
0.119317
-0.10704
-0.349348
-0.450944
-0.427478
-0.313776
-0.189772
-0.0705456
0.0344905
0.118867
0.138191
0.155545
0.150641
0.129094
0.126695
0.126922
0.12731
0.126751
0.124298
0.117393
-0.100615
-0.116329
-0.119393
-0.116109
-0.106239
-0.0925842
-0.0762112
-0.0537944
-0.000999037
0.0604473
0.133789
0.225481
0.354981
0.464106
0.541331
0.560759
0.849408
0.805703
0.576628
0.298565
0.0476954
-0.233578
-0.470048
-0.437542
-0.387618
-0.265737
-0.169939
-0.0407975
0.0472215
0.0796721
0.106914
0.127376
0.109145
0.113633
0.116136
0.118315
0.118674
0.11707
0.11452
0.112642
-0.0821795
-0.0790064
-0.0730842
-0.0667841
-0.0601393
-0.0528745
-0.0384672
-0.0281595
-0.0104011
0.0155622
0.0285367
0.00140887
-0.0474524
-0.136874
-0.230693
-0.293469
-0.301739
-0.24104
-0.139293
0.0171586
0.245741
0.365952
0.517303
0.587655
0.515097
0.387202
0.293882
0.209942
0.158777
0.122758
0.112173
0.106564
0.0972241
0.0950036
0.0897691
0.0872427
0.0852254
0.0864458
0.0906063
0.0940175
-0.0773825
-0.0596237
-0.0535095
-0.0524081
-0.0549385
-0.0565609
-0.0572719
-0.0616151
-0.0731345
-0.0980354
-0.136793
-0.237833
-0.356248
-0.443908
-0.497849
-0.479924
-0.450137
-0.215968
-0.00462792
0.158291
0.312609
0.480628
0.69692
0.837379
0.808066
0.672332
0.559986
0.406677
0.280325
0.206029
0.16967
0.134999
0.112376
0.103955
0.0910548
0.0832208
0.0772967
0.0738264
0.0748864
0.0816903
-0.0999498
-0.0996191
-0.0990105
-0.0997156
-0.0999201
-0.102959
-0.104125
-0.11435
-0.106588
-0.106677
-0.0865607
-0.0202269
0.0562647
0.137682
0.178086
0.213038
0.254768
0.173393
0.278816
0.333056
0.392212
0.486767
0.428115
0.310435
0.165234
0.148144
0.139151
0.120475
0.131834
0.143823
0.125391
0.122061
0.122043
0.116551
0.105789
0.0986792
0.0943966
0.0878636
0.082956
0.0777028
-0.125873
-0.142665
-0.147642
-0.145818
-0.14043
-0.134543