/*--------------------------------*- C++ -*----------------------------------*\
| =========                 |                                                 |
| \\      /  F ield         | OpenFOAM: The Open Source CFD Toolbox           |
|  \\    /   O peration     | Version:  v2106                                 |
|   \\  /    A nd           | Website:  www.openfoam.com                      |
|    \\/     M anipulation  |                                                 |
\*---------------------------------------------------------------------------*/
FoamFile
{
    version     2.0;
    format      ascii;
    arch        "LSB;label=32;scalar=64";
    class       volVectorField;
    location    "0";
    object      U;
}
// * * * * * * * * * * * * * * * * * * * * * * * * * * * * * * * * * * * * * //

dimensions      [0 1 -1 0 0 0 0];

internalField   nonuniform List<vector> 
11644
(
(0.000305501 -0.000110743 -1.6508e-20)
(0.000257324 -0.000167922 -4.55242e-20)
(0.000286445 -0.000209767 -2.44248e-20)
(0.00034983 -0.000267276 0)
(0.000312879 -0.000307259 0)
(0.000280307 -0.000292636 0)
(0.000188855 -0.000112585 0)
(0.000100772 0.000204708 0)
(-3.29483e-05 0.000720752 0)
(-0.000133288 0.00146594 0)
(-0.000195769 0.00246008 0)
(-0.000544554 0.00369369 0)
(-0.000624956 0.00524693 0)
(-0.0010534 0.00692812 0)
(-0.00113499 0.00856351 0)
(-0.000709682 0.00992483 0)
(-0.00143315 0.0107657 0)
(-0.00248255 0.0116546 0)
(-0.00228988 0.0123455 0)
(-0.00102496 0.0116495 -1.1543e-30)
(-0.000500968 0.0108787 1.05977e-30)
(0.000951819 0.0107488 0)
(0.00233298 0.00945371 0)
(0.00112923 0.0076449 0)
(2.93292e-05 0.00619837 0)
(-0.000130665 0.00562386 0)
(-0.000272706 0.00533485 0)
(0.000143508 0.00478926 0)
(0.000120353 0.00458057 0)
(0.000281253 0.00423368 0)
(0.000450082 0.00378815 0)
(0.000500568 0.00336859 0)
(0.000592615 0.00288822 0)
(0.000620822 0.00242496 0)
(0.000678434 0.00193464 0)
(0.000704156 0.00147737 0)
(0.000647522 0.00105731 0)
(0.000662831 0.000730934 0)
(0.000645943 0.000469606 0)
(0.000502792 0.000170742 -3.20073e-21)
(0.000368181 -9.56073e-06 -2.12044e-20)
(0.000420779 -8.03363e-05 -1.96421e-20)
(0.000367525 -5.86653e-05 -1.05491e-20)
(0.000213521 -1.42578e-05 0)
(6.76724e-05 0.000195592 0)
(-0.000110659 0.000401307 0)
(-0.000349001 0.000636736 0)
(-0.000740203 0.00103422 0)
(-0.00115124 0.00158359 0)
(-0.00169696 0.00227795 0)
(-0.00221091 0.00332213 0)
(-0.00252602 0.00472639 0)
(-0.00317977 0.00606316 0)
(-0.00311456 0.00766159 0)
(-0.00264494 0.0098054 0)
(-0.00258509 0.0119524 5.81061e-22)
(-0.00144115 0.01384 9.61506e-21)
(0.000800587 0.0139296 -6.61589e-20)
(0.00270918 0.0123071 9.08757e-20)
(0.00188235 0.0108993 -2.33722e-20)
(-0.000262656 0.0103909 2.30133e-21)
(-0.00141385 0.0102944 -5.60491e-20)
(0.000332985 0.0115323 5.20386e-20)
(0.00304887 0.0116221 -9.84166e-21)
(0.00277973 0.00932418 -1.05206e-22)
(0.00222062 0.00731785 0)
(0.00250574 0.00552031 0)
(0.00179946 0.00458937 0)
(0.00176212 0.00330099 0)
(0.00162349 0.00225115 0)
(0.0015459 0.00148736 0)
(0.00153501 0.000764083 0)
(0.00143296 0.000267708 0)
(0.00131669 -5.89244e-05 0)
(0.00118648 -0.000250959 0)
(0.000949067 -0.000221688 0)
(0.000854538 -0.000225829 0)
(0.000745325 -0.00014804 0)
(0.000701112 -8.65157e-05 0)
(0.00074039 -1.13885e-05 0)
(5.98527e-05 8.10068e-06 0)
(3.86685e-05 -0.000280104 0)
(7.52184e-05 -0.000346917 0)
(-0.000121799 -0.000401982 0)
(-0.000250331 -0.000400442 -1.93698e-20)
(-0.000527553 -0.000415479 0)
(-0.000792891 -0.000345184 0)
(-0.00112573 -0.000357455 0)
(-0.00154398 -0.00036688 0)
(-0.00212969 -0.000337318 0)
(-0.00315978 -0.000456293 0)
(-0.00378582 -0.000347806 0)
(-0.00394114 4.4748e-05 2.94951e-22)
(-0.00437291 0.00108475 -3.78696e-20)
(-0.00502484 0.00240227 -2.26533e-20)
(-0.00418879 0.00371524 1.8863e-19)
(-0.00238119 0.00504416 1.44547e-19)
(0.000599638 0.00564031 -6.76806e-19)
(0.00229323 0.00607029 2.32385e-19)
(0.00222398 0.00786808 4.08607e-19)
(0.00283569 0.0085177 -1.99687e-19)
(0.00128574 0.00649728 -6.852e-20)
(0.00153193 0.004436 2.67433e-19)
(0.00313856 0.00431845 -2.10372e-19)
(0.00510894 0.0039309 -8.88398e-20)
(0.0045453 0.00286261 2.29197e-20)
(0.00367796 0.0016699 3.78333e-20)
(0.00414743 1.70879e-05 -2.0013e-22)
(0.0040132 -0.00109584 0)
(0.003536 -0.00205226 0)
(0.00283726 -0.00273373 0)
(0.00221526 -0.00298477 0)
(0.00163616 -0.00294899 0)
(0.00118886 -0.0027614 0)
(0.000782744 -0.00233149 0)
(0.000517925 -0.00204542 0)
(0.00036963 -0.0015638 0)
(0.000157468 -0.00125553 0)
(1.37403e-05 -0.000675602 0)
(2.24325e-05 -0.000313907 0)
(0.000615777 -0.000336285 0)
(0.00052052 -0.000154641 0)
(0.000166989 -0.000661977 0)
(8.73789e-05 -0.000844605 0)
(1.88914e-05 -0.00145051 0)
(-8.46027e-05 -0.0019558 0)
(-0.000285872 -0.00261593 0)
(-0.000466624 -0.0032073 0)
(-0.000818144 -0.00393916 0)
(-0.00127631 -0.00460551 0)
(-0.00120242 -0.00497755 -5.66878e-22)
(-0.00211906 -0.00552709 -1.28037e-22)
(-0.00277233 -0.00538571 1.51314e-19)
(-0.00477638 -0.00530916 -5.3849e-20)
(-0.00610405 -0.00417583 -1.24567e-19)
(-0.00559902 -0.00250977 -1.37006e-19)
(-0.00458545 -0.00116371 1.23514e-19)
(-0.0040191 0.0014412 -3.32509e-19)
(-0.00356067 0.00293645 8.2456e-19)
(-0.000873655 0.00437667 -6.56675e-19)
(0.00261705 0.00410598 1.00898e-19)
(0.00354676 0.00335607 3.59695e-19)
(0.00426587 0.00202679 -2.40947e-19)
(0.00467173 -0.000493725 7.75826e-21)
(0.00666674 0.000127262 -2.5362e-20)
(0.00795361 -0.000945658 4.95805e-20)
(0.00789361 -0.00239667 1.01409e-19)
(0.00650211 -0.00290722 -1.74104e-19)
(0.00512939 -0.00378217 2.6442e-20)
(0.00424441 -0.00397144 4.37901e-22)
(0.00335896 -0.00381174 0)
(0.0021571 -0.00343161 0)
(0.0012984 -0.00303378 0)
(0.000682215 -0.00264497 0)
(0.0001427 -0.00223484 0)
(-0.000111186 -0.00184023 0)
(-0.000353875 -0.0014948 0)
(-0.000518334 -0.000851938 0)
(-0.000503694 -0.000815589 0)
(-0.000510002 0.000100619 0)
(0.00101114 0.0001237 0)
(0.00101006 -0.000651215 0)
(0.00104226 -0.000924992 0)
(0.00116685 -0.00158288 0)
(0.00110677 -0.00233945 0)
(0.00114384 -0.00305444 0)
(0.00105799 -0.00391713 0)
(0.00102381 -0.00496549 0)
(0.000824917 -0.00593256 0)
(0.000741787 -0.00694689 9.44672e-21)
(-0.000653033 -0.00770473 1.24058e-20)
(-0.00221163 -0.00709907 -1.35559e-19)
(-0.00569996 -0.00701939 5.09371e-20)
(-0.00593251 -0.00419564 4.37645e-19)
(-0.00658645 -0.00308822 -1.14605e-19)
(-0.00933638 -0.00283723 -4.35267e-19)
(-0.0088395 -0.000847967 -7.66078e-19)
(-0.00718582 0.000297553 1.23293e-18)
(-0.0085879 0.00160881 -2.22341e-20)
(-0.00408258 0.00145655 4.82746e-19)
(-0.000278876 -0.000685055 -1.42409e-18)
(0.00320004 -0.00038306 2.59899e-19)
(0.00380695 -0.000203574 -4.11829e-19)
(0.00475245 -0.00191292 2.34366e-19)
(0.00592469 -0.00144556 8.07726e-19)
(0.0081973 -0.000351367 6.42433e-20)
(0.00916584 -0.000103325 -2.91384e-19)
(0.00795737 -0.00172607 -4.70611e-19)
(0.0064233 -0.00272304 5.34273e-19)
(0.00396726 -0.00290523 -5.36924e-20)
(0.00247268 -0.00261319 -4.51807e-21)
(0.0017637 -0.0022275 0)
(0.000889717 -0.00173879 0)
(0.000286037 -0.00137686 0)
(-0.000144432 -0.00115644 0)
(-0.000427967 -0.000764635 0)
(-0.000683249 -0.000591513 0)
(-0.000766701 -0.000523977 0)
(-0.00103156 2.64444e-05 0)
(-0.00100705 -0.000667551 0)
(0.00110986 -0.00016093 0)
(0.00118538 -0.001247 0)
(0.00138529 -0.00130739 0)
(0.00141271 -0.00243276 0)
(0.001639 -0.00274672 0)
(0.00172392 -0.00348654 0)
(0.00194263 -0.00417614 0)
(0.00212462 -0.00511954 0)
(0.00206202 -0.00618228 -6.5311e-21)
(0.00118213 -0.00658864 -6.75403e-21)
(-0.000891992 -0.00619691 6.79397e-20)
(-0.00335724 -0.00529516 -1.97527e-19)
(-0.00434485 -0.00351618 6.9974e-19)
(-0.00854453 -0.00563832 -6.74167e-19)
(-0.00722235 -0.00230752 -3.61684e-19)
(-0.00711489 0.00127046 3.37258e-19)
(-0.0100504 0.000815989 1.09073e-18)
(-0.00856044 0.00166517 -1.02069e-18)
(-0.00611824 0.00200995 -6.43466e-19)
(-0.00455353 -0.000331534 7.36097e-19)
(-0.00089513 -0.00227852 5.79981e-19)
(0.00319165 -0.00296642 -4.01431e-19)
(0.00415069 -0.00418292 7.8856e-19)
(0.0069978 -0.00252611 -8.7969e-19)
(0.0068214 -0.000820766 -5.521e-19)
(0.00866694 -0.000423669 5.21291e-19)
(0.00912238 0.0019261 3.64557e-19)
(0.0109088 0.00192088 -3.32176e-19)
(0.00856738 0.000280753 -1.58153e-19)
(0.00552169 -0.00144319 -3.29051e-20)
(0.0023202 -0.00246433 9.50225e-20)
(0.000901334 -0.00240329 -1.02092e-20)
(0.000275767 -0.00207665 0)
(-0.000318261 -0.00145637 0)
(-0.000723687 -0.00104966 0)
(-0.00105896 -0.000905658 0)
(-0.00135003 -0.000313458 0)
(-0.00140562 -0.000515168 0)
(-0.0013101 -0.000125386 0)
(-0.00145736 0.000223051 0)
(0.00181011 -0.00135956 0)
(0.00183867 0.000651921 0)
(0.00204438 -0.00129664 0)
(0.00244887 -0.000928641 0)
(0.00236643 -0.00166271 0)
(0.0025279 -0.00243717 0)
(0.00284619 -0.00343444 0)
(0.0028967 -0.00468335 -2.73756e-21)
(0.0019744 -0.00517026 -1.08191e-19)
(-0.000554164 -0.00453194 1.2538e-19)
(-0.00349579 -0.00227456 -3.06805e-20)
(-0.00558555 -0.00198343 -1.34978e-20)
(-0.00301057 0.000478788 -1.06486e-19)
(-0.00903262 0.000817021 -8.76664e-20)
(-0.00480066 -0.00251514 7.93207e-19)
(-0.00475771 -0.00181434 -8.24746e-19)
(0.00125214 0.0102027 3.64168e-19)
(-0.00886718 0.00581132 3.0222e-19)
(-0.00451835 0.00420816 1.55537e-20)
(-0.00385333 0.00144811 -3.53117e-19)
(-0.000380987 -0.00576957 1.59703e-18)
(0.00156126 -0.00303074 -4.3486e-19)
(0.00617456 -0.0050744 -1.30477e-18)
(0.00948459 -0.00646391 2.74772e-19)
(0.00950242 -0.0025944 -2.80318e-20)
(0.0107712 0.000588064 -6.77518e-19)
(0.00870172 0.00236005 2.52279e-19)
(0.0127048 0.00319177 3.72038e-19)
(0.0103088 0.00165391 -1.09279e-19)
(0.00860453 -0.000118277 -1.39405e-19)
(0.0038908 -0.00235995 3.39976e-20)
(0.000273671 -0.00341995 -5.38931e-20)
(-0.00119435 -0.00308692 1.12501e-21)
(-0.00159663 -0.00214527 0)
(-0.00165248 -0.00118333 0)
(-0.00171381 -0.000614038 0)
(-0.00156316 -0.00050548 0)
(-0.00145305 0.000664056 0)
(-0.00138064 -0.000866699 0)
(-0.00150625 0.000801649 0)
(0.00205864 0.00205464 0)
(0.0019449 -0.00111203 0)
(0.00221625 -0.000152962 0)
(0.00225907 -0.00035522 0)
(0.00275138 -0.00124793 0)
(0.00321263 -0.00167414 0)
(0.00383479 -0.00274579 0)
(0.00353589 -0.00368866 -4.0534e-21)
(5.15958e-05 -0.00262467 -3.38206e-20)
(-0.00374288 -0.000569687 -8.23766e-20)
(-0.00528557 -0.000577199 5.37944e-19)
(-0.00688424 0.000609304 -1.5978e-19)
(-0.0065968 -0.0135576 2.68363e-19)
(0.000931031 -0.00605012 7.35892e-19)
(-0.0107772 0.000143297 8.87201e-19)
(-0.0120456 -0.000926532 -1.9601e-19)
(-0.0144133 -0.00444915 1.44295e-18)
(-0.00754606 0.00702573 -3.44306e-20)
(-0.00448223 0.00547083 1.86665e-18)
(-0.00484921 0.00314606 -1.70529e-18)
(-0.00368613 -0.00606345 8.55436e-21)
(-0.00206625 -0.00598621 -2.42526e-18)
(0.00264852 -0.00684165 5.08337e-20)
(0.00457645 -0.00245356 -4.44365e-19)
(0.00318597 0.000610619 2.83951e-19)
(0.00356058 -0.00188329 5.01698e-19)
(0.0110823 -0.00596858 4.52269e-19)
(0.0104596 0.00547224 -1.11242e-21)
(0.0106701 -2.1322e-05 -1.66879e-20)
(0.00937865 0.00210553 1.94455e-19)
(0.0057405 -8.1737e-05 -1.42077e-19)
(0.00121829 -0.00156477 -2.26371e-20)
(-0.00257959 -0.00217548 2.43531e-20)
(-0.00327035 -0.00174504 0)
(-0.00292698 -0.00111759 0)
(-0.00256014 -0.000362495 0)
(-0.00237561 -0.000573364 0)
(-0.00203393 -0.000987256 0)
(-0.00188682 0.00102775 0)
(-0.00163355 -0.00203494 0)
(0.00169561 -0.00108967 0)
(0.00245164 -0.00195765 0)
(0.00235621 -0.000725624 0)
(0.00263824 -0.0026192 0)
(0.00328178 -0.00194281 0)
(0.00395878 -0.00220023 0)
(0.00456998 -0.00282341 -4.28808e-22)
(0.00194947 -0.00181319 1.33431e-20)
(-0.00363916 0.000457074 -1.85781e-20)
(-0.00697793 0.00202939 1.61459e-20)
(-0.00750224 0.00210761 -7.69745e-20)
(-0.00715727 0.00398832 8.43883e-20)
(-0.0101923 -0.0123249 -3.31794e-21)
(-0.008558 -0.0127348 -9.86293e-20)
(-0.00328539 -0.000131655 2.39798e-19)
(-0.0123397 -0.00809614 3.04689e-19)
(-0.00500963 -0.000739406 2.92782e-19)
(-0.00592798 -0.0117489 -5.47124e-19)
(-0.00477549 0.00421937 -1.11586e-18)
(-0.00168052 0.00395672 1.30445e-18)
(0.0018656 0.00509119 -1.68824e-18)
(0.00737462 0.0056084 3.65418e-19)
(0.00790269 -0.00265177 -1.41875e-18)
(0.00618102 -0.000421684 2.40797e-19)
(0.0101716 -0.0118081 1.38385e-18)
(0.0101798 -0.0059079 4.23166e-19)
(0.000419811 -0.00459391 -1.06519e-19)
(0.00485432 0.000835317 1.07947e-19)
(0.00630002 -0.00038731 -9.4058e-21)
(0.00616867 0.00103051 -1.31864e-19)
(0.0055799 0.00271414 -2.00672e-20)
(0.0025242 0.00244839 8.39829e-20)
(-0.00226121 0.000745915 -1.85712e-20)
(-0.00468463 0.000499573 1.18625e-21)
(-0.00393219 0.0010021 0)
(-0.00313557 0.00105052 0)
(-0.00238231 0.00207898 0)
(-0.0020092 0.000728338 0)
(-0.001646 0.000891079 0)
(-0.00186761 0.00170109 0)
(0.00211623 -0.00381377 0)
(0.00155805 0.00307402 0)
(0.00219423 -0.00135764 0)
(0.00292299 0.000408398 0)
(0.00321365 0.000496952 0)
(0.00408981 -8.18204e-05 0)
(0.00391728 -5.45545e-05 6.77327e-21)
(-0.00100635 0.000856135 -1.05954e-20)
(-0.00619545 0.00160202 2.44334e-20)
(-0.0081025 0.00200221 -3.86484e-20)
(-0.00758744 -0.00147173 6.5845e-20)
(-0.010102 -0.00222857 3.2119e-20)
(-0.0148526 0.00131279 -6.47443e-20)
(0.00272655 -0.0102227 -6.43715e-20)
(-0.00427236 0.00186734 4.41711e-20)
(-0.00238157 -0.0283026 -5.21517e-20)
(-0.00497781 -0.0104723 3.20641e-20)
(-0.0123336 -0.0113819 4.44651e-20)
(-0.00968274 -0.00526782 6.73104e-21)
(-0.00916157 0.0119481 -2.17642e-19)
(0.00235443 0.015612 1.91511e-19)
(0.0118135 0.00792826 -2.70865e-19)
(0.0187131 0.000308469 9.76893e-20)
(0.00596269 -0.00786327 3.45064e-19)
(0.00886447 -0.00983162 1.73524e-19)
(0.00924329 -0.000419439 1.08131e-18)
(0.0103157 -0.0193508 -7.85303e-20)
(-0.00642908 -0.00282667 3.41932e-20)
(-0.00251995 -1.2898e-06 -6.12911e-20)
(0.00124789 0.00307227 2.46239e-20)
(0.00305192 0.00476228 -3.5728e-21)
(0.0030502 0.00496278 -1.11749e-20)
(-0.00025545 0.00367219 3.57537e-20)
(-0.00462663 0.00210899 -1.2635e-20)
(-0.00430599 0.00206207 0)
(-0.00303124 0.00168378 0)
(-0.00211513 0.00136266 0)
(-0.00162046 0.00294137 0)
(-0.00177128 -0.00113679 0)
(-0.00120821 0.00212658 0)
(0.00115855 0.00764447 0)
(0.00121827 -0.00133641 0)
(0.00104436 0.00194563 0)
(0.000773728 0.00265022 0)
(0.00182168 0.00147903 0)
(0.00339105 0.00122692 0)
(0.00216519 0.00173541 -2.03249e-21)
(-0.00268444 0.00248474 3.95634e-21)
(-0.00425475 0.000386994 -2.05935e-20)
(-0.00552439 -0.00102882 5.63288e-20)
(-0.00490852 -0.00445381 -3.75348e-20)
(-0.00223019 -0.0132913 -2.29025e-20)
(-0.00264395 -0.00129361 1.68112e-20)
(0.00664577 -0.0130042 8.54349e-20)
(-0.0101113 -0.0191401 -9.23155e-20)
(0.0114885 -0.0214671 -3.67863e-20)
(0.011384 -0.032069 -3.63473e-20)
(-0.0181126 -0.0281634 5.71019e-20)
(-0.0443304 -0.0146353 2.36771e-20)
(-0.0418075 0.0310913 4.18818e-20)
(0.0032805 0.0688854 -1.09744e-18)
(0.0464575 0.0242852 4.05526e-20)
(0.0279065 -0.0156872 3.96059e-21)
(0.0121966 -0.0233733 1.43445e-20)
(0.00562159 -0.010452 -2.27414e-20)
(-0.00934107 -0.0115257 3.65238e-20)
(-0.00448143 0.0101371 -8.11665e-21)
(-0.0108752 -0.0105384 3.27979e-20)
(-0.00387401 0.00684537 1.70496e-21)
(-0.00254139 0.00599431 -3.81712e-20)
(0.00042319 0.00555988 -7.07207e-21)
(0.00247077 0.00629184 3.80245e-21)
(0.00151511 0.00591892 -7.88241e-21)
(-0.00335348 0.00385083 7.41343e-23)
(-0.00486694 0.00218465 0)
(-0.00410086 0.00163096 0)
(-0.003588 -0.000421667 0)
(-0.00250747 -0.00062432 0)
(-0.00104555 0.0016896 0)
(-0.000531302 -0.00422434 0)
(0.000140881 -0.00268098 0)
(0.00207846 -0.000889688 0)
(0.00215715 0.00265537 0)
(0.00363419 0.00108214 0)
(0.00444145 0.0020239 0)
(0.00463117 0.00308123 0)
(0.00269779 0.00374738 5.12508e-22)
(-0.000843486 0.00411128 -2.00316e-22)
(-0.000239458 0.00269818 -6.84452e-22)
(0.000863745 3.03368e-05 3.89787e-21)
(0.00133186 -0.000254851 -3.93217e-21)
(0.00690222 -0.00412402 4.48808e-21)
(0.0232587 -0.00248521 -2.03776e-21)
(-0.0157742 -0.00771783 -8.72008e-21)
(0.00931634 -0.0216891 6.43734e-21)
(-0.00358468 -0.028039 -4.75302e-20)
(-0.0039181 -0.0408299 -1.04601e-19)
(-0.0141281 -0.0615149 -2.25597e-20)
(-0.152687 -0.0250947 1.97468e-18)
(0.106352 -0.0408186 -4.42894e-18)
(-0.00983821 -0.0591131 2.57197e-20)
(-0.0211127 -0.0487335 5.72332e-20)
(-0.0269921 -0.0341206 5.33985e-20)
(-0.0201431 -0.00384183 4.09514e-20)
(0.00315587 -0.00369629 -9.28473e-21)
(-0.00192734 0.0034655 -9.23472e-21)
(-0.000945021 0.00329138 2.64626e-21)
(-9.69445e-05 0.00490645 8.50241e-21)
(0.00147537 0.00640919 -2.73525e-21)
(0.00193829 0.00663697 4.0766e-22)
(-0.000306612 0.00624811 -1.73417e-22)
(-0.00161789 0.0049046 0)
(-0.000504851 0.0040518 0)
(0.00042465 0.00335432 0)
(-5.60848e-05 0.000418426 0)
(-0.00011081 0.00183084 0)
(-0.00127696 0.000966718 0)
(-0.00301454 -0.00810494 0)
(-0.00338514 0.00283815 0)
(-0.000944998 -0.00156155 0)
(0.0003541 0.00138747 0)
(0.00115825 0.00429123 0)
(0.00211927 0.00657272 0)
(0.000699823 0.00790515 1.00506e-21)
(0.000199957 0.00861734 6.77077e-21)
(0.000171831 0.00825754 -5.17848e-21)
(0.00252139 0.00739975 -4.05202e-21)
(0.00599893 0.00764201 -2.27571e-21)
(0.00935109 0.0115316 7.43799e-20)
(0.0202204 0.00468945 -1.10982e-19)
(0.0271252 -0.00289319 -1.86571e-20)
(0.0380129 -0.0145581 -1.82018e-20)
(0.034799 -0.0297372 -2.89788e-20)
(0.0380291 -0.0479714 -7.59365e-20)
(0.0445006 -0.0771363 -2.41111e-20)
(0.0177306 -0.0967718 -2.5353e-18)
(-0.0221712 -0.100683 -1.273e-18)
(-0.0658928 -0.0554442 -4.2039e-20)
(-0.044458 -0.0171832 -1.80336e-20)
(-0.0223074 -0.000457956 -2.34157e-20)
(-0.0186773 -0.00747932 -2.11613e-20)
(-0.0102841 0.00415486 2.37399e-20)
(-0.00491409 -0.00547528 -2.77506e-20)
(-0.00357679 0.00108459 -2.25648e-20)
(-0.00126147 0.00484147 4.48794e-21)
(0.000739779 0.00593076 -1.10199e-20)
(0.000931261 0.00666826 5.39614e-21)
(-0.000121721 0.00727827 2.12881e-22)
(-0.000819634 0.00697893 0)
(-0.000296513 0.00634629 0)
(-0.000275667 0.0070889 0)
(-0.000796675 0.00705712 0)
(-0.00168644 0.00257815 0)
(-0.000249883 0.0069899 0)
(0.0131358 0.0125155 -2.1417e-23)
(0.00171112 0.00346646 0)
(-0.00148433 0.00474548 0)
(-0.00349742 0.00561628 0)
(-0.00304699 0.00594881 0)
(-0.000922648 0.00753599 0)
(-0.000133426 0.00874814 3.9486e-21)
(0.000125077 0.00885026 -1.62129e-20)
(0.00243044 0.0077553 3.23581e-20)
(0.00481023 0.00761356 -2.64828e-20)
(0.00685882 0.00799379 1.01344e-19)
(0.0128416 0.0144507 -3.53792e-19)
(0.0123072 0.0126145 1.68875e-19)
(0.0282122 -0.00436827 -2.04308e-19)
(0.0404142 -0.00551486 3.69277e-20)
(0.049046 -0.0217754 1.27323e-19)
(0.0540025 -0.0362172 2.68914e-19)
(-0.0084728 -0.0176116 7.16328e-20)
(0.0280822 0.0773117 -4.79304e-19)
(-0.0509506 0.0307514 -8.60413e-19)
(-0.0677927 0.00862047 -1.37391e-19)
(-0.0643448 0.00881875 -2.40009e-19)
(-0.0391342 0.0151228 3.19052e-19)
(-0.0167172 0.0143039 -3.55216e-19)
(-0.00911939 0.0197414 -2.32903e-20)
(-0.0135346 0.0202656 1.034e-19)
(-0.012037 0.00988955 1.12934e-19)
(-0.00256984 0.00943838 6.44376e-20)
(-0.000209253 0.00944388 6.25172e-22)
(0.00108605 0.00905732 -3.32117e-20)
(0.000984495 0.0079773 7.64358e-22)
(-0.00101352 0.00547823 0)
(-0.00158134 0.00317902 0)
(-0.00112694 0.00145285 0)
(0.000807066 0.0015211 0)
(0.00206993 0.000483224 0)
(0.00602111 -0.00421688 0)
(-0.0145117 0.000810092 -3.58661e-23)
(-0.00618672 -0.000230994 0)
(-0.0016822 0.00577611 0)
(-0.000260956 0.00697811 0)
(-0.0011188 0.00709724 0)
(-0.000795442 0.00675111 0)
(0.0035203 0.00856186 -2.57128e-21)
(0.0065103 0.00756334 -5.60422e-21)
(0.00841998 0.00821643 -2.16853e-20)
(0.0116966 0.00785442 9.26285e-20)
(0.0119561 0.00763247 1.42117e-19)
(0.0191736 0.0141503 -4.75711e-19)
(0.0167559 0.0128233 2.55962e-19)
(0.0509146 0.00785258 -2.76198e-19)
(0.0611878 0.00794877 -2.23713e-19)
(0.0712209 -0.018689 1.01846e-19)
(0.0941024 -0.0478521 -1.222e-19)
(-0.103196 -0.129163 -6.51126e-19)
(0.11238 -0.152308 2.80037e-19)
(0.463152 -0.261466 1.22711e-19)
(-0.0884334 -0.54506 4.71214e-20)
(-0.576054 -0.0232432 -8.53711e-20)
(0.118158 0.191318 4.38067e-21)
(-0.0604189 0.0632521 -1.65774e-20)
(-0.0533334 0.0399687 1.29389e-19)
(-0.0358102 0.0305167 1.49023e-19)
(-0.0284712 0.0442341 -3.23597e-19)
(-0.0190769 0.029728 -4.33437e-19)
(0.00653452 0.0122452 4.60893e-19)
(0.0122039 0.00868553 -1.4181e-19)
(0.00283576 0.00940445 1.46137e-20)
(0.000489283 0.00928283 -1.58263e-20)
(0.00322995 0.00905638 3.30801e-20)
(0.00286985 0.00907641 -3.4879e-21)
(0.00516537 0.00805347 0)
(0.00346402 0.00475666 0)
(0.00164115 0.00173318 0)
(0.000759564 -0.000190298 0)
(-0.00090226 0.00236332 0)
(-0.00366708 -0.00046949 0)
(-0.000579141 -0.00227233 1.2958e-21)
(0.000945323 -0.00139233 0)
(-0.000979941 -0.00106335 0)
(0.000288111 0.000625345 0)
(0.00195448 0.00426271 0)
(0.000373422 0.00756404 0)
(0.00388081 0.00934554 -1.03255e-22)
(0.00991291 0.0107711 2.00651e-21)
(0.0120323 0.0112743 -2.40768e-20)
(0.0130673 0.0105825 -9.84516e-21)
(0.0188242 0.016623 2.60461e-20)
(0.0194473 0.0109932 7.21375e-20)
(0.02102 0.0367474 -1.72064e-19)
(0.0335308 0.0302008 2.58685e-19)
(0.0635193 0.0355355 -2.6866e-19)
(0.111322 0.0488143 -9.94258e-19)
(0.214638 -0.0123301 1.39552e-18)
(-0.0552053 -0.242423 4.93793e-18)
(0.0945854 -0.104613 1.98322e-18)
(0.712616 -0.191974 1.22201e-18)
(-0.15668 -0.225361 -3.90944e-19)
(-1.33424 -0.159686 -1.36513e-19)
(0.435639 0.317919 1.26181e-19)
(0.0415755 0.0681569 2.09366e-18)
(-0.0318386 0.0710643 4.43882e-19)
(-0.0100917 0.0702469 -3.75207e-19)
(0.00265928 0.0506945 -1.01134e-19)
(0.0223184 0.017735 3.72227e-19)
(0.0163766 0.00776172 1.93416e-19)
(0.015202 0.00335645 1.37817e-20)
(0.0253248 0.0132516 -2.5532e-20)
(0.0135192 0.00955288 8.28256e-20)
(0.00756312 0.011105 -1.10111e-20)
(0.00629976 0.0101038 -7.21511e-26)
(0.0111115 0.00859706 0)
(0.0121465 0.00839396 0)
(0.0100769 0.00961222 0)
(0.0082175 0.00823365 0)
(0.00497126 0.00428732 0)
(0.000660369 0.00301583 -3.19372e-21)
(-0.00765625 -0.00120416 9.40944e-21)
(-0.00203558 0.00540947 0)
(-0.00300207 0.00511971 0)
(-0.00475739 0.00596552 0)
(-0.00570516 0.00650293 0)
(-0.00322015 0.00759316 0)
(-0.000415665 0.010681 0)
(0.00445281 0.014784 1.27908e-21)
(0.00749243 0.0172649 1.77495e-20)
(0.00624043 0.0262362 -4.27512e-20)
(0.00849347 0.0357675 -1.6469e-21)
(0.00520476 0.0483479 -1.58779e-19)
(0.00462291 0.0640833 1.20754e-19)
(0.00342752 0.0973579 6.43014e-20)
(0.038886 0.124322 -3.4907e-19)
(0.0868998 0.150474 -1.57798e-19)
(0.30476 0.194957 4.94853e-19)
(0.0625783 0.172454 1.11869e-17)
(0.345729 -0.331952 1.64529e-18)
(0.561111 -0.0837263 6.90043e-18)
(-0.590465 0.569231 -1.57874e-18)
(-1.4021 0.213965 -5.37376e-18)
(-0.059956 -0.0763722 4.39658e-19)
(0.147588 0.0423242 4.85706e-18)
(-0.0408518 0.165245 1.15819e-18)
(-0.0015882 0.101794 -1.09596e-18)
(0.0457375 0.0638129 -3.37263e-19)
(0.034901 0.0327506 8.91794e-20)
(0.0211367 0.025318 2.05048e-19)
(0.00844438 0.0223795 6.56122e-20)
(-0.00276128 0.00903506 3.19533e-20)
(0.00202827 0.0122479 -2.39376e-20)
(0.0035529 0.00968324 -2.79589e-21)
(0.00757507 0.00351535 0)
(0.00938849 0.00347374 0)
(0.00842588 0.000826027 0)
(0.0074931 -0.000709634 0)
(0.00694021 -0.00236379 0)
(0.00824502 -0.00134685 0)
(0.00918695 0.000676207 -4.49066e-22)
(-0.00671772 -0.00114607 -2.16738e-22)
(-0.00543165 0.000979154 0)
(-0.00608487 0.00230049 0)
(-0.00606922 0.00214707 0)
(-0.00678367 0.00180632 0)
(-0.00879528 0.00282223 0)
(-0.00737295 0.00702712 0)
(-0.00500331 0.0133715 0)
(-0.00362482 0.0181607 -2.48297e-21)
(-0.0118373 0.0268879 3.10507e-20)
(-0.0139772 0.0357356 -6.43614e-21)
(-0.0281494 0.0501064 4.35093e-20)
(-0.0248106 0.0745642 -1.90579e-19)
(-0.0510333 0.0965071 1.81369e-19)
(-0.0489293 0.146734 5.85599e-20)
(-0.0327777 0.246433 1.44907e-18)
(0.122895 0.382284 2.71508e-19)
(0.995896 0.436291 8.15025e-19)
(-0.0447655 -0.281335 -1.10238e-18)
(-0.8615 0.62938 -8.65633e-18)
(0.00850899 0.561179 -1.53007e-18)
(-0.741197 0.284102 5.20209e-18)
(0.100366 0.259909 2.42885e-18)
(-0.234095 0.203394 1.44435e-18)
(0.00337158 0.328172 -1.91504e-19)
(0.121832 0.177159 -2.6168e-19)
(0.137633 0.00520211 1.05548e-20)
(0.0713294 0.0107942 -1.5905e-19)
(0.0502152 0.014912 1.54656e-20)
(0.0276038 0.0149721 7.39753e-20)
(0.0207327 0.00646364 -5.73803e-20)
(0.0173544 0.00123986 4.68376e-21)
(0.00916228 -0.00436258 0)
(0.0153355 -0.00202454 0)
(0.0118916 -0.00150412 0)
(0.00936907 -0.00164688 0)
(0.00755305 -0.000795856 -3.05762e-20)
(0.00558619 -0.00010018 -4.22849e-20)
(0.00716335 0.000759506 -2.52149e-20)
(0.00751359 0.00108095 0)
(-0.00410758 -0.00243144 0)
(-0.0021926 -0.00252317 0)
(-0.00160758 -0.00231527 0)
(-0.00227222 -0.00214002 0)
(-0.00412117 -0.000600096 0)
(-0.00791708 0.000838403 0)
(-0.0130661 -0.000653757 0)
(-0.0154528 0.00511247 0)
(-0.0104519 0.0104474 3.3349e-23)
(-0.0123438 0.0128475 1.66394e-21)
(-0.0200872 0.0149568 1.9091e-20)
(-0.0329685 0.0152471 -6.32813e-20)
(-0.0476264 0.0261203 9.90044e-20)
(-0.112135 0.0450812 5.81235e-20)
(-0.118377 0.121967 -3.62736e-18)
(-0.171657 0.183274 -2.56128e-19)
(-0.0702446 0.32861 1.71772e-19)
(0.559357 0.629234 -6.70166e-19)
(0.637097 0.842108 2.03536e-18)
(-0.44022 0.295749 -3.15158e-18)
(-0.817605 -0.0674967 2.75697e-18)
(0.0715511 -0.45301 4.70537e-18)
(0.334115 -0.18836 -3.78771e-19)
(-0.975699 0.507559 5.34164e-19)
(0.698082 0.3806 6.09566e-19)
(0.352173 0.0115876 -3.0836e-20)
(0.144658 -0.11448 2.11117e-19)
(0.0818328 -0.0511721 -1.14877e-19)
(0.0439087 -0.0397904 -8.55192e-20)
(0.0307883 -0.0254527 1.14365e-20)
(0.0142278 -0.0171227 1.47859e-21)
(0.0113707 -0.0112555 3.90092e-23)
(0.0116137 -0.00850652 0)
(0.0139288 -0.00579681 0)
(0.0120333 -0.00561934 0)
(0.0103157 -0.00372282 0)
(0.010157 -0.00346413 0)
(0.00941729 -0.00400509 0)
(0.00917161 -0.00397136 0)
(0.00731635 -0.000742719 4.54124e-21)
(0.00130391 -0.000567077 0)
(-0.00285437 0.00110241 0)
(-0.0054144 0.00209075 0)
(-0.008152 0.00408517 0)
(-0.00962129 0.00557887 0)
(-0.0113372 0.00723399 0)
(-0.0129495 0.00482837 0)
(-0.0158435 0.00128942 0)
(-0.0162001 -0.00139295 0)
(-0.011611 -0.00182966 0)
(-0.023141 -0.0181295 8.08842e-22)
(-0.03108 -0.0142552 -4.16764e-21)
(-0.0523528 -0.0315372 -6.92168e-20)
(-0.0849742 -0.048334 8.67527e-20)
(-0.18838 -0.0092515 -1.07223e-17)
(-0.475202 -0.0119762 -2.4728e-19)
(-0.332185 0.202753 -4.65069e-18)
(0.421251 0.482333 -6.40264e-19)
(0.421171 0.667639 2.59059e-18)
(0.144193 0.134873 -5.44327e-18)
(0.138951 -0.00242648 2.11637e-19)
(-0.162999 0.440259 -5.36702e-19)
(-0.812722 0.614489 1.19171e-18)
(-0.947735 0.378916 -3.7242e-19)
(1.37699 -0.27266 -7.16841e-19)
(0.423374 -0.322214 4.32835e-19)
(0.043949 -0.156586 -3.28582e-21)
(0.0158306 -0.091714 -6.31418e-21)
(0.00424207 -0.0647961 -3.84111e-20)
(0.0028195 -0.0333823 -3.30758e-21)
(-0.000690013 -0.0177391 0)
(0.00232072 -0.0147127 0)
(0.00977781 -0.0101048 0)
(0.00984894 -0.0106245 0)
(0.00902383 -0.00935329 0)
(0.00731882 -0.00740546 0)
(0.00679615 -0.00673522 0)
(0.00596484 -0.00558976 0)
(0.00461992 -0.00330783 0)
(0.00305469 -0.00156991 0)
(-0.00579298 0.00422355 0)
(-0.00934107 0.00341601 0)
(-0.0112429 0.00385731 0)
(-0.0129882 0.00440996 0)
(-0.0137626 0.00407779 0)
(-0.013203 0.00373435 0)
(-0.0125086 0.00266976 0)
(-0.0102833 -0.00172252 0)
(-0.0107842 -0.00956713 0)
(-0.00531444 -0.01515 0)
(-0.0076262 -0.0273061 0)
(-0.0061612 -0.0422036 -4.55643e-22)
(-0.0411178 -0.0795866 3.37601e-21)
(0.00557869 -0.0891046 -7.32146e-21)
(-0.109355 -0.224421 -3.46904e-18)
(-0.442889 -0.272989 -1.44323e-20)
(-0.799954 -0.12288 -2.61039e-18)
(-0.269059 0.290946 -4.18233e-19)
(0.290309 0.333616 -6.59364e-19)
(0.504543 0.436549 2.03898e-18)
(0.369152 0.519713 -5.37893e-19)
(-0.303873 0.521828 8.68738e-19)
(-0.603429 -0.00511748 1.43025e-18)
(0.0451036 -0.672637 -6.79325e-19)
(1.49849 -0.921428 6.38489e-19)
(-0.0508661 -0.438408 -1.49715e-19)
(-0.110396 -0.115443 4.43064e-19)
(-0.0576648 -0.0815316 2.59859e-21)
(-0.0287245 -0.0442351 -5.02329e-22)
(-0.0159349 -0.0241468 0)
(-0.00719085 -0.0184392 0)
(-0.00130854 -0.0182531 0)
(0.00729575 -0.016655 0)
(0.00542243 -0.015666 0)
(0.00412779 -0.0123205 0)
(0.00339733 -0.00855426 0)
(0.00347773 -0.00623045 0)
(0.00356078 -0.00333673 0)
(0.0024673 -0.00102965 0)
(0.00268032 -0.000535754 0)
(-0.012603 0.00563288 0)
(-0.0110047 0.00287854 0)
(-0.00921939 0.00302695 0)
(-0.00798878 0.000169656 0)
(-0.00856033 -0.00241648 0)
(-0.00855578 -0.00517576 0)
(-0.00742197 -0.00655054 0)
(-0.00155615 -0.00783402 0)
(0.000305356 -0.0110034 0)
(0.0077579 -0.0243652 0)
(0.0113466 -0.018377 -3.45417e-20)
(0.0341095 -0.0556436 0)
(0.0164618 -0.0613854 0)
(0.0344035 -0.161348 -6.84644e-20)
(0.112598 -0.109457 -1.42513e-18)
(-0.339959 -0.311406 -5.88034e-18)
(-0.0936573 -0.886088 -1.42192e-20)
(0.300102 -1.46182 -5.70718e-20)
(-0.0153797 -1.53278 9.93057e-19)
(-0.278304 -1.02547 -6.68641e-18)
(-0.361673 -0.717258 -3.48801e-19)
(-0.100271 -0.460898 2.69434e-20)
(0.383908 -0.707546 -6.31454e-19)
(1.06605 -1.18301 2.37358e-19)
(0.370436 -0.605947 -8.62781e-20)
(-0.590319 0.0240231 -5.32727e-19)
(-0.228984 0.0134613 -1.12573e-20)
(-0.0976829 -0.00967157 0)
(-0.0488047 -0.00773372 0)
(-0.0230268 -0.0110577 9.67841e-21)
(-0.00881988 -0.0158379 0)
(0.000292034 -0.0143542 0)
(0.00233374 -0.0155665 0)
(0.000936518 -0.0112417 0)
(-0.000259116 -0.0100047 0)
(0.000318772 -0.00768428 0)
(0.000506546 -0.00650884 0)
(0.00112244 -0.00416146 5.0323e-21)
(0.00101449 -0.00120817 3.61023e-21)
(0.00240541 -0.0011369 0)
(-0.0143347 -0.00443999 0)
(-0.00771771 -0.0045927 0)
(-0.00481068 -0.00620513 0)
(-0.00408263 -0.00828218 0)
(-0.00498544 -0.00991007 0)
(-0.00543116 -0.012254 0)
(-0.00500731 -0.0139532 0)
(-0.000460707 -0.0140032 0)
(0.00403065 -0.0104845 0)
(0.0157648 -0.00885117 0)
(0.0371677 -0.00227612 -1.72804e-20)
(0.0633267 0.00425137 0)
(0.120099 0.00148315 0)
(0.0524978 -0.0757753 2.10178e-19)
(0.230678 -0.0496983 6.68478e-19)
(0.551215 -0.0978757 4.58851e-19)
(0.145174 0.038343 0)
(-0.491504 0.271131 -3.61923e-19)
(-0.529221 0.366646 1.51627e-19)
(-0.525566 0.331065 -4.40781e-18)
(-0.349085 -0.0114187 -7.94195e-18)
(0.134289 -0.134921 4.37408e-18)
(0.39508 -0.132364 7.84363e-20)
(0.286557 0.152119 0)
(-0.591 0.437332 4.03261e-19)
(-0.499178 0.305449 8.32067e-20)
(-0.112859 0.0972466 -5.09703e-21)
(-0.0440073 0.0554906 0)