/*--------------------------------*- C++ -*----------------------------------*\
| =========                 |                                                 |
| \\      /  F ield         | OpenFOAM: The Open Source CFD Toolbox           |
|  \\    /   O peration     | Version:  v2106                                 |
|   \\  /    A nd           | Website:  www.openfoam.com                      |
|    \\/     M anipulation  |                                                 |
\*---------------------------------------------------------------------------*/
FoamFile
{
    version     2.0;
    format      ascii;
    arch        "LSB;label=32;scalar=64";
    class       volScalarField;
    location    "0";
    object      p;
}
// * * * * * * * * * * * * * * * * * * * * * * * * * * * * * * * * * * * * * //

dimensions      [0 2 -2 0 0 0 0];

internalField   nonuniform List<scalar> 
11644
(
0.0249033
0.0253552
0.0263053
0.0277767
0.0297827
0.0323433
0.0354847
0.0392308
0.0435957
0.0485798
0.0541662
0.0602979
0.0668885
0.0738225
0.0809252
0.0879965
0.0948026
0.1011
0.106693
0.111347
0.114824
0.117001
0.117924
0.117776
0.116609
0.114483
0.111657
0.108356
0.104776
0.101116
0.0975227
0.094108
0.0909579
0.0881336
0.0856746
0.0836069
0.0819469
0.0807037
0.0798885
0.0794974
0.0240893
0.0245314
0.0254456
0.02686
0.028799
0.0312901
0.0343658
0.0380574
0.04239
0.0473788
0.0530197
0.0592867
0.0661104
0.0733668
0.0808812
0.0884348
0.0957776
0.102611
0.108599
0.113432
0.116949
0.119115
0.119918
0.119486
0.117946
0.115477
0.112293
0.108645
0.104774
0.100873
0.0970924
0.0935474
0.0903122
0.0874371
0.0849526
0.0828785
0.0812233
0.0799922
0.0791859
0.078795
0.0223835
0.0228154
0.0236832
0.0250084
0.026826
0.0291784
0.0321094
0.0356681
0.0399053
0.0448682
0.050593
0.0570994
0.0643597
0.0722788
0.0806939
0.0893256
0.0978334
0.105741
0.112551
0.117954
0.121762
0.123896
0.124275
0.123156
0.120782
0.117447
0.113451
0.109092
0.104621
0.100249
0.0961251
0.0923424
0.0889565
0.0859962
0.0834728
0.0813888
0.0797395
0.0785171
0.0777081
0.0773044
0.0198503
0.0202463
0.0210373
0.022233
0.0238739
0.0260132
0.0287119
0.0320431
0.0360923
0.040958
0.0467465
0.0535639
0.0614688
0.070455
0.0803426
0.0906812
0.10097
0.110722
0.119137
0.125665
0.129916
0.13175
0.13119
0.128739
0.124948
0.120173
0.114895
0.109453
0.104114
0.0990756
0.0944744
0.0903792
0.0868072
0.0837509
0.0811907
0.0791028
0.0774646
0.0762512
0.0754425
0.0750328
0.0165978
0.0169302
0.0175932
0.0186013
0.0199921
0.0218239
0.0241751
0.0271441
0.0308586
0.0354816
0.0412305
0.0483612
0.0570925
0.067483
0.0794293
0.0923129
0.10522
0.11817
0.129382
0.137668
0.142433
0.143394
0.14104
0.136093
0.129953
0.122957
0.115846
0.109034
0.102708
0.0969686
0.0918749
0.0874665
0.0837283
0.0806044
0.078038
0.0759762
0.0743743
0.0731943
0.0724088
0.0720141
0.0127704
0.0130083
0.013491
0.0142374
0.0152825
0.0166863
0.0185323
0.0209384
0.0240758
0.028216
0.033737
0.0410464
0.0504937
0.0624222
0.0770085
0.0937017
0.110861
0.128931
0.144654
0.15596
0.161342
0.16041
0.15455
0.145256
0.135095
0.124819
0.115168
0.106695
0.0994724
0.0932551
0.087895
0.0833309
0.079534
0.0764375
0.0739477
0.0719821
0.0704727
0.0693712
0.0686453
0.0682798
0.00852741
0.00865431
0.00891018
0.00931282
0.00990251
0.0107315
0.0118775
0.0134646
0.0157137
0.0190403
0.0239342
0.0308475
0.0403012
0.0532843
0.0706609
0.0924719
0.111337
0.133871
0.155789
0.173065
0.181662
0.180413
0.171223
0.157503
0.138789
0.123954
0.111194
0.101242
0.0934296
0.0871312
0.0819582
0.0776283
0.0740391
0.0711538
0.0688832
0.0671208
0.0657866
0.0648237
0.0641994
0.0638919
0.00406018
0.00405164
0.00404085
0.00404238
0.00407671
0.0041832
0.00442643
0.00491933
0.00593845
0.00793842
0.0113578
0.0167619
0.0249542
0.0382371
0.0554893
0.0780167
0.109771
0.146059
0.182163
0.210683
0.222655
0.215836
0.195376
0.17001
0.145282
0.123227
0.108275
0.0914594
0.0838946
0.0781071
0.0736599
0.0700707
0.0671015
0.0647057
0.062847
0.0614321
0.0603803
0.0596374
0.0591572
0.058924
-0.00040383
-0.000556381
-0.000858836
-0.00131144
-0.00191198
-0.00264681
-0.00348388
-0.0043384
-0.0049469
-0.00497267
-0.00409692
-0.00183721
0.00250158
0.0176392
0.0326059
0.058052
0.0932808
0.143675
0.20483
0.258392
0.282688
0.266914
0.225573
0.181203
0.142564
0.112244
0.0950359
0.0762329
0.0701753
0.0660251
0.06299
0.0606259
0.0587002
0.0571323
0.0559223
0.0550241
0.0543691
0.0539104
0.0536212
0.0534694
-0.00463025
-0.00491715
-0.0055166
-0.00643847
-0.00770386
-0.00934517
-0.011386
-0.0137891
-0.0164339
-0.0192376
-0.0220343
-0.0245614
-0.0268909
-0.0167791
-0.00987786
0.0132944
0.0499652
0.113733
0.21557
0.335965
0.395872
0.346859
0.248624
0.169432
0.114977
0.0805268
0.0686118
0.0542595
0.0524392
0.0511423
0.0502005
0.0495511
0.0490437
0.0486035
0.0482654
0.0480403
0.0478988
0.0478054
0.0477505
0.0477362
-0.00833552
-0.00878364
-0.00966324
-0.0110279
-0.0129234
-0.015437
-0.0186902
-0.0227427
-0.0276685
-0.033732
-0.0412
-0.0501956
-0.0614031
-0.0631827
-0.0724312
-0.0725977
-0.0613445
-0.0284025
0.0930485
0.369645
0.588055
0.385992
0.162198
0.0688744
0.0372955
0.0267138
0.0302499
0.0272047
0.0311797
0.0337295
0.0357499
0.0373599
0.0385752
0.0394744
0.0401816
0.0407592
0.0412142
0.0415483
0.0417596
0.0418513
-0.011369
-0.0118895
-0.0130009
-0.014732
-0.017166
-0.0204246
-0.0247233
-0.0302667
-0.037369
-0.0465626
-0.0586511
-0.0746545
-0.0962096
-0.108094
-0.145081
-0.178264
-0.238289
-0.357258
-0.650629
-0.375998
-0.155461
-0.0734667
-0.036379
-0.0135518
-0.0017714
0.00810277
0.0152894
0.0207515
0.0248232
0.0278935
0.0302444
0.0320729
0.0335004
0.0345682
0.0353303
0.0358326
0.0360829
-0.0134605
-0.0140697
-0.0153224
-0.0172835
-0.0200705
-0.0238208
-0.0287946
-0.035337
-0.0439634
-0.0553831
-0.0707036
-0.0915445
-0.119846
-0.145651
-0.199931
-0.263447
-0.373917
-0.586053
-0.845678
-0.39385
-0.271131
-0.148571
-0.0859071
-0.0502281
-0.0275821
-0.01265
-0.00156255
0.00674626
0.0129767
0.017774
0.0215179
0.024422
0.0266418
0.0282894
0.0294755
0.0302646
0.0306679
-0.0144829
-0.0151441
-0.0164578
-0.018508
-0.021397
-0.025281
-0.0304142
-0.0371989
-0.0462442
-0.0582931
-0.0744755
-0.0963166
-0.125861
-0.158479
-0.215949
-0.28875
-0.401332
-0.567595
-0.655702
-0.292725
-0.238683
-0.159062
-0.105092
-0.0719799
-0.0449401
-0.0279437
-0.014821
-0.00480707
0.00295231
0.00906779
0.0139355
0.0177422
0.0206075
0.0227232
0.0242171
0.0251779
0.02569
-0.0145501
-0.0150994
-0.0163547
-0.0182997
-0.0210206
-0.0246729
-0.029389
-0.0355499
-0.0437997
-0.0546323
-0.0690128
-0.0878384
-0.112466
-0.144691
-0.193373
-0.261874
-0.367935
-0.539915
-0.714368
-0.753477
-0.605277
-0.357148
-0.206387
-0.165546
-0.140665
-0.106432
-0.0795811
-0.0534575
-0.036883
-0.0234102
-0.0128352
-0.00432294
0.00250396
0.00806057
0.0124209
0.0156821
0.0180955
0.0197831
0.0208497
0.0212602
-0.013563
-0.0140612
-0.0151463
-0.0167917
-0.0190794
-0.0220902
-0.0258147
-0.0305227
-0.0367566
-0.0446462
-0.0546251
-0.0672923
-0.082947
-0.110333
-0.140986
-0.187183
-0.270978
-0.417918
-0.668372
-0.810647
-0.636922
-0.31327
-0.147639
-0.144512
-0.138372
-0.108265
-0.0825308
-0.0557563
-0.0399819
-0.0271038
-0.0167441
-0.00825927
-0.00132091
0.00435925
0.00879485
0.0121622
0.014679
0.016437
0.0175059
0.0179108
-0.0115407
-0.012034
-0.0128353
-0.0140319
-0.0156483
-0.0176886
-0.0201162
-0.0228692
-0.0262092
-0.0302208
-0.0348181
-0.0403279
-0.046113
-0.0504734
-0.0725948
-0.086867
-0.129122
-0.181104
-0.283898
-0.414519
-0.432328
-0.329833
-0.261443
-0.237237
-0.162994
-0.11498
-0.074055
-0.0533491
-0.038317
-0.0262804
-0.0166409
-0.00874734
-0.00225396
0.00297213
0.00707108
0.0102405
0.0126164
0.0142873
0.0153517
0.0158863
-0.00863864
-0.00891326
-0.00937958
-0.0100565
-0.0109036
-0.0118736
-0.012935
-0.013783
-0.0144008
-0.0148092
-0.0145952
-0.0132832
-0.00975042
-0.00590625
-0.00727869
0.0035727
-0.00215913
-0.015679
-0.0906938
-0.263846
-0.418018
-0.459252
-0.414925
-0.301554
-0.172362
-0.113369
-0.0661522
-0.0465702
-0.0325308
-0.021639
-0.0132045
-0.00639849
-0.000822215
0.00364234
0.00714286
0.00986141
0.0119301
0.0134232
0.0144255
0.0149573
-0.00507589
-0.00511115
-0.00526323
-0.00546129
-0.00562367
-0.0056584
-0.00546574
-0.00482121
-0.00353264
-0.00131297
0.0023294
0.00821927
0.0181138
0.0288045
0.0369114
0.0605848
0.0712905
0.049179
-0.0662781
-0.278342
-0.444803
-0.472163
-0.382144
-0.245344
-0.13607
-0.0901662
-0.0498354
-0.0336585
-0.0222701
-0.0136849
-0.00710939
-0.00180192
0.00252394
0.00598544
0.0087006
0.0108265
0.0124612
0.0136511
0.0144545
0.0148657
-0.00138997
-0.00131955
-0.00120765
-0.00101217
-0.000670791
-9.41645e-05
0.000866996
0.00237081
0.00470567
0.00825256
0.0133774
0.0208938
0.0318485
0.0452622
0.0556377
0.0755014
0.0816556
0.0432888
-0.058025
-0.199826
-0.290829
-0.282079
-0.209169
-0.135778
-0.0810799
-0.05487
-0.0255355
-0.0156476
-0.00833842
-0.00295493
0.00119572
0.0045694
0.00731304
0.00952848
0.0113233
0.0127631
0.0138811
0.0146947
0.0152321
0.0155014
0.00213409
0.00224675
0.00252047
0.0029525
0.0035665
0.00443907
0.00564962
0.00733346
0.00970597
0.0130527
0.0174976
0.0233136
0.030345
0.0389278
0.0456858
0.0458093
0.0380845
0.000182955
-0.0617544
-0.119378
-0.143511
-0.131117
-0.10081
-0.0731967
-0.0414562
-0.0221459
-0.00216774
0.00291913
0.00652844
0.00886697
0.0104421
0.0116975
0.0127179
0.0136273
0.014476
0.0152158
0.0158213
0.0162707
0.016552
0.0166805
0.00554436
0.00567796
0.00598783
0.00648301
0.00716215
0.00806385
0.00922392
0.0106563
0.0124258
0.0145589
0.0169745
0.0195407
0.0206581
0.0211687
0.00500306
-0.0108965
-0.0509177
-0.106229
-0.158205
-0.174859
-0.155977
-0.116252
-0.0732176
-0.0368103
-0.0125075
0.0102953
0.0162579
0.0187607
0.0196359
0.0193431
0.0187688
0.0182248
0.0178167
0.0176188
0.0176137
0.0177099
0.017854
0.0179991
0.0180997
0.0181322
0.00877919
0.00892613
0.00922684
0.009698
0.0103317
0.0111265
0.0121044
0.0131994
0.0143004
0.0151384
0.0152465
0.0147369
0.00960422
-0.00134296
-0.0211968
-0.0873133
-0.158197
-0.226035
-0.292709
-0.291957
-0.225358
-0.142596
-0.0686738
-0.0159592
0.0134434
0.026688
0.0307538
0.0308818
0.029569
0.0272647
0.0251668
0.0233712
0.0220167
0.0210367
0.0203957
0.0199627
0.0197089
0.0195842
0.0195432
0.01956
0.0117227
0.0118546
0.0121546
0.0126151
0.0132175
0.0139324
0.0147448
0.0155634
0.0162359
0.0164009
0.0153879
0.012662
0.00562998
-0.00976534
-0.0353701
-0.0867534
-0.152126
-0.221934
-0.287673
-0.300104
-0.234229
-0.157993
-0.0820114
-0.0217975
0.0147219
0.0341926
0.0410975
0.0395891
0.0363277
0.032724
0.0296185
0.0270686
0.0251626
0.0237266
0.0226886
0.0219155
0.0213957
0.0210722
0.0209071
0.0209034
0.0143116
0.0144504
0.0147704
0.0152462
0.0158551
0.016562
0.0173182
0.0180095
0.0185208
0.0185739
0.0175686
0.0147671
0.0090011
-0.00347057
-0.0250705
-0.0611938
-0.107951
-0.157377
-0.200011
-0.21092
-0.178612
-0.127999
-0.0731573
-0.0236317
0.0102985
0.0319764
0.0425902
0.0433075
0.0396518
0.0357531
0.032259
0.0294469
0.0273077
0.0256663
0.0244236
0.0235143
0.0228884
0.022475
0.022234
0.0221443
0.0165103
0.0167095
0.0170664
0.0175644
0.018191
0.0189213
0.0197082
0.0204555
0.0211104
0.0214946
0.0212948
0.0197581
0.01661
0.00944309
-0.00227238
-0.0233965
-0.0532745
-0.0853891
-0.111066
-0.12435
-0.121237
-0.10026
-0.0672641
-0.0297313
0.000890373
0.0220324
0.0344195
0.039039
0.0379109
0.0353927
0.032596
0.0302237
0.0282881
0.026718
0.0255041
0.0245969
0.0239488
0.0235047
0.0232276
0.023073
0.018343
0.018586
0.0189469
0.019448
0.0200913
0.020865
0.0217578
0.0227352
0.0237233
0.0246406
0.0251964
0.0250025
0.0234836
0.0200043
0.0128111
-0.000846608
-0.023191
-0.0503672
-0.074288
-0.0937766
-0.103719
-0.0972226
-0.0775397
-0.047639
-0.019573
0.00333174
0.0190705
0.0279776
0.0310339
0.0312385
0.0303567
0.0291511
0.0279077
0.0267741
0.0258337
0.0250733
0.0244847
0.0240523
0.0237649
0.023626
0.0198489
0.0200322
0.0203689
0.0208707
0.0215439
0.0223928
0.0234293
0.0246461
0.0260083
0.0273628
0.0284316
0.0288529
0.0276588
0.0239366
0.016834
0.00410481
-0.0178824
-0.0471396
-0.0814228
-0.109963
-0.123827
-0.122903
-0.105917
-0.0787014
-0.0481337
-0.0211949
0.000353997
0.0149158
0.0223187
0.0255388
0.0267713
0.026926
0.0266147
0.0261336
0.0256037
0.0250947
0.0246636
0.0243307
0.0240996
0.02397
0.0210342
0.0211009
0.0214202
0.0219372
0.0226458
0.0235456
0.024654
0.0259759
0.0275195
0.0290794
0.0304636
0.0314517
0.0303181
0.0256824
0.0154722
-0.00145548
-0.0263709
-0.0600019
-0.101409
-0.138954
-0.164829
-0.163837
-0.144553
-0.11455
-0.0763924
-0.0419079
-0.013739
0.0052421
0.0155732
0.0210675
0.0237327
0.0248087
0.0252787
0.0253436
0.0251729
0.0249232
0.0246742
0.0244582
0.0242867
0.0241673
0.0219363
0.0220003
0.0222785
0.0227515
0.0234226
0.0242923
0.0253629
0.026628
0.0281054
0.0297119
0.0310803
0.0329948
0.0317576
0.0263685
0.0146017
-0.0057812
-0.0335573
-0.0697572
-0.113832
-0.155519
-0.1855
-0.185062
-0.158797
-0.125911
-0.0836111
-0.0469673
-0.0175894
0.00106564
0.0123339
0.0186338
0.0219332
0.0236004
0.0244294
0.0247066
0.0247592
0.0246845
0.0245514
0.0244153
0.024298
0.0242148
0.0224861
0.02263
0.0228891
0.0232938
0.0238718
0.0246315
0.0255769
0.026703
0.0280281
0.0295342
0.0308514
0.0319795
0.0300976
0.0235441
0.0116626
-0.00745851
-0.0333071
-0.0662782
-0.103771
-0.136209
-0.158843
-0.154034
-0.130473
-0.100068
-0.0660439
-0.0368571
-0.0133306
0.00253543
0.0126156
0.0182991
0.0214476
0.0231445
0.0240072
0.0243866
0.0245122
0.0245066
0.0244304
0.0243419
0.0242667
0.0242223
0.0226106
0.0227701
0.0230196
0.0233783
0.0238697
0.0245033
0.0252883
0.0261985
0.0272405
0.0282974
0.0290065
0.0287038
0.0254143
0.0178199
0.00535688
-0.0120953
-0.0344358
-0.0610996
-0.085074
-0.102239
-0.108588
-0.101767
-0.0855364
-0.0623307
-0.0394248
-0.018959
-0.00230959
0.00882719
0.0157683
0.019794
0.0220775
0.0233668
0.0240285
0.0243759
0.0244908
0.0244942
0.0244311
0.0243522
0.0242807
0.0242341
0.0224384
0.0225251
0.0227267
0.0230267
0.0234198
0.0238943
0.0244408
0.0250076
0.0255022
0.0256512
0.0251554
0.0229365
0.0176897
0.00840088
-0.00511922
-0.0219561
-0.0411401
-0.0615661
-0.0765479
-0.082418
-0.0783804
-0.0692954
-0.0553905
-0.0362041
-0.0185981
-0.00303143
0.00829924
0.0156252
0.0197468
0.022065
0.0233236
0.0240119
0.024346
0.0245064
0.0245283
0.0244894
0.024418
0.0243382
0.0242672
0.0242069
0.0221433
0.0221894
0.0223152
0.0225079
0.0227494
0.0229984
0.0232045
0.0232675
0.0230208
0.0220701
0.0199606
0.0155477
0.00753407
-0.00427091
-0.0196049
-0.0373971
-0.0550997
-0.0714778
-0.0824883
-0.0846371
-0.0786056
-0.0639786
-0.0453068
-0.0253305
-0.00746743
0.00640595
0.0152533
0.0204523
0.0229946
0.0242082
0.0247248
0.0248235
0.0247601
0.0246318
0.0244845
0.0243511
0.0242388
0.0241491
0.0240883
0.0240535
0.0217715
0.0218259
0.0219066
0.0219979
0.0220705
0.0220761
0.0219391
0.0215161
0.0206234
0.0187944
0.0151801
0.00883276
-0.00209389
-0.0173543
-0.0362998
-0.0574034
-0.0771051
-0.0927714
-0.103666
-0.104825
-0.0946886
-0.0732341
-0.0472736
-0.0239538
-0.0045897
0.00929781
0.0177334
0.0227292
0.0251721
0.025957
0.0258527
0.0255054
0.0250739
0.0246746
0.0243539
0.0241073
0.0239199
0.0237964
0.0237351
0.0237725
0.0213152
0.0213914
0.0214339
0.0214456
0.0213875
0.0212226
0.0208752
0.0201711
0.0188816
0.0165711
0.0123276
0.00516699
-0.00665942
-0.023935
-0.0459712
-0.0707558
-0.0943946
-0.111601
-0.125277
-0.126787
-0.108623
-0.0819231
-0.052561
-0.0275211
-0.00722804
0.00770741
0.0178218
0.0236823
0.0263056
0.0268182
0.0262437
0.025643
0.0250236
0.0245088
0.0241086
0.0238046
0.0235854
0.023457
0.023408
0.0234407
0.0208151
0.0208727
0.0208819
0.0208581
0.0207576
0.0205455
0.0201336
0.0193783
0.018007
0.0156559
0.0116081
0.0048159
-0.00572504
-0.0210753
-0.040985
-0.0642782
-0.0884749
-0.107204
-0.122098
-0.124692
-0.105987
-0.0814179
-0.0530257
-0.0291918
-0.00920582
0.00580263
0.0161221
0.0222122
0.025281
0.0260247
0.0256033
0.0250833
0.0245186
0.0240474
0.0236906
0.0234162
0.0232227
0.0231014
0.0230308
0.0229927
0.0203774
0.0203898
0.0203899
0.0203664
0.0202847
0.0200943
0.0197418
0.0191085
0.0180004
0.0161119
0.012908
0.00764305
-0.000556519
-0.0121527
-0.0265571
-0.0439161
-0.0630185
-0.0794761
-0.0917813
-0.095808
-0.0870974
-0.0707581
-0.0502764
-0.0297704
-0.0122234
0.00176588
0.0118043
0.0184902
0.02225
0.0238076
0.0240605
0.0238497
0.0235209
0.0232044
0.0229446
0.0227409
0.0225886
0.0224804
0.0223985
0.0223222
0.0200493
0.0200524
0.0200625
0.0200554
0.0200094
0.0198859
0.0196507
0.0192372
0.0185461
0.0173483
0.0153313
0.0119723
0.00658739
-0.00152437
-0.0119596
-0.0246335
-0.038605
-0.0523393
-0.0614018
-0.0664139
-0.0678299
-0.0610347
-0.0486914
-0.0326328
-0.017919
-0.005273
0.00503745
0.0127209
0.0176268
0.0203469
0.0215585
0.0219493
0.0220205
0.0219404
0.021832
0.0217243
0.0216316
0.0215599
0.021508
0.0214742
0.0197551
0.0197706
0.0197803
0.0197818
0.0197749
0.0197408
0.0196642
0.0195154
0.0192347
0.0187452
0.0178281
0.0160775
0.0128088
0.0069567
-0.00148627
-0.0123343
-0.0246531
-0.0378795
-0.0487036
-0.0568754
-0.0608977
-0.0591365
-0.0511422
-0.039018
-0.0266992
-0.0146482
-0.00388202
0.00505898
0.0115336
0.0158353
0.0182594
0.0195072
0.0201499
0.0204327
0.0205469
0.0205803
0.0205742
0.0205629
0.0205663
0.0205977
0.019364
0.0193561
0.0193685
0.019399
0.0194544
0.0195338
0.0196426
0.019769
0.0198823
0.0199166
0.0197152
0.0188897
0.0169138
0.0127111
0.00510759
-0.00584466
-0.0196244
-0.0349654
-0.0502653
-0.0623236
-0.0683368
-0.0686628
-0.0621269
-0.0517937
-0.039831
-0.0268748
-0.0142198
-0.00336654
0.00513793
0.0112337
0.0149267
0.0170676
0.0182759
0.0189491
0.0193315
0.0195366
0.019639
0.01969
0.0197204
0.01975
0.0189077
0.0188537
0.0188679
0.018929
0.0190479
0.0192271
0.0194693
0.0198001
0.0202199
0.0205994
0.0208498
0.0203724
0.0184355
0.0144582
0.00718967
-0.00370458
-0.0183618
-0.0355748
-0.0543118
-0.0711898
-0.0839477
-0.0845914
-0.0774668
-0.0672268
-0.0537974
-0.0385784
-0.0231885
-0.00975053
0.000652706
0.00797575
0.0124916
0.0151342
0.016744
0.0176939
0.0182846
0.0186353
0.0188255
0.0189212
0.0189572
0.0189403
0.0184374
0.0184109
0.0184289
0.018494
0.0186191
0.018813
0.0190759
0.0194338
0.0199591
0.0203799
0.0207466
0.0202209
0.0179753
0.0136073
0.00621634
-0.00454649
-0.0187067
-0.0357402
-0.0557244
-0.0748883
-0.0902649
-0.0917167
-0.0836578
-0.0726053
-0.057015
-0.0404938
-0.0243321
-0.0105853
-0.000277309
0.00678
0.0113065
0.0140621
0.0157389
0.0167849
0.0174001
0.0178054
0.0180398
0.0181667
0.0182134
0.0181584
0.0178474
0.0178824
0.0179238
0.0179845
0.0180805
0.0182246
0.0184199
0.0186743
0.0189864
0.0191825
0.019082
0.0179604
0.0153203
0.0106415
0.00327089
-0.00702853
-0.0200673
-0.0354127
-0.052228
-0.0674238
-0.0785285
-0.0781868
-0.0702247
-0.0593923
-0.0451295
-0.0306145
-0.0174521
-0.00662887
0.00163616
0.00752684
0.0114444
0.0138438
0.0152916
0.0161914
0.016745
0.0170933
0.0173025
0.0174102
0.0174601
0.0174458
0.0170805
0.0171226
0.0171543
0.0171876
0.0172307
0.0172911
0.0173572
0.0174015
0.0173949
0.017109
0.0161969
0.014219
0.0107245
0.00533419
-0.00212039
-0.0116942
-0.0230747
-0.0355975
-0.0466719
-0.0546911
-0.0574855
-0.0551902
-0.0486564
-0.0390257
-0.0279368
-0.0171206
-0.00796846
-0.000239318
0.00572092
0.00992444
0.0126543
0.0143222
0.0153313
0.0159603
0.0163525
0.0165983
0.0167392
0.0168113
0.0168484
0.0168704
0.0162228
0.0162014
0.016188
0.0161745
0.0161512
0.0161016
0.0159948
0.0157416
0.0152482
0.0142906
0.0124188
0.0092712
0.00460778
-0.00166161
-0.00941909
-0.0183745
-0.0277415
-0.0372666
-0.043888
-0.0468534
-0.045053
-0.0403993
-0.0332994
-0.0241519
-0.0151497
-0.00653388
0.000462838
0.00612393
0.0101056
0.0126724
0.0141998
0.0150619
0.0155924
0.0159361
0.0161513
0.016287
0.0163662
0.0164078
0.0164272
0.0164412
0.0153854
0.0153286
0.0152746
0.0152082
0.015107
0.0149269
0.0146074
0.0140317
0.0129898
0.0112171
0.00827517
0.00378529
-0.00227669
-0.00978176
-0.018341
-0.0273864
-0.0360779
-0.043715
-0.0479875
-0.0476346
-0.0444947
-0.0375813
-0.0278757
-0.017466
-0.00766144
0.000671472
0.00695621
0.0113099
0.0137898
0.0150063
0.0155318
0.0157592
0.0158608
0.0159231
0.0159571
0.0159791
0.0159958
0.0160133
0.016026
0.0160215
0.0146115
0.0145849
0.0145316
0.0144325
0.0142513
0.0139367
0.0134103
0.0125663
0.0110906
0.00860139
0.00455329
-0.00134111
-0.00913742
-0.0186786
-0.0290158
-0.0392519
-0.0484224
-0.0554066
-0.0591223
-0.0571608
-0.0497856
-0.039154
-0.0264153
-0.0140168
-0.00316422
0.00535279
0.0111596
0.0144628
0.0159695
0.0164787
0.0164322
0.0162252
0.0159921
0.0158031
0.0156621
0.0155669
0.0155095
0.0154831
0.015481
0.0155143
0.0139006
0.0139331
0.0138856
0.0137625
0.0135273
0.0131307
0.0124769
0.0114783
0.00980135
0.00708954
0.00265409
-0.00393618
-0.0127671
-0.0239161
-0.0359268
-0.0475381
-0.0581188
-0.0652509
-0.0694857
-0.0668264
-0.0539938
-0.0400933
-0.0249872
-0.0118925
-0.00130018
0.00672939
0.0120553
0.0150006
0.0165632
0.0169301
0.0166377
0.0162172
0.0157872
0.0154647
0.0152321
0.0150733
0.014976
0.0149333
0.0149336
0.0149855
0.0132384
0.0132799
0.0132334
0.0131118
0.0128773
0.0124936
0.0118734
0.0109018
0.00928443
0.00677612
0.00275692
-0.00314684
-0.0110341
-0.021234
-0.0329305
-0.0444914
-0.0551183
-0.0623778
-0.0668507
-0.0646364
-0.0528721
-0.0390064
-0.0246954
-0.0124994
-0.00261526
0.00497097
0.0102688
0.0134586
0.0152347
0.0158958
0.0158188
0.0155373
0.0151871
0.0149001
0.0146987
0.0145609
0.0144791
0.0144388
0.0144253
0.0144315
0.0126709
0.0126693
0.0126238
0.0125291
0.0123563
0.0120698
0.0116062
0.0108511
0.00961457
0.00765078
0.00460442
9.62265e-05
-0.00571287
-0.0131175
-0.0218928
-0.0312166
-0.0403529
-0.0472027
-0.051586
-0.0513805
-0.045615
-0.0364258
-0.0258783
-0.0157839
-0.00686297
0.000490122
0.00601117
0.00980523
0.0121662
0.013477
0.0140319
0.0141654
0.0140976
0.0140035
0.0139245
0.0138644
0.0138283
0.013804
0.0137811
0.0137475
0.0122453
0.0122217
0.0121961
0.0121438
0.0120466
0.0118786
0.0116052
0.0111616
0.0104053
0.0091838
0.00724408
0.00433441
0.000365505
-0.00476214
-0.0108963
-0.017914
-0.0249847
-0.0312883
-0.0359133
-0.0380687
-0.0377789
-0.0339316
-0.0277541
-0.0201526
-0.0125642
-0.0056733
9.3967e-05
0.0046164
0.00788883
0.0101115
0.0114921
0.0122051
0.0125553
0.0127338
0.0128235
0.0128736
0.0129064
0.0129278
0.0129368
0.0129294
0.0119221
0.0119195
0.011908
0.0118859
0.0118443
0.0117803
0.011676
0.0115175
0.0112409
0.0107491
0.00979524
0.00812883
0.00547167
0.00170518
-0.00308684
-0.00904499
-0.0157725
-0.0225706
-0.0286174
-0.0329011
-0.0345814
-0.0344564
-0.0313783
-0.0258036
-0.0192425
-0.0126082
-0.00651386
-0.00121032
0.00308497
0.00634917
0.00862599
0.0100145
0.0108484
0.0113391
0.0116217
0.0117899
0.0118957
0.0119708
0.0120317
0.012088
0.0115634
0.0115674
0.011565
0.0115712
0.0115881
0.0116239
0.0116788
0.0117568
0.0118323
0.0118754
0.0117692
0.0111718
0.00962193
0.0067651
0.00244076
-0.00346492
-0.0109121
-0.0192473
-0.0272105
-0.0335341
-0.0379824
-0.0405206
-0.039183
-0.0346904
-0.0283826
-0.021246
-0.0140878
-0.00741926
-0.00173491
0.00270658
0.00591109
0.00802752
0.00933859
0.0101158
0.0105892
0.0108758
0.0110514
0.0111642
0.0112454
0.011308
0.0111309
0.01109
0.0110943
0.0111326
0.0112078
0.0113271
0.0115182
0.0117697
0.0120797
0.0124286
0.0128104
0.012668
0.0117612
0.00982031
0.0061271
0.000514874
-0.00700538
-0.016638
-0.0270463
-0.0362811
-0.044663
-0.0490111
-0.0483072
-0.0440214
-0.0373427
-0.0293434
-0.0207526
-0.012533
-0.00543973
6.57647e-05
0.00400018
0.00658658
0.00819172
0.0091811
0.00980068
0.010177
0.0104103
0.0105414
0.0106066
0.0106202
0.0106875
0.0106469
0.0106456
0.0106808
0.0107659
0.0109088
0.0111265
0.0114246
0.0118195
0.0121712
0.0125928
0.0123932
0.0114954
0.00988181
0.00660955
0.00159476
-0.00534536
-0.0147483
-0.0258419
-0.0367972
-0.0467929
-0.0519164
-0.0513092
-0.0466668
-0.0397518
-0.0313494
-0.0220243
-0.0134221
-0.00613679
-0.000650684
0.00326104
0.00587742
0.00751041
0.00854356
0.00918872
0.00959567
0.00985106
0.00998695
0.0100407
0.00999969
0.010193
0.0101985
0.0102108
0.0102371
0.0102898
0.0103794
0.010514
0.0106952
0.0109053
0.0109929
0.0109286
0.0103444
0.00903933
0.00689193
0.00347187
-0.00142447
-0.00774037
-0.0157061
-0.024956
-0.0340118
-0.0411516
-0.0443678
-0.0429915
-0.0382004
-0.0318811
-0.0243638
-0.0166609
-0.00960664
-0.00389468
0.000493428
0.00375627
0.00594982
0.00731632
0.00820427
0.00875976
0.00910501
0.00931639
0.00942963
0.00947913
0.00945632
0.00957747
0.009602
0.00960854
0.0096044
0.00959691
0.0095872
0.00956184
0.00951084
0.00936736
0.00900175
0.0082293
0.00686681
0.0048014
0.0018214
-0.0021355
-0.00709131
-0.0128521
-0.0187132
-0.0243596
-0.0291518
-0.0318913
-0.0318085
-0.0294581
-0.0253704
-0.0199446
-0.0141767
-0.00864359
-0.00386164
-5.6052e-05
0.00302632
0.00526392
0.00669813
0.00762382
0.00820315
0.00855998
0.00877679
0.00890516
0.00897416
0.0090111
0.00902577
0.00887419
0.0088573
0.00882204
0.00876617
0.00868317
0.0085588
0.00835159
0.00800685
0.00744108
0.00650168
0.00495528
0.00271918
-0.000225901
-0.00399385
-0.00841227
-0.0132783
-0.0183547
-0.0225663
-0.0252371
-0.0260687
-0.025917
-0.0234174
-0.0197257
-0.0154309
-0.0105703
-0.00599151
-0.00198164
0.00127698
0.00380238
0.00569483
0.00692369
0.00765854
0.00810573
0.00836632
0.00853334
0.00862753
0.00867686
0.00870158
0.00871422
0.00873112
0.00818809
0.0081236
0.00804531
0.00794252
0.00779251
0.00755945
0.00718277
0.00656866
0.00557233
0.00401176
0.00172643
-0.00143019
-0.00543094
-0.0101905
-0.0154305
-0.0206154
-0.0253593
-0.0285762
-0.0292044
-0.027209
-0.0244223
-0.0205308
-0.0154499
-0.0100215
-0.00480312
-0.000404634
0.00299734
0.00539145
0.00702104
0.00791243
0.00829168
0.00844553
0.00847729
0.00848374
0.00849072
0.00848939
0.0084902
0.00849274
0.00849593
0.00848699
0.00758227
0.00753019
0.00744869
0.00732305
0.00712171
0.0067987
0.00628303
0.00544065
0.00408698
0.00193946
-0.0011413
-0.00532438
-0.0106371
-0.0167262
-0.0231032
-0.0290401
-0.033738
-0.0365095
-0.0360429
-0.0317646
-0.025978
-0.0197289
-0.0126179
-0.00582148
-0.000194717
0.00402777
0.00692698
0.00856334
0.00934707
0.00938133
0.00913865
0.00889029
0.00865291
0.0084673
0.00833399
0.00824743
0.00819765
0.00817236
0.00816471
0.00817102
0.00706549
0.00706647
0.00700752
0.00687818
0.006647
0.006266
0.00568178
0.0047238
0.00320827
0.00079351
-0.00271434
-0.00750631
-0.0136751
-0.020686
-0.0278977
-0.0345652
-0.0393769
-0.0422156
-0.0413105
-0.0354617
-0.0272983
-0.0187619
-0.0100799
-0.00261828
0.00280355
0.00651446
0.00872158
0.00970212
0.0100044
0.00974666
0.00933873
0.00891489
0.00853047
0.00823517
0.00802207
0.00788193
0.00780189
0.00776016
0.00775422
0.00779719
0.00661822
0.00665415
0.00661071
0.00648836
0.00626206
0.0058929
0.00533395
0.0044174
0.00299215
0.000757892
-0.00246421
-0.00679502
-0.012488
-0.0190639
-0.0258114
-0.0320347
-0.0365717
-0.0395384
-0.0392495
-0.034093
-0.0266306
-0.0182163
-0.00994145
-0.00305329
0.00189829
0.00527205
0.00731137
0.0083585
0.00883482
0.00886242
0.00865421
0.00836145
0.00804086
0.00778916
0.00760593
0.00748718
0.00742093
0.00739564
0.00739534
0.00741759
0.00626171
0.00627695
0.00623504
0.00614104
0.00597128
0.00569393
0.00525786
0.00456505
0.0034806
0.00184082
-0.000565764
-0.00370786
-0.00770438
-0.0125002
-0.0176594
-0.0227065
-0.0268242
-0.0296951
-0.0305343
-0.0282789
-0.023899
-0.0183452
-0.012675
-0.00749921
-0.00300899
0.000515685
0.00312333
0.00492879
0.00609297
0.00678006
0.00710243
0.00719097
0.00714949
0.00708858
0.00703959
0.007009
0.00699302
0.00698547
0.00697747
0.00695967
0.00600043
0.00598558
0.00596284
0.00592119
0.00583865
0.00569346
0.00545889
0.00507423
0.00444003
0.00348765
0.00206355
7.84207e-05
-0.0024398
-0.00554375
-0.00915868
-0.0129583
-0.0165648
-0.0195392
-0.0215762
-0.0222573
-0.0211741
-0.0190269
-0.0162975
-0.0127899
-0.00889131
-0.00533596
-0.00216649
0.000432926
0.00242909
0.00391877
0.00491952
0.00552062
0.00587018
0.00607955
0.00620805
0.00629139
0.00634895
0.00638412
0.0063981
0.00638811
0.00583327
0.00582688
0.00582541
0.0058221
0.00580339
0.00577155
0.0057156
0.0056105
0.00541028
0.0050174
0.00436289
0.00327275
0.00173329
-0.000314073
-0.00303797
-0.00633512
-0.00998578
-0.0134608
-0.016535
-0.0189152
-0.0203872
-0.0213162
-0.0207741
-0.0184184
-0.0149479
-0.0111807
-0.00742947
-0.00408024
-0.00127618
0.000939838
0.0025887
0.00372871
0.00447665
0.00495641
0.00526038
0.00545605
0.00558862
0.00567968
0.00574126
0.00578303
0.00568716
0.00569476
0.00570076
0.00571383
0.00573718
0.00578238
0.0058549
0.00594777
0.00605299
0.00612611
0.00612825
0.00586683
0.00507139
0.00371714
0.00152729
-0.00153576
-0.00542627
-0.00971686
-0.0140434
-0.0183131
-0.0222531
-0.0256542
-0.0267393
-0.0253787
-0.0221104
-0.017855
-0.0132074
-0.00873571
-0.00483205
-0.00174556
0.000561773
0.00221007
0.00332398
0.00403196
0.0044767
0.00476339
0.00495305
0.00508384
0.00517729
0.0052448
0.00547189
0.00545257
0.00546047
0.00549122
0.00555532
0.00566174
0.00582404
0.00603761
0.00633194
0.00669737
0.00708368
0.0074435
0.00736885
0.00673232
0.00519897
0.00260604
-0.00129742
-0.00647661
-0.0125481
-0.0189669
-0.0250938
-0.0302242
-0.0322471
-0.0315467
-0.0282455
-0.0235067
-0.0180427
-0.0125816
-0.00766396
-0.00371373
-0.000867418
0.00119492
0.00257915
0.00343959
0.00397894
0.00432526
0.00454539
0.00468128
0.00476066
0.00479769
0.00522175
0.00518218
0.00517976
0.00520627
0.00527569
0.00539555
0.00557804
0.00582628
0.00616132
0.0065648
0.00698721
0.00738841
0.00759932
0.00732648
0.00623885
0.00413958
0.000582429
-0.00479377
-0.0114544
-0.0185686
-0.0257148
-0.0310573
-0.0332382
-0.0326129
-0.0291511
-0.0245272
-0.0190077
-0.0133744
-0.00830436
-0.00421361
-0.00128131
0.000837164
0.00225278
0.00310483
0.00368328
0.00405024
0.00427087
0.00439416
0.00444556
0.00443418
0.00496994
0.00495546
0.00494756
0.00495329
0.00498353
0.00504444
0.00515634
0.0053009
0.00548116
0.00564815
0.00573047
0.00568018
0.00540415
0.00468226
0.00327096
0.00108043
-0.00228571
-0.00674163
-0.0120704
-0.0175735
-0.0227509
-0.0262755
-0.0273716
-0.0262342
-0.0229934
-0.0191693
-0.0146307
-0.010184
-0.00618721
-0.00299078
-0.000634246
0.00112639
0.00228139
0.0030376
0.00353297
0.00384295
0.00403906
0.00414589
0.00419245
0.00416776
0.00464103
0.00465124
0.00464364
0.00462457
0.00459719