/*--------------------------------*- C++ -*----------------------------------*\
| =========                 |                                                 |
| \\      /  F ield         | OpenFOAM: The Open Source CFD Toolbox           |
|  \\    /   O peration     | Version:  v2106                                 |
|   \\  /    A nd           | Website:  www.openfoam.com                      |
|    \\/     M anipulation  |                                                 |
\*---------------------------------------------------------------------------*/
FoamFile
{
    version     2.0;
    format      ascii;
    arch        "LSB;label=32;scalar=64";
    class       pointVectorField;
    location    "0";
    object      pointDisplacement;
}
// * * * * * * * * * * * * * * * * * * * * * * * * * * * * * * * * * * * * * //

dimensions      [0 1 0 0 0 0 0];

internalField   nonuniform List<vector> 
24440
(
(0 0 0)
(0 0 0)
(0 0 0)
(0 0 0)
(0 0 0)
(0 0 0)
(0 0 0)
(0 0 0)
(0 0 0)
(0 0 0)
(0 0 0)
(0 0 0)
(0 0 0)
(0 0 0)
(0 0 0)
(0 0 0)
(0 0 0)
(0 0 0)
(0 0 0)
(0 0 0)
(0 0 0)
(0 0 0)
(0 0 0)
(0 0 0)
(0 0 0)
(0 0 0)
(0 0 0)
(0 0 0)
(0 0 0)
(0 0 0)
(0 0 0)
(0 0 0)
(0 0 0)
(0 0 0)
(0 0 0)
(0 0 0)
(0 0 0)
(0 0 0)
(0 0 0)
(0 0 0)
(0 0 0)
(0 0 0)
(0 0 0)
(0 0 0)
(0 0 0)
(0 0 0)
(0 0 0)
(0 0 0)
(0 0 0)
(0 0 0)
(0 0 0)
(0 0 0)
(0 0 0)
(0 0 0)
(0 0 0)
(0 0 0)
(0 0 0)
(0 0 0)
(0 0 0)
(0 0 0)
(0 0 0)
(0 0 0)
(0 0 0)
(0 0 0)
(0 0 0)
(0 0 0)
(0 0 0)
(0 0 0)
(0 0 0)
(0 0 0)
(0 0 0)
(0 0 0)
(0 0 0)
(0 0 0)
(0 0 0)
(0 0 0)
(0 0 0)
(0 0 0)
(0 0 0)
(0 0 0)
(0 0 0)
(0 0 0)
(0 0 0)
(0 0 0)
(0 0 0)
(0 0 0)
(0 0 0)
(0 0 0)
(0 0 0)
(0 0 0)
(0 0 0)
(0 0 0)
(0 0 0)
(0 0 0)
(0 0 0)
(0 0 0)
(0 0 0)
(0 0 0)
(0 2.39011e-07 0)
(0 1.50722e-06 0)
(0 4.14453e-06 0)
(0 6.38651e-06 0)
(0 7.24693e-06 0)
(0 6.38651e-06 0)
(0 4.14453e-06 0)
(0 1.50722e-06 0)
(0 2.39011e-07 0)
(0 0 0)
(0 0 0)
(0 0 0)
(0 0 0)
(0 0 0)
(0 0 0)
(0 0 0)
(0 0 0)
(0 0 0)
(0 0 0)
(0 0 0)
(0 0 0)
(0 0 0)
(0 0 0)
(0 0 0)
(0 0 0)
(0 0 0)
(0 0 0)
(0 0 0)
(0 0 0)
(0 0 0)
(0 0 0)
(0 0 0)
(0 0 0)
(0 0 0)
(0 0 0)
(0 0 0)
(0 0 0)
(0 0 0)
(0 4.00279e-07 0)
(0 5.29502e-06 0)
(0 1.55829e-05 0)
(0 2.80715e-05 0)
(0 4.00414e-05 0)
(0 4.8386e-05 0)
(0 5.61433e-05 0)
(0 5.88727e-05 0)
(0 5.61433e-05 0)
(0 4.8386e-05 0)
(0 4.00414e-05 0)
(0 2.80715e-05 0)
(0 1.55829e-05 0)
(0 5.29502e-06 0)
(0 4.00279e-07 0)
(0 0 0)
(0 0 0)
(0 0 0)
(0 0 0)
(0 0 0)
(0 0 0)
(0 0 0)
(0 0 0)
(0 0 0)
(0 0 0)
(0 0 0)
(0 0 0)
(0 0 0)
(0 0 0)
(0 0 0)
(0 0 0)
(0 0 0)
(0 0 0)
(0 0 0)
(0 0 0)
(0 0 0)
(0 0 0)
(0 0 0)
(0 0 0)
(0 1.6806e-07 0)
(0 6.96345e-06 0)
(0 2.37476e-05 0)
(0 4.68299e-05 0)
(0 7.06046e-05 0)
(0 9.71285e-05 0)
(0 0.0001201 0)
(0 0.000134327 0)
(0 0.000147931 0)
(0 0.000152633 0)
(0 0.000147931 0)
(0 0.000134327 0)
(0 0.0001201 0)
(0 9.71285e-05 0)
(0 7.06046e-05 0)
(0 4.68299e-05 0)
(0 2.37476e-05 0)
(0 6.96345e-06 0)
(0 1.6806e-07 0)
(0 0 0)
(0 0 0)
(0 0 0)
(0 0 0)
(0 0 0)
(0 0 0)
(0 0 0)
(0 0 0)
(0 0 0)
(0 0 0)
(0 0 0)
(0 0 0)
(0 0 0)
(0 0 0)
(0 0 0)
(0 0 0)
(0 0 0)
(0 0 0)
(0 0 0)
(0 0 0)
(0 0 0)
(0 1.58909e-06 0)
(0 1.65257e-05 0)
(0 4.39178e-05 0)
(0 7.70543e-05 0)
(0 0.000118197 0)
(0 0.000159693 0)
(0 0.000195641 0)
(0 0.000229316 0)
(0 0.000253213 0)
(0 0.00026749 0)
(0 0.000274044 0)
(0 0.00026749 0)
(0 0.000253213 0)
(0 0.000229316 0)
(0 0.000195641 0)
(0 0.000159693 0)
(0 0.000118197 0)
(0 7.70543e-05 0)
(0 4.39178e-05 0)
(0 1.65257e-05 0)
(0 1.68232e-06 0)
(0 0 0)
(0 0 0)
(0 0 0)
(0 0 0)
(0 0 0)
(0 0 0)
(0 0 0)
(0 0 0)
(0 0 0)
(0 0 0)
(0 0 0)
(0 0 0)
(0 0 0)
(0 0 0)
(0 0 0)
(0 0 0)
(0 0 0)
(0 0 0)
(0 0 0)
(0 3.12538e-06 0)
(0 2.19152e-05 0)
(0 5.46975e-05 0)
(0 0.000100416 0)
(0 0.000154751 0)
(0 0.000211214 0)
(0 0.000263028 0)
(0 0.000312148 0)
(0 0.000330606 0)
(0 0.000350567 0)
(0 0.000367263 0)
(0 0.000380417 0)
(0 0.000389824 0)
(0 0.000396329 0)
(0 0.000402338 0)
(0 0.00040435 0)
(0 0.000402338 0)
(0 0.000396329 0)
(0 0.000389824 0)
(0 0.000380417 0)
(0 0.000367263 0)
(0 0.000350567 0)
(0 0.000330606 0)
(0 0.000312148 0)
(0 0.000263028 0)
(0 0.000211214 0)
(0 0.000154751 0)
(0 0.000100416 0)
(0 5.35622e-05 0)
(0 1.98026e-05 0)
(0 2.49739e-06 0)
(0 0 0)
(0 0 0)
(0 0 0)
(0 0 0)
(0 0 0)
(0 0 0)
(0 0 0)
(0 0 0)
(0 0 0)
(0 0 0)
(0 0 0)
(0 0 0)
(0 0 0)
(0 0 0)
(0 0 0)
(0 0 0)
(0 0 0)
(0 1.8383e-06 0)
(0 2.10374e-05 0)
(0 5.86139e-05 0)
(0 0.000110294 0)
(0 0.000170829 0)
(0 0.000242053 0)
(0 0.000276109 0)
(0 0.000306295 0)
(0 0.000339704 0)
(0 0.00037102 0)
(0 0.000399671 0)
(0 0.000424011 0)
(0 0.000369532 0)
(0 0.000392094 0)
(0 0.0004099 0)
(0 0.00042786 0)
(0 0.000441949 0)
(0 0.000451989 0)
(0 0.000458008 0)
(0 0.000464387 0)
(0 0.000466521 0)
(0 0.000464387 0)
(0 0.000458008 0)
(0 0.000451989 0)
(0 0.000441949 0)
(0 0.00042786 0)
(0 0.0004099 0)
(0 0.000392094 0)
(0 0.000369532 0)
(0 0.000424011 0)
(0 0.000399671 0)
(0 0.00037102 0)
(0 0.000339704 0)
(0 0.000306295 0)
(0 0.000276109 0)
(0 0.000242053 0)
(0 0.000170829 0)
(0 0.000110294 0)
(0 5.64758e-05 0)
(0 2.01221e-05 0)
(0 1.66944e-06 0)
(0 0 0)
(0 0 0)
(0 0 0)
(0 0 0)
(0 0 0)
(0 0 0)
(0 0 0)
(0 0 0)
(0 0 0)
(0 0 0)
(0 0 0)
(0 0 0)
(0 0 0)
(0 0 0)
(0 0 0)
(0 0 0)
(0 1.16313e-05 0)
(0 4.75329e-05 0)
(0 0.000101619 0)
(0 0.000169557 0)
(0 0.000245224 0)
(0 0.00032211 0)
(0 0.000283516 0)
(0 0.00032055 0)
(0 0.000356186 0)
(0 0.00038974 0)
(0 0.000419552 0)
(0 0.000449786 0)
(0 0.000476503 0)
(0 0.000498575 0)
(0 0.000447985 0)
(0 0.000468178 0)
(0 0.000519388 0)
(0 0.000534374 0)
(0 0.000484243 0)
(0 0.000498942 0)
(0 0.000549279 0)
(0 0.00055977 0)
(0 0.000509369 0)
(0 0.000514653 0)
(0 0.00056585 0)
(0 0.000570676 0)
(0 0.000521231 0)
(0 0.000523427 0)
(0 0.000572855 0)
(0 0.000570676 0)
(0 0.000521231 0)
(0 0.000514653 0)
(0 0.00056585 0)
(0 0.00055977 0)
(0 0.000509369 0)
(0 0.000498942 0)
(0 0.000549279 0)
(0 0.000534374 0)
(0 0.000484243 0)
(0 0.000468178 0)
(0 0.000519388 0)
(0 0.000498575 0)
(0 0.000447985 0)
(0 0.000476503 0)
(0 0.000449786 0)
(0 0.000419552 0)
(0 0.00038974 0)
(0 0.000356186 0)
(0 0.00032055 0)
(0 0.000283516 0)
(0 0.00032211 0)
(0 0.000245224 0)
(0 0.000167516 0)
(0 0.000100817 0)
(0 4.74821e-05 0)
(0 1.2645e-05 0)
(0 0 0)
(0 0 0)
(0 0 0)
(0 0 0)
(0 0 0)
(0 0 0)
(0 0 0)
(0 0 0)
(0 0 0)
(0 0 0)
(0 0 0)
(0 0 0)
(0 0 0)
(0 0 0)
(0 0 0)
(0 2.53735e-06 0)
(0 2.60679e-05 0)
(0 7.51403e-05 0)
(0 0.000140783 0)
(0 0.00021882 0)
(0 0.000308227 0)
(0 0.000394347 0)
(0 0.000360832 0)
(0 0.000399846 0)
(0 0.000359028 0)
(0 0.000399183 0)
(0 0.000436517 0)
(0 0.000473305 0)
(0 0.000434522 0)
(0 0.000466795 0)
(0 0.000506474 0)
(0 0.000521598 0)
(0 0.000535675 0)
(0 0.000516534 0)
(0 0.000494038 0)
(0 0.000521453 0)
(0 0.000541114 0)
(0 0.000553259 0)
(0 0.000533592 0)
(0 0.00056312 0)
(0 0.00058177 0)
(0 0.0005904 0)
(0 0.000571881 0)
(0 0.000591189 0)
(0 0.000609434 0)
(0 0.000613981 0)
(0 0.000596808 0)
(0 0.000607136 0)
(0 0.000623854 0)
(0 0.000626235 0)
(0 0.000609902 0)
(0 0.000612876 0)
(0 0.000628855 0)
(0 0.000628373 0)
(0 0.000612363 0)
(0 0.000607136 0)
(0 0.000623854 0)
(0 0.000621598 0)
(0 0.000604764 0)
(0 0.000591189 0)
(0 0.000609434 0)
(0 0.000604211 0)
(0 0.000586011 0)
(0 0.00056312 0)
(0 0.00058177 0)
(0 0.000574151 0)
(0 0.000553227 0)
(0 0.000521453 0)
(0 0.000541114 0)
(0 0.000527865 0)
(0 0.000508256 0)
(0 0.000466795 0)
(0 0.000506474 0)
(0 0.000473305 0)
(0 0.000434522 0)
(0 0.000399183 0)
(0 0.000436517 0)
(0 0.000399846 0)
(0 0.000359028 0)
(0 0.000360832 0)
(0 0.000392571 0)
(0 0.000308014 0)
(0 0.000222347 0)
(0 0.000139601 0)
(0 7.44087e-05 0)
(0 2.73744e-05 0)
(0 2.90158e-06 0)
(0 0 0)
(0 0 0)
(0 0 0)
(0 0 0)
(0 0 0)
(0 0 0)
(0 0 0)
(0 0 0)
(0 0 0)
(0 0 0)
(0 0 0)
(0 0 0)
(0 0 0)
(0 0 0)
(0 8.3016e-06 0)
(0 4.20149e-05 0)
(0 9.87161e-05 0)
(0 0.000173457 0)
(0 0.000259832 0)
(0 0.000354835 0)
(0 0.000443501 0)
(0 0.000421624 0)
(0 0.000463349 0)
(0 0.000434952 0)
(0 0.000472863 0)
(0 0.000502045 0)
(0 0.000536993 0)
(0 0.000507396 0)
(0 0.000537986 0)
(0 0.000553831 0)
(0 0.000567461 0)
(0 0.000553812 0)
(0 0.000592318 0)
(0 0.000598874 0)
(0 0.000604164 0)
(0 0.000597667 0)
(0 0.000627028 0)
(0 0.000632271 0)
(0 0.000635675 0)
(0 0.000630539 0)
(0 0.000647574 0)
(0 0.000651395 0)
(0 0.000653129 0)
(0 0.00064928 0)
(0 0.000656579 0)
(0 0.000659381 0)
(0 0.000659781 0)
(0 0.00065706 0)
(0 0.000658881 0)
(0 0.00066114 0)
(0 0.000661101 0)
(0 0.000658827 0)
(0 0.000656579 0)
(0 0.000659381 0)
(0 0.000658828 0)
(0 0.000655923 0)
(0 0.000647574 0)
(0 0.000651395 0)
(0 0.000649942 0)
(0 0.000645521 0)
(0 0.000627028 0)
(0 0.000632271 0)
(0 0.000629308 0)
(0 0.000623207 0)
(0 0.000592318 0)
(0 0.000598874 0)
(0 0.000604872 0)
(0 0.000593457 0)
(0 0.000580693 0)
(0 0.000537986 0)
(0 0.000553831 0)
(0 0.000567596 0)
(0 0.000536993 0)
(0 0.000507396 0)
(0 0.000472863 0)
(0 0.000500898 0)
(0 0.00046305 0)
(0 0.000434952 0)
(0 0.000422129 0)
(0 0.000444815 0)
(0 0.000353943 0)
(0 0.00026242 0)
(0 0.000175276 0)
(0 9.98597e-05 0)
(0 4.26144e-05 0)
(0 8.50639e-06 0)
(0 0 0)
(0 0 0)
(0 0 0)
(0 0 0)
(0 0 0)
(0 0 0)
(0 0 0)
(0 0 0)
(0 0 0)
(0 0 0)
(0 0 0)
(0 0 0)
(0 0 0)
(0 0 0)
(0 1.28008e-05 0)
(0 5.21941e-05 0)
(0 0.000114859 0)
(0 0.000195504 0)
(0 0.000287337 0)
(0 0.000382643 0)
(0 0.000473442 0)
(0 0.000462192 0)
(0 0.000503587 0)
(0 0.000484369 0)
(0 0.000521844 0)
(0 0.000541298 0)
(0 0.000574588 0)
(0 0.000558509 0)
(0 0.000588813 0)
(0 0.000596298 0)
(0 0.00060934 0)
(0 0.000602028 0)
(0 0.000633431 0)
(0 0.000636889 0)
(0 0.000640791 0)
(0 0.000637441 0)
(0 0.000657498 0)
(0 0.000659167 0)
(0 0.000660562 0)
(0 0.000659089 0)
(0 0.000663261 0)
(0 0.000663261 0)
(0 0.000663261 0)
(0 0.000663261 0)
(0 0.000663261 0)
(0 0.000663261 0)
(0 0.000663261 0)
(0 0.000663261 0)
(0 0.000663261 0)
(0 0.000663261 0)
(0 0.000663261 0)
(0 0.000663261 0)
(0 0.000663261 0)
(0 0.000663261 0)
(0 0.000663261 0)
(0 0.000663261 0)
(0 0.000663261 0)
(0 0.000663261 0)
(0 0.000663261 0)
(0 0.000663261 0)
(0 0.000657498 0)
(0 0.000659167 0)
(0 0.000657329 0)
(0 0.000655586 0)
(0 0.000633431 0)
(0 0.000636889 0)
(0 0.000639844 0)
(0 0.000630822 0)
(0 0.00062436 0)
(0 0.000588471 0)
(0 0.000597168 0)
(0 0.000603809 0)
(0 0.00057379 0)
(0 0.000559006 0)
(0 0.000524817 0)
(0 0.000540625 0)
(0 0.000503052 0)
(0 0.00048651 0)
(0 0.0004618 0)
(0 0.000473677 0)
(0 0.000382486 0)
(0 0.000286881 0)
(0 0.000194877 0)
(0 0.000114205 0)
(0 5.1653e-05 0)
(0 1.24935e-05 0)
(0 0 0)
(0 0 0)
(0 0 0)
(0 0 0)
(0 0 0)
(0 0 0)
(0 0 0)
(0 0 0)
(0 0 0)
(0 0 0)
(0 0 0)
(0 0 0)
(0 0 0)
(0 0 0)
(0 1.35718e-05 0)
(0 5.38626e-05 0)
(0 0.000117489 0)
(0 0.000199105 0)
(0 0.000291853 0)
(0 0.00038794 0)
(0 0.000479293 0)
(0 0.000479462 0)
(0 0.000520899 0)
(0 0.000514758 0)
(0 0.00055219 0)
(0 0.000558338 0)
(0 0.000590991 0)
(0 0.000584977 0)
(0 0.000613517 0)
(0 0.000616275 0)
(0 0.000627717 0)
(0 0.000625231 0)
(0 0.000651058 0)
(0 0.000652122 0)
(0 0.000654946 0)
(0 0.000653964 0)
(0 0.000663261 0)
(0 0.000663261 0)
(0 0.000663261 0)
(0 0.000663261 0)
(0 0.000663261 0)
(0 0.000663261 0)
(0 0.000663261 0)
(0 0.000663261 0)
(0 0.000663261 0)
(0 0.000663261 0)
(0 0.000663261 0)
(0 0.000663261 0)
(0 0.000663261 0)
(0 0.000663261 0)
(0 0.000663261 0)
(0 0.000663261 0)
(0 0.000663261 0)
(0 0.000663234 0)
(0 0.000663139 0)
(0 0.000651058 0)
(0 0.000652122 0)
(0 0.000652824 0)
(0 0.000646192 0)
(0 0.000643851 0)
(0 0.000613479 0)
(0 0.000616313 0)
(0 0.00061817 0)
(0 0.000590991 0)
(0 0.000585827 0)
(0 0.000552848 0)
(0 0.000556931 0)
(0 0.000519284 0)
(0 0.000515206 0)
(0 0.000477673 0)
(0 0.000478222 0)
(0 0.000386747 0)
(0 0.000290642 0)
(0 0.00019798 0)
(0 0.000116548 0)
(0 5.31876e-05 0)
(0 1.3222e-05 0)
(0 0 0)
(0 0 0)
(0 0 0)
(0 0 0)
(0 0 0)
(0 0 0)
(0 0 0)
(0 0 0)
(0 0 0)
(0 0 0)
(0 0 0)
(0 0 0)
(0 0 0)
(0 0 0)
(0 1.10913e-05 0)
(0 4.84735e-05 0)
(0 0.000109054 0)
(0 0.000187665 0)
(0 0.000277652 0)
(0 0.000371448 0)
(0 0.000461245 0)
(0 0.000474205 0)
(0 0.000515573 0)
(0 0.000520763 0)
(0 0.000558238 0)
(0 0.000553043 0)
(0 0.000585849 0)
(0 0.000590929 0)
(0 0.000618144 0)
(0 0.000616689 0)
(0 0.000628128 0)
(0 0.000629515 0)
(0 0.000653987 0)
(0 0.000653641 0)
(0 0.000656289 0)
(0 0.000656603 0)
(0 0.000663261 0)
(0 0.000663261 0)
(0 0.000663261 0)
(0 0.000663261 0)
(0 0.000663261 0)
(0 0.000663261 0)
(0 0.000663261 0)
(0 0.000663261 0)
(0 0.000663261 0)
(0 0.000663261 0)
(0 0.000663261 0)
(0 0.000663261 0)
(0 0.000663261 0)
(0 0.000663261 0)
(0 0.000663261 0)
(0 0.000663261 0)
(0 0.000653987 0)
(0 0.000653359 0)
(0 0.000653014 0)
(0 0.000646397 0)
(0 0.00064715 0)
(0 0.00061757 0)
(0 0.000616642 0)
(0 0.000613829 0)
(0 0.00058625 0)
(0 0.000590205 0)
(0 0.00055738 0)
(0 0.000553335 0)
(0 0.000515748 0)
(0 0.000519787 0)
(0 0.000474262 0)
(0 0.000462417 0)
(0 0.00037231 0)
(0 0.000278215 0)
(0 0.000187975 0)
(0 0.000109177 0)
(0 4.84855e-05 0)
(0 1.10671e-05 0)
(0 0 0)
(0 0 0)
(0 0 0)
(0 0 0)
(0 0 0)
(0 0 0)
(0 0 0)
(0 0 0)
(0 0 0)
(0 0 0)
(0 0 0)
(0 0 0)
(0 0 0)
(0 0 0)
(0 5.60981e-06 0)
(0 3.52362e-05 0)
(0 8.7643e-05 0)
(0 0.000158124 0)
(0 0.000245838 0)
(0 0.000335531 0)
(0 0.000423018 0)
(0 0.000446219 0)
(0 0.000487693 0)
(0 0.000502312 0)
(0 0.000542163 0)
(0 0.000525749 0)
(0 0.000559666 0)
(0 0.000575967 0)
(0 0.000604677 0)
(0 0.000597797 0)
(0 0.000610275 0)
(0 0.000616956 0)
(0 0.000644974 0)
(0 0.000643017 0)
(0 0.000646576 0)
(0 0.000648665 0)
(0 0.000662459 0)
(0 0.000661779 0)
(0 0.000662591 0)
(0 0.000663012 0)
(0 0.000663261 0)
(0 0.000663261 0)
(0 0.000663261 0)
(0 0.000663261 0)
(0 0.000663261 0)
(0 0.000663261 0)
(0 0.000663261 0)
(0 0.000663261 0)
(0 0.000662459 0)
(0 0.000661679 0)
(0 0.000660601 0)
(0 0.000661565 0)
(0 0.000644974 0)
(0 0.000643017 0)
(0 0.000640356 0)
(0 0.000631921 0)
(0 0.00063713 0)
(0 0.000604677 0)
(0 0.000597797 0)
(0 0.000589983 0)
(0 0.000559666 0)
(0 0.000575967 0)
(0 0.000541152 0)
(0 0.000525749 0)
(0 0.000487693 0)
(0 0.00050363 0)
(0 0.000446219 0)
(0 0.000423018 0)
(0 0.000335531 0)
(0 0.00024267 0)
(0 0.000159678 0)
(0 8.86623e-05 0)
(0 3.57942e-05 0)
(0 5.79833e-06 0)
(0 0 0)
(0 0 0)
(0 0 0)
(0 0 0)
(0 0 0)
(0 0 0)
(0 0 0)
(0 0 0)
(0 0 0)
(0 0 0)
(0 0 0)
(0 0 0)
(0 0 0)
(0 0 0)
(0 6.9413e-07 0)
(0 2.06051e-05 0)
(0 6.27449e-05 0)
(0 0.000123382 0)
(0 0.000196973 0)
(0 0.000277059 0)
(0 0.000361098 0)
(0 0.000392962 0)
(0 0.000435693 0)
(0 0.000463711 0)
(0 0.000503295 0)
(0 0.000473103 0)
(0 0.000510568 0)
(0 0.000537717 0)
(0 0.000569345 0)
(0 0.000556663 0)
(0 0.000570633 0)
(0 0.000583208 0)
(0 0.000617151 0)
(0 0.000611504 0)
(0 0.00061664 0)
(0 0.000621331 0)
(0 0.00064715 0)
(0 0.000643436 0)
(0 0.000646147 0)
(0 0.000649717 0)
(0 0.000660564 0)
(0 0.000658487 0)
(0 0.000659399 0)
(0 0.000661296 0)
(0 0.000663261 0)
(0 0.000662892 0)
(0 0.000663037 0)
(0 0.000663261 0)
(0 0.000663261 0)
(0 0.000663261 0)
(0 0.000663261 0)
(0 0.000663261 0)
(0 0.000663261 0)
(0 0.000663261 0)
(0 0.000662892 0)
(0 0.00066269 0)
(0 0.000663239 0)
(0 0.000663256 0)
(0 0.000660564 0)
(0 0.000658487 0)
(0 0.00065736 0)
(0 0.000659622 0)
(0 0.00064715 0)
(0 0.000643436 0)
(0 0.000640414 0)
(0 0.000644264 0)
(0 0.000617606 0)
(0 0.000612421 0)
(0 0.000606191 0)
(0 0.000595889 0)
(0 0.00060709 0)
(0 0.000567781 0)
(0 0.000556018 0)
(0 0.000542276 0)
(0 0.000509867 0)
(0 0.000537717 0)
(0 0.000503295 0)
(0 0.000473103 0)
(0 0.000435693 0)
(0 0.000463711 0)
(0 0.000392962 0)
(0 0.000361098 0)
(0 0.000277059 0)
(0 0.000196973 0)
(0 0.000123382 0)
(0 6.27449e-05 0)
(0 1.92204e-05 0)
(0 8.33776e-07 0)
(0 0 0)
(0 0 0)
(0 0 0)
(0 0 0)
(0 0 0)
(0 0 0)
(0 0 0)
(0 0 0)
(0 0 0)
(0 0 0)
(0 0 0)
(0 0 0)
(0 0 0)
(0 0 0)
(0 0 0)
(0 6.33342e-06 0)
(0 3.33747e-05 0)
(0 7.85233e-05 0)
(0 0.00013707 0)
(0 0.00021022 0)
(0 0.000285853 0)
(0 0.000321532 0)
(0 0.000363633 0)
(0 0.000399636 0)
(0 0.000438667 0)
(0 0.000401536 0)
(0 0.000436973 0)
(0 0.000475353 0)
(0 0.000508569 0)
(0 0.000469324 0)
(0 0.000496407 0)
(0 0.000518893 0)
(0 0.000537796 0)
(0 0.000523708 0)
(0 0.000562929 0)
(0 0.000543278 0)
(0 0.000555425 0)
(0 0.000574044 0)
(0 0.000601866 0)
(0 0.000585017 0)
(0 0.000591756 0)
(0 0.000609221 0)
(0 0.000626521 0)
(0 0.000611589 0)
(0 0.000615976 0)
(0 0.000630658 0)
(0 0.000639307 0)
(0 0.000625529 0)
(0 0.000627961 0)
(0 0.000641001 0)
(0 0.000643268 0)
(0 0.000630544 0)
(0 0.000629886 0)
(0 0.000642748 0)
(0 0.000639307 0)
(0 0.000625529 0)
(0 0.00062208 0)
(0 0.00063665 0)
(0 0.000626521 0)
(0 0.000611589 0)
(0 0.000606108 0)
(0 0.000621304 0)
(0 0.000601866 0)
(0 0.000585017 0)
(0 0.000576305 0)
(0 0.000593339 0)
(0 0.000562929 0)
(0 0.000543278 0)
(0 0.000531871 0)
(0 0.000550789 0)
(0 0.000508569 0)
(0 0.000469324 0)
(0 0.000436973 0)
(0 0.000475353 0)
(0 0.000438667 0)
(0 0.000401536 0)
(0 0.000363633 0)
(0 0.000399636 0)
(0 0.000321532 0)
(0 0.000285853 0)
(0 0.00021022 0)
(0 0.00013707 0)
(0 7.85233e-05 0)
(0 3.33747e-05 0)
(0 6.33342e-06 0)
(0 0 0)
(0 0 0)
(0 0 0)
(0 0 0)
(0 0 0)
(0 0 0)
(0 0 0)
(0 0 0)
(0 0 0)
(0 0 0)
(0 0 0)
(0 0 0)
(0 0 0)
(0 0 0)
(0 0 0)
(0 0 0)
(0 0 0)
(0 9.54418e-06 0)
(0 3.94103e-05 0)
(0 8.44845e-05 0)
(0 0.000140385 0)
(0 0.000201615 0)
(0 0.000262058 0)
(0 0.000308963 0)
(0 0.00035884 0)
(0 0.000323055 0)
(0 0.00034253 0)
(0 0.000392523 0)
(0 0.000422233 0)
(0 0.000373983 0)
(0 0.000402749 0)
(0 0.000452553 0)
(0 0.000479335 0)
(0 0.000454552 0)
(0 0.000464118 0)
(0 0.00049128 0)
(0 0.000521759 0)
(0 0.000497392 0)
(0 0.000506434 0)
(0 0.000530871 0)
(0 0.000551637 0)
(0 0.000527129 0)
(0 0.00053117 0)
(0 0.000556353 0)
(0 0.000569553 0)
(0 0.000546018 0)
(0 0.000548767 0)
(0 0.000572279 0)
(0 0.000575484 0)
(0 0.000552097 0)
(0 0.000550966 0)
(0 0.000574457 0)
(0 0.000569553 0)
(0 0.000546018 0)
(0 0.000542168 0)
(0 0.000565727 0)
(0 0.000551637 0)
(0 0.000527129 0)
(0 0.000521314 0)
(0 0.000545817 0)
(0 0.000521759 0)
(0 0.000497392 0)
(0 0.000487307 0)
(0 0.000511573 0)
(0 0.000479335 0)
(0 0.000454552 0)
(0 0.000425909 0)
(0 0.000402749 0)
(0 0.000452553 0)
(0 0.000422233 0)
(0 0.000373983 0)
(0 0.00034253 0)
(0 0.000392523 0)
(0 0.00035884 0)
(0 0.000308963 0)
(0 0.000262058 0)
(0 0.000201615 0)
(0 0.000323055 0)
(0 0.000140385 0)
(0 8.44845e-05 0)
(0 3.94103e-05 0)
(0 9.54418e-06 0)
(0 0 0)
(0 0 0)
(0 0 0)
(0 0 0)
(0 0 0)
(0 0 0)
(0 0 0)
(0 0 0)
(0 0 0)
(0 0 0)
(0 0 0)
(0 0 0)
(0 0 0)
(0 0 0)
(0 0 0)
(0 0 0)
(0 0 0)
(0 0 0)
(0 1.21032e-07 0)
(0 1.08425e-05 0)
(0 3.67418e-05 0)
(0 7.20007e-05 0)
(0 0.00011785 0)
(0 0.000166747 0)
(0 0.000214024 0)
(0 0.000241623 0)
(0 0.000292852 0)
(0 0.000321896 0)
(0 0.000264888 0)
(0 0.000291136 0)
(0 0.000345827 0)
(0 0.000372066 0)
(0 0.00034387 0)
(0 0.000355411 0)
(0 0.000384065 0)
(0 0.000414995 0)
(0 0.000385242 0)
(0 0.000393452 0)
(0 0.000423486 0)
(0 0.000442724 0)
(0 0.00041293 0)
(0 0.000419563 0)
(0 0.00044955 0)
(0 0.000463854 0)
(0 0.000433485 0)
(0 0.000436084 0)
(0 0.00046652 0)
(0 0.000470033 0)
(0 0.000439599 0)
(0 0.000438169 0)
(0 0.000468658 0)
(0 0.000463854 0)
(0 0.000433485 0)
(0 0.000429857 0)
(0 0.00046013 0)
(0 0.000442724 0)
(0 0.00041293 0)
(0 0.000405335 0)
(0 0.000437554 0)
(0 0.000414995 0)
(0 0.000385242 0)
(0 0.00037614 0)
(0 0.000405571 0)
(0 0.000372066 0)
(0 0.00034387 0)
(0 0.000315164 0)
(0 0.000291136 0)
(0 0.000345827 0)
(0 0.000321896 0)
(0 0.000264888 0)
(0 0.000241623 0)
(0 0.000292852 0)
(0 0.000214024 0)
(0 0.000166747 0)
(0 0.00011785 0)
(0 7.20007e-05 0)
(0 3.67418e-05 0)
(0 1.08425e-05 0)
(0 1.21032e-07 0)
(0 0 0)
(0 0 0)
(0 0 0)
(0 0 0)
(0 0 0)
(0 0 0)
(0 0 0)
(0 0 0)
(0 0 0)
(0 0 0)
(0 0 0)
(0 0 0)
(0 0 0)
(0 0 0)
(0 0 0)
(0 0 0)
(0 0 0)
(0 0 0)
(0 0 0)
(0 0 0)
(0 5.69412e-06 0)
(0 2.37158e-05 0)
(0 4.80436e-05 0)
(0 8.08964e-05 0)
(0 0.000119617 0)
(0 0.000141049 0)
(0 0.000187947 0)
(0 0.000212559 0)
(0 0.000162051 0)
(0 0.000182095 0)
(0 0.000235848 0)
(0 0.000257303 0)
(0 0.000228703 0)
(0 0.000237976 0)
(0 0.0002672 0)
(0 0.000292967 0)
(0 0.000262182 0)
(0 0.000266599 0)
(0 0.000296947 0)
(0 0.000319352 0)
(0 0.000287756 0)
(0 0.00029329 0)
(0 0.000325202 0)
(0 0.00033753 0)
(0 0.000304966 0)
(0 0.000307156 0)
(0 0.00033984 0)
(0 0.000343204 0)
(0 0.000310422 0)
(0 0.000308914 0)
(0 0.000341693 0)
(0 0.00033753 0)
(0 0.000304966 0)
(0 0.000301915 0)
(0 0.000334311 0)
(0 0.000319352 0)
(0 0.000287756 0)
(0 0.000281441 0)
(0 0.000312672 0)
(0 0.000292967 0)
(0 0.000262182 0)
(0 0.00025476 0)
(0 0.000285076 0)
(0 0.000257303 0)
(0 0.000228703 0)
(0 0.000200697 0)
(0 0.000182095 0)
(0 0.000235848 0)
(0 0.000212559 0)
(0 0.000162051 0)
(0 0.000141049 0)
(0 0.000187947 0)
(0 0.000119617 0)
(0 8.08964e-05 0)
(0 4.80436e-05 0)
(0 2.37158e-05 0)
(0 5.69412e-06 0)
(0 0 0)
(0 0 0)
(0 0 0)
(0 0 0)
(0 0 0)
(0 0 0)
(0 0 0)
(0 0 0)
(0 0 0)
(0 0 0)
(0 0 0)
(0 0 0)
(0 0 0)
(0 0 0)
(0 0 0)
(0 0 0)
(0 0 0)
(0 0 0)
(0 0 0)
(0 0 0)
(0 0 0)
(0 0 0)
(0 0 0)
(0 4.84899e-07 0)
(0 8.22504e-06 0)
(0 2.29549e-05 0)
(0 4.81544e-05 0)
(0 6.12645e-05 0)
(0 9.82045e-05 0)
(0 0.000115407 0)
(0 7.45767e-05 0)
(0 8.76408e-05 0)
(0 0.000132012 0)
(0 0.000147565 0)
(0 0.000122973 0)
(0 0.000129515 0)
(0 0.000154815 0)
(0 0.000172277 0)
(0 0.000145803 0)
(0 0.000151941 0)
(0 0.000179021 0)
(0 0.000196017 0)
(0 0.000167451 0)
(0 0.000171543 0)
(0 0.000200489 0)
(0 0.000209962 0)
(0 0.000180221 0)
(0 0.000181855 0)
(0 0.000211743 0)
(0 0.000214588 0)
(0 0.000184522 0)
(0 0.000183168 0)
(0 0.000213175 0)
(0 0.000209962 0)
(0 0.000180221 0)
(0 0.000177947 0)
(0 0.000207482 0)
(0 0.000196017 0)
(0 0.000167451 0)
(0 0.0001628 0)
(0 0.000190927 0)
(0 0.000172277 0)
(0 0.000145803 0)
(0 0.000139246 0)
(0 0.000165059 0)
(0 0.000147565 0)
(0 0.000122973 0)
(0 0.000100036 0)
(0 8.76408e-05 0)
(0 0.000132012 0)
(0 0.000115407 0)
(0 7.45767e-05 0)
(0 6.12645e-05 0)
(0 9.82045e-05 0)
(0 4.81544e-05 0)
(0 2.29549e-05 0)
(0 8.22504e-06 0)
(0 4.84899e-07 0)
(0 0 0)
(0 0 0)
(0 0 0)
(0 0 0)
(0 0 0)
(0 0 0)
(0 0 0)
(0 0 0)
(0 0 0)
(0 0 0)
(0 0 0)
(0 0 0)
(0 0 0)
(0 0 0)
(0 0 0)
(0 0 0)
(0 0 0)
(0 0 0)
(0 0 0)
(0 0 0)
(0 0 0)
(0 0 0)
(0 0 0)
(0 0 0)
(0 0 0)
(0 0 0)
(0 8.78978e-08 0)
(0 6.60371e-06 0)
(0 1.15025e-05 0)
(0 3.18952e-05 0)
(0 4.13245e-05 0)
(0 1.71515e-05 0)
(0 2.31926e-05 0)
(0 5.08374e-05 0)
(0 6.00519e-05 0)
(0 4.13373e-05 0)
(0 4.5569e-05 0)
(0 6.23209e-05 0)
(0 7.65196e-05 0)
(0 5.75874e-05 0)
(0 6.12355e-05 0)
(0 8.0791e-05 0)
(0 9.17141e-05 0)
(0 7.06222e-05 0)
(0 7.31357e-05 0)
(0 9.46243e-05 0)
(0 0.000100834 0)
(0 7.85151e-05 0)
(0 7.9535e-05 0)
(0 0.000102009 0)
(0 0.000104052 0)
(0 8.13458e-05 0)
(0 8.03566e-05 0)
(0 0.000102955 0)
(0 0.000100834 0)
(0 7.85151e-05 0)
(0 7.70997e-05 0)
(0 9.92027e-05 0)
(0 9.17141e-05 0)
(0 7.06222e-05 0)
(0 6.77833e-05 0)
(0 8.84199e-05 0)
(0 7.65196e-05 0)
(0 5.75874e-05 0)
(0 5.37349e-05 0)
(0 7.19909e-05 0)
(0 6.00519e-05 0)
(0 4.13373e-05 0)
(0 2.77976e-05 0)
(0 2.31926e-05 0)
(0 5.08374e-05 0)
(0 4.13245e-05 0)
(0 1.71515e-05 0)
(0 1.15025e-05 0)
(0 3.18952e-05 0)
(0 6.60371e-06 0)
(0 8.78978e-08 0)
(0 0 0)
(0 0 0)
(0 0 0)
(0 0 0)
(0 0 0)
(0 0 0)
(0 0 0)
(0 0 0)
(0 0 0)
(0 0 0)
(0 0 0)
(0 0 0)
(0 0 0)
(0 0 0)
(0 0 0)
(0 0 0)
(0 0 0)
(0 0 0)
(0 0 0)
(0 0 0)
(0 0 0)
(0 0 0)
(0 0 0)
(0 0 0)
(0 0 0)
(0 0 0)
(0 0 0)
(0 0 0)
(0 0 0)
(0 0 0)
(0 0 0)
(0 3.22814e-06 0)
(0 1.16758e-06 0)
(0 0 0)
(0 5.07624e-06 0)
(0 8.48051e-06 0)
(0 2.5963e-07 0)
(0 1.13483e-06 0)
(0 1.22211e-05 0)
(0 1.60114e-05 0)
(0 2.39294e-06 0)
(0 3.81025e-06 0)
(0 1.95929e-05 0)
(0 2.27409e-05 0)
(0 5.19145e-06 0)
(0 6.37442e-06 0)
(0 2.52697e-05 0)
(0 2.70365e-05 0)
(0 7.2341e-06 0)
(0 7.68551e-06 0)
(0 2.79445e-05 0)
(0 2.8671e-05 0)
(0 8.07114e-06 0)
(0 7.68551e-06 0)
(0 2.79445e-05 0)
(0 2.70365e-05 0)
(0 7.2341e-06 0)
(0 6.37442e-06 0)
(0 2.52697e-05 0)
(0 2.27409e-05 0)
(0 5.19145e-06 0)
(0 3.81025e-06 0)
(0 1.95929e-05 0)
(0 1.60114e-05 0)
(0 2.39294e-06 0)
(0 1.13483e-06 0)
(0 1.22211e-05 0)
(0 8.48051e-06 0)
(0 2.5963e-07 0)
(0 0 0)
(0 5.07624e-06 0)
(0 3.22814e-06 0)
(0 0 0)
(0 0 0)
(0 0 0)
(0 1.16758e-06 0)
(0 0 0)
(0 0 0)
(0 0 0)
(0 0 0)
(0 0 0)
(0 0 0)
(0 0 0)
(0 0 0)
(0 0 0)
(0 0 0)
(0 0 0)
(0 0 0)
(0 0 0)
(0 0 0)
(0 0 0)
(0 0 0)
(0 0 0)
(0 0 0)
(0 0 0)
(0 0 0)
(0 0 0)
(0 0 0)
(0 0 0)
(0 0 0)
(0 0 0)
(0 0 0)
(0 0 0)
(0 0 0)
(0 0 0)
(0 0 0)
(0 0 0)
(0 0 0)
(0 0 0)
(0 0 0)
(0 0 0)
(0 0 0)
(0 0 0)
(0 0 0)
(0 0 0)
(0 0 0)
(0 2.33327e-08 0)
(0 0 0)
(0 0 0)
(0 8.97919e-08 0)
(0 5.34248e-08 0)
(0 0 0)
(0 2.33327e-08 0)
(0 5.34248e-08 0)
(0 0 0)
(0 0 0)
(0 0 0)
(0 0 0)
(0 0 0)
(0 0 0)
(0 0 0)
(0 0 0)
(0 0 0)
(0 0 0)
(0 0 0)
(0 0 0)
(0 0 0)
(0 0 0)
(0 0 0)
(0 0 0)
(0 0 0)
(0 0 0)
(0 0 0)
(0 0 0)
(0 0 0)
(0 0 0)
(0 0 0)
(0 0 0)
(0 0 0)
(0 0 0)
(0 0 0)
(0 0 0)
(0 0 0)
(0 0 0)
(0 0 0)
(0 0 0)
(0 0 0)
(0 0 0)
(0 0 0)
(0 0 0)
(0 0 0)
(0 0 0)
(0 0 0)
(0 0 0)
(0 0 0)
(0 0 0)
(0 0 0)
(0 0 0)
(0 0 0)
(0 0 0)
(0 0 0)
(0 0 0)
(0 0 0)
(0 0 0)
(0 0 0)
(0 0 0)
(0 0 0)
(0 0 0)
(0 0 0)
(0 0 0)
(0 0 0)
(0 0 0)
(0 0 0)
(0 0 0)
(0 0 0)
(0 0 0)
(0 0 0)
(0 0 0)
(0 0 0)
(0 0 0)
(0 0 0)
(0 0 0)
(0 0 0)
(0 0 0)
(0 0 0)
(0 0 0)
(0 0 0)
(0 0 0)
(0 0 0)
(0 0 0)
(0 0 0)
(0 0 0)
(0 0 0)
(0 0 0)
(0 0 0)
(0 0 0)
(0 0 0)
(0 0 0)
(0 0 0)
(0 0 0)
(0 0 0)
(0 0 0)
(0 0 0)
(0 0 0)
(0 0 0)
(0 0 0)
(0 0 0)
(0 0 0)
(0 0 0)
(0 0 0)
(0 0 0)
(0 0 0)
(0 0 0)
(0 0 0)
(0 0 0)
(0 0 0)
(0 0 0)
(0 0 0)
(0 0 0)
(0 0 0)
(0 0 0)
(0 0 0)
(0 0 0)
(0 0 0)
(0 0 0)
(0 0 0)
(0 0 0)
(0 0 0)
(0 0 0)
(0 0 0)
(0 0 0)
(0 0 0)
(0 0 0)
(0 0 0)
(0 0 0)
(0 0 0)
(0 0 0)
(0 0 0)
(0 0 0)
(0 0 0)
(0 0 0)
(0 0 0)
(0 0 0)
(0 0 0)
(0 0 0)
(0 0 0)
(0 0 0)
(0 0 0)
(0 0 0)
(0 0 0)
(0 0 0)
(0 0 0)
(0 0 0)
(0 0 0)
(0 0 0)
(0 0 0)
(0 0 0)
(0 0 0)
(0 0 0)
(0 0 0)
(0 0 0)
(0 0 0)
(0 0 0)
(0 0 0)
(0 0 0)
(0 0 0)
(0 0 0)
(0 0 0)
(0 0 0)
(0 0 0)
(0 0 0)
(0 0 0)
(0 0 0)
(0 0 0)
(0 0 0)
(0 0 0)
(0 0 0)
(0 0 0)
(0 0 0)
(0 0 0)
(0 0 0)
(0 0 0)
(0 0 0)
(0 0 0)
(0 0 0)
(0 0 0)
(0 0 0)
(0 0 0)
(0 0 0)
(0 0 0)
(0 0 0)
(0 0 0)
(0 0 0)
(0 0 0)
(0 0 0)
(0 0 0)
(0 0 0)
(0 0 0)
(0 0 0)
(0 0 0)
(0 0 0)
(0 0 0)
(0 0 0)
(0 0 0)
(0 0 0)
(0 0 0)
(0 0 0)
(0 0 0)
(0 0 0)
(0 0 0)
(0 0 0)
(0 0 0)
(0 0 0)
(0 0 0)
(0 0 0)
(0 0 0)
(0 0 0)
(0 0 0)
(0 0 0)
(0 0 0)
(0 0 0)
(0 0 0)
(0 0 0)
(0 0 0)
(0 0 0)
(0 0 0)
(0 0 0)
(0 0 0)
(0 0 0)
(0 0 0)
(0 0 0)
(0 0 0)
(0 0 0)
(0 0 0)
(0 0 0)
(0 0 0)
(0 0 0)
(0 0 0)
(0 0 0)
(0 0 0)
(0 0 0)
(0 0 0)
(0 0 0)
(0 0 0)
(0 0 0)
(0 0 0)
(0 0 0)
(0 0 0)
(0 0 0)
(0 0 0)
(0 0 0)
(0 0 0)
(0 0 0)
(0 0 0)
(0 0 0)
(0 0 0)
(0 0 0)
(0 0 0)
(0 0 0)
(0 0 0)
(0 0 0)
(0 0 0)
(0 0 0)
(0 0 0)
(0 0 0)
(0 0 0)
(0 0 0)
(0 0 0)
(0 0 0)
(0 0 0)
(0 0 0)
(0 0 0)
(0 0 0)
(0 0 0)
(0 0 0)
(0 0 0)
(0 0 0)
(0 0 0)
(0 0 0)
(0 0 0)
(0 0 0)
(0 0 0)
(0 0 0)
(0 0 0)
(0 0 0)
(0 0 0)
(0 0 0)
(0 0 0)
(0 0 0)
(0 0 0)
(0 0 0)
(0 0 0)
(0 0 0)
(0 0 0)
(0 0 0)
(0 0 0)
(0 0 0)
(0 0 0)
(0 0 0)
(0 0 0)
(0 0 0)
(0 0 0)
(0 0 0)
(0 0 0)
(0 0 0)
(0 0 0)
(0 0 0)
(0 0 0)
(0 0 0)
(0 0 0)
(0 0 0)
(0 0 0)
(0 0 0)
(0 0 0)
(0 0 0)
(0 0 0)
(0 0 0)
(0 0 0)
(0 0 0)
(0 0 0)
(0 0 0)
(0 0 0)
(0 0 0)
(0 0 0)
(0 0 0)
(0 0 0)
(0 0 0)
(0 0 0)
(0 0 0)
(0 0 0)
(0 0 0)
(0 0 0)
(0 0 0)
(0 0 0)
(0 0 0)
(0 0 0)
(0 0 0)
(0 0 0)
(0 0 0)
(0 0 0)
(0 0 0)
(0 0 0)
(0 0 0)
(0 0 0)
(0 0 0)
(0 0 0)
(0 0 0)
(0 0 0)
(0 0 0)
(0 0 0)
(0 0 0)
(0 0 0)
(0 0 0)
(0 0 0)
(0 0 0)
(0 0 0)
(0 0 0)
(0 0 0)
(0 0 0)
(0 0 0)
(0 0 0)
(0 0 0)
(0 0 0)
(0 0 0)
(0 0 0)
(0 0 0)
(0 0 0)
(0 0 0)
(0 0 0)
(0 0 0)
(0 0 0)
(0 0 0)
(0 0 0)
(0 0 0)
(0 0 0)
(0 0 0)
(0 0 0)
(0 0 0)
(0 0 0)
(0 0 0)
(0 0 0)
(0 0 0)
(0 0 0)
(0 0 0)
(0 0 0)
(0 0 0)
(0 0 0)
(0 0 0)
(0 0 0)
(0 0 0)
(0 0 0)
(0 0 0)
(0 0 0)
(0 0 0)
(0 0 0)
(0 0 0)
(0 0 0)
(0 0 0)
(0 0 0)
(0 0 0)
(0 0 0)
(0 0 0)
(0 0 0)
(0 0 0)
(0 0 0)
(0 0 0)
(0 0 0)
(0 0 0)
(0 0 0)
(0 0 0)
(0 0 0)
(0 0 0)
(0 0 0)
(0 0 0)
(0 0 0)
(0 0 0)
(0 0 0)
(0 0 0)
(0 0 0)
(0 0 0)
(0 0 0)
(0 0 0)
(0 0 0)
(0 0 0)
(0 0 0)
(0 0 0)
(0 0 0)
(0 0 0)
(0 0 0)
(0 0 0)
(0 0 0)
(0 0 0)
(0 0 0)
(0 0 0)
(0 0 0)
(0 0 0)
(0 0 0)
(0 0 0)
(0 0 0)
(0 0 0)
(0 0 0)
(0 0 0)
(0 0 0)
(0 0 0)
(0 0 0)
(0 0 0)
(0 0 0)
(0 0 0)
(0 0 0)
(0 0 0)
(0 0 0)
(0 0 0)
(0 0 0)
(0 0 0)
(0 0 0)
(0 0 0)
(0 0 0)
(0 0 0)
(0 0 0)
(0 0 0)
(0 0 0)
(0 0 0)
(0 0 0)
(0 0 0)
(0 0 0)
(0 0 0)
(0 0 0)
(0 0 0)
(0 0 0)
(0 0 0)
(0 0 0)
(0 0 0)
(0 0 0)
(0 0 0)
(0 0 0)
(0 0 0)
(0 0 0)
(0 0 0)
(0 0 0)
(0 0 0)
(0 0 0)
(0 0 0)
(0 0 0)
(0 0 0)
(0 0 0)
(0 0 0)
(0 0 0)
(0 0 0)
(0 0 0)
(0 0 0)
(0 0 0)
(0 0 0)
(0 0 0)
(0 0 0)
(0 0 0)
(0 0 0)
(0 0 0)
(0 0 0)
(0 0 0)
(0 0 0)
(0 0 0)
(0 0 0)
(0 0 0)
(0 0 0)
(0 0 0)
(0 0 0)
(0 0 0)
(0 0 0)
(0 0 0)
(0 0 0)
(0 0 0)
(0 0 0)
(0 0 0)
(0 0 0)
(0 0 0)
(0 0 0)
(0 0 0)
(0 0 0)
(0 0 0)
(0 0 0)
(0 0 0)
(0 0 0)
(0 0 0)
(0 0 0)
(0 0 0)
(0 0 0)
(0 0 0)
(0 0 0)
(0 0 0)
(0 0 0)
(0 0 0)
(0 0 0)
(0 0 0)
(0 0 0)
(0 0 0)
(0 0 0)
(0 0 0)
(0 0 0)
(0 0 0)
(0 0 0)
(0 0 0)
(0 0 0)
(0 0 0)
(0 0 0)
(0 0 0)
(0 0 0)
(0 0 0)
(0 0 0)
(0 0 0)
(0 0 0)
(0 0 0)
(0 0 0)
(0 0 0)
(0 0 0)
(0 0 0)
(0 0 0)
(0 0 0)
(0 0 0)
(0 0 0)
(0 0 0)
(0 0 0)
(0 0 0)
(0 0 0)
(0 0 0)
(0 0 0)
(0 0 0)
(0 0 0)
(0 0 0)
(0 0 0)
(0 0 0)
(0 0 0)
(0 0 0)
(0 0 0)
(0 0 0)
(0 0 0)
(0 0 0)
(0 0 0)
(0 0 0)
(0 0 0)
(0 0 0)
(0 0 0)
(0 0 0)
(0 0 0)
(0 0 0)
(0 0 0)
(0 0 0)
(0 0 0)
(0 0 0)
(0 0 0)
(0 0 0)
(0 0 0)
(0 0 0)
(0 0 0)
(0 0 0)
(0 0 0)
(0 0 0)
(0 0 0)
(0 0 0)
(0 0 0)
(0 0 0)
(0 0 0)
(0 0 0)
(0 0 0)
(0 0 0)
(0 0 0)
(0 0 0)
(0 0 0)
(0 0 0)
(0 0 0)
(0 0 0)
(0 0 0)
(0 0 0)
(0 0 0)
(0 0 0)
(0 0 0)
(0 0 0)
(0 0 0)
(0 0 0)
(0 0 0)
(0 0 0)
(0 0 0)
(0 0 0)
(0 0 0)
(0 0 0)
(0 0 0)
(0 0 0)
(0 0 0)
(0 0 0)
(0 0 0)
(0 0 0)
(0 0 0)
(0 0 0)
(0 0 0)
(0 0 0)
(0 0 0)
(0 0 0)
(0 0 0)
(0 0 0)
(0 0 0)
(0 0 0)
(0 0 0)
(0 0 0)
(0 0 0)
(0 0 0)
(0 0 0)
(0 0 0)
(0 0 0)
(0 0 0)
(0 0 0)
(0 0 0)
(0 0 0)
(0 0 0)
(0 0 0)
(0 0 0)
(0 0 0)
(0 0 0)
(0 0 0)
(0 0 0)
(0 0 0)
(0 0 0)
(0 0 0)
(0 0 0)
(0 0 0)
(0 0 0)
(0 0 0)
(0 0 0)
(0 0 0)
(0 0 0)
(0 0 0)
(0 0 0)
(0 0 0)
(0 0 0)
(0 0 0)
(0 0 0)
(0 0 0)
(0 0 0)
(0 0 0)
(0 0 0)
(0 0 0)
(0 0 0)
(0 0 0)
(0 0 0)
(0 0 0)
(0 0 0)
(0 0 0)
(0 0 0)
(0 0 0)
(0 0 0)
(0 0 0)
(0 0 0)
(0 0 0)
(0 0 0)
(0 0 0)
(0 0 0)
(0 0 0)
(0 0 0)
(0 0 0)
(0 0 0)
(0 0 0)
(0 0 0)
(0 0 0)
(0 0 0)
(0 0 0)
(0 0 0)
(0 0 0)
(0 0 0)
(0 0 0)
(0 0 0)
(0 0 0)
(0 0 0)
(0 0 0)
(0 0 0)
(0 0 0)
(0 0 0)
(0 0 0)
(0 0 0)
(0 0 0)
(0 0 0)
(0 0 0)
(0 0 0)
(0 0 0)
(0 0 0)
(0 0 0)
(0 0 0)
(0 0 0)
(0 0 0)
(0 0 0)
(0 0 0)
(0 0 0)
(0 0 0)
(0 0 0)
(0 0 0)
(0 0 0)
(0 0 0)
(0 0 0)
(0 0 0)
(0 0 0)