/*--------------------------------*- C++ -*----------------------------------*\
| =========                 |                                                 |
| \\      /  F ield         | OpenFOAM: The Open Source CFD Toolbox           |
|  \\    /   O peration     | Version:  v2106                                 |
|   \\  /    A nd           | Website:  www.openfoam.com                      |
|    \\/     M anipulation  |                                                 |
\*---------------------------------------------------------------------------*/
FoamFile
{
    version     2.0;
    format      ascii;
    arch        "LSB;label=32;scalar=64";
    class       pointVectorField;
    location    "0";
    object      pointDisplacement;
}
// * * * * * * * * * * * * * * * * * * * * * * * * * * * * * * * * * * * * * //

dimensions      [0 1 0 0 0 0 0];

internalField   nonuniform List<vector> 
24440
(
(0 0 0)
(0 0 0)
(0 0 0)
(0 0 0)
(0 0 0)
(0 0 0)
(0 0 0)
(0 0 0)
(0 0 0)
(0 0 0)
(0 0 0)
(0 0 0)
(0 0 0)
(0 0 0)
(0 0 0)
(0 0 0)
(0 0 0)
(0 0 0)
(0 0 0)
(0 0 0)
(0 0 0)
(0 0 0)
(0 0 0)
(0 0 0)
(0 0 0)
(0 0 0)
(0 0 0)
(0 0 0)
(0 0 0)
(0 0 0)
(0 0 0)
(0 0 0)
(0 0 0)
(0 0 0)
(0 0 0)
(0 0 0)
(0 0 0)
(0 0 0)
(0 0 0)
(0 0 0)
(0 0 0)
(0 0 0)
(0 0 0)
(0 0 0)
(0 0 0)
(0 0 0)
(0 0 0)
(0 0 0)
(0 0 0)
(0 0 0)
(0 0 0)
(0 0 0)
(0 0 0)
(0 0 0)
(0 0 0)
(0 0 0)
(0 0 0)
(0 0 0)
(0 0 0)
(0 0 0)
(0 0 0)
(0 0 0)
(0 0 0)
(0 0 0)
(0 0 0)
(0 0 0)
(0 0 0)
(0 0 0)
(0 0 0)
(0 0 0)
(0 0 0)
(0 0 0)
(0 0 0)
(0 0 0)
(0 0 0)
(0 0 0)
(0 0 0)
(0 0 0)
(0 0 0)
(0 0 0)
(0 0 0)
(0 0 0)
(0 0 0)
(0 0 0)
(0 0 0)
(0 0 0)
(0 0 0)
(0 0 0)
(0 0 0)
(0 0 0)
(0 0 0)
(0 0 0)
(0 0 0)
(0 0 0)
(0 0 0)
(0 0 0)
(0 0 0)
(0 0 0)
(0 -5.5168e-06 0)
(0 -3.47893e-05 0)
(0 -9.56631e-05 0)
(0 -0.000147412 0)
(0 -0.000167272 0)
(0 -0.000147412 0)
(0 -9.56631e-05 0)
(0 -3.47893e-05 0)
(0 -5.5168e-06 0)
(0 0 0)
(0 0 0)
(0 0 0)
(0 0 0)
(0 0 0)
(0 0 0)
(0 0 0)
(0 0 0)
(0 0 0)
(0 0 0)
(0 0 0)
(0 0 0)
(0 0 0)
(0 0 0)
(0 0 0)
(0 0 0)
(0 0 0)
(0 0 0)
(0 0 0)
(0 0 0)
(0 0 0)
(0 0 0)
(0 0 0)
(0 0 0)
(0 0 0)
(0 0 0)
(0 0 0)
(0 0 0)
(0 0 0)
(0 -9.23915e-06 0)
(0 -0.000122218 0)
(0 -0.00035968 0)
(0 -0.00064794 0)
(0 -0.000924226 0)
(0 -0.00111684 0)
(0 -0.00129589 0)
(0 -0.00135889 0)
(0 -0.00129589 0)
(0 -0.00111684 0)
(0 -0.000924226 0)
(0 -0.00064794 0)
(0 -0.00035968 0)
(0 -0.000122218 0)
(0 -9.23915e-06 0)
(0 0 0)
(0 0 0)
(0 0 0)
(0 0 0)
(0 0 0)
(0 0 0)
(0 0 0)
(0 0 0)
(0 0 0)
(0 0 0)
(0 0 0)
(0 0 0)
(0 0 0)
(0 0 0)
(0 0 0)
(0 0 0)
(0 0 0)
(0 0 0)
(0 0 0)
(0 0 0)
(0 0 0)
(0 0 0)
(0 0 0)
(0 0 0)
(0 -3.87913e-06 0)
(0 -0.000160729 0)
(0 -0.000548136 0)
(0 -0.00108092 0)
(0 -0.00162968 0)
(0 -0.0022419 0)
(0 -0.00277213 0)
(0 -0.00310051 0)
(0 -0.00341452 0)
(0 -0.00352304 0)
(0 -0.00341452 0)
(0 -0.00310051 0)
(0 -0.00277213 0)
(0 -0.0022419 0)
(0 -0.00162968 0)
(0 -0.00108092 0)
(0 -0.000548136 0)
(0 -0.000160729 0)
(0 -3.87913e-06 0)
(0 0 0)
(0 0 0)
(0 0 0)
(0 0 0)
(0 0 0)
(0 0 0)
(0 0 0)
(0 0 0)
(0 0 0)
(0 0 0)
(0 0 0)
(0 0 0)
(0 0 0)
(0 0 0)
(0 0 0)
(0 0 0)
(0 0 0)
(0 0 0)
(0 0 0)
(0 0 0)
(0 0 0)
(0 -3.6679e-05 0)
(0 -0.000381441 0)
(0 -0.0010137 0)
(0 -0.00177855 0)
(0 -0.00272819 0)
(0 -0.00368599 0)
(0 -0.00451575 0)
(0 -0.00529303 0)
(0 -0.0058446 0)
(0 -0.00617414 0)
(0 -0.00632541 0)
(0 -0.00617414 0)
(0 -0.0058446 0)
(0 -0.00529303 0)
(0 -0.00451575 0)
(0 -0.00368599 0)
(0 -0.00272819 0)
(0 -0.00177855 0)
(0 -0.0010137 0)
(0 -0.000381441 0)
(0 -3.88309e-05 0)
(0 0 0)
(0 0 0)
(0 0 0)
(0 0 0)
(0 0 0)
(0 0 0)
(0 0 0)
(0 0 0)
(0 0 0)
(0 0 0)
(0 0 0)
(0 0 0)
(0 0 0)
(0 0 0)
(0 0 0)
(0 0 0)
(0 0 0)
(0 0 0)
(0 0 0)
(0 -7.21394e-05 0)
(0 -0.000505841 0)
(0 -0.00126252 0)
(0 -0.00231778 0)
(0 -0.00357193 0)
(0 -0.00487518 0)
(0 -0.00607115 0)
(0 -0.00720494 0)
(0 -0.00763098 0)
(0 -0.0080917 0)
(0 -0.00847707 0)
(0 -0.00878071 0)
(0 -0.00899783 0)
(0 -0.00914797 0)
(0 -0.00928668 0)
(0 -0.00933312 0)
(0 -0.00928668 0)
(0 -0.00914797 0)
(0 -0.00899783 0)
(0 -0.00878071 0)
(0 -0.00847707 0)
(0 -0.0080917 0)
(0 -0.00763098 0)
(0 -0.00720494 0)
(0 -0.00607115 0)
(0 -0.00487518 0)
(0 -0.00357193 0)
(0 -0.00231778 0)
(0 -0.00123631 0)
(0 -0.000457078 0)
(0 -5.76441e-05 0)
(0 0 0)
(0 0 0)
(0 0 0)
(0 0 0)
(0 0 0)
(0 0 0)
(0 0 0)
(0 0 0)
(0 0 0)
(0 0 0)
(0 0 0)
(0 0 0)
(0 0 0)
(0 0 0)
(0 0 0)
(0 0 0)
(0 0 0)
(0 -4.24312e-05 0)
(0 -0.00048558 0)
(0 -0.00135291 0)
(0 -0.00254578 0)
(0 -0.00394304 0)
(0 -0.00558701 0)
(0 -0.00637307 0)
(0 -0.00706982 0)
(0 -0.00784097 0)
(0 -0.00856379 0)
(0 -0.00922511 0)
(0 -0.00978693 0)
(0 -0.00852946 0)
(0 -0.00905023 0)
(0 -0.00946123 0)
(0 -0.00987577 0)
(0 -0.010201 0)
(0 -0.0104327 0)
(0 -0.0105716 0)
(0 -0.0107189 0)
(0 -0.0107681 0)
(0 -0.0107189 0)
(0 -0.0105716 0)
(0 -0.0104327 0)
(0 -0.010201 0)
(0 -0.00987577 0)
(0 -0.00946123 0)
(0 -0.00905023 0)
(0 -0.00852946 0)
(0 -0.00978693 0)
(0 -0.00922511 0)
(0 -0.00856379 0)
(0 -0.00784097 0)
(0 -0.00706982 0)
(0 -0.00637307 0)
(0 -0.00558701 0)
(0 -0.00394304 0)
(0 -0.00254578 0)
(0 -0.00130356 0)
(0 -0.000464454 0)
(0 -3.85337e-05 0)
(0 0 0)
(0 0 0)
(0 0 0)
(0 0 0)
(0 0 0)
(0 0 0)
(0 0 0)
(0 0 0)
(0 0 0)
(0 0 0)
(0 0 0)
(0 0 0)
(0 0 0)
(0 0 0)
(0 0 0)
(0 0 0)
(0 -0.00026847 0)
(0 -0.00109714 0)
(0 -0.00234554 0)
(0 -0.00391367 0)
(0 -0.0056602 0)
(0 -0.00743488 0)
(0 -0.00654405 0)
(0 -0.00739885 0)
(0 -0.0082214 0)
(0 -0.0089959 0)
(0 -0.00968401 0)
(0 -0.0103819 0)
(0 -0.0109985 0)
(0 -0.011508 0)
(0 -0.0103403 0)
(0 -0.0108064 0)
(0 -0.0119884 0)
(0 -0.0123343 0)
(0 -0.0111772 0)
(0 -0.0115165 0)
(0 -0.0126783 0)
(0 -0.0129205 0)
(0 -0.0117571 0)
(0 -0.0118791 0)
(0 -0.0130608 0)
(0 -0.0131722 0)
(0 -0.0120309 0)
(0 -0.0120816 0)
(0 -0.0132225 0)
(0 -0.0131722 0)
(0 -0.0120309 0)
(0 -0.0118791 0)
(0 -0.0130608 0)
(0 -0.0129205 0)
(0 -0.0117571 0)
(0 -0.0115165 0)
(0 -0.0126783 0)
(0 -0.0123343 0)
(0 -0.0111772 0)
(0 -0.0108064 0)
(0 -0.0119884 0)
(0 -0.011508 0)
(0 -0.0103403 0)
(0 -0.0109985 0)
(0 -0.0103819 0)
(0 -0.00968401 0)
(0 -0.0089959 0)
(0 -0.0082214 0)
(0 -0.00739885 0)
(0 -0.00654405 0)
(0 -0.00743488 0)
(0 -0.0056602 0)
(0 -0.00386656 0)
(0 -0.00232702 0)
(0 -0.00109597 0)
(0 -0.00029187 0)
(0 0 0)
(0 0 0)
(0 0 0)
(0 0 0)
(0 0 0)
(0 0 0)
(0 0 0)
(0 0 0)
(0 0 0)
(0 0 0)
(0 0 0)
(0 0 0)
(0 0 0)
(0 0 0)
(0 0 0)
(0 -5.85664e-05 0)
(0 -0.000601694 0)
(0 -0.00173437 0)
(0 -0.00324952 0)
(0 -0.00505076 0)
(0 -0.00711443 0)
(0 -0.00910223 0)
(0 -0.00832864 0)
(0 -0.00922915 0)
(0 -0.00828701 0)
(0 -0.00921384 0)
(0 -0.0100756 0)
(0 -0.0109247 0)
(0 -0.0100295 0)
(0 -0.0107745 0)
(0 -0.0116903 0)
(0 -0.0120394 0)
(0 -0.0123643 0)
(0 -0.0119225 0)
(0 -0.0114033 0)
(0 -0.0120361 0)
(0 -0.0124899 0)
(0 -0.0127702 0)
(0 -0.0123162 0)
(0 -0.0129978 0)
(0 -0.0134283 0)
(0 -0.0136275 0)
(0 -0.0132 0)
(0 -0.0136457 0)
(0 -0.0140668 0)
(0 -0.0141718 0)
(0 -0.0137754 0)
(0 -0.0140138 0)
(0 -0.0143997 0)
(0 -0.0144546 0)
(0 -0.0140776 0)
(0 -0.0141463 0)
(0 -0.0145151 0)
(0 -0.014504 0)
(0 -0.0141344 0)
(0 -0.0140138 0)
(0 -0.0143997 0)
(0 -0.0143476 0)
(0 -0.013959 0)
(0 -0.0136457 0)
(0 -0.0140668 0)
(0 -0.0139463 0)
(0 -0.0135262 0)
(0 -0.0129978 0)
(0 -0.0134283 0)
(0 -0.0132524 0)
(0 -0.0127695 0)
(0 -0.0120361 0)
(0 -0.0124899 0)
(0 -0.0121841 0)
(0 -0.0117314 0)
(0 -0.0107745 0)
(0 -0.0116903 0)
(0 -0.0109247 0)
(0 -0.0100295 0)
(0 -0.00921384 0)
(0 -0.0100756 0)
(0 -0.00922915 0)
(0 -0.00828701 0)
(0 -0.00832864 0)
(0 -0.00906123 0)
(0 -0.00710952 0)
(0 -0.00513216 0)
(0 -0.00322223 0)
(0 -0.00171749 0)
(0 -0.00063185 0)
(0 -6.69737e-05 0)
(0 0 0)
(0 0 0)
(0 0 0)
(0 0 0)
(0 0 0)
(0 0 0)
(0 0 0)
(0 0 0)
(0 0 0)
(0 0 0)
(0 0 0)
(0 0 0)
(0 0 0)
(0 0 0)
(0 -0.000191616 0)
(0 -0.000969779 0)
(0 -0.00227854 0)
(0 -0.0040037 0)
(0 -0.00599738 0)
(0 -0.00819022 0)
(0 -0.0102368 0)
(0 -0.00973183 0)
(0 -0.0106949 0)
(0 -0.0100395 0)
(0 -0.0109145 0)
(0 -0.0115881 0)
(0 -0.0123947 0)
(0 -0.0117116 0)
(0 -0.0124177 0)
(0 -0.0127834 0)
(0 -0.013098 0)
(0 -0.012783 0)
(0 -0.0136717 0)
(0 -0.0138231 0)
(0 -0.0139452 0)
(0 -0.0137952 0)
(0 -0.0144729 0)
(0 -0.0145939 0)
(0 -0.0146725 0)
(0 -0.014554 0)
(0 -0.0149472 0)
(0 -0.0150354 0)
(0 -0.0150754 0)
(0 -0.0149865 0)
(0 -0.015155 0)
(0 -0.0152197 0)
(0 -0.0152289 0)
(0 -0.0151661 0)
(0 -0.0152082 0)
(0 -0.0152603 0)
(0 -0.0152594 0)
(0 -0.0152069 0)
(0 -0.015155 0)
(0 -0.0152197 0)
(0 -0.0152069 0)
(0 -0.0151399 0)
(0 -0.0149472 0)
(0 -0.0150354 0)
(0 -0.0150018 0)
(0 -0.0148998 0)
(0 -0.0144729 0)
(0 -0.0145939 0)
(0 -0.0145256 0)
(0 -0.0143847 0)
(0 -0.0136717 0)
(0 -0.0138231 0)
(0 -0.0139615 0)
(0 -0.0136981 0)
(0 -0.0134034 0)
(0 -0.0124177 0)
(0 -0.0127834 0)
(0 -0.0131011 0)
(0 -0.0123947 0)
(0 -0.0117116 0)
(0 -0.0109145 0)
(0 -0.0115616 0)
(0 -0.010688 0)
(0 -0.0100395 0)
(0 -0.00974348 0)
(0 -0.0102671 0)
(0 -0.00816963 0)
(0 -0.00605712 0)
(0 -0.00404569 0)
(0 -0.00230494 0)
(0 -0.000983617 0)
(0 -0.000196343 0)
(0 0 0)
(0 0 0)
(0 0 0)
(0 0 0)
(0 0 0)
(0 0 0)
(0 0 0)
(0 0 0)
(0 0 0)
(0 0 0)
(0 0 0)
(0 0 0)
(0 0 0)
(0 0 0)
(0 -0.000295466 0)
(0 -0.00120473 0)
(0 -0.00265115 0)
(0 -0.00451259 0)
(0 -0.00663226 0)
(0 -0.00883207 0)
(0 -0.0109279 0)
(0 -0.0106682 0)
(0 -0.0116237 0)
(0 -0.0111801 0)
(0 -0.0120451 0)
(0 -0.0124941 0)
(0 -0.0132625 0)
(0 -0.0128914 0)
(0 -0.0135908 0)
(0 -0.0137636 0)
(0 -0.0140647 0)
(0 -0.0138959 0)
(0 -0.0146207 0)
(0 -0.0147005 0)
(0 -0.0147906 0)
(0 -0.0147133 0)
(0 -0.0151762 0)
(0 -0.0152148 0)
(0 -0.0152469 0)
(0 -0.0152129 0)
(0 -0.0153093 0)
(0 -0.0153093 0)
(0 -0.0153093 0)
(0 -0.0153093 0)
(0 -0.0153093 0)
(0 -0.0153093 0)
(0 -0.0153093 0)
(0 -0.0153093 0)
(0 -0.0153093 0)
(0 -0.0153093 0)
(0 -0.0153093 0)
(0 -0.0153093 0)
(0 -0.0153093 0)
(0 -0.0153093 0)
(0 -0.0153093 0)
(0 -0.0153093 0)
(0 -0.0153093 0)
(0 -0.0153093 0)
(0 -0.0153093 0)
(0 -0.0153093 0)
(0 -0.0151762 0)
(0 -0.0152148 0)
(0 -0.0151723 0)
(0 -0.0151321 0)
(0 -0.0146207 0)
(0 -0.0147005 0)
(0 -0.0147687 0)
(0 -0.0145605 0)
(0 -0.0144113 0)
(0 -0.013583 0)
(0 -0.0137837 0)
(0 -0.013937 0)
(0 -0.0132441 0)
(0 -0.0129028 0)
(0 -0.0121137 0)
(0 -0.0124786 0)
(0 -0.0116113 0)
(0 -0.0112295 0)
(0 -0.0106592 0)
(0 -0.0109333 0)
(0 -0.00882845 0)
(0 -0.00662172 0)
(0 -0.00449811 0)
(0 -0.00263606 0)
(0 -0.00119224 0)
(0 -0.000288373 0)
(0 0 0)
(0 0 0)
(0 0 0)
(0 0 0)
(0 0 0)
(0 0 0)
(0 0 0)
(0 0 0)
(0 0 0)
(0 0 0)
(0 0 0)
(0 0 0)
(0 0 0)
(0 0 0)
(0 -0.000313261 0)
(0 -0.00124324 0)
(0 -0.00271186 0)
(0 -0.0045957 0)
(0 -0.00673649 0)
(0 -0.00895435 0)
(0 -0.0110629 0)
(0 -0.0110668 0)
(0 -0.0120233 0)
(0 -0.0118815 0)
(0 -0.0127455 0)
(0 -0.0128874 0)
(0 -0.0136411 0)
(0 -0.0135023 0)
(0 -0.0141611 0)
(0 -0.0142247 0)
(0 -0.0144888 0)
(0 -0.0144314 0)
(0 -0.0150276 0)
(0 -0.0150521 0)
(0 -0.0151173 0)
(0 -0.0150946 0)
(0 -0.0153093 0)
(0 -0.0153093 0)
(0 -0.0153093 0)
(0 -0.0153093 0)
(0 -0.0153093 0)
(0 -0.0153093 0)
(0 -0.0153093 0)
(0 -0.0153093 0)
(0 -0.0153093 0)
(0 -0.0153093 0)
(0 -0.0153093 0)
(0 -0.0153093 0)
(0 -0.0153093 0)
(0 -0.0153093 0)
(0 -0.0153093 0)
(0 -0.0153093 0)
(0 -0.0153093 0)
(0 -0.0153086 0)
(0 -0.0153064 0)
(0 -0.0150276 0)
(0 -0.0150521 0)
(0 -0.0150683 0)
(0 -0.0149153 0)
(0 -0.0148612 0)
(0 -0.0141602 0)
(0 -0.0142256 0)
(0 -0.0142685 0)
(0 -0.0136411 0)
(0 -0.0135219 0)
(0 -0.0127607 0)
(0 -0.012855 0)
(0 -0.011986 0)
(0 -0.0118919 0)
(0 -0.0110255 0)
(0 -0.0110382 0)
(0 -0.00892681 0)
(0 -0.00670853 0)
(0 -0.00456974 0)
(0 -0.00269014 0)
(0 -0.00122766 0)
(0 -0.000305188 0)
(0 0 0)
(0 0 0)
(0 0 0)
(0 0 0)
(0 0 0)
(0 0 0)
(0 0 0)
(0 0 0)
(0 0 0)
(0 0 0)
(0 0 0)
(0 0 0)
(0 0 0)
(0 0 0)
(0 -0.000256007 0)
(0 -0.00111885 0)
(0 -0.00251716 0)
(0 -0.00433165 0)
(0 -0.0064087 0)
(0 -0.00857369 0)
(0 -0.0106463 0)
(0 -0.0109455 0)
(0 -0.0119003 0)
(0 -0.0120201 0)
(0 -0.0128851 0)
(0 -0.0127652 0)
(0 -0.0135224 0)
(0 -0.0136397 0)
(0 -0.0142679 0)
(0 -0.0142343 0)
(0 -0.0144983 0)
(0 -0.0145303 0)
(0 -0.0150952 0)
(0 -0.0150872 0)
(0 -0.0151483 0)
(0 -0.0151556 0)
(0 -0.0153093 0)
(0 -0.0153093 0)
(0 -0.0153093 0)
(0 -0.0153093 0)
(0 -0.0153093 0)
(0 -0.0153093 0)
(0 -0.0153093 0)
(0 -0.0153093 0)
(0 -0.0153093 0)
(0 -0.0153093 0)
(0 -0.0153093 0)
(0 -0.0153093 0)
(0 -0.0153093 0)
(0 -0.0153093 0)
(0 -0.0153093 0)
(0 -0.0153093 0)
(0 -0.0150952 0)
(0 -0.0150807 0)
(0 -0.0150727 0)
(0 -0.01492 0)
(0 -0.0149374 0)
(0 -0.0142546 0)
(0 -0.0142332 0)
(0 -0.0141683 0)
(0 -0.0135317 0)
(0 -0.013623 0)
(0 -0.0128653 0)
(0 -0.012772 0)
(0 -0.0119044 0)
(0 -0.0119976 0)
(0 -0.0109468 0)
(0 -0.0106734 0)
(0 -0.00859357 0)
(0 -0.00642169 0)
(0 -0.0043388 0)
(0 -0.00252 0)
(0 -0.00111913 0)
(0 -0.000255448 0)
(0 0 0)
(0 0 0)
(0 0 0)
(0 0 0)
(0 0 0)
(0 0 0)
(0 0 0)
(0 0 0)
(0 0 0)
(0 0 0)
(0 0 0)
(0 0 0)
(0 0 0)
(0 0 0)
(0 -0.000129484 0)
(0 -0.000813315 0)
(0 -0.00202296 0)
(0 -0.00364977 0)
(0 -0.00567437 0)
(0 -0.00774464 0)
(0 -0.00976401 0)
(0 -0.0102995 0)
(0 -0.0112568 0)
(0 -0.0115942 0)
(0 -0.0125141 0)
(0 -0.0121352 0)
(0 -0.0129181 0)
(0 -0.0132943 0)
(0 -0.013957 0)
(0 -0.0137982 0)
(0 -0.0140862 0)
(0 -0.0142404 0)
(0 -0.0148871 0)
(0 -0.014842 0)
(0 -0.0149241 0)
(0 -0.0149723 0)
(0 -0.0152907 0)
(0 -0.015275 0)
(0 -0.0152938 0)
(0 -0.0153035 0)
(0 -0.0153093 0)
(0 -0.0153093 0)
(0 -0.0153093 0)
(0 -0.0153093 0)
(0 -0.0153093 0)
(0 -0.0153093 0)
(0 -0.0153093 0)
(0 -0.0153093 0)
(0 -0.0152907 0)
(0 -0.0152727 0)
(0 -0.0152478 0)
(0 -0.0152701 0)
(0 -0.0148871 0)
(0 -0.014842 0)
(0 -0.0147806 0)
(0 -0.0145859 0)
(0 -0.0147061 0)
(0 -0.013957 0)
(0 -0.0137982 0)
(0 -0.0136179 0)
(0 -0.0129181 0)
(0 -0.0132943 0)
(0 -0.0124908 0)
(0 -0.0121352 0)
(0 -0.0112568 0)
(0 -0.0116247 0)
(0 -0.0102995 0)
(0 -0.00976401 0)
(0 -0.00774464 0)
(0 -0.00560124 0)
(0 -0.00368565 0)
(0 -0.00204648 0)
(0 -0.000826194 0)
(0 -0.000133836 0)
(0 0 0)
(0 0 0)
(0 0 0)
(0 0 0)
(0 0 0)
(0 0 0)
(0 0 0)
(0 0 0)
(0 0 0)
(0 0 0)
(0 0 0)
(0 0 0)
(0 0 0)
(0 0 0)
(0 -1.60218e-05 0)
(0 -0.000475602 0)
(0 -0.00144826 0)
(0 -0.00284788 0)
(0 -0.00454648 0)
(0 -0.00639502 0)
(0 -0.00833477 0)
(0 -0.00907027 0)
(0 -0.0100566 0)
(0 -0.0107033 0)
(0 -0.0116169 0)
(0 -0.0109201 0)
(0 -0.0117848 0)
(0 -0.0124115 0)
(0 -0.0131415 0)
(0 -0.0128488 0)
(0 -0.0131712 0)
(0 -0.0134615 0)
(0 -0.0142449 0)
(0 -0.0141146 0)
(0 -0.0142331 0)
(0 -0.0143414 0)
(0 -0.0149374 0)
(0 -0.0148516 0)
(0 -0.0149142 0)
(0 -0.0149966 0)
(0 -0.015247 0)
(0 -0.015199 0)
(0 -0.0152201 0)
(0 -0.0152639 0)
(0 -0.0153092 0)
(0 -0.0153007 0)
(0 -0.0153041 0)
(0 -0.0153093 0)
(0 -0.0153093 0)
(0 -0.0153093 0)
(0 -0.0153093 0)
(0 -0.0153093 0)
(0 -0.0153093 0)
(0 -0.0153092 0)
(0 -0.0153007 0)
(0 -0.0152961 0)
(0 -0.0153087 0)
(0 -0.0153091 0)
(0 -0.015247 0)
(0 -0.015199 0)
(0 -0.015173 0)
(0 -0.0152252 0)
(0 -0.0149374 0)
(0 -0.0148516 0)
(0 -0.0147819 0)
(0 -0.0148708 0)
(0 -0.0142554 0)
(0 -0.0141358 0)
(0 -0.013992 0)
(0 -0.0137542 0)
(0 -0.0140127 0)
(0 -0.0131054 0)
(0 -0.0128339 0)
(0 -0.0125167 0)
(0 -0.0117686 0)
(0 -0.0124115 0)
(0 -0.0116169 0)
(0 -0.0109201 0)
(0 -0.0100566 0)
(0 -0.0107033 0)
(0 -0.00907027 0)
(0 -0.00833477 0)
(0 -0.00639502 0)
(0 -0.00454648 0)
(0 -0.00284788 0)
(0 -0.00144826 0)
(0 -0.000443642 0)
(0 -1.9245e-05 0)
(0 0 0)
(0 0 0)
(0 0 0)
(0 0 0)
(0 0 0)
(0 0 0)
(0 0 0)
(0 0 0)
(0 0 0)
(0 0 0)
(0 0 0)
(0 0 0)
(0 0 0)
(0 0 0)
(0 0 0)
(0 -0.000146187 0)
(0 -0.000770348 0)
(0 -0.00181246 0)
(0 -0.00316381 0)
(0 -0.00485225 0)
(0 -0.00659799 0)
(0 -0.00742152 0)
(0 -0.0083933 0)
(0 -0.0092243 0)
(0 -0.0101252 0)
(0 -0.00926815 0)
(0 -0.0100861 0)
(0 -0.010972 0)
(0 -0.0117387 0)
(0 -0.0108328 0)
(0 -0.0114579 0)
(0 -0.011977 0)
(0 -0.0124133 0)
(0 -0.0120881 0)
(0 -0.0129934 0)
(0 -0.0125398 0)
(0 -0.0128202 0)
(0 -0.0132499 0)
(0 -0.0138921 0)
(0 -0.0135032 0)
(0 -0.0136588 0)
(0 -0.0140619 0)
(0 -0.0144612 0)
(0 -0.0141166 0)
(0 -0.0142178 0)
(0 -0.0145567 0)
(0 -0.0147563 0)
(0 -0.0144383 0)
(0 -0.0144944 0)
(0 -0.0147954 0)
(0 -0.0148478 0)
(0 -0.0145541 0)
(0 -0.0145389 0)
(0 -0.0148358 0)
(0 -0.0147563 0)
(0 -0.0144383 0)
(0 -0.0143587 0)
(0 -0.014695 0)
(0 -0.0144612 0)
(0 -0.0141166 0)
(0 -0.01399 0)
(0 -0.0143408 0)
(0 -0.0138921 0)
(0 -0.0135032 0)
(0 -0.0133021 0)
(0 -0.0136953 0)
(0 -0.0129934 0)
(0 -0.0125398 0)
(0 -0.0122765 0)
(0 -0.0127132 0)
(0 -0.0117387 0)
(0 -0.0108328 0)
(0 -0.0100861 0)
(0 -0.010972 0)
(0 -0.0101252 0)
(0 -0.00926815 0)
(0 -0.0083933 0)
(0 -0.0092243 0)
(0 -0.00742152 0)
(0 -0.00659799 0)
(0 -0.00485225 0)
(0 -0.00316381 0)
(0 -0.00181246 0)
(0 -0.000770348 0)
(0 -0.000146187 0)
(0 0 0)
(0 0 0)
(0 0 0)
(0 0 0)
(0 0 0)
(0 0 0)
(0 0 0)
(0 0 0)
(0 0 0)
(0 0 0)
(0 0 0)
(0 0 0)
(0 0 0)
(0 0 0)
(0 0 0)
(0 0 0)
(0 0 0)
(0 -0.000220297 0)
(0 -0.000909659 0)
(0 -0.00195005 0)
(0 -0.00324034 0)
(0 -0.00465363 0)
(0 -0.00604876 0)
(0 -0.00713142 0)
(0 -0.00828266 0)
(0 -0.00745667 0)
(0 -0.0079062 0)
(0 -0.00906013 0)
(0 -0.00974589 0)
(0 -0.00863218 0)
(0 -0.00929617 0)
(0 -0.0104457 0)
(0 -0.0110639 0)
(0 -0.0104919 0)
(0 -0.0107127 0)
(0 -0.0113396 0)
(0 -0.0120431 0)
(0 -0.0114807 0)
(0 -0.0116894 0)
(0 -0.0122535 0)
(0 -0.0127328 0)
(0 -0.0121671 0)
(0 -0.0122603 0)
(0 -0.0128416 0)
(0 -0.0131463 0)
(0 -0.0126031 0)
(0 -0.0126665 0)
(0 -0.0132092 0)
(0 -0.0132832 0)
(0 -0.0127434 0)
(0 -0.0127173 0)
(0 -0.0132595 0)
(0 -0.0131463 0)
(0 -0.0126031 0)
(0 -0.0125142 0)
(0 -0.013058 0)
(0 -0.0127328 0)
(0 -0.0121671 0)
(0 -0.0120329 0)
(0 -0.0125984 0)
(0 -0.0120431 0)
(0 -0.0114807 0)
(0 -0.0112479 0)
(0 -0.011808 0)
(0 -0.0110639 0)
(0 -0.0104919 0)
(0 -0.00983073 0)
(0 -0.00929617 0)
(0 -0.0104457 0)
(0 -0.00974589 0)
(0 -0.00863218 0)
(0 -0.0079062 0)
(0 -0.00906013 0)
(0 -0.00828266 0)
(0 -0.00713142 0)
(0 -0.00604876 0)
(0 -0.00465363 0)
(0 -0.00745667 0)
(0 -0.00324034 0)
(0 -0.00195005 0)
(0 -0.000909659 0)
(0 -0.000220297 0)
(0 0 0)
(0 0 0)
(0 0 0)
(0 0 0)
(0 0 0)
(0 0 0)
(0 0 0)
(0 0 0)
(0 0 0)
(0 0 0)
(0 0 0)
(0 0 0)
(0 0 0)
(0 0 0)
(0 0 0)
(0 0 0)
(0 0 0)
(0 0 0)
(0 -2.79364e-06 0)
(0 -0.000250265 0)
(0 -0.000848065 0)
(0 -0.0016619 0)
(0 -0.00272018 0)
(0 -0.00384882 0)
(0 -0.00494006 0)
(0 -0.0055771 0)
(0 -0.00675954 0)
(0 -0.00742992 0)
(0 -0.00611409 0)
(0 -0.00671994 0)
(0 -0.0079823 0)
(0 -0.00858795 0)
(0 -0.00793714 0)
(0 -0.00820353 0)
(0 -0.0088649 0)
(0 -0.00957882 0)
(0 -0.00889206 0)
(0 -0.00908156 0)
(0 -0.0097748 0)
(0 -0.0102189 0)
(0 -0.00953116 0)
(0 -0.00968426 0)
(0 -0.0103764 0)
(0 -0.0107066 0)
(0 -0.0100056 0)
(0 -0.0100656 0)
(0 -0.0107681 0)
(0 -0.0108492 0)
(0 -0.0101467 0)
(0 -0.0101137 0)
(0 -0.0108175 0)
(0 -0.0107066 0)
(0 -0.0100056 0)
(0 -0.00992187 0)
(0 -0.0106206 0)
(0 -0.0102189 0)
(0 -0.00953116 0)
(0 -0.00935585 0)
(0 -0.0100995 0)
(0 -0.00957882 0)
(0 -0.00889206 0)
(0 -0.00868199 0)
(0 -0.0093613 0)
(0 -0.00858795 0)
(0 -0.00793714 0)
(0 -0.00727455 0)
(0 -0.00671994 0)
(0 -0.0079823 0)
(0 -0.00742992 0)
(0 -0.00611409 0)
(0 -0.0055771 0)
(0 -0.00675954 0)
(0 -0.00494006 0)
(0 -0.00384882 0)
(0 -0.00272018 0)
(0 -0.0016619 0)
(0 -0.000848065 0)
(0 -0.000250265 0)
(0 -2.79364e-06 0)
(0 0 0)
(0 0 0)
(0 0 0)
(0 0 0)
(0 0 0)
(0 0 0)
(0 0 0)
(0 0 0)
(0 0 0)
(0 0 0)
(0 0 0)
(0 0 0)
(0 0 0)
(0 0 0)
(0 0 0)
(0 0 0)
(0 0 0)
(0 0 0)
(0 0 0)
(0 0 0)
(0 -0.00013143 0)
(0 -0.000547403 0)
(0 -0.00110893 0)
(0 -0.00186723 0)
(0 -0.00276098 0)
(0 -0.00325566 0)
(0 -0.00433814 0)
(0 -0.00490625 0)
(0 -0.00374042 0)
(0 -0.00420309 0)
(0 -0.0054438 0)
(0 -0.00593902 0)
(0 -0.00527888 0)
(0 -0.00549292 0)
(0 -0.00616744 0)
(0 -0.00676219 0)
(0 -0.00605161 0)
(0 -0.00615357 0)
(0 -0.00685406 0)
(0 -0.00737122 0)
(0 -0.00664191 0)
(0 -0.00676965 0)
(0 -0.00750625 0)
(0 -0.0077908 0)
(0 -0.00703917 0)
(0 -0.0070897 0)
(0 -0.0078441 0)
(0 -0.00792177 0)
(0 -0.0071651 0)
(0 -0.00713028 0)
(0 -0.00788689 0)
(0 -0.0077908 0)
(0 -0.00703917 0)
(0 -0.00696875 0)
(0 -0.0077165 0)
(0 -0.00737122 0)
(0 -0.00664191 0)
(0 -0.00649616 0)
(0 -0.00721703 0)
(0 -0.00676219 0)
(0 -0.00605161 0)
(0 -0.00588031 0)
(0 -0.00658005 0)
(0 -0.00593902 0)
(0 -0.00527888 0)
(0 -0.00463244 0)
(0 -0.00420309 0)
(0 -0.0054438 0)
(0 -0.00490625 0)
(0 -0.00374042 0)
(0 -0.00325566 0)
(0 -0.00433814 0)
(0 -0.00276098 0)
(0 -0.00186723 0)
(0 -0.00110893 0)
(0 -0.000547403 0)
(0 -0.00013143 0)
(0 0 0)
(0 0 0)
(0 0 0)
(0 0 0)
(0 0 0)
(0 0 0)
(0 0 0)
(0 0 0)
(0 0 0)
(0 0 0)
(0 0 0)
(0 0 0)
(0 0 0)
(0 0 0)
(0 0 0)
(0 0 0)
(0 0 0)
(0 0 0)
(0 0 0)
(0 0 0)
(0 0 0)
(0 0 0)
(0 0 0)
(0 -1.11923e-05 0)
(0 -0.000189849 0)
(0 -0.00052984 0)
(0 -0.00111149 0)
(0 -0.00141409 0)
(0 -0.00226673 0)
(0 -0.0026638 0)
(0 -0.00172136 0)
(0 -0.00202291 0)
(0 -0.00304708 0)
(0 -0.00340605 0)
(0 -0.00283843 0)
(0 -0.00298943 0)
(0 -0.0035734 0)
(0 -0.00397646 0)
(0 -0.0033654 0)
(0 -0.00350707 0)
(0 -0.00413213 0)
(0 -0.00452442 0)
(0 -0.00386507 0)
(0 -0.00395951 0)
(0 -0.00462765 0)
(0 -0.00484629 0)
(0 -0.00415982 0)
(0 -0.00419753 0)
(0 -0.00488741 0)
(0 -0.00495307 0)
(0 -0.00425909 0)
(0 -0.00422785 0)
(0 -0.00492045 0)
(0 -0.00484629 0)
(0 -0.00415982 0)
(0 -0.00410734 0)
(0 -0.00478905 0)
(0 -0.00452442 0)
(0 -0.00386507 0)
(0 -0.00375772 0)
(0 -0.00440694 0)
(0 -0.00397646 0)
(0 -0.0033654 0)
(0 -0.00321404 0)
(0 -0.00380986 0)
(0 -0.00340605 0)
(0 -0.00283843 0)
(0 -0.002309 0)
(0 -0.00202291 0)
(0 -0.00304708 0)
(0 -0.0026638 0)
(0 -0.00172136 0)
(0 -0.00141409 0)
(0 -0.00226673 0)
(0 -0.00111149 0)
(0 -0.00052984 0)
(0 -0.000189849 0)
(0 -1.11923e-05 0)
(0 0 0)
(0 0 0)
(0 0 0)
(0 0 0)
(0 0 0)
(0 0 0)
(0 0 0)
(0 0 0)
(0 0 0)
(0 0 0)
(0 0 0)
(0 0 0)
(0 0 0)
(0 0 0)
(0 0 0)
(0 0 0)
(0 0 0)
(0 0 0)
(0 0 0)
(0 0 0)
(0 0 0)
(0 0 0)
(0 0 0)
(0 0 0)
(0 0 0)
(0 0 0)
(0 -2.02884e-06 0)
(0 -0.000152425 0)
(0 -0.000265498 0)
(0 -0.000736197 0)
(0 -0.000953843 0)
(0 -0.000395887 0)
(0 -0.000535326 0)
(0 -0.00117342 0)
(0 -0.0013861 0)
(0 -0.000954137 0)
(0 -0.00105181 0)
(0 -0.00143848 0)
(0 -0.00176621 0)
(0 -0.00132922 0)
(0 -0.00141342 0)
(0 -0.0018648 0)
(0 -0.00211692 0)
(0 -0.00163009 0)
(0 -0.0016881 0)
(0 -0.0021841 0)
(0 -0.00232743 0)
(0 -0.00181227 0)
(0 -0.00183581 0)
(0 -0.00235455 0)
(0 -0.0024017 0)
(0 -0.00187761 0)
(0 -0.00185477 0)
(0 -0.00237638 0)
(0 -0.00232743 0)
(0 -0.00181227 0)
(0 -0.0017796 0)
(0 -0.00228977 0)
(0 -0.00211692 0)
(0 -0.00163009 0)
(0 -0.00156456 0)
(0 -0.00204089 0)
(0 -0.00176621 0)
(0 -0.00132922 0)
(0 -0.0012403 0)
(0 -0.00166168 0)
(0 -0.0013861 0)
(0 -0.000954137 0)
(0 -0.000641617 0)
(0 -0.000535326 0)
(0 -0.00117342 0)
(0 -0.000953843 0)
(0 -0.000395887 0)
(0 -0.000265498 0)
(0 -0.000736197 0)
(0 -0.000152425 0)
(0 -2.02884e-06 0)
(0 0 0)
(0 0 0)
(0 0 0)
(0 0 0)
(0 0 0)
(0 0 0)
(0 0 0)
(0 0 0)
(0 0 0)
(0 0 0)
(0 0 0)
(0 0 0)
(0 0 0)
(0 0 0)
(0 0 0)
(0 0 0)
(0 0 0)
(0 0 0)
(0 0 0)
(0 0 0)
(0 0 0)
(0 0 0)
(0 0 0)
(0 0 0)
(0 0 0)
(0 0 0)
(0 0 0)
(0 0 0)
(0 0 0)
(0 0 0)
(0 0 0)
(0 -7.45113e-05 0)
(0 -2.69499e-05 0)
(0 0 0)
(0 -0.000117169 0)
(0 -0.000195745 0)
(0 -5.99272e-06 0)
(0 -2.61939e-05 0)
(0 -0.000282085 0)
(0 -0.000369572 0)
(0 -5.52333e-05 0)
(0 -8.79474e-05 0)
(0 -0.000452238 0)
(0 -0.000524899 0)
(0 -0.000119828 0)
(0 -0.000147133 0)
(0 -0.000583269 0)
(0 -0.00062405 0)
(0 -0.000166976 0)
(0 -0.000177395 0)
(0 -0.000645008 0)
(0 -0.000661777 0)
(0 -0.000186296 0)
(0 -0.000177395 0)
(0 -0.000645008 0)
(0 -0.00062405 0)
(0 -0.000166976 0)
(0 -0.000147133 0)
(0 -0.000583269 0)
(0 -0.000524899 0)
(0 -0.000119828 0)
(0 -8.79474e-05 0)
(0 -0.000452238 0)
(0 -0.000369572 0)
(0 -5.52333e-05 0)
(0 -2.61939e-05 0)
(0 -0.000282085 0)
(0 -0.000195745 0)
(0 -5.99272e-06 0)
(0 0 0)
(0 -0.000117169 0)
(0 -7.45113e-05 0)
(0 0 0)
(0 0 0)
(0 0 0)
(0 -2.69499e-05 0)
(0 0 0)
(0 0 0)
(0 0 0)
(0 0 0)
(0 0 0)
(0 0 0)
(0 0 0)
(0 0 0)
(0 0 0)
(0 0 0)
(0 0 0)
(0 0 0)
(0 0 0)
(0 0 0)
(0 0 0)
(0 0 0)
(0 0 0)
(0 0 0)
(0 0 0)
(0 0 0)
(0 0 0)
(0 0 0)
(0 0 0)
(0 0 0)
(0 0 0)
(0 0 0)
(0 0 0)
(0 0 0)
(0 0 0)
(0 0 0)
(0 0 0)
(0 0 0)
(0 0 0)
(0 0 0)
(0 0 0)
(0 0 0)
(0 0 0)
(0 0 0)
(0 0 0)
(0 0 0)
(0 -5.3856e-07 0)
(0 0 0)
(0 0 0)
(0 -2.07256e-06 0)
(0 -1.23314e-06 0)
(0 0 0)
(0 -5.3856e-07 0)
(0 -1.23314e-06 0)
(0 0 0)
(0 0 0)
(0 0 0)
(0 0 0)
(0 0 0)
(0 0 0)
(0 0 0)
(0 0 0)
(0 0 0)
(0 0 0)
(0 0 0)
(0 0 0)
(0 0 0)
(0 0 0)
(0 0 0)
(0 0 0)
(0 0 0)
(0 0 0)
(0 0 0)
(0 0 0)
(0 0 0)
(0 0 0)
(0 0 0)
(0 0 0)
(0 0 0)
(0 0 0)
(0 0 0)
(0 0 0)
(0 0 0)
(0 0 0)
(0 0 0)
(0 0 0)
(0 0 0)
(0 0 0)
(0 0 0)
(0 0 0)
(0 0 0)
(0 0 0)
(0 0 0)
(0 0 0)
(0 0 0)
(0 0 0)
(0 0 0)
(0 0 0)
(0 0 0)
(0 0 0)
(0 0 0)
(0 0 0)
(0 0 0)
(0 0 0)
(0 0 0)
(0 0 0)
(0 0 0)
(0 0 0)
(0 0 0)
(0 0 0)
(0 0 0)
(0 0 0)
(0 0 0)
(0 0 0)
(0 0 0)
(0 0 0)
(0 0 0)
(0 0 0)
(0 0 0)
(0 0 0)
(0 0 0)
(0 0 0)
(0 0 0)
(0 0 0)
(0 0 0)
(0 0 0)
(0 0 0)
(0 0 0)
(0 0 0)
(0 0 0)
(0 0 0)
(0 0 0)
(0 0 0)
(0 0 0)
(0 0 0)
(0 0 0)
(0 0 0)
(0 0 0)
(0 0 0)
(0 0 0)
(0 0 0)
(0 0 0)
(0 0 0)
(0 0 0)
(0 0 0)
(0 0 0)
(0 0 0)
(0 0 0)
(0 0 0)
(0 0 0)
(0 0 0)
(0 0 0)
(0 0 0)
(0 0 0)
(0 0 0)
(0 0 0)
(0 0 0)
(0 0 0)
(0 0 0)
(0 0 0)
(0 0 0)
(0 0 0)
(0 0 0)
(0 0 0)
(0 0 0)
(0 0 0)
(0 0 0)
(0 0 0)
(0 0 0)
(0 0 0)
(0 0 0)
(0 0 0)
(0 0 0)
(0 0 0)
(0 0 0)
(0 0 0)
(0 0 0)
(0 0 0)
(0 0 0)
(0 0 0)
(0 0 0)
(0 0 0)
(0 0 0)
(0 0 0)
(0 0 0)
(0 0 0)
(0 0 0)
(0 0 0)
(0 0 0)
(0 0 0)
(0 0 0)
(0 0 0)
(0 0 0)
(0 0 0)
(0 0 0)
(0 0 0)
(0 0 0)
(0 0 0)
(0 0 0)
(0 0 0)
(0 0 0)
(0 0 0)
(0 0 0)
(0 0 0)
(0 0 0)
(0 0 0)
(0 0 0)
(0 0 0)
(0 0 0)
(0 0 0)
(0 0 0)
(0 0 0)
(0 0 0)
(0 0 0)
(0 0 0)
(0 0 0)
(0 0 0)
(0 0 0)
(0 0 0)
(0 0 0)
(0 0 0)
(0 0 0)
(0 0 0)
(0 0 0)
(0 0 0)
(0 0 0)
(0 0 0)
(0 0 0)
(0 0 0)
(0 0 0)
(0 0 0)
(0 0 0)
(0 0 0)
(0 0 0)
(0 0 0)
(0 0 0)
(0 0 0)
(0 0 0)
(0 0 0)
(0 0 0)
(0 0 0)
(0 0 0)
(0 0 0)
(0 0 0)
(0 0 0)
(0 0 0)
(0 0 0)
(0 0 0)
(0 0 0)
(0 0 0)
(0 0 0)
(0 0 0)
(0 0 0)
(0 0 0)
(0 0 0)
(0 0 0)
(0 0 0)
(0 0 0)
(0 0 0)
(0 0 0)
(0 0 0)
(0 0 0)
(0 0 0)
(0 0 0)
(0 0 0)
(0 0 0)
(0 0 0)
(0 0 0)
(0 0 0)
(0 0 0)
(0 0 0)
(0 0 0)
(0 0 0)
(0 0 0)
(0 0 0)
(0 0 0)
(0 0 0)
(0 0 0)
(0 0 0)
(0 0 0)
(0 0 0)
(0 0 0)
(0 0 0)
(0 0 0)
(0 0 0)
(0 0 0)
(0 0 0)
(0 0 0)
(0 0 0)
(0 0 0)
(0 0 0)
(0 0 0)
(0 0 0)
(0 0 0)
(0 0 0)
(0 0 0)
(0 0 0)
(0 0 0)
(0 0 0)
(0 0 0)
(0 0 0)
(0 0 0)
(0 0 0)
(0 0 0)
(0 0 0)
(0 0 0)
(0 0 0)
(0 0 0)
(0 0 0)
(0 0 0)
(0 0 0)
(0 0 0)
(0 0 0)
(0 0 0)
(0 0 0)
(0 0 0)
(0 0 0)
(0 0 0)
(0 0 0)
(0 0 0)
(0 0 0)
(0 0 0)
(0 0 0)
(0 0 0)
(0 0 0)
(0 0 0)
(0 0 0)
(0 0 0)
(0 0 0)
(0 0 0)
(0 0 0)
(0 0 0)
(0 0 0)
(0 0 0)
(0 0 0)
(0 0 0)
(0 0 0)
(0 0 0)
(0 0 0)
(0 0 0)
(0 0 0)
(0 0 0)
(0 0 0)
(0 0 0)
(0 0 0)
(0 0 0)
(0 0 0)
(0 0 0)
(0 0 0)
(0 0 0)
(0 0 0)
(0 0 0)
(0 0 0)
(0 0 0)
(0 0 0)
(0 0 0)
(0 0 0)
(0 0 0)
(0 0 0)
(0 0 0)
(0 0 0)
(0 0 0)
(0 0 0)
(0 0 0)
(0 0 0)
(0 0 0)
(0 0 0)
(0 0 0)
(0 0 0)
(0 0 0)
(0 0 0)
(0 0 0)
(0 0 0)
(0 0 0)
(0 0 0)
(0 0 0)
(0 0 0)
(0 0 0)
(0 0 0)
(0 0 0)
(0 0 0)
(0 0 0)
(0 0 0)
(0 0 0)
(0 0 0)
(0 0 0)
(0 0 0)
(0 0 0)
(0 0 0)
(0 0 0)
(0 0 0)
(0 0 0)
(0 0 0)
(0 0 0)
(0 0 0)
(0 0 0)
(0 0 0)
(0 0 0)
(0 0 0)
(0 0 0)
(0 0 0)
(0 0 0)
(0 0 0)
(0 0 0)
(0 0 0)
(0 0 0)
(0 0 0)
(0 0 0)
(0 0 0)
(0 0 0)
(0 0 0)
(0 0 0)
(0 0 0)
(0 0 0)
(0 0 0)
(0 0 0)
(0 0 0)
(0 0 0)
(0 0 0)
(0 0 0)
(0 0 0)
(0 0 0)
(0 0 0)
(0 0 0)
(0 0 0)
(0 0 0)
(0 0 0)
(0 0 0)
(0 0 0)
(0 0 0)
(0 0 0)
(0 0 0)
(0 0 0)
(0 0 0)
(0 0 0)
(0 0 0)
(0 0 0)
(0 0 0)
(0 0 0)
(0 0 0)
(0 0 0)
(0 0 0)
(0 0 0)
(0 0 0)
(0 0 0)
(0 0 0)
(0 0 0)
(0 0 0)
(0 0 0)
(0 0 0)
(0 0 0)
(0 0 0)
(0 0 0)
(0 0 0)
(0 0 0)
(0 0 0)
(0 0 0)
(0 0 0)
(0 0 0)
(0 0 0)
(0 0 0)
(0 0 0)
(0 0 0)
(0 0 0)
(0 0 0)
(0 0 0)
(0 0 0)
(0 0 0)
(0 0 0)
(0 0 0)
(0 0 0)
(0 0 0)
(0 0 0)
(0 0 0)
(0 0 0)
(0 0 0)
(0 0 0)
(0 0 0)
(0 0 0)
(0 0 0)
(0 0 0)
(0 0 0)
(0 0 0)
(0 0 0)
(0 0 0)
(0 0 0)
(0 0 0)
(0 0 0)
(0 0 0)
(0 0 0)
(0 0 0)
(0 0 0)
(0 0 0)
(0 0 0)
(0 0 0)
(0 0 0)
(0 0 0)
(0 0 0)
(0 0 0)
(0 0 0)
(0 0 0)
(0 0 0)
(0 0 0)
(0 0 0)
(0 0 0)
(0 0 0)
(0 0 0)
(0 0 0)
(0 0 0)
(0 0 0)
(0 0 0)
(0 0 0)
(0 0 0)
(0 0 0)
(0 0 0)
(0 0 0)
(0 0 0)
(0 0 0)
(0 0 0)
(0 0 0)
(0 0 0)
(0 0 0)
(0 0 0)
(0 0 0)
(0 0 0)
(0 0 0)
(0 0 0)
(0 0 0)
(0 0 0)
(0 0 0)
(0 0 0)
(0 0 0)
(0 0 0)
(0 0 0)
(0 0 0)
(0 0 0)
(0 0 0)
(0 0 0)
(0 0 0)
(0 0 0)
(0 0 0)
(0 0 0)
(0 0 0)
(0 0 0)
(0 0 0)
(0 0 0)
(0 0 0)
(0 0 0)
(0 0 0)
(0 0 0)
(0 0 0)
(0 0 0)
(0 0 0)
(0 0 0)
(0 0 0)
(0 0 0)
(0 0 0)
(0 0 0)
(0 0 0)
(0 0 0)
(0 0 0)
(0 0 0)
(0 0 0)
(0 0 0)
(0 0 0)
(0 0 0)
(0 0 0)
(0 0 0)
(0 0 0)
(0 0 0)
(0 0 0)
(0 0 0)
(0 0 0)
(0 0 0)
(0 0 0)
(0 0 0)
(0 0 0)
(0 0 0)
(0 0 0)
(0 0 0)
(0 0 0)
(0 0 0)
(0 0 0)
(0 0 0)
(0 0 0)
(0 0 0)
(0 0 0)
(0 0 0)
(0 0 0)
(0 0 0)
(0 0 0)
(0 0 0)
(0 0 0)
(0 0 0)
(0 0 0)
(0 0 0)
(0 0 0)
(0 0 0)
(0 0 0)
(0 0 0)
(0 0 0)
(0 0 0)
(0 0 0)
(0 0 0)
(0 0 0)
(0 0 0)
(0 0 0)
(0 0 0)
(0 0 0)
(0 0 0)
(0 0 0)
(0 0 0)
(0 0 0)
(0 0 0)
(0 0 0)
(0 0 0)
(0 0 0)
(0 0 0)
(0 0 0)
(0 0 0)
(0 0 0)
(0 0 0)
(0 0 0)
(0 0 0)
(0 0 0)
(0 0 0)
(0 0 0)
(0 0 0)
(0 0 0)
(0 0 0)
(0 0 0)
(0 0 0)
(0 0 0)
(0 0 0)
(0 0 0)
(0 0 0)
(0 0 0)
(0 0 0)
(0 0 0)
(0 0 0)
(0 0 0)
(0 0 0)
(0 0 0)
(0 0 0)
(0 0 0)
(0 0 0)
(0 0 0)
(0 0 0)
(0 0 0)
(0 0 0)
(0 0 0)
(0 0 0)
(0 0 0)
(0 0 0)
(0 0 0)
(0 0 0)
(0 0 0)
(0 0 0)
(0 0 0)
(0 0 0)
(0 0 0)
(0 0 0)
(0 0 0)
(0 0 0)
(0 0 0)
(0 0 0)
(0 0 0)
(0 0 0)
(0 0 0)
(0 0 0)
(0 0 0)
(0 0 0)
(0 0 0)
(0 0 0)
(0 0 0)
(0 0 0)
(0 0 0)
(0 0 0)
(0 0 0)
(0 0 0)
(0 0 0)
(0 0 0)
(0 0 0)
(0 0 0)
(0 0 0)
(0 0 0)
(0 0 0)
(0 0 0)
(0 0 0)
(0 0 0)
(0 0 0)
(0 0 0)
(0 0 0)
(0 0 0)
(0 0 0)
(0 0 0)
(0 0 0)
(0 0 0)
(0 0 0)
(0 0 0)
(0 0 0)
(0 0 0)
(0 0 0)
(0 0 0)
(0 0 0)
(0 0 0)
(0 0 0)
(0 0 0)
(0 0 0)
(0 0 0)
(0 0 0)
(0 0 0)
(0 0 0)
(0 0 0)
(0 0 0)
(0 0 0)
(0 0 0)
(0 0 0)
(0 0 0)
(0 0 0)
(0 0 0)
(0 0 0)
(0 0 0)
(0 0 0)
(0 0 0)
(0 0 0)
(0 0 0)
(0 0 0)
(0 0 0)
(0 0 0)
(0 0 0)
(0 0 0)
(0 0 0)
(0 0 0)
(0 0 0)
(0 0 0)
(0 0 0)
(0 0 0)
(0 0 0)
(0 0 0)
(0 0 0)
(0 0 0)
(0 0 0)
(0 0 0)
(0 0 0)
(0 0 0)
(0 0 0)
(0 0 0)
(0 0 0)
(0 0 0)
(0 0 0)
(0 0 0)
(0 0 0)
(0 0 0)
(0 0 0)
(0 0 0)
(0 0 0)
(0 0 0)
(0 0 0)
(0 0 0)
(0 0 0)
(0 0 0)
(0 0 0)
(0 0 0)
(0 0 0)
(0 0 0)
(0 0 0)
(0 0 0)
(0 0 0)
(0 0 0)
(0 0 0)
(0 0 0)
(0 0 0)
(0 0 0)
(0 0 0)
(0 0 0)
(0 0 0)
(0 0 0)
(0 0 0)
(0 0 0)
(0 0 0)
(0 0 0)
(0 0 0)
(0 0 0)
(0 0 0)
(0 0 0)
(0 0 0)
(0 0 0)
(0 0 0)
(0 0 0)
(0 0 0)
(0 0 0)
(0 0 0)
(0 0 0)
(0 0 0)
(0 0 0)
(0 0 0)
(0 0 0)
(0 0 0)
(0 0 0)
(0 0 0)
(0 0 0)
(0 0 0)
(0 0 0)
(0 0 0)
(0 0 0)
(0 0 0)
(0 0 0)
(0 0 0)
(0 0 0)
(0 0 0)
(0 0 0)
(0 0 0)
(0 0 0)
(0 0 0)
(0 0 0)
(0 0 0)
(0 0 0)
(0 0 0)
(0 0 0)
(0 0 0)
(0 0 0)
(0 0 0)
(0 0 0)