/*--------------------------------*- C++ -*----------------------------------*\
| =========                 |                                                 |
| \\      /  F ield         | OpenFOAM: The Open Source CFD Toolbox           |
|  \\    /   O peration     | Version:  v2106                                 |
|   \\  /    A nd           | Website:  www.openfoam.com                      |
|    \\/     M anipulation  |                                                 |
\*---------------------------------------------------------------------------*/
FoamFile
{
    version     2.0;
    format      ascii;
    arch        "LSB;label=32;scalar=64";
    class       volScalarField;
    location    "0";
    object      p;
}
// * * * * * * * * * * * * * * * * * * * * * * * * * * * * * * * * * * * * * //

dimensions      [0 2 -2 0 0 0 0];

internalField   nonuniform List<scalar> 
11644
(
-0.126636
-0.12601
-0.124722
-0.12284
-0.119996
-0.115964
-0.110894
-0.104921
-0.0978751
-0.0901106
-0.0822829
-0.0746313
-0.0680202
-0.0633643
-0.0598144
-0.0577069
-0.0552489
-0.0515712
-0.0500259
-0.0346024
-0.0210411
-0.0110109
0.00882085
0.0230883
0.0372792
0.04788
0.0532879
0.0557011
0.0548222
0.0509808
0.0454493
0.0388927
0.0319272
0.0251483
0.0189563
0.0135741
0.00926739
0.00589723
0.00343496
0.00226225
-0.130071
-0.129569
-0.128051
-0.125599
-0.122399
-0.118606
-0.113661
-0.10773
-0.101164
-0.0941734
-0.086634
-0.079273
-0.0726663
-0.0658209
-0.0609512
-0.0571976
-0.0523205
-0.0460289
-0.0383988
-0.0267023
-0.0142688
-0.000538384
0.0186375
0.0327532
0.04418
0.0524815
0.0569236
0.0573327
0.0542922
0.0492926
0.0429609
0.0359864
0.0289487
0.0220784
0.0157563
0.0102726
0.00558059
0.00181711
-0.000644663
-0.00163616
-0.129639
-0.129927
-0.129541
-0.128058
-0.125749
-0.122779
-0.119259
-0.114919
-0.10982
-0.103979
-0.0973669
-0.0901901
-0.0818964
-0.0743104
-0.0666644
-0.0588465
-0.0520658
-0.0460035
-0.0356854
-0.0185256
-0.00503769
0.0068542
0.0178578
0.0362085
0.0496273
0.056931
0.0587838
0.0569614
0.0521921
0.0454884
0.0382237
0.0307369
0.0234949
0.0168701
0.0108159
0.00564956
0.00134882
-0.00175354
-0.00341066
-0.00392742
-0.128185
-0.128376
-0.128704
-0.128873
-0.128753
-0.127936
-0.126681
-0.124846
-0.122238
-0.118586
-0.113561
-0.105637
-0.0955698
-0.0796862
-0.0635078
-0.0521472
-0.0420362
-0.0312235
-0.020099
-0.00852188
0.00284285
0.00249737
0.0229845
0.0359601
0.0467122
0.052834
0.0554918
0.052209
0.0462115
0.0386487
0.0304332
0.022711
0.0156844
0.00940424
0.00410594
-0.000259275
-0.0034879
-0.00569093
-0.00694721
-0.00748939
-0.127021
-0.127366
-0.12782
-0.129095
-0.13069
-0.132435
-0.134014
-0.135208
-0.135726
-0.13494
-0.130795
-0.121944
-0.105936
-0.0886721
-0.0669091
-0.0476119
-0.0362365
-0.0142032
0.00496009
0.0185537
0.0214233
0.0294548
0.0277403
0.0252609
0.0340357
0.037152
0.035469
0.0350203
0.031368
0.0259672
0.0192598
0.0119132
0.00541943
2.10146e-05
-0.00415245
-0.00735776
-0.00964953
-0.0110621
-0.0121641
-0.0126705
-0.123766
-0.12408
-0.125193
-0.127106
-0.129824
-0.133469
-0.137573
-0.141991
-0.145745
-0.147468
-0.145207
-0.136791
-0.124576
-0.0985358
-0.0656581
-0.0333119
-0.0114016
0.027635
0.0538446
0.060825
0.0559078
0.0435253
0.0320527
0.00371165
6.97564e-05
0.000652811
0.00364973
0.0026172
0.00548397
0.00607294
0.00361461
-0.000999373
-0.00587167
-0.00980707
-0.0127181
-0.0144234
-0.0154813
-0.0160936
-0.0164982
-0.0169404
-0.1157
-0.116512
-0.118406
-0.120605
-0.124194
-0.128719
-0.134446
-0.141105
-0.147509
-0.150242
-0.147212
-0.139057
-0.123529
-0.115291
-0.0936341
-0.0462038
0.0109476
0.023393
0.0430204
0.0538679
0.0377764
0.0272768
0.00103225
-0.0274986
-0.0629344
-0.0768025
-0.0648434
-0.0430275
-0.0274749
-0.018136
-0.0140621
-0.0138998
-0.0157062
-0.0176337
-0.0187042
-0.0192432
-0.019319
-0.0197931
-0.0198597
-0.0199568
-0.105074
-0.106246
-0.10722
-0.109833
-0.113007
-0.117077
-0.122668
-0.129362
-0.135421
-0.136342
-0.128455
-0.116826
-0.103928
-0.111182
-0.0690149
-0.0489739
0.00626039
0.0519107
0.0730447
0.0800092
0.0571577
0.00180267
-0.0483353
-0.0672027
-0.119963
-0.127191
-0.0972129
-0.0800123
-0.0525362
-0.0371772
-0.0272318
-0.0225834
-0.0214856
-0.0218468
-0.0219243
-0.0219071
-0.0216428
-0.0209712
-0.0210185
-0.0203284
-0.0924638
-0.0922998
-0.0931602
-0.0946485
-0.0962659
-0.099205
-0.102838
-0.106669
-0.107537
-0.10095
-0.08392
-0.0591814
-0.0326049
-0.0290426
0.00284767
0.0530624
0.0563356
0.112722
0.152008
0.130609
0.0758304
-0.00504362
-0.0806613
-0.127357
-0.160141
-0.111068
-0.0996016
-0.076977
-0.0555623
-0.0436695
-0.0319426
-0.0246224
-0.0213403
-0.02047
-0.0207495
-0.0203799
-0.0203201
-0.0196828
-0.0192148
-0.0197599
-0.0763966
-0.0761807
-0.0771753
-0.0765775
-0.077117
-0.077988
-0.0784526
-0.0767238
-0.0693052
-0.0562017
-0.033096
-0.001745
0.0154156
0.0157181
0.0675212
0.123623
0.18115
0.251091
0.271931
0.247429
0.103038
-0.062644
-0.164795
-0.16832
-0.158882
-0.131277
-0.119591
-0.0693561
-0.0452968
-0.0374856
-0.0285891
-0.0215412
-0.0174903
-0.015997
-0.0165411
-0.0165012
-0.0164144
-0.0171858
-0.0166353
-0.016162
-0.0599877
-0.0606565
-0.0588724
-0.0585405
-0.0578225
-0.0554712
-0.052253
-0.0455129
-0.0323803
-0.0160582
-8.60507e-05
0.0288034
0.0499647
0.0662926
0.146425
0.145226
0.206051
0.35242
0.521077
0.596959
0.180393
-0.312286
-0.358737
-0.266386
-0.198407
-0.121812
-0.0548997
-0.061523
-0.0347598
-0.0274713
-0.0213533
-0.0163599
-0.0139771
-0.0125936
-0.0125522
-0.0123545
-0.0106128
-0.00930535
-0.00936878
-0.00863355
-0.0478278
-0.0465183
-0.0449194
-0.0442883
-0.0412741
-0.03731
-0.0320614
-0.0233248
-0.012631
0.00344993
0.0200376
0.0402875
0.0795976
0.106679
0.132824
0.170176
0.215715
0.295544
0.641251
-0.640746
-0.249712
-0.0885289
-0.0247417
-0.0145491
-0.00306287
-0.0172403
-0.0184197
-0.0168465
-0.0156028
-0.0146156
-0.012138
-0.00995501
-0.0082894
-0.00680777
-0.00495555
-0.00436777
-0.00391937
-0.0381728
-0.0342516
-0.0359436
-0.0337739
-0.0318514
-0.0293599
-0.0242254
-0.018955
-0.013827
-0.00938996
0.00992856
0.0100084
0.0205112
0.00559549
-0.0237805
-0.0104218
-0.0157113
-0.100001
-0.270163
-0.0492095
-0.0202696
-0.0139954
-0.0415295
-0.0279529
-0.0155614
-0.0240905
-0.0275092
-0.0312963
-0.0282171
-0.0248891
-0.0204226
-0.0152944
-0.010237
-0.00673293
-0.0050932
-0.00337574
-0.00197699
-0.0297432
-0.030936
-0.0307561
-0.0309731
-0.032999
-0.0328969
-0.0297528
-0.0319866
-0.0276316
-0.0642668
-0.0408133
-0.0295316
-0.0693834
-0.0515019
-0.078479
-0.166417
-0.208404
-0.26883
-0.464151
0.102581
0.151413
0.035543
-0.0757254
-0.0906125
-0.0565226
-0.032662
-0.0585839
-0.0726855
-0.0485429
-0.0413255
-0.0359097
-0.0263973
-0.0171171
-0.0077761
-0.00123969
0.000614764
-0.00478246
-0.0161644
-0.0230632
-0.0296318
-0.036542
-0.0449135
-0.0552001
-0.0534687
-0.0444117
-0.0549514
-0.13361
-0.0734336
-0.152322
-0.159401
-0.121718
-0.142139
-0.210987
-0.211982
-0.185932
-0.532585
-0.287941
-0.0752392
-1.05984
-0.222968
0.0484088
-0.0523586
-0.161517
-0.130213
-0.0477263
-0.0562552
-0.0594123
-0.104148
-0.0787815
-0.0539792
-0.0544929
-0.0386278
-0.023024
-0.0103029
-0.000587351
-0.000541992
0.00843991
-0.0338633
-0.0316033
-0.0385982
-0.0482955
-0.0588547
-0.0699225
-0.0676368
-0.0818537
-0.104632
-0.139417
-0.164087
-0.200589
-0.238805
-0.443022
-0.267421
-0.27577
-0.263769
-0.253966
-0.350569
0.817472
1.77694
-1.12443
-0.134951
-0.579326
-0.279942
-0.488314
-0.192986
-0.167541
-0.127044
-0.0532788
-0.0783531
-0.0832163
-0.0712292
-0.0600824
-0.0473565
-0.0298359
-0.0176795
-0.00696681
-0.00320992
-0.00316072
-0.0332028
-0.0487146
-0.0386945
-0.0473978
-0.0627516
-0.0687143
-0.0728415
-0.0818846
-0.111367
-0.161741
-0.202459
-0.248882
-0.276751
-0.291769
-0.276857
-0.37186
-0.531069
-0.336854
1.23547
1.10725
2.02746
-0.407967
0.563696
-0.62805
-0.681735
-0.186202
-0.00423353
-0.222752
-0.103906
-0.0328781
-0.0702146
-0.0765887
-0.0569691
-0.0615566
-0.0473097
-0.0383343
-0.0236205
-0.00911449
0.00251284
0.00552556
-0.0292901
-0.0369729
-0.0453471
-0.0470082
-0.0457025
-0.0492924
-0.0821114
-0.0756808
-0.0720187
-0.115298
-0.174513
-0.205529
-0.499042
-0.136071
-0.631973
-0.552371
-0.443671
-0.139683
0.37336
0.0145739
0.862845
1.83558
-1.81261
-0.990728
0.00323719
-0.0963856
0.11883
0.0732806
0.00549575
-0.0729644
-0.0505824
-0.0332503
-0.0408537
-0.0354637
-0.0217626
-0.0155562
-0.013233
-0.0151029
-0.0141759
0.000343103
-0.0400855
-0.0398289
-0.0362089
-0.0318768
-0.0278361
-0.0382052
-0.0674891
-0.105022
-0.0979134
-0.0821953
-0.0528241
-0.0506795
0.071577
-0.734245
-0.39325
-0.458974
-0.33264
-0.10123
0.612994
-0.812911
-1.07786
-0.374525
1.37486
1.06577
0.469645
0.342577
0.24727
0.33164
-0.0170058
-0.041373
-0.00365516
-0.0114876
-0.0185455
-0.0067976
-0.00055063
0.00650267
0.00315782
-0.00575205
-0.010816
-0.010203
-0.025306
-0.0268557
-0.0376733
-0.0365643
-0.0342452
-0.0216562
-0.0331821
-0.0772776
-0.103676
-0.118743
-0.125326
-0.4948
0.144945
0.0729045
-0.0307302
0.332366
-0.0471056
0.112752
0.849617
0.418267
0.483276
1.11998
0.373309
-0.597475
0.858857
0.151793
0.257029
0.340193
0.0445922
0.0771778
0.036458
0.00545574
0.00146966
0.0185302
0.01522
0.0100055
0.00179929
-0.00382116
-0.00460843
-0.00768041
-0.0115175
-0.00620925
-0.00779552
-0.0170468
-0.0262549
-0.0243386
-0.0253175
-0.020135
-0.0452272
-0.0887493
-0.133984
-0.239121
-0.0853465
0.0405292
0.19277
0.445238
1.18079
0.85247
0.42715
0.370826
0.0911909
-1.27835
-0.0200453
1.29492
-0.23031
0.00468288
-0.0307633
0.240024
0.295522
0.103902
0.0559141
0.0302277
0.0118273
0.0274479
0.0144908
0.0103355
0.00358045
0.00330599
-0.00351883
-0.00926153
0.0212011
0.0158217
0.0186417
0.0215077
0.0103649
0.0106543
-0.000527668
-0.00746996
-0.0124734
-0.0474646
-0.126016
-0.159876
-0.358642
0.111763
0.461234
0.0901201
-0.585101
1.4222
2.04472
1.06134
-1.65799
-2.09437
-2.08166
0.380343
-1.25581
-0.185635
-0.036991
0.00746496
0.1837
0.101134
0.0815946
0.0606121
0.0332772
0.0277855
0.0221369
0.0162853
0.00813093
-0.000508673
-0.00686115
-0.00965637
0.0463569
0.0454294
0.0440069
0.0444638
0.0441125
0.0454045
0.0410509
0.026852
0.0112438
0.00568508
0.00793029
0.00227816
0.129114
0.564958
-1.74037
-1.36937
-1.46667
-0.534921
1.57149
0.651382
0.700519
-0.0761595
0.823093
-0.789133
-0.284731
-0.844946
0.597405
0.24635
0.21821
0.12437
0.0878851
0.0484945
0.0475002
0.035755
0.0272204
0.0153431
0.00638637
0.00250328
0.000379194
3.45175e-05
0.0659452
0.0732993
0.0726401
0.0725965
0.0721258
0.0681946
0.0755058
0.0790144
0.0873027
0.07463
0.0533074
0.0756029
0.0676268
-0.0398243
1.3322
0.602268
-1.729
-1.86576
0.658623
2.11876
2.39914
1.35174
-0.788592
-1.18187
-0.325695
1.13696
0.224555
0.284182
0.253712
0.165208
0.104313
0.0588004
0.0549907
0.0311169
0.0254521
0.0157409
0.00970789
0.00505721
0.00439318
0.0018606
0.0787347
0.0803448
0.0837963
0.0894094
0.0948858
0.0921496
0.100578
0.10031
0.159091
0.179257
0.181713
0.0921942
0.0827696
-0.153513
-1.29255
-0.708089
0.636734
1.51529
-0.998229
-2.51908
1.94835
0.947139
0.603738
0.87079
0.132192
0.116214
0.400014
0.239556
0.139636
0.14351
0.0982596
0.0766804
0.0326747
0.0235758
0.0139302
0.0105974
0.00673046
0.00588591
0.00468983
-0.000965659
0.108638
0.104566
0.107577
0.110554
0.114035
0.120724
0.134957
0.16647
0.207809
0.268544
0.293497
0.0160522
0.144351
0.0094999
0.495586
-0.242285
-1.06769
-0.985363
-2.28946
-1.05751
-0.46495
0.16063
-1.25924
-1.71103
0.0878975
0.719777
0.417194
0.381243
0.163853
0.113235
0.0472315
0.0295803
0.0352065
0.0282275
0.0153709
0.0112952
-0.000164774
-0.00384557
-0.0102136
0.00386309
0.144154
0.133418
0.137932
0.137732
0.14131
0.147444
0.150504
0.215312
0.219763
0.402655
0.380737
0.13342
0.057258
-0.357972
-0.971554
-1.01595
1.09963
0.667269
-1.26082
-0.534506
1.94675
3.47461
-5.19081
-4.35056
1.45691
0.484329
0.458893
0.155582
0.0619074
-0.039452
-0.0680847
-0.000558171
-0.00807939
0.0177343
0.0115758
0.00487213
-0.00433137
-0.00788449
-0.00447155
-0.00291891
0.15324
0.15626
0.161119
0.166532
0.177478
0.191714
0.215046
0.25452
0.309184
0.393957
0.464961
0.233919
0.290003
-0.0843165
-0.0103594
-0.107313
-0.157862
0.309809
-2.14102
-3.07196
2.72676
2.05694
-0.2006
-0.714208
-0.162539
-0.305569
-0.270114
-0.0822364
-0.0895977
-0.147005
-0.0964993
-0.0551324
-0.0304147
-0.0103527
0.000622454
0.004512
0.00247481
0.00217451
0.000566644
-0.00895025
0.165317
0.172107
0.176952
0.183432
0.195697
0.208624
0.227086
0.251107
0.294559
0.351032
0.318907
0.262549
0.232145
0.144511
0.133248
0.280216
0.335327
0.520498
0.0358735
0.0491242
2.19796
0.832249
-0.733729
-0.743484
-0.262766
0.0456871
-0.148028
-0.231846
-0.114349
-0.115499
-0.0512247
-0.060753
-0.0435135
-0.0352931
-0.0121719
-0.00271213
-0.00284911
-0.00513416
-0.00691636
-0.00682224
0.180042
0.175405
0.180428
0.186428
0.192961
0.202256
0.226829
0.237805
0.266432
0.297917
0.356016
0.0734776
0.138687
0.0481521
0.199792
0.58117
1.43163
1.2772
1.4179
1.61199
0.702913
1.67349
-0.987818
-0.145572
-0.781113
-0.702159
-0.354546
-0.10412
-0.266994
-0.0127392
-0.0221044
-0.00892719
-0.00299548
-0.0280195
-0.0217253
-0.0164011
-0.0143405
-0.0129032
-0.0120608
-0.016719
0.170428
0.172538
0.177176
0.181118
0.185274
0.192126
0.200349
0.202783
0.201919
0.190557
0.138215
0.141335
0.146766
0.155747
0.360919
0.542198
0.946861
0.818446
0.234602
0.350303
-1.05454
-0.510792
-0.446137
-0.468743
-0.137722
-0.0249235
-0.39721
-0.253084
-0.145344
-0.0438097
0.00870383
0.0060982
-0.00731849
-0.0177112
-0.022781
-0.0244755
-0.0248969
-0.0251633
-0.0239196
-0.0183338
0.170836
0.167362
0.168084
0.173564
0.179282
0.181592
0.183156
0.185854
0.167379
0.1406
0.107557
0.0507847
-0.0175127
-0.190983
-0.406064
-0.508178
-0.270221
-0.715382
0.33264
0.658953
0.187933
0.794116
-0.741026
-0.375048
-0.835737
-0.878296
-0.340801
0.0593549
-0.100175
-0.0697095
-0.0434086
-0.0189464
-0.010964
-0.0223066
-0.0271445
-0.0310728
-0.0301904
-0.0252423
-0.0195591
-0.0255639
0.194477
0.180214
0.181929
0.18106
0.184701
0.186586
0.189204
0.182687
0.170044
0.120696
0.0951787
0.0204977
-0.19872
-0.312764
-0.353043
-0.472992
-0.686541
-0.684612
-1.31033
-1.35236
-1.0159
-0.862958
0.195129
0.0189623
0.265494
0.315963
0.0467286
-0.189563
-0.168383
-0.0970987
-0.0210133
0.00978603
-0.000215388
-0.0140657
-0.02382
-0.0265942
-0.026327
-0.0225355
-0.0216152
-0.0117962
0.188165
0.184459
0.188969
0.191806
0.195342
0.19209
0.186518
0.164649
0.140328
0.0649813
0.151677
0.144959
-0.0855384
-0.279522
-0.511092
-0.630725
-0.960759
-0.542869
-1.40546
-2.10705
0.724396
0.57637
0.635391
0.394889
-0.00180906
-0.137768
-0.0056597
0.0326621
-0.0312765
-0.0731689
-0.00224404
-0.0306425
-0.0130655
-0.017714
-0.0247418
-0.0250975
-0.0175053
-0.0184443
-0.0156552
-0.0162142
0.178579
0.181878
0.185704
0.189518
0.195988
0.198308
0.19452
0.185807
0.175016
0.146438
0.192028
0.275065
0.337541
0.192599
0.136304
0.188665
-0.218538
-0.311148
-0.576943
-0.430229
1.74638
0.98768
0.723406
0.990873
0.0545076
0.136672
0.121831
-0.0359779
-0.0430066
-0.0811193
-0.0215805
-0.019042
-0.00842365
-0.0118465
-0.0111808
-0.0100686
-0.00794212
-0.0059967
-0.00431965
-0.00660095
0.168085
0.166083
0.171294
0.180741
0.195484
0.208159
0.203888
0.196705
0.191962
0.218818
0.277434
0.236045
0.213558
0.193829
0.40293
0.315059
0.0417318
0.462236
0.241302
-0.734775
0.262307
0.390202
0.426218
0.395758
0.191846
0.157957
0.127442
0.00480569
-0.0429771
-0.0567436
-0.043792
-0.0308885
-0.0147263
-0.0132234
-0.00643374
-0.00204843
-0.00129222
-0.00564419
-0.00980585
-0.00649338
0.150538
0.160102
0.159732
0.1642
0.168806
0.179934
0.180116
0.176614
0.172001
0.178931
0.258728
0.409882
0.595091
0.498215
0.302545
0.301709
0.344894
0.195029
0.345701
0.236415
0.0883577
0.0214721
-0.162916
-0.0359988
-0.0777261
-0.109366
-0.0665526
0.0876596
0.108663
-0.0799003
-0.0682976
-0.0321255
-0.0133274
-0.022204
-0.0141708
-0.00985004
-0.00462494
-0.00245578
0.00110143
-0.00744249
0.147327
0.139891
0.143675
0.148784
0.156751
0.15221
0.154672
0.155882
0.161594
0.193143
0.159089
0.115151
0.144855
0.488803
0.720419
0.624149
0.947379
0.671727
-0.190684
-0.2663
-1.13291
-0.941305
-0.178809
0.0204145
-0.167139
-0.0337623
0.0124064
-0.0288918
-0.0659123
-0.0749143
0.0486046
0.019719
0.0095664
0.00381435
-0.00136149
0.012246
0.00334417
-0.00387421
-0.00764134
0.00632425
0.109675
0.127089
0.126626
0.127913
0.126311
0.124803
0.120968
0.107703
0.10947
0.0960484
0.173
0.359058
0.354821
0.130529
0.0218984
0.0308988
0.093417
0.248867
-1.75282
-2.11114
-1.70208
-1.06788
0.0628322
-0.291521
-0.38399
-0.336772
-0.0303517
0.0653886
0.109398
0.0756843
0.056849
0.0154757
0.00367105
0.0076805
0.0100296
0.00992547
0.00925501
0.00908983
0.0122648
0.0113067
0.0974123
0.102145
0.103119
0.104286
0.0969873
0.0934506
0.0901791
0.0761446
0.0806105
0.0446085
0.0465767
0.0855784
-0.0321526
0.0447852
0.466561
0.284044
-0.0172496
-0.468064
-0.965165
-0.935201
-0.380705
-0.434323
-0.417185
0.0188667
-0.374085
-0.420641
0.424186
0.128566
0.188468
0.0562278
0.0451607
0.0308296
0.0332856
0.0318971
0.036654
0.0237255
0.0304235
0.0249915
0.0271013
0.0335658
0.06895
0.0748442
0.0716225
0.0712982
0.0665082
0.0624344
0.0450686
0.0585517
0.081081
0.0387496
0.0689219
0.0716951
0.0503588
-0.0848737
0.0003923
0.120504
0.110793
0.108945
-0.512362
-1.14122
0.751628
0.753738
0.330883
0.327211
0.221381
0.202718
0.275446
0.0360089
0.0993402
0.103662
0.076698
0.0629726
0.0605502
0.0514756
0.0468396
0.0423513
0.0388153
0.0344755
0.0315248
0.0413986
0.0493428
0.0551322
0.051829
0.0534138
0.0474115
0.0393038
0.0284225
0.0200823
0.0154431
0.0322716
0.075121
0.0460882
0.0191104
-0.0371816
-0.0842485
-0.0375635
0.0432344
0.363366
-0.434669
-0.948095
1.12862
0.464042
0.142525
0.121359
-0.104583
-0.0584044
0.133217
0.251942
0.172952
0.139269
0.113134
0.0583862
0.0579351
0.0604349
0.0525447
0.0470923
0.0415957
0.0346039
0.0343899
0.0336954
0.0528808
0.0406051
0.0379587
0.0342469
0.0298094
0.0253528
0.011136
0.00369543
-0.0205022
-0.0385958
-0.0187775
-0.026409
-0.0159588
-0.055136
-0.117524
-0.153119
-0.0530737
-0.148043
-0.368418
-0.46859
0.234719
0.435781
0.305397
0.602551
0.193326
0.224302
0.194273
0.137179
0.0950611
0.125134
0.110927
0.0767536
0.067726
0.0639366
0.0565624
0.0500669
0.0452919
0.0415505
0.0406211
0.0574676
0.0234269
0.0339512
0.0298305
0.0251716
0.0190428
0.0107191
-0.00309999
-0.00585587
-0.0518884
-0.036059
-0.0155571
-0.00561441
0.00966826
0.0399891
-0.00650414
-0.00770159
-0.169429
-0.0953724
-0.352098
-0.434007
-0.571254
-0.736236
0.170405
0.135201
0.154739
0.226319
0.227889
0.239513
0.124116
0.070246
0.108856
0.062961
0.054533
0.059096
0.0600666
0.060849
0.0609454
0.0555588
0.054508
0.0438877
0.0180959
0.012548
0.0139997
0.0149847
0.0152819
0.00960566
0.00218932
-0.0160106
-0.0281461
-0.0251182
-0.0423289
-0.0150721
-0.101865
-0.099984
-0.0655387
-0.0780223
-0.0760576
-0.303846
0.137755
-0.133096
-0.193455
-0.0735402
-0.319821
-0.0448744
0.0123657
0.0437264
-0.0616335
-0.01704
0.103081
0.129444
0.0689252
0.0374063
0.0427114
0.0545518
0.0585732
0.0598899
0.0610545
0.0586089
0.0559566
0.0550783
0.0128487
0.0183984
0.0163431
0.0150079
0.0138464
0.0177292
-0.00139176
0.00516859
-0.022884
-0.0213978
-0.0405476
-0.0250961
-0.0209704
-0.0742145
0.235013
0.295015
0.0553704
-0.0413377
-0.195192
-0.131559
-0.203805
-0.380841
-0.265566
-0.387189
0.0437818
0.019253
0.10996
0.159396
0.0343929
0.00939127
0.0359682
0.0388604
0.0385055
0.0533985
0.0546609
0.0579752
0.056379
0.0545952
0.0535985
0.0556419
-0.00564402
0.00728545
0.00944467
0.0124857
0.00984218
0.00745377
0.00847446
0.0185389
-0.00296185
-0.0437262
0.0504208
0.0337715
0.000999779
-0.00498958
0.0765265
0.0609566
0.0274095
0.0772208
-0.206317
-0.306441
-0.0199923
0.023185
0.438105
0.389079
0.368357
0.184432
0.0766458
-0.0219178
-0.0665354
0.011382
0.0337094
0.0141623
0.00890682
0.0293013
0.0409174
0.0455342
0.0457965
0.0483007
0.047398
0.048249
-0.0113946
-0.0162145
-0.0165258
-0.0145993
-0.011192
-0.00984165
-0.00198168
0.00549424
0.0270836
0.0595478
0.105206
0.0962134
0.130721
0.138574
0.122449
0.0215638
-0.187216
-0.318584
-0.285719
-0.241734
0.986657
0.582929
0.0404497
0.211632
0.19026
0.0693394
0.027385
0.0231829
-0.00633426
-0.0444522
-0.0340306
-0.0143813
0.0185763
0.025085
0.0424155
0.0380868
0.0453222
0.0452948
0.0458575
0.0583303
-0.0205366
-0.0289384
-0.0307155
-0.0304795
-0.0297775
-0.0287051
-0.0255934
-0.00820663
0.0104683
0.0384729
0.074899
0.0556813
0.0793526
0.109624
0.116927
0.142079
-0.200619
-0.107427
-0.436187
-0.697828
-0.395641
-0.506645
-0.229349
-0.156633
-0.18637
-0.195175
-0.183966
-0.0819023
-0.0190663
-0.00341019
-0.0327024
-0.00347249
0.0334678
0.0323878
0.0387816
0.04401
0.0479609
0.0492293
0.0475301
0.0444899
-0.00932623
-0.0155583
-0.0201542
-0.0250673
-0.0233206
-0.0200188
-0.0203886
-0.0250793
-0.0235963
0.0489122
0.142394
0.177029
0.181676
0.228569
0.273892
0.231436
0.123054
-0.029276
-0.198905
-0.416369
-0.451824
-0.49867
-0.491366
-0.449134
-0.282097
-0.162367
-0.09038
-0.0609295
-0.00898891
0.0324479
-0.00203343
0.00815845
0.0186385
0.0222465
0.0335424
0.0387203
0.0460577
0.0515481
0.0562557
0.0579948
-0.0220941
-0.0203728
-0.0148109
-0.00975078
-0.00734509
-0.00368833
0.00138339
-0.000515628
0.0179299
0.0311784
0.0279101
0.166733
0.308961
0.327162
0.291608
0.256643
0.174617
0.19858
0.11895
-0.0187988
0.0457364
-0.116711
-0.0291395
0.00891008
0.138528
0.14943
0.164662
0.146489
0.0744831
0.039935
0.03543
0.0330365
0.0427318
0.0450956
0.0516247
0.0504653
0.0518042
0.0500029
0.0491
0.0530923
-0.0407732
-0.0282387
-0.0278933
-0.0241609
-0.023125
-0.0220122
-0.019134
-0.0147243
0.0268102
0.118734
0.189377
0.165166
0.140631
0.175607
0.151518
0.279101
0.1135
0.135113
-0.0554481
-0.169382
0.673167
0.657473
0.715663
0.63937
0.59331
0.460279
0.268281
0.154085
0.133881
0.138593
0.0980724
0.0629823
0.0334884
0.0434545
0.0543405
0.058399
0.058889
0.0602782
0.061164
0.0531101
-0.0416395
-0.0451251
-0.0455751
-0.0459836
-0.0466131
-0.0438816
-0.0327373
-0.0253794
0.0148527
0.0394691
0.0533262
0.186263
0.379067
0.460277
0.495429
0.580792
0.548738
0.625761
0.821977
0.881189
0.827709
0.938466
0.809113
0.686489
0.586314
0.504154
0.279878
0.263479
0.211964
0.0893548
0.0924358
0.0268157
0.0465409
0.0570584
0.0679958
0.0759063
0.0824453
0.0818085
0.079901
0.0769157
-0.0650251
-0.0623339
-0.0674483
-0.0658068
-0.0672291
-0.0687105
-0.0638088
-0.0267517
-0.0237348
0.0075662
0.0380452
0.101354
0.235205
0.413314
0.636136
0.784545
0.643902
0.684783
0.643602
0.734326
0.781942
0.643601
0.53547
0.417206
0.441045
0.451785
0.353918
0.323186
0.197412
0.0919035
0.0731533
0.0602863
0.0665144
0.0739297
0.076567
0.0767182
0.0762129
0.0757157
0.0701096
0.0671259
-0.0591064
-0.0669801
-0.0697025
-0.0717184
-0.0738027
-0.0759544
-0.074446
-0.0587677
-0.0592714
-0.0468482
0.00975939
0.0396945
0.0199054
-0.00406616
0.0639332
0.0882386
0.00473452
0.00224501
0.0549335
0.0904548
0.190528
0.0651073
0.102802
0.119
0.129709
0.125494
0.107291
0.111685
0.15437
0.154371
0.105249
0.0710748
0.068853
0.0665875
0.0648371
0.0602071
0.0579553
0.05767
0.0593829
0.0583678
-0.0579449
-0.065701
-0.0668044
-0.0683449
-0.0696265
-0.0725857
-0.0774652
-0.0775822
-0.0935527
-0.104889
-0.119163
-0.136612
-0.22508
-0.378381
-0.443549
-0.56847
-0.694264
-0.705403
-0.75524
-0.722705
-0.363622
0.012272
0.213457
0.286436
0.367251
0.379164
0.189173
0.16948
0.163173
0.131722
0.119582
0.102215
0.0833092
0.0702054
0.0689204
0.0686463
0.0599421
0.0585767
0.0614039
0.0694901
-0.0623981
-0.0590898
-0.0632501
-0.0692383
-0.0722952
-0.0762547
-0.0810876
-0.0901411
-0.103062
-0.110784
-0.0935934
-0.11626
-0.149193
-0.197876
-0.273629
-0.335003
-0.395897
-0.405705
-0.391526
-0.357904
-0.470631
-0.253198
-0.0494525
0.174435
0.144039
0.228097
0.230219
0.215135
0.220436
0.212436
0.177802
0.152553
0.1167
0.107653
0.0966214
0.0926008
0.0864173
0.0807646
0.0804036
0.0689463
-0.0660025
-0.0724999
-0.0714773
-0.0681551
-0.0649977
-0.0655023
-0.0703562
-0.0768348
-0.0727679
-0.0773855
-0.107254
-0.1517
-0.106034
-0.0929087
-0.0633795
0.154038
0.149071
0.747775
0.820367
0.227241
-0.123857
0.297081
0.396536
-0.0872953
0.0638474
0.0857826
0.1489
0.185654
0.165532
0.178133
0.200262
0.162759
0.145146
0.122808
0.107466
0.100194
0.0976705
0.0878313
0.0784869
0.0780234
-0.0712606
-0.0641244
-0.0644755
-0.0645288
-0.0667633
-0.0752688
-0.0717668
-0.0515705
-0.0934984
-0.100928
-0.102265
-0.182453
-0.171578
-0.136503
-0.0383854
0.283577
0.203249
0.847892
0.924524
0.445166
0.60467
0.678826
0.596451
0.45447
0.370984
0.368945
0.312456
0.269666
0.25016
0.20747
0.152859
0.140613
0.124971
0.0976464
0.0836461
0.0797734
0.0771762
0.0725687
0.0697388
0.0555361
-0.0677647
-0.0633122
-0.0614493
-0.0630825
-0.0756247
-0.0756035
-0.0899752
-0.10242
-0.125136
-0.151559
-0.181324
-0.23368
-0.258345
-0.267866
-0.22504
-0.266488
-0.115538
-0.264902
0.0267767
0.401315
0.859775
0.570027
0.837749
0.840617
0.875652
0.767497
0.61485
0.437593
0.272675
0.194541
0.151851
0.11046
0.0802348
0.0662035
0.0526554
0.0527653
0.0481059
0.0456391
0.04438
0.0450073
-0.0720244
-0.083086
-0.0848536
-0.0897544
-0.0956641
-0.102181
-0.116584
-0.133536
-0.167692
-0.194051
-0.220876
-0.294622
-0.380351
-0.486905
-0.664118
-0.807559
-0.88883
-0.842037
-0.523679
-0.119569
0.255817
0.628705
0.683708
0.424761
0.4859
0.457233
0.417836
0.306245
0.236918
0.176242
0.093873
0.0739711
0.0583875
0.0465578
0.0332973
0.0279715
0.0232677
0.0228805
0.0250724
0.0327846
-0.0764242
-0.0884668
-0.0975921
-0.107379
-0.115116
-0.127619
-0.142462
-0.165672
-0.189677
-0.249708
-0.320795
-0.393552
-0.500861
-0.565696
-0.631911
-0.712662
-0.630956
-0.725412
-0.757988
-0.677266
-0.681886
-0.67119
-0.482191
-0.311375
-0.225282
-0.166752
-0.100906
-0.0222165
0.0371372
0.0703221
0.0527534
0.0545588
0.0396461
0.0299482
0.0287598
0.0278746
0.0227699
0.0260395
0.0270984
0.0242066
-0.0567534
-0.0696748
-0.0775816
-0.0847714
-0.0896517
-0.108043
-0.1265
-0.13502
-0.170182
-0.211352
-0.279288
-0.345917
-0.442259
-0.543038
-0.636691
-0.728537
-0.836859
-0.738144
-0.887464
-0.688679
-0.599254
-0.575398
-0.551876
-0.46054
-0.353097
-0.239948
-0.151268
-0.0780407
-0.0335815
-0.0244259
0.00724252
0.0130986
0.0137825
0.0136577
0.0177048
0.0203627
0.0208062
0.0226453
0.0235275
0.0268255
-0.0501417
-0.0417776
-0.03873
-0.0378337
-0.044783
-0.0589819
-0.0800026
-0.100711
-0.142363
-0.202494
-0.246758
-0.292619
-0.437514
-0.627691
-0.753347
-0.842135
-0.751966
-0.582384
-0.387154
-0.436158
-0.241682
0.112192
0.289147
0.286192
0.266171
0.171391
0.132703
0.0980535
0.0478917
0.00241367
0.000432083
0.00659664
0.00647817
0.00630071
0.00934328
0.0110257
0.0117265
0.0122002
0.0117562
0.00621234
-0.0375234
-0.02564
-0.0202957
-0.0210682
-0.0273083
-0.0425854
-0.0600404
-0.0785014
-0.107152
-0.140763
-0.226052
-0.294819
-0.372992
-0.451178
-0.529123
-0.518876
-0.457119
-0.290961
-0.15842
0.179703
0.366619
0.460768
0.659644
0.697819
0.640116
0.458295
0.273335
0.146942
0.0451672
0.0270576
0.0307505
0.0113202
0.000581429
-0.00564537
-0.00628807
-0.000803631
-0.000555468
-0.000904783
-0.00319555
-0.00115464
-0.0369953
-0.0300397
-0.0322725
-0.0345427
-0.0398696
-0.0470407
-0.0537992
-0.0763814
-0.112646
-0.131103
-0.111142
-0.0839198
-0.0432398
-0.000898781
0.0557799
0.146137
0.227489
0.359152
0.4995
0.488048
0.484317
0.421592
0.2658
0.160564
0.175993
0.0663884
-0.00307289
-0.0364435
-0.030011
-0.00941376
-0.0246818
-0.0309402
-0.0259562
-0.0203379
-0.0186271
-0.0121346
-0.00892624
-0.00428118
-0.00450487
-0.0129949
-0.0321132
-0.0425828
-0.045254
-0.0449195
-0.0472602
-0.0467832
-0.0408641
-0.0588098
-0.0481496
-0.0557826
-0.0381516
0.0231562
0.129825
0.206854
0.242666
0.218639
0.189334
0.232058
0.267962
0.371587
0.253324
-0.08768
-0.469234
-0.508817
-0.477186
-0.321384
-0.231579
-0.176026
-0.116943
-0.11619
-0.120509
-0.0990094
-0.0635235
-0.0433347
-0.0358564
-0.0268373
-0.0250486
-0.0247961
-0.026322
-0.0309531
-0.00998491
-0.0191052
-0.0205687
-0.0182299
-0.0194284
-0.0154751
-0.0068294
-0.00425409
0.00225529
0.00465679
0.0107979
-0.0258072
-0.09486
-0.225254
-0.33209
-0.443134
-0.526358
-0.543897
-0.582202
-0.337377
-0.340252
-0.404611
-0.489822
-0.483199
-0.487718
-0.443505
-0.401964
-0.326386
-0.253553
-0.216016
-0.134125
-0.109865
-0.0944171
-0.0769108
-0.0668217
-0.0631875
-0.0585755
-0.0524655
-0.0446868
-0.0332468
0.014917
0.0198659
0.022272
0.024745
0.0254311
0.026713
0.0288377
0.0264669
0.0130377
-0.00804344
-0.0379604
-0.131266
-0.282578
-0.444059
-0.580193
-0.722145
-0.839724
-0.899479
-0.896465
-0.725356
-0.662817
-0.550116
-0.405743
-0.332168
-0.261146
-0.22713
-0.213023
-0.206794
-0.208392
-0.190323
-0.144852
-0.121358
-0.0995947
-0.0719594
-0.0702083
-0.0652288
-0.060064
-0.0531676
-0.0438234
-0.0372921
0.0340317
0.037871
0.0402684
0.0423345
0.0453678
0.0446783
0.0501961
0.056515
0.0588665
0.0557995
0.0579337
0.0831674
0.0968878
0.0843632
0.0658511
0.105358
-0.181377
-0.263784
-0.319932
-0.281564
-0.400624
-0.493707
-0.514171
-0.620408
-0.468577
-0.459762
-0.344993
-0.255026
-0.19413
-0.118549
-0.0985564
-0.0626697
-0.0552443
-0.0422696
-0.0345155
-0.0311774
-0.0305297
-0.0315187
-0.0309748
-0.0278265
0.0282554
0.0321913
0.0385906
0.0472115
0.0581985
0.0724545
0.0896586
0.0999511
0.132594
0.172038
0.229153
0.313805
0.456527
0.6124
0.748531
0.878096
0.824743
0.658134
0.440877
0.186419
-0.0571898
-0.346589
-0.471672
-0.546885
-0.480609
-0.481981
-0.431867
-0.35678
-0.237108
-0.146768
-0.117701
-0.0833628
-0.0556476
-0.0226052
-0.00856452
-0.00579734
-0.00323763
-0.00556203
-0.0123443
-0.0258339
0.0366459
0.039962
0.0457183
0.054728
0.0686814
0.0853042
0.109527
0.138681
0.18816
0.247166
0.2879
0.36275
0.478709
0.597785
0.693048
0.707012
0.625894
0.584911
0.44954
0.330159
0.242399
0.182292
0.0624322
0.0289553
-0.0173788
-0.0668991
-0.115371
-0.16034
-0.155372
-0.14649
-0.121575
-0.0858192
-0.0712063
-0.0383543
-0.0280261
-0.031344
-0.0220411
-0.0169798
-0.0179698
-0.0326247
0.0404241
0.0463084
0.0533534
0.0643967
0.0783813
0.0889155
0.111768
0.127988
0.158644
0.194528
0.239864
0.291997
0.281343
0.29469
0.293287
0.25741
0.018641
0.0623372
-0.0613103
0.103898
0.195794
0.117771
0.172991
0.349373
0.229333
0.277703
0.202435
0.105258
0.00451829
-0.0501418