/*--------------------------------*- C++ -*----------------------------------*\
| =========                 |                                                 |
| \\      /  F ield         | OpenFOAM: The Open Source CFD Toolbox           |
|  \\    /   O peration     | Version:  v2106                                 |
|   \\  /    A nd           | Website:  www.openfoam.com                      |
|    \\/     M anipulation  |                                                 |
\*---------------------------------------------------------------------------*/
FoamFile
{
    version     2.0;
    format      ascii;
    arch        "LSB;label=32;scalar=64";
    class       volVectorField;
    location    "0";
    object      U;
}
// * * * * * * * * * * * * * * * * * * * * * * * * * * * * * * * * * * * * * //

dimensions      [0 1 -1 0 0 0 0];

internalField   nonuniform List<vector> 
11644
(
(0.000127504 -0.00014352 -2.34868e-20)
(5.08234e-05 -0.000189234 -6.47697e-20)
(0.000106995 -0.000206997 -3.47505e-20)
(0.000256482 -0.000200844 0)
(0.000233995 -0.000202867 0)
(0.000196137 -9.86292e-05 0)
(0.000106404 0.000124978 0)
(-4.15725e-05 0.000584039 0)
(-0.000254691 0.00136823 0)
(-0.000447481 0.00250931 0)
(-0.000808267 0.00402406 0)
(-0.00118455 0.00592302 0)
(-0.00130653 0.00828717 0)
(-0.00169892 0.0108008 0)
(-0.00204269 0.0133641 0)
(-0.00230362 0.015521 0)
(-0.00154326 0.0173704 0)
(-0.000696656 0.017267 0)
(-0.00222449 0.0167115 0)
(-0.00326754 0.0165678 -7.9937e-31)
(-0.00339056 0.0164513 7.55211e-31)
(-0.00108232 0.01624 0)
(0.00222713 0.0137202 0)
(0.00104023 0.0116165 0)
(9.77304e-05 0.00995732 0)
(5.60248e-05 0.00877941 0)
(-0.000196009 0.0082081 0)
(-2.64588e-05 0.0075153 0)
(0.000198075 0.00699785 0)
(0.000371465 0.00646863 0)
(0.0004897 0.00582545 0)
(0.000583015 0.00514713 0)
(0.000640712 0.00442715 0)
(0.000640754 0.00372736 0)
(0.000681347 0.00306498 0)
(0.000712512 0.00232744 0)
(0.000630386 0.00170163 0)
(0.000680797 0.00117156 0)
(0.000659406 0.000783531 0)
(0.000448579 0.000271463 -4.55385e-21)
(0.000135928 4.26394e-05 -3.01687e-20)
(0.000215817 -7.22002e-05 -2.79458e-20)
(0.000100878 8.16205e-05 -1.50088e-20)
(-0.000206022 0.000170874 0)
(-0.000439566 0.000643162 0)
(-0.000647925 0.00110775 0)
(-0.00095158 0.00175797 0)
(-0.00147159 0.00266677 0)
(-0.00209796 0.00371905 0)
(-0.00279125 0.00505074 0)
(-0.00331462 0.00679934 0)
(-0.00416007 0.00901188 0)
(-0.00493518 0.0112659 0)
(-0.00534189 0.0138869 0)
(-0.00484916 0.0172307 0)
(-0.00310684 0.0199785 -1.98663e-21)
(-0.0019571 0.0216407 -5.8939e-21)
(-0.00125061 0.0248162 7.14654e-20)
(0.00128773 0.0263549 -8.71781e-20)
(0.00218013 0.0241009 4.11141e-20)
(0.00231038 0.0204878 -1.35207e-20)
(0.00174792 0.0170874 -1.11216e-20)
(0.000711268 0.0167388 -1.15276e-21)
(0.00182441 0.0166831 6.37299e-21)
(0.0023488 0.0142561 2.16225e-21)
(0.00240026 0.0122548 0)
(0.0026658 0.0100771 0)
(0.00237672 0.00845099 0)
(0.00216528 0.00666439 0)
(0.00205853 0.00507271 0)
(0.00201912 0.00375191 0)
(0.00187899 0.00268669 0)
(0.00176147 0.00185121 0)
(0.00160109 0.00121771 0)
(0.00145548 0.000689025 0)
(0.00123345 0.000484386 0)
(0.00107217 0.000332835 0)
(0.000944902 0.00022615 0)
(0.000898786 0.000159062 0)
(0.000945808 7.88917e-05 0)
(-0.000524784 -8.6217e-06 0)
(-0.000431717 0.000202187 0)
(-0.000396122 9.43438e-05 0)
(-0.000593723 0.000329295 0)
(-0.000892114 0.000412449 -2.75585e-20)
(-0.00134607 0.000619362 0)
(-0.00193628 0.00101267 0)
(-0.00262658 0.00138918 0)
(-0.00336784 0.0019225 0)
(-0.00435329 0.00258662 0)
(-0.00570389 0.00330621 0)
(-0.00649915 0.00435903 0)
(-0.00725163 0.00582232 3.14167e-21)
(-0.00762116 0.00784473 4.61852e-20)
(-0.00769048 0.0101758 -9.51925e-20)
(-0.00739383 0.0128481 -1.38267e-19)
(-0.00721424 0.0166735 1.33862e-19)
(-0.00411972 0.0200321 2.70689e-19)
(-0.000514174 0.020282 -3.29046e-19)
(0.0035108 0.0205083 1.7247e-19)
(0.00639007 0.0209674 -3.49229e-19)
(0.00586808 0.0180029 6.09461e-19)
(0.0050405 0.016077 -3.56802e-19)
(0.00542692 0.0140209 1.91223e-19)
(0.00578772 0.0113356 -2.06781e-19)
(0.0053032 0.00926355 9.8348e-20)
(0.00499065 0.00727791 -4.82762e-20)
(0.00512756 0.00481692 -3.11298e-21)
(0.00503025 0.00303735 0)
(0.00443329 0.00154431 0)
(0.00360012 0.000359307 0)
(0.00298514 -0.000548593 0)
(0.00234879 -0.00108148 0)
(0.00179211 -0.00136776 0)
(0.00133638 -0.00134792 0)
(0.00087221 -0.00123975 0)
(0.000710811 -0.00106672 0)
(0.000345726 -0.000821608 0)
(0.000198659 -0.000640223 0)
(0.000154531 -0.000191431 0)
(1.2488e-05 -0.000103088 0)
(-0.000260441 -0.000470006 0)
(-0.00065081 -0.000594771 0)
(-0.000935005 -0.000647414 0)
(-0.00108316 -0.000976 0)
(-0.00139296 -0.00110401 0)
(-0.00186672 -0.00135699 0)
(-0.00248844 -0.0015189 0)
(-0.00336022 -0.00167751 0)
(-0.00452622 -0.00157207 0)
(-0.00542681 -0.00111323 -4.88908e-22)
(-0.00712088 -0.000203096 1.70629e-20)
(-0.00813852 0.00164365 -1.02116e-19)
(-0.0102568 0.00407139 3.25605e-19)
(-0.0120889 0.00782071 -2.41189e-19)
(-0.0117858 0.0120845 2.71669e-19)
(-0.0104018 0.0162519 -7.47007e-19)
(-0.00706447 0.0178272 8.26464e-19)
(-0.00569671 0.0190834 -1.18861e-19)
(0.000533206 0.0199342 1.26428e-18)
(0.00495053 0.0166661 -1.21831e-18)
(0.00474899 0.0175938 5.8433e-21)
(0.00757425 0.0175443 -8.02558e-19)
(0.00861202 0.0134377 4.87438e-19)
(0.0102431 0.0117549 1.35647e-19)
(0.0105246 0.00874933 1.80283e-19)
(0.0100333 0.00624019 -3.85506e-19)
(0.00907242 0.00397118 1.11221e-19)
(0.00767047 0.00164139 -9.45926e-21)
(0.00664142 5.82873e-05 7.39914e-22)
(0.00567204 -0.00100297 0)
(0.00423372 -0.00157953 0)
(0.00307442 -0.00193987 0)
(0.00212706 -0.00204036 0)
(0.00127417 -0.00200179 0)
(0.000748683 -0.00183762 0)
(0.000257322 -0.00157998 0)
(4.3791e-05 -0.0012017 0)
(-0.000176623 -0.000640037 0)
(-0.000163059 -0.000285455 0)
(0.000524396 -3.65443e-05 0)
(0.000469501 -0.000806428 0)
(0.000232688 -0.000996863 0)
(5.65915e-05 -0.00204922 0)
(-0.000289879 -0.00243934 0)
(-0.000749653 -0.00307875 0)
(-0.0013511 -0.00356503 0)
(-0.00196648 -0.00402102 0)
(-0.00303274 -0.00435464 0)
(-0.00404284 -0.00443565 -2.82594e-20)
(-0.00611822 -0.00353262 1.50472e-19)
(-0.00854294 -0.00110313 -4.33537e-19)
(-0.0125412 0.00136318 4.05248e-19)
(-0.0149048 0.006601 -2.05744e-19)
(-0.0157905 0.0118364 1.34049e-18)
(-0.0176346 0.0151148 -8.69326e-19)
(-0.0146963 0.0189952 -2.13618e-19)
(-0.00983203 0.0200582 -1.87376e-18)
(-0.00772628 0.0212384 3.20322e-18)
(-0.00408975 0.0214332 -3.13183e-18)
(0.000355706 0.0156727 3.43847e-18)
(0.0037428 0.0162825 -3.65797e-18)
(0.0068301 0.0169959 1.84649e-18)
(0.0105052 0.0133215 1.23073e-18)
(0.0133748 0.0126123 1.83771e-20)
(0.0148209 0.0114493 -1.25103e-18)
(0.0156275 0.0088944 1.92885e-19)
(0.0140687 0.00497688 -5.15315e-19)
(0.011902 0.00163402 3.99686e-19)
(0.00893882 -0.00108976 -4.92865e-20)
(0.00649599 -0.00231116 4.02918e-21)
(0.00490903 -0.0026804 0)
(0.00330076 -0.00262546 0)
(0.00208995 -0.00247284 0)
(0.00111933 -0.00220617 0)
(0.000523803 -0.00188925 0)
(-2.66551e-05 -0.00139752 0)
(-0.000433922 -0.00106754 0)
(-0.000760428 -0.000688368 0)
(-0.000820118 -0.000235788 0)
(0.000838581 -0.000720095 0)
(0.00083019 -0.000395844 0)
(0.000781745 -0.00169115 0)
(0.000584049 -0.00194484 0)
(0.000269181 -0.0028481 0)
(-0.000140403 -0.0036758 0)
(-0.000642496 -0.00440152 0)
(-0.00136104 -0.00546403 0)
(-0.0024483 -0.00614711 -1.67929e-20)
(-0.00464256 -0.00580073 1.59839e-20)
(-0.00857349 -0.00446001 -9.16246e-20)
(-0.0130081 -0.00217702 1.42848e-19)
(-0.0161658 0.00107342 3.70516e-19)
(-0.0203598 0.00164097 -1.89787e-19)
(-0.0206315 0.00908957 1.04938e-20)
(-0.0206334 0.0167123 -1.14496e-18)
(-0.0193073 0.0184875 8.95906e-19)
(-0.0140088 0.02232 1.90467e-19)
(-0.00768794 0.0247947 -1.19111e-18)
(-0.00587548 0.0229299 -1.21296e-18)
(-0.000485529 0.019001 5.22298e-20)
(0.00686166 0.0177189 3.17546e-18)
(0.00945457 0.0135945 -8.01705e-19)
(0.0152545 0.0128851 3.77007e-20)
(0.0173246 0.0131009 -2.2165e-19)
(0.0212531 0.0106508 4.35282e-19)
(0.0206696 0.0107936 2.73205e-19)
(0.0215318 0.00724147 -8.73777e-19)
(0.0178153 0.00220103 -7.20964e-20)
(0.0124982 -0.00109268 1.45236e-19)
(0.00737327 -0.00384308 7.69482e-20)
(0.00449208 -0.00474515 7.50758e-22)
(0.00272645 -0.00455032 0)
(0.00135678 -0.00393648 0)
(0.000311046 -0.00335943 0)
(-0.000598136 -0.00271032 0)
(-0.00114835 -0.0022009 0)
(-0.00160615 -0.00139138 0)
(-0.00166958 -0.000978583 0)
(-0.0018721 -0.000244048 0)
(0.00176078 -0.000174931 0)
(0.00158036 -0.00156869 0)
(0.0017126 -0.00212735 0)
(0.00166261 -0.00274178 0)
(0.0012205 -0.00375934 0)
(0.000809957 -0.0044013 0)
(0.000359908 -0.00557853 0)
(-0.000498179 -0.00688677 7.68997e-21)
(-0.00292938 -0.00725434 -9.28819e-21)
(-0.00755498 -0.00611626 -9.31011e-20)
(-0.012717 -0.00293979 7.28276e-20)
(-0.0168879 -0.00221749 -1.37592e-19)
(-0.0160232 0.00102325 -1.57218e-19)
(-0.0266864 0.00486721 5.35038e-19)
(-0.0200732 0.00163865 -1.02756e-18)
(-0.0174204 0.00665038 9.40815e-19)
(-0.00888799 0.0277105 3.15987e-18)
(-0.0181448 0.0266503 6.53361e-19)
(-0.0109432 0.0282446 1.14114e-18)
(-0.00594483 0.0267025 -3.00026e-18)
(0.00265824 0.0194325 -5.1231e-18)
(0.00745708 0.0209604 1.69657e-18)
(0.0149803 0.0138654 1.55059e-19)
(0.0204659 0.00745329 2.75724e-18)
(0.0259828 0.0111908 -7.26476e-19)
(0.0289439 0.0109311 1.55275e-18)
(0.0252722 0.00799063 -7.66941e-19)
(0.0290593 0.00597082 -4.22359e-19)
(0.0225107 0.00199642 1.04279e-18)
(0.0180127 -0.00214122 -7.90496e-19)
(0.010519 -0.0056715 4.15365e-19)
(0.00454909 -0.00746663 -8.99188e-20)
(0.00127196 -0.00744828 5.30258e-21)
(-0.000221435 -0.00619742 0)
(-0.00109175 -0.00498735 0)
(-0.00180141 -0.00390405 0)
(-0.00222825 -0.00288473 0)
(-0.00235248 -0.00201979 0)
(-0.00266212 -0.00104743 0)
(-0.00280812 -0.000352597 0)
(0.00260161 0.000234522 0)
(0.00245599 -0.00117874 0)
(0.00231561 -0.00112664 0)
(0.00225449 -0.00286788 0)
(0.00239958 -0.00347235 0)
(0.00214535 -0.00486952 0)
(0.00202475 -0.00665458 0)
(0.000250455 -0.00795777 -5.30853e-21)
(-0.00566173 -0.00696462 4.05762e-20)
(-0.0120977 -0.0045624 4.55717e-19)
(-0.0165253 -0.00410611 -7.21143e-19)
(-0.0205848 0.00120158 2.30694e-19)
(-0.0208321 -0.0142959 5.19946e-19)
(-0.0150385 -0.00787584 8.50998e-19)
(-0.024421 0.00845423 -5.08863e-19)
(-0.0267388 0.00896881 9.29065e-19)
(-0.032841 0.00262136 1.13856e-18)
(-0.0221432 0.0264527 2.19853e-18)
(-0.0170762 0.0299128 -3.21046e-18)
(-0.0132124 0.0311876 2.86843e-18)
(-0.00448739 0.0246448 -9.96416e-20)
(0.00603225 0.0192308 2.14193e-18)
(0.017375 0.0149635 -2.98153e-19)
(0.0215433 0.0159242 1.85664e-18)
(0.0244857 0.016476 -1.40626e-18)
(0.0264581 0.00711474 1.25579e-20)
(0.0335166 -0.00379552 3.02647e-19)
(0.0307583 0.00910451 -2.86065e-19)
(0.0268272 -0.00403706 3.92032e-19)
(0.0216155 -0.00343963 -2.32644e-20)
(0.0136805 -0.00676423 -1.42871e-20)
(0.00592696 -0.00853299 -1.46697e-20)
(-0.000367491 -0.00884738 3.27266e-20)
(-0.00270733 -0.00738477 0)
(-0.00333253 -0.00555909 0)
(-0.00354868 -0.00421352 0)
(-0.00392962 -0.00293467 0)
(-0.00407501 -0.00215282 0)
(-0.00411661 -0.00126852 0)
(-0.0040194 -0.000477869 0)
(0.00344164 -0.00141792 0)
(0.0037513 -0.00104361 0)
(0.00369655 -0.0030638 0)
(0.00342575 -0.00345155 0)
(0.00339247 -0.00440833 0)
(0.00349543 -0.0058663 0)
(0.00314107 -0.00718817 -1.69295e-21)
(-0.0014314 -0.00713769 -1.15562e-20)
(-0.0101074 -0.00504084 7.39886e-20)
(-0.0173491 -0.00245564 -6.01316e-20)
(-0.0222448 -0.00047617 -5.77184e-20)
(-0.0261199 0.00255048 1.0604e-19)
(-0.0335162 -0.0149209 -1.57435e-19)
(-0.0355802 -0.0107577 -3.9926e-19)
(-0.0254049 0.00882831 1.8674e-19)
(-0.0368249 0.00367457 -1.17112e-19)
(-0.0259364 0.0171291 1.70291e-18)
(-0.0278643 0.00669469 -1.5478e-18)
(-0.0244142 0.0363591 2.01005e-18)
(-0.015071 0.0399717 6.57041e-19)
(0.000107851 0.0437739 2.81435e-18)
(0.0205875 0.0395972 1.53049e-18)
(0.0282215 0.0242142 -1.63824e-18)
(0.0343306 0.0208474 -1.13585e-18)
(0.0429488 -0.00121473 3.37634e-19)
(0.0404457 0.0019215 1.9809e-19)
(0.0255165 -0.00259969 -6.78022e-19)
(0.0286661 0.00230364 1.6119e-19)
(0.0254392 -0.00600512 -3.83922e-19)
(0.0198678 -0.00622956 1.55243e-19)
(0.0140377 -0.00665694 1.50384e-19)
(0.00674803 -0.00689528 -2.96771e-20)
(-0.00128038 -0.0076777 -4.12522e-20)
(-0.00585275 -0.00692782 -2.34437e-21)
(-0.00616649 -0.00489246 0)
(-0.00610418 -0.00338966 0)
(-0.00576593 -0.00230257 0)
(-0.00549421 -0.00139531 0)
(-0.00515582 -0.000553081 0)
(-0.00522279 -0.000529719 0)
(0.00466912 -0.000991131 0)
(0.00448424 -0.00154462 0)
(0.00486645 -0.0031138 0)
(0.00540426 -0.00332742 0)
(0.00552136 -0.00490438 0)
(0.00578562 -0.00563158 0)
(0.00413642 -0.00666033 -2.06206e-20)
(-0.00405067 -0.00614468 -1.16708e-20)
(-0.0137825 -0.00487524 1.0421e-20)
(-0.0210492 -0.00394453 4.88697e-20)
(-0.0269185 -0.00487777 -1.98182e-19)
(-0.035418 -0.00411731 4.59293e-20)
(-0.0425511 -0.00242531 1.50857e-19)
(-0.0205953 -0.0116651 -1.81899e-19)
(-0.0342239 0.00934309 -3.92877e-19)
(-0.03414 -0.0246535 2.5102e-19)
(-0.0357283 0.0119284 2.1162e-19)
(-0.0501324 0.0178069 -7.64033e-19)
(-0.0383633 0.0338716 3.31314e-19)
(-0.0280505 0.0625013 -8.56169e-20)
(0.00561944 0.0689758 4.96072e-19)
(0.0355111 0.0518201 1.5509e-19)
(0.0563601 0.0300801 -3.07778e-19)
(0.0417787 0.00890473 -8.80208e-19)
(0.0465075 -0.00321289 6.02373e-19)
(0.0455075 0.00674369 1.84395e-18)
(0.0454343 -0.0238228 -1.06056e-19)
(0.0185163 -0.00656592 1.82873e-20)
(0.0174541 -0.00648511 -1.31803e-21)
(0.0162305 -0.00515281 6.70916e-20)
(0.0126606 -0.00399101 -3.38638e-20)
(0.00696666 -0.00419386 -2.75738e-20)
(-0.00088428 -0.00511739 1.56856e-20)
(-0.00774508 -0.00530001 7.09794e-21)
(-0.00818258 -0.00400804 0)
(-0.00725156 -0.00262677 0)
(-0.00656705 -0.00162534 0)
(-0.00619751 -0.000770929 0)
(-0.00626218 -0.000679513 0)
(-0.00604568 0.000589865 0)
(0.00520209 0.00207984 0)
(0.00520318 -0.000895421 0)
(0.00466842 0.000109333 0)
(0.00479919 -0.00180628 0)
(0.00528212 -0.002939 0)
(0.00605856 -0.00454713 0)
(0.00380552 -0.0062095 9.94376e-23)
(-0.00484238 -0.00645534 -6.69496e-21)
(-0.0132009 -0.00780887 3.00128e-20)
(-0.0205214 -0.00827765 -1.03013e-19)
(-0.0244742 -0.0125189 1.16944e-19)
(-0.0288521 -0.0183997 -4.76157e-20)
(-0.0333315 -0.00243073 -2.47923e-21)
(-0.0218104 -0.0142386 -1.38588e-19)
(-0.053983 -0.0197984 -2.1526e-19)
(-0.0296642 -0.0209131 1.67046e-19)
(-0.028432 -0.0295127 9.11726e-20)
(-0.0692188 -0.0145459 -4.2291e-20)
(-0.102988 0.0191655 -5.95218e-20)
(-0.0888445 0.106168 9.47731e-19)
(0.00685229 0.170801 -1.39113e-18)
(0.101677 0.0982822 -1.78694e-18)
(0.0913094 0.0168051 -8.11807e-20)
(0.0704216 -0.0144762 5.22723e-20)
(0.0541337 -0.00610472 -3.44406e-20)
(0.0216335 -0.0237956 1.86319e-20)
(0.0254578 0.00226675 -3.82959e-20)
(0.0140738 -0.0265955 -3.60683e-20)
(0.0154954 -0.00450256 7.30568e-20)
(0.0142447 -0.00237045 -8.3632e-21)
(0.0113355 -0.0022556 6.79181e-21)
(0.00682523 -0.00192768 1.02684e-21)
(0.000244554 -0.00177843 2.4574e-20)
(-0.0082981 -0.00226981 -7.95711e-21)
(-0.010639 -0.00219922 0)
(-0.00961641 -0.00145205 0)
(-0.0087481 -0.00114946 0)
(-0.00764756 -0.000383939 0)
(-0.00665099 -0.000495936 0)
(-0.00622256 0.000435893 0)
(0.00517447 -0.00108905 0)
(0.00658051 -0.00174079 0)
(0.00767433 -0.00131168 0)
(0.00887023 -0.00236933 0)
(0.009669 -0.0026944 0)
(0.0104897 -0.00428886 0)
(0.00658439 -0.00562746 3.12029e-22)
(-0.00244358 -0.00616839 1.84448e-21)
(-0.00886518 -0.00822553 -1.34122e-21)
(-0.0151623 -0.0099865 -3.02164e-21)
(-0.0187816 -0.012858 2.34915e-20)
(-0.0193963 -0.0163022 -2.4909e-20)
(-0.004767 -0.0139076 1.32789e-20)
(-0.059347 -0.0162097 -1.38082e-19)
(-0.0243837 -0.038002 -1.08981e-20)
(-0.0521204 -0.0430484 1.81686e-19)
(-0.0594185 -0.0607153 4.1037e-20)
(-0.0825352 -0.0798112 -3.24117e-20)
(-0.280038 -0.0161029 5.85261e-19)
(0.244024 -0.0255668 7.85294e-18)
(0.0630153 -0.0811174 -4.92714e-20)
(0.0254808 -0.0803229 1.51882e-19)
(0.0124813 -0.0642914 -1.09088e-20)
(0.00600647 -0.0260439 2.73745e-20)
(0.0252522 -0.0265268 -9.212e-21)
(0.0173656 -0.0119459 1.31331e-20)
(0.013767 -0.00589102 8.98367e-21)
(0.00969413 -0.00331553 -1.79388e-20)
(0.00581086 -0.00119054 1.10928e-20)
(0.000277275 5.73017e-05 -2.58141e-21)
(-0.00755259 0.000202348 3.9665e-22)
(-0.0105583 0.000138035 0)
(-0.00909153 0.000146125 0)
(-0.00785833 -0.000335905 0)
(-0.00750164 -0.00112652 0)
(-0.00715987 4.34161e-05 0)
(-0.00683291 -0.00371016 0)
(0.0050393 -0.00419611 0)
(0.00539897 -0.000257668 0)
(0.00676591 -0.00266303 0)
(0.00812994 -0.00168205 0)
(0.0104638 -0.00163563 0)
(0.0121015 -0.00132958 0)
(0.00845301 -0.00160618 3.44474e-21)
(0.000780826 -0.002091 3.27046e-21)
(-0.00619032 -0.00430175 -4.72244e-21)
(-0.00935156 -0.00504315 -3.14351e-20)
(-0.00916226 -0.00568266 -2.53584e-20)
(-0.00809931 -0.00422926 7.9158e-21)
(-0.00469045 -0.0184388 5.98733e-20)
(0.00136605 -0.031402 2.06096e-20)
(0.00366133 -0.0373381 -2.37215e-20)
(0.00368638 -0.0602452 -4.65566e-20)
(-0.00148375 -0.090488 1.30615e-19)
(-0.0134572 -0.134716 -2.05014e-20)
(0.0196949 -0.150449 -1.16655e-17)
(-0.0278289 -0.156859 -3.60344e-18)
(0.000750237 -0.116022 3.84794e-20)
(-0.00398966 -0.064468 -1.04615e-20)
(0.00997415 -0.042391 8.35774e-20)
(0.0108863 -0.0374444 7.1218e-21)
(0.00993843 -0.0222811 6.37451e-20)
(0.0106434 -0.0196696 -8.02554e-20)
(0.0105511 -0.00965459 -1.52339e-20)
(0.0082682 -0.00403782 2.27099e-20)
(0.00448933 -0.000476988 1.7767e-20)
(-0.00140054 0.000806487 -1.44594e-20)
(-0.00780146 0.00167194 -2.35585e-23)
(-0.0099433 0.00216835 0)
(-0.00859271 0.002592 0)
(-0.00729602 0.00341609 0)
(-0.00701325 0.00291373 0)
(-0.0074474 0.00280636 0)
(-0.00853317 0.00383708 0)
(0.0141535 0.00355907 -1.42982e-22)
(0.00706825 0.00402675 0)
(0.00667246 0.00305748 0)
(0.00625798 0.0024543 0)
(0.00682474 0.00134385 0)
(0.00955317 0.00121715 0)
(0.00856691 0.00142378 1.48058e-20)
(0.00225325 0.00192471 -2.02597e-20)
(-0.0020284 -0.00155233 1.25566e-19)
(-0.00457512 -0.00176321 -8.43694e-20)
(-0.00377645 -0.00159771 5.87747e-20)
(0.00273404 0.00326662 4.93787e-20)
(0.00496703 -0.00739341 -1.20985e-19)
(0.0133925 -0.0411658 5.14568e-19)
(0.0268332 -0.0399511 3.36169e-20)
(0.0334825 -0.0613519 1.88813e-19)
(0.0352187 -0.0888692 6.73807e-19)
(-0.0655544 -0.0640082 5.0557e-20)
(-0.0925296 0.0691549 -2.05866e-18)
(0.0366709 0.00999335 8.3023e-19)
(0.0181673 -0.0691433 -1.65923e-19)
(-0.0411536 -0.0586841 -3.01516e-19)
(-0.0248148 -0.0405334 1.74155e-19)
(-0.00628528 -0.0283951 6.66835e-19)
(0.000779929 -0.00348762 1.50225e-19)
(-0.00489444 -0.00145348 -1.70797e-19)
(0.0010173 -0.00726361 3.7853e-19)
(0.00492594 -0.0010947 -9.17262e-20)
(0.00385235 0.00181546 4.34114e-20)
(-0.00118743 0.00391097 -3.06448e-22)
(-0.00899109 0.00445092 1.02623e-20)
(-0.0114599 0.00430149 0)
(-0.00892931 0.00339471 0)
(-0.00670896 0.00259491 0)
(-0.00454605 0.00224079 0)
(-0.00380317 0.00130356 0)
(-0.000740045 0.00456386 0)
(0.00174322 0.00665467 -1.76203e-23)
(0.00703416 -0.000226593 0)
(0.00928376 0.00380585 0)
(0.0109999 0.00541808 0)
(0.0108625 0.00592901 0)
(0.0119939 0.00281542 0)
(0.0137069 0.00308262 -1.17363e-20)
(0.00742762 -0.000658837 5.91639e-20)
(0.00565382 0.000167268 9.6441e-21)
(0.00537932 -0.00218954 -1.10377e-19)
(0.00278475 -0.00752793 4.6279e-19)
(0.0078827 -0.00950329 -2.18328e-19)
(0.0114961 -0.020778 -1.52739e-19)
(0.02534 -0.0304882 -4.34743e-19)
(0.0376748 -0.0424336 9.00417e-19)
(0.0521574 -0.0596423 -1.03485e-19)
(0.0586905 -0.098332 -7.23118e-19)
(-0.170421 -0.0906493 3.53774e-19)
(-0.0584022 -0.26367 -2.61238e-18)
(-0.000594439 -0.048659 1.26864e-18)
(-0.000198828 -0.0494046 -7.28734e-20)
(-0.365462 0.13628 1.27345e-18)
(0.483866 0.12628 -3.0827e-19)
(0.0408391 -0.0192706 5.60903e-19)
(-0.0550138 -0.0364484 -1.44571e-19)
(-0.0503335 -0.0214793 -7.10927e-19)
(-0.0459282 0.00286117 1.62307e-19)
(-0.0297421 -0.0136743 -1.74012e-19)
(0.00624234 -0.00900554 1.87948e-19)
(0.00430489 0.000349227 -6.37001e-20)
(-0.000495944 -0.00031949 1.21413e-19)
(0.00194618 0.00265149 3.79133e-20)
(-0.0016082 0.00454009 -9.05535e-20)
(-0.00719963 0.00811607 3.36222e-21)
(-0.0105555 0.00489345 0)
(-0.00774567 0.00392781 0)
(-0.00823957 0.00268043 0)
(-0.00791673 0.000928781 0)
(-0.00600036 -0.00173674 0)
(-0.00849615 -0.00317039 0)
(0.00588128 -0.00464531 -8.89911e-21)
(0.00828799 -0.00240336 0)
(0.00654589 -0.00189675 0)
(0.00845637 -0.00338697 0)
(0.0154168 -0.00055023 0)
(0.0141027 0.00704948 0)
(0.0147246 0.00501038 1.02622e-22)
(0.0132819 0.00741277 6.61185e-21)
(0.01347 0.0036885 1.31878e-19)
(0.0108119 0.00274598 -2.10858e-19)
(0.0166167 -0.00704977 3.01445e-19)
(0.0244495 -0.0129958 1.98397e-19)
(0.0268708 -0.00995169 -3.15414e-19)
(0.0282644 -0.0182164 -9.16241e-19)
(0.0703645 -0.0153828 -6.9681e-19)
(0.103427 -0.0420307 -3.85934e-19)
(0.111468 -0.0942501 1.22594e-18)
(0.0668861 -0.121752 -9.72613e-18)
(-0.111871 -0.52696 1.63103e-18)
(-0.109624 -0.352411 -4.57625e-19)
(0.562973 -0.0128738 3.87753e-20)
(-1.16682 -0.841481 -3.9535e-18)
(0.693958 0.297995 4.72036e-18)
(0.0447293 -0.0609552 -3.38003e-19)
(-0.0784883 -0.0342463 2.14281e-18)
(-0.0303282 -0.0176638 7.87782e-19)
(-0.0249812 -0.0125821 -8.90288e-19)
(0.0046183 0.00505684 3.91925e-19)
(-0.00841707 -0.0114539 1.00677e-18)
(-0.00534652 0.00456037 -6.24618e-20)
(-0.000300771 0.0121835 1.05173e-19)
(-0.00334731 0.0123286 -1.33751e-19)
(-0.0069984 0.0120327 2.87322e-21)
(-0.00508992 0.0102819 1.08739e-22)
(-0.00125171 0.0111148 0)
(-0.00532498 0.00742421 0)
(-0.00281076 0.00426743 0)
(-0.00162983 0.0038237 0)
(-0.00450908 0.00294031 0)
(-0.0100034 0.0015245 -1.92922e-21)
(0.00120353 -0.00186804 2.49564e-21)
(0.0099264 0.00538858 0)
(0.0100435 0.00665597 0)
(0.00588611 0.00642321 0)
(0.00122702 0.00586994 0)
(0.00714415 0.00819724 0)
(0.0152657 0.0093606 0)
(0.0280774 0.01535 -5.03723e-21)
(0.0268026 0.0206759 5.28935e-20)
(0.0359095 0.0192697 -3.9489e-20)
(0.0301051 0.0281731 3.6025e-20)
(0.027926 0.021531 1.40884e-19)
(0.0304319 0.0320713 2.05098e-19)
(0.0495326 0.0395229 -5.31931e-19)
(0.0679906 0.0468058 7.74476e-19)
(0.104406 0.0443931 -1.75581e-19)
(0.220638 -0.00105412 -5.36781e-19)
(0.497617 -0.0342009 -2.52704e-17)
(0.109725 -0.191333 -9.04982e-18)
(-1.3174 0.113734 -4.9315e-19)
(1.46313 -0.229401 1.2407e-17)
(-0.0636248 0.0969732 4.12944e-18)
(-0.661637 -0.43237 -2.35692e-18)
(-0.0180997 -0.0128766 2.01282e-18)
(-0.102443 -0.00969548 -1.26841e-18)
(-0.10246 0.0634761 1.62306e-18)
(0.00122261 0.0453159 2.2965e-19)
(-0.0145624 0.023843 -2.13272e-19)
(-0.00688407 0.0416821 8.6567e-20)
(-0.00598622 0.0287135 -1.1428e-19)
(-0.000653219 0.0182859 6.1769e-20)
(0.00150084 0.0202848 -1.96225e-20)
(-0.00061452 0.0148903 -6.29953e-22)
(-0.000557406 0.0110004 0)
(0.00346206 0.00473917 0)
(0.00492038 0.00297473 0)
(0.000125002 0.00240376 0)
(-0.00400315 0.00165974 0)
(-0.00245269 0.00432987 0)
(0.00771871 0.00135338 1.86226e-20)
(0.00206799 0.00199914 1.72812e-21)
(0.000975187 0.00231909 0)
(0.00039836 0.00606991 0)
(0.0020481 0.00868922 0)
(0.000563436 0.00850963 0)
(-0.000561301 0.00798891 0)
(0.00102876 0.0137419 0)
(0.00611801 0.0150415 0)
(0.00163815 0.0235376 9.88004e-21)
(0.00229473 0.0297976 1.3172e-20)
(0.00828042 0.03953 -1.30748e-20)
(0.00368565 0.0517818 -1.83996e-19)
(0.0317844 0.0601472 3.98224e-19)
(0.0433216 0.0642481 -3.9955e-19)
(0.0195434 0.0729571 5.01946e-19)
(0.0818254 0.112149 1.48598e-18)
(0.378587 0.12686 -6.18425e-19)
(-0.308562 0.241829 -1.30313e-18)
(0.199621 0.590964 -6.04261e-19)
(0.762909 -0.723432 3.95272e-18)
(-0.597029 -0.872992 -1.03344e-18)
(-0.425931 0.657589 2.71112e-18)
(0.22206 -0.291582 -5.71692e-19)
(-0.331335 0.1373 -1.48885e-19)
(-0.210982 0.292495 -6.7895e-19)
(-0.0298118 0.0882195 -8.88354e-19)
(0.012409 0.0361398 -3.94483e-19)
(-0.0106074 0.0491089 4.70116e-19)
(0.0143823 0.0453875 -1.39014e-20)
(0.012898 0.0323822 -7.48829e-20)
(0.0170651 0.0225263 -1.5925e-20)
(0.0074442 0.0189778 -2.57913e-21)
(0.0054694 0.0151221 0)
(0.00580052 0.00763557 0)
(0.00552958 0.00513284 0)
(0.00357241 0.00623873 0)
(0.00296582 0.00751972 -4.35025e-20)
(0.00253293 0.00679469 -6.0161e-20)
(0.00301747 0.00466307 -3.58746e-20)
(0.00735761 0.00195192 0)
(-0.00168435 0.000259973 0)
(0.00112543 -0.00159249 0)
(0.00299703 -0.00148579 0)
(0.00459414 0.00177255 0)
(0.00418004 0.00505334 0)
(0.00343153 0.00415894 0)
(-5.74453e-05 0.00530986 0)
(-0.000166214 0.0058166 0)
(0.00246286 0.00930881 5.99531e-24)
(-0.00354558 0.0190698 -4.28905e-21)
(-0.00840819 0.034704 1.73448e-20)
(-0.000153268 0.0427127 9.87741e-20)
(0.0107257 0.0655056 5.5469e-20)
(0.00707226 0.0732936 7.06693e-20)
(0.0766584 0.0883708 -5.78238e-18)
(-0.0202931 0.064962 -7.14448e-19)
(-0.109984 0.62702 1.77821e-18)
(0.73067 -0.113521 3.90594e-18)
(0.101218 -0.870444 1.50666e-18)
(-0.176288 0.113026 7.56955e-18)
(-0.607445 0.816241 -1.00939e-18)
(-0.061641 0.419087 5.65524e-18)
(0.332546 0.137296 5.78391e-19)
(-1.09226 0.673014 -6.15828e-19)
(0.39447 0.100171 1.44032e-18)
(0.123528 0.097254 7.04297e-19)
(0.0169879 0.0493242 -3.79598e-19)
(0.0461189 0.0385929 1.7827e-19)
(0.0382444 0.0314667 -8.32911e-20)
(0.0334989 0.0210389 2.44524e-20)
(0.0188771 0.0231509 -3.31553e-21)
(0.0123489 0.0166787 7.73744e-23)
(0.0125577 0.0122155 0)
(0.00853949 0.0100812 0)
(0.00547024 0.0104796 0)
(0.00515131 0.00731036 0)
(0.00541919 0.0026745 0)
(0.00621982 -0.000896627 0)
(0.00581922 -0.00323612 0)
(0.00588627 -0.00261858 6.46107e-21)
(0.00638562 0.000204603 0)
(0.00452398 0.00327062 0)
(0.00532271 0.00307824 0)
(0.00443984 0.00249136 0)
(0.00414714 0.00454323 0)
(0.00320294 0.00797206 0)
(0.00426793 0.0104313 0)
(-0.00399798 0.0134652 0)
(-0.00381963 0.0153048 0)
(-0.010999 0.0240224 0)
(-0.0194072 0.0205281 5.6215e-22)
(-0.0138377 0.0482848 -1.46682e-20)
(-0.00125752 0.0676844 2.54473e-20)
(0.0325168 0.116328 -4.92517e-20)
(0.0495414 0.128754 -1.49244e-17)
(-0.191312 0.0175469 2.18739e-19)
(0.00474745 -0.225073 -4.9021e-18)
(0.663802 0.718062 -4.72357e-19)
(-0.320849 1.59143 1.32046e-18)
(-0.447529 1.32326 1.13198e-17)
(-0.0143316 0.346101 -1.60633e-18)
(0.262987 0.188327 -1.42939e-18)
(-0.922208 0.984688 -2.45005e-20)
(-0.367611 0.689573 5.97503e-21)
(0.991338 -0.324088 -1.19359e-18)
(0.0222104 0.0679387 1.71112e-19)
(0.0645256 0.0442474 -3.51645e-20)
(0.0501895 0.0235045 4.43525e-20)
(0.0443448 0.0122679 -3.05895e-20)
(0.0341331 0.00901022 -2.12907e-21)
(0.0232105 0.00815614 0)
(0.0153402 0.000676131 0)
(0.0112055 0.00397541 0)
(0.00990965 0.00660723 0)
(0.00876437 0.00611466 0)
(0.00717166 0.0028501 0)
(0.00585415 0.00042296 0)
(0.00471045 -0.000626525 0)
(0.00286793 -0.000947937 0)
(0.000854487 -0.00218145 0)
(-0.00270736 -0.00370692 0)
(-0.00266011 -0.00451448 0)
(-0.00190559 -0.00325622 0)
(-0.00247762 7.59516e-05 0)
(-0.00305857 0.00284992 0)
(-0.00692233 0.00729355 0)
(-0.00950424 0.011556 0)
(-0.0134275 0.015468 0)
(-0.0165669 0.0203454 0)
(-0.0266883 0.0248174 0)
(-0.0353353 0.0355522 0)
(-0.0521572 0.0604326 -1.93101e-23)
(-0.085896 0.0758972 -2.04794e-21)
(0.00458317 0.236574 9.69576e-21)
(0.0896774 0.145591 -5.02639e-18)
(0.237682 -0.0552153 -1.65615e-18)
(-0.776017 0.229908 -4.19363e-18)
(-0.700352 0.368205 1.01343e-18)
(0.0455349 0.271197 -6.67432e-19)
(0.353142 0.491848 3.39978e-18)
(0.148699 0.445204 3.64938e-18)
(-0.20904 0.36979 2.79633e-18)
(-0.242863 -0.24906 -2.3653e-18)
(0.929593 -1.10291 5.65333e-19)
(-0.247484 -0.332763 1.43691e-18)
(-0.0651204 0.106882 3.27476e-19)
(0.0820381 0.0119386 6.20826e-19)
(0.0683194 -0.00569285 2.29964e-21)
(0.0487284 -0.00493527 1.25363e-21)
(0.0347841 -0.000613409 0)
(0.0228917 -0.00602635 0)
(0.0124222 -0.00189177 0)
(0.00691195 -0.000382188 0)
(0.00767164 -0.000395365 0)
(0.00875113 -0.000183319 0)
(0.00799689 0.000663606 0)
(0.00788476 0.00242635 0)
(0.00761042 0.00380807 0)
(0.00625019 0.00346914 0)
(0.00128382 0.0034919 0)
(0.00856102 0.00135342 0)
(0.00397936 -0.000372705 0)
(-0.0014556 -0.00155575 0)
(-0.00554296 -0.00124438 0)
(-0.00741251 -0.000538153 0)
(-0.0104856 -0.000584799 0)
(-0.0148496 -0.000554949 0)
(-0.017845 0.000450303 0)
(-0.0264362 0.00524559 0)
(-0.0363245 -0.00185044 0)
(-0.0636467 0.0156284 -8.65749e-21)
(-0.092679 0.00895025 0)
(-0.175774 0.0678776 0)
(-0.126404 0.123356 -3.287e-19)
(0.254399 0.399299 1.13493e-18)
(0.674942 0.436219 -8.3765e-18)
(-0.515535 -0.0879054 1.85086e-19)
(-0.305346 -0.48246 -1.01458e-20)
(-0.242409 -0.515858 5.42693e-18)
(0.108584 -0.404455 7.37728e-18)
(-0.00321039 -0.195754 2.20515e-18)
(0.402876 -0.238537 -8.19612e-18)
(0.519448 -0.379899 5.99156e-20)
(-0.0897101 0.376499 -1.57682e-19)
(-1.10313 0.71547 4.79325e-20)
(0.368702 -0.0482209 3.21367e-19)
(0.159749 0.0286577 -3.73499e-19)
(0.0806361 -0.0163996 0)
(0.0481993 -0.0133402 0)
(0.0332515 -0.00650403 -3.64995e-20)
(0.0175727 -0.00604119 0)
(0.0125839 -0.000251336 0)
(0.00937726 -0.00355006 0)
(0.00919121 -0.00489029 0)
(0.00694915 -0.00562489 0)
(0.00529848 -0.0042217 0)
(0.00450471 -0.00336495 0)
(0.00477706 -0.00154953 7.15973e-21)
(0.00594794 0.000361622 5.13647e-21)
(0.00982358 0.00200032 0)
(-0.00148704 0.00479781 0)
(-0.00118636 0.00383458 0)
(-0.00343334 0.00388581 0)
(-0.00378982 0.000789741 0)
(-0.00405892 -0.00263926 0)
(-0.00602037 -0.00631551 0)
(-0.0112569 -0.0111583 0)
(-0.0154769 -0.0140818 0)
(-0.0207877 -0.0165351 0)
(-0.0268348 -0.0210271 0)
(-0.0455198 -0.0411053 1.40317e-19)
(-0.098547 -0.0530194 0)
(-0.173807 -0.0712352 0)
(-0.496125 -0.165707 1.77126e-19)
(-0.280521 0.07791 2.03078e-18)
(0.60282 0.122018 1.17138e-18)
(0.0307379 -0.0384504 0)
(-0.260215 -0.0244913 -1.53331e-19)
(-0.158034 0.304401 -5.39637e-18)
(-0.0908466 0.108474 5.80952e-18)
(-0.194615 0.202526 1.30188e-17)
(-0.291278 0.0665338 2.12167e-18)
(-0.533817 0.422445 -2.10738e-19)
(-0.327668 0.379296 0)
(0.82902 -0.17799 1.39312e-19)
(0.457712 -0.178336 -4.94567e-19)
(0.103021 -0.0312837 1.05047e-19)
(0.0763875 -0.0462604 0)
(0.0580775 -0.0234745 0)
(0.0340948 -0.0174797 9.47261e-20)
(0.0205832 -0.0130541 0)
(0.0180077 -0.0124947 0)
(0.0150757 -0.0129437 0)
(0.012286 -0.0124559 0)
(0.00804845 -0.00992618 0)
(0.00506787 -0.00808591 -1.29529e-20)
(0.00170472 -0.00745759 1.68321e-20)
(-0.000255751 -0.00761358 0)
(0.00171673 -0.00640417 0)