/*--------------------------------*- C++ -*----------------------------------*\
| =========                 |                                                 |
| \\      /  F ield         | OpenFOAM: The Open Source CFD Toolbox           |
|  \\    /   O peration     | Version:  v2106                                 |
|   \\  /    A nd           | Website:  www.openfoam.com                      |
|    \\/     M anipulation  |                                                 |
\*---------------------------------------------------------------------------*/
FoamFile
{
    version     2.0;
    format      ascii;
    arch        "LSB;label=32;scalar=64";
    class       volScalarField;
    location    "0";
    object      p;
}
// * * * * * * * * * * * * * * * * * * * * * * * * * * * * * * * * * * * * * //

dimensions      [0 2 -2 0 0 0 0];

internalField   nonuniform List<scalar> 
11644
(
0.0555889
0.0556073
0.0556415
0.0557823
0.0558211
0.0556446
0.0551632
0.054424
0.0535885
0.0527838
0.0520956
0.0515446
0.0514314
0.0517095
0.0518414
0.0521871
0.0521064
0.0516735
0.0557787
0.0455093
0.0402679
0.0301726
0.0208024
0.014287
0.00576057
-0.00147832
-0.00656078
-0.00970149
-0.0110122
-0.0105015
-0.00883262
-0.00638116
-0.0037885
-0.00131903
0.00120378
0.00360524
0.0054914
0.00696178
0.00802929
0.00855483
0.056948
0.0570997
0.0570691
0.0568512
0.0565972
0.056415
0.0560132
0.0554237
0.0545951
0.0536314
0.0526393
0.0518034
0.0514031
0.0509243
0.0510596
0.0514559
0.0508112
0.0484524
0.0490026
0.0487805
0.0356242
0.0267781
0.0190585
0.00857702
0.00105914
-0.00459838
-0.00890834
-0.0110036
-0.0110392
-0.00996236
-0.00799351
-0.00557447
-0.00279348
0.000270704
0.00303895
0.00535032
0.00742355
0.00912651
0.0102796
0.0107735
0.0554213
0.0559267
0.0565209
0.0569143
0.0572132
0.0574191
0.0576598
0.0578348
0.0578664
0.0577767
0.0574016
0.0568925
0.055997
0.0558825
0.0558724
0.055134
0.053758
0.0523343
0.0452509
0.0454984
0.0376117
0.0298343
0.0207951
0.00703668
-0.002627
-0.00893322
-0.0116744
-0.0124998
-0.0116449
-0.00961007
-0.00700779
-0.00400954
-0.000900878
0.00206799
0.00480871
0.00719958
0.00925552
0.0108166
0.0116684
0.0118914
0.052629
0.0531769
0.0541472
0.0554479
0.0569819
0.0585003
0.06009
0.061674
0.0631455
0.0643767
0.0653308
0.0651754
0.0643419
0.0604357
0.0564021
0.0542473
0.0513564
0.0484219
0.0458073
0.0389775
0.0326666
0.0370709
0.0224277
0.009465
-0.00058752
-0.00779391
-0.0127031
-0.0130073
-0.0113036
-0.00832986
-0.00493467
-0.001634
0.00158252
0.00460062
0.00723283
0.00946707
0.011145
0.0122376
0.0129259
0.0132028
0.0489566
0.0497049
0.050973
0.0531181
0.0557855
0.0589687
0.0624547
0.066119
0.0697551
0.0730783
0.0750199
0.0745884
0.0700002
0.0649717
0.0581548
0.0538114
0.051513
0.0448453
0.0384252
0.0254807
0.0162759
0.0350417
0.0228147
0.0180143
0.0079937
0.00154485
-0.00138811
-0.00459186
-0.004717
-0.00301185
-5.46169e-05
0.00345638
0.0066083
0.00928678
0.0113704
0.012929
0.0140697
0.0147358
0.0151792
0.0155129
0.0432208
0.0438078
0.0456416
0.0483783
0.0522678
0.0570974
0.0627079
0.068917
0.0750981
0.0804366
0.0834233
0.0827706
0.0803354
0.0709731
0.0595143
0.0517181
0.0446645
0.0281937
0.0165738
0.0187916
0.0161829
0.0137473
0.0155012
0.0305722
0.0274629
0.0220188
0.0162759
0.0140746
0.0102452
0.00815593
0.0085188
0.0106947
0.0130671
0.0148235
0.0159936
0.0166144
0.016904
0.0171797
0.0172358
0.0172755
0.0335257
0.0348823
0.0370122
0.0401673
0.0447017
0.0505532
0.057823
0.066196
0.0747941
0.0810939
0.0838702
0.0841245
0.0822075
0.0838626
0.0748449
0.0493164
0.0325371
0.0286158
0.0240978
0.0288539
0.0131433
0.0280195
0.0397342
0.0529486
0.0692282
0.0668821
0.0535395
0.0402473
0.0298455
0.022546
0.0187096
0.01787
0.0185026
0.0191162
0.0191391
0.0188627
0.0183448
0.0179047
0.0176942
0.0175455
0.0207227
0.0218501
0.0239706
0.0277987
0.0325563
0.0388091
0.0465909
0.0556947
0.0651927
0.0720214
0.0742186
0.07456
0.0748118
0.0800373
0.0675067
0.062362
0.0414848
0.022415
0.0169539
0.0179778
0.0311491
0.0553585
0.0778711
0.0778572
0.0929378
0.0976473
0.0805096
0.0615335
0.0439118
0.0342949
0.0274671
0.0232597
0.0213395
0.0204876
0.0195655
0.0185708
0.017866
0.0171888
0.0169368
0.0166986
0.00579198
0.00601751
0.00794466
0.0107298
0.0151318
0.0211129
0.0285587
0.037458
0.045708
0.050799
0.0507941
0.047621
0.0445703
0.045542
0.0356165
0.0185511
0.0253128
0.00747929
-0.0113871
0.00350813
0.0480127
0.0782563
0.106967
0.131895
0.126146
0.0946319
0.0843786
0.0659974
0.0475904
0.0394895
0.0314618
0.0252227
0.0212677
0.0189222
0.0174928
0.0161261
0.0151633
0.0146863
0.0141037
0.0140451
-0.0132539
-0.0123845
-0.0107591
-0.00876454
-0.00520228
-0.000444876
0.00577215
0.0126308
0.0178055
0.0219909
0.0220612
0.0164802
0.0193748
0.0212453
0.00864893
-0.0156215
-0.0367514
-0.0644253
-0.0679313
-0.0361292
0.0540131
0.137341
0.165632
0.153203
0.129392
0.113113
0.0973647
0.0572687
0.0431733
0.0364835
0.0295916
0.0233888
0.0184269
0.0152937
0.0134518
0.0116439
0.00981794
0.00886323
0.00854768
0.00837131
-0.0339009
-0.0336487
-0.0334353
-0.0313785
-0.0289693
-0.0256975
-0.0211537
-0.0169539
-0.0139436
-0.00960951
-0.00266538
-0.00412463
-0.00377383
-0.0100022
-0.0379197
-0.0280537
-0.0586847
-0.120502
-0.205043
-0.221129
0.0553782
0.307691
0.283458
0.199871
0.136317
0.0937137
0.0629923
0.0444266
0.0321648
0.0281908
0.0231844
0.0177
0.0133036
0.00971485
0.00702258
0.00457976
0.00210854
0.000170741
-0.000483251
-0.000691179
-0.0527182
-0.0546206
-0.0553779
-0.0554872
-0.0552036
-0.0538772
-0.0512216
-0.0486094
-0.0446736
-0.0419377
-0.0355456
-0.0319575
-0.0403728
-0.0462743
-0.0446694
-0.0438891
-0.0471791
-0.0743461
-0.236376
0.308129
0.142477
0.0591304
0.0139818
0.011415
0.00523866
0.0187814
0.0205596
0.016559
0.0128418
0.00942696
0.00490474
0.00127063
-0.00218524
-0.00537983
-0.00846093
-0.0104905
-0.0116991
-0.0763343
-0.0778461
-0.0778494
-0.0792329
-0.0799165
-0.0804048
-0.0803894
-0.0793172
-0.0753568
-0.0722693
-0.0643592
-0.0428397
-0.0285638
-0.000897907
0.0401502
0.0459065
0.0852303
0.19593
0.414355
-0.0826568
-0.0347279
-0.0237073
-0.0148971
-0.0142278
0.00629551
0.0184533
0.0230966
0.0199173
0.0138347
0.00789612
0.00157643
-0.00413917
-0.00944123
-0.014548
-0.0187995
-0.0233247
-0.0249757
-0.0990257
-0.0976803
-0.100294
-0.101586
-0.103544
-0.106604
-0.107751
-0.110732
-0.105227
-0.102194
-0.10181
-0.0455165
0.00758063
0.047438
0.0472221
0.060376
0.177398
0.381931
0.501327
-0.0703539
-0.152777
-0.0907389
-0.10219
-0.0138392
0.0647177
0.013182
0.0488429
0.0292191
0.0146118
0.0073462
0.00160706
-0.00645908
-0.0145308
-0.0234115
-0.0307952
-0.0374013
-0.0495093
-0.119771
-0.11915
-0.121618
-0.122426
-0.124246
-0.123989
-0.125754
-0.139644
-0.120543
-0.132588
-0.13531
-0.0994835
-0.0939848
-0.0604581
0.0298898
0.0897407
0.197
0.379585
0.201265
-0.356451
0.143311
0.917333
-0.0586307
-0.306159
-0.114974
-0.0979973
-0.0510531
0.0237282
0.00172174
0.0129353
0.0251619
0.0273227
-0.00538709
0.00484368
-0.00720533
-0.014255
-0.0262347
-0.0382458
-0.0415715
-0.0496981
-0.116698
-0.118348
-0.122997
-0.126633
-0.130053
-0.13125
-0.140262
-0.151104
-0.165768
-0.185755
-0.193782
-0.166213
-0.212153
-0.0722344
0.129662
0.201168
0.111439
0.191436
0.00446774
-1.04611
-1.61164
-1.38695
-0.530494
-0.292677
-0.069274
-0.0544273
-0.0900068
0.045788
-0.00709535
0.0296054
0.0358809
0.0208237
0.00112153
-0.0090275
-0.0120895
-0.01666
-0.0286087
-0.03404
-0.0361432
-0.0294766
-0.112009
-0.105332
-0.116121
-0.119655
-0.124463
-0.130313
-0.143211
-0.159996
-0.175398
-0.214793
-0.263286
-0.233685
-0.121222
-0.0819644
0.0612501
0.00580114
-0.0598689
0.119015
0.442702
0.290945
-1.9234
-1.38147
-0.258227
0.467883
0.0251635
0.0429478
0.0830171
-0.0646224
0.0376632
0.038305
0.000400009
-0.019474
-0.00958728
-0.0119059
-0.0184593
-0.0223774
-0.0400466
-0.0493709
-0.0445834
-0.0465297
-0.121152
-0.109461
-0.112773
-0.117785
-0.12377
-0.135132
-0.142474
-0.160124
-0.179131
-0.211044
-0.237604
-0.27643
-0.335122
-0.0674899
-0.115763
-0.173254
-0.52119
-0.0947134
1.09978
-0.653383
0.442198
0.929605
0.115603
0.591575
0.421395
0.132477
-0.01248
-0.117527
-0.0578948
0.0262937
-0.0174295
-0.0360125
-0.0425449
-0.0212513
-0.0289918
-0.0346084
-0.0389714
-0.0394113
-0.0492342
-0.0487363
-0.102411
-0.105036
-0.107507
-0.112877
-0.118951
-0.123704
-0.147579
-0.174163
-0.206619
-0.23067
-0.2493
-0.375582
-0.394892
-0.090447
-0.128481
-0.100344
-0.199864
-0.630405
-0.577899
1.22098
1.1521
0.28265
0.288872
0.463171
0.300473
-0.0186546
0.122126
-0.184685
-0.0645978
-0.0170989
-0.0325391
-0.0517682
-0.0397983
-0.0402943
-0.0475915
-0.056075
-0.0495039
-0.0423538
-0.042187
-0.0408881
-0.0862291
-0.0912707
-0.0953295
-0.101328
-0.110857
-0.120263
-0.138197
-0.170555
-0.196225
-0.231359
-0.267664
-0.226454
-0.397269
-0.145741
-0.208933
-0.0934619
-0.151026
1.64778
0.454225
0.646451
0.11731
-0.0248001
-0.357455
-0.812486
0.155178
0.0556555
-0.0896471
-0.128773
0.160571
-0.0183968
-0.0377666
-0.0437741
-0.0468455
-0.0507365
-0.0645437
-0.0611328
-0.050529
-0.0414972
-0.047582
-0.0454783
-0.0721924
-0.0749186
-0.0838346
-0.0919121
-0.1081
-0.120212
-0.137977
-0.151783
-0.176365
-0.213308
-0.253669
-0.176549
-0.15251
-0.0236385
-0.219694
0.174414
0.17111
-0.488509
0.179097
1.37959
0.330981
0.725774
0.502056
1.33855
0.132421
0.368245
0.279584
0.0236453
-0.0674714
-0.142638
-0.0855712
-0.0707769
-0.0692754
-0.0710273
-0.0628106
-0.0604994
-0.0628898
-0.0625555
-0.0604128
-0.0540513
-0.0620033
-0.0638685
-0.0695006
-0.077496
-0.0886111
-0.107674
-0.122937
-0.141901
-0.169303
-0.193987
-0.201964
-0.241083
-0.198241
0.0118537
0.43576
0.744917
0.272702
0.990002
0.968493
1.49998
-0.589524
0.356657
0.150407
2.78632
0.863046
0.243905
0.294001
0.066778
-0.0420342
-0.0710428
-0.0818537
-0.0794891
-0.0838019
-0.0806929
-0.0792694
-0.0793874
-0.0767377
-0.0708367
-0.0688222
-0.0743829
-0.0491265
-0.0532896
-0.0551753
-0.0569746
-0.0659227
-0.0846205
-0.0975455
-0.120654
-0.160271
-0.174383
-0.198844
-0.194501
-0.141537
-0.188933
0.0712415
0.547975
0.960889
1.64494
1.3411
0.0520719
-1.21373
-1.79083
2.70746
2.07759
2.12695
1.1236
-0.460298
-0.144941
-0.0372226
-0.0838177
-0.0755399
-0.0709565
-0.0817349
-0.0878488
-0.0828154
-0.0832431
-0.0836631
-0.0831185
-0.0831709
-0.0874859
-0.0256165
-0.0226651
-0.0236513
-0.0313314
-0.0385751
-0.0569355
-0.0790345
-0.106146
-0.126624
-0.157803
-0.193683
-0.246904
-0.159797
-0.0261915
0.0326912
0.793428
0.0411581
0.032087
0.535279
-0.786492
-0.868335
-0.495059
1.85044
1.12241
0.0777462
-0.461494
0.282739
0.094525
-0.0132112
-0.0212236
-0.0480482
-0.0656252
-0.0939808
-0.0914394
-0.0930927
-0.0956582
-0.098595
-0.0995748
-0.0993503
-0.0975838
0.00808528
0.00529162
0.0032294
0.000387031
-0.00485669
-0.0163067
-0.0383078
-0.0579113
-0.0811511
-0.0971397
-0.0985397
-0.0904616
-0.0605338
-0.218059
-0.828528
-0.0692285
-0.265051
0.695085
-0.104618
-1.58033
4.25307
1.94378
-0.00752939
-0.420094
0.329927
0.715064
0.0333722
0.0568016
-0.0524289
-0.111249
-0.102746
-0.112653
-0.0928861
-0.104324
-0.109755
-0.108948
-0.108549
-0.110257
-0.111397
-0.108992
0.0344995
0.0393574
0.0333333
0.0264662
0.0209851
0.020772
0.00620794
-0.0125187
-0.0189546
-0.0354149
-0.0956757
-0.0537916
-0.24609
0.0187182
-0.241848
-0.346709
0.268293
-0.0401312
0.599258
1.14991
2.80819
2.98309
2.2756
1.25782
-0.268642
-0.706402
-0.260659
-0.0277369
-0.0371825
-0.167199
-0.163993
-0.146654
-0.143467
-0.133279
-0.127502
-0.118691
-0.123074
-0.125693
-0.124303
-0.126037
0.0616111
0.0597092
0.0570128
0.0577735
0.0597752
0.0628969
0.0683509
0.0355854
0.0268536
0.123153
0.0713267
-0.0140203
-0.0496316
-0.459941
-0.43701
-0.806491
1.32506
1.29571
-0.230203
-0.553011
0.812172
0.553459
1.90032
1.90225
-0.309234
0.475193
0.0752604
-0.241107
-0.159814
-0.24666
-0.25156
-0.16899
-0.17162
-0.150198
-0.148229
-0.144191
-0.14425
-0.142636
-0.138439
-0.140356
0.0911948
0.0910133
0.0926823
0.0965
0.0994244
0.106377
0.11524
0.126947
0.15285
0.183794
0.23751
0.114749
0.191871
-0.000441687
0.197221
-0.013809
-0.133961
-0.722423
-1.64551
-3.69001
2.3543
1.44883
0.997421
0.688293
0.25378
-0.031039
-0.266584
-0.263583
-0.24229
-0.311709
-0.256954
-0.222862
-0.202013
-0.18957
-0.181573
-0.166198
-0.165403
-0.162883
-0.159653
-0.156593
0.13541
0.138537
0.139511
0.141496
0.143608
0.154536
0.167553
0.178437
0.216475
0.1545
0.203093
0.28934
0.362396
0.365678
0.185386
0.000685203
-0.204565
-0.413565
-1.31928
-2.31421
0.427918
0.0892325
-0.119733
0.0836256
-0.252616
-0.386051
-0.24083
-0.244077
-0.243369
-0.239621
-0.220511
-0.247042
-0.220222
-0.21361
-0.193364
-0.184372
-0.180181
-0.178236
-0.177474
-0.168151
0.169448
0.160402
0.166995
0.17455
0.184873
0.198419
0.202685
0.206485
0.220996
0.241386
0.263558
0.436439
0.359011
0.453163
0.628195
0.942634
-1.00438
-0.756197
-0.817408
-0.448199
0.418966
0.499616
-0.589275
0.0580122
-0.808673
-0.487138
-0.318004
-0.226804
-0.140841
-0.353343
-0.258587
-0.250061
-0.214687
-0.219709
-0.205864
-0.196038
-0.187863
-0.181538
-0.176677
-0.181979
0.173085
0.180368
0.186613
0.195512
0.207536
0.218575
0.227492
0.239407
0.253535
0.281201
0.317672
0.337669
0.372535
0.47341
0.25531
0.265283
0.262637
0.355285
0.560624
1.29043
-0.110565
0.147567
-0.197711
-0.158359
-0.310066
-0.187752
-0.301834
-0.258272
-0.252167
-0.207617
-0.187674
-0.200846
-0.206689
-0.213802
-0.208105
-0.202338
-0.196857
-0.193056
-0.190998
-0.184545
0.200006
0.199662
0.207297
0.214352
0.225243
0.237313
0.238353
0.243242
0.277185
0.327605
0.376437
0.276137
0.0921941
0.3228
0.740723
0.750061
0.60314
1.00264
-0.356615
-0.761259
-0.161276
-0.0919655
0.661064
0.451384
-0.154613
-0.180568
-0.193434
-0.143686
-0.174589
-0.207222
-0.20199
-0.210402
-0.216398
-0.208431
-0.212182
-0.208176
-0.204015
-0.200979
-0.199167
-0.191565
0.206242
0.215728
0.219233
0.228035
0.232127
0.236124
0.23588
0.239763
0.24535
0.285386
0.307086
0.342058
0.424214
0.287313
-0.0889444
-0.0465701
0.12163
0.496161
-0.47198
-0.174233
-0.532036
0.0206253
0.368557
0.24944
-0.0126556
-0.118595
-0.151418
-0.218397
-0.0886181
-0.0933804
-0.233938
-0.23096
-0.239582
-0.229466
-0.220179
-0.212398
-0.208066
-0.203594
-0.19968
-0.19185
0.210113
0.207313
0.213295
0.220987
0.230199
0.237642
0.243296
0.244465
0.254826
0.264902
0.209196
0.340372
0.194406
0.105456
0.0625601
-0.121343
-0.945233
-1.03062
-1.04753
-0.944809
0.701358
0.625018
0.147033
0.449235
-0.00477557
-0.133582
-0.0631726
-0.0114073
-0.139208
-0.183021
-0.195608
-0.237924
-0.253414
-0.233494
-0.220498
-0.205171
-0.201439
-0.195386
-0.191542
-0.193165
0.209984
0.209011
0.210238
0.219136
0.227113
0.233024
0.239713
0.243571
0.244814
0.227133
0.263909
0.250222
0.171711
0.0522107
-0.202066
-0.204415
-1.2825
-0.914502
-0.656722
-0.0101434
-0.59
-0.201586
-0.274664
0.145689
-0.487495
-0.252737
-0.0253638
-0.178321
-0.163305
-0.121234
-0.246181
-0.242519
-0.231958
-0.220583
-0.209919
-0.200341
-0.193868
-0.190093
-0.186409
-0.183916
0.222094
0.225203
0.22601
0.229797
0.23911
0.239287
0.248491
0.25719
0.2798
0.288098
0.221796
0.126553
-0.0114506
-0.0522911
-0.0264131
-0.111064
-0.689893
0.0540656
-0.421932
-0.463574
-1.00424
-0.597605
-0.0798811
0.0448893
0.00404647
-0.0200808
0.0643703
-0.0531535
-0.121179
-0.175872
-0.205903
-0.204974
-0.193621
-0.191916
-0.191274
-0.190359
-0.185645
-0.180305
-0.178216
-0.171353
0.223462
0.22468
0.229315
0.236194
0.241525
0.254883
0.26174
0.275622
0.30223
0.344779
0.255915
0.167829
0.122982
0.100217
-0.104838
-0.208151
-0.351195
-0.129154
-0.427196
-0.324542
-0.785929
-0.263335
0.403103
0.371531
0.296749
0.174616
-0.0729349
-0.263627
-0.239611
-0.138674
-0.189198
-0.202101
-0.190563
-0.177474
-0.182529
-0.184698
-0.179705
-0.171102
-0.168175
-0.16074
0.213906
0.22154
0.224486
0.226833
0.227948
0.250594
0.257823
0.265915
0.289074
0.289029
0.338885
0.285929
0.202872
0.186602
0.0964851
-0.0215004
-0.314391
-0.21284
-0.433491
-0.175573
-0.63128
-0.326114
0.0575655
-0.104833
0.35005
-0.0132786
-0.111655
-0.0333417
-0.0414167
-0.13693
-0.208497
-0.217218
-0.199549
-0.181825
-0.192024
-0.178741
-0.165433
-0.156749
-0.151063
-0.157583
0.207797
0.210403
0.21417
0.221093
0.229735
0.245591
0.258809
0.275464
0.296631
0.310972
0.324778
0.311799
0.298887
0.317299
0.433788
0.106956
-0.0527063
-0.434388
-0.0740102
-0.276611
0.792849
0.399766
-0.331664
-0.0116314
0.165785
-0.0628245
-0.265081
-0.344303
-0.299174
-0.240448
-0.217229
-0.231394
-0.219835
-0.185793
-0.172251
-0.157441
-0.146961
-0.137087
-0.135736
-0.133025
0.20569
0.203791
0.206673
0.214314
0.221038
0.234179
0.251729
0.257542
0.291519
0.324399
0.327531
0.143272
0.270677
0.338278
0.56094
0.552773
0.236572
0.134161
0.0243338
-0.168937
-0.40931
-0.498972
-0.560712
-0.538014
-0.334346
-0.167314
-0.425909
-0.321658
-0.245634
-0.268652
-0.262166
-0.223528
-0.184842
-0.161816
-0.152256
-0.132215
-0.129119
-0.123997
-0.123805
-0.114105
0.187365
0.190485
0.195552
0.20148
0.208644
0.216552
0.229083
0.233108
0.241986
0.297563
0.279351
0.293358
0.332415
0.187779
0.0795588
-0.0370763
-0.191172
-0.250157
-1.11382
-1.77225
-0.315731
-0.442378
-0.367271
-0.329776
-0.229423
-0.159557
-0.212949
-0.224625
-0.294422
-0.260321
-0.164568
-0.178703
-0.150922
-0.130051
-0.12242
-0.115128
-0.110556
-0.105699
-0.10271
-0.0890927
0.168326
0.175229
0.177348
0.17859
0.181921
0.187702
0.19278
0.198489
0.211211
0.248104
0.276699
0.243366
0.123802
0.111745
0.119035
0.052481
-0.156145
0.0265251
-1.53325
-2.30302
-0.658702
-0.825071
0.118189
0.0400203
0.0467424
-0.0130352
-0.11359
-0.0682736
-0.0825185
-0.0997397
-0.102109
-0.143058
-0.124194
-0.101452
-0.0910246
-0.0844486
-0.0760376
-0.071255
-0.0673775
-0.0629814
0.149555
0.151161
0.151352
0.153374
0.151703
0.148532
0.154041
0.164296
0.164059
0.189845
0.150554
0.0885265
0.0772078
0.048241
-0.0283724
-0.066903
-0.353694
-0.348383
-0.657793
-0.873219
-0.291083
-0.649873
0.103985
0.371731
0.257857
0.232935
0.177238
0.12498
0.0948204
-0.0166811
-0.0524939
-0.0596222
-0.0742147
-0.0652386
-0.050079
-0.0421459
-0.0422148
-0.0382364
-0.0393107
-0.0411851
0.139955
0.127723
0.127087
0.128012
0.130797
0.125119
0.121822
0.114318
0.10184
0.107574
0.103259
0.00856793
-0.0185694
-0.0700798
0.00381411
0.0461494
0.121626
0.0088271
0.265308
0.444089
-0.608874
-0.442529
-0.278147
-0.0368948
0.108159
0.0970875
0.0908439
0.0931597
0.179815
0.115946
0.0247721
0.00806695
-0.0183118
-0.0201231
-0.0191952
-0.0166829
-0.0183186
-0.0159293
-0.0181942
-0.0151283
0.113041
0.110275
0.109508
0.110254
0.110924
0.108594
0.102691
0.103025
0.110501
0.112434
0.0569569
0.000848957
0.00205649
-0.142186
-0.0700854
-0.20353
-0.348081
-0.195907
-0.82365
-0.628974
-0.461345
-0.333971
0.373696
0.255708
0.335446
0.335966
0.180089
0.176626
0.181411
0.130104
0.0774792
0.0525384
0.0312451
0.0179932
0.00841047
0.0133213
0.00736832
0.00814464
0.00690036
0.0110266
0.0865364
0.0943271
0.0926547
0.0908284
0.0884809
0.0848354
0.0854889
0.0658219
0.096885
0.0912401
0.125348
0.0963405
-0.0497642
-0.0662696
-0.133387
-0.166046
-0.646843
-0.702121
-1.09697
-1.28517
-0.304876
0.0272462
0.379475
0.340979
0.383586
0.314475
0.259256
0.205048
0.172823
0.107087
0.0897638
0.0599672
0.051003
0.0450485
0.0407948
0.0385548
0.0370528
0.035644
0.0341564
0.0336559
0.0701962
0.0711333
0.068992
0.0713743
0.0698372
0.0672076
0.0734745
0.0757473
0.0610463
0.0494879
0.0752376
0.0741427
0.0725757
0.0205389
-0.16617
-0.351119
-0.740887
-0.864785
-0.999035
-1.2357
0.116349
-0.0437838
-0.0696966
0.133184
0.186129
0.106744
0.209613
0.196024
0.137836
0.147229
0.111371
0.0499997
0.0708757
0.0677856
0.0700238
0.0705295
0.0684682
0.0693184
0.0654606
0.0618311
0.0545325
0.053027
0.0530617
0.054622
0.0548943
0.0530391
0.0593659
0.0503115
0.0765671
0.0997655
0.0356429
-0.00736051
-0.0574144
-0.0652857
-0.0523561
-0.0677889
-0.21684
-0.403473
-0.548942
-0.742565
-0.939768
-0.81248
-0.51316
-0.409482
-0.219602
-0.114002
-0.0634951
0.0676912
0.0973227
0.0533587
0.0568398
0.0786378
0.0837736
0.0893286
0.0957808
0.100068
0.0940406
0.0867646
0.0812777
0.0783686
0.0409545
0.0428356
0.0427295
0.0436379
0.042665
0.0434463
0.039748
0.0234548
0.0401466
0.0623761
-0.00409865
-0.0603001
0.0214122
0.0176847
-0.0196309
0.0405065
-0.341862
-0.302689
-0.354034
-0.600284
-0.865996
-0.97784
-0.500179
-0.33753
-0.037074
-0.0212939
-0.008187
0.0182188
0.0680677
0.0736265
0.0782785
0.099006
0.117295
0.11002
0.109213
0.104214
0.0988331
0.094996
0.0950326
0.0925899
0.0201266
0.0190295
0.0213956
0.0278477
0.0267739
0.024994
0.015938
0.0161563
0.0135346
0.0359968
-0.0256725
-6.85174e-05
0.012987
-0.0233225
-0.133945
-0.262699
-0.400858
-0.511653
-0.758156
-0.839175
-0.491487
-0.243458
0.0509143
0.0683314
0.146618
0.146842
0.0626238
0.0325257
0.0289162
0.0197113
0.0853091
0.11305
0.120144
0.116522
0.111148
0.114064
0.108004
0.10675
0.105235
0.099202
0.0013836
0.00239255
-0.000581697
-0.00175274
-0.00256242
-0.002266
-0.00600355
-0.00454939
0.0125318
0.0205544
0.0202311
0.0122012
-0.0193262
-0.0349205
-0.0775297
-0.175641
-0.30442
-0.329032
-0.399564
-0.474272
-0.637499
-0.604548
-0.303875
-0.192065
-0.147464
-0.130981
-0.0895701
-0.0357744
0.030395
0.123225
0.118967
0.103256
0.119845
0.124847
0.12077
0.119575
0.120812
0.120422
0.120274
0.113417
-0.00425145
-0.0144984
-0.0154368
-0.0164454
-0.0144135
-0.012591
-0.011246
-0.0109534
0.0322401
0.0408017
0.0256517
0.0749543
0.10745
0.124649
0.153633
0.166847
0.030124
-0.0926777
-0.207578
-0.370793
-0.182291
-0.46625
-0.530131
-0.454688
-0.454346
-0.301743
-0.157133
-0.0699303
0.0157805
0.0172192
0.0455944
0.0831606
0.136309
0.135156
0.130843
0.13049
0.134422
0.134174
0.131126
0.135444
-0.0155687
-0.0191302
-0.0177197
-0.0140003
-0.0146884
-0.0113439
-0.000419404
0.0180793
0.0357104
0.0571498
0.0452103
0.12959
0.242027
0.356987
0.280342
0.327845
0.166602
0.0903833
-0.0785435
-0.028555
0.0349611
-0.206038
-0.311658
-0.245793
-0.160744
-0.0994708
-0.0544699
-0.0338943
-0.00282963
-0.0146047
0.133288
0.103919
0.128259
0.137823
0.139029
0.14171
0.139832
0.140714
0.141904
0.137024
-0.0366569
-0.0291281
-0.0276742
-0.015239
-0.016463
-0.0133537
-0.00431909
0.0253992
0.054657
0.117227
0.112238
0.13659
0.173339
0.222786
0.0664943
0.137984
-0.172904
-0.0652579
-0.159452
-0.207407
0.497201
0.636739
0.689596
0.648989
0.494383
0.378168
0.247435
0.123134
0.0427044
0.0797919
0.115038
0.132175
0.142134
0.151612
0.157333
0.154972
0.152445
0.152618
0.150959
0.146348
-0.0510305
-0.0548144
-0.0535817
-0.047428
-0.0468975
-0.0423031
-0.031043
0.014403
0.0511418
0.0977764
0.0727644
0.156284
0.273451
0.370004
0.465842
0.487942
0.298425
0.324601
0.33604
0.335238
0.449605
0.501639
0.811124
0.751287
0.714869
0.522808
0.281262
0.138919
0.108715
0.16645
0.16323
0.158608
0.161514
0.171469
0.175891
0.169212
0.17033
0.167217
0.164888
0.156527
-0.066774
-0.0721672
-0.0757649
-0.0761887
-0.0765278
-0.0706588
-0.0584083
-0.0434452
-0.0223974
0.0120794
0.057927
0.147422
0.267921
0.420419
0.592277
0.730673
0.82911
0.826628
0.951767
0.950707
0.515255
0.324386
0.301779
0.371842
0.413899
0.487391
0.292245
0.246066
0.235679
0.196588
0.176287
0.175779
0.179502
0.178776
0.194423
0.186879
0.183922
0.179182
0.174965
0.170167
-0.0803898
-0.0915162
-0.0913387
-0.0907976
-0.0908436
-0.0840598
-0.077953
-0.0676291
-0.0715935
-0.0414969
-0.00349295
0.0832566
0.190258
0.296846
0.429051
0.552599
0.614794
0.67386
0.79757
0.615118
0.345321
0.192446
0.0777599
0.214119
0.269781
0.325355
0.286779
0.254584
0.224212
0.228272
0.21826
0.206154
0.211479
0.202201
0.191779
0.183793
0.177237
0.174268
0.171484
0.178244
-0.103719
-0.0985285
-0.0993607
-0.101122
-0.104888
-0.104741
-0.104077
-0.0950297
-0.0991945
-0.0807275
-0.0561842
-0.0363115
-0.0901792
-0.164391
-0.219159
-0.23837
-0.248221
-0.306032
-0.297355
-0.150383
0.0946879
0.326148
0.32567
0.730333
0.655455
0.632909
0.477978
0.36916
0.306403
0.335708
0.292615
0.270953
0.236481
0.209613
0.192531
0.183304
0.178084
0.177287
0.180031
0.181313
-0.111974
-0.112875
-0.115423
-0.121096
-0.127122
-0.132115
-0.150173
-0.132067
-0.126958
-0.0910812
-0.118175
-0.100022
-0.12703
-0.180935
-0.220825
-0.326517
-0.337861
-0.648111
-0.820236
-0.118936
-0.0532881
0.336093
0.623419
0.716228
0.688805
0.648343
0.579473
0.497503
0.457617
0.412207
0.353313
0.317669
0.265645
0.235378
0.21727
0.206474
0.197612
0.188635
0.187529
0.189911
-0.128324
-0.131685
-0.137153
-0.139771
-0.14048
-0.149485
-0.152738
-0.151628
-0.143482
-0.121534
-0.118822
-0.0423295
0.0154819
-0.00480118
-0.017942
0.0777035
0.0340849
0.237751
0.096858
0.398588
0.0021421
0.377046
0.377078
0.369186
0.363065
0.455317
0.484577
0.526166
0.507454
0.466599
0.397056
0.355885
0.275375
0.251353
0.238625
0.226749
0.21661
0.209718
0.203732
0.200991
-0.138192
-0.1438
-0.144672
-0.147074
-0.148172
-0.1498
-0.157507
-0.146729
-0.168542
-0.149195
-0.168901
-0.154923
-0.0968634
-0.0226499
0.106692
0.28926
0.286617
0.486765
0.346847
0.140436
0.21882
0.489003
0.609387
0.436417
0.473886
0.513992
0.515473
0.518369
0.503893
0.446922
0.36463
0.336493
0.292988
0.258727
0.246395
0.229272
0.217033
0.206414
0.197456
0.192293
-0.148517
-0.142726
-0.141962
-0.146824
-0.15462
-0.164538
-0.177285
-0.196815
-0.201743
-0.222549
-0.241087
-0.288885
-0.348807
-0.410473
-0.414599
-0.375559
-0.415604
-0.187466
0.0029179
0.192976
0.399858
0.634468
0.795186
0.872687
0.91737
0.908321
0.821259
0.691191
0.571768
0.485591
0.392357
0.332469
0.269748
0.238014
0.214175
0.197594
0.186444
0.179343
0.177039
0.172501
-0.162239
-0.157592
-0.156844
-0.16264
-0.174492
-0.195002
-0.209763
-0.250543
-0.26641
-0.32021
-0.361722
-0.425414
-0.541876
-0.695217
-0.849141
-0.944025
-0.961633
-1.00281
-0.774118
-0.269306
0.136528
0.617582
0.951561
1.09818
1.09955
1.02089
0.893576
0.723668
0.562201
0.441508
0.354075
0.29634
0.254103
0.217579
0.188926
0.175061
0.164758
0.157843
0.155673
0.155175
-0.163996
-0.171182
-0.183192
-0.197797
-0.212293
-0.230065
-0.254084
-0.274902
-0.327826
-0.380196
-0.461303
-0.490618
-0.563073
-0.640491
-0.684492
-0.708669
-0.60743
-0.775341
-0.659707
-0.379421
-0.36126
-0.308377
-0.150973
0.201633
0.241663
0.374378
0.421902
0.429662
0.399369
0.3752
0.337443
0.269422
0.222872
0.192363
0.174011
0.161496
0.151703
0.14846
0.146546
0.148815
-0.163409
-0.176517
-0.187573
-0.198645
-0.210397
-0.222383
-0.239934
-0.263505
-0.306324
-0.36349
-0.431785
-0.525243
-0.596392
-0.64696
-0.654402
-0.615016
-0.586707
-0.66685
-0.745608
-0.753472
-0.676439
-0.272503
-0.282963
-0.208594
-0.0906728
-0.0142746
0.0717644
0.144025
0.213999
0.206599
0.173034
0.159163
0.168196
0.15682
0.148466
0.140431
0.135741
0.131396
0.127705
0.124366
-0.151069
-0.156241
-0.159103
-0.162378
-0.170987
-0.18482
-0.201483
-0.228081
-0.274208
-0.344347
-0.420078
-0.547875
-0.694104
-0.839106
-0.981379
-1.09714
-1.16356
-1.11414
-0.952206
-0.577981
-0.215001
0.068452
0.210682
0.211206
0.356802
0.312367
0.266045
0.201506
0.142394
0.093097
0.103279
0.107134
0.108451
0.106408
0.103508
0.101078
0.100657
0.100046
0.101425
0.0960635
-0.122559
-0.114064
-0.113515
-0.118825
-0.137473
-0.162792
-0.16379
-0.221597
-0.254078
-0.314479
-0.418684
-0.572697
-0.789568
-0.974691
-1.08755
-1.11188
-1.16991
-0.952616
-0.77113
-0.178027
0.0277403
0.399836
0.765977
0.897561
0.626895
0.512393
0.368382
0.243991
0.143633
0.0851833
0.0794033
0.069864
0.0725823
0.0764364
0.0725166
0.0737847
0.0704917
0.0729704
0.0760558
0.0763515
-0.109791
-0.103079
-0.103938
-0.110718
-0.124483
-0.141376
-0.163785
-0.193849
-0.23435
-0.266247
-0.314483
-0.353559
-0.380143
-0.401792
-0.358481
-0.305874
-0.390324
-0.304431
-0.211729
0.323143
0.238113
0.231629
0.335573
0.305745
0.148289
0.0761343
0.0236892
-0.00868004
-0.0332842
-0.0112763
0.0305266
0.0386645
0.0370279
0.0469645
0.0525724
0.0553142
0.0566096
0.0571073
0.0565541
0.0556555
-0.10801
-0.114938
-0.118117
-0.121473
-0.127251
-0.132358
-0.142809
-0.16002
-0.167251
-0.178919
-0.163579
-0.134163
-0.0713122
0.0176058
0.117963
0.20133
0.255396
0.280918
0.329941
0.357928
-0.0129887
-0.289603
-0.509194
-0.571196
-0.513354
-0.448488
-0.36833
-0.269498
-0.174959
-0.114125
-0.0860342
-0.063566
-0.0320252
0.0111382
0.0238373
0.0333227
0.0379511
0.0375787
0.0347633
0.032796
-0.0846996
-0.0908701
-0.0919283
-0.0943243
-0.0956333
-0.0938395
-0.0910856
-0.0951801
-0.0923828
-0.0883263
-0.0736628
-0.0928421
-0.0852481
-0.108619
-0.140616
-0.183775
-0.466112
-0.398858
-0.327386
-0.253174
-0.260815
-0.352079
-0.490827
-0.612514
-0.586607
-0.52264
-0.443473
-0.387128
-0.305431
-0.251531
-0.19595
-0.129235
-0.0861489
-0.0518207
-0.0300616
-0.0138308
-0.00305549
0.00450562
0.00868779
0.0118987
-0.0451879
-0.044706
-0.0424347
-0.0406347
-0.0400159
-0.0371651
-0.0426965
-0.0369111
-0.0469221
-0.0690681
-0.095114
-0.162969
-0.337108
-0.515204
-0.713502
-0.821429
-0.919691
-0.767577
-0.666948
-0.60016
-0.517256
-0.594156
-0.421099
-0.340149
-0.329557
-0.291055
-0.279307
-0.269716
-0.271
-0.239235
-0.179612
-0.139591
-0.108006
-0.0839712
-0.0663391
-0.0499772
-0.035784
-0.0236719
-0.0122711
-0.00279046
-0.0223997
-0.0203649
-0.0166292
-0.0141436
-0.00955895
-0.00983807
-0.00768053
-0.00384609
-0.0027699
-0.0239586
-0.0658732
-0.0914116
-0.114479
-0.107866
-0.120968
-0.087772
-0.231309
-0.270672
-0.358053
-0.39903
-0.433593
-0.692229
-0.676414
-0.647324
-0.563387
-0.494693
-0.412858
-0.327257
-0.274658
-0.197026
-0.138842
-0.0976064
-0.068253
-0.0703754
-0.0497177
-0.0363217
-0.0314722
-0.0294706
-0.02438
-0.00621246
-0.0166898
-0.0146947
-0.0137663
-0.00925826
-0.00111978
0.0128545
0.0251323
0.042359
0.0698144
0.103866
0.17223
0.279003
0.402933
0.564721
0.651877
0.732176
0.777329
0.627095
0.358203
0.0447804
-0.216641
-0.412127
-0.730218
-0.989978
-0.782558
-0.823994
-0.695883
-0.520939
-0.355186
-0.21557
-0.155797
-0.108514
-0.0635584
-0.0417046
-0.020475
-0.0124759
-0.00124168
0.00424969
0.00549558
-0.000863192
-0.00114135
-0.00234362
0.00436987
0.0168417
0.0334251
0.0572354
0.0887287
0.116485
0.173356
0.242021
0.310031
0.397565
0.502357
0.621923
0.604827
0.620549
0.61924
0.492699
0.334864
0.22267
0.0531358
0.000207896
-0.118985
-0.254905
-0.273475
-0.340139
-0.373996
-0.378327
-0.295798
-0.233174
-0.188844
-0.12159
-0.0699916
-0.0384083
-0.018769
-0.00363724
0.0112088
0.0195383
0.020127
0.00279765
0.0183514
0.0291374