/*--------------------------------*- C++ -*----------------------------------*\
| =========                 |                                                 |
| \\      /  F ield         | OpenFOAM: The Open Source CFD Toolbox           |
|  \\    /   O peration     | Version:  v2106                                 |
|   \\  /    A nd           | Website:  www.openfoam.com                      |
|    \\/     M anipulation  |                                                 |
\*---------------------------------------------------------------------------*/
FoamFile
{
    version     2.0;
    format      ascii;
    arch        "LSB;label=32;scalar=64";
    class       volVectorField;
    location    "0";
    object      U;
}
// * * * * * * * * * * * * * * * * * * * * * * * * * * * * * * * * * * * * * //

dimensions      [0 1 -1 0 0 0 0];

internalField   nonuniform List<vector> 
11644
(
(0.000136283 0.000147742 2.6312e-20)
(0.000211342 0.000240043 7.25608e-20)
(0.000155509 0.000257383 3.89307e-20)
(-2.18868e-05 0.000289962 0)
(3.09602e-06 0.000360987 0)
(0.000100212 0.000357801 0)
(0.000231597 0.00018231 0)
(0.000326137 -0.000151765 0)
(0.000499187 -0.000809612 0)
(0.00063348 -0.00181652 0)
(0.000943906 -0.00314842 0)
(0.00118472 -0.0049037 0)
(0.00131304 -0.00710134 0)
(0.00187807 -0.00936459 0)
(0.00192671 -0.0117419 0)
(0.00223216 -0.0136757 0)
(0.00282218 -0.0149023 0)
(0.000356878 -0.0155752 0)
(0.000302032 -0.0132142 0)
(0.00360232 -0.0122654 3.19895e-30)
(0.00332423 -0.0129131 -3.07873e-30)
(0.000609484 -0.0118464 0)
(-0.0013379 -0.00902934 0)
(-1.20119e-05 -0.00745895 0)
(0.000911237 -0.00654234 0)
(0.000567571 -0.00586546 0)
(0.000431806 -0.00608137 0)
(0.000335582 -0.00584267 0)
(0.000195059 -0.0059104 0)
(-4.39978e-05 -0.00580181 0)
(-9.5586e-05 -0.00552432 0)
(-0.000218569 -0.00511373 0)
(-0.000284357 -0.00453548 0)
(-0.000299267 -0.00389946 0)
(-0.000320641 -0.00325659 0)
(-0.00037183 -0.00257392 0)
(-0.000302101 -0.00194685 0)
(-0.000419297 -0.00138899 0)
(-0.000450046 -0.000939856 0)
(-0.000255286 -0.000343843 5.10163e-21)
(0.000135696 2.61269e-05 3.37976e-20)
(-1.37895e-05 4.53966e-05 3.13074e-20)
(2.82254e-05 1.32792e-05 1.68142e-20)
(0.000134205 -9.13341e-05 0)
(0.000340679 -0.000352381 0)
(0.000448151 -0.000714393 0)
(0.000614797 -0.00107287 0)
(0.000996352 -0.00163237 0)
(0.00145279 -0.00235574 0)
(0.00197791 -0.00336051 0)
(0.0025044 -0.0048441 0)
(0.00333702 -0.00688102 0)
(0.00401611 -0.00898366 0)
(0.00414711 -0.0116132 0)
(0.00424939 -0.0147517 0)
(0.0033238 -0.0167711 1.42598e-21)
(0.00145258 -0.0180799 -4.99503e-21)
(0.00129743 -0.0184864 -3.9099e-20)
(0.0015025 -0.0197097 7.24179e-20)
(7.7873e-05 -0.0180868 -1.34134e-20)
(0.000798557 -0.012902 -4.88241e-20)
(-0.000337078 -0.00973212 1.71288e-20)
(-0.000599451 -0.0104395 1.67944e-20)
(-0.000923769 -0.0111707 2.30592e-21)
(-0.000683525 -0.00940603 -1.79844e-21)
(-0.0006728 -0.0085041 0)
(-0.000680274 -0.00758909 0)
(-0.000769172 -0.00721572 0)
(-0.00113948 -0.00645722 0)
(-0.00126245 -0.00568039 0)
(-0.00144503 -0.00491272 0)
(-0.00150978 -0.00414505 0)
(-0.0015701 -0.00345453 0)
(-0.00147722 -0.00283725 0)
(-0.00137548 -0.00223576 0)
(-0.00123896 -0.00183849 0)
(-0.00113649 -0.00138984 0)
(-0.00109279 -0.00102129 0)
(-0.00102415 -0.00063305 0)
(-0.000994994 -0.000251722 0)
(0.00103217 -0.000160459 0)
(0.000863179 -0.000285713 0)
(0.000586574 -0.000305112 0)
(0.000674408 -0.000472965 0)
(0.000813192 -0.000646206 3.08735e-20)
(0.00100514 -0.000871886 0)
(0.00123775 -0.00114314 0)
(0.00157717 -0.00149092 0)
(0.00207558 -0.00190673 0)
(0.00280193 -0.00245327 0)
(0.00374351 -0.00321296 0)
(0.00465379 -0.00431093 0)
(0.00568223 -0.00603671 3.78342e-21)
(0.00697432 -0.00822304 3.37487e-20)
(0.00669061 -0.0109082 -8.7194e-20)
(0.00593318 -0.0135261 -5.13165e-19)
(0.00537419 -0.0168922 8.69745e-19)
(0.00275469 -0.0185566 -6.56562e-19)
(2.43696e-05 -0.0181024 8.42862e-20)
(-0.00274763 -0.0162484 -5.37021e-19)
(-0.0049083 -0.0134724 1.25365e-18)
(-0.00323691 -0.00966528 -6.65883e-19)
(-0.00210582 -0.00773884 4.50723e-19)
(-0.00206815 -0.00720847 -5.28798e-19)
(-0.00282893 -0.00635029 2.22807e-19)
(-0.00222989 -0.00640387 9.839e-20)
(-0.00250514 -0.00609073 -2.72865e-20)
(-0.00302559 -0.00528218 -2.70368e-21)
(-0.00302789 -0.00473278 0)
(-0.00308509 -0.00399068 0)
(-0.0029889 -0.00310851 0)
(-0.00278551 -0.00234362 0)
(-0.00245605 -0.00174517 0)
(-0.00207399 -0.00124637 0)
(-0.00180361 -0.000929394 0)
(-0.00138785 -0.000637448 0)
(-0.0012203 -0.000470301 0)
(-0.000931084 -0.000233718 0)
(-0.000746263 -6.84029e-05 0)
(-0.000626491 2.98229e-05 0)
(0.00103463 -0.000114064 0)
(0.00114643 -0.000129391 0)
(0.00127657 -0.000333013 0)
(0.00139598 -0.00038008 0)
(0.00124659 -0.000475576 0)
(0.00130855 -0.000430511 0)
(0.00138833 -0.00040118 0)
(0.00166286 -0.000368357 0)
(0.00202527 -0.000272325 0)
(0.00270054 -0.000353727 0)
(0.00365569 -0.000342238 -2.49419e-21)
(0.00521319 -0.000953973 4.76374e-21)
(0.00625724 -0.00225186 -6.45348e-20)
(0.00734932 -0.00470388 -2.94521e-19)
(0.00907632 -0.0089642 6.6636e-19)
(0.00873835 -0.0131851 6.2529e-19)
(0.00773664 -0.0171822 -2.08262e-18)
(0.00435157 -0.0188962 2.09939e-18)
(0.00172716 -0.0183324 -5.2337e-19)
(-0.00152394 -0.0171716 -1.43416e-18)
(-0.00444983 -0.0138865 1.1284e-18)
(-0.00236468 -0.0123555 -2.19075e-19)
(-0.00373579 -0.0101599 -1.13251e-18)
(-0.00325529 -0.00655997 1.96995e-18)
(-0.00376739 -0.00625591 -5.11433e-19)
(-0.0048707 -0.00594331 -6.45677e-19)
(-0.00538516 -0.00619863 4.03865e-19)
(-0.00556624 -0.00584227 -1.11423e-20)
(-0.00590124 -0.00465643 2.11297e-20)
(-0.00560735 -0.00391353 2.14212e-21)
(-0.00494645 -0.00317901 0)
(-0.0041164 -0.00238047 0)
(-0.00336519 -0.00168039 0)
(-0.00265531 -0.00115905 0)
(-0.00199202 -0.000784203 0)
(-0.00156849 -0.000450025 0)
(-0.00116965 -0.000261217 0)
(-0.000962141 -9.38025e-05 0)
(-0.000798958 5.05662e-05 0)
(-0.000767128 2.93285e-05 0)
(0.00116737 1.86001e-05 0)
(0.00112704 -0.000369089 0)
(0.00138286 -0.000205051 0)
(0.00123799 -0.000221705 0)
(0.0012738 -0.000159209 0)
(0.00119078 -3.15578e-05 0)
(0.00129992 7.40969e-05 0)
(0.00139508 0.000346972 0)
(0.00185584 0.000663328 0)
(0.00234942 0.0011458 1.45741e-20)
(0.00310448 0.000978239 2.21065e-19)
(0.00416361 0.000149859 -7.5701e-19)
(0.00632505 -0.00173749 1.32542e-18)
(0.00947444 -0.0062576 -1.6895e-18)
(0.0115721 -0.0118469 1.48926e-18)
(0.0113232 -0.0158562 1.27314e-18)
(0.00991759 -0.0200033 -2.63352e-18)
(0.00887283 -0.0214525 1.60654e-18)
(0.00875718 -0.0200068 4.09303e-19)
(0.00426899 -0.0199888 1.79685e-19)
(0.0020151 -0.0159896 2.24773e-18)
(-0.000340748 -0.0147294 -4.184e-18)
(-0.00259753 -0.0140784 -3.51419e-19)
(-0.00435231 -0.00939077 2.26311e-18)
(-0.00624115 -0.00932065 -8.76729e-19)
(-0.0066776 -0.0103972 -1.27681e-18)
(-0.00824098 -0.0101135 1.52496e-18)
(-0.00957364 -0.00835754 -1.09774e-18)
(-0.00907413 -0.00675429 6.01681e-19)
(-0.00827668 -0.00454153 -2.72391e-19)
(-0.00705586 -0.00316382 -1.53358e-20)
(-0.00572826 -0.00236632 0)
(-0.00446329 -0.00165053 0)
(-0.00346997 -0.000998983 0)
(-0.0026296 -0.000482333 0)
(-0.00202149 -0.000165735 0)
(-0.00151808 0.000102146 0)
(-0.0010608 0.000109821 0)
(-0.000722405 0.0001919 0)
(-0.000710825 7.2507e-05 0)
(0.00170652 -0.000182983 0)
(0.00162011 -0.000232509 0)
(0.00153379 -0.000431174 0)
(0.00169101 -0.000661043 0)
(0.0016892 -0.000602664 0)
(0.00168492 -0.000772205 0)
(0.00172788 -0.00074726 0)
(0.0016971 -0.000397647 0)
(0.00199705 -3.4993e-05 -1.10027e-20)
(0.00234866 -0.000160021 2.02197e-20)
(0.0032721 -0.000490371 -3.45929e-21)
(0.00409004 -0.00245734 7.53266e-19)
(0.0064532 -0.00253649 -1.1112e-18)
(0.00825384 -0.00313877 -3.4912e-19)
(0.00976442 -0.0127523 1.26404e-19)
(0.0153182 -0.0208335 8.38029e-19)
(0.0165133 -0.0217741 -1.74783e-18)
(0.0129379 -0.0243437 1.06836e-18)
(0.0103971 -0.0267688 -1.45789e-19)
(0.00698791 -0.0250419 1.00816e-18)
(0.00412882 -0.0215407 -6.29492e-19)
(-0.00336263 -0.0200038 5.22837e-19)
(-0.00478754 -0.0149213 -1.72009e-18)
(-0.0103944 -0.0151782 6.10255e-19)
(-0.0119359 -0.0145242 -4.12079e-20)
(-0.0150866 -0.0132676 3.11979e-19)
(-0.0150424 -0.015728 -6.12946e-21)
(-0.0159088 -0.0134723 2.70824e-19)
(-0.0143977 -0.00832119 -4.90535e-20)
(-0.0114878 -0.00497537 2.67796e-19)
(-0.00875838 -0.00193693 3.77518e-20)
(-0.00676928 -0.000309472 -2.2392e-20)
(-0.00499769 0.000394703 0)
(-0.0036332 0.000666577 0)
(-0.00257449 0.000890732 0)
(-0.00166416 0.000831693 0)
(-0.00107951 0.000668002 0)
(-0.000564997 0.000545759 0)
(-0.000428646 0.000220675 0)
(-0.000231452 0.000199743 0)
(0.00212877 -0.000166899 0)
(0.002293 -8.08128e-05 0)
(0.00213185 -0.000639519 0)
(0.00208444 -0.00052533 0)
(0.00223543 -0.000988383 0)
(0.00243154 -0.00116482 0)
(0.00249444 -0.00128322 0)
(0.00277796 -0.00115711 6.23894e-21)
(0.00337293 -0.00135206 -1.57013e-19)
(0.00446673 -0.00258735 2.85434e-20)
(0.00612217 -0.00491262 5.29971e-20)
(0.00774194 -0.00279104 -4.99834e-19)
(0.00435822 -0.00600615 1.29977e-19)
(0.0150651 -0.0078971 2.61603e-19)
(0.00860542 -0.00434103 3.36643e-19)
(0.00594594 -0.0123164 -3.43815e-19)
(0.00547926 -0.0331545 1.76099e-18)
(0.0131929 -0.0327739 2.4865e-18)
(0.00723119 -0.0318347 2.48569e-18)
(0.00442684 -0.0320004 1.17839e-18)
(-0.000638362 -0.0259907 -2.27295e-18)
(-0.00624299 -0.0250394 -3.49948e-18)
(-0.0124064 -0.0181077 2.64794e-18)
(-0.0178756 -0.0127254 7.70762e-19)
(-0.0248246 -0.0164748 2.4869e-19)
(-0.0282018 -0.0168942 -5.0549e-19)
(-0.0201715 -0.014428 -1.10678e-19)
(-0.0257876 -0.0120387 -2.35164e-19)
(-0.0187808 -0.00751876 1.29994e-18)
(-0.015492 -0.00325284 -8.36354e-19)
(-0.0107714 0.000670319 1.77735e-19)
(-0.00718102 0.00293808 8.43593e-21)
(-0.00470664 0.00343438 8.10596e-21)
(-0.00303803 0.00294813 0)
(-0.00197814 0.0024618 0)
(-0.00105979 0.00218551 0)
(-0.000404767 0.0016843 0)
(-2.58807e-05 0.00119098 0)
(0.000433709 0.000901847 0)
(0.000538409 8.53432e-05 0)
(0.00264885 2.46807e-05 0)
(0.00278062 -0.000588758 0)
(0.00305198 -0.000393047 0)
(0.00324703 -0.000747902 0)
(0.00338564 -0.00101878 0)
(0.00369968 -0.00105925 0)
(0.00373151 -0.00114743 0)
(0.00454083 -0.00104273 5.44387e-20)
(0.00676553 -0.0027098 -5.22435e-20)
(0.00923396 -0.00462003 1.27943e-19)
(0.010591 -0.00500689 1.0727e-19)
(0.0116164 -0.00975839 -5.60632e-19)
(0.00689567 0.00433176 -8.59409e-19)
(0.00561189 0.00283871 -3.659e-19)
(0.0102058 -0.0148257 -9.11634e-19)
(0.00763672 -0.016114 -2.50214e-18)
(0.0178328 -0.0128185 5.01753e-19)
(0.0147348 -0.0382305 -1.11423e-18)
(0.0121694 -0.0420639 -1.31531e-18)
(0.00921538 -0.0449528 6.73837e-18)
(0.00155586 -0.034458 -1.32158e-18)
(-0.00663352 -0.0277191 -2.82836e-19)
(-0.0176997 -0.0221345 2.47775e-19)
(-0.0194175 -0.0223341 -2.75938e-18)
(-0.0260293 -0.025893 -1.43328e-18)
(-0.0287789 -0.0140049 -2.06149e-18)
(-0.0339295 -0.001119 -3.97166e-19)
(-0.0279773 -0.0108124 1.04369e-19)
(-0.0228133 0.00192906 -1.20508e-19)
(-0.0182324 0.0011124 -3.39199e-19)
(-0.0120597 0.00392314 -3.00632e-20)
(-0.00693828 0.00540872 1.56272e-19)
(-0.00310149 0.00594558 -7.85772e-20)
(-0.001082 0.00501209 0)
(3.51031e-05 0.00388885 0)
(0.000638197 0.00314576 0)
(0.00125055 0.0024693 0)
(0.00159343 0.00173104 0)
(0.00162441 0.000875348 0)
(0.00169641 0.000484773 0)
(0.00289059 2.56671e-05 0)
(0.00284884 0.000154005 0)
(0.00288081 0.000321561 0)
(0.00341859 -0.000254354 0)
(0.00382458 -3.29028e-05 0)
(0.00444668 -0.000559461 0)
(0.00544412 -0.000549201 -2.22744e-21)
(0.00816196 -0.00136174 -2.16696e-20)
(0.0125537 -0.00385097 8.34948e-20)
(0.0165329 -0.00606032 -1.11784e-21)
(0.0189674 -0.00694651 2.06157e-19)
(0.0205626 -0.0102544 -8.78453e-19)
(0.0234663 0.0140427 4.73791e-19)
(0.0256456 0.00665785 5.81934e-19)
(0.0141571 -0.012718 -1.83593e-19)
(0.0353506 -0.00689198 2.28072e-19)
(0.0167744 -0.0215131 -1.60611e-18)
(0.0212471 -0.0137803 1.37138e-19)
(0.0219499 -0.0484283 1.89719e-18)
(0.0118459 -0.0540948 -1.59875e-18)
(-0.00491752 -0.0569015 -3.32863e-19)
(-0.0221675 -0.0525054 -1.44876e-18)
(-0.0295557 -0.034232 -1.67346e-18)
(-0.0335607 -0.0329997 -8.94985e-20)
(-0.0425084 -0.00858518 -5.71154e-20)
(-0.0347239 -0.00651474 2.89158e-20)
(-0.0231114 -0.000269414 1.85345e-19)
(-0.0230324 -0.00573575 -2.9139e-19)
(-0.0195656 0.00751765 2.01073e-19)
(-0.0144846 0.00661763 9.17111e-20)
(-0.0102227 0.00673323 -1.57013e-19)
(-0.005478 0.00626153 3.09469e-20)
(-0.00103006 0.00657412 2.55184e-20)
(0.00155774 0.00576291 1.22927e-20)
(0.00208327 0.00423786 0)
(0.00232637 0.00296273 0)
(0.00233305 0.0020224 0)
(0.00254789 0.00142166 0)
(0.00286234 0.000669288 0)
(0.00288347 0.000416384 0)
(0.00254713 0.000101027 0)
(0.00284732 5.72593e-05 0)
(0.00335413 -0.000189859 0)
(0.00372254 0.00032212 0)
(0.00449305 0.000333996 0)
(0.00529793 0.000205772 0)
(0.00727913 0.000634094 -1.78847e-20)
(0.0126708 -0.000682541 -3.77664e-20)
(0.0183848 -0.00175015 1.62854e-19)
(0.0233315 -0.00229961 2.90209e-20)
(0.0276075 -0.00245507 -9.39626e-20)
(0.0336703 -0.00523016 -5.01139e-20)
(0.0370579 0.00234988 -4.7261e-20)
(0.0168165 0.00368947 1.63873e-19)
(0.0261506 -0.0190806 -7.0185e-19)
(0.0321434 0.0205933 -3.69661e-20)
(0.0373035 -0.0119322 1.03621e-18)
(0.0504733 -0.0193381 1.38534e-19)
(0.0417598 -0.038091 5.20342e-19)
(0.0312391 -0.0765829 1.08968e-18)
(-0.00811302 -0.0883215 1.19976e-18)
(-0.0432259 -0.0701417 -1.86686e-19)
(-0.0610345 -0.0449086 -6.6332e-19)
(-0.044292 -0.0196135 -1.33443e-19)
(-0.0435204 -0.0051241 1.73223e-19)
(-0.0409636 -0.0152148 -1.74423e-18)
(-0.0381507 0.0248966 6.39389e-20)
(-0.0116442 0.00337074 -1.72799e-19)
(-0.00824558 0.00885685 6.35357e-20)
(-0.00699036 0.00837708 4.64965e-20)
(-0.00569266 0.00723366 2.78067e-20)
(-0.00328889 0.006092 1.54299e-20)
(0.000449866 0.00603312 -9.67583e-21)
(0.00382614 0.00574768 -1.4253e-20)
(0.00446283 0.00458976 0)
(0.00445502 0.00359108 0)
(0.00448773 0.00270181 0)
(0.00416219 0.00158448 0)
(0.00408336 0.00139127 0)
(0.00384794 -0.000313274 0)
(0.00228318 -0.000506072 0)
(0.00227748 0.000297332 0)
(0.00278157 0.000161278 0)
(0.00343418 0.00140936 0)
(0.0046053 0.00157353 0)
(0.0056813 0.00270847 0)
(0.00848523 0.00350847 1.13781e-20)
(0.0143542 0.00327523 -1.96839e-20)
(0.0202491 0.00359494 -3.21276e-21)
(0.0260773 0.00383177 1.54655e-20)
(0.0302593 0.00643777 -1.34081e-20)
(0.0366322 0.00578473 1.42811e-19)
(0.0431496 -0.00800754 -8.94221e-20)
(0.0259721 0.00492985 -1.04632e-20)
(0.0528101 0.0098437 5.69004e-20)
(0.0183107 0.00722699 -1.57385e-20)
(0.0234032 0.0225889 -5.70801e-20)
(0.0713377 0.00862372 -3.68873e-20)
(0.115572 -0.0251212 -9.52768e-20)
(0.107627 -0.124962 9.26228e-19)
(-0.00858254 -0.201789 -2.21222e-18)
(-0.123975 -0.116652 -3.0046e-18)
(-0.104103 -0.0197643 7.34159e-20)
(-0.0753931 0.0129378 -1.671e-20)
(-0.0523045 0.00524925 -5.64647e-20)
(-0.0231846 0.0135786 1.01785e-19)
(-0.0167359 -0.00157032 -3.74977e-19)
(-0.00395377 0.0263815 -9.08043e-21)
(-0.00375338 0.00742241 1.46561e-20)
(-0.00302968 0.00512363 -5.5102e-20)
(-0.00234156 0.00602254 6.38501e-20)
(-0.000630246 0.00610128 1.31959e-20)
(0.00165317 0.00535363 3.85481e-21)
(0.00512529 0.00481193 3.55255e-21)
(0.00611735 0.00403333 0)
(0.00577775 0.00355601 0)
(0.00549556 0.00322737 0)
(0.0053058 0.00260009 0)
(0.00455606 0.00138599 0)
(0.00482227 0.000586973 0)
(0.00119252 -0.000126065 0)
(0.000851883 0.000688685 0)
(0.00061644 0.0015784 0)
(0.00073721 0.00206383 0)
(0.00114486 0.00295813 0)
(0.00232829 0.00429677 0)
(0.00609851 0.00563912 -5.52841e-22)
(0.0120306 0.00650519 1.04339e-21)
(0.0177603 0.00756532 6.97711e-21)
(0.024436 0.00759823 -1.05912e-20)
(0.0281357 0.0101616 1.48178e-20)
(0.0309127 0.00821185 -3.3932e-20)
(0.0204448 0.00118513 2.2794e-20)
(0.0611276 0.00877886 -7.77735e-20)
(0.0427342 0.0173892 -1.11282e-19)
(0.0533974 0.028178 -3.97368e-20)
(0.0516124 0.0452963 -5.6639e-20)
(0.0685715 0.077976 3.53554e-20)
(0.206444 0.104213 -4.09738e-19)
(-0.198146 0.0963128 7.69455e-18)
(-0.0577935 0.0869559 -4.22698e-21)
(-0.0208176 0.0797625 1.33492e-19)
(0.000542565 0.0668249 2.18276e-19)
(0.00513977 0.0147369 -2.67539e-20)
(-0.0109506 0.0311983 -2.39722e-20)
(-0.00818391 0.0123623 -4.71009e-21)
(-0.0062454 0.00720076 3.30854e-20)
(-0.00306614 0.00661031 -1.96741e-20)
(-0.000527484 0.00609999 9.53879e-21)
(0.00202323 0.00530225 2.4181e-21)
(0.00484865 0.00433764 -1.64601e-21)
(0.00581728 0.00321712 0)
(0.00527928 0.0022878 0)
(0.00520793 0.00143562 0)
(0.00571182 0.00128309 0)
(0.00672547 0.000331716 0)
(0.00605534 0.00126376 0)
(-0.00200324 0.00321953 0)
(-0.00063338 -0.000111562 0)
(-0.000564113 0.00317315 0)
(-0.000159737 0.00318448 0)
(-0.000426173 0.00445825 0)
(7.88936e-05 0.00474296 0)
(0.0023011 0.0056221 -4.97547e-21)
(0.00773845 0.00605853 8.5733e-21)
(0.0124565 0.00804548 1.06694e-20)
(0.0172158 0.0065254 -9.31647e-21)
(0.0177295 0.00698504 2.30062e-20)
(0.0214363 0.00117039 -6.32834e-20)
(0.014872 0.00265436 1.16893e-20)
(0.0130161 0.0103839 -4.2266e-20)
(-0.00661794 0.0158374 1.31501e-19)
(-0.00384636 0.0338629 -1.0669e-19)
(-0.01745 0.0629321 6.87007e-20)
(-0.0463948 0.11651 3.54433e-20)
(-0.0370625 0.215908 2.35174e-17)
(0.0625596 0.220181 1.99825e-18)
(0.0212939 0.106601 2.49545e-20)
(0.00607639 0.0549085 -1.34234e-19)
(-0.0124087 0.0437752 -4.31137e-20)
(-0.00402889 0.0347531 1.22085e-19)
(-0.0146508 0.0287281 1.4115e-19)
(-0.0150496 0.0234846 -9.8635e-20)
(-0.0102066 0.0133035 -3.4504e-20)
(-0.00604886 0.00944249 -7.94666e-21)
(-0.00364213 0.00700086 1.75198e-20)
(0.00131899 0.00541825 -8.57642e-21)
(0.0049848 0.00425085 1.81633e-22)
(0.00717261 0.00319825 0)
(0.00725257 0.00210784 0)
(0.00685595 0.00100182 0)
(0.00583255 -3.17479e-05 0)
(0.00539021 0.000450431 0)
(0.00808864 0.000891823 0)
(-0.00605491 -0.00672296 3.56836e-22)
(-0.00520967 0.0024314 0)
(-0.00288385 0.00116632 0)
(-0.00233591 0.00230065 0)
(-0.00193876 0.00340734 0)
(-0.00219726 0.00324925 0)
(-0.000832469 0.00490075 -2.75088e-21)
(0.00351947 0.00424839 -3.64887e-20)
(0.00647961 0.00682078 1.0992e-20)
(0.00974597 0.00574396 -8.47191e-20)
(0.00913188 0.00534923 8.91999e-20)
(0.00108731 -0.00746811 -1.11421e-20)
(0.00482951 -0.012941 7.01339e-20)
(-0.0139623 0.0118372 -1.00599e-19)
(-0.0126325 0.00585253 -2.2102e-19)
(-0.00725823 0.0237854 -2.32112e-18)
(-0.037473 0.0256349 -8.67878e-19)
(-0.0850369 0.00387413 -1.98056e-19)
(-0.0760664 -0.0448921 3.86759e-18)
(0.141092 -0.0147449 -1.62193e-19)
(0.0460804 0.0264594 -1.5152e-19)
(0.0322428 0.0312881 4.03036e-19)
(0.00514842 0.0321976 -4.51609e-19)
(-0.0148856 0.0319991 -1.73758e-18)
(-0.0135589 0.0210505 3.36051e-19)
(-0.00983864 0.0182995 -2.88862e-19)
(-0.00724182 0.0217729 -2.11235e-20)
(-0.00631265 0.0125286 -3.5475e-19)
(-0.00358338 0.0079674 3.93119e-20)
(0.000180461 0.00703659 3.6304e-21)
(0.00350653 0.00459271 6.22314e-21)
(0.00524312 0.00510243 0)
(0.00648445 0.00498923 0)
(0.00618939 0.00493801 0)
(0.00545595 0.00395564 0)
(0.00478371 0.00178877 0)
(-0.000609506 -0.00283554 0)
(0.00059316 0.00641261 3.95698e-23)
(-0.00200452 0.00266877 0)
(-0.00456757 0.000613573 0)
(-0.00449495 0.000928343 0)
(-0.00446207 0.00195046 0)
(-0.00558655 0.00476807 0)
(-0.00525488 0.00525627 3.43087e-21)
(-0.0015619 0.00779898 -4.06817e-20)
(0.00171843 0.00885359 1.13134e-19)
(0.00320145 0.0114634 -8.88033e-21)
(0.00734038 0.0149896 -1.00815e-19)
(-0.000238772 0.00649084 1.15019e-19)
(-0.00359386 0.0151839 -2.44402e-19)
(0.0165099 -0.00097662 1.14674e-19)
(0.0128321 0.0144079 -9.24353e-19)
(-0.0112039 0.00664381 2.47172e-18)
(-0.0193503 0.00293777 5.87592e-20)
(0.0435596 -0.0410037 1.65914e-18)
(0.109708 -0.23661 -1.7256e-18)
(-0.117275 0.000269458 8.1048e-19)
(0.185291 -0.225356 7.30581e-21)
(0.0680338 -0.314784 -8.06719e-19)
(-0.213941 -0.167332 -3.59667e-19)
(0.0332957 -0.0101601 3.43582e-19)
(0.0100306 0.0130918 1.93808e-18)
(-0.0114006 0.0283422 2.75918e-19)
(0.00712023 -0.00476881 -2.51832e-19)
(-0.000516746 0.0260233 1.47577e-19)
(-0.00474241 0.0218994 -2.55677e-19)
(-0.0129467 0.0247831 -1.45703e-19)
(-0.00789622 0.0173431 1.9398e-19)
(-0.000968032 0.0106424 -7.43006e-20)
(0.00102702 0.00692871 -1.70794e-21)
(0.0030329 0.00533677 1.03656e-21)
(0.00435081 0.000178637 0)
(0.00612859 0.00230685 0)
(0.00645832 0.00286054 0)
(0.00846694 0.0031051 0)
(0.00885102 0.00391185 0)
(0.011519 0.00100257 0)
(-0.00920966 -0.000941012 -7.77747e-21)
(-0.00447437 -0.000300676 0)
(-0.00371954 0.000800225 0)
(-0.00631849 0.00324037 0)
(-0.00916328 0.00405453 0)
(-0.00849651 0.00217499 0)
(-0.00860113 0.00488515 -9.26518e-23)
(-0.00682058 0.00407913 -1.62694e-20)
(-0.00528011 0.00900394 6.79325e-20)
(-0.00263988 0.0112951 1.44189e-21)
(-0.0103052 0.0226599 1.36159e-19)
(0.00478306 0.0303526 -3.63957e-19)
(0.0103711 0.0345685 1.3898e-19)
(0.0415165 0.0312791 -1.34702e-19)
(0.00235028 0.00551836 -4.05866e-19)
(-0.0468974 0.00682679 1.79658e-18)
(0.0373074 0.048071 1.48747e-18)
(0.673488 -0.142743 -1.51577e-17)
(-0.655245 0.231592 -2.98667e-18)
(0.185783 -0.465788 1.49798e-17)
(0.94368 -0.253162 4.45314e-18)
(0.646647 0.360629 -2.31261e-18)
(-0.231298 -0.23673 3.84025e-18)
(-0.0198138 0.0734047 2.84512e-18)
(-0.0174719 0.0151989 2.19286e-18)
(-0.0146384 0.0187441 -2.98489e-19)
(-0.0427982 0.0319236 -6.99559e-19)
(-0.00754713 0.0243191 -4.90462e-19)
(-0.016459 0.0385245 -3.97754e-19)
(-7.4967e-05 0.0197017 -2.73616e-19)
(-0.00607537 0.015596 1.10416e-19)
(-0.00319866 0.0107915 -1.46849e-19)
(0.00400007 0.00479713 -2.37518e-20)
(0.00775912 0.00265366 -3.37841e-22)
(0.00727715 0.00707216 0)
(-0.00038358 0.00249174 0)
(0.00247574 -0.00040192 0)
(0.00507797 -0.0012121 0)
(0.00880705 -0.00228203 0)
(0.00549434 0.000607288 1.6228e-20)
(-0.00247942 0.00111336 5.37601e-21)
(-0.00614329 -0.000601303 0)
(-0.00636975 0.00071108 0)
(-0.0053757 5.82747e-05 0)
(-0.0041449 0.000675254 0)
(-0.00719 0.000673906 0)
(-0.0131953 0.00164536 0)
(-0.0218742 0.000843738 1.25717e-21)
(-0.0192999 0.00192255 -9.0634e-20)
(-0.0305998 0.00129443 2.83085e-20)
(-0.0199234 -0.00976853 1.76355e-19)
(-0.0212628 0.000706921 -2.18388e-19)
(0.0065542 0.0164505 -5.74737e-19)
(-0.00956909 -0.0299322 7.19098e-19)
(-0.0235338 0.00132343 5.96626e-19)
(0.0180357 0.00119354 -1.16934e-18)
(-0.0503201 0.0582158 4.38703e-19)
(-0.424253 0.673906 -1.52385e-17)
(0.658767 -0.0838684 -1.78861e-18)
(-0.637246 -0.601703 4.97891e-18)
(-1.01193 -0.15076 2.78186e-19)
(-0.206138 -0.334616 -1.07212e-17)
(0.0862039 0.311214 -1.71098e-18)
(-0.154056 0.245915 -3.64372e-18)
(0.0123981 0.0349579 -1.22335e-18)
(0.0311635 0.0455676 -2.59453e-19)
(0.0112815 -0.0145111 -4.61524e-19)
(-0.00995884 0.0464102 6.38796e-19)
(0.00847434 0.0034311 5.40641e-19)
(0.00839964 0.00633867 -4.59041e-19)
(0.0132169 0.0108285 -5.49935e-21)
(0.00737403 0.0111219 9.81307e-20)
(0.012021 0.0013547 1.72435e-21)
(0.0104442 0.00100407 0)
(0.00982362 0.00139565 0)
(0.0132763 0.00105868 0)
(0.00861621 0.00146782 0)
(0.00220458 0.00251648 0)
(0.000675743 0.00149887 0)
(0.00993768 0.00129434 -3.21099e-21)
(-0.00182536 -0.00428809 2.07731e-21)
(-0.00391657 1.79731e-05 0)
(-0.00369963 0.00166672 0)
(-0.00317065 0.00167066 0)
(-0.00266716 0.00231081 0)
(-0.00427871 0.00370516 0)
(-0.00565686 -0.0014878 0)
(-0.0114245 -0.00303987 0)
(-0.0060259 -0.00280452 -1.44042e-20)
(0.00164419 -0.0020493 2.15537e-20)
(0.00673775 -0.00836374 4.61551e-20)
(0.0115023 -0.0104916 -1.09081e-20)
(0.00132134 -0.000142869 -3.17025e-19)
(-0.00979217 -0.00667921 3.31299e-19)
(0.0221485 -0.0398372 -7.13975e-19)
(-0.0039027 0.00554145 3.29414e-19)
(-0.211188 0.0357466 1.47825e-19)
(-0.581323 -0.476492 -4.44628e-18)
(0.87441 1.28605 3.08454e-18)
(0.447628 0.752392 7.35786e-19)
(-0.278351 1.12586 -3.59691e-18)
(-0.731611 -0.838599 -1.32656e-18)
(-0.282245 0.530061 1.54488e-18)
(0.439372 -0.075048 -4.38179e-17)
(0.156135 -0.029196 1.26814e-20)
(0.020941 -0.0366453 -6.25995e-19)
(-0.0462923 0.0304828 -3.63257e-19)
(-0.000453896 0.0395854 4.64913e-19)
(-0.000565538 0.0123921 -4.03133e-20)
(-0.00458292 0.0116813 2.68297e-20)
(0.00407288 0.0166219 -4.00857e-20)
(0.0114149 0.00670162 3.02788e-22)
(0.0115293 0.00547716 0)
(0.00730073 0.00243512 0)
(0.0093667 0.00399865 0)
(0.00902942 0.00363493 0)
(0.00771816 0.00523022 4.87353e-20)
(0.00740909 0.00447495 6.73977e-20)
(0.00490282 0.00227684 4.01899e-20)
(0.0082851 -0.00026565 0)
(0.00174652 0.00265134 0)
(-0.00359659 0.00291619 0)
(-0.0060042 0.00268675 0)
(-0.00831171 0.00191235 0)
(-0.00852922 0.00141892 0)
(-0.00640058 0.00295906 0)
(-0.00143699 0.00509808 0)
(0.00335419 0.00476447 0)
(-0.00391854 0.00105276 -1.06032e-22)
(-0.00253579 0.00531779 -2.00192e-21)
(-0.005175 0.00799409 -1.38407e-20)
(-0.00970473 0.0171435 1.69589e-19)
(-0.0182946 0.0149351 -1.51234e-19)
(-0.00411927 0.0396335 2.98188e-19)
(0.0107473 0.035317 5.94036e-18)
(0.0801903 0.0239853 -9.35963e-19)
(0.0590645 -0.299493 1.11853e-18)
(-0.349918 -0.180902 -5.02328e-18)
(-0.894412 -0.166075 3.55716e-19)
(0.773772 0.804399 -5.23101e-18)
(0.486471 1.29524 -3.25508e-18)
(-0.450165 0.336747 5.35835e-18)
(0.397942 0.072495 5.46145e-19)
(0.232021 -0.0560655 -1.32898e-18)
(-0.366999 -0.259241 2.06994e-18)
(-0.121179 0.0879487 -1.67804e-20)
(0.00434039 0.0990512 -2.62782e-19)
(0.00421143 0.0484673 2.23231e-19)
(0.0124797 0.0343351 -3.782e-20)
(0.0133173 0.0247415 1.38433e-20)
(0.0127258 0.00912525 -5.05443e-21)
(0.0134629 0.00111411 3.78483e-23)
(0.00853462 0.00750212 0)
(0.00749039 0.00730546 0)
(0.00797078 0.00501484 0)
(0.00901216 0.00339835 0)
(0.010196 0.00226546 0)
(0.0120365 0.000980745 0)
(0.011768 0.00109499 0)
(0.00759515 0.000385745 -7.23826e-21)
(-0.00973134 0.00512381 0)
(-0.00641469 0.00166048 0)
(-0.00597101 0.00028934 0)
(-0.00548318 -0.00143986 0)
(-0.00683033 -0.00324952 0)
(-0.00720812 -0.00502584 0)
(-0.00821772 -0.00270899 0)
(-0.0048148 0.00490606 0)
(-0.00826079 0.00817836 0)
(-0.00880265 0.0037019 0)
(-0.0103954 0.0161389 5.77624e-21)
(-0.0137635 0.0137243 -3.16093e-20)
(-0.0403288 0.00527333 -1.24952e-19)
(-0.0637369 0.0173856 1.92855e-19)
(-0.075022 0.0711432 1.6642e-17)
(0.41946 0.172934 4.12797e-20)
(-0.137195 0.119456 8.17207e-18)
(-0.177696 0.551045 -3.49017e-19)
(0.282738 -0.460397 -3.21698e-18)
(-0.497619 -2.75545 4.19005e-18)
(0.198653 -1.95357 3.55875e-18)
(0.0881387 -1.1731 -2.29362e-18)
(-0.397178 0.0725684 1.20441e-18)
(0.334433 -0.491202 1.5602e-18)
(-0.344836 0.203817 -9.56833e-19)
(-0.115402 0.163794 2.85716e-19)
(0.0428206 0.0496318 2.96323e-20)
(0.02639 0.0422495 -7.48469e-20)
(0.0256274 0.0369784 -2.83192e-20)
(0.0236391 0.0178489 -1.76402e-21)
(0.0190968 0.00561226 0)
(0.0130976 0.00830442 0)
(0.0052836 0.00791034 0)
(0.00947628 0.00575438 0)
(0.00847278 0.00174448 0)
(0.00849322 0.000454292 0)
(0.00860436 -0.000690787 0)
(0.00917564 0.000754723 0)
(0.0104139 0.00163406 0)
(0.00920503 0.00140994 0)
(-0.0119976 -0.00405626 0)
(-0.0048694 -0.00434429 0)
(-0.00298945 -0.00376994 0)
(-0.00246335 -0.00450534 0)
(-0.00411648 -0.00547874 0)
(-0.00607858 -0.00861313 0)
(-0.010394 -0.0108753 0)
(-0.0102395 -0.0107702 0)
(-0.00843595 -0.00588739 0)
(-0.00664827 -0.00844426 0)
(-0.00773137 -0.000999393 0)
(-0.0103616 -0.0219267 1.48468e-21)
(-0.00735924 -0.0212058 -1.56818e-20)
(-0.140332 -0.143797 1.92212e-21)
(-0.159809 0.051377 5.73163e-18)
(-0.40795 0.508181 6.90854e-21)
(0.597565 0.174482 5.38983e-18)
(0.381099 -0.784153 1.44341e-18)
(0.495051 -0.0742301 -2.17331e-18)
(-0.240886 0.476598 -2.04683e-18)
(-0.41732 0.97213 5.65074e-19)
(-0.10269 -0.104186 2.19255e-18)
(0.0338961 0.123202 -3.69694e-18)
(0.464788 -0.0298647 2.57779e-19)
(-1.12305 0.601828 6.00358e-19)
(0.256341 0.154974 -2.76642e-19)
(0.0763299 0.043982 -7.44687e-19)
(0.0711718 0.0336264 1.7401e-20)
(0.036122 0.0113218 7.79448e-23)
(0.0314609 0.0102252 0)
(0.0212891 0.012164 0)
(0.0186507 0.0140588 0)
(0.0186539 0.00883583 0)
(0.0206287 0.00391341 0)
(0.0144078 0.00137922 0)
(0.0118764 -0.000839825 0)
(0.0112334 -0.00353764 0)
(0.0111515 -0.00525586 0)
(0.0110605 -0.00504666 0)
(0.0143015 -0.00379669 0)
(0.00383912 -0.00419392 0)
(0.00112426 -0.0033341 0)
(0.000341295 -0.00530312 0)
(-0.000521214 -0.0055191 0)
(-0.000928943 -0.0055454 0)
(-0.000869452 -0.00667823 0)
(-0.00197534 -0.00923709 0)
(-0.00456256 -0.0143281 0)
(-0.00252888 -0.0191661 0)
(-0.00355448 -0.0174455 0)
(0.00568802 -0.0252727 -6.86857e-20)
(0.00235232 -0.0197817 0)
(0.0604624 -0.0695613 0)
(-0.0398948 -0.180286 -7.78362e-19)
(-0.458861 -0.308733 -1.21382e-19)
(-0.300581 -0.322659 9.37999e-18)
(0.464019 0.433972 4.40991e-19)
(-0.407487 1.38251 -6.63661e-19)
(-0.0557376 1.10625 1.59785e-18)
(0.0116093 0.511258 9.01511e-18)
(-0.122927 0.0526255 -3.64057e-19)
(-0.383055 -0.105229 1.25378e-18)
(-0.26854 0.751026 2.86151e-19)
(0.221414 0.715423 -2.84703e-19)
(-0.361941 0.326461 2.7346e-20)
(0.473352 -0.268731 9.76448e-19)
(0.124451 0.0125493 -1.71253e-18)
(0.0556247 -0.00895417 0)
(0.0480257 -0.00508843 0)
(0.0317928 -0.00403344 -5.32816e-21)
(0.0265476 -0.00471358 0)
(0.0249227 -0.00633149 0)
(0.0261607 -0.00602663 0)
(0.0217419 -0.00499571 0)
(0.0179443 -0.0013999 0)
(0.0143652 -0.00165067 0)
(0.011764 -0.00219625 0)
(0.00792624 -0.0033679 -8.02097e-21)
(0.00397037 -0.0028846 -5.75433e-21)
(0.000313139 -0.00171945 0)
(-0.00399458 0.000532344 0)
(-0.00456245 0.000726884 0)
(-0.00348701 0.00140388 0)
(-0.00253384 0.00396129 0)
(-0.000819212 0.00467998 0)
(0.000121891 0.00522834 0)
(0.0023011 0.00439614 0)
(0.00129167 0.00202101 0)
(0.00195484 -0.00530268 0)
(-0.00598827 -0.00631567 0)
(0.000373792 -0.0117938 7.06025e-21)
(0.00123107 0.00127088 0)
(0.0706671 -0.0233065 0)
(0.226158 0.144119 -5.61479e-19)
(-0.266968 -0.339115 -4.21937e-18)
(-0.972071 -0.162666 1.2101e-18)
(-0.509574 -0.0721706 0)
(0.494701 -0.309456 -3.41211e-19)
(0.526523 -0.787081 -1.56904e-18)
(0.879798 -0.459599 -1.2105e-17)
(-0.124329 -0.447207 -2.12423e-17)
(-0.336947 -0.163817 -2.01817e-17)
(-0.135347 0.109213 -2.90564e-19)
(0.683599 -0.36171 0)
(0.8228 -0.794661 -3.45779e-19)
(-0.117388 -0.305961 5.6843e-19)
(-0.095146 -0.095454 -4.41806e-19)
(0.0288353 -0.0522572 0)
(0.0382793 -0.0482671 0)
(0.0202437 -0.037541 2.4547e-20)
(0.0206119 -0.028588 0)
(0.0167042 -0.0229054 0)
(0.0148883 -0.0155819 0)
(0.0111609 -0.00882995 0)
(0.0122764 -0.00344026 0)