/*--------------------------------*- C++ -*----------------------------------*\
| =========                 |                                                 |
| \\      /  F ield         | OpenFOAM: The Open Source CFD Toolbox           |
|  \\    /   O peration     | Version:  v2106                                 |
|   \\  /    A nd           | Website:  www.openfoam.com                      |
|    \\/     M anipulation  |                                                 |
\*---------------------------------------------------------------------------*/
FoamFile
{
    version     2.0;
    format      ascii;
    arch        "LSB;label=32;scalar=64";
    class       volScalarField;
    location    "0";
    object      p;
}
// * * * * * * * * * * * * * * * * * * * * * * * * * * * * * * * * * * * * * //

dimensions      [0 2 -2 0 0 0 0];

internalField   nonuniform List<scalar> 
11644
(
0.0256143
0.0260714
0.0270365
0.0285336
0.0305728
0.0331738
0.0363634
0.0401663
0.0445978
0.049659
0.0553346
0.0615679
0.0682704
0.0753258
0.0825519
0.089752
0.0966751
0.103047
0.108655
0.113288
0.116716
0.118788
0.119554
0.119254
0.117928
0.115633
0.11266
0.109242
0.105571
0.101847
0.098213
0.0947751
0.0916164
0.0887927
0.0863404
0.0842823
0.0826312
0.0813966
0.0805891
0.0802033
0.0248103
0.0252585
0.0261849
0.0276187
0.029586
0.0321145
0.0352355
0.0389809
0.043377
0.048441
0.0541691
0.0605353
0.0674749
0.0748513
0.0825014
0.0901833
0.0976208
0.104523
0.110569
0.115432
0.118891
0.120908
0.121523
0.120911
0.119212
0.11659
0.113264
0.109501
0.105548
0.101588
0.097772
0.0942094
0.0909695
0.088099
0.0856253
0.0835645
0.0819245
0.0807075
0.0799123
0.0795272
0.0230656
0.0235099
0.0243966
0.0257457
0.0275945
0.0299856
0.0329636
0.0365776
0.04088
0.0459184
0.0517316
0.058343
0.0657218
0.0737792
0.082329
0.0910882
0.0997238
0.107774
0.114683
0.120087
0.123794
0.125769
0.125962
0.124612
0.122012
0.118495
0.114363
0.109895
0.10535
0.100934
0.0967853
0.0929946
0.0896126
0.0866633
0.0841558
0.0820893
0.0804572
0.0792486
0.0784478
0.0780461
0.0204582
0.020869
0.0216855
0.0229163
0.0245998
0.0267887
0.0295444
0.0329406
0.037063
0.0420126
0.0478976
0.0548204
0.0628447
0.0719378
0.0819608
0.09247
0.102946
0.112904
0.121419
0.12794
0.132088
0.133746
0.132971
0.13026
0.1262
0.121201
0.115753
0.110202
0.104796
0.0997257
0.0951189
0.0910287
0.0874698
0.0844321
0.0818917
0.0798227
0.0781994
0.0769959
0.076192
0.0757834
0.0170961
0.0174459
0.0181407
0.0191939
0.0206426
0.0225425
0.0249701
0.0280237
0.03183
0.0365516
0.0423973
0.0496209
0.0584404
0.0689657
0.0810835
0.0941931
0.107336
0.120492
0.131776
0.140072
0.144747
0.145527
0.142941
0.137728
0.131261
0.124021
0.116734
0.109786
0.103387
0.0976106
0.0925124
0.0881229
0.0844091
0.081309
0.0787636
0.0767183
0.0751276
0.0739543
0.0731727
0.07278
0.0131209
0.013376
0.013895
0.0146955
0.0158125
0.0173039
0.019252
0.0217719
0.0250285
0.0292835
0.0349067
0.0423083
0.0518724
0.0638672
0.0786038
0.095588
0.113042
0.131221
0.147048
0.158453
0.16381
0.162673
0.156538
0.146948
0.13646
0.125926
0.116069
0.107499
0.10019
0.0939308
0.088555
0.0840051
0.0802374
0.0771675
0.074697
0.0727438
0.0712423
0.0701464
0.0694236
0.0690599
0.00867905
0.00882672
0.00912212
0.00958594
0.0102562
0.0111876
0.0124578
0.0141874
0.0165853
0.0200531
0.0250722
0.032111
0.0416487
0.0547956
0.0723367
0.0942186
0.113226
0.136101
0.158282
0.175774
0.18445
0.183103
0.173636
0.159535
0.140335
0.125173
0.112197
0.102094
0.094198
0.0878576
0.0826658
0.0783356
0.0747619
0.0718994
0.0696455
0.067894
0.0665669
0.0656075
0.0649858
0.0646774
0.00396451
0.00397516
0.00400464
0.00406552
0.00418255
0.00439611
0.00477281
0.00542435
0.00661315
0.00878669
0.0123688
0.0179157
0.0263406
0.0395547
0.0570064
0.079647
0.111508
0.148311
0.18501
0.214065
0.226308
0.219376
0.198497
0.172487
0.147299
0.124667
0.109326
0.0923512
0.0846145
0.078812
0.0743641
0.0707827
0.0678203
0.0654404
0.063599
0.0621962
0.0611536
0.0604173
0.0599398
0.0597097
-0.000800908
-0.000936909
-0.00120396
-0.00160482
-0.00213099
-0.00276908
-0.00347914
-0.00418372
-0.00462424
-0.00446221
-0.00339205
-0.000966719
0.00352322
0.0186449
0.0336889
0.0593383
0.0947952
0.145575
0.207635
0.262293
0.28739
0.271714
0.229668
0.184245
0.144636
0.113554
0.0958724
0.0768235
0.070734
0.0665982
0.0635878
0.0612603
0.0593624
0.0578197
0.0566376
0.0557606
0.0551191
0.0546702
0.0543846
0.0542339
-0.00537496
-0.00564337
-0.0062199
-0.00710358
-0.0083197
-0.00989267
-0.0118392
-0.0141319
-0.0166433
-0.0192906
-0.0219265
-0.0243368
-0.0265812
-0.0163516
-0.00936078
0.0136783
0.0504536
0.114455
0.217378
0.34036
0.402945
0.354314
0.254186
0.172754
0.116487
0.0809915
0.0686639
0.0543881
0.0526223
0.0514339
0.0505964
0.0500303
0.0495935
0.0492073
0.0489172
0.0487294
0.0486118
0.0485303
0.0484838
0.0484664
-0.00941874
-0.00986806
-0.010746
-0.0121064
-0.013993
-0.0164846
-0.0197061
-0.023717
-0.0285788
-0.0345691
-0.0419457
-0.0508904
-0.0619647
-0.0635836
-0.0729216
-0.0734278
-0.0629378
-0.0314053
0.0892488
0.370004
0.598987
0.398443
0.168535
0.0703883
0.0364895
0.0252557
0.0290249
0.0264933
0.0307975
0.0336912
0.0359107
0.0376624
0.0389934
0.0399752
0.0407518
0.041382
0.0418741
0.0422331
0.0424564
0.0425565
-0.0127836
-0.0133252
-0.0144591
-0.0162291
-0.0187059
-0.0220113
-0.0263642
-0.0319656
-0.0391034
-0.048342
-0.0604576
-0.0765127
-0.0980053
-0.109458
-0.14657
-0.179846
-0.241119
-0.364498
-0.672083
-0.378943
-0.161337
-0.0790383
-0.040699
-0.0161555
-0.00346501
0.00726256
0.0149612
0.0207302
0.0250159
0.0282294
0.0306715
0.0325787
0.0340686
0.0351769
0.0359696
0.0364887
0.0367547
-0.0151955
-0.0158236
-0.0171381
-0.0191758
-0.0220668
-0.0259427
-0.0310599
-0.0377688
-0.0465546
-0.0581479
-0.073626
-0.094658
-0.123051
-0.148254
-0.202297
-0.264999
-0.374796
-0.58703
-0.847331
-0.417427
-0.28937
-0.15959
-0.0919191
-0.0536726
-0.0290427
-0.0133591
-0.00181716
0.00679877
0.0132259
0.0181368
0.0219422
0.0248986
0.0271697
0.0288525
0.0300652
0.0308797
0.0312808
-0.016418
-0.017149
-0.0185508
-0.020719
-0.0237643
-0.0278481
-0.0332043
-0.0402497
-0.0495923
-0.0619591
-0.078487
-0.100732
-0.130675
-0.162732
-0.220059
-0.291075
-0.399913
-0.557458
-0.636831
-0.328867
-0.265074
-0.170041
-0.10885
-0.0735706
-0.0449828
-0.0276946
-0.0144621
-0.00434592
0.00345694
0.00958498
0.0144487
0.0182499
0.0211231
0.023247
0.0247591
0.0257412
0.0262751
-0.0166357
-0.0172488
-0.0186002
-0.0206926
-0.023605
-0.0275129
-0.0325304
-0.0390404
-0.0477127
-0.0590932
-0.0741506
-0.0938153
-0.119418
-0.15159
-0.201448
-0.269335
-0.372378
-0.532257
-0.677859
-0.726881
-0.638972
-0.398039
-0.23977
-0.174984
-0.137451
-0.101888
-0.0764776
-0.0508958
-0.0350658
-0.0221139
-0.0117451
-0.00346873
0.00322914
0.00869258
0.0130059
0.0162427
0.0186361
0.0203174
0.0213951
0.0218808
-0.0157843
-0.0162792
-0.0174485
-0.0192346
-0.0217219
-0.0250066
-0.0290751
-0.0342413
-0.0410186
-0.0496507
-0.060624
-0.0745992
-0.0920918
-0.119974
-0.154685
-0.20676
-0.293825
-0.446685
-0.705421
-0.865017
-0.746805
-0.367411
-0.11905
-0.0915901
-0.109224
-0.0924496
-0.0734887
-0.0504382
-0.036634
-0.0248772
-0.0151832
-0.00713481
-0.000468159
0.00507765
0.00944496
0.0127611
0.0152631
0.017024
0.0180898
0.0184236
-0.0137098
-0.014196
-0.0150814
-0.0164155
-0.0182219
-0.0205015
-0.0232359
-0.026415
-0.0303656
-0.0351937
-0.0409448
-0.0479675
-0.0560986
-0.0638558
-0.0911008
-0.113789
-0.167626
-0.236725
-0.359201
-0.491452
-0.477154
-0.294829
-0.163318
-0.155194
-0.127097
-0.0956723
-0.0649311
-0.0475307
-0.0346616
-0.0238403
-0.0149738
-0.00754567
-0.00132897
0.00374165
0.00773484
0.0108456
0.013188
0.0148198
0.0158333
0.0163125
-0.0105539
-0.0109294
-0.0114465
-0.012202
-0.0131631
-0.0143094
-0.0156518
-0.0168865
-0.0180979
-0.0193029
-0.0201382
-0.0204271
-0.019528
-0.0180013
-0.025987
-0.0243358
-0.0421545
-0.0704882
-0.13343
-0.248247
-0.352304
-0.36499
-0.331038
-0.262398
-0.156726
-0.103023
-0.0612309
-0.0432201
-0.0302527
-0.0199898
-0.0119633
-0.00538164
2.68968e-05
0.00435925
0.0077636
0.0104217
0.0124369
0.0138832
0.0148586
0.0154022
-0.00668719
-0.00677098
-0.00695749
-0.00719235
-0.00740668
-0.00754364
-0.00755489
-0.00722333
-0.00637805
-0.00470889
-0.00179965
0.00292069
0.0106745
0.018643
0.0229099
0.0392482
0.0402148
0.0203162
-0.0849237
-0.275789
-0.433452
-0.472731
-0.400295
-0.266926
-0.145349
-0.0926924
-0.0514222
-0.034258
-0.0222784
-0.0133799
-0.00661604
-0.00122308
0.00311528
0.00655755
0.0092484
0.0113594
0.0129808
0.0141739
0.0149939
0.0154263
-0.00260319
-0.00252331
-0.00243387
-0.00226404
-0.00194365
-0.00138955
-0.000458844
0.00100836
0.00328932
0.00674678
0.0117726
0.0189634
0.0299254
0.041656
0.0495853
0.0677686
0.0697975
0.0317877
-0.0752288
-0.241834
-0.357563
-0.35674
-0.272831
-0.174087
-0.0969967
-0.0634276
-0.0308699
-0.0187724
-0.0101936
-0.00390655
0.000838843
0.00458855
0.00757781
0.00995499
0.0118393
0.0133381
0.014491
0.0153341
0.0158964
0.0161815
0.00124426
0.00138699
0.00168237
0.00213039
0.00277538
0.00371346
0.00504803
0.00696097
0.00970411
0.0135697
0.0187653
0.0252794
0.034442
0.0437647
0.0513126
0.0569329
0.046518
0.0027803
-0.0698632
-0.147101
-0.186486
-0.173631
-0.131767
-0.0915079
-0.0511118
-0.0302482
-0.00778883
-0.000842777
0.00391182
0.00729883
0.00957801
0.0113622
0.0128051
0.0140289
0.0150612
0.0159059
0.0165652
0.0170355
0.017329
0.0174779
0.00487381
0.00504085
0.00539783
0.00595077
0.00671832
0.00775915
0.00912704
0.0108899
0.0131852
0.0161284
0.0197411
0.0238284
0.0280356
0.0326922
0.0191931
0.0106251
-0.0133287
-0.0631367
-0.115329
-0.134615
-0.126242
-0.0998048
-0.0668713
-0.0382217
-0.0177952
0.00434569
0.0119171
0.0156105
0.0174315
0.017993
0.0181011
0.0180875
0.0180831
0.0181737
0.0183551
0.0185764
0.0187933
0.0189666
0.0190669
0.0190889
0.00827133
0.00843752
0.00878293
0.00932497
0.0100607
0.0110047
0.0121889
0.0135792
0.015122
0.0166807
0.0179008
0.0190979
0.0165678
0.0107913
-0.00463878
-0.0646051
-0.120842
-0.174593
-0.221536
-0.217277
-0.169698
-0.109543
-0.0534206
-0.0139689
0.00871793
0.0228788
0.0265481
0.0284886
0.0281563
0.026609
0.0251381
0.0237655
0.0226606
0.0218413
0.0213239
0.020998
0.0208137
0.0207299
0.0207004
0.0206783
0.0113767
0.0115217
0.0118453
0.0123425
0.0130001
0.0137989
0.0147347
0.0157453
0.0166772
0.0172172
0.0166979
0.014767
0.00831587
-0.00553797
-0.0309221
-0.0849441
-0.147073
-0.217049
-0.283223
-0.295413
-0.230818
-0.15566
-0.079994
-0.0222773
0.0130149
0.0314095
0.0375312
0.037587
0.0355153
0.0327258
0.0301286
0.0278575
0.0261036
0.0247488
0.0237901
0.023063
0.0225667
0.022258
0.0220987
0.0220942
0.0141711
0.0143099
0.0146143
0.0150767
0.015684
0.0164028
0.0171833
0.0179355
0.0184895
0.0185287
0.0173156
0.0141116
0.0070974
-0.00801109
-0.035046
-0.0785181
-0.133083
-0.191438
-0.242739
-0.251584
-0.202963
-0.140412
-0.077613
-0.0260455
0.00867216
0.031397
0.0423637
0.0435321
0.040134
0.0365833
0.0332861
0.0305731
0.0285023
0.0269086
0.0256898
0.0247743
0.0241387
0.0237193
0.0234798
0.0234283
0.0165495
0.0167116
0.0170533
0.0175414
0.0181604
0.018874
0.0196196
0.0203037
0.0208201
0.0209601
0.0202594
0.0178564
0.0130568
0.00291807
-0.0152509
-0.0451981
-0.0840973
-0.123889
-0.155273
-0.1652
-0.146462
-0.112356
-0.0700035
-0.0276911
0.00543399
0.0271443
0.0395601
0.0432017
0.0411197
0.037817
0.0346021
0.031991
0.0299235
0.0282816
0.027002
0.0260491
0.0253733
0.0249195
0.0246432
0.0245014
0.0185382
0.0187562
0.0191278
0.0196369
0.0202716
0.0210145
0.0218294
0.0226543
0.0234254
0.0240453
0.024176
0.0234096
0.0211868
0.0167343
0.00718875
-0.0115255
-0.0380759
-0.0676704
-0.0914439
-0.10701
-0.110972
-0.0982393
-0.0708645
-0.0371073
-0.00644696
0.0154128
0.0288682
0.0353058
0.0364941
0.0352236
0.0334428
0.0316511
0.030024
0.0286391
0.0275303
0.0266763
0.0260386
0.0255801
0.0252813
0.0251315
0.0202467
0.0204868
0.0208253
0.0213114
0.0219514
0.0227489
0.0236984
0.024772
0.0259429
0.0270761
0.0279172
0.0280069
0.0266503
0.0228466
0.0168052
0.00551356
-0.0146516
-0.0409278
-0.0689932
-0.0912918
-0.101725
-0.0993615
-0.0810425
-0.0552094
-0.0291326
-0.00690007
0.0106845
0.0227034
0.0281153
0.0298983
0.0301729
0.0296548
0.0288715
0.0280728
0.0273431
0.0267162
0.026214
0.0258406
0.0255938
0.0254617
0.0215799
0.0217107
0.0220486
0.0225625
0.0232531
0.0241277
0.0251994
0.0264732
0.0279312
0.0294031
0.0306802
0.0312516
0.0301948
0.0259962
0.0172568
0.00316193
-0.0190366
-0.0484911
-0.0831593
-0.113957
-0.129673
-0.130616
-0.116187
-0.0911887
-0.060189
-0.0306608
-0.00591117
0.0111586
0.0199881
0.0244911
0.0264797
0.0271241
0.0272771
0.0271367
0.0268364
0.026492
0.0261776
0.0259141
0.0257164
0.0255994
0.0225792
0.0226201
0.0229268
0.0234391
0.0241526
0.0250609
0.0261743
0.0275034
0.0290218
0.0305972
0.0318769
0.0336529
0.0325754
0.0279667
0.0169136
-0.0025817
-0.0304566
-0.0653703
-0.109281
-0.148593
-0.173332
-0.173867
-0.151189
-0.121543
-0.0806687
-0.044392
-0.01533
0.0034795
0.0145178
0.0204843
0.0236209
0.0251912
0.0259694
0.0262017
0.0262331
0.0261335
0.0259816
0.0258281
0.0256966
0.0255926
0.0233296
0.0234267
0.023685
0.0241194
0.0247545
0.0255867
0.026617
0.027854
0.0292958
0.0309213
0.0323104
0.0336389
0.0319433
0.0257252
0.0142779
-0.00446852
-0.031203
-0.0656404
-0.108985
-0.147397
-0.175489
-0.171644
-0.146615
-0.115172
-0.0768971
-0.0440697
-0.017525
0.000575905
0.0121551
0.0186134
0.0221621
0.0240868
0.0251043
0.0255638
0.0257431
0.0257763
0.0257297
0.0256604
0.0255931
0.0255269
0.023693
0.0238598
0.0241218
0.0245063
0.0250456
0.0257529
0.0266337
0.0276853
0.0289138
0.0303162
0.031436
0.0317652
0.0289967
0.021745
0.00946139
-0.00823644
-0.0316278
-0.0608109
-0.0914974
-0.11632
-0.134182
-0.128609
-0.109284
-0.0831883
-0.054618
-0.0301974
-0.00951872
0.00476558
0.0139424
0.0192298
0.0222732
0.0239649
0.0248786
0.0253451
0.0255539
0.025615
0.0255902
0.0255315
0.0254731
0.0254446
0.0236384
0.0237756
0.0240115
0.0243545
0.0248086
0.0253797
0.0260692
0.0268539
0.0276625
0.0283678
0.0286435
0.027509
0.0235276
0.0151923
0.00178615
-0.0159761
-0.0369252
-0.0600469
-0.0795363
-0.0901284
-0.0916275
-0.084519
-0.0703849
-0.0501027
-0.029955
-0.0116649
0.00307094
0.0127035
0.0183124
0.0215212
0.0233903
0.024486
0.025099
0.0254279
0.0255668
0.0255926
0.0255587
0.0255
0.0254473
0.0254096
0.0233376
0.0234054
0.0235578
0.0237989
0.0241176
0.0244911
0.0248877
0.0252414
0.0253948
0.0250307
0.0237767
0.0205608
0.0143495
0.00454838
-0.00885895
-0.0253475
-0.0433574
-0.0614464
-0.0746059
-0.0779299
-0.0724703
-0.0610463
-0.0455937
-0.0270251
-0.0100441
0.00398796
0.0134908
0.0192036
0.0222392
0.0239333
0.0248748
0.0253304
0.0255389
0.0256097
0.0255965
0.0255497
0.0254958
0.0254422
0.0253979
0.0253375
0.0229409
0.0229586
0.023058
0.0231971
0.0233492
0.0234696
0.0234948
0.0233167
0.0227569
0.021374
0.0184742
0.0129626
0.00351111
-0.00939168
-0.024962
-0.0424308
-0.0587133
-0.0736335
-0.0835771
-0.0840366
-0.0767218
-0.0601724
-0.0394756
-0.0187936
-0.00168929
0.0107746
0.018244
0.0227815
0.0251753
0.026162
0.0264635
0.026301
0.0260429
0.025793
0.0255786
0.0254055
0.0252686
0.0251674
0.0250995
0.0251029
0.0225143
0.022566
0.0226151
0.0226522
0.0226348
0.0225233
0.0222374
0.0216246
0.020474
0.0183517
0.0144284
0.0076262
-0.00383843
-0.0202666
-0.041122
-0.0635171
-0.0834634
-0.0983368
-0.10906
-0.10943
-0.0962836
-0.0730935
-0.0465184
-0.0233131
-0.00409696
0.0100825
0.0198389
0.0252645
0.0275046
0.0278968
0.0274483
0.0268774
0.0262948
0.0258051
0.0254284
0.0251393
0.0249258
0.024795
0.0247413
0.0247833
0.022043
0.0221237
0.0221301
0.0220953
0.0219751
0.0217437
0.0212882
0.0204603
0.018979
0.0164456
0.0121287
0.00488708
-0.00656086
-0.02313
-0.0447753
-0.0691296
-0.0931085
-0.110648
-0.124748
-0.126501
-0.107198
-0.0808166
-0.0503747
-0.0260025
-0.00553422
0.00944165
0.0194701
0.0249152
0.0275044
0.027969
0.0273336
0.0267273
0.0260696
0.0255319
0.0251249
0.0248134
0.0245972
0.0244737
0.0244221
0.0244274
0.0215328
0.0215691
0.021567
0.0215242
0.0213987
0.0211582
0.0207104
0.0199298
0.0185561
0.0162447
0.012278
0.00581875
-0.00409255
-0.0177344
-0.0349407
-0.0552244
-0.07747
-0.0948073
-0.10838
-0.111212
-0.0948657
-0.0729369
-0.0479481
-0.025535
-0.00696456
0.00685691
0.0162712
0.0221481
0.02541
0.0265379
0.0263132
0.0258761
0.0253513
0.0249233
0.0245893
0.0243333
0.0241475
0.0240259
0.0239446
0.0238902
0.0211331
0.0211244
0.0211268
0.0211097
0.0210324
0.0208541
0.0205219
0.0199501
0.0189763
0.0173441
0.014553
0.00999671
0.00277247
-0.00747882
-0.0202079
-0.035159
-0.0514615
-0.0659101
-0.0760011
-0.0797005
-0.0744122
-0.0629186
-0.046577
-0.0285477
-0.0126948
0.00030496
0.0104892
0.0177044
0.0219373
0.0238768
0.0244222
0.0243593
0.0241297
0.0238969
0.0236872
0.0235138
0.0233778
0.0232726
0.0231903
0.0231248
0.0208994
0.0209096
0.0209068
0.0208914
0.0208493
0.0207564
0.0205774
0.0202591
0.019721
0.0188536
0.0174068
0.0149472
0.010531
0.00343055
-0.00600985
-0.0174751
-0.0298976
-0.0424104
-0.0519593
-0.0584018
-0.060889
-0.0569616
-0.0466074
-0.0328961
-0.0194791
-0.00722625
0.00328101
0.0113412
0.016666
0.0197804
0.0213825
0.0220784
0.0223773
0.0224502
0.0224262
0.0223735
0.0223227
0.0222849
0.0222664
0.0222542
0.0206177
0.0206385
0.0206539
0.0206673
0.0206818
0.0206977
0.0207016
0.0206733
0.0205787
0.0203298
0.0197347
0.018589
0.0163607
0.0120492
0.0046962
-0.00566619
-0.018275
-0.0319049
-0.0442215
-0.0532456
-0.0576797
-0.0577364
-0.050751
-0.0398568
-0.0280715
-0.0163911
-0.00575401
0.00305987
0.0099027
0.0148121
0.0178353
0.0194756
0.0203811
0.0208431
0.0210749
0.0211893
0.02124
0.0212673
0.0212935
0.0213361
0.0202171
0.0201817
0.0202091
0.0202692
0.0203695
0.0205142
0.0207023
0.0209575
0.0212808
0.0215682
0.0216481
0.0211042
0.0192285
0.0153646
0.00825391
-0.0021452
-0.0157405
-0.0315588
-0.0472242
-0.060894
-0.0683488
-0.0693467
-0.064313
-0.0546308
-0.0430905
-0.0301674
-0.0170312
-0.0053327
0.00399635
0.0106859
0.0147871
0.0171515
0.0185622
0.019383
0.0198789
0.0201656
0.0203168
0.0203922
0.0204291
0.0204681
0.0198075
0.0197581
0.019771
0.0198405
0.0199786
0.0201914
0.0204811
0.0208679
0.0214513
0.021955
0.0224977
0.022212
0.0201749
0.0159859
0.00841679
-0.00237832
-0.016691
-0.033427
-0.0530336
-0.0712164
-0.0843095
-0.0859291
-0.0790264
-0.0691465
-0.0550843
-0.0396095
-0.0236611
-0.00970055
0.000878891
0.00816827
0.012728
0.0155083
0.0171945
0.0182589
0.0188893
0.019308
0.0195529
0.0196895
0.0197466
0.0197054
0.0193332
0.0193328
0.0193654
0.0194373
0.019568
0.019767
0.0200472
0.0204188
0.0208836
0.0212615
0.0216166
0.0209071
0.018813
0.0149587
0.00788457
-0.00252532
-0.0163155
-0.0327209
-0.0520396
-0.0700226
-0.0849971
-0.0858345
-0.0775747
-0.0668426
-0.051847
-0.0360213
-0.0210209
-0.00859011
0.000819233
0.00753824
0.0120083
0.0147734
0.0164249
0.0174811
0.0181462
0.018569
0.0188315
0.0189659
0.0190256
0.018977
0.0186788
0.0187233
0.0187767
0.0188435
0.0189358
0.0190652
0.0192367
0.0194454
0.0196956
0.019755
0.0193658
0.0179679
0.0151181
0.010493
0.00357975
-0.00605292
-0.0181835
-0.0321537
-0.0464491
-0.0583579
-0.0673677
-0.066552
-0.0593767
-0.0494521
-0.03662
-0.0239579
-0.0125915
-0.00326742
0.00403144
0.00929948
0.0128123
0.0149844
0.0162997
0.0171215
0.0176386
0.0179598
0.0181492
0.0182438
0.0182883
0.0182998
0.0178836
0.0179076
0.0179265
0.0179458
0.0179662
0.0179857
0.0179933
0.0179378
0.0177786
0.0173068
0.016082
0.0136916
0.00963598
0.00375494
-0.0037807
-0.0128152
-0.0228918
-0.033567
-0.0425853
-0.0482626
-0.0488757
-0.0453119
-0.038675
-0.0299667
-0.0204609
-0.0111768
-0.00312175
0.00361985
0.00883549
0.0123308
0.0144757
0.0157579
0.0165526
0.0170644
0.0173852
0.0175843
0.0177005
0.0177617
0.0177969
0.0178295
0.0170351
0.0170024
0.0169573
0.0169072
0.0168409
0.0167306
0.0165322
0.016138
0.0154094
0.0141461
0.0119459
0.00844998
0.00353161
-0.00292052
-0.0107708
-0.0195211
-0.0285285
-0.0368535
-0.0422201
-0.0429834
-0.0404458
-0.0348341
-0.0268412
-0.0176347
-0.00858279
-0.000593628
0.00570739
0.0103993
0.0134452
0.0151593
0.0161103
0.0166377
0.0169638
0.0171744
0.0173063
0.0173893
0.017446
0.0174838
0.0175056
0.017497
0.0161906
0.0161214
0.0160623
0.0159792
0.0158397
0.015592
0.0151772
0.0144664
0.0132265
0.0111246
0.00769903
0.00275433
-0.00358751
-0.0112911
-0.0200347
-0.0290913
-0.0375725
-0.0445407
-0.0479217
-0.0462863
-0.0419372
-0.0337755
-0.0233196
-0.0122684
-0.00212514
0.00590341
0.0115879
0.0149452
0.0165605
0.0172249
0.0174445
0.0174208
0.0173424
0.0172497
0.0171848
0.0171368
0.0171073
0.0170863
0.0170725
0.0170781
0.015459
0.0154397
0.0153802
0.0152615
0.0150429
0.0146689
0.0140591
0.0131132
0.0115273
0.00894103
0.00472142
-0.00154551
-0.00995113
-0.0201524
-0.0309402
-0.0412444
-0.0504014
-0.0569052
-0.060444
-0.0578108
-0.0484315
-0.036439
-0.0227794
-0.0102485
0.000297869
0.0082319
0.0136536
0.0166605
0.0182797
0.0185956
0.0182568
0.0178088
0.0173834
0.0170718
0.0168509
0.0166972
0.0166002
0.0165524
0.0165443
0.0165879
0.0148366
0.0148868
0.0148265
0.0146813
0.0144109
0.0139795
0.0132901
0.0122351
0.0104866
0.00780678
0.00346117
-0.00289374
-0.0115357
-0.0225167
-0.0347278
-0.0463224
-0.0566386
-0.0635083
-0.0677409
-0.0647103
-0.051819
-0.0372379
-0.0220723
-0.00921159
0.00108398
0.00873619
0.0139493
0.0167351
0.0181875
0.0184729
0.0180278
0.0175302
0.0170545
0.0166776
0.0164124
0.0162299
0.0161213
0.0160738
0.0160697
0.0161031
0.0142344
0.0142687
0.0142201
0.0140994
0.0138721
0.0135025
0.0129136
0.0119765
0.0104549
0.00807459
0.00438789
-0.000962762
-0.00789823
-0.0169345
-0.0274213
-0.038114
-0.0484648
-0.0554398
-0.0594991
-0.0573939
-0.0470751
-0.0348498
-0.0218653
-0.010404
-0.00087556
0.0064082
0.0114503
0.0144135
0.0160505
0.0167455
0.0167794
0.0165944
0.0162873
0.0160304
0.0158363
0.0157021
0.0156144
0.0155637
0.0155337
0.0155205
0.0137321
0.0137082
0.0136748
0.0136072
0.0134711
0.0132345
0.0128481
0.0122246
0.0111924
0.00952368
0.00695924
0.00313324
-0.0018637
-0.00816693
-0.0156765
-0.0237622
-0.0317287
-0.0380156
-0.04214
-0.0427276
-0.0391461
-0.0321264
-0.0235088
-0.0147265
-0.00669784
0.000157863
0.0055578
0.00949233
0.0121961
0.0138267
0.0146457
0.0149488
0.0149806
0.014955
0.0149193
0.0148888
0.0148649
0.0148424
0.0148157
0.0147833
0.013432
0.0134121
0.0133877
0.013349
0.01328
0.0131667
0.0129792
0.0126836
0.0121978
0.0113762
0.00995503
0.00764067
0.00430739
6.51189e-05
-0.00513531
-0.0111798
-0.017626
-0.0237416
-0.0289865
-0.0325277
-0.0331979
-0.0310076
-0.0263933
-0.0200288
-0.013173
-0.0066466
-0.000880528
0.0039092
0.00758756
0.0101697
0.0118106
0.0127292
0.013234
0.0135336
0.0137017
0.0138024
0.0138704
0.0139214
0.0139563
0.0139667
0.0131772
0.013194
0.0131944
0.0131931
0.0131896
0.0131882
0.0131776
0.0131568
0.0130834
0.0129162
0.0124731
0.0115817
0.0097559
0.00670004
0.00230211
-0.00342339
-0.0103574
-0.0174901
-0.0240999
-0.0291509
-0.0317753
-0.03313
-0.031312
-0.0265073
-0.0201659
-0.0135771
-0.00724012
-0.00168928
0.00277947
0.00626754
0.00881213
0.0104813
0.0115119
0.012144
0.0125103
0.0127345
0.0128791
0.0129838
0.0130657
0.0131292
0.0128149
0.0128009
0.0128248
0.0128706
0.0129433
0.0130505
0.0132142
0.0134244
0.013679
0.0139694
0.0141736
0.013945
0.0128721
0.0106499
0.00671658
0.00107651
-0.00630544
-0.0150086
-0.023827
-0.0311791
-0.0369106
-0.0403595
-0.0397251
-0.0357173
-0.0296256
-0.0224861
-0.0150067
-0.00799764
-0.00194538
0.00288688
0.00638974
0.00870404
0.0101432
0.0110227
0.011559
0.0118952
0.0120958
0.0122155
0.0122912
0.012362
0.0124063
0.0123668
0.0123728
0.0124205
0.0125252
0.0126952
0.0129499
0.0132961
0.0137661
0.0142462
0.014857
0.0148334
0.0139358
0.0123042
0.00895342
0.00382922
-0.00326819
-0.0129017
-0.0237566
-0.033981
-0.0433905
-0.0485403
-0.0481571
-0.0438457
-0.0374614
-0.0295129
-0.0205619
-0.0121376
-0.00471593
0.000905811
0.00486611
0.00752379
0.00916747
0.0102017
0.0108524
0.0112699
0.0115335
0.0116806
0.0117503
0.0117405
0.0119764
0.0119575
0.0119668
0.01201
0.012106
0.012263
0.0125012
0.0128165
0.0132317
0.0135996
0.0140176
0.0140007
0.013226
0.0116649
0.00862267
0.00379751
-0.002839
-0.0118672
-0.0226368
-0.033392
-0.0427949
-0.0480212
-0.0473822
-0.0423921
-0.0358527
-0.0276344
-0.0190313
-0.0108979
-0.00417532
0.00085324
0.0045879
0.00712652
0.0086813
0.00971244
0.0103744
0.0107932
0.0110537
0.0111951
0.0112548
0.0112033
0.0114371
0.0114558
0.0114828
0.0115191
0.0115753
0.0116583
0.0117745
0.0119187
0.0120665
0.0120671
0.0118388
0.0111356
0.00978817
0.00756763
0.00413491
-0.000626482
-0.00668563
-0.0135558
-0.0214305
-0.0291215
-0.0345616
-0.0372293
-0.035673
-0.0311557
-0.0253188
-0.0185248
-0.0117497
-0.0056852
-0.000886745
0.00290145
0.00574528
0.00761766
0.00883488
0.00961493
0.0100987
0.0103973
0.0105745
0.0106669
0.0107067
0.0106971
0.0107804
0.0107977
0.0108003
0.010788
0.0107613
0.0107196
0.0106448
0.0105111
0.0102579
0.00971435
0.00867666
0.00696433
0.00454153
0.00133943
-0.00260873
-0.00727014
-0.0124641
-0.0174795
-0.0218183
-0.024992
-0.0263031
-0.0250717
-0.0219266
-0.0178589
-0.0130965
-0.00822594
-0.00369752
0.000189091
0.00331543
0.00583962
0.00758238
0.00865584
0.00933833
0.00975833
0.0100145
0.0101648
0.0102479
0.0102897
0.0103128
0.0103412
0.0100785
0.0100471
0.00998443
0.00989762
0.00977946
0.00960706
0.00933092
0.00888671
0.00817952
0.00704004
0.00529432
0.00282827
-0.00041342
-0.0044226
-0.00901826
-0.0138621
-0.0186261
-0.0223854
-0.0238348
-0.0232173
-0.021779
-0.0185063
-0.014291
-0.00963656
-0.00486764
-0.000601224
0.00283134
0.00543415
0.00734413
0.00863097
0.00933512
0.00970954
0.00989778
0.00999949
0.0100654
0.0101024
0.0101237
0.0101372
0.010147
0.0101457
0.00938246
0.00930945
0.00922084
0.00910235
0.00893001
0.00866064
0.00822919
0.0075235
0.00637187
0.00462034
0.00211697
-0.00121106
-0.00545221
-0.010512
-0.0160305
-0.0213379
-0.025922
-0.0286754
-0.0285699
-0.025471
-0.0216215
-0.0166322
-0.0110043
-0.00528843
7.40385e-05
0.00435468
0.00744755
0.00935218
0.0103811
0.010656
0.0106001
0.0104735
0.0103229
0.0101888
0.01009
0.0100215
0.00997614
0.00994284
0.00992166
0.00990492
0.00879211
0.00874104
0.00866775
0.00854219
0.00832969
0.00798298
0.00744545
0.00655978
0.0051264
0.00287779
-0.000372386
-0.00480576
-0.0104254
-0.0167765
-0.0233223
-0.0293662
-0.0338182
-0.0364308
-0.0356681
-0.0304664
-0.0235329
-0.0162435
-0.00846419
-0.00138243
0.00402896
0.0078739
0.0102872
0.0114578
0.0118972
0.0116842
0.01126
0.0108072
0.0104034
0.0100953
0.00987216
0.00971731
0.00962051
0.00956141
0.00953718
0.00955925
0.00834081
0.00836614
0.00830692
0.00816693
0.00791817
0.00752262
0.00693453
0.00597465
0.00446977
0.00205669
-0.00139131
-0.00608686
-0.0122399
-0.019184
-0.0261719
-0.0325139
-0.0369607
-0.0398817
-0.0390463
-0.032817
-0.024467
-0.0155551
-0.00667715
0.000831695
0.00593279
0.00927608
0.0111106
0.0118632
0.0120068
0.0116077
0.0110902
0.0105706
0.0100935
0.00974158
0.0094833
0.00931027
0.0092074
0.00916437
0.00915982
0.00919115
0.00794532
0.00798609
0.0079416
0.00782721
0.00761266
0.0072657
0.00672457
0.00588358
0.00458803
0.00257817
-0.000305485
-0.00415662
-0.00913927
-0.0150456
-0.0211914
-0.0270374
-0.0313824
-0.0341851
-0.0338876
-0.0293367
-0.0226994
-0.0150084
-0.00758894
-0.0013867
0.0032865
0.00663518
0.00869601
0.00981629
0.010248
0.0102266
0.0100428
0.00974792
0.0094436
0.00920207
0.00902062
0.00889822
0.00882266
0.00878545
0.00877104
0.00877644
0.00759172
0.00758772
0.00756092
0.00750216
0.0073844
0.00717767
0.00683988
0.00629075
0.00541902
0.00411803
0.002196
-0.000380907
-0.00363453
-0.00759036
-0.0119247
-0.0162304
-0.019882
-0.0225942
-0.023947
-0.0227495
-0.0197867
-0.0154966
-0.0110022
-0.00666294
-0.00265268
0.000665149
0.00328893
0.00526683
0.00664666
0.00757794
0.00809842
0.00830356
0.00835525
0.00834896
0.0083262
0.00830931
0.00829591
0.00828286
0.00826514
0.00824553
0.00738327
0.00736514
0.00735392
0.0073385
0.00730109
0.00723215
0.00711297
0.00690612
0.00653252
0.00591273
0.00490952
0.00346864
0.00163563
-0.000697996
-0.00354165
-0.00680971
-0.0101284
-0.0132951
-0.0159473
-0.0173583
-0.0176052
-0.0169978
-0.0153724
-0.0124741
-0.00899049
-0.00554669
-0.00235186
0.000392761
0.00265065
0.00440414
0.00562406
0.00640388
0.00687487
0.00716399
0.00734802
0.00746997
0.00755255
0.00760483
0.00763152
0.00763405
0.00727184
0.00728446
0.00729335
0.00730746
0.00732581
0.00735731
0.00740213
0.00745069
0.00747538
0.00741832
0.00722789
0.00672178
0.00572739
0.00415931
0.00186652
-0.00123749
-0.00479923
-0.00845088
-0.0118099
-0.0149464
-0.0175425
-0.0197029
-0.0202124
-0.018493
-0.0154053
-0.0115605
-0.00759979
-0.00395605
-0.000878391
0.00149972
0.0032885
0.00457267
0.00543814
0.00600225
0.00636311
0.00659945
0.00676055
0.00687768
0.00696258
0.00701415
0.00708379
0.00709422
0.00712441
0.00717434
0.00724893
0.00736467
0.00752728
0.0077381
0.00802154
0.00833934
0.00865429
0.00881754
0.00850436
0.00758965
0.00584192
0.00307873
-0.000673458
-0.005188
-0.0100502
-0.0152471
-0.0201077
-0.0243441
-0.0260457
-0.0252063
-0.0222475
-0.0179692
-0.0131745
-0.0084614
-0.00431792
-0.00101881
0.0014408
0.00321343
0.00441782
0.0051764
0.00565565
0.00595958
0.00615405
0.00628331
0.00637342
0.00644404
0.00680907
0.00678818
0.00680603
0.00685783
0.00695609
0.00711105
0.0073364
0.00764413
0.00806106
0.00857504
0.00913202
0.00968096
0.00999513
0.00978177
0.008751
0.00666417
0.0030659
-0.00235282
-0.00878385
-0.0156425
-0.0226923
-0.0282442
-0.0306391
-0.0302385
-0.0270453
-0.0225815
-0.0172433
-0.0117169
-0.00672317
-0.00264652
0.000298349
0.0023984
0.00380348
0.00464371
0.00520445
0.00556268
0.00578352
0.00591385
0.00598318
0.00600502
0.0065196
0.00649238
0.00649334
0.00652482
0.00660159
0.00673198
0.00694362
0.0072265
0.00761139
0.00808813
0.00859595
0.00915636
0.00951754
0.00938002
0.00844436
0.00650572
0.00314204
-0.00198778
-0.00838666
-0.0151931
-0.0218
-0.0269848
-0.0292713
-0.0287616
-0.0254096
-0.0212597
-0.0161575
-0.0110198
-0.00631874
-0.00253289
0.000191852
0.00221495
0.00354045
0.00439406
0.00495265
0.00530855
0.00553751
0.00566207
0.00571543
0.00568379
0.00617714
0.00617495
0.00618114
0.00619704
0.00623372
0.00629706
0.00639826
0.00652695
0.0066801
0.00682196
0.00684887
0.00673288
0.00632253
0.00543736
0.00398263
0.00181304
-0.0010747
-0.00479778
-0.00919946