/*--------------------------------*- C++ -*----------------------------------*\
| =========                 |                                                 |
| \\      /  F ield         | OpenFOAM: The Open Source CFD Toolbox           |
|  \\    /   O peration     | Version:  v2106                                 |
|   \\  /    A nd           | Website:  www.openfoam.com                      |
|    \\/     M anipulation  |                                                 |
\*---------------------------------------------------------------------------*/
FoamFile
{
    version     2.0;
    format      ascii;
    arch        "LSB;label=32;scalar=64";
    class       volVectorField;
    location    "0";
    object      U;
}
// * * * * * * * * * * * * * * * * * * * * * * * * * * * * * * * * * * * * * //

dimensions      [0 1 -1 0 0 0 0];

internalField   nonuniform List<vector> 
11644
(
(0.996828 -0.00024956 2.37043e-23)
(0.996711 -0.000666447 6.53694e-23)
(0.996637 -0.000991062 3.50723e-23)
(0.996617 -0.00132427 0)
(0.996613 -0.00168279 0)
(0.996611 -0.00206628 0)
(0.996608 -0.00247007 0)
(0.996605 -0.00288838 0)
(0.996601 -0.00331195 0)
(0.9966 -0.00372748 0)
(0.996597 -0.00411284 0)
(0.996558 -0.00446267 0)
(0.996583 -0.00472489 0)
(0.996763 -0.0048825 0)
(0.996642 -0.00494059 0)
(0.996639 -0.00485675 0)
(0.996608 -0.0046048 0)
(0.996485 -0.00417791 0)
(0.996559 -0.00369317 0)
(0.996675 -0.00319843 3.36847e-30)
(0.996536 -0.00260852 -3.36584e-30)
(0.996138 -0.00168342 0)
(0.995915 -0.000419088 0)
(0.996167 0.000699214 0)
(0.996498 0.00133938 0)
(0.99658 0.00175503 0)
(0.996742 0.00216052 0)
(0.996624 0.00235656 0)
(0.996568 0.00247087 0)
(0.996581 0.00247661 0)
(0.996595 0.0023968 0)
(0.996599 0.00225082 0)
(0.996598 0.00205641 0)
(0.996599 0.00182837 0)
(0.9966 0.00157989 0)
(0.996603 0.00132445 0)
(0.99661 0.00106471 0)
(0.996627 0.000810049 0)
(0.996688 0.000555817 0)
(0.996792 0.000213003 4.59602e-24)
(0.997681 -0.000500226 3.0448e-23)
(0.99761 -0.00152145 2.82046e-23)
(0.997566 -0.00257614 1.51478e-23)
(0.997579 -0.00364365 0)
(0.997628 -0.00474557 0)
(0.997692 -0.00590106 0)
(0.99776 -0.00711721 0)
(0.99782 -0.00838436 0)
(0.997859 -0.00968334 0)
(0.997866 -0.0109766 0)
(0.997793 -0.0122261 0)
(0.997715 -0.0133265 0)
(0.997499 -0.0142414 0)
(0.996939 -0.0149135 0)
(0.996656 -0.0150871 0)
(0.996055 -0.0148384 7.47444e-25)
(0.995423 -0.0140787 -7.09101e-24)
(0.995186 -0.0129892 -6.01026e-23)
(0.994872 -0.011455 -6.03209e-23)
(0.994356 -0.0092457 -3.05937e-22)
(0.993804 -0.00639624 4.9647e-22)
(0.993543 -0.00334238 -1.54717e-22)
(0.993765 -0.000611257 8.46246e-23)
(0.994302 0.00170889 7.40077e-24)
(0.994903 0.00377778 -1.70059e-24)
(0.995439 0.0054463 0)
(0.995652 0.00655709 0)
(0.996214 0.00729137 0)
(0.99662 0.00759002 0)
(0.996861 0.00755393 0)
(0.997022 0.00726634 0)
(0.997158 0.00677931 0)
(0.997248 0.00615448 0)
(0.997304 0.00543692 0)
(0.997333 0.00466078 0)
(0.997346 0.0038507 0)
(0.997355 0.00302396 0)
(0.997378 0.00217987 0)
(0.997441 0.00131289 0)
(0.997522 0.000436337 0)
(0.999363 -0.000763142 0)
(0.999349 -0.00234987 0)
(0.999391 -0.00401304 0)
(0.9995 -0.00574823 0)
(0.999661 -0.00755927 2.78137e-23)
(0.999855 -0.00946702 0)
(1.00006 -0.0114815 0)
(1.00025 -0.0135976 0)
(1.00039 -0.0157892 0)
(1.00041 -0.0180222 0)
(1.00032 -0.0201754 0)
(0.999915 -0.0222159 0)
(0.999208 -0.0239265 2.5666e-24)
(0.998507 -0.0250688 2.47257e-23)
(0.99693 -0.0256975 2.3937e-22)
(0.995457 -0.0254835 -2.1387e-22)
(0.994133 -0.0244831 -4.49279e-22)
(0.992419 -0.0223442 6.06786e-22)
(0.990629 -0.0188719 -6.16673e-22)
(0.989067 -0.0142825 8.93594e-23)
(0.988239 -0.00917729 3.28055e-22)
(0.988323 -0.00411205 -3.13474e-23)
(0.989234 0.000397508 -4.8101e-22)
(0.990476 0.00431428 3.45024e-22)
(0.991826 0.00774998 4.19974e-22)
(0.993209 0.0104283 -2.53871e-22)
(0.994858 0.0123104 -1.19695e-23)
(0.995795 0.0132836 -3.64497e-24)
(0.996635 0.0136081 0)
(0.997396 0.0133588 0)
(0.997988 0.0126785 0)
(0.998358 0.0117122 0)
(0.998604 0.010541 0)
(0.99875 0.0092416 0)
(0.998825 0.00786772 0)
(0.998858 0.00645321 0)
(0.998873 0.00502018 0)
(0.998896 0.0035709 0)
(0.998946 0.00211255 0)
(0.999009 0.000691279 0)
(1.00183 -0.00102734 0)
(1.00187 -0.0031157 0)
(1.00202 -0.00530851 0)
(1.00226 -0.00760001 0)
(1.0026 -0.0100218 0)
(1.003 -0.012604 0)
(1.00342 -0.0153626 0)
(1.00383 -0.0183001 0)
(1.00413 -0.0214047 0)
(1.00428 -0.0245974 0)
(1.00403 -0.0278683 -4.22171e-25)
(1.00342 -0.0309876 5.27477e-23)
(1.00225 -0.0337705 -1.10304e-22)
(1.00003 -0.0360895 -4.64514e-22)
(0.997894 -0.0370789 -1.15957e-22)
(0.994757 -0.0369412 1.0003e-21)
(0.99094 -0.0350825 4.77195e-23)
(0.986863 -0.0312445 -2.0236e-21)
(0.983293 -0.0254394 1.3361e-21)
(0.980582 -0.018517 5.69281e-22)
(0.979313 -0.0110562 3.11159e-22)
(0.979692 -0.00346501 -1.18389e-21)
(0.981673 0.00353472 1.05779e-21)
(0.984195 0.00945702 -1.08948e-21)
(0.98698 0.0142908 -2.61085e-22)
(0.989974 0.0178353 3.33897e-22)
(0.992444 0.0200562 4.71768e-22)
(0.995339 0.021048 8.51298e-24)
(0.997349 0.0210342 6.06492e-23)
(0.99872 0.0202708 3.59352e-25)
(0.999673 0.0189501 0)
(1.00038 0.0172412 0)
(1.0008 0.015332 0)
(1.00104 0.0133048 0)
(1.00116 0.0112293 0)
(1.0012 0.00914226 0)
(1.0012 0.00706662 0)
(1.00121 0.00500698 0)
(1.00124 0.00297441 0)
(1.00129 0.00097811 0)
(1.00494 -0.00122496 0)
(1.00505 -0.00374252 0)
(1.00533 -0.00635243 0)
(1.00576 -0.00909666 0)
(1.00633 -0.0120339 0)
(1.00701 -0.0151958 0)
(1.00775 -0.0186211 0)
(1.00847 -0.0223348 0)
(1.00907 -0.0263359 0)
(1.00936 -0.0306513 2.86034e-25)
(1.00931 -0.035193 9.34949e-23)
(1.00865 -0.0398261 -2.99612e-22)
(1.00693 -0.0441852 6.16019e-22)
(1.00466 -0.0474374 -2.73631e-21)
(0.999573 -0.0498008 1.98162e-21)
(0.993976 -0.0497172 4.7839e-22)
(0.987425 -0.047333 -4.69099e-22)
(0.979162 -0.0417945 -6.20708e-22)
(0.972567 -0.0332747 2.64586e-21)
(0.967787 -0.022507 -2.43264e-21)
(0.96596 -0.0106838 2.58742e-21)
(0.967319 0.000806669 -4.95019e-21)
(0.971136 0.0109006 2.70894e-21)
(0.975856 0.0188491 3.13185e-22)
(0.980869 0.0248113 -6.06433e-22)
(0.986249 0.0288109 -1.93622e-21)
(0.991605 0.0307342 3.25181e-21)
(0.995183 0.031216 -7.65217e-22)
(0.99844 0.0303923 2.52038e-22)
(1.00098 0.0286035 -1.09018e-22)
(1.00257 0.0262298 2.59489e-25)
(1.00349 0.0235041 0)
(1.00406 0.0205956 0)
(1.00433 0.0176706 0)
(1.00443 0.0147774 0)
(1.00442 0.0119493 0)
(1.00438 0.00919326 0)
(1.00434 0.00650585 0)
(1.00433 0.00385952 0)
(1.00436 0.00128296 0)
(1.00854 -0.00141209 0)
(1.00872 -0.00424447 0)
(1.00916 -0.00717659 0)
(1.00982 -0.0102671 0)
(1.0107 -0.0135803 0)
(1.01174 -0.0171951 0)
(1.01291 -0.0211745 0)
(1.0141 -0.0255771 0)
(1.01518 -0.030482 1.03712e-23)
(1.01612 -0.0359766 -3.67727e-24)
(1.01674 -0.0420484 1.99415e-22)
(1.01642 -0.0485228 -2.99464e-22)
(1.01442 -0.0549323 -1.73342e-22)
(1.00928 -0.0616055 -4.85901e-22)
(1.00272 -0.0647253 -8.48191e-22)
(0.992177 -0.0651056 2.19433e-21)
(0.979623 -0.0627038 -2.99926e-23)
(0.966403 -0.0551245 -1.05372e-21)
(0.955271 -0.0418012 -1.41928e-21)
(0.94804 -0.0255293 3.11984e-21)
(0.945594 -0.00784995 -1.02203e-21)
(0.948602 0.00937749 -6.66092e-22)
(0.955718 0.0242573 1.00831e-21)
(0.964945 0.0348125 -2.51171e-22)
(0.97482 0.0410168 -1.86814e-21)
(0.983288 0.0445977 7.77247e-22)
(0.989871 0.0457522 6.67406e-22)
(0.996808 0.0439982 -8.15499e-22)
(1.00122 0.0414708 7.45896e-22)
(1.00454 0.0382494 7.48745e-23)
(1.0069 0.034446 1.66497e-22)
(1.00813 0.0303717 -2.84792e-23)
(1.00865 0.0262676 0)
(1.00883 0.0222569 0)
(1.00879 0.0184262 0)
(1.00865 0.0147748 0)
(1.00847 0.0112909 0)
(1.00831 0.00795468 0)
(1.00822 0.00472137 0)
(1.00821 0.00155049 0)
(1.01245 -0.00146469 0)
(1.01273 -0.00451113 0)
(1.01335 -0.00765887 0)
(1.01428 -0.0109894 0)
(1.01552 -0.0145808 0)
(1.01703 -0.0185301 0)
(1.01876 -0.0229246 0)
(1.02061 -0.0278903 -3.19703e-24)
(1.02269 -0.0336834 -2.66041e-23)
(1.02488 -0.0405178 4.62758e-23)
(1.02649 -0.0484816 -4.26551e-22)
(1.0267 -0.0574683 5.0521e-22)
(1.02444 -0.0673928 3.65546e-22)
(1.0204 -0.0751502 2.69344e-22)
(1.00837 -0.0844679 -1.39074e-21)
(0.993175 -0.0879121 1.27187e-21)
(0.978484 -0.0789652 1.0286e-21)
(0.960333 -0.0713904 3.5314e-21)
(0.942507 -0.0559346 1.61298e-21)
(0.929782 -0.0333703 4.58716e-21)
(0.925061 -0.00712039 2.67048e-21)
(0.92943 0.0175879 -2.65421e-21)
(0.939748 0.0372485 2.13673e-21)
(0.953514 0.0507424 3.28644e-21)
(0.969183 0.0662205 -8.49286e-22)
(0.983253 0.067293 1.29182e-21)
(0.994984 0.0639636 3.57925e-22)
(1.00105 0.0598177 -1.37289e-22)
(1.00635 0.0543603 -7.11361e-22)
(1.01016 0.0487381 -1.3225e-22)
(1.01289 0.0431271 2.09263e-22)
(1.01441 0.0374997 -8.74765e-23)
(1.01488 0.032027 -4.05366e-24)
(1.01472 0.0268154 0)
(1.01435 0.0219677 0)
(1.0139 0.0174725 0)
(1.01346 0.0132832 0)
(1.0131 0.00931292 0)
(1.01286 0.00553745 0)
(1.01278 0.00183177 0)
(1.01653 -0.00157559 0)
(1.01691 -0.00464636 0)
(1.01772 -0.00785652 0)
(1.01896 -0.0112428 0)
(1.02062 -0.0149398 0)
(1.02268 -0.0190322 0)
(1.02508 -0.0236583 0)
(1.02797 -0.0290617 -1.02958e-23)
(1.03174 -0.0356997 9.16025e-24)
(1.03563 -0.0439417 1.58737e-22)
(1.03881 -0.0538388 9.32501e-25)
(1.04045 -0.0652028 -3.78508e-22)
(1.03987 -0.0773062 -6.96452e-22)
(1.02988 -0.0900314 -3.39421e-22)
(1.02042 -0.0975552 5.77482e-22)
(1.00481 -0.10576 1.73883e-22)
(0.976849 -0.110614 -1.87791e-21)
(0.945272 -0.103596 1.83721e-21)
(0.912406 -0.0838661 -5.67249e-23)
(0.887683 -0.0483972 -2.69165e-21)
(0.878839 -0.00365292 9.22184e-22)
(0.889264 0.0384077 -2.13583e-21)
(0.91146 0.0689059 -2.32676e-21)
(0.938344 0.0852385 -1.06708e-21)
(0.962141 0.0916098 -2.36245e-21)
(0.983159 0.0884866 2.56578e-21)
(0.997127 0.081732 -1.00837e-21)
(1.01054 0.0765135 -4.74944e-22)
(1.01564 0.0675644 5.85766e-23)
(1.01885 0.0590731 -1.65817e-22)
(1.02112 0.0513213 1.38407e-24)
(1.02237 0.0441196 -4.55026e-23)
(1.02275 0.037285 5.31637e-23)
(1.0221 0.0309084 0)
(1.02112 0.025067 0)
(1.02015 0.0197833 0)
(1.0193 0.0149423 0)
(1.01862 0.0104623 0)
(1.01817 0.0061387 0)
(1.01797 0.00206087 0)
(1.0206 -0.00145118 0)
(1.02107 -0.00450849 0)
(1.02209 -0.00765884 0)
(1.02365 -0.0109997 0)
(1.02576 -0.0146339 0)
(1.02842 -0.0186825 0)
(1.03165 -0.0233212 4.57981e-24)
(1.03612 -0.0289843 4.55202e-23)
(1.04204 -0.0362869 -6.9107e-23)
(1.04805 -0.0455024 2.32183e-23)
(1.05357 -0.0567251 5.5348e-24)
(1.0579 -0.0703618 1.78329e-22)
(1.05978 -0.0885048 -6.97115e-23)
(1.04942 -0.104698 1.51528e-22)
(1.04008 -0.119936 4.95316e-22)
(1.0204 -0.139023 -6.85141e-22)
(0.987894 -0.149666 2.6043e-22)
(0.939353 -0.155068 7.7749e-22)
(0.880006 -0.134619 -1.27435e-21)
(0.828257 -0.0822827 4.56525e-22)
(0.807302 -0.00395198 -1.73797e-21)
(0.827717 0.0691558 -3.46122e-21)
(0.873266 0.115933 8.27808e-22)
(0.922165 0.13422 5.81919e-22)
(0.962414 0.132646 9.54251e-23)
(0.993087 0.124885 5.49692e-22)
(1.00941 0.109292 2.40641e-22)
(1.02587 0.0949683 -3.1619e-22)
(1.02952 0.0802286 6.02934e-22)
(1.03104 0.0681449 -4.55483e-23)
(1.03198 0.0578865 -4.22886e-22)
(1.03225 0.0491011 1.18888e-22)
(1.03206 0.0411843 5.81493e-23)
(1.03088 0.0338421 1.6468e-23)
(1.029 0.0271969 0)
(1.02727 0.021268 0)
(1.02582 0.015929 0)
(1.02471 0.0110471 0)
(1.02397 0.00655084 0)
(1.02363 0.00209448 0)
(1.0245 -0.00139152 0)
(1.02507 -0.00425306 0)
(1.02627 -0.00714796 0)
(1.02814 -0.0102792 0)
(1.0307 -0.0136537 0)
(1.03398 -0.0174377 0)
(1.03824 -0.0218262 -1.58539e-23)
(1.0447 -0.0274112 5.95486e-23)
(1.05292 -0.0347735 3.68006e-23)
(1.06147 -0.0440982 -1.52726e-23)
(1.07008 -0.0555692 -2.17532e-22)
(1.07858 -0.070085 2.14742e-22)
(1.08614 -0.0905072 -6.7414e-23)
(1.08151 -0.113074 -1.00389e-22)
(1.07627 -0.138271 -6.42735e-23)
(1.05453 -0.174339 2.2064e-22)
(1.01886 -0.206254 2.82644e-22)
(0.953723 -0.241727 -5.01559e-22)
(0.844677 -0.24905 5.45597e-22)
(0.71436 -0.176173 8.44924e-22)
(0.650458 -0.0125517 2.47128e-22)
(0.709695 0.146519 -1.93266e-21)
(0.825973 0.217328 -6.63761e-23)
(0.920366 0.218172 2.04656e-22)
(0.984514 0.194924 -9.36818e-23)
(1.02355 0.164639 -1.75983e-21)
(1.03653 0.134684 2.49825e-22)
(1.04964 0.110137 -1.7552e-22)
(1.04896 0.08976 2.21346e-22)
(1.04708 0.0740879 -1.59314e-22)
(1.0455 0.0617351 8.21035e-23)
(1.0439 0.0515602 9.45898e-23)
(1.0425 0.0428753 -7.15605e-23)
(1.04063 0.0350532 -1.53009e-24)
(1.03771 0.0279896 0)
(1.03499 0.0217801 0)
(1.03278 0.0162951 0)
(1.03111 0.011286 0)
(1.03001 0.00663081 0)
(1.02948 0.00225488 0)
(1.0281 -0.00136575 0)
(1.02875 -0.00383064 0)
(1.03015 -0.0065002 0)
(1.03228 -0.0091975 0)
(1.03521 -0.0121148 0)
(1.03903 -0.015334 0)
(1.04452 -0.0191542 4.99224e-24)
(1.053 -0.0241483 4.12445e-24)
(1.06331 -0.0305663 2.05458e-23)
(1.0745 -0.0385761 2.87987e-23)
(1.08682 -0.0487159 -2.70867e-23)
(1.10063 -0.0618489 5.65893e-23)
(1.11504 -0.0787568 -8.45365e-23)
(1.12119 -0.106886 2.7961e-22)
(1.12969 -0.140792 2.18969e-22)
(1.12908 -0.192587 -1.40235e-22)
(1.11098 -0.263666 2.81517e-23)
(1.05566 -0.375225 5.30682e-23)
(0.882356 -0.504758 -8.54711e-22)
(0.490264 -0.501855 -4.08825e-20)
(0.186919 -0.01946 -1.38528e-20)
(0.488097 0.439131 -2.0812e-20)
(0.837125 0.446839 1.53284e-21)
(0.9941 0.341895 -8.52722e-23)
(1.05389 0.255996 6.54196e-24)
(1.07755 0.192811 -4.34315e-23)
(1.07712 0.151067 -1.0115e-22)
(1.08072 0.113815 2.03505e-22)
(1.07343 0.0921027 -1.34739e-22)
(1.06668 0.0751254 -9.17212e-23)
(1.06124 0.0615348 7.2978e-23)
(1.05683 0.0505339 3.39565e-24)
(1.05355 0.0415844 -3.48821e-24)
(1.05069 0.0338676 5.47333e-24)
(1.04671 0.0269068 0)
(1.04284 0.0207948 0)
(1.03976 0.0154554 0)
(1.03747 0.0107017 0)
(1.03595 0.00623816 0)
(1.03522 0.0020221 0)
(1.03131 -0.000952762 0)
(1.03199 -0.00320097 0)
(1.03346 -0.00537107 0)
(1.03577 -0.00764166 0)
(1.03901 -0.0100455 0)
(1.0433 -0.0125599 0)
(1.04994 -0.0154881 -6.11323e-24)
(1.05998 -0.0192082 -6.5927e-24)
(1.07183 -0.0236268 -7.25122e-24)
(1.0851 -0.0287465 -3.2222e-23)
(1.10073 -0.035152 -1.06445e-25)
(1.1197 -0.0434207 -6.07616e-23)
(1.14259 -0.054163 7.83596e-23)
(1.15725 -0.0802196 1.16838e-22)
(1.18973 -0.109385 8.28792e-23)
(1.21874 -0.163421 1.80072e-22)
(1.25892 -0.246819 -1.38886e-23)
(1.31956 -0.404648 1.83633e-21)
(1.03465 -0.567793 -1.22544e-19)
(0.984373 0.508183 1.4291e-20)
(1.1947 0.385818 -3.71915e-23)
(1.16362 0.26004 1.85983e-22)
(1.14538 0.185996 6.92246e-23)
(1.12592 0.148723 1.31083e-23)
(1.11477 0.10577 6.15795e-24)
(1.10049 0.0861167 2.17641e-23)
(1.08816 0.0696952 5.9882e-24)
(1.07805 0.05619 -1.18263e-23)
(1.07025 0.0455197 -1.1111e-23)
(1.06458 0.0370688 -1.00153e-23)
(1.06036 0.0300302 -8.9188e-24)
(1.05533 0.0237944 0)
(1.05029 0.0183226 0)
(1.04632 0.0135826 0)
(1.04342 0.00939617 0)
(1.04153 0.0055812 0)
(1.04059 0.00188752 0)
(1.034 -0.000874388 0)
(1.03475 -0.00264194 0)
(1.03628 -0.0043159 0)
(1.03871 -0.00609988 0)
(1.04208 -0.00783424 0)
(1.04658 -0.00950572 0)
(1.05384 -0.011233 3.4883e-24)
(1.0646 -0.0131051 -6.32634e-24)
(1.07695 -0.0146571 -1.38776e-23)
(1.09112 -0.0157628 1.33055e-23)
(1.10798 -0.0167088 8.92131e-24)
(1.12935 -0.0175593 7.78216e-23)
(1.15656 -0.0174644 -1.0426e-22)
(1.18357 -0.0341637 -3.11447e-22)
(1.23096 -0.045015 -8.24333e-22)
(1.28482 -0.0759208 1.22854e-22)
(1.37016 -0.116862 2.13666e-22)
(1.51316 -0.162904 2.93561e-21)
(0.0237926 -0.0175184 4.85643e-19)
(0.0305136 -0.0252486 -1.05148e-19)
(1.32111 0.25049 -1.63637e-22)
(1.24959 0.199894 1.90894e-23)
(1.20294 0.151428 -1.05699e-22)
(1.17009 0.124161 -1.2383e-23)
(1.14681 0.087577 6.12782e-23)
(1.12624 0.0714127 -5.24069e-23)
(1.10863 0.0573376 -1.37888e-23)
(1.09416 0.0456703 2.49263e-23)
(1.08297 0.0364996 -1.03756e-23)
(1.07475 0.0293297 4.80611e-24)
(1.06892 0.0235676 3.42686e-24)
(1.06289 0.0186581 0)
(1.05681 0.0143775 0)
(1.05205 0.0106746 0)
(1.04851 0.00731716 0)
(1.04617 0.004243 0)
(1.04498 0.00124376 0)
(1.0362 -0.000856833 -3.6368e-25)
(1.03698 -0.00208603 0)
(1.03862 -0.00347511 0)
(1.04103 -0.00465357 0)
(1.04431 -0.00569917 0)
(1.04869 -0.0065284 0)
(1.05586 -0.00703882 -1.30085e-23)
(1.06613 -0.0067874 1.78294e-23)
(1.07747 -0.00533406 6.31561e-23)
(1.09063 -0.00233074 -7.86122e-24)
(1.10679 0.00267861 2.52571e-22)
(1.12697 0.0102272 -8.12947e-22)
(1.15345 0.0227774 4.92448e-22)
(1.1859 0.0207558 1.07128e-21)
(1.23413 0.0314672 3.84696e-22)
(1.29582 0.0309016 -6.77753e-22)
(1.38295 0.0351091 -2.00783e-23)
(1.47238 0.0586705 -2.81464e-22)
(0.261769 -0.00106583 -9.7046e-21)
(0.0414999 -0.0269085 5.51816e-21)
(1.2259 0.108364 -6.02771e-25)
(1.27894 0.127852 -2.04657e-22)
(1.2349 0.106936 -1.96346e-22)
(1.20138 0.0894325 2.91797e-22)
(1.17169 0.0610081 3.24911e-22)
(1.14702 0.049505 -4.41027e-22)
(1.12579 0.0392673 -2.58396e-22)
(1.10795 0.0307781 2.67931e-23)
(1.09381 0.024052 -4.38348e-23)
(1.08312 0.0188047 1.01516e-23)
(1.07552 0.0148358 -3.74403e-24)
(1.06843 0.0117116 0)
(1.06163 0.00908565 0)
(1.05634 0.00681253 0)
(1.05246 0.00475824 0)
(1.04987 0.00286945 0)
(1.04865 0.0011881 0)
(1.03821 -0.000341887 1.39244e-26)
(1.03881 -0.0014243 0)
(1.04024 -0.00231367 0)
(1.04246 -0.0030963 0)
(1.04555 -0.00373152 0)
(1.04962 -0.00404981 0)
(1.0558 -0.00358131 8.45804e-24)
(1.0643 -0.00158674 -1.2129e-23)
(1.07347 0.00240766 -8.52252e-23)
(1.08398 0.00896192 1.38854e-22)
(1.09646 0.01896 2.11241e-22)
(1.11105 0.0329222 -1.08853e-21)
(1.13011 0.0535352 3.86118e-22)
(1.16082 0.069672 7.2117e-22)
(1.19894 0.0984431 -2.6931e-21)
(1.25537 0.12948 -1.06403e-21)
(1.33555 0.170453 2.46258e-22)
(1.42954 0.225552 -1.84771e-21)
(0.676455 0.0769916 1.31878e-22)
(0.239471 -0.265861 1.92561e-21)
(-0.107304 -0.36827 -8.18661e-23)
(-0.215297 -0.152789 1.15339e-22)
(-0.0178318 -0.0750481 -1.16001e-21)
(1.04161 0.0350855 6.52436e-22)
(1.27945 0.0825023 -1.60632e-21)
(1.25197 0.0682191 7.19212e-22)
(1.22029 0.0531754 -1.85497e-21)
(1.18799 0.0298451 -8.94977e-22)
(1.16115 0.0228078 6.45457e-22)
(1.1376 0.0170124 -5.43766e-23)
(1.11767 0.01252 9.34272e-24)
(1.10147 0.00898564 -5.65793e-23)
(1.08893 0.00632322 -2.08361e-23)
(1.07977 0.00455045 -6.9061e-24)
(1.07153 0.00357123 0)
(1.06426 0.00290047 0)
(1.05868 0.00223799 0)
(1.05472 0.00156633 0)
(1.05226 0.000849191 0)
(1.05102 8.71519e-05 0)
(1.03959 -0.000262735 9.28118e-23)
(1.04026 -0.000964321 0)
(1.04159 -0.00150865 0)
(1.04365 -0.00209575 0)
(1.04644 -0.00244852 0)
(1.04992 -0.0024965 0)
(1.0542 -0.001642 -1.02924e-24)
(1.05999 0.00109 -1.21535e-23)
(1.0659 0.00626614 -5.40214e-23)
(1.07186 0.0144114 4.28024e-23)
(1.0783 0.0258788 2.64283e-22)
(1.08481 0.0419525 3.49667e-22)
(1.0916 0.0676451 -3.77109e-22)
(1.11262 0.0955889 7.55443e-22)
(1.13251 0.139412 4.28422e-22)
(1.15853 0.20794 -9.38543e-22)
(1.21404 0.290547 3.66454e-21)
(1.28565 0.441411 -1.797e-21)
(1.0655 0.549557 -2.82717e-21)
(0.471276 0.368738 8.33933e-20)
(-0.139456 0.301725 -8.87569e-22)
(-0.35461 0.249633 -7.24641e-21)
(0.120266 0.163859 2.86226e-21)
(0.976795 0.0866217 5.92309e-22)
(1.30065 0.0630868 1.69489e-22)
(1.27438 0.0274324 -2.13193e-21)
(1.23476 0.0123752 2.32535e-21)
(1.19576 -0.00690757 -1.05396e-21)
(1.16687 -0.00749754 2.58163e-22)
(1.14227 -0.00809857 -2.57192e-22)
(1.12148 -0.00788236 1.20279e-22)
(1.10437 -0.00762298 -7.00352e-23)
(1.09116 -0.00728516 1.76821e-23)
(1.08076 -0.00652197 -1.67448e-25)
(1.07167 -0.00505694 0)
(1.06435 -0.0036892 0)
(1.05882 -0.00268306 0)
(1.05487 -0.00187979 0)
(1.05223 -0.00113336 0)
(1.05073 -0.000382559 -2.01354e-23)
(1.04061 -0.00053244 -2.23203e-23)
(1.04137 -0.000905167 0)
(1.04275 -0.00138855 0)
(1.04465 -0.00180454 0)
(1.04699 -0.00205831 0)
(1.04962 -0.00213219 0)
(1.05198 -0.00149018 0)
(1.05429 0.00105163 -1.4857e-23)
(1.05654 0.00546061 2.41181e-23)
(1.05823 0.0120122 1.34988e-22)
(1.05831 0.0215891 -7.20342e-23)
(1.05613 0.0350322 -2.13571e-23)
(1.05143 0.054945 7.56968e-22)
(1.03967 0.0912941 -6.30616e-22)
(1.04743 0.14147 4.64045e-22)
(1.03526 0.207241 9.17526e-22)
(1.03014 0.31889 -2.84041e-22)
(0.983198 0.484353 -3.09844e-20)
(0.905699 0.700456 4.87791e-22)
(0.531074 0.877053 -1.68681e-20)
(-0.0263024 0.877851 1.56566e-20)
(-0.115527 0.656396 1.63212e-22)
(0.415052 0.367124 -2.6925e-21)
(1.10009 0.0984461 -7.95799e-21)
(1.36809 -0.0143613 1.23694e-22)
(1.29909 -0.0374192 3.24328e-21)
(1.23332 -0.0550934 6.27495e-22)
(1.19363 -0.04942 -1.39082e-21)
(1.16306 -0.0408749 5.35323e-22)
(1.13871 -0.03476 -1.45099e-22)
(1.11839 -0.0290171 -3.7104e-23)
(1.10193 -0.0245162 -1.59388e-23)
(1.08872 -0.0207029 3.14638e-23)
(1.07753 -0.0168446 0)
(1.06849 -0.0129048 0)
(1.06172 -0.00960721 0)
(1.05664 -0.00693817 0)
(1.05298 -0.00463536 0)
(1.0506 -0.00253466 0)
(1.04936 -0.000752897 1.59834e-23)
(1.04157 -0.000187882 1.39408e-24)
(1.04213 -0.000734639 0)
(1.04325 -0.00122772 0)
(1.04494 -0.00160787 0)
(1.04705 -0.00195526 0)
(1.04914 -0.00231939 0)
(1.05011 -0.00248215 0)
(1.04999 -0.00174591 0)
(1.04952 0.000188557 -1.50979e-23)
(1.04849 0.00298008 3.27017e-23)
(1.04474 0.00708095 -1.18319e-23)
(1.0359 0.0128417 4.19084e-23)
(1.01992 0.0221769 -4.54291e-22)
(0.99194 0.0357336 1.7663e-22)
(0.973679 0.0859484 3.10225e-22)
(0.92155 0.139059 -2.21177e-22)
(0.868848 0.229073 -1.781e-21)
(0.763522 0.327533 1.56052e-21)
(0.55733 0.541704 -4.4627e-21)
(0.292553 0.782505 9.17992e-21)
(0.14868 0.790686 4.39626e-21)
(0.328506 0.518111 -1.11409e-21)
(0.828355 0.162646 4.32793e-21)
(1.36835 -0.0917356 -9.00383e-21)
(1.38788 -0.157634 -2.59918e-22)
(1.29563 -0.131243 2.71109e-22)
(1.21515 -0.119258 -3.06078e-22)
(1.17597 -0.0942184 5.98121e-22)
(1.14766 -0.0745949 7.76602e-25)
(1.12563 -0.0602622 6.65356e-23)
(1.10786 -0.0484692 -5.65038e-23)
(1.09343 -0.0394213 1.35633e-23)
(1.081 -0.0317942 0)
(1.0703 -0.0249882 0)
(1.06229 -0.0189844 0)
(1.05668 -0.0140884 0)
(1.05252 -0.0100964 4.39052e-23)
(1.04952 -0.00672354 6.07181e-23)
(1.04757 -0.00378861 3.62068e-23)
(1.04656 -0.00117113 0)
(1.04175 6.9104e-06 0)
(1.04245 -0.000372256 0)
(1.04357 -0.000779732 0)
(1.04526 -0.00126389 0)
(1.04743 -0.00185262 0)
(1.04954 -0.00267092 0)
(1.05024 -0.00385269 0)
(1.04948 -0.00518601 0)
(1.04842 -0.00664123 3.78489e-26)
(1.04678 -0.00888477 -1.02771e-24)
(1.04244 -0.0122076 -3.1131e-24)
(1.03242 -0.0178471 6.62146e-23)
(1.0124 -0.0230006 -2.70894e-22)
(0.975377 -0.0393181 3.18258e-22)
(0.931209 -0.00939752 5.50323e-21)
(0.848477 0.0109517 -8.88902e-22)
(0.780623 0.071211 1.07549e-21)
(0.546511 0.184057 2.93108e-21)
(0.2747 0.311096 -3.25121e-22)
(0.209429 0.325586 -2.10956e-21)
(0.413997 0.176142 -6.6509e-22)
(0.79141 -0.0886909 3.15976e-21)
(1.22108 -0.330597 -4.23716e-21)
(1.42888 -0.388123 -1.73901e-21)
(1.30506 -0.294777 1.83807e-22)
(1.23825 -0.223648 -1.64371e-21)
(1.16679 -0.169972 5.31888e-22)
(1.13852 -0.130664 -1.55129e-22)
(1.1188 -0.101389 8.05573e-23)
(1.10312 -0.0795804 -2.69712e-23)
(1.09031 -0.0623032 3.62771e-24)
(1.07924 -0.0491898 5.76282e-27)
(1.06902 -0.0386199 0)
(1.06011 -0.029925 0)
(1.0539 -0.0226736 0)
(1.04988 -0.0168241 0)
(1.04693 -0.0120622 0)
(1.04478 -0.008078 0)
(1.0434 -0.00459737 0)
(1.04276 -0.00146833 -6.52089e-24)
(1.04173 7.62586e-05 0)
(1.04262 9.67243e-05 0)
(1.04397 -2.1789e-05 0)
(1.0459 -0.000419085 0)
(1.0484 -0.00110169 0)
(1.05104 -0.00222548 0)
(1.05251 -0.00414133 0)
(1.0526 -0.00716592 0)
(1.0531 -0.0115796 0)
(1.05399 -0.0184135 0)
(1.05362 -0.028722 -3.79483e-24)
(1.04989 -0.0455411 -4.16234e-23)
(1.03762 -0.0663723 6.4526e-23)
(1.00704 -0.106505 -5.73885e-23)
(0.941429 -0.117765 1.55197e-20)
(0.838098 -0.14859 8.47908e-22)
(0.650099 -0.0814558 6.47416e-21)
(0.470295 -0.0368994 1.66395e-21)
(0.380338 -0.173202 1.67112e-21)
(0.457356 -0.409032 1.34165e-20)
(0.713224 -0.626974 -2.70734e-21)
(1.01115 -0.738402 5.19911e-21)
(1.22493 -0.688852 -1.27621e-21)
(1.24863 -0.514127 -1.65858e-21)
(1.16254 -0.351526 -2.73569e-21)
(1.14166 -0.270433 7.2408e-22)
(1.09684 -0.192921 -3.05241e-24)
(1.08684 -0.147959 4.7079e-23)
(1.07929 -0.114147 -4.33732e-23)
(1.0732 -0.0881443 4.93885e-24)
(1.06739 -0.0678745 0)
(1.06132 -0.0525719 0)
(1.05471 -0.040602 0)
(1.04848 -0.0311663 0)
(1.04443 -0.0236316 0)
(1.04217 -0.0175944 0)
(1.04057 -0.0126258 0)
(1.03939 -0.00847898 0)
(1.03868 -0.00485866 0)
(1.03843 -0.00156003 0)
(1.04142 0.000182295 0)
(1.04244 0.000611418 0)
(1.04407 0.000922496 0)
(1.04641 0.00096116 0)
(1.04951 0.000625624 0)
(1.05313 -0.000258167 0)
(1.05626 -0.00216939 0)
(1.05869 -0.00586647 0)
(1.06258 -0.011811 0)
(1.06856 -0.0209367 0)
(1.07602 -0.0346224 0)
(1.08448 -0.0565609 1.98052e-24)
(1.0913 -0.0871733 2.23662e-24)
(1.08458 -0.136801 -6.54852e-23)
(1.02613 -0.194813 5.25471e-21)
(0.856633 -0.270341 -3.34632e-21)
(0.60156 -0.285089 4.39428e-21)
(0.624213 -0.389712 2.4021e-21)
(0.665669 -0.535791 5.39285e-22)
(0.73385 -0.681822 5.26026e-21)
(0.848568 -0.753796 -2.38765e-21)
(0.955906 -0.725326 1.34598e-21)
(1.00504 -0.610243 7.01949e-22)
(1.00824 -0.469887 -2.26884e-21)
(1.03388 -0.347158 8.20884e-22)
(1.04139 -0.266761 5.96187e-22)
(1.02303 -0.190822 -5.49634e-22)
(1.03093 -0.143933 -2.34687e-23)
(1.03613 -0.111122 -8.47995e-25)
(1.04001 -0.0849665 0)
(1.04182 -0.0647907 0)
(1.04161 -0.0493823 0)
(1.03947 -0.0374471 0)
(1.03662 -0.0283678 0)
(1.03504 -0.0215352 0)
(1.03455 -0.0161693 0)
(1.03423 -0.0117209 0)
(1.03399 -0.0079614 0)
(1.0339 -0.00463734 0)
(1.034 -0.00152429 0)
(1.04068 0.000396826 0)
(1.04166 0.00131878 0)
(1.04346 0.002207 0)
(1.04617 0.00295218 0)
(1.0499 0.0034307 0)
(1.05466 0.00350669 0)
(1.05988 0.00274302 0)
(1.06547 0.00015102 0)
(1.07343 -0.00477477 0)
(1.08507 -0.0125554 0)
(1.10125 -0.024185 9.01501e-23)
(1.12296 -0.0421441 0)
(1.15263 -0.0704275 0)
(1.18089 -0.107224 2.18659e-21)
(1.18476 -0.198217 1.11878e-21)
(0.989543 -0.314226 8.47353e-21)
(0.804868 -0.485935 1.09267e-22)
(0.780643 -0.625276 1.27352e-22)
(0.773672 -0.685571 -1.75618e-22)
(0.769414 -0.681067 -5.28359e-21)
(0.794034 -0.627878 -3.2109e-21)
(0.824741 -0.533133 -1.81881e-21)
(0.861517 -0.441943 -1.21627e-22)
(0.902404 -0.375249 2.38863e-22)
(0.930906 -0.317122 -3.31198e-24)
(0.925755 -0.213138 -2.4471e-21)
(0.956235 -0.161494 1.68667e-21)
(0.978996 -0.120885 0)
(0.996239 -0.0924924 0)
(1.00882 -0.0696871 8.27791e-24)
(1.01759 -0.0523223 0)
(1.02288 -0.0390125 0)
(1.02531 -0.0288153 0)
(1.02624 -0.0214498 0)
(1.02725 -0.0163383 0)
(1.02831 -0.0124272 0)
(1.02898 -0.0091634 0)
(1.02933 -0.00634568 -7.22602e-24)
(1.02956 -0.00377446 -5.18403e-24)
(1.02978 -0.00130696 0)
(1.03911 0.000745394 0)
(1.03998 0.00223938 0)
(1.04181 0.00380143 0)
(1.04468 0.00539405 0)
(1.04875 0.00701682 0)
(1.0542 0.00862731 0)
(1.061 0.0100258 0)
(1.06925 0.0103647 0)
(1.08039 0.00919745 0)
(1.09593 0.00653538 0)
(1.11773 0.00211606 7.99507e-22)
(1.14793 -0.00357748 0)
(1.19165 -0.015237 0)
(1.25107 -0.0254234 9.93895e-22)
(1.30765 -0.0580295 -2.5745e-20)
(1.24763 -0.154336 -7.95698e-22)
(1.10812 -0.307392 0)
(0.978184 -0.444502 -1.47594e-21)
(0.851795 -0.552049 1.24593e-20)
(0.734649 -0.57146 9.57254e-21)
(0.653749 -0.566008 -1.28887e-21)
(0.634132 -0.500352 2.42452e-21)
(0.672529 -0.406241 1.17697e-22)
(0.741776 -0.300743 0)
(0.797093 -0.203698 3.13143e-22)
(0.857527 -0.144662 3.57808e-21)
(0.905265 -0.107733 1.14824e-21)
(0.938274 -0.0781414 0)
(0.965156 -0.0577082 0)
(0.985013 -0.0421073 -1.44563e-22)
(0.999186 -0.0306423 0)
(1.00878 -0.0220532 0)
(1.01503 -0.0156806 0)
(1.01925 -0.0114964 0)
(1.02236 -0.00891461 0)
(1.02445 -0.00695539 1.30729e-23)
(1.0257 -0.00524171 -1.6988e-23)
(1.02635 -0.00367773 0)
(1.02665 -0.00219387 0)
(1.0268 -0.000707266 -3.99212e-23)
(1.03655 0.000974455 0)
(1.03739 0.00307521 0)
(1.03908 0.0053063 0)
(1.04174 0.00781646 0)
(1.04554 0.0107191 0)
(1.05078 0.0140902 0)
(1.05785 0.017998 -6.42804e-24)
(1.0671 0.0220186 0)
(1.07932 0.0259734 0)
(1.09553 0.0303905 0)
(1.11751 0.0357868 0)
(1.1479 0.0449675 0)
(1.19003 0.0564432 0)
(1.25395 0.0774856 1.15666e-22)
(1.33932 0.107137 -1.6376e-23)
(1.34781 0.118685 5.14865e-23)
(1.2557 0.0671169 0)
(1.12281 0.00389535 0)
(0.962169 -0.0808549 -1.77568e-20)
(0.800642 -0.0947387 -2.10451e-19)
(0.662387 -0.137393 -1.83094e-20)
(0.58828 -0.150055 1.81293e-21)
(0.5853 -0.147355 0)
(0.627723 -0.126174 0)
(0.700835 -0.0884278 0)
(0.792714 -0.0504838 -2.62822e-23)
(0.867487 -0.026908 2.60496e-21)
(0.911631 -0.0138088 8.66312e-23)
(0.947665 -0.00803403 0)
(0.972996 -0.00483488 0)
(0.990454 -0.00282135 0)
(1.00244 -0.00133581 0)
(1.01084 -0.000477277 5.73679e-23)
(1.01687 -0.000403709 2.35094e-23)
(1.02091 -0.000754181 1.18437e-24)
(1.02323 -0.000984246 0)
(1.0245 -0.000979585 0)
(1.02519 -0.000773946 0)
(1.02551 -0.000492231 0)
(1.02571 -8.13819e-05 0)
(1.03345 0.00107252 0)
(1.03406 0.00365694 0)
(1.03531 0.00646167 0)
(1.03732 0.00978764 0)
(1.04024 0.0137574 0)
(1.04439 0.0185834 0)
(1.0504 0.0245046 0)
(1.05878 0.0315074 0)
(1.06961 0.0398782 -1.11394e-24)
(1.08309 0.0505174 0)
(1.10004 0.0646293 0)
(1.12254 0.0851545 0)
(1.151 0.114475 4.01644e-22)
(1.19294 0.157271 1.45276e-21)
(1.25678 0.224452 0)
(1.2937 0.305553 0)
(1.25882 0.35649 0)
(1.1625 0.389996 0)
(1.02247 0.371795 3.36071e-20)
(0.871388 0.373614 8.75035e-20)
(0.730567 0.323535 -8.26068e-21)
(0.65736 0.271065 3.26962e-21)
(0.645849 0.204363 0)
(0.663318 0.143761 0)
(0.701364 0.0922043 0)
(0.77313 0.0772667 0)
(0.848101 0.0791978 -1.53149e-20)
(0.910576 0.0648819 -3.03151e-21)
(0.952921 0.049569 0)
(0.978349 0.0357264 -1.64406e-24)
(0.994767 0.025803 -5.31828e-24)
(1.00582 0.0188562 -5.39707e-24)
(1.01372 0.0136857 0)
(1.01949 0.00965212 0)
(1.02304 0.00648357 0)
(1.02466 0.00416646 0)
(1.02533 0.00256149 0)
(1.02564 0.00148796 0)
(1.0258 0.00071463 0)
(1.02598 0.000189731 0)
(1.03003 0.0013715 0)
(1.03013 0.0041277 0)
(1.03069 0.00726144 0)
(1.03181 0.0109494 0)
(1.03355 0.0153696 0)
(1.03615 0.0208341 0)
(1.04032 0.0276814 0)
(1.04648 0.036122 0)
(1.05403 0.0468451 0)
(1.06237 0.0608244 0)
(1.07148 0.079618 -5.32534e-23)
(1.08214 0.104933 6.68147e-23)
(1.09276 0.140381 -1.08835e-21)
(1.10469 0.187912 -1.56386e-21)
(1.12715 0.255757 0)
(1.15236 0.348073 0)
(1.13936 0.438829 0)
(1.088 0.516303 0)
(0.996303 0.55255 3.80055e-22)
(0.893262 0.569544 -9.92448e-21)
(0.798353 0.544543 -5.56935e-21)
(0.759943 0.497031 2.0254e-20)
(0.758088 0.429002 0)
(0.775392 0.358669 0)
(0.787275 0.278183 0)
(0.816651 0.21749 0)
(0.877701 0.179859 -1.48925e-21)