/*--------------------------------*- C++ -*----------------------------------*\
| =========                 |                                                 |
| \\      /  F ield         | OpenFOAM: The Open Source CFD Toolbox           |
|  \\    /   O peration     | Version:  v2106                                 |
|   \\  /    A nd           | Website:  www.openfoam.com                      |
|    \\/     M anipulation  |                                                 |
\*---------------------------------------------------------------------------*/
FoamFile
{
    version     2.0;
    format      ascii;
    arch        "LSB;label=32;scalar=64";
    class       volScalarField;
    location    "0";
    object      p;
}
// * * * * * * * * * * * * * * * * * * * * * * * * * * * * * * * * * * * * * //

dimensions      [0 2 -2 0 0 0 0];

internalField   nonuniform List<scalar> 
11644
(
0.0228536
0.0222579
0.0211245
0.0195674
0.0172384
0.0141794
0.0101123
0.00518364
0.000158928
-0.00467566
-0.00904778
-0.0124689
-0.014278
-0.0143199
-0.0122384
-0.00834859
-0.00359233
-0.00102252
-0.0110999
-0.00940921
-0.0139191
-0.0314542
-0.0262765
-0.0343869
-0.0450085
-0.0534114
-0.0583597
-0.0600157
-0.0592576
-0.0560375
-0.0513909
-0.0459998
-0.0402404
-0.0343971
-0.0290519
-0.0245228
-0.0208861
-0.0180767
-0.0160226
-0.0149884
0.026207
0.0257642
0.0244834
0.0223971
0.0197014
0.0164571
0.0126968
0.00833027
0.00318561
-0.00212582
-0.00721298
-0.0115083
-0.0143206
-0.0161144
-0.01525
-0.0129646
-0.0104387
-0.00641009
-0.0101617
-0.0169589
-0.02735
-0.0302673
-0.0333405
-0.0447238
-0.0530586
-0.0582761
-0.0614931
-0.0615473
-0.0585272
-0.0542078
-0.0488522
-0.0428065
-0.0366853
-0.0309965
-0.0258431
-0.0212341
-0.0172916
-0.014109
-0.0120011
-0.0111206
0.0258047
0.0260684
0.0257672
0.0245479
0.022653
0.020141
0.0172048
0.0139305
0.0102178
0.00598463
0.00149672
-0.00298007
-0.00765856
-0.0106827
-0.0130114
-0.013241
-0.0122942
-0.0120149
-0.0131866
-0.0145015
-0.020189
-0.0269672
-0.034515
-0.0456352
-0.0546122
-0.0597654
-0.0600013
-0.0583416
-0.054489
-0.0489865
-0.0430243
-0.0370075
-0.031211
-0.0258894
-0.0209566
-0.0167379
-0.0132452
-0.0107141
-0.00939435
-0.00907812
0.0240045
0.0242847
0.0246053
0.024811
0.0247262
0.0241202
0.0231326
0.02173
0.0198233
0.0172872
0.0137232
0.00815698
0.00205551
-0.00757591
-0.0158958
-0.0196795
-0.0217258
-0.0255036
-0.0310125
-0.0174772
-0.0198299
-0.029847
-0.0345139
-0.0417463
-0.0479667
-0.0516726
-0.0533624
-0.0503817
-0.0459777
-0.0405739
-0.0344615
-0.0285917
-0.0232784
-0.0185296
-0.0145798
-0.0113872
-0.00907962
-0.00764047
-0.00686803
-0.00660555
0.0219334
0.022245
0.0227617
0.0239705
0.0254747
0.0270769
0.0284617
0.0294717
0.0298218
0.0290022
0.0255371
0.0191478
0.00826932
-0.00123286
-0.0128394
-0.0220101
-0.023166
-0.0332899
-0.0344925
-0.0596905
-0.0522988
-0.0358587
-0.0329953
-0.0292435
-0.0340638
-0.035258
-0.0334473
-0.0331032
-0.0301346
-0.0264225
-0.0222058
-0.0172696
-0.0129331
-0.00954355
-0.00706341
-0.00534771
-0.0042866
-0.00374389
-0.00335475
-0.0031374
0.0180271
0.0182342
0.0192737
0.0208831
0.0233579
0.0264824
0.0299438
0.0334472
0.0360639
0.0369299
0.035328
0.0298258
0.0228104
0.00450353
-0.0171513
-0.0337873
-0.0424728
-0.0669254
-0.0813556
-0.0829815
-0.0723395
-0.0527719
-0.038299
-0.0106627
-0.00256558
-0.00532648
-0.00715151
-0.0047186
-0.00690993
-0.0071912
-0.0062071
-0.00437194
-0.00235353
-0.000860614
-7.77932e-05
-2.52311e-05
-0.000351756
-0.000643277
-0.000777278
-0.000702056
0.0099639
0.0108133
0.0122037
0.0142534
0.0171399
0.0207381
0.0252566
0.0303256
0.0350386
0.0375146
0.0361725
0.0311105
0.0196495
0.0172995
0.00158474
-0.0336886
-0.0763979
-0.0721297
-0.0742006
-0.0722764
-0.0707879
-0.0367096
-0.011488
0.015574
0.0553873
0.0587238
0.0489656
0.031621
0.0199663
0.0129376
0.00891277
0.00691014
0.00572728
0.0049959
0.00392681
0.00274715
0.00158257
0.000783034
0.000220027
2.6615e-05
-0.000290116
0.00024206
0.00117103
0.00319823
0.0055452
0.00873452
0.0129634
0.0179664
0.0228712
0.024675
0.0196947
0.0110431
0.00437683
0.00141089
-0.0257888
-0.0391124
-0.0773245
-0.0968521
-0.0950905
-0.0846719
-0.0521849
-0.00265721
0.0343444
0.0451196
0.0668815
0.0991682
0.0722285
0.0627161
0.0390287
0.0261968
0.0169743
0.0117133
0.00826658
0.00586661
0.00399125
0.00228622
0.000858237
-0.000544276
-0.00135813
-0.00228487
-0.0132872
-0.0131547
-0.0122537
-0.011722
-0.0106864
-0.00889903
-0.00648492
-0.00383018
-0.00288941
-0.00687139
-0.0181158
-0.0355655
-0.0526119
-0.059949
-0.0822951
-0.116
-0.10968
-0.123555
-0.143687
-0.119358
-0.0748537
0.0100961
0.0710782
0.110537
0.118453
0.0857077
0.077559
0.0590328
0.0393196
0.0279797
0.0161407
0.00820749
0.00364539
0.000488435
-0.0011364
-0.00268375
-0.00394041
-0.00516822
-0.00624849
-0.00612561
-0.0285331
-0.0281651
-0.0281692
-0.0289437
-0.0293274
-0.029934
-0.0308387
-0.0332951
-0.0393894
-0.0498494
-0.0665781
-0.0908623
-0.108994
-0.101815
-0.130267
-0.17572
-0.206866
-0.24072
-0.238035
-0.190487
-0.0648765
0.064232
0.133079
0.136526
0.123626
0.10626
0.0892725
0.0304411
0.0200417
0.0130921
0.00470538
-0.0019671
-0.00611531
-0.00887647
-0.00968267
-0.0103052
-0.0110991
-0.011392
-0.0125092
-0.013517
-0.0411441
-0.0413691
-0.0437865
-0.0457625
-0.0489863
-0.0530217
-0.0578575
-0.0654883
-0.0768562
-0.0906311
-0.103311
-0.123398
-0.133485
-0.151611
-0.198526
-0.191755
-0.241894
-0.324721
-0.419364
-0.427221
-0.0868889
0.257529
0.27247
0.198576
0.136281
0.0825005
0.0324519
0.0151586
-0.00601002
-0.0105197
-0.0132014
-0.0160592
-0.0177965
-0.0191519
-0.0193478
-0.0193527
-0.0201694
-0.0209521
-0.0208493
-0.0220643
-0.0492677
-0.0514565
-0.0541343
-0.058176
-0.0642822
-0.0713336
-0.079194
-0.0895217
-0.101033
-0.115648
-0.127918
-0.147287
-0.173137
-0.185141
-0.208209
-0.225262
-0.25189
-0.306199
-0.527551
0.361491
0.150509
0.0403115
-0.023499
-0.0356686
-0.0530979
-0.0415873
-0.0323329
-0.028885
-0.0266643
-0.0255234
-0.0263001
-0.0270741
-0.0273326
-0.0273304
-0.0273263
-0.0268122
-0.0259999
-0.0529456
-0.0575792
-0.0603546
-0.066073
-0.0727867
-0.0807173
-0.088679
-0.0961334
-0.103918
-0.114742
-0.114707
-0.118732
-0.12512
-0.110394
-0.0996358
-0.10207
-0.0952844
-0.0562523
0.0386073
-0.0585187
-0.0412169
-0.0389828
-0.0624461
-0.0775404
-0.0640626
-0.0496949
-0.0307365
-0.0267434
-0.0215464
-0.0221198
-0.0255081
-0.0285184
-0.0297502
-0.0300873
-0.0297947
-0.030865
-0.0303582
-0.0569173
-0.0537429
-0.055918
-0.062387
-0.0709492
-0.0798247
-0.0821756
-0.0805577
-0.0780661
-0.100145
-0.0596226
-0.0256665
-0.0449282
0.00764835
-0.0476746
-0.00269985
0.0166054
0.204435
0.202326
-0.166121
-0.117011
-0.116531
-0.100245
-0.125015
-0.0331789
-0.00793952
0.0073491
-0.0132335
0.00715982
-0.00499949
-0.0182818
-0.0260884
-0.0280868
-0.0291954
-0.0299785
-0.0320846
-0.0345035
-0.0333813
-0.0433525
-0.0426673
-0.0528689
-0.0659308
-0.071387
-0.0661708
-0.0513093
-0.0495395
-0.0867785
0.0558282
0.0630884
0.0728181
0.0214997
0.0345351
0.0943197
0.104265
0.233049
0.325402
-0.0937003
0.0881561
0.431453
-0.177967
-0.2084
-0.159395
-0.0600342
-0.0645514
0.0235248
0.0118226
0.0745927
-0.0184726
0.0430976
0.015647
-0.0120074
-0.0274522
-0.0275826
-0.0246636
-0.0212469
-0.0215045
-0.0159068
-0.02225
-0.0308606
-0.0318262
-0.0390801
-0.0439324
-0.0497947
-0.035732
-0.025144
-0.0141772
0.00948912
0.0750657
0.108927
0.0999504
-0.00288327
0.147187
0.164232
0.180955
-0.054616
-0.0836925
0.0679683
0.404296
-0.0463949
-0.227692
-0.480646
0.0659941
-0.301842
-0.00456192
0.0291226
0.0966485
0.112036
0.058474
0.0434653
0.0198814
0.00340504
-0.015779
-0.0155302
-0.024689
-0.0238587
-0.0277348
-0.0213884
-0.0199878
-0.00911463
-0.0118382
-0.0225807
-0.0309453
-0.0253685
-0.00935414
0.0113101
0.019332
0.0347863
0.062842
0.0675954
0.100902
0.202692
0.147227
0.257114
0.173844
0.246209
0.706473
-0.79085
-0.513795
-1.88093
0.202904
0.53702
0.0244715
0.0332659
0.0656322
-0.0384979
0.043973
0.0771876
0.0461544
0.0338126
0.0431975
0.0141298
-0.00564278
-0.0160284
-0.0223887
-0.0244698
-0.0289985
-0.0329793
-0.0160983
-0.0218636
-0.0362731
-0.0330722
-0.0200462
-0.0059803
-0.00654764
0.00908614
0.0409957
0.0406441
0.0259807
0.038959
-0.0175561
0.424461
-0.157241
0.0221425
0.519101
0.0515267
-0.648268
0.112445
-0.749417
-0.507238
-2.10936
0.286431
-0.333463
-0.027571
0.255803
-0.252294
-0.00106857
-0.0125295
0.0282658
0.0490042
0.0128185
-0.00394667
-0.00643796
-0.0215124
-0.0374987
-0.0443354
-0.0384484
-0.0215092
-0.0400962
-0.0454664
-0.0372495
-0.0182634
-0.00237291
0.00285016
0.00692593
-0.0138915
0.00280713
0.0237192
0.04024
-0.111152
0.178928
0.0622789
-0.0051009
0.0239546
-0.0251276
0.455648
0.522403
-0.92743
-2.01338
-1.0693
0.742865
0.180902
0.187659
-0.0486334
-0.134553
0.0595818
-0.0208832
0.0280743
0.0172185
-0.0100689
-0.0239954
-0.00550402
-0.0197318
-0.0244453
-0.0325759
-0.0468587
-0.0567101
-0.0500277
-0.027253
-0.0266433
-0.025998
-0.0159368
-0.0055784
0.0139387
0.0183824
0.01532
0.00685684
0.00900284
0.017844
-0.399964
0.51911
0.0665873
0.307735
-0.00654025
-0.376036
-0.911641
0.337181
-0.787834
-0.851394
-0.780093
-0.484101
-0.492036
-0.222793
-0.184609
0.134347
0.524656
-0.396839
0.0200265
-0.00925461
-0.0264064
-0.0243733
-0.00242812
-0.0152258
-0.03331
-0.0419816
-0.049771
-0.0522029
-0.0521515
-0.0222871
-0.0138252
-0.0102317
-0.0148054
-0.0172049
-0.0154591
-0.00505082
0.00989099
0.00641586
-0.0130167
-0.0156492
-0.0455579
0.0484989
-0.045523
0.186369
-0.239229
-0.00101519
-0.593563
-0.462826
-0.579462
0.389743
-0.656862
1.50613
0.188333
0.673872
0.232729
0.205399
0.158004
-0.102652
-0.0929653
-0.0548713
-0.0344288
-0.0218083
-0.0296594
-0.0398494
-0.0481651
-0.050151
-0.0464139
-0.0481203
-0.0554835
-0.0166779
-0.0172619
-0.0133964
-0.00985487
-0.013815
-0.0244305
-0.031726
-0.0357029
-0.0331562
-0.0673414
-0.109924
-0.0731436
-0.199583
-0.29689
0.0255677
-0.237319
-0.703075
0.787358
1.01527
0.295776
-1.56596
0.269638
2.06033
2.15081
-0.838766
0.532576
-0.0600458
-0.309149
-0.171454
-0.112504
-0.0725667
-0.0555813
-0.047419
-0.0565783
-0.0574326
-0.0539058
-0.0515916
-0.0555448
-0.0599469
-0.0610309
-0.00486755
-0.0025949
-0.00296162
-0.00519336
-0.00615243
-0.0160779
-0.024734
-0.0390616
-0.0668955
-0.0981067
-0.141893
0.00811531
0.0588891
0.458451
-0.90349
-1.19712
-1.80066
-0.423254
1.31624
0.36587
-0.649799
1.31418
0.11358
-1.39704
-0.768234
-1.07667
0.222175
-0.078003
-0.060926
-0.105288
-0.0918613
-0.0829944
-0.0609037
-0.0579713
-0.0627463
-0.0647434
-0.0652894
-0.0627389
-0.0611218
-0.0655501
0.00716641
0.00141685
0.00197805
0.00182618
0.000512772
-0.0044012
-0.0121282
-0.0030537
-0.0661508
-0.0677568
-0.0747458
-0.0450338
0.139666
-0.0680675
1.09513
0.474657
-1.16034
-1.43517
0.256397
1.89584
0.0667176
-0.115222
-1.5696
-2.20217
-0.236066
1.23072
0.0211509
0.131103
0.0479994
-0.0384077
-0.0722231
-0.0971788
-0.0521126
-0.0628426
-0.0688388
-0.0724345
-0.0759771
-0.0790192
-0.0794819
-0.0702344
0.00661626
0.00683037
0.00580896
0.00401956
0.00276523
-0.00169646
-0.0101937
-0.0223616
-0.0146633
-0.00589514
0.0678498
-0.00141481
0.0309904
0.0699473
-0.924734
-0.797024
0.154857
0.555137
-1.55022
-2.15494
1.09427
0.360348
1.58806
0.945898
-0.0762691
-0.525564
-0.00919998
0.114685
0.0139873
0.0424899
-0.0768967
-0.10505
-0.0957875
-0.0926543
-0.0896591
-0.0895709
-0.0929528
-0.0927858
-0.0945857
-0.09491
0.0170009
0.0156194
0.0163069
0.0131281
0.0108715
0.00944219
0.0108734
0.0151482
0.0320292
0.0636016
0.126536
0.118193
0.393239
0.425644
1.09799
0.398119
-0.87297
-0.381902
-1.91238
-1.90442
0.149447
0.0215852
1.28328
0.141453
0.175995
0.999194
0.526386
0.193049
0.0291046
-0.0388962
-0.0798499
-0.0993063
-0.104586
-0.108528
-0.107892
-0.105751
-0.10476
-0.0997197
-0.101327
-0.100681
0.017587
0.00973682
0.0107124
0.0128398
0.0120764
0.0152349
0.0203323
0.0266326
0.032572
0.12652
0.14396
0.149531
0.269927
0.45332
-0.0624333
0.120539
-0.70578
-1.64889
1.28922
2.10953
1.1752
0.641356
-0.159319
0.556576
0.0344713
0.0455791
0.295472
0.0834483
0.0140387
-0.0492811
-0.08949
-0.103418
-0.11677
-0.134802
-0.133953
-0.131838
-0.124189
-0.122878
-0.123427
-0.114392
0.00750165
0.0116654
0.011932
0.0127187
0.0160219
0.0186656
0.0278545
0.0435936
0.0617402
0.0884459
0.112477
0.146919
0.243756
-0.266306
-0.0553837
-0.0120324
-0.113116
-0.363458
-0.710889
-1.49943
0.761492
0.549871
0.14865
0.126312
-0.0509746
-0.0974499
-0.00543847
0.0483535
-0.00553963
-0.145771
-0.146457
-0.156413
-0.158766
-0.163217
-0.159853
-0.157416
-0.154576
-0.153026
-0.150863
-0.150826
0.0177558
0.0174054
0.0180209
0.019863
0.0183216
0.0154113
0.0225472
0.0366699
0.0347114
0.0349976
0.0325787
0.0557669
-0.0478088
0.128212
0.0736621
-0.31373
-1.22363
-1.09376
-0.407307
-0.0720834
0.510527
0.274791
-0.440775
-0.434325
-0.181017
-0.138685
-0.159919
-0.110334
-0.0227893
-0.216295
-0.185411
-0.221629
-0.208555
-0.204343
-0.18223
-0.174879
-0.171443
-0.167133
-0.163607
-0.163409
0.0279895
0.0222268
0.0233546
0.0236389
0.0230726
0.0230901
0.018478
0.0419992
0.0581131
0.0748324
0.138203
-0.123686
-0.0666671
-0.331102
-0.556699
-0.515194
-0.882987
-1.27659
1.78649
1.69481
1.61539
1.84412
-0.769058
-0.254296
-0.788007
-0.6915
-0.211435
-0.0809461
-0.178198
-0.240991
-0.212344
-0.214543
-0.204211
-0.208861
-0.196044
-0.185611
-0.177063
-0.17242
-0.170474
-0.167854
0.0226545
0.0266952
0.0259907
0.0255638
0.0196702
0.0168146
0.0145889
0.0181175
0.0163364
0.0226835
0.0136202
-0.0454853
-0.172913
-0.176113
-0.167359
-0.353614
-0.870874
-0.366196
0.327273
0.719149
0.673332
0.627093
-0.00896474
-0.524444
-0.246659
-0.257012
-0.463391
-0.311325
-0.216902
-0.266218
-0.222921
-0.226935
-0.226126
-0.220561
-0.212731
-0.202642
-0.191622
-0.18361
-0.179812
-0.178898
0.0151935
0.0333415
0.0298272
0.0237351
0.0165484
0.00803582
-0.00384173
-0.0157941
-0.0383893
-0.0513989
0.00156337
-0.119998
-0.149376
-0.511985
-0.924372
-0.652362
-0.387947
-0.913013
2.26158
2.47496
3.95217
2.7771
-0.805308
-0.477059
-0.814714
-1.00306
-0.515638
-0.198356
-0.360629
-0.304219
-0.286519
-0.284645
-0.249179
-0.243415
-0.226859
-0.214113
-0.203939
-0.196354
-0.190255
-0.203541
0.0253089
0.0278997
0.0265191
0.0246669
0.0187471
0.0105483
-0.00141943
-0.00749651
-0.0145936
-0.0549897
-0.0731451
-0.149615
-0.246375
-0.262529
-0.228766
-0.210674
-0.190329
-0.250591
1.10107
1.77174
1.54541
1.72761
-0.529555
-0.318322
-0.352551
-0.358149
-0.568362
-0.610213
-0.395304
-0.340487
-0.29592
-0.26462
-0.25327
-0.23872
-0.22335
-0.213205
-0.205431
-0.19895
-0.194642
-0.19182
0.0234694
0.0230388
0.0230889
0.0220822
0.019213
0.012826
-0.00668135
-0.0185626
-0.046413
-0.0702176
-0.126903
-0.096626
-0.235384
-0.287089
-0.580662
-0.870164
-0.761844
-0.297811
-0.0535217
-0.211897
-0.281437
0.0539057
-0.380261
-0.813336
-1.25324
-0.877504
-0.48038
-0.396413
-0.389108
-0.339017
-0.309376
-0.287075
-0.263695
-0.237292
-0.215939
-0.204927
-0.196704
-0.193517
-0.190428
-0.190918
0.0336016
0.0381722
0.0343601
0.0299289
0.0276289
0.0232492
0.00977093
-0.00906355
-0.0253296
-0.07181
-0.130268
-0.131329
-0.20729
-0.343257
-0.348418
-0.603679
-0.507882
-0.687621
-0.41616
-0.116567
0.0643687
-0.213053
-0.767271
-0.231565
-1.03289
-0.693861
-0.461406
-0.362452
-0.334777
-0.338189
-0.313498
-0.272653
-0.233522
-0.212123
-0.198831
-0.19148
-0.185611
-0.180706
-0.176765
-0.17988
0.0470724
0.0421595
0.0474834
0.0525277
0.05586
0.061107
0.0495399
0.0181714
0.00293818
-0.0129857
-0.0667479
-0.173065
-0.334785
-0.398516
-0.289865
-0.327913
-0.344644
-0.196363
-0.614569
-0.73084
-1.08681
-0.680696
-0.599696
-0.474877
-0.322243
-0.269891
-0.269866
-0.372507
-0.352906
-0.277928
-0.267583
-0.235728
-0.179911
-0.161839
-0.165811
-0.167738
-0.168411
-0.17156
-0.175363
-0.164298
0.0440973
0.0558512
0.0586759
0.0650248
0.0707665
0.0705141
0.0666092
0.0556943
0.0409077
-0.0133294
-0.0236518
0.0674158
0.0828201
-0.201016
-0.524935
-0.565481
-0.636303
-0.557906
-0.714147
-0.915701
-0.863476
-0.758608
-0.313916
-0.224398
-0.0697878
-0.191211
-0.0342731
0.129765
-0.100008
-0.188486
-0.247558
-0.193551
-0.176731
-0.166053
-0.154709
-0.156184
-0.156806
-0.156119
-0.154675
-0.165934
0.0613685
0.0511105
0.0583539
0.0697143
0.0934034
0.0777487
0.0950811
0.11289
0.12183
0.113274
-0.0135645
-0.0738838
-0.0278252
0.112476
0.404563
0.5565
0.420437
0.284138
-1.32245
-0.906392
-2.12455
-1.24071
0.578579
0.771822
0.95989
0.641794
0.287886
-0.0535405
-0.172503
-0.21088
-0.0986183
-0.121263
-0.137015
-0.148099
-0.142591
-0.126878
-0.141353
-0.14881
-0.153196
-0.142351
0.0408184
0.0464907
0.0500541
0.0596883
0.0717191
0.0804017
0.0960295
0.123829
0.153832
0.17251
0.137716
0.0988675
0.195918
0.210373
0.361927
0.828349
1.05569
1.77479
-2.77195
-1.90498
-4.06543
-2.00696
1.8849
1.01723
1.15506
0.573699
0.16952
0.163619
0.0189687
-0.100552
-0.139484
-0.120987
-0.127454
-0.139319
-0.140839
-0.141176
-0.145366
-0.148629
-0.151229
-0.158203
0.0375775
0.0414829
0.0459439
0.0519549
0.0651961
0.0776259
0.0918507
0.106968
0.124898
0.140096
0.165185
0.115459
0.137005
0.212167
0.40089
0.449055
0.385783
-0.14759
-1.31412
-1.11749
-1.01806
-1.06266
-0.0537128
0.324111
0.512563
0.508948
0.16488
0.0710467
-0.014942
-0.13497
-0.164284
-0.151295
-0.146426
-0.145531
-0.148674
-0.148802
-0.152176
-0.154791
-0.157227
-0.158062
0.0351507
0.0355027
0.0384165
0.0442059
0.0520681
0.0638924
0.0854783
0.0775574
0.0908292
0.114521
0.0826909
0.0545412
0.0911891
0.132353
0.158838
0.125381
-0.170109
-0.283973
-1.03183
-1.466
-0.695751
-0.463521
0.0993925
0.2308
0.349719
0.263909
0.0628141
0.00422354
-0.0994287
-0.164613
-0.137714
-0.167203
-0.159746
-0.148897
-0.155119
-0.157343
-0.158838
-0.159393
-0.158612
-0.14714
0.0100983
0.0230452
0.0225598
0.028264
0.0271008
0.0259587
0.0367401
0.0382613
0.0459475
0.0653329
0.087494
0.120039
0.119768
0.0898459
-0.0634702
-0.0695812
-0.233617
-0.13812
-0.780364
-0.948138
0.212291
-0.0483455
0.24784
0.0874297
0.121249
0.0686738
0.0119742
-0.053208
-0.110996
-0.171753
-0.183795
-0.185185
-0.184093
-0.17449
-0.165692
-0.158832
-0.15575
-0.15187
-0.149169
-0.157134
0.00754836
-0.00189779
-0.00101705
-2.89633e-05
-0.000460528
-0.00749012
-0.00827153
-0.00959898
0.0158376
0.0492183
0.0561093
-0.0479971
-0.0266749
0.0292511
0.0345358
0.0139949
0.307546
0.244184
0.620777
0.787824
0.717132
0.684903
0.346872
0.405528
0.0595717
0.0152361
-0.0616713
-0.114241
-0.129444
-0.165266
-0.198294
-0.200296
-0.207219
-0.193696
-0.167896
-0.160254
-0.155583
-0.153648
-0.152914
-0.143622
-0.0159311
-0.0034572
-0.0105031
-0.0152953
-0.0237632
-0.0355411
-0.0520025
-0.0779571
-0.0745892
-0.0421434
0.0380389
0.0663874
0.0835868
0.0295636
-0.056515
-0.0418118
0.159231
0.265858
0.620551
0.857197
0.84688
0.750877
0.168743
-0.0899055
-0.177159
-0.159497
-0.114307
-0.0983176
-0.101498
-0.0994275
-0.200728
-0.232286
-0.236419
-0.209245
-0.181814
-0.165854
-0.154154
-0.150616
-0.145203
-0.152952
-0.0106658
-0.015382
-0.0183538
-0.0249425
-0.0328669
-0.0459716
-0.0633304
-0.096411
-0.134631
-0.086874
-0.0650091
-0.0164789
-0.0601401
-0.119585
-0.157244
-0.180371
0.0295141
-0.442466
1.26335
0.66693
2.37215
1.7284
-0.469076
-0.095509
-0.351219
-0.281081
-0.230182
-0.217656
-0.0850478
-0.0943491
-0.187359
-0.263804
-0.230794
-0.197433
-0.173513
-0.159879
-0.151863
-0.142826
-0.139017
-0.136173
-0.0154592
-0.0300193
-0.0321428
-0.0354858
-0.0408683
-0.0510454
-0.054117
-0.0726983
-0.0919518
-0.0944816
-0.0687496
-0.0611902
-0.0236849
-0.0866603
-0.329248
-0.532578
-0.115415
-0.185624
0.577894
0.685482
1.3032
1.15917
0.299104
0.263649
-0.401125
-0.257759
-0.120588
-0.0700699
-0.141694
-0.180631
-0.156286
-0.203995
-0.182303
-0.162647
-0.147961
-0.139211
-0.13358
-0.128703
-0.126327
-0.112572
-0.0342599
-0.0356041
-0.0393473
-0.0412774
-0.0464705
-0.0534888
-0.0594007
-0.0692519
-0.0713785
-0.0589219
-0.0542113
-0.0706022
-0.147106
-0.220438
-0.283125
-0.321308
-0.123935
0.0715846
0.136369
-0.103734
0.500548
0.657726
0.201832
0.046724
-0.273965
-0.387222
-0.303577
-0.162254
-0.0472143
-0.026083
-0.103238
-0.137025
-0.134153
-0.125285
-0.115032
-0.108856
-0.104327
-0.10241
-0.103822
-0.109625
-0.0289235
-0.0352641
-0.0391754
-0.0441802
-0.047981
-0.049954
-0.0548223
-0.0596769
-0.0591376
-0.0428552
-0.0773082
-0.0522827
-0.0419855
-0.0574923
-0.0544584
-0.0389369
0.133858
0.136639
0.356397
0.407686
0.79238
0.516378
-0.0731184
0.0251878
-0.0589894
-0.0167843
0.0159295
0.0605263
0.0145244
-0.0209697
-0.0756753
-0.0888358
-0.0750428
-0.0783707
-0.0779684
-0.0801255
-0.0809527
-0.082459
-0.0841029
-0.0817392
-0.0438242
-0.0417133
-0.0396318
-0.0395529
-0.042184
-0.0451461
-0.0534571
-0.0519051
-0.0575453
-0.05424
-0.122587
-0.125865
-0.0444325
-0.0346817
-0.039244
0.0157397
0.281588
0.326047
0.23705
0.295331
0.452492
0.32998
0.264406
0.28776
0.119653
0.134057
0.143344
0.126395
0.0455211
0.000225566
-0.00747662
-0.0130515
-0.0204172
-0.039632
-0.0518882
-0.0611806
-0.0695089
-0.0770918
-0.0839465
-0.0871424
-0.037473
-0.0424274
-0.0439816
-0.0475189
-0.0496228
-0.0520849
-0.0595535
-0.0561123
-0.0733302
-0.083747
-0.0540381
-0.131433
-0.231241
-0.234302
-0.344754
-0.318331
-0.216451
-0.207703
-0.138221
-0.0312017
0.258744
0.402813
0.402824
0.406911
0.339973
0.265038
0.181215
0.110659
0.142051
0.161173
0.0750249
0.0122923
-0.00765702
-0.0264903
-0.0437859
-0.0576176
-0.068603
-0.0733326
-0.0750681
-0.079776
-0.0437191
-0.0451802
-0.0473846
-0.0476895
-0.0504039
-0.050958
-0.0518549
-0.0560298
-0.0766903
-0.111987
-0.151622
-0.145583
-0.144573
-0.179197
-0.255815
-0.303739
-0.489119
-0.437337
-0.52448
-0.643718
-0.064533
0.0649078
0.173629
0.154681
0.305811
0.273209
0.262988
0.255962
0.191978
0.0603119
0.0573603
0.0296516
0.0129257
-0.0123545
-0.0327269
-0.0456303
-0.0575672
-0.0683269
-0.0726451
-0.0727525
-0.0540619
-0.0510264
-0.0555053
-0.045207
-0.0478344
-0.049821
-0.0542106
-0.054965
-0.05686
-0.0702757
-0.0642691
-0.136613
-0.186658
-0.146393
-0.276918
-0.242415
-0.419085
-0.554847
-1.08708
-1.29135
-0.844311
-0.552406
-0.272259
-0.232203
0.361048
0.303354
0.21639
0.0839558
0.115686
0.130367
0.0672049
0.0182052
0.0172903
-0.0135442
-0.0349278
-0.0486108
-0.0600913
-0.0732846
-0.0738971
-0.0843942
-0.0319674
-0.0389302
-0.0407116
-0.0347291
-0.0366473
-0.0387957
-0.0460732
-0.0438514
-0.0595178
-0.060637
-0.0807819
-0.100762
-0.161448
-0.282682
-0.26985
-0.42859
-0.589849
-0.72005
-0.829386
-0.835588
-0.496353
-0.373945
-0.380248
-0.282234
-0.101025
-0.0245205
0.0119759
0.0941967
0.0893652
0.0661913
0.000512939
-0.0192718
-0.0207088
-0.0358276
-0.0504174
-0.0615299
-0.0691705
-0.0755184
-0.0777674
-0.076247
-0.0281217
-0.0221746
-0.0216568
-0.0162553
-0.0214138
-0.0275012
-0.0338439
-0.0382311
-0.0470217
-0.0649246
-0.0890258
-0.0923017
-0.122924
-0.17472
-0.234688
-0.283264
-0.517747
-0.528627
-0.676073
-0.701005
-0.39803
-0.294406
-0.0996392
0.0326846
0.0794801
0.0743737
0.0347434
-0.000432845
-0.0474685
-0.0467749
-0.0522415
-0.0535453
-0.063496
-0.0698261
-0.0721956
-0.0754377
-0.0770349
-0.0800365
-0.0809581
-0.085656
-0.0180655
-0.0117025
-0.0132411
-0.0105009
-0.0180249
-0.0277243
-0.0414403
-0.0327194
-0.0494075
-0.0599042
0.0350182
-0.0127515
-0.0158783
0.0159329
0.037138
-0.17536
-0.0779293
-0.237011
-0.25139
0.026896
0.110709
0.119051
0.0877589
0.100113
0.0609799
0.0224367
-0.0419678
-0.0896561
-0.0903965
-0.120029
-0.112469
-0.111928
-0.119233
-0.101639
-0.0918545
-0.0887296
-0.0851101
-0.0832377
-0.0827657
-0.091955
-0.013549
-0.0194463
-0.0167109
-0.013161
-0.0179811
-0.0224252
-0.0281804
-0.0345304
-0.0453915
-0.06201
-0.0342552
0.0166197
0.0562929
0.0774817
0.121135
0.157822
0.220604
0.442967
0.651954
0.409641
0.193128
0.262827
0.139216
-0.102963
-0.147165
-0.155968
-0.283154
-0.252033
-0.241663
-0.233793
-0.20074
-0.170607
-0.14995
-0.129101
-0.117493
-0.102274
-0.0979443
-0.0993053
-0.10124
-0.0992939
-0.0103204
-0.00743529
-0.0100681
-0.0114486
-0.0150117
-0.017604
-0.0258825
-0.0391647
-0.0200443
-0.0168927
0.0122165
0.0394209
0.0119099
0.0197445
0.0469096
0.115145
0.150151
0.247802
0.25867
0.242514
0.208454
0.0645729
-0.0624194
-0.499149
-0.537577
-0.582956
-0.538154
-0.475869
-0.367948
-0.288329
-0.269646
-0.215569
-0.205628
-0.17555
-0.144438
-0.126126
-0.112724
-0.107443
-0.0997987
-0.105922
0.00923398
0.00186706
0.00229323
0.00380181
0.00509821
0.00872204
-0.00158927
-0.00852197
-0.0062279
-0.00727127
0.00176598
0.0107869
0.0204472
-0.0398238
-0.135974
0.053048
-0.179214
0.311967
0.47261
-0.0446799
-0.0926721
0.359351
0.108934
-1.0398
-0.771422
-0.781658
-0.659632
-0.530815
-0.443916
-0.37895
-0.315905
-0.270482
-0.219067
-0.180761
-0.139731
-0.127073
-0.116365
-0.111092
-0.107214
-0.0923605
0.0136649
0.0154289
0.0160113
0.0189053
0.0214578
0.0294461
0.0326806
0.0205344
0.0474505
0.0468398
0.0683801
0.093156
0.104859
0.132868
0.110922
0.0605133
0.0718637
0.192816
0.296815
0.312591
0.289972
0.126645
-0.254065
-0.672741
-0.692608
-0.708971
-0.634266
-0.528268
-0.424486
-0.367567
-0.324242
-0.256505
-0.215639
-0.159093
-0.128144
-0.11825
-0.111681
-0.106902
-0.104331
-0.0997987
0.0252792
0.0296033
0.0317902
0.0361269
0.0413565
0.0454865
0.0560314
0.0672455
0.0967189
0.141971
0.12049
0.202576
0.276595
0.366024
0.481872
0.627042
0.725321
0.803688
0.633341
0.557627
0.325078
0.0766831
-0.0795592
-0.296446
-0.546623
-0.607078
-0.616035
-0.553572
-0.462612
-0.330066
-0.251868
-0.201176
-0.190515
-0.148181
-0.117233
-0.102089
-0.0920406
-0.0870855
-0.0855964
-0.0883494
0.0354377
0.0359247
0.0398473
0.0449873
0.0536995
0.0637131
0.079517
0.104715
0.135485
0.197837
0.258678
0.359636
0.510861
0.666386
0.848459
1.00291
1.03701
1.30738
1.36828
1.15233
0.785193
0.746941
0.440369
-0.26756
-0.266937
-0.379303
-0.372946
-0.3498
-0.306591
-0.26599
-0.217733
-0.18216
-0.148173
-0.119808
-0.0947452
-0.0831755
-0.0757436
-0.0717134
-0.0707919
-0.0710707
0.0285362
0.0360497
0.042812
0.0514733
0.0622902
0.0768581
0.0948844
0.122338
0.158168
0.225391
0.338856
0.456873
0.621578
0.791146
0.959853
1.0743
1.11477
1.31389
1.3094
1.32809
1.03265
0.692785
0.439251
0.211164
0.0538003
-0.0776826
-0.163982
-0.193341
-0.209217
-0.184902
-0.168936
-0.144943
-0.111872
-0.0932083
-0.0816398
-0.0733431
-0.0694452
-0.0684388
-0.0675692
-0.0749735
0.0341321
0.0275749
0.0326779
0.0399288
0.0524911
0.0684955
0.0776524
0.114997
0.166471
0.235854
0.32865
0.447434
0.583052
0.740436
0.857213
0.938993
0.950971
1.00395
0.988972
1.00752
0.83709
0.426041
0.157636
0.0976652
0.0111497
-0.0474917
-0.0895989
-0.123966
-0.137094
-0.102711
-0.0812572
-0.0823441
-0.0848277
-0.0779986
-0.0747728
-0.0718344
-0.0691685
-0.0644214
-0.0604911
-0.0525858
0.0304837
0.0313959
0.0290811
0.0317794
0.0363511
0.0468096
0.0592348
0.12683
0.160275
0.207779
0.31498
0.451312
0.597537
0.7451
0.855552
0.88231
0.899698
0.847283
0.727598
0.701972
0.43664
0.0461782
-0.143886
-0.336674
-0.373827
-0.244787
-0.175751
-0.107347
-0.057203
-0.0359886
-0.060153
-0.0447912
-0.0484269
-0.0426769
-0.0535116
-0.0492757
-0.0455013
-0.041511
-0.0344389
-0.0439525
0.0300543
0.0191733
0.0213867
0.0277944
0.0370576
0.0513584
0.0703558
0.105435
0.154454
0.21671
0.273821
0.490943
0.587109
0.675858
0.742779
0.669346
0.681574
0.497524
0.213431
0.669911
0.670839
-0.589262
-0.414685
-0.352604
-0.307707
-0.137976
-0.101189
-0.0299724
0.00241616
0.0393828
0.0159678
0.0235691
-0.016364
-0.0185487
-0.0256597
-0.0222712
-0.0189558
-0.0163112
-0.0155556
-0.00460342
0.0225839
0.0155614
0.0200604
0.0260742
0.0345168
0.0496356
0.0715006
0.0908618
0.144835
0.190228
0.273172
0.367949
0.413978
0.439538
0.470981
0.50104
0.497789
0.452285
0.36178
0.417991
0.373416
0.204256
0.194576
0.137526
0.102048
0.0746665
0.0819356
0.11087
0.12504
0.129901
0.0880916
0.0646578
0.045482
0.0316109
0.0221726
0.0176319
0.0160941
0.0157012
0.0164963
0.0225254
0.00981176
0.0171828
0.0203931
0.0219417
0.0254867
0.0272987
0.0526075
0.0686476
0.104027
0.139813
0.189769
0.248485
0.332337
0.431722
0.509001
0.561909
0.568569
0.559828
0.487056
0.666309
0.554431
0.487304
0.511785
0.58474
0.462441
0.461138
0.403241
0.328009
0.269048
0.220923
0.165128
0.126599
0.0972035
0.0778833
0.0645079
0.0554342
0.049239
0.0465681
0.0440769
0.0380045
-0.0053706
-0.00521258
-0.00421079
-0.00482436
-0.00317825
-0.00234562
0.0187601
0.0280459
0.0602134
0.0989625
0.13945
0.210947
0.319151
0.413661
0.453327
0.542473
0.588265
0.591058
0.603749
0.661209
0.726709
0.690577
0.756908
0.772424
0.685075
0.600357
0.528065
0.457232
0.38548
0.313458
0.243099
0.183743
0.139944
0.114088
0.0941437
0.0801735
0.0703645
0.0638574
0.0584856
0.0587598
-0.037545
-0.04139
-0.0422643
-0.041433
-0.0402674
-0.0400784
-0.0382888
-0.0380937
-0.0334588
-0.0167082
0.0270269
0.0798993
0.126345
0.183422
0.22378
0.230355
0.297698
0.391346
0.41809
0.366088
0.476446
0.623533
0.695753
0.668108
0.645553
0.635567
0.57204
0.490978
0.41971
0.327613
0.245003
0.189291
0.151578
0.135693
0.113081
0.0958331
0.0833756
0.0723348
0.0639925
0.0643162
-0.047536
-0.0563747
-0.0625217
-0.0701651
-0.0763973
-0.0808646
-0.0878464
-0.0952169
-0.109732
-0.113742
-0.136424
-0.132893
-0.189365
-0.2559
-0.303497
-0.331225
-0.564735
-0.476991
-0.320582
-0.00608122
0.232359
0.457859
0.610102
0.62071
0.644967
0.638845
0.591676
0.505536
0.404673
0.313408
0.25112
0.191474
0.16189
0.129589
0.106378
0.0882108
0.0799941
0.0791714
0.0792832
0.0829512
-0.0584092
-0.0655295
-0.0723514
-0.0784041
-0.087286
-0.0997146
-0.117696
-0.142531
-0.192271
-0.232918
-0.270748
-0.363841
-0.488555
-0.60765
-0.633964
-0.670818
-0.779908
-0.703526
-0.452457
-0.324503
-0.0942909
0.242579
0.40633
0.529608
0.546939
0.582989
0.546658
0.482612
0.41049
0.335757
0.260752
0.199028
0.163155
0.134251
0.116401
0.0985961
0.0876606
0.0813264
0.0789404
0.0868152
-0.0641789
-0.0686072
-0.074599
-0.0872526
-0.102729
-0.111844
-0.135655
-0.167103
-0.214134
-0.280274
-0.359955
-0.447986
-0.518459
-0.58929
-0.627722
-0.613974
-0.536342
-0.364881
-0.236702
-0.15053
0.0123773
0.226304
0.365418
0.338669
0.399795
0.390069
0.444458
0.42068
0.376173
0.318626
0.24261
0.197196
0.173916
0.146009
0.128773
0.10927
0.0986656
0.0918847
0.0897918
0.0875687
-0.063281
-0.0654075
-0.0702666
-0.0807799
-0.0956119
-0.110353
-0.13682
-0.17007
-0.214516
-0.283952
-0.350366