/*--------------------------------*- C++ -*----------------------------------*\
| =========                 |                                                 |
| \\      /  F ield         | OpenFOAM: The Open Source CFD Toolbox           |
|  \\    /   O peration     | Version:  v2106                                 |
|   \\  /    A nd           | Website:  www.openfoam.com                      |
|    \\/     M anipulation  |                                                 |
\*---------------------------------------------------------------------------*/
FoamFile
{
    version     2.0;
    format      ascii;
    arch        "LSB;label=32;scalar=64";
    class       volVectorField;
    location    "0";
    object      U;
}
// * * * * * * * * * * * * * * * * * * * * * * * * * * * * * * * * * * * * * //

dimensions      [0 1 -1 0 0 0 0];

internalField   nonuniform List<vector> 
11644
(
(0.000255149 0.000237616 2.96403e-20)
(0.000340193 0.000377688 8.17391e-20)
(0.000236078 0.000475255 4.38551e-20)
(-0.000111253 0.000494197 0)
(-4.7175e-05 0.000759434 0)
(0.000155516 0.000803111 0)
(0.000338775 0.000660153 0)
(0.000393958 0.000284164 0)
(0.000546744 -0.000467505 0)
(0.0006945 -0.00170399 0)
(0.0011587 -0.00344309 0)
(0.00128214 -0.00576354 0)
(0.00140812 -0.00869054 0)
(0.00236197 -0.0116257 0)
(0.00229775 -0.0148326 0)
(0.00334533 -0.0174398 0)
(0.00400103 -0.0195321 0)
(0.00166954 -0.0193739 0)
(0.00137904 -0.0167835 0)
(0.00285412 -0.0148639 -7.71985e-31)
(0.00409189 -0.0137112 8.204e-31)
(0.00174754 -0.0122107 0)
(-0.000478315 -0.00934452 0)
(0.00126742 -0.00784398 0)
(0.00172867 -0.00692738 0)
(0.00107901 -0.00639822 0)
(0.000785109 -0.00711192 0)
(0.000629379 -0.00740747 0)
(0.00032566 -0.00768931 0)
(-1.5012e-05 -0.00789519 0)
(-1.78315e-05 -0.00774621 0)
(-0.000204939 -0.00730326 0)
(-0.000244606 -0.00661968 0)
(-0.000229536 -0.00581685 0)
(-0.00022748 -0.00500337 0)
(-0.000346957 -0.00405321 0)
(-0.000306232 -0.00310551 0)
(-0.000539666 -0.00226552 0)
(-0.000604017 -0.00149637 0)
(-0.000329862 -0.000567236 5.74694e-21)
(0.000170053 6.44281e-05 3.80727e-20)
(-4.9711e-05 0.000109857 3.52676e-20)
(-5.61087e-05 6.36264e-05 1.89411e-20)
(3.7391e-06 -7.24091e-05 0)
(0.00021764 -0.000457203 0)
(0.000220766 -0.000841894 0)
(0.000382649 -0.00126535 0)
(0.000885204 -0.00205279 0)
(0.00150409 -0.00321222 0)
(0.00214211 -0.00487447 0)
(0.00286314 -0.00719787 0)
(0.00431941 -0.0105844 0)
(0.00516808 -0.0142232 0)
(0.00538456 -0.0189 0)
(0.00642056 -0.0238545 0)
(0.0050752 -0.0274166 1.29749e-21)
(0.00255869 -0.0287011 1.54844e-20)
(0.00147091 -0.0295426 -6.10182e-20)
(0.00138492 -0.0297695 6.70209e-20)
(0.00178158 -0.0260569 -3.98081e-20)
(0.00136057 -0.01971 4.33693e-20)
(7.19657e-05 -0.0154255 -9.80252e-20)
(-0.000353053 -0.0144883 9.00375e-20)
(8.78517e-05 -0.0137548 -1.48254e-20)
(0.000797027 -0.0122392 -2.68586e-21)
(0.000364441 -0.0118838 0)
(0.000299812 -0.0116869 0)
(-0.000219682 -0.0117334 0)
(-0.000934287 -0.0114726 0)
(-0.00137281 -0.010816 0)
(-0.00186861 -0.00990611 0)
(-0.00203023 -0.00894057 0)
(-0.00223734 -0.00784475 0)
(-0.00217802 -0.00671966 0)
(-0.00218213 -0.00545116 0)
(-0.00212701 -0.00437438 0)
(-0.00197586 -0.00334103 0)
(-0.00202737 -0.00239573 0)
(-0.00191452 -0.00154468 0)
(-0.00178548 -0.000530875 0)
(0.00170034 -0.000433169 0)
(0.00135611 -0.000541368 0)
(0.000792071 -0.000850457 0)
(0.000942607 -0.000941851 0)
(0.00106044 -0.00158571 3.47787e-20)
(0.00132479 -0.00210296 0)
(0.00159718 -0.00283797 0)
(0.00200147 -0.00365801 0)
(0.00263108 -0.00460746 0)
(0.00357707 -0.00586952 0)
(0.00479616 -0.00775228 0)
(0.0062866 -0.0100859 0)
(0.00848015 -0.0134783 7.97674e-22)
(0.0108167 -0.0174893 1.11371e-20)
(0.0100962 -0.022466 -8.84184e-20)
(0.00839268 -0.0266565 -2.78316e-19)
(0.00770165 -0.0307758 6.38298e-19)
(0.00483008 -0.0342479 -6.73772e-19)
(0.00146914 -0.033018 2.27321e-19)
(-0.0024151 -0.0295356 3.75739e-19)
(-0.00525028 -0.0259459 -1.65384e-19)
(-0.00541431 -0.0201255 1.59103e-19)
(-0.00395044 -0.0161073 2.17134e-20)
(-0.002874 -0.0141002 -5.06808e-19)
(-0.00190596 -0.0121052 2.07142e-19)
(-0.000878047 -0.0124236 8.0866e-20)
(-0.00201019 -0.0125553 -1.17731e-20)
(-0.00292007 -0.0120244 -5.61446e-22)
(-0.00342132 -0.0115303 0)
(-0.0039489 -0.0105387 0)
(-0.00427565 -0.00916394 0)
(-0.00440079 -0.00762078 0)
(-0.00422025 -0.0061952 0)
(-0.00384436 -0.0048584 0)
(-0.00360645 -0.00378737 0)
(-0.0030017 -0.00289531 0)
(-0.00272882 -0.00227212 0)
(-0.00228099 -0.00142496 0)
(-0.00198898 -0.00071865 0)
(-0.00172034 -0.00017191 0)
(0.00232272 -7.61622e-05 0)
(0.00235145 -0.00115599 0)
(0.00254389 -0.00129966 0)
(0.00247577 -0.0021192 0)
(0.0021912 -0.00245048 0)
(0.00215136 -0.00282778 0)
(0.00221127 -0.00322884 0)
(0.00269383 -0.00356356 0)
(0.0032156 -0.00401694 0)
(0.00433326 -0.00471621 0)
(0.00622071 -0.00510846 -2.0818e-21)
(0.00846178 -0.00686419 -4.05651e-20)
(0.0100446 -0.00936317 1.81487e-19)
(0.0112164 -0.0142364 -3.437e-19)
(0.0129549 -0.0219104 6.38911e-19)
(0.0115761 -0.0284634 3.01302e-19)
(0.011182 -0.0361043 -6.80389e-19)
(0.00687269 -0.0394373 1.47228e-18)
(0.00415335 -0.037893 -1.04692e-18)
(-0.00163145 -0.0347071 3.74439e-19)
(-0.00505065 -0.0281158 -1.06569e-18)
(-0.00499128 -0.0236746 5.00158e-19)
(-0.00572106 -0.0198233 -2.56691e-19)
(-0.00480669 -0.0164914 2.32557e-19)
(-0.00469361 -0.0149147 1.75203e-19)
(-0.00518963 -0.0143117 -6.95496e-19)
(-0.005943 -0.0151756 4.18464e-19)
(-0.00754469 -0.0143259 -1.43902e-19)
(-0.00907434 -0.0124214 -1.6464e-20)
(-0.00910288 -0.0107321 1.9217e-21)
(-0.00839691 -0.00882358 0)
(-0.00755516 -0.00676317 0)
(-0.00666465 -0.00497811 0)
(-0.00565224 -0.00361329 0)
(-0.0046384 -0.00261028 0)
(-0.00376933 -0.00180793 0)
(-0.00311364 -0.0010406 0)
(-0.00257832 -0.000663079 0)
(-0.00232972 -3.4783e-05 0)
(-0.00222267 -5.83015e-05 0)
(0.00289804 -0.00041088 0)
(0.00294451 -0.000552009 0)
(0.00333671 -0.00112147 0)
(0.00335434 -0.00168362 0)
(0.00343015 -0.00210319 0)
(0.00322367 -0.0027652 0)
(0.0033145 -0.00312989 0)
(0.0032962 -0.00339164 0)
(0.00400696 -0.00330969 0)
(0.00485686 -0.00296944 9.81282e-22)
(0.00533753 -0.00356016 -2.48407e-20)
(0.00644552 -0.00450615 -2.29877e-19)
(0.00801227 -0.00845708 -2.67356e-19)
(0.0134383 -0.0151368 1.22329e-18)
(0.0174605 -0.0255276 5.31851e-19)
(0.0162145 -0.0340974 -1.79972e-18)
(0.0145275 -0.0430131 -1.02266e-19)
(0.0133871 -0.0454778 2.21732e-19)
(0.0117917 -0.0421626 1.48692e-18)
(0.00651941 -0.0400726 -1.72714e-18)
(0.00311849 -0.0332244 1.74452e-19)
(0.000915535 -0.0295937 1.07715e-18)
(-0.00263708 -0.0255123 -1.1057e-18)
(-0.00523193 -0.0194496 8.4687e-19)
(-0.00953722 -0.0198595 6.99029e-19)
(-0.00981402 -0.0212436 -2.30092e-19)
(-0.0119201 -0.0201546 -1.13751e-18)
(-0.0147889 -0.017507 -1.47096e-19)
(-0.014664 -0.0145258 4.77765e-19)
(-0.014987 -0.0101372 2.94133e-20)
(-0.0136629 -0.00702525 -1.16811e-22)
(-0.0112047 -0.0050208 0)
(-0.00899933 -0.00327373 0)
(-0.00716734 -0.00185342 0)
(-0.00557839 -0.000799605 0)
(-0.00448587 -0.000217912 0)
(-0.00364432 0.000170503 0)
(-0.00293892 0.00031119 0)
(-0.00233822 9.52094e-05 0)
(-0.00238418 0.000154023 0)
(0.00413915 -0.000841494 0)
(0.00409827 -0.000680626 0)
(0.00398565 -0.00199487 0)
(0.00432818 -0.00165881 0)
(0.00422359 -0.00235371 0)
(0.00443316 -0.00260141 0)
(0.00462572 -0.00300713 0)
(0.00471874 -0.00306011 0)
(0.00522955 -0.00296073 -2.4096e-20)
(0.00499504 -0.00319647 6.71986e-20)
(0.00506228 -0.00325272 -2.50105e-19)
(0.00503428 -0.00610114 8.04248e-20)
(0.0097054 -0.00443722 3.23529e-19)
(0.00958294 -0.00786606 5.31522e-19)
(0.0140882 -0.0247786 -8.48788e-19)
(0.0265259 -0.0394206 -7.63949e-19)
(0.0275743 -0.0429996 4.67964e-19)
(0.019205 -0.0471429 -3.00304e-19)
(0.0148385 -0.0512942 4.30932e-19)
(0.00974799 -0.0474976 7.23643e-19)
(0.00470519 -0.0420144 -1.81859e-18)
(-0.00200275 -0.0393649 2.07418e-18)
(-0.00524524 -0.0307635 -1.21119e-18)
(-0.0134537 -0.0294606 -1.03199e-18)
(-0.0184971 -0.0268887 1.42339e-18)
(-0.0255118 -0.0253306 7.97174e-19)
(-0.0258822 -0.0285779 -5.40648e-19)
(-0.0257126 -0.0238058 1.32731e-19)
(-0.0243606 -0.0144477 -3.20944e-19)
(-0.0202472 -0.00915575 3.81345e-20)
(-0.0167387 -0.00451222 1.68804e-20)
(-0.0136324 -0.00187981 -3.34305e-21)
(-0.0102844 -0.000677621 0)
(-0.00781169 3.14369e-05 0)
(-0.00587609 0.000575193 0)
(-0.00442052 0.000862311 0)
(-0.00325431 0.000645371 0)
(-0.00222945 0.000781548 0)
(-0.0016905 0.000442728 0)
(-0.00150741 0.000405219 0)
(0.00526425 0.00108397 0)
(0.00548254 -0.00119874 0)
(0.00574074 -0.000448952 0)
(0.00593345 -0.0017685 0)
(0.00648586 -0.00226933 0)
(0.00678894 -0.00272786 0)
(0.00690159 -0.00346151 0)
(0.00725143 -0.00327902 -1.57078e-21)
(0.00721003 -0.00345627 -1.77957e-19)
(0.00716601 -0.00472662 -2.74203e-20)
(0.00815333 -0.00751336 3.92058e-19)
(0.00940438 -0.00329197 -4.55362e-19)
(0.00497601 -0.00835155 -9.59458e-19)
(0.0226496 -0.0107423 1.19334e-18)
(0.0131808 -0.00703865 6.52193e-19)
(0.00912704 -0.0226929 -4.63278e-20)
(0.0119879 -0.0542121 -2.68332e-18)
(0.0194175 -0.0560419 -8.26727e-19)
(0.0103001 -0.0570768 -2.12394e-18)
(0.00393886 -0.0556705 -1.56903e-18)
(-0.00522884 -0.0518502 -3.38088e-18)
(-0.0119636 -0.0506917 2.60437e-18)
(-0.0188369 -0.0377671 -5.98628e-19)
(-0.0261173 -0.0260792 -2.09098e-18)
(-0.0422909 -0.0314895 4.12093e-19)
(-0.0484133 -0.0312484 -6.91676e-19)
(-0.0344835 -0.0251539 -1.12987e-18)
(-0.0442432 -0.0194851 1.03754e-18)
(-0.0312633 -0.01273 1.87374e-19)
(-0.0248418 -0.00589225 1.39892e-19)
(-0.0183648 -0.000244627 -2.89132e-19)
(-0.0138616 0.00301167 1.55589e-19)
(-0.0101379 0.00393878 2.78604e-22)
(-0.00704038 0.00363095 0)
(-0.0047769 0.00331986 0)
(-0.00279586 0.00315743 0)
(-0.00156394 0.00271742 0)
(-0.000787711 0.00167832 0)
(-0.000319576 0.00128918 0)
(-4.0347e-05 -3.56836e-05 0)
(0.00612022 -0.000889425 0)
(0.00636789 -0.000484043 0)
(0.0064887 -0.000744181 0)
(0.00668599 -0.00166452 0)
(0.00734645 -0.00161547 0)
(0.00843338 -0.00270243 0)
(0.00926956 -0.00299093 0)
(0.0105301 -0.00279665 -1.23565e-20)
(0.0120421 -0.00445422 -1.94178e-20)
(0.0142334 -0.0065261 2.48682e-19)
(0.0165048 -0.00698161 -1.50073e-19)
(0.018147 -0.0152175 3.53674e-20)
(0.00764901 -0.000591323 -7.90122e-19)
(0.0136152 0.00232928 1.48036e-19)
(0.0106957 -0.0259816 -3.48689e-19)
(0.00680201 -0.0264186 1.78413e-18)
(0.0242465 -0.0228369 -4.97095e-19)
(0.0216116 -0.0636013 4.10948e-18)
(0.0209809 -0.0718093 2.95545e-18)
(0.0165409 -0.0775294 1.40299e-19)
(0.00258732 -0.0704441 3.89003e-18)
(-0.0151698 -0.0544904 -2.46779e-19)
(-0.0321474 -0.0447904 5.262e-18)
(-0.0333986 -0.0436169 1.94222e-18)
(-0.0504003 -0.0463982 -4.76827e-19)
(-0.0544867 -0.0255539 1.06287e-18)
(-0.059603 -0.00673572 6.73981e-20)
(-0.0482634 -0.0188633 1.32539e-19)
(-0.0373455 0.00215502 1.16087e-19)
(-0.0292183 0.00231127 -3.86072e-19)
(-0.0191497 0.00707122 2.78972e-19)
(-0.0121728 0.00940375 3.42649e-20)
(-0.00774584 0.0101491 -5.03487e-20)
(-0.00458381 0.00869076 0)
(-0.00255036 0.00720995 0)
(-0.00129971 0.00581184 0)
(-0.000100503 0.00463167 0)
(0.00084396 0.00302294 0)
(0.00153613 0.00199282 0)
(0.0017252 0.000577407 0)
(0.00671437 -0.00166458 0)
(0.00723481 0.0003657 0)
(0.00802834 -0.00229425 0)
(0.00938598 -0.00108765 0)
(0.0100424 -0.00177508 0)
(0.0113369 -0.00209035 0)
(0.0129314 -0.00137507 -6.02162e-21)
(0.0156597 -0.00181459 4.2494e-20)
(0.0203602 -0.00463393 -8.44572e-20)
(0.0264032 -0.00778856 2.2453e-19)
(0.031411 -0.0104197 -2.29042e-19)
(0.0355792 -0.0150269 2.38697e-19)
(0.0391507 0.0226667 -1.51606e-19)
(0.0427892 0.00355723 -4.52847e-19)
(0.0262341 -0.0227086 3.09268e-19)
(0.0551414 -0.0181849 -1.75325e-19)
(0.026547 -0.0355389 -4.428e-19)
(0.0374141 -0.0309522 -4.44012e-19)
(0.0379405 -0.08179 -9.71416e-19)
(0.0226425 -0.091763 3.97473e-19)
(-0.00504933 -0.105677 1.01284e-18)
(-0.0355144 -0.0922029 1.58091e-18)
(-0.0505148 -0.0658297 8.29412e-19)
(-0.0645077 -0.059613 -1.2464e-18)
(-0.0742414 -0.0272751 -4.53039e-19)
(-0.0574007 -0.0166808 -1.90398e-19)
(-0.0430389 -0.00359804 1.36929e-19)
(-0.0404635 -0.0146935 -1.79277e-19)
(-0.0335599 0.0135082 2.28581e-19)
(-0.024474 0.0130198 1.03157e-19)
(-0.0162313 0.0154264 -1.16484e-19)
(-0.00872715 0.0149744 -7.54836e-20)
(-0.0032856 0.0144209 3.97777e-20)
(-0.000114336 0.0121548 4.32828e-21)
(0.00175061 0.00961328 0)
(0.00317968 0.00758036 0)
(0.00419026 0.00585449 0)
(0.00453633 0.00472182 0)
(0.0044736 0.00221171 0)
(0.00441496 0.00162437 0)
(0.00628898 0.00284859 0)
(0.00621099 0.000125882 0)
(0.00668484 0.00239265 0)
(0.00775285 0.00264527 0)
(0.00990411 0.00204313 0)
(0.012132 0.00246086 0)
(0.0154984 0.00256823 -9.15157e-21)
(0.0221765 0.000691022 1.74346e-20)
(0.0310895 -0.00264912 1.08225e-20)
(0.0403515 -0.00414819 -3.6454e-20)
(0.0492966 -0.00651165 5.29285e-21)
(0.059688 -0.0147606 6.08194e-20)
(0.0621391 0.00206835 -5.55302e-20)
(0.0371954 -0.000326676 4.67396e-20)
(0.0482932 -0.0311883 3.48878e-19)
(0.0610199 0.0221768 -2.02577e-19)
(0.066817 -0.0283959 -2.91371e-19)
(0.0872085 -0.041744 6.21479e-19)
(0.0722151 -0.0767777 1.50165e-19)
(0.0532757 -0.133838 6.94358e-19)
(-0.0135727 -0.152972 -7.80869e-20)
(-0.0700842 -0.122562 -8.03458e-21)
(-0.0995997 -0.079037 2.07107e-19)
(-0.0789618 -0.0399539 8.33288e-19)
(-0.0739418 -0.0150045 8.38967e-19)
(-0.0704639 -0.0271263 -1.97604e-18)
(-0.0640725 0.0364893 -8.99435e-20)
(-0.0256419 0.00646369 -1.44139e-19)
(-0.0173289 0.0174604 -1.31942e-19)
(-0.0133486 0.0185043 2.23696e-19)
(-0.00942146 0.0181128 1.13085e-20)
(-0.0035942 0.0167763 5.86958e-21)
(0.00223496 0.016061 -1.10602e-20)
(0.00538566 0.0137064 4.31997e-21)
(0.00624013 0.00992831 0)
(0.00647549 0.00763823 0)
(0.00641596 0.00514829 0)
(0.00655032 0.00389733 0)
(0.00683735 0.00203817 0)
(0.0071675 0.000726456 0)
(0.00510065 0.00155776 0)
(0.00618673 0.000699361 0)
(0.00640431 0.00412021 0)
(0.0073663 0.00319355 0)
(0.00921688 0.00441192 0)
(0.0120077 0.00514561 0)
(0.0170789 0.00615997 -6.92907e-21)
(0.0266725 0.00574736 1.73964e-20)
(0.0385716 0.00445862 -4.04965e-20)
(0.0498012 0.0031351 3.1977e-20)
(0.056997 0.00868177 -8.68004e-20)
(0.0715742 0.00299264 1.01174e-19)
(0.085657 -0.019576 -3.67458e-20)
(0.0423857 0.0039522 -1.93998e-20)
(0.0930599 0.010803 -9.42895e-20)
(0.0468477 0.00888199 7.8853e-21)
(0.0559388 0.0261977 -5.69912e-20)
(0.124406 0.00484257 4.15455e-20)
(0.18646 -0.0538018 1.40583e-19)
(0.173271 -0.210467 -2.36281e-19)
(-0.0127042 -0.328694 -1.95017e-19)
(-0.196773 -0.200109 1.85986e-18)
(-0.17711 -0.0478416 1.33359e-19)
(-0.129227 0.00826758 2.31342e-20)
(-0.0934966 0.00231734 8.81484e-20)
(-0.050627 0.0142141 -1.17887e-19)
(-0.0341581 0.00631637 9.22162e-20)
(-0.0103457 0.0475936 8.24039e-20)
(-0.00713298 0.0222382 -5.19036e-20)
(-0.00661204 0.0151215 7.87362e-21)
(-0.00462234 0.0150499 -1.10182e-20)
(0.00021571 0.0155552 1.69262e-20)
(0.00576339 0.0152119 -8.89734e-21)
(0.0100942 0.0138107 -9.42005e-21)
(0.0103096 0.010513 0)
(0.00955115 0.00785124 0)
(0.00937398 0.00529869 0)
(0.00945012 0.00213917 0)
(0.00996112 0.0022024 0)
(0.00993806 -0.00183391 0)
(0.00104572 -0.00539551 0)
(0.00114479 0.0026312 0)
(0.00404714 0.000766606 0)
(0.00656362 0.00352792 0)
(0.00861789 0.00641977 0)
(0.0106224 0.00885337 0)
(0.0148154 0.0122009 1.5384e-22)
(0.0242543 0.0130838 -2.47345e-22)
(0.0341675 0.0158482 5.56975e-21)
(0.047384 0.014667 1.98668e-22)
(0.052285 0.0203899 -1.66083e-21)
(0.0574736 0.0189758 -1.48207e-20)
(0.050553 0.00672972 7.43081e-21)
(0.110648 0.0147122 -6.70099e-20)
(0.0814974 0.0275285 -9.61881e-20)
(0.0908476 0.0493046 -3.87353e-20)
(0.0951347 0.073891 1.84669e-19)
(0.128541 0.115451 4.03149e-20)
(0.275781 0.184111 -3.77404e-18)
(-0.286564 0.157738 3.45016e-18)
(-0.112679 0.120187 -1.62684e-20)
(-0.0483134 0.113039 1.10794e-19)
(-0.0115397 0.105802 2.79677e-20)
(0.00208578 0.025363 -1.16383e-19)
(-0.015955 0.0626194 4.58079e-21)
(-0.0123072 0.0288201 -7.69075e-21)
(-0.00801866 0.0175127 3.01349e-21)
(-0.00418786 0.0158274 4.16404e-21)
(-0.000375333 0.0140667 -4.68715e-21)
(0.00491609 0.0119268 5.99594e-22)
(0.0114145 0.0110736 5.29969e-22)
(0.0144065 0.00962219 0)
(0.0144007 0.00750514 0)
(0.0139098 0.0069208 0)
(0.011858 0.00424446 0)
(0.0101337 0.00285486 0)
(0.00985858 0.00192979 0)
(0.00012587 0.00400111 0)
(-0.00174452 0.00491754 0)
(-0.00181167 0.00442481 0)
(-0.00334322 0.00688249 0)
(-0.00306854 0.0086909 0)
(-0.0012726 0.0111529 0)
(0.00442709 0.0151041 1.29502e-21)
(0.0144437 0.0171937 2.71233e-21)
(0.0219263 0.021879 -3.39771e-21)
(0.0302058 0.0217832 -1.53713e-20)
(0.0345502 0.0259101 2.39841e-21)
(0.0385787 0.0199884 9.38684e-21)
(0.030232 0.0145874 -1.01636e-19)
(0.0350927 0.0257619 6.63698e-20)
(0.00718243 0.0249293 1.05211e-19)
(0.0119192 0.0505149 1.0659e-19)
(-0.00230133 0.096247 4.38546e-20)
(-0.0298177 0.179074 3.9021e-20)
(-0.0508599 0.34478 -3.59529e-17)
(0.0915853 0.34623 -1.27218e-18)
(0.00993632 0.168272 5.42018e-20)
(-0.0120846 0.0944733 -1.19208e-19)
(-0.0402577 0.0840678 -5.29861e-20)
(-0.0246443 0.0576736 -1.1361e-19)
(-0.0371173 0.0612445 1.26379e-19)
(-0.0268925 0.0424044 -1.35288e-19)
(-0.0185618 0.0270068 4.56142e-21)
(-0.00814533 0.0216643 5.57774e-21)
(-0.00277973 0.0161115 -1.56591e-20)
(0.00297129 0.0121169 4.79756e-21)
(0.00896334 0.0102296 2.21032e-21)
(0.0115162 0.00891935 0)
(0.0114057 0.00780895 0)
(0.0110685 0.00710531 0)
(0.0123854 0.00711234 0)
(0.0123208 0.00280105 0)
(0.0117647 0.00736636 0)
(-0.00711133 0.0104251 2.4619e-22)
(-0.00220285 0.00358777 0)
(-0.00252976 0.00815777 0)
(-0.00250884 0.00998905 0)
(-0.00437273 0.0105306 0)
(-0.00468821 0.0112703 0)
(-0.00136931 0.0133659 -3.08161e-21)
(0.00429987 0.0138021 1.45469e-20)
(0.0117102 0.0216633 6.88204e-20)
(0.0129724 0.0195986 -2.7026e-20)
(0.0137857 0.0163679 1.54462e-19)
(0.0125053 0.00209242 -1.27002e-19)
(0.017169 0.00162287 -6.63522e-20)
(0.00250459 0.0198157 8.94888e-19)
(0.00225609 0.0118953 -6.72151e-19)
(-0.0135977 0.0300805 5.70362e-20)
(-0.0473934 0.0458736 -1.61462e-19)
(-0.115836 0.0341094 -1.93824e-19)
(-0.180285 -0.0444622 3.05987e-18)
(0.203825 0.0393263 2.32421e-19)
(0.0737753 0.0735251 9.806e-20)
(0.0198629 0.0657273 1.0486e-18)
(-0.0154516 0.0710912 -2.88546e-19)
(-0.0364401 0.0706261 4.37213e-19)
(-0.0382462 0.0606441 1.90643e-19)
(-0.0292836 0.0474945 3.26863e-20)
(-0.0222591 0.0405801 -4.57713e-19)
(-0.0130911 0.0285098 8.12529e-20)
(-0.0057163 0.0208454 1.07912e-20)
(0.00292649 0.0157824 -8.38389e-21)
(0.00905599 0.0106847 -1.10899e-20)
(0.0111962 0.0076882 0)
(0.0111093 0.00449485 0)
(0.0103948 0.000736994 0)
(0.0112303 -0.000553412 0)
(0.0133434 -0.00286842 0)
(0.01525 -0.00984174 0)
(-0.00191236 -0.00840779 -1.09513e-23)
(-0.00315689 -0.00409437 0)
(-0.00675698 -0.000689499 0)
(-0.00645114 0.000305537 0)
(-0.00560324 0.00478166 0)
(-0.00831684 0.00915826 0)
(-0.0094915 0.0114847 3.38552e-21)
(-0.00557449 0.0143014 -5.3216e-21)
(-0.000952373 0.0158434 6.16143e-20)
(-0.00153156 0.0150568 -2.49328e-19)
(0.00334624 0.0196779 1.72638e-19)
(0.000312915 0.0108735 2.32666e-19)
(-0.000556162 0.0104721 -3.42714e-20)
(0.0173283 0.0185107 -3.36529e-19)
(0.0236037 0.0223238 9.80848e-19)
(0.00499302 0.00832301 5.55262e-19)
(-0.00914155 0.000498348 8.53979e-19)
(-0.0492705 -0.074213 9.99216e-19)
(0.0659987 -0.240431 -7.39556e-19)
(-0.00893416 -0.333127 5.79926e-19)
(0.265018 -0.587722 -1.91693e-21)
(-0.148862 -0.710435 -1.66237e-19)
(-0.31853 -0.186204 -1.55698e-19)
(0.0933249 -0.0200203 -8.8157e-19)
(-0.0081289 0.0298422 8.47162e-19)
(-0.0157072 0.0463181 -1.65763e-19)
(-0.0139333 0.0463533 1.05628e-18)
(0.000333273 0.0660201 6.59603e-19)
(-0.00733874 0.0616616 -6.49565e-19)
(-0.0116466 0.0451605 9.71999e-20)
(-0.00826859 0.034919 1.22369e-19)
(-0.00386306 0.0255079 -8.80787e-20)
(0.00336255 0.0186445 -1.60526e-20)
(0.00935647 0.0122434 1.00474e-20)
(0.0164961 0.00918356 0)
(0.0146843 0.00720752 0)
(0.0132186 0.00555944 0)
(0.0120088 0.00424103 0)
(0.0102021 0.00594297 0)
(0.00655799 0.00117634 0)
(-0.00972527 -0.000291486 1.44412e-21)
(-0.00923776 0.00718648 0)
(-0.00996383 0.00582825 0)
(-0.0139486 0.0049986 0)
(-0.0186061 0.0032753 0)
(-0.0176772 0.00348242 0)
(-0.0175952 0.00468657 3.55798e-22)
(-0.0136494 0.0118907 7.57951e-21)
(-0.00912949 0.0150033 1.02638e-20)
(0.00201694 0.0218627 9.8723e-20)
(0.00512339 0.0430326 1.26767e-19)
(0.00677148 0.0414119 1.56618e-19)
(0.0239493 0.0478288 -3.75591e-19)
(0.0301566 0.0464496 -5.72076e-19)
(-6.62702e-05 0.027209 8.45549e-19)
(0.00673007 0.0398758 2.19931e-19)
(0.0902628 0.0447129 1.63515e-18)
(0.204259 -0.183731 3.24467e-18)
(0.153507 0.0547747 1.01758e-18)
(-0.0637581 -0.214871 -1.28563e-17)
(0.208902 -0.47618 1.09175e-18)
(0.112499 -0.0311587 -2.74788e-18)
(-0.899397 -0.559875 -1.78571e-18)
(-0.119933 0.00931366 -3.78367e-20)
(-0.057261 0.0554095 -1.84947e-18)
(-0.0536332 0.0864138 1.74255e-18)
(-0.014316 0.0850576 -9.30462e-19)
(-0.0131147 0.0781677 -2.76973e-19)
(0.00430394 0.0714148 -7.96579e-19)
(0.00716796 0.0458017 -2.56091e-19)
(0.00829522 0.0374165 2.46857e-20)
(0.00747645 0.0257556 -2.84572e-21)
(0.0118169 0.0183975 -2.06976e-21)
(0.0164647 0.0123948 -4.88511e-22)
(0.0185354 0.0106347 0)
(0.0188762 0.00759904 0)
(0.0180598 0.00631641 0)
(0.0171457 0.00386759 0)
(0.0173176 0.00365813 0)
(0.0186378 0.00584144 -7.47071e-22)
(-0.0127988 0.00421727 -9.1577e-21)
(-0.019624 0.00153163 0)
(-0.0204718 0.00236718 0)
(-0.0178983 0.00537994 0)
(-0.0186673 0.00614139 0)
(-0.023582 0.00401333 0)
(-0.0246626 0.00326521 0)
(-0.023742 0.00173604 2.33744e-21)
(-0.0317028 0.0131127 8.56967e-21)
(-0.0326326 0.0234744 4.97344e-20)
(-0.0326038 0.0244593 -7.11796e-20)
(-0.0374893 0.0585453 4.1272e-20)
(-0.00818252 0.060638 3.3032e-20)
(-0.0149347 0.0168291 1.68093e-20)
(-0.016124 0.0336831 -6.35401e-19)
(0.0272905 0.0571544 2.17151e-20)
(0.0848533 0.122652 -1.1981e-18)
(-0.323493 0.322323 6.20725e-18)
(0.0440709 0.50703 5.37374e-18)
(1.21075 -0.480704 3.1687e-18)
(-1.42842 -0.0669043 -9.34932e-18)
(-0.250812 0.421899 -9.46292e-18)
(-0.0759979 0.222766 2.26018e-18)
(-0.184156 0.252431 -1.97395e-17)
(-0.0416481 0.193151 1.18182e-18)
(0.0480854 0.0962307 -1.65838e-18)
(0.0292315 0.0748988 -3.0718e-19)
(0.0340733 0.0811897 1.4916e-19)
(0.0326105 0.0466709 7.46615e-20)
(0.0260261 0.0366795 1.59134e-19)
(0.0222866 0.0311162 -1.14832e-19)
(0.0201071 0.0193584 -1.35332e-20)
(0.0213229 0.0104368 3.09138e-21)
(0.0211546 0.00582171 0)
(0.0175078 0.00788624 0)
(0.0153526 0.00606628 0)
(0.0144839 0.00623977 0)
(0.0127827 0.00607988 0)
(0.0139441 0.00126278 0)
(0.014237 -0.000909864 -1.21584e-20)
(-0.0119943 0.00117779 -1.82245e-21)
(-0.0104583 -0.00181989 0)
(-0.0083702 -0.00487882 0)
(-0.00921593 -0.00273098 0)
(-0.0103561 -0.00065892 0)
(-0.0126956 -0.002227 0)
(-0.0201653 -0.00349908 0)
(-0.0280284 -0.00284398 0)
(-0.021966 -0.000426042 2.00257e-20)
(-0.0288469 0.00442146 -2.93961e-20)
(-0.0352871 0.00506434 -8.8649e-20)
(-0.0216992 0.0104266 8.36815e-20)
(-0.0536671 0.0333325 -7.65599e-20)
(-0.0421429 0.0756687 1.33848e-19)
(0.0273254 0.0522747 1.96868e-19)
(-0.0309259 0.0946135 1.18856e-18)
(-0.210375 0.189528 1.19241e-19)
(-0.0815506 0.396439 2.01619e-18)
(0.971884 -0.354269 3.96572e-18)
(0.00310504 0.46407 1.83016e-19)
(-0.24453 1.19202 -3.08022e-18)
(-0.60538 -0.191433 7.45848e-18)
(-0.422953 0.83062 -1.89013e-18)
(0.0262656 0.516312 7.57779e-18)
(0.304337 0.114578 -9.82403e-19)
(0.104628 0.0843069 -3.47474e-21)
(0.0492237 0.078349 2.45685e-21)
(0.0836294 0.0635239 -4.03938e-19)
(0.0424286 0.0311338 1.08058e-19)
(0.0412882 0.024774 -3.39379e-20)
(0.0315111 0.0236496 4.43453e-20)
(0.0302531 0.0104361 -9.55272e-21)
(0.0263952 0.00951486 0)
(0.0251984 0.00945417 0)
(0.0199663 0.00924504 0)
(0.0183826 0.00695236 0)
(0.0177426 0.00522359 5.48999e-20)
(0.0166564 0.00273076 7.5923e-20)
(0.0156291 -0.00117293 4.52736e-20)
(0.0140071 -0.00224376 0)
(-0.00603629 -0.0004259 0)
(-0.00455005 0.000877089 0)
(-0.00238093 0.00090982 0)
(-0.00513294 -0.000322918 0)
(-0.00654564 -0.000936908 0)
(-0.0082991 0.000877431 0)
(-0.00825114 0.00133389 0)
(-0.0172397 -0.000438997 0)
(-0.0179285 -0.000471887 -8.21213e-24)
(-0.0217224 -0.00301515 -2.11355e-21)
(-0.0272668 -0.00200587 1.01823e-20)
(-0.0212977 -0.00215652 -1.20459e-19)
(-0.049812 0.00810687 -2.85445e-19)
(-0.0193431 0.0865262 1.59502e-20)
(-0.00146909 0.0852123 6.33367e-18)
(-0.0852153 0.0834122 -1.62083e-18)
(-0.619218 -0.0950492 3.57845e-19)
(0.592316 -0.000132889 2.5032e-18)
(0.254527 1.22068 1.80873e-18)
(0.00962479 1.79584 3.40825e-18)
(0.0133788 0.656731 -1.22647e-19)
(-0.341966 -0.036042 -6.15332e-18)
(-0.902076 0.508316 -1.29711e-18)
(0.748561 -0.166792 1.59133e-18)
(0.11728 -0.0366425 1.13227e-18)
(0.00343812 0.0887537 4.33435e-19)
(0.074007 0.0840665 6.16165e-20)
(0.0476217 0.0385333 -3.59814e-19)
(0.0366943 0.0142803 -3.38337e-20)
(0.0383047 0.0115277 2.7707e-20)
(0.0337988 0.00148288 -1.34689e-21)
(0.0322574 -0.00189248 5.34539e-23)
(0.0277828 0.00348917 0)
(0.0260683 0.00249469 0)
(0.0225264 0.00091444 0)
(0.0203849 -0.000542809 0)
(0.0192539 -0.00166047 0)
(0.0182463 -0.00165424 0)
(0.0149167 -0.000936848 0)
(0.0113029 -0.00196449 -8.15384e-21)
(-0.00812709 -0.0037582 0)
(-0.0104634 -0.00604193 0)
(-0.0110192 -0.00451146 0)
(-0.0116941 -0.00388426 0)
(-0.0116663 -0.00379516 0)
(-0.0145265 -0.00219216 0)
(-0.0167749 -0.00144832 0)
(-0.0161655 -0.00248891 0)
(-0.0186828 -0.00153657 0)
(-0.0223008 -0.012604 0)
(-0.0231942 0.00230611 2.45985e-21)
(-0.0481651 -0.0118016 5.57683e-20)
(-0.0787384 -0.00779322 -9.90732e-20)
(-0.10352 0.0739662 9.24726e-20)
(-0.133757 0.092926 1.88348e-17)
(0.383352 0.0671018 8.0567e-20)
(-0.219442 -0.161499 7.2341e-18)
(-1.01231 0.466346 5.29365e-19)
(0.127395 0.355191 7.84469e-19)
(0.0325779 -0.310171 5.18512e-18)
(0.192325 0.219844 4.70019e-19)
(-0.162648 0.281883 -1.3236e-17)
(0.37385 -0.568164 -5.08375e-19)
(0.431578 -0.878012 -2.23096e-19)
(-0.441486 0.17615 -3.49704e-18)
(0.0711551 0.0792943 2.26451e-19)
(0.0928583 0.0514197 -4.62365e-20)
(0.0585836 0.0200945 5.3849e-20)
(0.0423345 0.00421533 -6.48662e-20)
(0.0342171 0.00114125 -2.20748e-21)
(0.0274428 -0.00952012 0)
(0.0236998 -0.00179853 0)
(0.0221131 -0.0035168 0)
(0.0199522 -0.00424555 0)
(0.0193837 -0.00394651 0)
(0.0182428 -0.0025794 0)
(0.01735 -0.00100247 0)
(0.0171977 0.00115617 0)
(0.0162177 0.00317071 0)
(0.0133881 0.00401927 0)
(-7.31463e-05 -0.000301238 0)
(-0.00354436 -0.00166621 0)
(-0.00824979 -0.00318792 0)
(-0.0105865 -0.00448551 0)
(-0.0106726 -0.00580029 0)
(-0.011034 -0.00757343 0)
(-0.0127928 -0.0114336 0)
(-0.0100826 -0.0146741 0)
(-0.01207 -0.0161812 0)
(-0.0168859 -0.0283397 0)
(-0.0197666 -0.0290355 0)
(-0.0603704 -0.0512933 4.93117e-22)
(-0.0734252 -0.0602079 1.78802e-20)
(-0.236802 -0.155846 -2.21742e-20)
(-0.24641 0.165889 6.20461e-18)
(0.327609 0.317497 6.77163e-20)
(-0.401111 0.291226 4.67353e-18)
(-0.190149 -0.431811 -1.40122e-18)
(0.0246047 -0.613608 2.6592e-18)
(-0.0443607 -0.823877 -1.7151e-18)
(0.0669039 -0.490357 6.5817e-19)
(0.199638 -0.377373 1.5247e-18)
(0.335925 0.0203303 -2.28937e-18)
(-0.136249 0.549451 -7.74617e-19)
(-0.221275 0.387898 -7.18715e-19)
(0.197739 0.00695406 1.05956e-18)
(0.132387 0.0296491 -7.77462e-19)
(0.10125 0.00900319 -3.73044e-21)
(0.0637807 -0.0100093 7.18013e-22)
(0.0422867 -0.00628 0)
(0.0298998 -0.00648237 0)
(0.027984 -0.00128009 0)
(0.0266012 -0.00570045 0)
(0.0247615 -0.00557588 0)
(0.0212273 -0.00647107 0)
(0.019557 -0.00510625 0)
(0.0181315 -0.00443367 0)
(0.0172079 -0.00327276 0)
(0.0172682 -0.00126145 0)
(0.0220545 0.000801975 0)
(-0.0083427 0.00526152 0)
(-0.00890722 0.00482211 0)
(-0.0100958 0.00353929 0)
(-0.0080581 0.000266084 0)
(-0.00566391 -0.00343349 0)
(-0.00359235 -0.00654438 0)
(-0.00381279 -0.0122893 0)
(-0.00207316 -0.0164396 0)
(0.00187334 -0.0274355 0)
(-0.000628351 -0.0293814 0)
(0.00648716 -0.0674039 -2.98983e-20)
(-0.0341362 -0.0640123 0)
(-0.0474158 -0.177579 0)
(-0.356276 -0.29241 -4.80458e-20)
(-0.869471 -0.181197 1.21487e-18)
(-0.150265 0.215271 1.05554e-17)
(0.317594 0.124144 -1.59932e-19)
(0.335116 0.165066 -5.02724e-19)
(0.322571 0.0624824 8.80002e-19)
(-0.187901 0.179888 5.83636e-18)
(-0.311182 0.14115 3.31451e-18)
(-0.279811 0.222972 -3.70561e-18)
(-0.0388824 0.499577 -3.22535e-19)
(0.0419353 0.36532 4.3163e-19)
(0.579895 0.198326 1.57237e-19)
(0.252847 -0.0482934 2.04132e-18)
(0.138835 -0.0276217 1.02996e-18)
(0.100816 -0.0351499 0)
(0.0778 -0.0292839 0)
(0.0481631 -0.0260605 6.50166e-20)
(0.0394945 -0.0222505 0)
(0.0365352 -0.0202507 0)
(0.032833 -0.0180909 0)
(0.0281655 -0.0151457 0)
(0.0234427 -0.0119761 0)
(0.0198991 -0.00961139 0)
(0.0157827 -0.00870081 0)
(0.0133836 -0.008354 -9.03555e-21)
(0.0145946 -0.00630593 -6.48221e-21)
(0.0183964 -0.00581024 0)
(-0.0118844 -0.000198942 0)
(-0.00657433 0.00177842 0)
(-0.00389719 -8.77993e-05 0)
(-0.00180436 -0.00201417 0)
(-0.00129394 -0.00328653 0)
(0.000877863 -0.00457217 0)
(0.00382163 -0.00830262 0)
(0.0054576 -0.0120252 0)
(0.0118261 -0.0288507 0)
(0.0139102 -0.0366512 0)
(0.0345908 -0.0699128 1.10193e-19)
(0.0544291 -0.11907 0)
(0.0360501 -0.214812 0)
(-0.0947796 -0.425332 -1.38528e-19)
(-0.672649 -0.640392 -4.27628e-18)
(0.0445479 -0.569822 5.91617e-19)
(0.6916 -0.153949 0)
(0.432755 -0.336281 1.30027e-19)
(-0.135304 -0.493706 -1.8374e-18)
(-0.172241 -0.735744 -3.41495e-18)
(-0.102729 -0.776156 2.27519e-18)
(0.137807 -0.460674 -8.86914e-18)
(0.353808 -0.917085 -2.37329e-19)
(0.593204 -1.05512 0)
(0.111121 -0.590204 -1.6878e-19)
(0.00727453 -0.204822 7.05909e-19)
(0.133209 -0.240171 -3.13995e-19)
(0.0786871 -0.113906 0)
(0.0451449 -0.0914058 0)
(0.0241759 -0.0670396 -5.79744e-20)
(0.0248198 -0.0474794 0)
(0.0238473 -0.0358329 0)
(0.0210979 -0.0261295 0)
(0.0175392 -0.0182279 0)
(0.0159142 -0.0115592 0)
(0.0151538 -0.00759567 1.63466e-20)
(0.0147512 -0.00507084 -2.12421e-20)
(0.0139256 -0.00399952 0)
(0.0110193 -0.00311935 0)
(0.00531621 9.97538e-05 -4.99182e-20)
(-0.00866335 -0.00675701 0)
(-0.00402272 -0.00549817 0)
(-0.000685217 -0.00579395 0)
(-7.15545e-05 -0.00422798 0)
(-0.000767248 -0.00227298 0)
(0.00170986 -0.00206315 0)
(0.00816653 -0.00370109 -8.03775e-21)
(0.017838 -0.00481046 0)
(0.0306818 -0.0193702 0)
(0.0518703 -0.0250313 0)