/*--------------------------------*- C++ -*----------------------------------*\
| =========                 |                                                 |
| \\      /  F ield         | OpenFOAM: The Open Source CFD Toolbox           |
|  \\    /   O peration     | Version:  v2106                                 |
|   \\  /    A nd           | Website:  www.openfoam.com                      |
|    \\/     M anipulation  |                                                 |
\*---------------------------------------------------------------------------*/
FoamFile
{
    version     2.0;
    format      ascii;
    arch        "LSB;label=32;scalar=64";
    class       pointVectorField;
    location    "0";
    object      pointDisplacement;
}
// * * * * * * * * * * * * * * * * * * * * * * * * * * * * * * * * * * * * * //

dimensions      [0 1 0 0 0 0 0];

internalField   nonuniform List<vector> 
24440
(
(0 0 0)
(0 0 0)
(0 0 0)
(0 0 0)
(0 0 0)
(0 0 0)
(0 0 0)
(0 0 0)
(0 0 0)
(0 0 0)
(0 0 0)
(0 0 0)
(0 0 0)
(0 0 0)
(0 0 0)
(0 0 0)
(0 0 0)
(0 0 0)
(0 0 0)
(0 0 0)
(0 0 0)
(0 0 0)
(0 0 0)
(0 0 0)
(0 0 0)
(0 0 0)
(0 0 0)
(0 0 0)
(0 0 0)
(0 0 0)
(0 0 0)
(0 0 0)
(0 0 0)
(0 0 0)
(0 0 0)
(0 0 0)
(0 0 0)
(0 0 0)
(0 0 0)
(0 0 0)
(0 0 0)
(0 0 0)
(0 0 0)
(0 0 0)
(0 0 0)
(0 0 0)
(0 0 0)
(0 0 0)
(0 0 0)
(0 0 0)
(0 0 0)
(0 0 0)
(0 0 0)
(0 0 0)
(0 0 0)
(0 0 0)
(0 0 0)
(0 0 0)
(0 0 0)
(0 0 0)
(0 0 0)
(0 0 0)
(0 0 0)
(0 0 0)
(0 0 0)
(0 0 0)
(0 0 0)
(0 0 0)
(0 0 0)
(0 0 0)
(0 0 0)
(0 0 0)
(0 0 0)
(0 0 0)
(0 0 0)
(0 0 0)
(0 0 0)
(0 0 0)
(0 0 0)
(0 0 0)
(0 0 0)
(0 0 0)
(0 0 0)
(0 0 0)
(0 0 0)
(0 0 0)
(0 0 0)
(0 0 0)
(0 0 0)
(0 0 0)
(0 0 0)
(0 0 0)
(0 0 0)
(0 0 0)
(0 0 0)
(0 0 0)
(0 0 0)
(0 0 0)
(0 1.48331e-06 0)
(0 9.35384e-06 0)
(0 2.57211e-05 0)
(0 3.96349e-05 0)
(0 4.49746e-05 0)
(0 3.96349e-05 0)
(0 2.57211e-05 0)
(0 9.35384e-06 0)
(0 1.48331e-06 0)
(0 0 0)
(0 0 0)
(0 0 0)
(0 0 0)
(0 0 0)
(0 0 0)
(0 0 0)
(0 0 0)
(0 0 0)
(0 0 0)
(0 0 0)
(0 0 0)
(0 0 0)
(0 0 0)
(0 0 0)
(0 0 0)
(0 0 0)
(0 0 0)
(0 0 0)
(0 0 0)
(0 0 0)
(0 0 0)
(0 0 0)
(0 0 0)
(0 0 0)
(0 0 0)
(0 0 0)
(0 0 0)
(0 0 0)
(0 2.48414e-06 0)
(0 3.2861e-05 0)
(0 9.67076e-05 0)
(0 0.000174213 0)
(0 0.000248498 0)
(0 0.000300285 0)
(0 0.000348427 0)
(0 0.000365366 0)
(0 0.000348427 0)
(0 0.000300285 0)
(0 0.000248498 0)
(0 0.000174213 0)
(0 9.67076e-05 0)
(0 3.2861e-05 0)
(0 2.48414e-06 0)
(0 0 0)
(0 0 0)
(0 0 0)
(0 0 0)
(0 0 0)
(0 0 0)
(0 0 0)
(0 0 0)
(0 0 0)
(0 0 0)
(0 0 0)
(0 0 0)
(0 0 0)
(0 0 0)
(0 0 0)
(0 0 0)
(0 0 0)
(0 0 0)
(0 0 0)
(0 0 0)
(0 0 0)
(0 0 0)
(0 0 0)
(0 0 0)
(0 1.04299e-06 0)
(0 4.32154e-05 0)
(0 0.000147378 0)
(0 0.000290628 0)
(0 0.000438174 0)
(0 0.000602782 0)
(0 0.000745346 0)
(0 0.000833639 0)
(0 0.000918066 0)
(0 0.000947244 0)
(0 0.000918066 0)
(0 0.000833639 0)
(0 0.000745346 0)
(0 0.000602782 0)
(0 0.000438174 0)
(0 0.000290628 0)
(0 0.000147378 0)
(0 4.32154e-05 0)
(0 1.04299e-06 0)
(0 0 0)
(0 0 0)
(0 0 0)
(0 0 0)
(0 0 0)
(0 0 0)
(0 0 0)
(0 0 0)
(0 0 0)
(0 0 0)
(0 0 0)
(0 0 0)
(0 0 0)
(0 0 0)
(0 0 0)
(0 0 0)
(0 0 0)
(0 0 0)
(0 0 0)
(0 0 0)
(0 0 0)
(0 9.86193e-06 0)
(0 0.000102559 0)
(0 0.000272555 0)
(0 0.000478201 0)
(0 0.000733532 0)
(0 0.000991058 0)
(0 0.00121415 0)
(0 0.00142314 0)
(0 0.00157144 0)
(0 0.00166005 0)
(0 0.00170072 0)
(0 0.00166005 0)
(0 0.00157144 0)
(0 0.00142314 0)
(0 0.00121415 0)
(0 0.000991058 0)
(0 0.000733532 0)
(0 0.000478201 0)
(0 0.000272555 0)
(0 0.000102559 0)
(0 1.04405e-05 0)
(0 0 0)
(0 0 0)
(0 0 0)
(0 0 0)
(0 0 0)
(0 0 0)
(0 0 0)
(0 0 0)
(0 0 0)
(0 0 0)
(0 0 0)
(0 0 0)
(0 0 0)
(0 0 0)
(0 0 0)
(0 0 0)
(0 0 0)
(0 0 0)
(0 0 0)
(0 1.93962e-05 0)
(0 0.000136006 0)
(0 0.000339454 0)
(0 0.000623185 0)
(0 0.000960391 0)
(0 0.0013108 0)
(0 0.00163236 0)
(0 0.0019372 0)
(0 0.00205175 0)
(0 0.00217563 0)
(0 0.00227924 0)
(0 0.00236088 0)
(0 0.00241926 0)
(0 0.00245963 0)
(0 0.00249692 0)
(0 0.00250941 0)
(0 0.00249692 0)
(0 0.00245963 0)
(0 0.00241926 0)
(0 0.00236088 0)
(0 0.00227924 0)
(0 0.00217563 0)
(0 0.00205175 0)
(0 0.0019372 0)
(0 0.00163236 0)
(0 0.0013108 0)
(0 0.000960391 0)
(0 0.000623185 0)
(0 0.000332408 0)
(0 0.000122895 0)
(0 1.54989e-05 0)
(0 0 0)
(0 0 0)
(0 0 0)
(0 0 0)
(0 0 0)
(0 0 0)
(0 0 0)
(0 0 0)
(0 0 0)
(0 0 0)
(0 0 0)
(0 0 0)
(0 0 0)
(0 0 0)
(0 0 0)
(0 0 0)
(0 0 0)
(0 1.14085e-05 0)
(0 0.000130559 0)
(0 0.00036376 0)
(0 0.000684488 0)
(0 0.00106017 0)
(0 0.00150219 0)
(0 0.00171354 0)
(0 0.00190087 0)
(0 0.00210821 0)
(0 0.00230256 0)
(0 0.00248037 0)
(0 0.00263142 0)
(0 0.00229333 0)
(0 0.00243335 0)
(0 0.00254385 0)
(0 0.00265531 0)
(0 0.00274275 0)
(0 0.00280506 0)
(0 0.00284241 0)
(0 0.002882 0)
(0 0.00289524 0)
(0 0.002882 0)
(0 0.00284241 0)
(0 0.00280506 0)
(0 0.00274275 0)
(0 0.00265531 0)
(0 0.00254385 0)
(0 0.00243335 0)
(0 0.00229333 0)
(0 0.00263142 0)
(0 0.00248037 0)
(0 0.00230256 0)
(0 0.00210821 0)
(0 0.00190087 0)
(0 0.00171354 0)
(0 0.00150219 0)
(0 0.00106017 0)
(0 0.000684488 0)
(0 0.000350491 0)
(0 0.000124878 0)
(0 1.03606e-05 0)
(0 0 0)
(0 0 0)
(0 0 0)
(0 0 0)
(0 0 0)
(0 0 0)
(0 0 0)
(0 0 0)
(0 0 0)
(0 0 0)
(0 0 0)
(0 0 0)
(0 0 0)
(0 0 0)
(0 0 0)
(0 0 0)
(0 7.21839e-05 0)
(0 0.00029499 0)
(0 0.000630648 0)
(0 0.00105227 0)
(0 0.00152187 0)
(0 0.00199903 0)
(0 0.00175951 0)
(0 0.00198934 0)
(0 0.0022105 0)
(0 0.00241874 0)
(0 0.00260375 0)
(0 0.00279138 0)
(0 0.00295719 0)
(0 0.00309417 0)
(0 0.00278021 0)
(0 0.00290553 0)
(0 0.00322333 0)
(0 0.00331634 0)
(0 0.00300523 0)
(0 0.00309645 0)
(0 0.00340884 0)
(0 0.00347395 0)
(0 0.00316116 0)
(0 0.00319395 0)
(0 0.00351168 0)
(0 0.00354163 0)
(0 0.00323478 0)
(0 0.0032484 0)
(0 0.00355516 0)
(0 0.00354163 0)
(0 0.00323478 0)
(0 0.00319395 0)
(0 0.00351168 0)
(0 0.00347395 0)
(0 0.00316116 0)
(0 0.00309645 0)
(0 0.00340884 0)
(0 0.00331634 0)
(0 0.00300523 0)
(0 0.00290553 0)
(0 0.00322333 0)
(0 0.00309417 0)
(0 0.00278021 0)
(0 0.00295719 0)
(0 0.00279138 0)
(0 0.00260375 0)
(0 0.00241874 0)
(0 0.0022105 0)
(0 0.00198934 0)
(0 0.00175951 0)
(0 0.00199903 0)
(0 0.00152187 0)
(0 0.00103961 0)
(0 0.00062567 0)
(0 0.000294675 0)
(0 7.84754e-05 0)
(0 0 0)
(0 0 0)
(0 0 0)
(0 0 0)
(0 0 0)
(0 0 0)
(0 0 0)
(0 0 0)
(0 0 0)
(0 0 0)
(0 0 0)
(0 0 0)
(0 0 0)
(0 0 0)
(0 0 0)
(0 1.57468e-05 0)
(0 0.000161778 0)
(0 0.000466323 0)
(0 0.000873702 0)
(0 0.001358 0)
(0 0.00191287 0)
(0 0.00244733 0)
(0 0.00223933 0)
(0 0.00248145 0)
(0 0.00222814 0)
(0 0.00247734 0)
(0 0.00270904 0)
(0 0.00293735 0)
(0 0.00269665 0)
(0 0.00289694 0)
(0 0.00314319 0)
(0 0.00323705 0)
(0 0.00332442 0)
(0 0.00320562 0)
(0 0.00306601 0)
(0 0.00323615 0)
(0 0.00335817 0)
(0 0.00343354 0)
(0 0.00331149 0)
(0 0.00349474 0)
(0 0.00361048 0)
(0 0.00366404 0)
(0 0.00354911 0)
(0 0.00366893 0)
(0 0.00378217 0)
(0 0.00381039 0)
(0 0.00370381 0)
(0 0.0037679 0)
(0 0.00387166 0)
(0 0.00388643 0)
(0 0.00378507 0)
(0 0.00380352 0)
(0 0.00390269 0)
(0 0.0038997 0)
(0 0.00380034 0)
(0 0.0037679 0)
(0 0.00387166 0)
(0 0.00385766 0)
(0 0.00375318 0)
(0 0.00366893 0)
(0 0.00378217 0)
(0 0.00374975 0)
(0 0.0036368 0)
(0 0.00349474 0)
(0 0.00361048 0)
(0 0.0035632 0)
(0 0.00343335 0)
(0 0.00323615 0)
(0 0.00335817 0)
(0 0.00327595 0)
(0 0.00315425 0)
(0 0.00289694 0)
(0 0.00314319 0)
(0 0.00293735 0)
(0 0.00269665 0)
(0 0.00247734 0)
(0 0.00270904 0)
(0 0.00248145 0)
(0 0.00222814 0)
(0 0.00223933 0)
(0 0.0024363 0)
(0 0.00191155 0)
(0 0.00137989 0)
(0 0.000866365 0)
(0 0.000461783 0)
(0 0.000169886 0)
(0 1.80073e-05 0)
(0 0 0)
(0 0 0)
(0 0 0)
(0 0 0)
(0 0 0)
(0 0 0)
(0 0 0)
(0 0 0)
(0 0 0)
(0 0 0)
(0 0 0)
(0 0 0)
(0 0 0)
(0 0 0)
(0 5.152e-05 0)
(0 0.000260746 0)
(0 0.000612635 0)
(0 0.00107648 0)
(0 0.00161252 0)
(0 0.00220212 0)
(0 0.00275238 0)
(0 0.00261661 0)
(0 0.00287555 0)
(0 0.00269932 0)
(0 0.0029346 0)
(0 0.0031157 0)
(0 0.00333259 0)
(0 0.00314891 0)
(0 0.00333876 0)
(0 0.00343709 0)
(0 0.00352168 0)
(0 0.00343698 0)
(0 0.00367594 0)
(0 0.00371663 0)
(0 0.00374946 0)
(0 0.00370914 0)
(0 0.00389135 0)
(0 0.00392389 0)
(0 0.00394502 0)
(0 0.00391314 0)
(0 0.00401886 0)
(0 0.00404258 0)
(0 0.00405334 0)
(0 0.00402945 0)
(0 0.00407475 0)
(0 0.00409214 0)
(0 0.00409462 0)
(0 0.00407773 0)
(0 0.00408904 0)
(0 0.00410305 0)
(0 0.00410281 0)
(0 0.0040887 0)
(0 0.00407475 0)
(0 0.00409214 0)
(0 0.00408871 0)
(0 0.00407068 0)
(0 0.00401886 0)
(0 0.00404258 0)
(0 0.00403356 0)
(0 0.00400612 0)
(0 0.00389135 0)
(0 0.00392389 0)
(0 0.0039055 0)
(0 0.00386764 0)
(0 0.00367594 0)
(0 0.00371663 0)
(0 0.00375385 0)
(0 0.00368301 0)
(0 0.0036038 0)
(0 0.00333876 0)
(0 0.00343709 0)
(0 0.00352252 0)
(0 0.00333259 0)
(0 0.00314891 0)
(0 0.0029346 0)
(0 0.00310859 0)
(0 0.0028737 0)
(0 0.00269932 0)
(0 0.00261974 0)
(0 0.00276053 0)
(0 0.00219658 0)
(0 0.00162859 0)
(0 0.00108777 0)
(0 0.000619732 0)
(0 0.000264466 0)
(0 5.27909e-05 0)
(0 0 0)
(0 0 0)
(0 0 0)
(0 0 0)
(0 0 0)
(0 0 0)
(0 0 0)
(0 0 0)
(0 0 0)
(0 0 0)
(0 0 0)
(0 0 0)
(0 0 0)
(0 0 0)
(0 7.94424e-05 0)
(0 0.000323918 0)
(0 0.000712819 0)
(0 0.00121331 0)
(0 0.00178322 0)
(0 0.00237469 0)
(0 0.00293819 0)
(0 0.00286838 0)
(0 0.00312527 0)
(0 0.00300601 0)
(0 0.00323858 0)
(0 0.00335931 0)
(0 0.00356591 0)
(0 0.00346612 0)
(0 0.00365419 0)
(0 0.00370065 0)
(0 0.00378158 0)
(0 0.0037362 0)
(0 0.00393109 0)
(0 0.00395255 0)
(0 0.00397677 0)
(0 0.00395598 0)
(0 0.00408045 0)
(0 0.00409081 0)
(0 0.00409947 0)
(0 0.00409032 0)
(0 0.00411622 0)
(0 0.00411622 0)
(0 0.00411622 0)
(0 0.00411622 0)
(0 0.00411622 0)
(0 0.00411622 0)
(0 0.00411622 0)
(0 0.00411622 0)
(0 0.00411622 0)
(0 0.00411622 0)
(0 0.00411622 0)
(0 0.00411622 0)
(0 0.00411622 0)
(0 0.00411622 0)
(0 0.00411622 0)
(0 0.00411622 0)
(0 0.00411622 0)
(0 0.00411622 0)
(0 0.00411622 0)
(0 0.00411622 0)
(0 0.00408045 0)
(0 0.00409081 0)
(0 0.0040794 0)
(0 0.00406859 0)
(0 0.00393109 0)
(0 0.00395255 0)
(0 0.00397089 0)
(0 0.0039149 0)
(0 0.00387479 0)
(0 0.00365207 0)
(0 0.00370604 0)
(0 0.00374726 0)
(0 0.00356096 0)
(0 0.0034692 0)
(0 0.00325703 0)
(0 0.00335514 0)
(0 0.00312195 0)
(0 0.0030193 0)
(0 0.00286594 0)
(0 0.00293966 0)
(0 0.00237372 0)
(0 0.00178039 0)
(0 0.00120941 0)
(0 0.00070876 0)
(0 0.00032056 0)
(0 7.75353e-05 0)
(0 0 0)
(0 0 0)
(0 0 0)
(0 0 0)
(0 0 0)
(0 0 0)
(0 0 0)
(0 0 0)
(0 0 0)
(0 0 0)
(0 0 0)
(0 0 0)
(0 0 0)
(0 0 0)
(0 8.42268e-05 0)
(0 0.000334273 0)
(0 0.000729142 0)
(0 0.00123565 0)
(0 0.00181125 0)
(0 0.00240757 0)
(0 0.00297451 0)
(0 0.00297555 0)
(0 0.00323271 0)
(0 0.0031946 0)
(0 0.0034269 0)
(0 0.00346506 0)
(0 0.00366771 0)
(0 0.00363039 0)
(0 0.0038075 0)
(0 0.00382462 0)
(0 0.00389563 0)
(0 0.0038802 0)
(0 0.00404049 0)
(0 0.00404709 0)
(0 0.00406461 0)
(0 0.00405852 0)
(0 0.00411622 0)
(0 0.00411622 0)
(0 0.00411622 0)
(0 0.00411622 0)
(0 0.00411622 0)
(0 0.00411622 0)
(0 0.00411622 0)
(0 0.00411622 0)
(0 0.00411622 0)
(0 0.00411622 0)
(0 0.00411622 0)
(0 0.00411622 0)
(0 0.00411622 0)
(0 0.00411622 0)
(0 0.00411622 0)
(0 0.00411622 0)
(0 0.00411622 0)
(0 0.00411605 0)
(0 0.00411546 0)
(0 0.00404049 0)
(0 0.00404709 0)
(0 0.00405144 0)
(0 0.00401028 0)
(0 0.00399576 0)
(0 0.00380727 0)
(0 0.00382486 0)
(0 0.00383638 0)
(0 0.00366771 0)
(0 0.00363566 0)
(0 0.00343099 0)
(0 0.00345633 0)
(0 0.00322269 0)
(0 0.00319738 0)
(0 0.00296445 0)
(0 0.00296786 0)
(0 0.00240016 0)
(0 0.00180373 0)
(0 0.00122867 0)
(0 0.000723302 0)
(0 0.000330084 0)
(0 8.20563e-05 0)
(0 0 0)
(0 0 0)
(0 0 0)
(0 0 0)
(0 0 0)
(0 0 0)
(0 0 0)
(0 0 0)
(0 0 0)
(0 0 0)
(0 0 0)
(0 0 0)
(0 0 0)
(0 0 0)
(0 6.88328e-05 0)
(0 0.000300828 0)
(0 0.000676793 0)
(0 0.00116466 0)
(0 0.00172312 0)
(0 0.00230522 0)
(0 0.0028625 0)
(0 0.00294293 0)
(0 0.00319966 0)
(0 0.00323187 0)
(0 0.00346444 0)
(0 0.0034322 0)
(0 0.0036358 0)
(0 0.00366732 0)
(0 0.00383622 0)
(0 0.00382719 0)
(0 0.00389818 0)
(0 0.00390679 0)
(0 0.00405866 0)
(0 0.00405652 0)
(0 0.00407295 0)
(0 0.00407489 0)
(0 0.00411622 0)
(0 0.00411622 0)
(0 0.00411622 0)
(0 0.00411622 0)
(0 0.00411622 0)
(0 0.00411622 0)
(0 0.00411622 0)
(0 0.00411622 0)
(0 0.00411622 0)
(0 0.00411622 0)
(0 0.00411622 0)
(0 0.00411622 0)
(0 0.00411622 0)
(0 0.00411622 0)
(0 0.00411622 0)
(0 0.00411622 0)
(0 0.00405866 0)
(0 0.00405476 0)
(0 0.00405262 0)
(0 0.00401156 0)
(0 0.00401623 0)
(0 0.00383265 0)
(0 0.0038269 0)
(0 0.00380944 0)
(0 0.00363829 0)
(0 0.00366283 0)
(0 0.00345911 0)
(0 0.00343402 0)
(0 0.00320075 0)
(0 0.00322581 0)
(0 0.00294329 0)
(0 0.00286977 0)
(0 0.00231056 0)
(0 0.00172661 0)
(0 0.00116658 0)
(0 0.000677557 0)
(0 0.000300902 0)
(0 6.86826e-05 0)
(0 0 0)
(0 0 0)
(0 0 0)
(0 0 0)
(0 0 0)
(0 0 0)
(0 0 0)
(0 0 0)
(0 0 0)
(0 0 0)
(0 0 0)
(0 0 0)
(0 0 0)
(0 0 0)
(0 3.48146e-05 0)
(0 0.000218677 0)
(0 0.000543915 0)
(0 0.00098132 0)
(0 0.00152568 0)
(0 0.00208231 0)
(0 0.00262526 0)
(0 0.00276925 0)
(0 0.00302663 0)
(0 0.00311736 0)
(0 0.00336468 0)
(0 0.00326281 0)
(0 0.00347331 0)
(0 0.00357447 0)
(0 0.00375264 0)
(0 0.00370994 0)
(0 0.00378738 0)
(0 0.00382885 0)
(0 0.00400273 0)
(0 0.00399058 0)
(0 0.00401267 0)
(0 0.00402563 0)
(0 0.00411124 0)
(0 0.00410702 0)
(0 0.00411206 0)
(0 0.00411467 0)
(0 0.00411622 0)
(0 0.00411622 0)
(0 0.00411622 0)
(0 0.00411622 0)
(0 0.00411622 0)
(0 0.00411622 0)
(0 0.00411622 0)
(0 0.00411622 0)
(0 0.00411124 0)
(0 0.0041064 0)
(0 0.00409971 0)
(0 0.00410569 0)
(0 0.00400273 0)
(0 0.00399058 0)
(0 0.00397407 0)
(0 0.00392172 0)
(0 0.00395405 0)
(0 0.00375264 0)
(0 0.00370994 0)
(0 0.00366145 0)
(0 0.00347331 0)
(0 0.00357447 0)
(0 0.00335841 0)
(0 0.00326281 0)
(0 0.00302663 0)
(0 0.00312554 0)
(0 0.00276925 0)
(0 0.00262526 0)
(0 0.00208231 0)
(0 0.00150601 0)
(0 0.000990966 0)
(0 0.000550241 0)
(0 0.00022214 0)
(0 3.59846e-05 0)
(0 0 0)
(0 0 0)
(0 0 0)
(0 0 0)
(0 0 0)
(0 0 0)
(0 0 0)
(0 0 0)
(0 0 0)
(0 0 0)
(0 0 0)
(0 0 0)
(0 0 0)
(0 0 0)
(0 4.30779e-06 0)
(0 0.000127876 0)
(0 0.000389396 0)
(0 0.000765713 0)
(0 0.00122242 0)
(0 0.00171944 0)
(0 0.00224098 0)
(0 0.00243874 0)
(0 0.00270392 0)
(0 0.00287781 0)
(0 0.00312346 0)
(0 0.00293609 0)
(0 0.0031686 0)
(0 0.00333708 0)
(0 0.00353337 0)
(0 0.00345466 0)
(0 0.00354137 0)
(0 0.0036194 0)
(0 0.00383006 0)
(0 0.00379501 0)
(0 0.00382688 0)
(0 0.003856 0)
(0 0.00401623 0)
(0 0.00399318 0)
(0 0.00401 0)
(0 0.00403216 0)
(0 0.00409948 0)
(0 0.00408659 0)
(0 0.00409225 0)
(0 0.00410402 0)
(0 0.00411622 0)
(0 0.00411393 0)
(0 0.00411482 0)
(0 0.00411622 0)
(0 0.00411622 0)
(0 0.00411622 0)
(0 0.00411622 0)
(0 0.00411622 0)
(0 0.00411622 0)
(0 0.00411622 0)
(0 0.00411393 0)
(0 0.00411267 0)
(0 0.00411608 0)
(0 0.00411618 0)
(0 0.00409948 0)
(0 0.00408659 0)
(0 0.00407959 0)
(0 0.00409363 0)
(0 0.00401623 0)
(0 0.00399318 0)
(0 0.00397443 0)
(0 0.00399832 0)
(0 0.00383288 0)
(0 0.0038007 0)
(0 0.00376204 0)
(0 0.0036981 0)
(0 0.00376762 0)
(0 0.00352367 0)
(0 0.00345066 0)
(0 0.00336538 0)
(0 0.00316425 0)
(0 0.00333708 0)
(0 0.00312346 0)
(0 0.00293609 0)
(0 0.00270392 0)
(0 0.00287781 0)
(0 0.00243874 0)
(0 0.00224098 0)
(0 0.00171944 0)
(0 0.00122242 0)
(0 0.000765713 0)
(0 0.000389396 0)
(0 0.000119283 0)
(0 5.17444e-06 0)
(0 0 0)
(0 0 0)
(0 0 0)
(0 0 0)
(0 0 0)
(0 0 0)
(0 0 0)
(0 0 0)
(0 0 0)
(0 0 0)
(0 0 0)
(0 0 0)
(0 0 0)
(0 0 0)
(0 0 0)
(0 3.93054e-05 0)
(0 0.000207125 0)
(0 0.000487318 0)
(0 0.000850658 0)
(0 0.00130463 0)
(0 0.00177401 0)
(0 0.00199543 0)
(0 0.00225672 0)
(0 0.00248015 0)
(0 0.00272238 0)
(0 0.00249194 0)
(0 0.00271187 0)
(0 0.00295005 0)
(0 0.00315619 0)
(0 0.00291264 0)
(0 0.00308071 0)
(0 0.00322027 0)
(0 0.00333757 0)
(0 0.00325015 0)
(0 0.00349356 0)
(0 0.0033716 0)
(0 0.00344698 0)
(0 0.00356253 0)
(0 0.0037352 0)
(0 0.00363064 0)
(0 0.00367246 0)
(0 0.00378084 0)
(0 0.00388821 0)
(0 0.00379554 0)
(0 0.00382276 0)
(0 0.00391388 0)
(0 0.00396756 0)
(0 0.00388205 0)
(0 0.00389714 0)
(0 0.00397807 0)
(0 0.00399214 0)
(0 0.00391318 0)
(0 0.00390909 0)
(0 0.00398891 0)
(0 0.00396756 0)
(0 0.00388205 0)
(0 0.00386064 0)
(0 0.00395107 0)
(0 0.00388821 0)
(0 0.00379554 0)
(0 0.00376152 0)
(0 0.00385583 0)
(0 0.0037352 0)
(0 0.00363064 0)
(0 0.00357656 0)
(0 0.00368228 0)
(0 0.00349356 0)
(0 0.0033716 0)
(0 0.00330081 0)
(0 0.00341821 0)
(0 0.00315619 0)
(0 0.00291264 0)
(0 0.00271187 0)
(0 0.00295005 0)
(0 0.00272238 0)
(0 0.00249194 0)
(0 0.00225672 0)
(0 0.00248015 0)
(0 0.00199543 0)
(0 0.00177401 0)
(0 0.00130463 0)
(0 0.000850658 0)
(0 0.000487318 0)
(0 0.000207125 0)
(0 3.93054e-05 0)
(0 0 0)
(0 0 0)
(0 0 0)
(0 0 0)
(0 0 0)
(0 0 0)
(0 0 0)
(0 0 0)
(0 0 0)
(0 0 0)
(0 0 0)
(0 0 0)
(0 0 0)
(0 0 0)
(0 0 0)
(0 0 0)
(0 0 0)
(0 5.92315e-05 0)
(0 0.000244581 0)
(0 0.000524313 0)
(0 0.000871234 0)
(0 0.00125123 0)
(0 0.00162634 0)
(0 0.00191743 0)
(0 0.00222697 0)
(0 0.00200489 0)
(0 0.00212575 0)
(0 0.00243601 0)
(0 0.00262039 0)
(0 0.00232095 0)
(0 0.00249947 0)
(0 0.00280856 0)
(0 0.00297477 0)
(0 0.00282096 0)
(0 0.00288033 0)
(0 0.0030489 0)
(0 0.00323805 0)
(0 0.00308683 0)
(0 0.00314294 0)
(0 0.0032946 0)
(0 0.00342348 0)
(0 0.00327138 0)
(0 0.00329645 0)
(0 0.00345274 0)
(0 0.00353467 0)
(0 0.0033886 0)
(0 0.00340566 0)
(0 0.00355158 0)
(0 0.00357147 0)
(0 0.00342633 0)
(0 0.00341931 0)
(0 0.0035651 0)
(0 0.00353467 0)
(0 0.0033886 0)
(0 0.00336471 0)
(0 0.00351092 0)
(0 0.00342348 0)
(0 0.00327138 0)
(0 0.00323529 0)
(0 0.00338736 0)
(0 0.00323805 0)
(0 0.00308683 0)
(0 0.00302424 0)
(0 0.00317483 0)
(0 0.00297477 0)
(0 0.00282096 0)
(0 0.0026432 0)
(0 0.00249947 0)
(0 0.00280856 0)
(0 0.00262039 0)
(0 0.00232095 0)
(0 0.00212575 0)
(0 0.00243601 0)
(0 0.00222697 0)
(0 0.00191743 0)
(0 0.00162634 0)
(0 0.00125123 0)
(0 0.00200489 0)
(0 0.000871234 0)
(0 0.000524313 0)
(0 0.000244581 0)
(0 5.92315e-05 0)
(0 0 0)
(0 0 0)
(0 0 0)
(0 0 0)
(0 0 0)
(0 0 0)
(0 0 0)
(0 0 0)
(0 0 0)
(0 0 0)
(0 0 0)
(0 0 0)
(0 0 0)
(0 0 0)
(0 0 0)
(0 0 0)
(0 0 0)
(0 0 0)
(0 7.51131e-07 0)
(0 6.7289e-05 0)
(0 0.00022802 0)
(0 0.000446838 0)
(0 0.000731378 0)
(0 0.00103484 0)
(0 0.00132824 0)
(0 0.00149952 0)
(0 0.00181745 0)
(0 0.00199769 0)
(0 0.0016439 0)
(0 0.0018068 0)
(0 0.00214621 0)
(0 0.00230905 0)
(0 0.00213407 0)
(0 0.00220569 0)
(0 0.00238352 0)
(0 0.00257547 0)
(0 0.00239082 0)
(0 0.00244177 0)
(0 0.00262816 0)
(0 0.00274756 0)
(0 0.00256266 0)
(0 0.00260382 0)
(0 0.00278992 0)
(0 0.00287869 0)
(0 0.00269022 0)
(0 0.00270635 0)
(0 0.00289524 0)
(0 0.00291704 0)
(0 0.00272816 0)
(0 0.00271929 0)
(0 0.0029085 0)
(0 0.00287869 0)
(0 0.00269022 0)
(0 0.00266771 0)
(0 0.00285558 0)
(0 0.00274756 0)
(0 0.00256266 0)
(0 0.00251552 0)
(0 0.00271547 0)
(0 0.00257547 0)
(0 0.00239082 0)
(0 0.00233434 0)
(0 0.00251699 0)
(0 0.00230905 0)
(0 0.00213407 0)
(0 0.00195592 0)
(0 0.0018068 0)
(0 0.00214621 0)
(0 0.00199769 0)
(0 0.0016439 0)
(0 0.00149952 0)
(0 0.00181745 0)
(0 0.00132824 0)
(0 0.00103484 0)
(0 0.000731378 0)
(0 0.000446838 0)
(0 0.00022802 0)
(0 6.7289e-05 0)
(0 7.51131e-07 0)
(0 0 0)
(0 0 0)
(0 0 0)
(0 0 0)
(0 0 0)
(0 0 0)
(0 0 0)
(0 0 0)
(0 0 0)
(0 0 0)
(0 0 0)
(0 0 0)
(0 0 0)
(0 0 0)
(0 0 0)
(0 0 0)
(0 0 0)
(0 0 0)
(0 0 0)
(0 0 0)
(0 3.53379e-05 0)
(0 0.000147181 0)
(0 0.00029816 0)
(0 0.000502045 0)
(0 0.000742349 0)
(0 0.000875352 0)
(0 0.0011664 0)
(0 0.00131915 0)
(0 0.00100569 0)
(0 0.00113009 0)
(0 0.00146368 0)
(0 0.00159683 0)
(0 0.00141934 0)
(0 0.00147689 0)
(0 0.00165825 0)
(0 0.00181816 0)
(0 0.00162711 0)
(0 0.00165452 0)
(0 0.00184286 0)
(0 0.00198191 0)
(0 0.00178582 0)
(0 0.00182016 0)
(0 0.00201822 0)
(0 0.00209472 0)
(0 0.00189263 0)
(0 0.00190622 0)
(0 0.00210905 0)
(0 0.00212994 0)
(0 0.00192649 0)
(0 0.00191713 0)
(0 0.00212056 0)
(0 0.00209472 0)
(0 0.00189263 0)
(0 0.0018737 0)
(0 0.00207474 0)
(0 0.00198191 0)
(0 0.00178582 0)
(0 0.00174663 0)
(0 0.00194045 0)
(0 0.00181816 0)
(0 0.00162711 0)
(0 0.00158105 0)
(0 0.00176919 0)
(0 0.00159683 0)
(0 0.00141934 0)
(0 0.00124553 0)
(0 0.00113009 0)
(0 0.00146368 0)
(0 0.00131915 0)
(0 0.00100569 0)
(0 0.000875352 0)
(0 0.0011664 0)
(0 0.000742349 0)
(0 0.000502045 0)
(0 0.00029816 0)
(0 0.000147181 0)
(0 3.53379e-05 0)
(0 0 0)
(0 0 0)
(0 0 0)
(0 0 0)
(0 0 0)
(0 0 0)
(0 0 0)
(0 0 0)
(0 0 0)
(0 0 0)
(0 0 0)
(0 0 0)
(0 0 0)
(0 0 0)
(0 0 0)
(0 0 0)
(0 0 0)
(0 0 0)
(0 0 0)
(0 0 0)
(0 0 0)
(0 0 0)
(0 0 0)
(0 3.0093e-06 0)
(0 5.10448e-05 0)
(0 0.000142459 0)
(0 0.000298848 0)
(0 0.00038021 0)
(0 0.00060946 0)
(0 0.000716219 0)
(0 0.000462825 0)
(0 0.000543901 0)
(0 0.000819273 0)
(0 0.00091579 0)
(0 0.000763174 0)
(0 0.000803772 0)
(0 0.000960785 0)
(0 0.00106916 0)
(0 0.000904859 0)
(0 0.00094295 0)
(0 0.00111101 0)
(0 0.00121649 0)
(0 0.00103921 0)
(0 0.0010646 0)
(0 0.00124424 0)
(0 0.00130303 0)
(0 0.00111846 0)
(0 0.0011286 0)
(0 0.00131408 0)
(0 0.00133174 0)
(0 0.00114515 0)
(0 0.00113675 0)
(0 0.00132297 0)
(0 0.00130303 0)
(0 0.00111846 0)
(0 0.00110435 0)
(0 0.00128764 0)
(0 0.00121649 0)
(0 0.00103921 0)
(0 0.00101034 0)
(0 0.0011849 0)
(0 0.00106916 0)
(0 0.000904859 0)
(0 0.000864164 0)
(0 0.00102436 0)
(0 0.00091579 0)
(0 0.000763174 0)
(0 0.000620824 0)
(0 0.000543901 0)
(0 0.000819273 0)
(0 0.000716219 0)
(0 0.000462825 0)
(0 0.00038021 0)
(0 0.00060946 0)
(0 0.000298848 0)
(0 0.000142459 0)
(0 5.10448e-05 0)
(0 3.0093e-06 0)
(0 0 0)
(0 0 0)
(0 0 0)
(0 0 0)
(0 0 0)
(0 0 0)
(0 0 0)
(0 0 0)
(0 0 0)
(0 0 0)
(0 0 0)
(0 0 0)
(0 0 0)
(0 0 0)
(0 0 0)
(0 0 0)
(0 0 0)
(0 0 0)
(0 0 0)
(0 0 0)
(0 0 0)
(0 0 0)
(0 0 0)
(0 0 0)
(0 0 0)
(0 0 0)
(0 5.45496e-07 0)
(0 4.09828e-05 0)
(0 7.13847e-05 0)
(0 0.000197942 0)
(0 0.000256461 0)
(0 0.000106443 0)
(0 0.000143934 0)
(0 0.000315499 0)
(0 0.000372684 0)
(0 0.00025654 0)
(0 0.000282802 0)
(0 0.000386766 0)
(0 0.000474883 0)
(0 0.000357389 0)
(0 0.000380029 0)
(0 0.000501391 0)
(0 0.00056918 0)
(0 0.000438283 0)
(0 0.000453882 0)
(0 0.000587241 0)
(0 0.00062578 0)
(0 0.000487267 0)
(0 0.000493597 0)
(0 0.000633071 0)
(0 0.000645749 0)
(0 0.000504835 0)
(0 0.000498695 0)
(0 0.000638939 0)
(0 0.00062578 0)
(0 0.000487267 0)
(0 0.000478483 0)
(0 0.000615655 0)
(0 0.00056918 0)
(0 0.000438283 0)
(0 0.000420665 0)
(0 0.000548737 0)
(0 0.000474883 0)
(0 0.000357389 0)
(0 0.000333481 0)
(0 0.000446778 0)
(0 0.000372684 0)
(0 0.00025654 0)
(0 0.000172512 0)
(0 0.000143934 0)
(0 0.000315499 0)
(0 0.000256461 0)
(0 0.000106443 0)
(0 7.13847e-05 0)
(0 0.000197942 0)
(0 4.09828e-05 0)
(0 5.45496e-07 0)
(0 0 0)
(0 0 0)
(0 0 0)
(0 0 0)
(0 0 0)
(0 0 0)
(0 0 0)
(0 0 0)
(0 0 0)
(0 0 0)
(0 0 0)
(0 0 0)
(0 0 0)
(0 0 0)
(0 0 0)
(0 0 0)
(0 0 0)
(0 0 0)
(0 0 0)
(0 0 0)
(0 0 0)
(0 0 0)
(0 0 0)
(0 0 0)
(0 0 0)
(0 0 0)
(0 0 0)
(0 0 0)
(0 0 0)
(0 0 0)
(0 0 0)
(0 2.0034e-05 0)
(0 7.24605e-06 0)
(0 0 0)
(0 3.15033e-05 0)
(0 5.26303e-05 0)
(0 1.61127e-06 0)
(0 7.04278e-06 0)
(0 7.58445e-05 0)
(0 9.93672e-05 0)
(0 1.48506e-05 0)
(0 2.36465e-05 0)
(0 0.000121594 0)
(0 0.00014113 0)
(0 3.22183e-05 0)
(0 3.95598e-05 0)
(0 0.000156824 0)
(0 0.000167789 0)
(0 4.48951e-05 0)
(0 4.76965e-05 0)
(0 0.000173424 0)
(0 0.000177933 0)
(0 5.00897e-05 0)
(0 4.76965e-05 0)
(0 0.000173424 0)
(0 0.000167789 0)
(0 4.48951e-05 0)
(0 3.95598e-05 0)
(0 0.000156824 0)
(0 0.00014113 0)
(0 3.22183e-05 0)
(0 2.36465e-05 0)
(0 0.000121594 0)
(0 9.93672e-05 0)
(0 1.48506e-05 0)
(0 7.04278e-06 0)
(0 7.58445e-05 0)
(0 5.26303e-05 0)
(0 1.61127e-06 0)
(0 0 0)
(0 3.15033e-05 0)
(0 2.0034e-05 0)
(0 0 0)
(0 0 0)
(0 0 0)
(0 7.24605e-06 0)
(0 0 0)
(0 0 0)
(0 0 0)
(0 0 0)
(0 0 0)
(0 0 0)
(0 0 0)
(0 0 0)
(0 0 0)
(0 0 0)
(0 0 0)
(0 0 0)
(0 0 0)
(0 0 0)
(0 0 0)
(0 0 0)
(0 0 0)
(0 0 0)
(0 0 0)
(0 0 0)
(0 0 0)
(0 0 0)
(0 0 0)
(0 0 0)
(0 0 0)
(0 0 0)
(0 0 0)
(0 0 0)
(0 0 0)
(0 0 0)
(0 0 0)
(0 0 0)
(0 0 0)
(0 0 0)
(0 0 0)
(0 0 0)
(0 0 0)
(0 0 0)
(0 0 0)
(0 0 0)
(0 1.44803e-07 0)
(0 0 0)
(0 0 0)
(0 5.57251e-07 0)
(0 3.31556e-07 0)
(0 0 0)
(0 1.44803e-07 0)
(0 3.31556e-07 0)
(0 0 0)
(0 0 0)
(0 0 0)
(0 0 0)
(0 0 0)
(0 0 0)
(0 0 0)
(0 0 0)
(0 0 0)
(0 0 0)
(0 0 0)
(0 0 0)
(0 0 0)
(0 0 0)
(0 0 0)
(0 0 0)
(0 0 0)
(0 0 0)
(0 0 0)
(0 0 0)
(0 0 0)
(0 0 0)
(0 0 0)
(0 0 0)
(0 0 0)
(0 0 0)
(0 0 0)
(0 0 0)
(0 0 0)
(0 0 0)
(0 0 0)
(0 0 0)
(0 0 0)
(0 0 0)
(0 0 0)
(0 0 0)
(0 0 0)
(0 0 0)
(0 0 0)
(0 0 0)
(0 0 0)
(0 0 0)
(0 0 0)
(0 0 0)
(0 0 0)
(0 0 0)
(0 0 0)
(0 0 0)
(0 0 0)
(0 0 0)
(0 0 0)
(0 0 0)
(0 0 0)
(0 0 0)
(0 0 0)
(0 0 0)
(0 0 0)
(0 0 0)
(0 0 0)
(0 0 0)
(0 0 0)
(0 0 0)
(0 0 0)
(0 0 0)
(0 0 0)
(0 0 0)
(0 0 0)
(0 0 0)
(0 0 0)
(0 0 0)
(0 0 0)
(0 0 0)
(0 0 0)
(0 0 0)
(0 0 0)
(0 0 0)
(0 0 0)
(0 0 0)
(0 0 0)
(0 0 0)
(0 0 0)
(0 0 0)
(0 0 0)
(0 0 0)
(0 0 0)
(0 0 0)
(0 0 0)
(0 0 0)
(0 0 0)
(0 0 0)
(0 0 0)
(0 0 0)
(0 0 0)
(0 0 0)
(0 0 0)
(0 0 0)
(0 0 0)
(0 0 0)
(0 0 0)
(0 0 0)
(0 0 0)
(0 0 0)
(0 0 0)
(0 0 0)
(0 0 0)
(0 0 0)
(0 0 0)
(0 0 0)
(0 0 0)
(0 0 0)
(0 0 0)
(0 0 0)
(0 0 0)
(0 0 0)
(0 0 0)
(0 0 0)
(0 0 0)
(0 0 0)
(0 0 0)
(0 0 0)
(0 0 0)
(0 0 0)
(0 0 0)
(0 0 0)
(0 0 0)
(0 0 0)
(0 0 0)
(0 0 0)
(0 0 0)
(0 0 0)
(0 0 0)
(0 0 0)
(0 0 0)
(0 0 0)
(0 0 0)
(0 0 0)
(0 0 0)
(0 0 0)
(0 0 0)
(0 0 0)
(0 0 0)
(0 0 0)
(0 0 0)
(0 0 0)
(0 0 0)
(0 0 0)
(0 0 0)
(0 0 0)
(0 0 0)
(0 0 0)
(0 0 0)
(0 0 0)
(0 0 0)
(0 0 0)
(0 0 0)
(0 0 0)
(0 0 0)
(0 0 0)
(0 0 0)
(0 0 0)
(0 0 0)
(0 0 0)
(0 0 0)
(0 0 0)
(0 0 0)
(0 0 0)
(0 0 0)
(0 0 0)
(0 0 0)
(0 0 0)
(0 0 0)
(0 0 0)
(0 0 0)
(0 0 0)
(0 0 0)
(0 0 0)
(0 0 0)
(0 0 0)
(0 0 0)
(0 0 0)
(0 0 0)
(0 0 0)
(0 0 0)
(0 0 0)
(0 0 0)
(0 0 0)
(0 0 0)
(0 0 0)
(0 0 0)
(0 0 0)
(0 0 0)
(0 0 0)
(0 0 0)
(0 0 0)
(0 0 0)
(0 0 0)
(0 0 0)
(0 0 0)
(0 0 0)
(0 0 0)
(0 0 0)
(0 0 0)
(0 0 0)
(0 0 0)
(0 0 0)
(0 0 0)
(0 0 0)
(0 0 0)
(0 0 0)
(0 0 0)
(0 0 0)
(0 0 0)
(0 0 0)
(0 0 0)
(0 0 0)
(0 0 0)
(0 0 0)
(0 0 0)
(0 0 0)
(0 0 0)
(0 0 0)
(0 0 0)
(0 0 0)
(0 0 0)
(0 0 0)
(0 0 0)
(0 0 0)
(0 0 0)
(0 0 0)
(0 0 0)
(0 0 0)
(0 0 0)
(0 0 0)
(0 0 0)
(0 0 0)
(0 0 0)
(0 0 0)
(0 0 0)
(0 0 0)
(0 0 0)
(0 0 0)
(0 0 0)
(0 0 0)
(0 0 0)
(0 0 0)
(0 0 0)
(0 0 0)
(0 0 0)
(0 0 0)
(0 0 0)
(0 0 0)
(0 0 0)
(0 0 0)
(0 0 0)
(0 0 0)
(0 0 0)
(0 0 0)
(0 0 0)
(0 0 0)
(0 0 0)
(0 0 0)
(0 0 0)
(0 0 0)
(0 0 0)
(0 0 0)
(0 0 0)
(0 0 0)
(0 0 0)
(0 0 0)
(0 0 0)
(0 0 0)
(0 0 0)
(0 0 0)
(0 0 0)
(0 0 0)
(0 0 0)
(0 0 0)
(0 0 0)
(0 0 0)
(0 0 0)
(0 0 0)
(0 0 0)
(0 0 0)
(0 0 0)
(0 0 0)
(0 0 0)
(0 0 0)
(0 0 0)
(0 0 0)
(0 0 0)
(0 0 0)
(0 0 0)
(0 0 0)
(0 0 0)
(0 0 0)
(0 0 0)
(0 0 0)
(0 0 0)
(0 0 0)
(0 0 0)
(0 0 0)
(0 0 0)
(0 0 0)
(0 0 0)
(0 0 0)
(0 0 0)
(0 0 0)
(0 0 0)
(0 0 0)
(0 0 0)
(0 0 0)
(0 0 0)
(0 0 0)
(0 0 0)
(0 0 0)
(0 0 0)
(0 0 0)
(0 0 0)
(0 0 0)
(0 0 0)
(0 0 0)
(0 0 0)
(0 0 0)
(0 0 0)
(0 0 0)
(0 0 0)
(0 0 0)
(0 0 0)
(0 0 0)
(0 0 0)
(0 0 0)
(0 0 0)
(0 0 0)
(0 0 0)
(0 0 0)
(0 0 0)
(0 0 0)
(0 0 0)
(0 0 0)
(0 0 0)
(0 0 0)
(0 0 0)
(0 0 0)
(0 0 0)
(0 0 0)
(0 0 0)
(0 0 0)
(0 0 0)
(0 0 0)
(0 0 0)
(0 0 0)
(0 0 0)
(0 0 0)
(0 0 0)
(0 0 0)
(0 0 0)
(0 0 0)
(0 0 0)
(0 0 0)
(0 0 0)
(0 0 0)
(0 0 0)
(0 0 0)
(0 0 0)
(0 0 0)
(0 0 0)
(0 0 0)
(0 0 0)
(0 0 0)
(0 0 0)
(0 0 0)
(0 0 0)
(0 0 0)
(0 0 0)
(0 0 0)
(0 0 0)
(0 0 0)
(0 0 0)
(0 0 0)
(0 0 0)
(0 0 0)
(0 0 0)
(0 0 0)
(0 0 0)
(0 0 0)
(0 0 0)
(0 0 0)
(0 0 0)
(0 0 0)
(0 0 0)
(0 0 0)
(0 0 0)
(0 0 0)
(0 0 0)
(0 0 0)
(0 0 0)
(0 0 0)
(0 0 0)
(0 0 0)
(0 0 0)
(0 0 0)
(0 0 0)
(0 0 0)
(0 0 0)
(0 0 0)
(0 0 0)
(0 0 0)
(0 0 0)
(0 0 0)
(0 0 0)
(0 0 0)
(0 0 0)
(0 0 0)
(0 0 0)
(0 0 0)
(0 0 0)
(0 0 0)
(0 0 0)
(0 0 0)
(0 0 0)
(0 0 0)
(0 0 0)
(0 0 0)
(0 0 0)
(0 0 0)
(0 0 0)
(0 0 0)
(0 0 0)
(0 0 0)
(0 0 0)
(0 0 0)
(0 0 0)
(0 0 0)
(0 0 0)
(0 0 0)
(0 0 0)
(0 0 0)
(0 0 0)
(0 0 0)
(0 0 0)
(0 0 0)
(0 0 0)
(0 0 0)
(0 0 0)
(0 0 0)
(0 0 0)
(0 0 0)
(0 0 0)
(0 0 0)
(0 0 0)
(0 0 0)
(0 0 0)
(0 0 0)
(0 0 0)
(0 0 0)
(0 0 0)
(0 0 0)
(0 0 0)
(0 0 0)
(0 0 0)
(0 0 0)
(0 0 0)
(0 0 0)
(0 0 0)
(0 0 0)
(0 0 0)
(0 0 0)
(0 0 0)
(0 0 0)
(0 0 0)
(0 0 0)
(0 0 0)
(0 0 0)
(0 0 0)
(0 0 0)
(0 0 0)
(0 0 0)
(0 0 0)
(0 0 0)
(0 0 0)
(0 0 0)
(0 0 0)
(0 0 0)
(0 0 0)
(0 0 0)
(0 0 0)
(0 0 0)
(0 0 0)
(0 0 0)
(0 0 0)
(0 0 0)
(0 0 0)
(0 0 0)
(0 0 0)
(0 0 0)
(0 0 0)
(0 0 0)
(0 0 0)
(0 0 0)
(0 0 0)
(0 0 0)
(0 0 0)
(0 0 0)
(0 0 0)
(0 0 0)
(0 0 0)
(0 0 0)
(0 0 0)
(0 0 0)
(0 0 0)
(0 0 0)
(0 0 0)
(0 0 0)
(0 0 0)
(0 0 0)
(0 0 0)
(0 0 0)
(0 0 0)
(0 0 0)
(0 0 0)
(0 0 0)
(0 0 0)
(0 0 0)
(0 0 0)
(0 0 0)
(0 0 0)
(0 0 0)
(0 0 0)
(0 0 0)
(0 0 0)
(0 0 0)
(0 0 0)
(0 0 0)
(0 0 0)
(0 0 0)
(0 0 0)
(0 0 0)
(0 0 0)
(0 0 0)
(0 0 0)
(0 0 0)
(0 0 0)
(0 0 0)
(0 0 0)
(0 0 0)
(0 0 0)
(0 0 0)
(0 0 0)
(0 0 0)
(0 0 0)
(0 0 0)
(0 0 0)
(0 0 0)
(0 0 0)
(0 0 0)
(0 0 0)
(0 0 0)
(0 0 0)
(0 0 0)
(0 0 0)
(0 0 0)
(0 0 0)
(0 0 0)
(0 0 0)
(0 0 0)
(0 0 0)
(0 0 0)
(0 0 0)
(0 0 0)
(0 0 0)
(0 0 0)
(0 0 0)
(0 0 0)
(0 0 0)
(0 0 0)
(0 0 0)
(0 0 0)
(0 0 0)
(0 0 0)
(0 0 0)
(0 0 0)
(0 0 0)
(0 0 0)
(0 0 0)
(0 0 0)
(0 0 0)
(0 0 0)
(0 0 0)
(0 0 0)
(0 0 0)
(0 0 0)
(0 0 0)
(0 0 0)
(0 0 0)
(0 0 0)
(0 0 0)
(0 0 0)
(0 0 0)
(0 0 0)
(0 0 0)
(0 0 0)
(0 0 0)
(0 0 0)
(0 0 0)
(0 0 0)
(0 0 0)
(0 0 0)
(0 0 0)
(0 0 0)
(0 0 0)
(0 0 0)
(0 0 0)
(0 0 0)
(0 0 0)
(0 0 0)
(0 0 0)
(0 0 0)
(0 0 0)
(0 0 0)
(0 0 0)
(0 0 0)
(0 0 0)
(0 0 0)
(0 0 0)
(0 0 0)
(0 0 0)
(0 0 0)
(0 0 0)
(0 0 0)
(0 0 0)
(0 0 0)
(0 0 0)
(0 0 0)
(0 0 0)
(0 0 0)
(0 0 0)
(0 0 0)
(0 0 0)
(0 0 0)
(0 0 0)
(0 0 0)
(0 0 0)
(0 0 0)
(0 0 0)
(0 0 0)
(0 0 0)
(0 0 0)
(0 0 0)
(0 0 0)
(0 0 0)
(0 0 0)
(0 0 0)
(0 0 0)
(0 0 0)
(0 0 0)
(0 0 0)
(0 0 0)
(0 0 0)
(0 0 0)
(0 0 0)
(0 0 0)
(0 0 0)
(0 0 0)
(0 0 0)
(0 0 0)
(0 0 0)
(0 0 0)
(0 0 0)
(0 0 0)
(0 0 0)
(0 0 0)
(0 0 0)
(0 0 0)
(0 0 0)
(0 0 0)
(0 0 0)
(0 0 0)
(0 0 0)
(0 0 0)
(0 0 0)
(0 0 0)
(0 0 0)
(0 0 0)
(0 0 0)
(0 0 0)
(0 0 0)
(0 0 0)
(0 0 0)
(0 0 0)
(0 0 0)
(0 0 0)
(0 0 0)
(0 0 0)
(0 0 0)
(0 0 0)
(0 0 0)
(0 0 0)
(0 0 0)
(0 0 0)
(0 0 0)
(0 0 0)
(0 0 0)
(0 0 0)
(0 0 0)
(0 0 0)
(0 0 0)
(0 0 0)
(0 0 0)
(0 0 0)
(0 0 0)
(0 0 0)
(0 0 0)
(0 0 0)
(0 0 0)
(0 0 0)
(0 0 0)
(0 0 0)
(0 0 0)
(0 0 0)
(0 0 0)
(0 0 0)
(0 0 0)
(0 0 0)
(0 0 0)
(0 0 0)
(0 0 0)
(0 0 0)
(0 0 0)
(0 0 0)
(0 0 0)
(0 0 0)
(0 0 0)
(0 0 0)
(0 0 0)
(0 0 0)
(0 0 0)
(0 0 0)
(0 0 0)
(0 0 0)
(0 0 0)
(0 0 0)
(0 0 0)
(0 0 0)
(0 0 0)
(0 0 0)
(0 0 0)
(0 0 0)
(0 0 0)
(0 0 0)
(0 0 0)
(0 0 0)
(0 0 0)
(0 0 0)
(0 0 0)
(0 0 0)
(0 0 0)
(0 0 0)
(0 0 0)
(0 0 0)
(0 0 0)
(0 0 0)
(0 0 0)
(0 0 0)
(0 0 0)
(0 0 0)
(0 0 0)
(0 0 0)
(0 0 0)
(0 0 0)
(0 0 0)
(0 0 0)
(0 0 0)
(0 0 0)
(0 0 0)
(0 0 0)
(0 0 0)
(0 0 0)
(0 0 0)
(0 0 0)
(0 0 0)
(0 0 0)
(0 0 0)
(0 0 0)
(0 0 0)
(0 0 0)
(0 0 0)
(0 0 0)
(0 0 0)
(0 0 0)
(0 0 0)
(0 0 0)
(0 0 0)
(0 0 0)
(0 0 0)
(0 0 0)
(0 0 0)
(0 0 0)
(0 0 0)
(0 0 0)
(0 0 0)
(0 0 0)
(0 0 0)
(0 0 0)
(0 0 0)
(0 0 0)
(0 0 0)
(0 0 0)
(0 0 0)
(0 0 0)
(0 0 0)
(0 0 0)
(0 0 0)
(0 0 0)
(0 0 0)
(0 0 0)
(0 0 0)
(0 0 0)
(0 0 0)
(0 0 0)
(0 0 0)