/*--------------------------------*- C++ -*----------------------------------*\
| =========                 |                                                 |
| \\      /  F ield         | OpenFOAM: The Open Source CFD Toolbox           |
|  \\    /   O peration     | Version:  v2106                                 |
|   \\  /    A nd           | Website:  www.openfoam.com                      |
|    \\/     M anipulation  |                                                 |
\*---------------------------------------------------------------------------*/
FoamFile
{
    version     2.0;
    format      ascii;
    arch        "LSB;label=32;scalar=64";
    class       volScalarField;
    location    "0";
    object      p;
}
// * * * * * * * * * * * * * * * * * * * * * * * * * * * * * * * * * * * * * //

dimensions      [0 2 -2 0 0 0 0];

internalField   nonuniform List<scalar> 
11644
(
0.0631301
0.0635245
0.0643554
0.0656326
0.0673513
0.0695088
0.0721029
0.075125
0.0785534
0.0823478
0.0864463
0.0907575
0.0951562
0.0994783
0.103526
0.107117
0.110008
0.111977
0.112872
0.112636
0.111288
0.108827
0.105271
0.100768
0.0956051
0.0900595
0.0843419
0.0786337
0.0731194
0.0679323
0.0631596
0.0588638
0.0550771
0.0518069
0.0490484
0.0467883
0.0450106
0.0437019
0.0428557
0.0424535
0.0624433
0.0628343
0.0636442
0.0648895
0.0665776
0.0687139
0.0713013
0.0743373
0.0778082
0.0816856
0.0859201
0.0904257
0.0950803
0.0997249
0.104159
0.108115
0.111369
0.113674
0.114833
0.114701
0.11323
0.110507
0.106688
0.101885
0.0963239
0.0903248
0.0842039
0.0781866
0.0724293
0.0670789
0.0622212
0.0578927
0.054109
0.0508671
0.0481516
0.0459428
0.0442186
0.0429581
0.042142
0.0417475
0.060932
0.061337
0.0621412
0.0633567
0.0650058
0.0671078
0.069678
0.0727289
0.0762687
0.0802947
0.0847797
0.0896759
0.094885
0.100232
0.105477
0.110334
0.114471
0.117593
0.119361
0.119507
0.117838
0.114503
0.109811
0.104067
0.0975821
0.0906833
0.0837382
0.0770705
0.0708754
0.0652516
0.0602487
0.0558814
0.0521275
0.0489577
0.0463357
0.044224
0.0425872
0.0413913
0.0406055
0.0402132
0.0586296
0.0590303
0.059821
0.0610039
0.0626038
0.0646537
0.0671879
0.0702429
0.0738571
0.0780665
0.0829039
0.0883591
0.0943445
0.100718
0.107286
0.113642
0.119291
0.123932
0.126842
0.127511
0.125664
0.121423
0.115203
0.1076
0.0993975
0.090967
0.0827355
0.0750964
0.0682468
0.0622696
0.0571248
0.0527515
0.0490869
0.0460565
0.0435912
0.0416296
0.040119
0.0390151
0.0382836
0.0379147
0.0555856
0.0559623
0.0567071
0.0578253
0.059344
0.0613038
0.0637573
0.06677
0.0704192
0.0747924
0.0799625
0.0859652
0.092846
0.100582
0.109005
0.11766
0.12573
0.133086
0.13799
0.13966
0.137586
0.13191
0.123256
0.112695
0.101813
0.0909398
0.0808119
0.0718511
0.0642019
0.0578376
0.0526272
0.0483742
0.0449192
0.0421384
0.0399234
0.0381879
0.0368641
0.0359003
0.0352661
0.0349471
0.0518615
0.0521908
0.0528494
0.0538527
0.055229
0.057025
0.059308
0.0621699
0.0657266
0.0700863
0.0753583
0.0817447
0.0894804
0.0987334
0.109707
0.121884
0.133933
0.145505
0.154026
0.157846
0.155516
0.147159
0.134334
0.118936
0.103966
0.089587
0.0769639
0.0665644
0.0581984
0.0516077
0.0465041
0.0425833
0.0395509
0.03719
0.0353611
0.0339589
0.0329084
0.0321563
0.0316654
0.0314238
0.0475397
0.0477979
0.0483278
0.0491446
0.0502869
0.0518047
0.0537733
0.0562962
0.0594952
0.0634914
0.0685213
0.0749205
0.0830762
0.0937536
0.107675
0.124234
0.136962
0.153632
0.168059
0.177039
0.177126
0.167458
0.150562
0.130417
0.104059
0.0848127
0.06938
0.0577541
0.0493494
0.0431047
0.0385515
0.0352868
0.0329582
0.0312543
0.0299911
0.0290587
0.0283798
0.0279059
0.0276026
0.027449
0.0427023
0.0428859
0.0432452
0.0438065
0.0446033
0.0456878
0.0471348
0.049047
0.051519
0.0547084
0.0589306
0.0646482
0.0724241
0.0829325
0.0976343
0.116237
0.141687
0.169514
0.196657
0.215144
0.217017
0.20029
0.170759
0.137723
0.105849
0.0810772
0.0633742
0.0440305
0.0366336
0.0317671
0.0285861
0.0265233
0.0252481
0.0244717
0.0239712
0.0236489
0.0234428
0.0233107
0.0232343
0.0232016
0.0375294
0.0375944
0.037735
0.0379653
0.038302
0.0387902
0.0394871
0.0404682
0.0417919
0.043638
0.0462698
0.050044
0.0555765
0.0682294
0.0820194
0.103636
0.132057
0.175625
0.223226
0.264955
0.277167
0.249611
0.197794
0.142551
0.0984754
0.0619768
0.0434311
0.0235989
0.0195883
0.0174763
0.0166037
0.0164412
0.0166604
0.017088
0.0175455
0.0179629
0.0183168
0.0185901
0.0187689
0.0188509
0.0321847
0.0321276
0.032017
0.0318376
0.0316127
0.0313534
0.0310873
0.0308231
0.0305529
0.0303754
0.0304349
0.0308527
0.031536
0.0415326
0.0495473
0.0697687
0.10097
0.154697
0.240755
0.343958
0.389721
0.327275
0.213744
0.121488
0.0578114
0.0189684
0.00841928
-0.00354376
-0.00159944
0.000625735
0.00309843
0.00548865
0.0076229
0.0094959
0.0110569
0.0123015
0.0132582
0.0139544
0.0144029
0.0146254
0.0268703
0.0266987
0.026302
0.025694
0.0248494
0.0237395
0.022346
0.0205869
0.0183572
0.015539
0.0119788
0.0076222
0.00205517
0.00372826
0.000278933
0.00303911
0.0128811
0.0380101
0.135068
0.376808
0.580867
0.36632
0.111876
-0.00317363
-0.0418335
-0.0503185
-0.0405034
-0.0358374
-0.0256537
-0.017392
-0.0107466
-0.00542563
-0.00116225
0.00224109
0.00493037
0.00700958
0.00857407
0.00968635
0.0104002
0.0107355
0.021969
0.0216084
0.0209075
0.0198409
0.0183559
0.0163829
0.0138114
0.0104691
0.00615243
0.000522432
-0.0069463
-0.0168153
-0.0297777
-0.0351121
-0.0580152
-0.0795569
-0.123361
-0.222587
-0.493454
-0.526192
-0.288807
-0.188241
-0.133453
-0.0936149
-0.0680255
-0.0482892
-0.0338462
-0.023129
-0.0150091
-0.00878623
-0.00401263
-0.000332644
0.00246963
0.00455781
0.00603137
0.0069738
0.00742298
0.0176126
0.0171113
0.0161479
0.0146639
0.0125941
0.00982705
0.00617783
0.00141389
-0.00475573
-0.0128178
-0.0234887
-0.0378663
-0.0569821
-0.0704078
-0.105787
-0.144615
-0.215482
-0.353891
-0.499468
-0.708129
-0.489805
-0.299963
-0.194826
-0.134336
-0.0889257
-0.0635641
-0.0452757
-0.0317988
-0.0217791
-0.014258
-0.00857717
-0.0042456
-0.000967519
0.00145701
0.00318254
0.00430029
0.00490836
0.0139403
0.0133266
0.0121593
0.0103749
0.00787437
0.00452777
0.000108483
-0.00564009
-0.0130202
-0.0226323
-0.0351843
-0.0519216
-0.0738295
-0.0930183
-0.130979
-0.172337
-0.232411
-0.308298
-0.331774
-0.60245
-0.494181
-0.320537
-0.204516
-0.143604
-0.0917019
-0.0672726
-0.0487635
-0.0349095
-0.0245829
-0.0168063
-0.0109288
-0.00644888
-0.00302856
-0.000492197
0.00132541
0.00251472
0.00307461
0.0108602
0.0103104
0.00908657
0.00717746
0.00449309
0.000898322
-0.003813
-0.00990445
-0.0176905
-0.0277307
-0.0407541
-0.0577896
-0.0795915
-0.10097
-0.138943
-0.181893
-0.238734
-0.298113
-0.293633
-0.362565
-0.444697
-0.601165
-0.636508
-0.433957
-0.260133
-0.16243
-0.118824
-0.077114
-0.0584691
-0.0436236
-0.0320128
-0.023119
-0.01621
-0.0109066
-0.00681198
-0.00364726
-0.00128401
0.000412798
0.00151821
0.00203146
0.00881216
0.00833968
0.00719694
0.00536216
0.00275982
-0.000716733
-0.00520385
-0.0109559
-0.0182847
-0.0276471
-0.0395933
-0.0550319
-0.075001
-0.0972455
-0.134476
-0.188167
-0.258926
-0.380651
-0.480096
-0.569305
-0.570577
-0.490351
-0.323895
-0.176692
-0.123819
-0.0837257
-0.0709092
-0.0480225
-0.0390852
-0.0311821
-0.0241034
-0.0179842
-0.0128674
-0.00873862
-0.00541702
-0.00281539
-0.000870387
0.000513465
0.0014103
0.00194254
0.0081724
0.0076909
0.00666547
0.00506527
0.00281089
-0.000172701
-0.00399417
-0.00888303
-0.0150293
-0.0226962
-0.0323569
-0.0449129
-0.0613324
-0.0837014
-0.114941
-0.164878
-0.239434
-0.37981
-0.583597
-0.70681
-0.651418
-0.369227
-0.0518799
0.051108
0.0248525
-0.00290752
-0.0115947
-0.01425
-0.015606
-0.0149052
-0.0128739
-0.0102005
-0.00746674
-0.0048448
-0.00255175
-0.000685182
0.000771261
0.00183697
0.00252055
0.00271156
0.00871465
0.00827812
0.00745368
0.00622017
0.00450526
0.00225775
-0.000575956
-0.00413122
-0.00853454
-0.0138886
-0.0204898
-0.0290589
-0.0404164
-0.0557838
-0.0832384
-0.117179
-0.172374
-0.257918
-0.397621
-0.523814
-0.504157
-0.276848
-0.009714
0.123052
0.0850373
0.0438627
0.0199172
0.00933467
0.00259772
-0.000470113
-0.0017142
-0.00177844
-0.00107872
5.9574e-05
0.00126393
0.00235016
0.00327126
0.00396051
0.00438088
0.00450836
0.0101714
0.00988132
0.00933267
0.00852016
0.00742832
0.00604353
0.00438318
0.00246099
0.00018849
-0.00250981
-0.00573209
-0.00979892
-0.0156202
-0.0233249
-0.0434518
-0.0609173
-0.0966826
-0.137785
-0.198362
-0.260792
-0.262124
-0.170144
-0.030399
0.0651126
0.0546898
0.0405265
0.0263006
0.0162644
0.0111116
0.00799453
0.0060579
0.00512825
0.00486295
0.00501208
0.00534689
0.00574509
0.00612615
0.00641826
0.00663261
0.00680619
0.0122266
0.012102
0.0118396
0.0114475
0.0109674
0.0104253
0.00989883
0.00949643
0.00923578
0.00908076
0.00906178
0.00912826
0.00880416
0.00749613
-0.00507356
-0.0147519
-0.0392449
-0.0731988
-0.121784
-0.176354
-0.207955
-0.186835
-0.121672
-0.0584681
-0.0207232
0.00551083
0.0133433
0.0120575
0.0119682
0.0112341
0.0104538
0.00990743
0.00952134
0.00925076
0.00911441
0.00909145
0.0091257
0.00918612
0.00927878
0.00938569
0.0145431
0.0145051
0.014464
0.0144485
0.0145
0.0146812
0.0150593
0.0157398
0.0169061
0.0187158
0.021267
0.0245273
0.0285811
0.0315213
0.0243003
0.0188422
-0.000824223
-0.0403113
-0.113832
-0.214811
-0.297588
-0.316074
-0.270207
-0.183967
-0.0845306
-0.0269962
-0.00178831
0.00598098
0.0108312
0.0126003
0.0131979
0.013278
0.0130591
0.0127572
0.0125026
0.0123242
0.0122059
0.0121395
0.012117
0.0121145
0.0168187
0.0168429
0.0169744
0.0172401
0.0176819
0.0183827
0.0194123
0.0208577
0.0229251
0.0259392
0.0300256
0.0353821
0.0423363
0.04887
0.0511445
0.0410494
0.0161442
-0.0421333
-0.142625
-0.267807
-0.355278
-0.358267
-0.289472
-0.183485
-0.089775
-0.0259726
-0.00632347
0.00576153
0.0119688
0.0147924
0.0160015
0.016371
0.0162885
0.0160296
0.0157229
0.0154376
0.0152051
0.0150297
0.0149116
0.0148469
0.0188642
0.0189845
0.0192465
0.0196921
0.0203637
0.021351
0.0227504
0.0246639
0.0272418
0.0307309
0.0352115
0.0408462
0.0480288
0.0556676
0.0521606
0.0334965
-0.00322148
-0.0588616
-0.125044
-0.180091
-0.199893
-0.182316
-0.13631
-0.0819233
-0.0402827
-0.0145357
0.00215379
0.0118012
0.0165055
0.0188188
0.0196974
0.0198557
0.0196489
0.0192696
0.0188167
0.0183719
0.0179898
0.0176897
0.0174866
0.0174036
0.0205798
0.0207583
0.0210963
0.0216274
0.02239
0.0234522
0.0248879
0.0268096
0.0292857
0.0324628
0.0363691
0.0404224
0.044696
0.0476647
0.0392033
0.0173371
-0.020539
-0.0683877
-0.110292
-0.129796
-0.122479
-0.101082
-0.0684014
-0.0348788
-0.0106519
0.00421286
0.0142992
0.0199046
0.0227364
0.0238617
0.0239454
0.0235319
0.0229152
0.0222403
0.0215815
0.0209825
0.0204805
0.020086
0.019803
0.0196659
0.0219799
0.0221601
0.0225026
0.0230215
0.0237355
0.0246776
0.0258559
0.0273064
0.0290553
0.0310019
0.0330219
0.0340024
0.0326678
0.0267083
0.0107191
-0.015531
-0.0491108
-0.0848026
-0.110767
-0.115834
-0.100452
-0.071963
-0.0396714
-0.0131805
0.0051543
0.0169639
0.0240561
0.0276241
0.0289047
0.0288385
0.028058
0.0269778
0.025829
0.0247777
0.0238774
0.0231418
0.0225613
0.022133
0.0218338
0.0216248
0.0230994
0.0232593
0.0235569
0.0239916
0.0245608
0.0252476
0.0260289
0.0268234
0.0275453
0.0279122
0.0274506
0.0253886
0.018621
0.00564567
-0.0190935
-0.0518133
-0.0920712
-0.130651
-0.155158
-0.155837
-0.13327
-0.0934719
-0.0506906
-0.0167254
0.0075918
0.0226875
0.0305285
0.0334491
0.0339089
0.0329722
0.0314695
0.0298157
0.0282353
0.0268632
0.0257443
0.0248582
0.0241728
0.023679
0.0233634
0.0231967
0.0239946
0.0241151
0.0243403
0.0246546
0.0250467
0.0254685
0.0258689
0.0261625
0.026032
0.025388
0.0231525
0.0187235
0.00926767
-0.00750758
-0.0373981
-0.0766589
-0.129916
-0.173441
-0.208081
-0.207208
-0.17049
-0.121058
-0.0674325
-0.0270764
0.00326501
0.0234017
0.0337977
0.037289
0.0371658
0.0355402
0.0336097
0.0316472
0.0298701
0.0283705
0.0271372
0.0261503
0.0253866
0.0248372
0.0244929
0.0244376
0.0247428
0.0248157
0.0249695
0.025184
0.0254427
0.0256935
0.0258733
0.0258739
0.0254364
0.0242399
0.0214623
0.0163081
0.00623314
-0.0108119
-0.0399953
-0.0773583
-0.123233
-0.165017
-0.198836
-0.202486
-0.162736
-0.117282
-0.067831
-0.0291879
-0.000143623
0.0202448
0.0320696
0.0378126
0.0383122
0.0363411
0.0343538
0.0323952
0.0306834
0.0292454
0.0280506
0.0270919
0.026366
0.0258655
0.0255654
0.025471
0.0253419
0.0253976
0.0255411
0.0257347
0.0259501
0.0261399
0.0262385
0.0261609
0.0257266
0.0246733
0.0224137
0.0181439
0.0103669
-0.00281459
-0.0252412
-0.0544128
-0.0864569
-0.117902
-0.14246
-0.149003
-0.128734
-0.100163
-0.0656725
-0.0321969
-0.00529511
0.015029
0.0281727
0.0352048
0.0368701
0.0356219
0.0339342
0.0322776
0.0308007
0.0295382
0.0284878
0.0276561
0.027031
0.0265911
0.0263027
0.0261263
0.0258311
0.0259306
0.0260733
0.026262
0.0264707
0.0266689
0.0268027
0.0268069
0.0265765
0.0259401
0.0245763
0.022156
0.0174471
0.00953559
-0.00430291
-0.0249127
-0.0480511
-0.0724405
-0.0908719
-0.101077
-0.10144
-0.0894778
-0.0660914
-0.0386799
-0.0133036
0.00710303
0.0213147
0.0292845
0.0325905
0.0328791
0.0321669
0.0311905
0.0301203
0.0291323
0.028297
0.0276198
0.0270897
0.0266971
0.0264305
0.0262759
0.0261913
0.0263109
0.0264456
0.0266217
0.0268325
0.0270768
0.0273268
0.0275352
0.0276493
0.0275543
0.0270069
0.0256514
0.0227534
0.0174731
0.00899905
-0.00498831
-0.0237884
-0.0454638
-0.0647443
-0.0796432
-0.0867392
-0.0828187
-0.0668767
-0.0458482
-0.0247698
-0.00631191
0.00867873
0.0195653
0.0257222
0.0282055
0.0290667
0.0290616
0.0286329
0.0280969
0.0275737
0.0271024
0.0267063
0.0264043
0.0262083
0.0261317
0.0263274
0.0263733
0.0265142
0.0267229
0.0269947
0.0273328
0.0277424
0.0282203
0.0287152
0.0291379
0.0291864
0.0284939
0.0263703
0.0217585
0.0137438
0.000826454
-0.0186122
-0.0420617
-0.0664639
-0.0868489
-0.0939758
-0.0935856
-0.082369
-0.0650783
-0.0447886
-0.0238052
-0.00536069
0.00909452
0.0182972
0.0230597
0.0254558
0.0264654
0.0268125
0.0268333
0.0266991
0.026491
0.0262729
0.0260852
0.0259517
0.0258944
0.0263358
0.0263161
0.026436
0.0266607
0.0269916
0.0274188
0.0279538
0.0286097
0.0293425
0.0301891
0.0307356
0.0306666
0.0287471
0.0236437
0.0137724
-0.00150466
-0.0232246
-0.0497093
-0.0809979
-0.108013
-0.122557
-0.122636
-0.109652
-0.0912161
-0.0659975
-0.0388802
-0.0158983
0.00139589
0.012594
0.0188363
0.0223644
0.0241759
0.0251638
0.025657
0.0258509
0.0258852
0.0258436
0.0257677
0.0256881
0.0255985
0.0262909
0.026302
0.0263996
0.0265911
0.0269009
0.027333
0.0278766
0.0285447
0.029328
0.0301434
0.0309197
0.0309202
0.0283439
0.0228474
0.0124471
-0.00325747
-0.0250822
-0.0520841
-0.0851011
-0.115011
-0.136764
-0.135541
-0.119199
-0.0977539
-0.0688422
-0.0410082
-0.0185165
-0.00149298
0.00977114
0.0164608
0.0204705
0.0226917
0.0239997
0.0246968
0.0250563
0.0252336
0.0253119
0.0253135
0.0252852
0.0252056
0.0260001
0.0260802
0.0262077
0.0263901
0.0266553
0.0270135
0.0274686
0.0280184
0.0286563
0.0293278
0.0297689
0.0288727
0.0254453
0.0189794
0.00864843
-0.00623232
-0.0259734
-0.0500049
-0.0767444
-0.0992463
-0.116748
-0.113433
-0.0976117
-0.0773565
-0.0524667
-0.0309407
-0.0129452
0.00115668
0.0107466
0.0167062
0.0202865
0.0223168
0.0234952
0.024154
0.0245244
0.0247171
0.0248
0.0248131
0.0248022
0.0247896
0.0254028
0.0255012
0.0256221
0.0257817
0.0259896
0.0262534
0.0265799
0.0269375
0.0272684
0.0274947
0.0271669
0.0253998
0.0211223
0.013262
0.00164386
-0.0132749
-0.0308433
-0.0504851
-0.06814
-0.07934
-0.0829802
-0.0775787
-0.0655968
-0.0491543
-0.0315641
-0.0156893
-0.0018721
0.00842994
0.0149641
0.0189299
0.0212922
0.0226977
0.0235439
0.0240402
0.0243154
0.0244516
0.0245042
0.0245093
0.0245067
0.0245113
0.024657
0.0246869
0.0247431
0.0248349
0.0249551
0.025089
0.0252156
0.0252745
0.0251057
0.0245221
0.0230569
0.0198514
0.0142696
0.0056466
-0.00592279
-0.0199045
-0.0353668
-0.0509945
-0.0628786
-0.0661831
-0.0618716
-0.0536277
-0.0419614
-0.0272044
-0.0132596
-0.000712704
0.00902092
0.0154811
0.0192958
0.0214857
0.0227204
0.0234551
0.023893
0.02416
0.0242899
0.0243478
0.0243685
0.0243669
0.0243557
0.0243271
0.0238802
0.0238454
0.0238513
0.0238722
0.023883
0.0238362
0.0236851
0.023337
0.0225796
0.0210727
0.0182949
0.0132336
0.00555679
-0.0045436
-0.0165723
-0.0298616
-0.0429942
-0.0554142
-0.0635421
-0.0642011
-0.058814
-0.0474206
-0.0328061
-0.0169612
-0.00272914
0.00830407
0.0158896
0.0202818
0.0225952
0.0237008
0.0241857
0.0243116
0.0243169
0.0242793
0.0242258
0.0241697
0.0241253
0.024088
0.024056
0.0240358
0.0231533
0.0231425
0.0231296
0.0230858
0.0229762
0.0227447
0.0223145
0.0215683
0.0202962
0.0181065
0.0142727
0.00767979
-0.00223877
-0.0153797
-0.0309324
-0.0464805
-0.0601245
-0.0711636
-0.0784597
-0.0777323
-0.0699318
-0.0537108
-0.034091
-0.0160938
-0.000672672
0.0108928
0.0187394
0.023015
0.0249233
0.0254646
0.0253007
0.0249427
0.0245744
0.0242637
0.024023
0.0238428
0.0237119
0.0236285
0.0235927
0.0236345
0.0224801
0.0225334
0.0224986
0.0223891
0.0221874
0.0218292
0.0212252
0.0202769
0.018688
0.0160366
0.0116871
0.00468757
-0.00610621
-0.0207722
-0.039167
-0.0573749
-0.074496
-0.0864717
-0.0954822
-0.0949986
-0.0800353
-0.0589823
-0.0361587
-0.0169261
-0.000903239
0.010937
0.0191634
0.0235454
0.0256181
0.0260073
0.0255149
0.0249974
0.024454
0.0240271
0.0237002
0.023459
0.0232948
0.0232087
0.0231872
0.0232373
0.0217864
0.021834
0.0217887
0.0216737
0.0214542
0.0210835
0.0204837
0.0195592
0.0180023
0.0154571
0.0112815
0.00474241
-0.00484339
-0.0175527
-0.0335939
-0.0514206
-0.0691423
-0.08224
-0.0926354
-0.0928256
-0.0762498
-0.0567463
-0.0355415
-0.0171862
-0.0019129
0.00948201
0.0172364
0.0215891
0.0240323
0.0249543
0.0247299
0.0243582
0.0239025
0.0235374
0.023253
0.0230445
0.0229013
0.0228181
0.0227738
0.022755
0.0211837
0.0211578
0.0211176
0.0210376
0.0208781
0.0205985
0.0201398
0.0194145
0.018227
0.0162924
0.013082
0.00805473
0.000621461
-0.00906461
-0.0208117
-0.0344581
-0.0486404
-0.0604198
-0.0690463
-0.07144
-0.0633734
-0.0510681
-0.0359765
-0.0204661
-0.00706335
0.00378044
0.011908
0.0175342
0.020962
0.02262
0.0231133
0.0230736
0.022857
0.0226731
0.0225052
0.0223741
0.0222748
0.0221992
0.0221349
0.0220768
0.0207917
0.02077
0.020737
0.0206805
0.0205791
0.0204021
0.0201157
0.0196597
0.0189524
0.0178092
0.0158986
0.012819
0.00787856
0.000912593
-0.00760452
-0.0177132
-0.0284072
-0.0385299
-0.0462512
-0.0509135
-0.0518534
-0.0469434
-0.0372772
-0.0252658
-0.0135997
-0.00322419
0.00548698
0.0121827
0.0166252
0.019217
0.0205447
0.0210818
0.0212989
0.0213704
0.0213569
0.0213351
0.0213111
0.0212932
0.0212782
0.0212494
0.0204816
0.0204977
0.0204909
0.0204648
0.0204192
0.0203507
0.020241
0.0200653
0.0197981
0.0193093
0.0184416
0.0168832
0.0140991
0.00947211
0.00276958
-0.00605337
-0.0161828
-0.0267774
-0.0359873
-0.0425969
-0.0456548
-0.0449236
-0.0388087
-0.0294412
-0.0194606
-0.0098279
-0.00127512
0.00567872
0.011032
0.0149031
0.0173411
0.0186968
0.0194696
0.0198678
0.0200686
0.0201778
0.0202376
0.0202809
0.0203212
0.0203691
0.0200731
0.0200677
0.0200795
0.0201002
0.0201355
0.0201923
0.0202718
0.0203794
0.0204995
0.0205796
0.0204645
0.0198175
0.018077
0.0145711
0.00838739
-0.000421946
-0.0116121
-0.0239217
-0.0358177
-0.0452566
-0.0491369
-0.0504272
-0.046382
-0.0387245
-0.0296188
-0.0198555
-0.0102629
-0.0016685
0.00547022
0.0108626
0.0143855
0.0165126
0.0177648
0.018488
0.0189242
0.0191847
0.0193289
0.0194136
0.0194691
0.0195342
0.0196077
0.019554
0.0195587
0.0196082
0.0197082
0.0198635
0.020085
0.0203986
0.0207915
0.021229
0.0216306
0.0213348
0.0197389
0.0165651
0.0105978
0.00198514
-0.0097151
-0.0231755
-0.0384154
-0.0517552
-0.0616018
-0.0636185
-0.0593147
-0.0521274
-0.0419257
-0.0305208
-0.0185556
-0.00737344
0.0015481
0.00803363
0.0122778
0.0148409
0.0164195
0.0173809
0.0180163
0.0184104
0.0186458
0.0187741
0.0188316
0.018826
0.0191421
0.01911
0.0191152
0.0191643
0.0192741
0.0194483
0.0196977
0.0200319
0.0204433
0.0208631
0.0214073
0.0209517
0.01934
0.0164621
0.0109311
0.00270926
-0.00839802
-0.0219644
-0.0379368
-0.0532632
-0.0670593
-0.0698068
-0.064383
-0.0565657
-0.0451318
-0.0320359
-0.0192287
-0.00786886
0.000653707
0.0069983
0.0112991
0.0139349
0.0155663
0.0166427
0.0173296
0.017764
0.0180267
0.0181721
0.0182373
0.0181794
0.0185748
0.0185981
0.0186349
0.0186864
0.0187667
0.0188835
0.0190508
0.0192544
0.019512
0.0196263
0.0194809
0.0185277
0.0165076
0.0130679
0.00753165
-0.000305346
-0.0103581
-0.0222759
-0.0354853
-0.0475294
-0.0574733
-0.0586498
-0.0532824
-0.0454525
-0.0344955
-0.0232548
-0.0125844
-0.00377224
0.00295618
0.00816907
0.0117432
0.0139875
0.0153999
0.016278
0.0168333
0.0171814
0.0173928
0.0175057
0.0175566
0.0175501
0.0178535
0.0178914
0.0179145
0.0179306
0.0179448
0.0179587
0.0179681
0.0179502
0.0178685
0.017527
0.0165893
0.0147193
0.0115328
0.00688635
0.000725835
-0.0068572
-0.0156466
-0.0250069
-0.0337086
-0.0400214
-0.0421769
-0.0401038
-0.0348072
-0.0277465
-0.0193371
-0.0111457
-0.0037613
0.00233969
0.00733917
0.0110108
0.0133207
0.0147716
0.0156641
0.0162267
0.0165806
0.0167999
0.0169283
0.0170005
0.0170434
0.0170831
0.017042
0.0170285
0.0169888
0.0169362
0.0168657
0.0167614
0.0165833
0.016264
0.0157018
0.0147179
0.0129699
0.0102114
0.00623818
0.000937106
-0.00564464
-0.01298
-0.0206964
-0.0277948
-0.0327495
-0.0343969
-0.0327075
-0.0280924
-0.0219321
-0.0148619
-0.00767218
-0.0011151
0.00438021
0.00869264
0.0118819
0.0138709
0.0150642
0.0157466
0.0161531
0.0164119
0.0165753
0.0166794
0.0167436
0.0167822
0.0168039
0.0168117
0.0162255
0.0161496
0.0160743
0.0159805
0.0158445
0.0156244
0.015261
0.0146394
0.0135914
0.0118586
0.009167
0.00536245
0.000520095
-0.00541797
-0.0123149
-0.0196155
-0.0266361
-0.0323372
-0.0350263
-0.0338897
-0.031022
-0.0250421
-0.0172398
-0.00888826
-0.000947986
0.00553063
0.0103821
0.0135808
0.015372
0.016173
0.0165171
0.0166018
0.0166135
0.0165992
0.0165851
0.0165725
0.0165662
0.0165599
0.016549
0.0165303
0.0155129
0.0154577
0.0153877
0.0152723
0.0150719
0.0147351
0.0141973
0.013328
0.0119176
0.00960137
0.00598087
0.000865061
-0.00574315
-0.0134949
-0.0217422
-0.0297146
-0.0366671
-0.0416176
-0.0435176
-0.0406208
-0.0342388
-0.0256533
-0.015562
-0.00560078
0.0029783
0.00941893
0.0138682
0.0163428
0.0175475
0.0177769
0.0174839
0.0171316
0.0168089
0.0165615
0.0163843
0.0162601
0.0161805
0.0161349
0.0161165
0.0161355
0.0149374
0.0149654
0.0149024
0.0147593
0.0144996
0.014078
0.0134243
0.012418
0.0108046
0.00826444
0.00427851
-0.00149382
-0.00922189
-0.0184481
-0.0282533
-0.0373525
-0.0451252
-0.0502038
-0.0521411
-0.0480831
-0.0373525
-0.0255818
-0.0134387
-0.00271833
0.00551318
0.0114689
0.0153347
0.0172037
0.0181829
0.0182505
0.0176277
0.0171368
0.0166351
0.0162817
0.0160164
0.0158345
0.0157213
0.0156696
0.0156652
0.0157136
0.0143976
0.0144469
0.0143918
0.0142627
0.0140145
0.0136159
0.0129842
0.0120514
0.0105185
0.00815896
0.00455601
-0.000458329
-0.00715488
-0.0156726
-0.0251475
-0.0342469
-0.0426376
-0.0479174
-0.0499756
-0.0462108
-0.0359315
-0.0243391
-0.0128063
-0.00301236
0.00461151
0.0102077
0.0138938
0.015856
0.0168794
0.017117
0.0168276
0.0165
0.0161069
0.01581
0.0155754
0.0154187
0.0153199
0.0152723
0.0152554
0.0152657
0.0139055
0.0138927
0.0138544
0.0137715
0.0136144
0.0133483
0.0129154
0.0122185
0.0111062
0.00935697
0.00668081
0.00295716
-0.00174703
-0.00783658
-0.0149117
-0.0221544
-0.0291302
-0.0341293
-0.0368809
-0.0360272
-0.0312008
-0.0235422
-0.0152528
-0.00766451
-0.000884259
0.00467488
0.0088593
0.0117218
0.0135734
0.0146334
0.0150862
0.0151825
0.0151054
0.0149974
0.0149055
0.0148423
0.0147947
0.0147583
0.0147238
0.0146928
0.0135937
0.0135644
0.013537
0.0134971
0.0134225
0.0132936
0.0130791
0.0127319
0.0121557
0.0112082
0.00963379
0.00723057
0.00413163
0.000238653
-0.00450006
-0.00973948
-0.0151726
-0.0199625
-0.0239325
-0.0263453
-0.0261558
-0.0233381
-0.0188662
-0.0133242
-0.00739768
-0.00199864
0.0027667
0.00655911
0.00941824
0.0113996
0.0126085
0.0132559
0.0135828
0.013768
0.0138713
0.0139337
0.0139769
0.0140041
0.014014
0.0139959
0.0134077
0.0134185
0.013421
0.0134198
0.0134094
0.0133917
0.0133527
0.0132891
0.0131473
0.0128539
0.0122362
0.0111026
0.00921565
0.00646511
0.0027345
-0.00194204
-0.00738183
-0.0127306
-0.0178408
-0.0218951
-0.0235548
-0.0240487
-0.0222599
-0.0182805
-0.012932
-0.00762002
-0.00253605
0.00183834
0.0053037
0.0079526
0.00988437
0.011153
0.0119451
0.0124364
0.0127317
0.0129141
0.0130376
0.0131296
0.0132007
0.0132488
0.0131503
0.0131683
0.0131956
0.0132352
0.0132899
0.0133723
0.0134894
0.0136501
0.0138355
0.0140309
0.0141304
0.013868
0.012814
0.0107939
0.0074726
0.00281266
-0.0031517
-0.00976998
-0.0162727
-0.0217625
-0.0257119
-0.0284788
-0.0282049
-0.0251437
-0.0202065
-0.0146066
-0.00880562
-0.00343466
0.00114025
0.00480322
0.00753984
0.00942053
0.0106231
0.0113604
0.0118115
0.0120901
0.0122645
0.0123798
0.0124654
0.0125484
0.0127887
0.0127646
0.0127858
0.0128429
0.0129475
0.0131076
0.0133415
0.0136687
0.0140868
0.0145755
0.0151058
0.0153
0.0148153
0.0136216
0.0110742
0.00698203
0.00122801
-0.00675483
-0.0153193
-0.0236704
-0.0309144
-0.0357661
-0.0361065
-0.0331129
-0.0282919
-0.0220295
-0.0151422
-0.00836441
-0.00230607
0.00244395
0.00587835
0.00821178
0.00968542
0.010584
0.0111607
0.011534
0.0117633
0.011894
0.0119633
0.0119891
0.0124079
0.0123724
0.0123793
0.0124283
0.0125382
0.012717
0.0129771
0.0133254
0.0137954
0.0142942
0.0149082
0.0151969
0.0149923
0.0142113
0.0121938
0.00854818
0.00316625
-0.00471576
-0.0140605
-0.0235772
-0.0321766
-0.0383659
-0.0388942
-0.0354714
-0.0304438
-0.0236236
-0.0163083
-0.00914186
-0.00289841
0.00184471
0.00530379
0.00765935
0.00911769
0.0100978
0.0107331
0.0111254
0.0113817
0.0115252
0.0115832
0.0115388
0.0119759
0.0119801
0.0120017
0.0120451
0.0121226
0.0122435
0.012421
0.0126463
0.0129172
0.0131378
0.0132581
0.0130602
0.0124022
0.0110743
0.00871972
0.00509408
0.000148468
-0.00617038
-0.0137067
-0.0214502
-0.0275097
-0.031602
-0.0312749
-0.0276506
-0.0230536
-0.0170213
-0.0108638
-0.00508374
-0.000342652
0.00329609
0.00604449
0.0079257
0.00915639
0.00996136
0.0104644
0.0107866
0.0109836
0.0110883
0.0111299
0.0111039
0.0114278
0.0114545
0.0114753
0.0114878
0.0114972
0.0115061
0.0115117
0.0114927
0.0114075
0.0111241
0.0104922
0.00933423
0.00764217
0.00532008
0.00227922
-0.00148954
-0.00591745
-0.0104294
-0.0147913
-0.0185778
-0.0206408
-0.0208613
-0.0187487
-0.0154689
-0.0115198
-0.00717706
-0.00302307
0.000645222
0.00358639
0.00597935
0.00775223
0.00889137
0.00964393
0.010105
0.0103886
0.0105611
0.0106583
0.0107104
0.0107377
0.0107632
0.0107876
0.0107847
0.0107514
0.0106941
0.0106095
0.0104872
0.0103003
0.00998957
0.00949942
0.00867264
0.00738117
0.00551951
0.0030326
-4.5118e-05
-0.00364107
-0.00748193
-0.0113576
-0.0147142
-0.0163547
-0.0165984
-0.0158943
-0.0135995
-0.0103773
-0.00676589
-0.00307126
0.000424093
0.00334219
0.00565238
0.00740556
0.0087233
0.00954603
0.0100244
0.0102915
0.0104242
0.0104998
0.0105454
0.0105672
0.0105757
0.0105824
0.0105944
0.0101326
0.0100709
0.00999099
0.00988568
0.00974005
0.00952053
0.00917382
0.00861448
0.00773587
0.00641303
0.00454002
0.00207444
-0.00109685
-0.00492369
-0.00918553
-0.0133358
-0.0169599
-0.0192675
-0.0192524
-0.0170949
-0.0143591
-0.010749
-0.00674666
-0.00249528
0.00162609
0.00513284
0.00770971
0.00938808
0.0103897
0.0108544
0.0109374
0.0109066
0.0108117
0.0107138
0.0106322
0.0105783
0.0105416
0.01051
0.0104846
0.0104584
0.00955638
0.00949205
0.00941334
0.00929766
0.00911806
0.00883141
0.00837589
0.00763643
0.00644312
0.00463119
0.00206211
-0.00137679
-0.00573574
-0.0107148
-0.0158781
-0.0205202
-0.0239572
-0.0255861
-0.0245437
-0.020301
-0.0150356
-0.00957494
-0.00379159
0.00157515
0.00588606
0.0090188
0.0110288
0.012039
0.012372
0.0121643
0.011756
0.0113567
0.0110098
0.0107447
0.0105474
0.0104061
0.010315
0.0102557
0.0102213
0.010209
0.00911291
0.00911373
0.0090573
0.00893661
0.00872374
0.00838114
0.00784582
0.0070057
0.00566638
0.00355756
0.000535663
-0.0036019
-0.0088429
-0.0146429
-0.0204289
-0.02553
-0.0290366
-0.0305727
-0.0288919
-0.0231229
-0.0158852
-0.00843206
-0.00106037
0.00510926
0.00923554
0.0118101
0.013081
0.0134182
0.0131825
0.012498
0.011899
0.011323
0.0108491
0.0104924
0.0102319
0.0100483
0.00993153
0.00986969
0.00985099
0.00988273
0.0087394
0.00877904
0.00873789
0.0086263
0.0084245
0.00808527
0.00757121
0.0067735
0.00552802
0.00360362
0.000908462
-0.00279487
-0.00757383
-0.0129575
-0.0184079
-0.0233276
-0.0269139
-0.0283752
-0.0271395
-0.0217004
-0.0151211
-0.00794413
-0.00112831
0.00441667
0.00816744
0.0106285
0.0118816
0.0123157
0.0121804
0.0117058
0.0112601
0.0107854
0.0103799
0.0100631
0.00982361
0.00966953
0.00957308
0.00952808
0.00951812
0.00954057
0.00838536
0.00839559
0.00836749
0.00830198
0.0081737
0.00795373
0.00759219
0.00701811
0.00613285
0.00479208
0.00290979
0.00041718
-0.0027838
-0.00654701
-0.010529
-0.0142901
-0.0172557
-0.0191137
-0.0194295
-0.0171052
-0.0134428
-0.00894855
-0.00452135
-0.00056013
0.00272431
0.00532556
0.00716561
0.00841095
0.00916202
0.00955748
0.00971924
0.00966196
0.00954372
0.00941603
0.00931229
0.00924223
0.00919487
0.0091657
0.00914466
0.00913063
0.0081384
0.0081188
0.00810597
0.00809018
0.0080533
0.00798012
0.00784405
0.00760312
0.00719239
0.00653146
0.00549921
0.00415518
0.00244122
0.000299071
-0.0021913
-0.0048884
-0.00738451
-0.00979603
-0.0116273
-0.0121036
-0.0116991
-0.0104644
-0.00865643
-0.00618519
-0.00337799
-0.000682871
0.00171414
0.00375896
0.00541751
0.00667628
0.00751361
0.00800665
0.00828331
0.00842857
0.00851865
0.00857545
0.00860983
0.00862819
0.00862845
0.00861108
0.00801061
0.00801784
0.00803292
0.00805712
0.00808587
0.00812354
0.00816837
0.00820068
0.0081805
0.00806779
0.00777135
0.00722512
0.00632836
0.00498581
0.00312304
0.000658577
-0.00191491
-0.00469915
-0.00714813
-0.0092765
-0.0110028
-0.0122601
-0.0123568
-0.0109515
-0.00851642
-0.00561112
-0.00269257
-2.8836e-05
0.00222722
0.00398464
0.00530786
0.00625115
0.00689753
0.00730935
0.00757843
0.0077537
0.0078723
0.00795685
0.00801171
0.00803726
0.00785915
0.00789072
0.00793076
0.0079866
0.00806393
0.00817654
0.00833184
0.00853848
0.00878922
0.00906472
0.0092975
0.00934721
0.00903514
0.00821704
0.00675375
0.00449704
0.00164877
-0.00157393
-0.00491417
-0.00865298
-0.0122937
-0.0155427
-0.0170029
-0.0164602
-0.0142891
-0.011031
-0.00738806