/*--------------------------------*- C++ -*----------------------------------*\
| =========                 |                                                 |
| \\      /  F ield         | OpenFOAM: The Open Source CFD Toolbox           |
|  \\    /   O peration     | Version:  v2106                                 |
|   \\  /    A nd           | Website:  www.openfoam.com                      |
|    \\/     M anipulation  |                                                 |
\*---------------------------------------------------------------------------*/
FoamFile
{
    version     2.0;
    format      ascii;
    arch        "LSB;label=32;scalar=64";
    class       volVectorField;
    location    "0";
    object      U;
}
// * * * * * * * * * * * * * * * * * * * * * * * * * * * * * * * * * * * * * //

dimensions      [0 1 -1 0 0 0 0];

internalField   nonuniform List<vector> 
11644
(
(0.993827 -0.000228531 -2.57343e-23)
(0.993715 -0.000598111 -7.09676e-23)
(0.993651 -0.000872662 -3.80759e-23)
(0.993636 -0.00115586 0)
(0.99363 -0.00145502 0)
(0.993625 -0.00176604 0)
(0.993621 -0.00207988 0)
(0.993617 -0.00238682 0)
(0.993613 -0.00267414 0)
(0.993601 -0.00293083 0)
(0.993613 -0.00313077 0)
(0.99358 -0.00326502 0)
(0.993572 -0.00330121 0)
(0.99373 -0.00322857 0)
(0.993574 -0.00301795 0)
(0.993581 -0.00269974 0)
(0.993612 -0.00227107 0)
(0.99349 -0.00170504 0)
(0.993281 -0.00100252 0)
(0.993073 -7.56808e-05 3.30165e-30)
(0.99303 0.00100334 -3.30795e-30)
(0.993251 0.00207166 0)
(0.993611 0.00284465 0)
(0.99376 0.00322461 0)
(0.993679 0.00343893 0)
(0.993644 0.00361527 0)
(0.99383 0.00372649 0)
(0.993677 0.00368717 0)
(0.993598 0.00356982 0)
(0.993618 0.0033596 0)
(0.993644 0.00308698 0)
(0.993636 0.00278547 0)
(0.993637 0.00245782 0)
(0.993636 0.00212522 0)
(0.993635 0.00179501 0)
(0.993635 0.00147374 0)
(0.993639 0.00116576 0)
(0.993657 0.000875118 0)
(0.993721 0.000589549 0)
(0.993824 0.000222431 -4.98961e-24)
(0.994609 -0.000471665 -3.30555e-23)
(0.994524 -0.00142211 -3.062e-23)
(0.994462 -0.00237997 -1.6445e-23)
(0.994454 -0.0033251 0)
(0.994475 -0.00427578 0)
(0.994497 -0.00524439 0)
(0.994508 -0.00622721 0)
(0.9945 -0.00720472 0)
(0.994462 -0.00814683 0)
(0.994395 -0.0090101 0)
(0.994236 -0.00975579 0)
(0.994061 -0.0102843 0)
(0.993779 -0.0105568 0)
(0.99317 -0.0105074 0)
(0.992969 -0.00999646 0)
(0.992469 -0.00906113 6.91702e-24)
(0.991929 -0.00763002 -3.25922e-24)
(0.991515 -0.00578668 -5.0252e-23)
(0.991133 -0.00361821 -1.07589e-22)
(0.990875 -0.00127452 1.1461e-21)
(0.990779 0.00116677 -1.05654e-21)
(0.990942 0.00369631 7.28165e-23)
(0.991526 0.00617245 -4.94628e-24)
(0.992336 0.00818728 9.01841e-26)
(0.992976 0.009506 -4.77373e-24)
(0.993363 0.0102146 0)
(0.993499 0.0105442 0)
(0.994016 0.0105266 0)
(0.994339 0.0101664 0)
(0.994472 0.00956638 0)
(0.994536 0.00880238 0)
(0.994592 0.0079122 0)
(0.994594 0.00696875 0)
(0.994577 0.00600078 0)
(0.994546 0.00503619 0)
(0.99451 0.00408909 0)
(0.99448 0.00316392 0)
(0.994475 0.0022521 0)
(0.994516 0.0013434 0)
(0.994583 0.000442728 0)
(0.996202 -0.000737354 0)
(0.996152 -0.00228031 0)
(0.996136 -0.00388202 0)
(0.996168 -0.00551297 0)
(0.996233 -0.00717536 -3.01956e-23)
(0.996308 -0.00887824 0)
(0.996369 -0.0106235 0)
(0.996388 -0.0123937 0)
(0.996332 -0.0141501 0)
(0.996143 -0.0158409 0)
(0.995809 -0.0173545 0)
(0.995226 -0.0186061 0)
(0.994437 -0.0194132 1.98118e-25)
(0.993707 -0.0196079 -6.49365e-23)
(0.992059 -0.0191526 1.36255e-22)
(0.990699 -0.0178452 -1.00847e-22)
(0.989291 -0.015659 -5.91236e-22)
(0.987857 -0.012551 2.39599e-22)
(0.986809 -0.00874603 5.37701e-22)
(0.986194 -0.00445001 -3.36167e-22)
(0.986043 8.27256e-05 9.2485e-22)
(0.986437 0.00453457 -9.2475e-22)
(0.987491 0.00862844 -4.67874e-22)
(0.989183 0.0122065 4.61731e-22)
(0.990979 0.014856 2.46136e-22)
(0.992514 0.0164599 -1.03543e-22)
(0.993935 0.0171907 4.25002e-23)
(0.994692 0.017146 1.62571e-25)
(0.995381 0.0165808 0)
(0.995924 0.0155651 0)
(0.996243 0.0142665 0)
(0.996374 0.0128099 0)
(0.996413 0.0112541 0)
(0.996371 0.00967193 0)
(0.99629 0.00809742 0)
(0.996194 0.00655315 0)
(0.996107 0.00504279 0)
(0.996052 0.00355657 0)
(0.996046 0.00209439 0)
(0.996077 0.000686248 0)
(0.998644 -0.00105404 0)
(0.998631 -0.00317469 0)
(0.998681 -0.00538397 0)
(0.9988 -0.00766964 0)
(0.998971 -0.0100444 0)
(0.999162 -0.0125246 0)
(0.999336 -0.0151149 0)
(0.999445 -0.0178015 0)
(0.999421 -0.0205512 0)
(0.999192 -0.0232852 0)
(0.998629 -0.0259065 -9.41677e-25)
(0.997638 -0.0282219 -1.34538e-23)
(0.996051 -0.0300397 -5.1105e-22)
(0.993418 -0.0312239 7.66798e-22)
(0.991213 -0.030955 -3.53619e-22)
(0.987931 -0.0294788 1.47584e-21)
(0.984592 -0.0265045 -2.15927e-21)
(0.981544 -0.0220676 1.61052e-22)
(0.979247 -0.0162244 1.04668e-21)
(0.977969 -0.00942028 -3.033e-21)
(0.977738 -0.00209198 2.52899e-21)
(0.978689 0.00509237 -7.06237e-22)
(0.980854 0.011488 1.01604e-22)
(0.984029 0.016711 1.42499e-21)
(0.987613 0.020728 -7.96702e-22)
(0.990847 0.0232165 3.43918e-22)
(0.993262 0.0242881 -7.28483e-22)
(0.99566 0.0241467 4.45243e-22)
(0.997173 0.0231595 4.83979e-24)
(0.998106 0.0216238 8.12164e-25)
(0.998689 0.0197158 0)
(0.998977 0.0175957 0)
(0.999032 0.0153997 0)
(0.998955 0.013187 0)
(0.998805 0.011008 0)
(0.998631 0.00888236 0)
(0.998472 0.00681278 0)
(0.998354 0.0048024 0)
(0.998298 0.00283388 0)
(0.998305 0.000932422 0)
(1.00188 -0.00129988 0)
(1.00193 -0.00399555 0)
(1.00209 -0.00678388 0)
(1.00235 -0.00968839 0)
(1.0027 -0.0127559 0)
(1.0031 -0.0160196 0)
(1.0035 -0.0194961 0)
(1.00381 -0.0231967 0)
(1.00394 -0.0270993 0)
(1.00373 -0.0311641 2.63926e-23)
(1.00298 -0.0352764 -2.55652e-23)
(1.0015 -0.0392209 -6.44538e-22)
(0.999163 -0.0425748 1.67447e-22)
(0.996493 -0.0446941 1.16123e-21)
(0.99106 -0.0459043 3.56508e-21)
(0.985595 -0.0447313 -4.3031e-21)
(0.979847 -0.0415351 1.08272e-21)
(0.973678 -0.0359431 -3.13193e-21)
(0.968575 -0.0273657 3.40999e-21)
(0.965139 -0.0164741 -9.26582e-24)
(0.964421 -0.00449734 -7.08953e-22)
(0.966594 0.00701385 -6.8734e-22)
(0.971112 0.0166813 1.08975e-21)
(0.977163 0.0239255 -7.25531e-22)
(0.982885 0.0288459 3.31995e-21)
(0.988605 0.0319154 -2.9162e-21)
(0.993842 0.0328587 -1.06393e-21)
(0.997072 0.0322796 5.98749e-22)
(0.999589 0.0305408 -1.95049e-22)
(1.0012 0.0281052 -1.16492e-23)
(1.00204 0.0253524 8.77964e-24)
(1.00244 0.0224302 0)
(1.00249 0.0194807 0)
(1.00234 0.016585 0)
(1.00209 0.013778 0)
(1.00181 0.0110756 0)
(1.00154 0.00848235 0)
(1.00134 0.00597421 0)
(1.00121 0.00355572 0)
(1.00119 0.00116619 0)
(1.00579 -0.00156844 0)
(1.00593 -0.0047162 0)
(1.00625 -0.00796397 0)
(1.00675 -0.0113995 0)
(1.00739 -0.0150802 0)
(1.00813 -0.019068 0)
(1.0089 -0.0234182 0)
(1.00962 -0.0281709 0)
(1.01011 -0.0333531 -1.57753e-23)
(1.01019 -0.0389372 1.80138e-22)
(1.00965 -0.0448137 1.98177e-22)
(1.00822 -0.050734 4.79851e-22)
(1.00532 -0.0564821 -5.1756e-22)
(0.999393 -0.0623537 -6.44928e-23)
(0.993061 -0.0645616 -2.0278e-21)
(0.983528 -0.0644271 -1.58628e-21)
(0.97274 -0.061844 2.03777e-21)
(0.960897 -0.053969 4.29969e-21)
(0.9511 -0.0403786 -5.07362e-21)
(0.944883 -0.0236962 3.00712e-21)
(0.943738 -0.00577769 -4.43607e-22)
(0.947859 0.0114487 1.31583e-22)
(0.956305 0.0260649 -1.84034e-21)
(0.966599 0.0357749 3.76105e-22)
(0.977598 0.0412423 -7.07256e-22)
(0.986847 0.0441274 1.50008e-21)
(0.993644 0.0444419 3.29867e-22)
(0.999801 0.0420948 -6.15133e-22)
(1.00335 0.0389643 1.35349e-22)
(1.00551 0.0352339 4.73388e-22)
(1.0066 0.0312776 -2.50197e-22)
(1.00694 0.0273602 -2.18697e-25)
(1.00688 0.0235384 0)
(1.00656 0.0199003 0)
(1.00613 0.0164547 0)
(1.00567 0.0131945 0)
(1.00526 0.0100977 0)
(1.00494 0.00713175 0)
(1.00474 0.00421916 0)
(1.00467 0.00141806 0)
(1.01023 -0.00172621 0)
(1.01047 -0.00520347 0)
(1.01101 -0.00886028 0)
(1.01182 -0.0126951 0)
(1.01287 -0.0168533 0)
(1.01412 -0.0214271 0)
(1.01549 -0.0265268 0)
(1.01687 -0.0322532 -5.3174e-24)
(1.01808 -0.0386717 -2.71291e-23)
(1.01896 -0.0458367 1.55638e-22)
(1.01916 -0.0538393 2.86106e-22)
(1.01802 -0.0627968 -1.19738e-22)
(1.01471 -0.0723506 -6.49896e-22)
(1.01036 -0.0799688 8.76968e-23)
(0.998314 -0.0887426 2.11361e-22)
(0.983739 -0.0919101 1.9757e-22)
(0.970658 -0.0815572 -5.44812e-21)
(0.953698 -0.0738435 5.28954e-22)
(0.937184 -0.0574324 -2.69239e-21)
(0.925457 -0.0342909 2.26519e-21)
(0.922207 -0.0076125 -3.17618e-21)
(0.928158 0.0170835 -4.18342e-21)
(0.940426 0.0360368 -2.2571e-21)
(0.955217 0.0480327 -2.99911e-21)
(0.973277 0.0620067 -2.95972e-22)
(0.987282 0.0625328 -4.66031e-22)
(0.99879 0.0585284 -1.08365e-22)
(1.00454 0.0542812 -8.59594e-22)
(1.00888 0.0485556 1.61781e-21)
(1.01139 0.0429506 -3.67823e-22)
(1.01255 0.0374687 1.57384e-23)
(1.01274 0.0322478 4.55244e-23)
(1.01233 0.0274456 4.06826e-24)
(1.01169 0.0230056 0)
(1.01096 0.0188978 0)
(1.01025 0.0150688 0)
(1.00962 0.0114656 0)
(1.00913 0.00805585 0)
(1.00881 0.00479117 0)
(1.00869 0.00154989 0)
(1.01497 -0.00174943 0)
(1.01534 -0.00544242 0)
(1.01614 -0.00921285 0)
(1.01734 -0.0133 0)
(1.01893 -0.0177691 0)
(1.02086 -0.0227596 0)
(1.02307 -0.028409 0)
(1.02544 -0.0348736 1.16125e-23)
(1.02789 -0.0423582 -1.36117e-22)
(1.03022 -0.0511823 5.11206e-23)
(1.03192 -0.0616246 -5.816e-23)
(1.03223 -0.0734938 1.36426e-21)
(1.03027 -0.0863511 -4.29533e-22)
(1.0195 -0.0972885 -8.35932e-23)
(1.01004 -0.105732 -2.69571e-21)
(0.994053 -0.114614 1.29063e-21)
(0.967415 -0.117854 -1.09266e-21)
(0.9375 -0.109637 9.31915e-22)
(0.906147 -0.0885285 8.45958e-22)
(0.882817 -0.0522487 1.40232e-22)
(0.876007 -0.00716901 7.74667e-21)
(0.88872 0.0346365 -4.42422e-21)
(0.913838 0.0637451 3.70279e-21)
(0.942048 0.0786267 -2.5935e-21)
(0.966974 0.0835499 1.78668e-21)
(0.98749 0.0797626 -6.22022e-22)
(1.00067 0.073205 -2.26684e-21)
(1.01408 0.0663636 -1.13607e-22)
(1.01754 0.0582682 1.28241e-22)
(1.01942 0.0505343 -5.36066e-23)
(1.02011 0.0434134 -1.28927e-22)
(1.01984 0.0369195 3.86075e-23)
(1.01892 0.0310586 8.00437e-23)
(1.01774 0.0258103 0)
(1.01655 0.0210719 0)
(1.01546 0.016741 0)
(1.01453 0.0127372 0)
(1.01382 0.00894682 0)
(1.01335 0.00531795 0)
(1.01316 0.00180909 0)
(1.01978 -0.00184976 0)
(1.02031 -0.00541223 0)
(1.02141 -0.00919996 0)
(1.02307 -0.0132589 0)
(1.02529 -0.0177364 0)
(1.02805 -0.0228109 0)
(1.0313 -0.028668 -7.6403e-24)
(1.03504 -0.0355398 -3.44049e-23)
(1.03937 -0.0438516 6.82947e-23)
(1.04394 -0.0541606 5.43271e-23)
(1.04815 -0.0668437 -5.36587e-23)
(1.05115 -0.082155 -1.00549e-21)
(1.05145 -0.10134 6.69436e-22)
(1.03995 -0.117387 5.81079e-23)
(1.02969 -0.133312 1.72984e-21)
(1.00952 -0.151987 -1.14273e-21)
(0.977047 -0.160023 1.17629e-21)
(0.928048 -0.161981 -1.43172e-21)
(0.872022 -0.140021 -6.82793e-24)
(0.822625 -0.086151 2.62021e-21)
(0.804647 -0.00751666 2.58711e-21)
(0.828444 0.0646023 1.61406e-21)
(0.876338 0.108248 4.99422e-21)
(0.928215 0.124688 -5.02148e-22)
(0.96794 0.120592 -1.92723e-22)
(0.998582 0.110852 6.39711e-23)
(1.01352 0.0948481 -6.21383e-22)
(1.02762 0.080893 7.76828e-24)
(1.0297 0.0670172 2.50704e-22)
(1.02994 0.0567778 -1.49002e-22)
(1.02941 0.0482177 -3.70831e-23)
(1.02823 0.0407181 4.12445e-24)
(1.02661 0.0340098 3.60811e-24)
(1.02468 0.0280711 1.26425e-23)
(1.02284 0.0227783 0)
(1.02124 0.0179977 0)
(1.01992 0.0136142 0)
(1.01893 0.00952709 0)
(1.01828 0.00561206 0)
(1.018 0.00179012 0)
(1.02441 -0.00161512 0)
(1.02507 -0.00497883 0)
(1.02649 -0.00854238 0)
(1.02863 -0.0123046 0)
(1.03154 -0.0165323 0)
(1.03521 -0.0213585 0)
(1.03969 -0.0270098 -4.11805e-23)
(1.04522 -0.0338315 8.10509e-23)
(1.05212 -0.0425647 8.0522e-23)
(1.05978 -0.053792 -1.20838e-22)
(1.06762 -0.0677841 -2.45256e-22)
(1.07496 -0.0852305 5.32809e-22)
(1.08089 -0.1084 -2.70753e-22)
(1.07331 -0.131104 1.40058e-22)
(1.06607 -0.157187 7.50468e-22)
(1.04155 -0.190258 -3.94287e-22)
(1.00397 -0.218525 1.8924e-22)
(0.938395 -0.249023 -7.2528e-22)
(0.832862 -0.250824 1.71473e-22)
(0.708008 -0.175446 9.30263e-22)
(0.649105 -0.011801 5.35865e-22)
(0.713186 0.145597 1.08182e-21)
(0.834357 0.212577 1.15583e-22)
(0.931083 0.207316 -1.02008e-21)
(0.994341 0.178414 -7.50314e-22)
(1.03007 0.145227 1.68613e-21)
(1.0401 0.113417 5.77738e-23)
(1.04829 0.0895165 -8.877e-23)
(1.04562 0.0725854 5.64749e-23)
(1.04273 0.0605414 -9.7203e-23)
(1.04017 0.0508929 4.5454e-23)
(1.03764 0.0428609 7.26624e-23)
(1.03513 0.0357705 -4.24738e-23)
(1.0324 0.0293907 1.29564e-23)
(1.02974 0.0237377 0)
(1.02748 0.0186899 0)
(1.02568 0.0140952 0)
(1.02434 0.00987292 0)
(1.02347 0.00587147 0)
(1.02308 0.00204804 0)
(1.02853 -0.0013616 0)
(1.02936 -0.00431363 0)
(1.031 -0.00721162 0)
(1.03362 -0.0104905 0)
(1.0372 -0.0141339 0)
(1.04183 -0.0183249 0)
(1.04763 -0.0232668 -2.17245e-24)
(1.05539 -0.0295153 -3.18219e-23)
(1.06534 -0.0378435 4.43264e-23)
(1.07669 -0.0487657 4.80027e-23)
(1.08913 -0.0626802 -2.74094e-23)
(1.10223 -0.0801478 -4.37016e-23)
(1.11498 -0.101584 -2.68327e-23)
(1.1163 -0.131627 1.79037e-22)
(1.11926 -0.166886 5.7141e-23)
(1.11145 -0.21586 -2.75257e-23)
(1.08676 -0.280102 5.7355e-23)
(1.02764 -0.380227 -5.36383e-24)
(0.860417 -0.495534 -1.12726e-21)
(0.483189 -0.48624 -3.66637e-20)
(0.186622 -0.00756885 1.99265e-21)
(0.494208 0.452689 -5.16255e-21)
(0.856444 0.452497 1.07918e-21)
(1.01731 0.331927 -1.77292e-23)
(1.07148 0.233803 -5.75587e-23)
(1.08584 0.163075 -2.37674e-22)
(1.07855 0.123961 -1.10785e-22)
(1.07383 0.0878152 -1.76745e-22)
(1.06464 0.0725843 1.25833e-23)
(1.05712 0.0601703 9.27037e-23)
(1.05174 0.0505101 -2.43459e-23)
(1.04754 0.0427266 -5.29378e-24)
(1.04402 0.035856 5.31962e-24)
(1.04055 0.029523 -1.57994e-24)
(1.03702 0.0238117 0)
(1.03401 0.0187054 0)
(1.03164 0.0140847 0)
(1.02989 0.00979647 0)
(1.02875 0.00577917 0)
(1.02824 0.00177127 0)
(1.0319 -0.00122582 0)
(1.03287 -0.00333787 0)
(1.03491 -0.00568588 0)
(1.03795 -0.0081252 0)
(1.04206 -0.0107898 0)
(1.04742 -0.0138541 0)
(1.05456 -0.0175695 1.33245e-23)
(1.06468 -0.0225521 7.35527e-24)
(1.07765 -0.0293701 -1.02686e-23)
(1.09266 -0.0383156 -3.43289e-23)
(1.10987 -0.0498343 -7.12663e-23)
(1.12926 -0.0644801 -9.33131e-23)
(1.1504 -0.0819901 1.83762e-22)
(1.15914 -0.112766 -9.12588e-23)
(1.18194 -0.146541 1.49987e-22)
(1.19813 -0.200562 -6.91476e-23)
(1.22129 -0.278063 9.35119e-23)
(1.26212 -0.417529 1.11943e-21)
(0.943891 -0.50713 -8.38621e-20)
(1.07478 0.561634 2.06336e-20)
(1.24677 0.365841 5.88848e-23)
(1.19262 0.221582 -2.11178e-23)
(1.15361 0.143476 -2.10806e-23)
(1.12115 0.109963 1.24667e-22)
(1.09973 0.0762534 -3.67157e-22)
(1.08294 0.0639841 1.11098e-22)
(1.07102 0.0542545 1.22013e-22)
(1.06291 0.0463962 6.09581e-23)
(1.05702 0.0397599 3.66921e-23)
(1.05259 0.0337974 1.85258e-23)
(1.0486 0.028095 7.06557e-24)
(1.04432 0.0227047 0)
(1.04054 0.017816 0)
(1.03756 0.013417 0)
(1.03538 0.00936308 0)
(1.03396 0.00555479 0)
(1.03327 0.00194529 0)
(1.03428 -0.000626711 0)
(1.03535 -0.00208869 0)
(1.03747 -0.00351712 0)
(1.0407 -0.00495527 0)
(1.04522 -0.00651003 0)
(1.05121 -0.00818509 0)
(1.05962 -0.0102438 2.04359e-24)
(1.07189 -0.0132575 -9.69869e-24)
(1.08739 -0.0174615 9.93042e-24)
(1.10526 -0.0228313 3.23883e-23)
(1.12597 -0.0295888 -1.9204e-23)
(1.15015 -0.038269 1.92915e-22)
(1.17787 -0.0481309 -4.99456e-22)
(1.19645 -0.0740967 -2.63648e-22)
(1.23456 -0.0962587 -3.03522e-21)
(1.271 -0.136105 2.20004e-23)
(1.32896 -0.183253 7.57114e-24)
(1.42038 -0.229225 1.68471e-21)
(0.00904867 0.00717772 1.23156e-19)
(0.0670936 -0.00384973 -2.08816e-19)
(1.40869 0.185655 -3.27367e-22)
(1.28081 0.129394 -2.13819e-23)
(1.20124 0.0884154 -1.95623e-21)
(1.15309 0.0747361 -3.07585e-21)
(1.11673 0.0546049 -3.69659e-22)
(1.09635 0.0493573 7.25514e-23)
(1.08209 0.0441203 1.20175e-23)
(1.07212 0.0389927 -2.75715e-23)
(1.06509 0.0342285 2.18039e-23)
(1.06014 0.0297012 -1.40364e-24)
(1.05598 0.0250796 5.48947e-24)
(1.0512 0.0203768 0)
(1.04673 0.0160036 0)
(1.0432 0.0120707 0)
(1.04062 0.00849205 0)
(1.0389 0.005037 0)
(1.03804 0.00172347 0)
(1.03593 -0.000248208 -1.57514e-26)
(1.03697 -0.000758642 0)
(1.03903 -0.00118221 0)
(1.04231 -0.00154653 0)
(1.04691 -0.0018234 0)
(1.05309 -0.00193324 0)
(1.06231 -0.00202348 -7.71576e-24)
(1.07592 -0.00246998 1.48712e-23)
(1.09264 -0.00316819 -2.17463e-23)
(1.1118 -0.00386476 4.88988e-23)
(1.13405 -0.00445315 1.52585e-22)
(1.16058 -0.00528372 9.23903e-22)
(1.19145 -0.00505065 -9.54098e-22)
(1.21848 -0.0221007 4.97443e-22)
(1.26271 -0.0307818 -1.40596e-21)
(1.30766 -0.0538528 -9.21343e-22)
(1.36748 -0.0749302 9.45198e-22)
(1.3508 -0.0735422 -6.80275e-24)
(0.0367461 -0.0444914 7.00924e-23)
(0.251821 -0.0194624 1.00588e-20)
(1.36636 -0.00756307 -1.7579e-21)
(1.28744 0.0129191 1.29024e-21)
(1.20409 0.0224597 -1.11585e-21)
(1.15981 0.0332033 -3.95405e-22)
(1.12255 0.0315598 8.53368e-22)
(1.10351 0.0337424 3.08128e-22)
(1.08911 0.0325428 -5.27654e-22)
(1.07864 0.0300072 1.22211e-22)
(1.07121 0.0271128 -8.79588e-23)
(1.06613 0.0240557 -1.5665e-23)
(1.06218 0.0206696 -1.20641e-24)
(1.0573 0.0169728 0)
(1.05225 0.0133368 0)
(1.0482 0.0100077 0)
(1.0452 0.00689679 0)
(1.04325 0.00400507 0)
(1.04232 0.0010747 0)
(1.03627 0.000253078 1.8823e-26)
(1.03731 0.000625909 0)
(1.03931 0.00103508 0)
(1.0424 0.00163702 0)
(1.04673 0.00257834 0)
(1.05264 0.00404036 0)
(1.06186 0.00610553 1.53179e-24)
(1.07554 0.00854335 -3.71234e-24)
(1.09187 0.0116466 1.76554e-22)
(1.11049 0.0160597 -2.22142e-22)
(1.13205 0.0222303 3.1022e-22)
(1.15757 0.0297633 -7.21167e-22)
(1.18796 0.0404871 6.35964e-22)
(1.22006 0.0348167 -8.72166e-22)
(1.26587 0.0407575 6.64075e-22)
(1.31823 0.0330781 1.71771e-21)
(1.3831 0.023572 -1.18418e-21)
(1.33576 0.00444833 7.70006e-22)
(0.290726 -0.177135 2.13382e-22)
(0.0735925 -0.459816 7.8889e-22)
(-0.19363 -0.427296 4.34538e-23)
(-0.162876 -0.240338 -8.13668e-22)
(0.489701 -0.219756 -3.32072e-22)
(1.26099 -0.184291 3.63718e-22)
(1.22203 -0.0844065 -2.8197e-21)
(1.16484 -0.0240936 1.70819e-21)
(1.14158 0.00425542 -7.14866e-23)
(1.11566 0.0180486 4.11681e-24)
(1.1033 0.0217026 -2.45435e-22)
(1.09212 0.0223902 -1.26393e-22)
(1.0827 0.0212856 1.38851e-22)
(1.07554 0.0195707 8.39592e-23)
(1.07052 0.0175365 -3.90826e-23)
(1.06688 0.0152235 -1.6292e-23)
(1.06217 0.012633 0)
(1.05686 0.0100035 0)
(1.05252 0.00758511 0)
(1.04925 0.0052909 0)
(1.04702 0.0031543 0)
(1.04587 0.00126678 0)
(1.03569 0.000424373 2.82005e-23)
(1.03652 0.00148016 0)
(1.03828 0.00269781 0)
(1.04096 0.00421503 0)
(1.04466 0.00622251 0)
(1.0497 0.008944 0)
(1.05783 0.0126707 1.05887e-25)
(1.07015 0.0175864 2.86319e-24)
(1.0845 0.0242842 -1.44734e-22)
(1.10045 0.0333945 2.94921e-22)
(1.11868 0.0455488 -4.80116e-22)
(1.13997 0.0609056 2.6159e-22)
(1.16575 0.0818163 -4.48173e-22)
(1.20007 0.0917488 1.56595e-21)
(1.24379 0.114552 1.35205e-21)
(1.30496 0.144712 -9.53899e-22)
(1.38437 0.154796 2.21161e-21)
(1.41163 0.156914 4.71095e-21)
(0.77156 -0.091086 -2.10993e-21)
(0.355697 -0.379961 -6.92629e-21)
(-0.242411 -0.609092 1.26851e-21)
(-0.30837 -0.667894 3.14054e-21)
(0.422719 -0.505722 -3.84552e-21)
(1.01236 -0.253989 2.93294e-21)
(1.09473 -0.103193 -3.44157e-21)
(1.10393 -0.0228447 -6.01032e-22)
(1.112 0.00500094 1.11257e-21)
(1.10742 0.0186062 4.86816e-23)
(1.1011 0.0173958 5.14158e-22)
(1.09321 0.0158182 4.69677e-22)
(1.08535 0.0140379 -1.58758e-22)
(1.07873 0.0122955 9.74514e-23)
(1.07373 0.0106656 9.64704e-24)
(1.0702 0.00913931 -3.31018e-25)
(1.06546 0.0075349 0)
(1.06004 0.00601477 0)
(1.05555 0.00463083 0)
(1.05224 0.00330982 0)
(1.05011 0.00201661 0)
(1.04911 0.000712852 1.48339e-23)
(1.03449 0.000607152 3.71591e-24)
(1.03501 0.00199195 0)
(1.03632 0.00371276 0)
(1.03832 0.00575459 0)
(1.04107 0.00836475 0)
(1.04483 0.0117441 0)
(1.05112 0.0163862 0)
(1.06087 0.0228658 -7.72288e-25)
(1.07177 0.0319637 1.97989e-23)
(1.08328 0.0443384 6.75125e-23)
(1.0958 0.0610816 3.16898e-22)
(1.1098 0.0826214 -1.12451e-21)
(1.12627 0.111743 1.19741e-21)
(1.1495 0.152134 1.0578e-23)
(1.19023 0.183588 -2.25249e-21)
(1.23746 0.238835 -4.80957e-21)
(1.30986 0.296711 -4.41774e-21)
(1.40592 0.393442 -1.52502e-20)
(1.14821 0.345714 -4.3873e-21)
(0.675029 0.16785 -2.03811e-20)
(0.116914 -0.0780045 -1.68408e-20)
(-0.219156 -0.358179 -9.17885e-21)
(0.063237 -0.363448 2.85811e-21)
(0.731229 -0.11093 1.93103e-20)
(0.995859 0.0248992 3.89544e-22)
(1.06677 0.0317593 1.13796e-22)
(1.10409 0.0400278 8.68676e-23)
(1.10916 0.0255671 -4.79965e-22)
(1.10454 0.018023 4.18476e-22)
(1.09683 0.0122676 -1.14212e-22)
(1.08864 0.00807595 -1.72215e-23)
(1.0814 0.00535419 -2.88353e-23)
(1.07611 0.00366023 6.82508e-24)
(1.07223 0.00254987 0)
(1.06714 0.00190555 0)
(1.06154 0.00150332 0)
(1.05692 0.00111118 0)
(1.05358 0.000691969 0)
(1.05144 0.000302163 0)
(1.0502 -0.000106144 -1.69246e-22)
(1.03266 0.000732467 1.46228e-23)
(1.03303 0.00222395 0)
(1.03386 0.00395102 0)
(1.03516 0.00599337 0)
(1.0369 0.00862543 0)
(1.03922 0.0119801 0)
(1.04322 0.0166798 0)
(1.04948 0.023716 0)
(1.05588 0.0337447 -1.71681e-24)
(1.06159 0.0474929 -7.10061e-23)
(1.06673 0.0661749 -8.89331e-23)
(1.07111 0.0905915 1.77492e-22)
(1.07579 0.122364 8.34608e-22)
(1.07959 0.1697 -1.36952e-21)
(1.10865 0.21695 1.95783e-22)
(1.12612 0.289086 -3.4825e-21)
(1.16565 0.377727 3.09282e-21)
(1.20558 0.513437 -9.02349e-22)
(1.13963 0.708686 -9.37085e-22)
(0.856671 0.757726 -6.19386e-21)
(0.480599 0.632055 -1.532e-21)
(0.139426 0.373944 1.30462e-21)
(0.0691623 0.115864 -7.38468e-22)
(0.47474 0.100671 6.35908e-20)
(1.01959 0.164149 7.74374e-22)
(1.0976 0.0995537 1.49357e-21)
(1.13304 0.0531118 -1.51706e-22)
(1.12628 0.0281777 1.71954e-23)
(1.11522 0.0154659 2.02472e-22)
(1.10361 0.00652456 -1.86741e-23)
(1.09297 0.00111297 1.51242e-23)
(1.08417 -0.00212129 2.79837e-24)
(1.07777 -0.00393711 0)
(1.07282 -0.00452696 0)
(1.06713 -0.00407559 0)
(1.06141 -0.00332559 0)
(1.05678 -0.00263996 -4.76652e-23)
(1.05337 -0.00195185 -6.59179e-23)
(1.05101 -0.00112416 -3.93075e-23)
(1.04963 -0.000325405 0)
(1.03065 0.000637791 0)
(1.03086 0.00201694 0)
(1.03136 0.0034229 0)
(1.03207 0.0050759 0)
(1.03287 0.00718461 0)
(1.03376 0.00986666 0)
(1.03518 0.0137185 0)
(1.03733 0.0199928 0)
(1.03871 0.0292982 1.03313e-26)
(1.03857 0.0419685 2.84534e-25)
(1.03615 0.0590561 -2.32066e-23)
(1.03044 0.081822 -1.67621e-23)
(1.02218 0.110795 6.00676e-23)
(1.00961 0.154818 1.87254e-22)
(1.01581 0.20721 -5.58909e-21)
(1.00187 0.275184 -5.85246e-22)
(1.00595 0.376658 9.36777e-22)
(0.968016 0.504507 1.69953e-21)
(0.904692 0.643067 -3.70397e-21)
(0.797657 0.76355 2.56596e-21)
(0.623055 0.800766 3.23332e-21)
(0.447583 0.720978 -3.30138e-21)
(0.366321 0.547593 1.85373e-21)
(0.530745 0.3358 5.94123e-22)
(1.137 0.208484 -6.78268e-22)
(1.19396 0.11041 2.7339e-22)
(1.17839 0.0324569 -9.80803e-22)
(1.15316 0.0134722 5.75454e-23)
(1.13081 0.00145522 -2.47875e-22)
(1.11257 -0.00613116 -2.2699e-23)
(1.09807 -0.00995741 2.3363e-24)
(1.08685 -0.0120468 1.87505e-26)
(1.0785 -0.0127713 0)
(1.07177 -0.0119825 0)
(1.0653 -0.0100395 0)
(1.05954 -0.00797021 0)
(1.05501 -0.0060388 0)
(1.05168 -0.00416777 0)
(1.04942 -0.00234362 0)
(1.0482 -0.000688312 7.07933e-24)
(1.02887 0.000416098 0)
(1.02899 0.00125531 0)
(1.02929 0.0021159 0)
(1.02965 0.00310439 0)
(1.02986 0.0042876 0)
(1.02965 0.00577763 0)
(1.02874 0.00794076 0)
(1.0272 0.0119252 0)
(1.02427 0.0183184 0)
(1.01928 0.0271489 0)
(1.01061 0.0390223 3.20006e-24)
(0.996521 0.0549931 6.94872e-24)
(0.975403 0.075979 -5.14757e-23)
(0.947229 0.10786 4.3e-23)
(0.934877 0.157971 -1.65711e-20)
(0.887949 0.214391 3.65308e-22)
(0.84436 0.311593 -5.78539e-21)
(0.816112 0.415729 8.06129e-23)
(0.745094 0.536608 -5.97476e-22)
(0.655475 0.659578 5.21814e-21)
(0.58144 0.741756 3.66899e-21)
(0.552357 0.726631 -1.0597e-21)
(0.616193 0.592076 3.2121e-21)
(0.861786 0.352202 1.52988e-21)
(1.29989 0.103327 -2.84528e-21)
(1.289 0.0338796 2.51495e-22)
(1.21403 -0.0243451 1.44406e-22)
(1.1723 -0.0252336 -4.78925e-23)
(1.14089 -0.0276576 1.37358e-22)
(1.1179 -0.0278765 2.5917e-25)
(1.10036 -0.026582 0)
(1.08706 -0.0250436 0)
(1.07678 -0.0227675 0)
(1.06843 -0.0194693 0)
(1.06142 -0.0156277 0)
(1.05585 -0.0121109 0)
(1.05165 -0.00898032 0)
(1.04862 -0.00614266 0)
(1.04664 -0.00354933 0)
(1.04563 -0.00113265 0)
(1.02794 0.000101041 0)
(1.02808 0.00029657 0)
(1.02834 0.00048418 0)
(1.0286 0.000651167 0)
(1.02868 0.000728784 0)
(1.02806 0.000730884 0)
(1.02593 0.00075332 0)
(1.02221 0.00144986 0)
(1.01678 0.00319211 0)
(1.00898 0.00571231 0)
(0.996774 0.0091443 0)
(0.977509 0.013456 6.867e-25)
(0.94757 0.0209641 4.46486e-23)
(0.907569 0.0319182 1.304e-23)
(0.87163 0.0750533 -5.73313e-21)
(0.812128 0.111315 3.64029e-22)
(0.719168 0.179742 -4.42965e-21)
(0.621072 0.302099 1.2049e-21)
(0.541913 0.454364 -1.54841e-21)
(0.518596 0.563993 3.53199e-21)
(0.584224 0.577236 3.45832e-21)
(0.721114 0.472857 4.69482e-21)
(0.927204 0.27141 2.59905e-21)
(1.18856 0.0465358 2.43069e-21)
(1.39763 -0.107621 -6.70388e-22)
(1.31247 -0.0931907 3.9986e-22)
(1.21064 -0.0968256 6.83711e-22)
(1.16609 -0.076814 -1.60804e-23)
(1.13526 -0.0642462 -6.75828e-25)
(1.11239 -0.0538704 0)
(1.09502 -0.0453369 0)
(1.08154 -0.0385339 0)
(1.0707 -0.0322215 0)
(1.06192 -0.0260919 0)
(1.05524 -0.0203801 0)
(1.05038 -0.0155143 0)
(1.04682 -0.0113602 0)
(1.0443 -0.00775802 0)
(1.04269 -0.00450866 0)
(1.04191 -0.00147424 0)
(1.02803 -8.1097e-05 0)
(1.02826 -0.000364732 0)
(1.02862 -0.00078805 0)
(1.02908 -0.00143607 0)
(1.02947 -0.00241926 0)
(1.02923 -0.00387981 0)
(1.02725 -0.00595053 0)
(1.02334 -0.00855888 0)
(1.01794 -0.0118153 0)
(1.01055 -0.0164045 0)
(0.999078 -0.0229552 6.29579e-24)
(0.980471 -0.0330961 0)
(0.948689 -0.0429885 0)
(0.899805 -0.0568923 -1.12531e-21)
(0.824858 -0.0582899 7.41504e-21)
(0.756298 -0.00781438 -9.20801e-21)
(0.598619 0.0241949 1.239e-22)
(0.484515 0.0102264 -3.15697e-22)
(0.460295 -0.0452844 5.4735e-22)
(0.550236 -0.129432 -4.33572e-21)
(0.748036 -0.213255 7.58804e-21)
(0.976794 -0.300028 -1.32175e-20)
(1.19874 -0.362985 -4.19444e-22)
(1.33949 -0.361225 -7.67055e-22)
(1.34048 -0.291909 1.95871e-22)
(1.20974 -0.209335 -9.84121e-22)
(1.16412 -0.155148 3.52723e-22)
(1.13281 -0.120425 0)
(1.11105 -0.094557 0)
(1.09398 -0.0750306 -6.94169e-24)
(1.08058 -0.0599884 0)
(1.06952 -0.0484668 0)
(1.0601 -0.0388454 0)
(1.05238 -0.0306533 0)
(1.04697 -0.0236255 0)
(1.0434 -0.017782 0)
(1.04086 -0.0128731 0)
(1.03907 -0.00868575 7.84485e-24)
(1.03795 -0.0049897 5.62798e-24)
(1.03741 -0.00157729 0)
(1.02851 -0.000139342 0)
(1.029 -0.000659855 0)
(1.02971 -0.00143002 0)
(1.03068 -0.00258235 0)
(1.03185 -0.00429275 0)
(1.03268 -0.00679779 0)
(1.03203 -0.0104432 0)
(1.02981 -0.0155914 0)
(1.02713 -0.0228481 0)
(1.02389 -0.0333426 0)
(1.01834 -0.0486011 -6.57959e-23)
(1.00811 -0.072813 0)
(0.983868 -0.103402 0)
(0.924912 -0.142384 -6.8116e-21)
(0.82351 -0.192613 -1.47798e-20)
(0.726286 -0.213614 -1.11404e-21)
(0.700934 -0.308474 0)
(0.692772 -0.427985 -5.64657e-22)
(0.705263 -0.539252 3.70963e-21)
(0.772401 -0.620968 8.28431e-21)
(0.891385 -0.658282 -2.09526e-21)
(1.01192 -0.641048 2.76368e-21)
(1.103 -0.565855 2.67136e-22)
(1.13809 -0.44963 0)
(1.12154 -0.329364 -2.40218e-22)
(1.10765 -0.24404 2.39479e-21)
(1.09662 -0.185137 6.85863e-22)
(1.08329 -0.142675 0)
(1.07401 -0.109876 0)
(1.06634 -0.0852852 -1.10433e-22)
(1.05948 -0.066516 0)
(1.05297 -0.0523148 0)
(1.04661 -0.0410349 0)
(1.04106 -0.031981 0)
(1.0375 -0.0245229 0)
(1.03552 -0.0184153 -1.41924e-23)
(1.03421 -0.0133099 1.84428e-23)
(1.03334 -0.00894442 0)
(1.03286 -0.00512164 0)
(1.03272 -0.00161412 4.334e-23)
(1.0291 -0.000194259 0)
(1.02991 -0.000684356 0)
(1.03112 -0.00141738 0)
(1.03281 -0.0025763 0)
(1.03504 -0.00437512 0)
(1.03743 -0.00711258 0)
(1.03902 -0.0113088 6.97854e-24)
(1.03991 -0.0176306 0)
(1.04197 -0.0268815 0)
(1.04582 -0.0404148 0)
(1.05071 -0.0598622 0)
(1.05579 -0.0908943 0)
(1.05181 -0.133721 0)
(1.00351 -0.192632 5.00757e-21)
(0.905224 -0.277413 1.88917e-22)
(0.834973 -0.360606 6.27724e-23)
(0.835374 -0.459824 0)
(0.806071 -0.531699 0)
(0.791349 -0.577856 1.90014e-21)
(0.80132 -0.606167 3.68145e-21)
(0.856192 -0.596753 -1.46907e-20)
(0.918801 -0.542751 1.16777e-21)
(0.969353 -0.465211 0)
(0.99194 -0.376967 0)
(1.00302 -0.298373 0)
(1.01872 -0.236559 -1.46612e-23)
(1.02534 -0.184209 3.33176e-22)
(1.02938 -0.141403 2.60745e-23)
(1.03319 -0.108557 0)
(1.03537 -0.0832971 0)
(1.03581 -0.064019 0)
(1.03478 -0.0493693 0)
(1.03237 -0.0380231 -6.22808e-23)
(1.02967 -0.0292577 -2.55227e-23)
(1.02825 -0.0223803 -1.2858e-24)
(1.0279 -0.0168978 0)
(1.02776 -0.0123405 0)
(1.02769 -0.00843057 0)
(1.02779 -0.00492506 0)
(1.02804 -0.00169553 0)
(1.02966 -0.000107799 0)
(1.03061 -0.000321762 0)
(1.03222 -0.000658596 0)
(1.03461 -0.00133508 0)
(1.03792 -0.00254227 0)
(1.04202 -0.00455686 0)
(1.04626 -0.00792012 0)
(1.0509 -0.0134794 0)
(1.0582 -0.0218738 -1.68074e-23)
(1.06964 -0.0341299 0)
(1.08612 -0.051292 0)
(1.1081 -0.0776198 0)
(1.13085 -0.11558 4.82125e-22)
(1.11778 -0.172083 1.41508e-21)
(1.04405 -0.269245 0)
(0.965037 -0.373962 0)
(0.917255 -0.467515 0)
(0.851627 -0.528493 0)
(0.814315 -0.566519 -1.02678e-20)
(0.792039 -0.578454 -2.30961e-20)
(0.796451 -0.559401 -8.11577e-21)
(0.819885 -0.489761 3.4803e-21)
(0.856301 -0.413989 0)
(0.889288 -0.333926 0)
(0.919686 -0.26604 0)
(0.947959 -0.208547 0)
(0.96395 -0.159714 7.52236e-22)
(0.97982 -0.121523 2.4602e-22)
(0.995121 -0.0926376 0)
(1.00595 -0.0699064 1.78486e-24)
(1.01325 -0.0527932 -3.82779e-25)
(1.01752 -0.0397434 -2.30442e-24)
(1.01921 -0.0298203 0)
(1.01971 -0.0225025 0)
(1.02057 -0.0171634 0)
(1.0217 -0.0130555 0)
(1.02254 -0.00965105 0)
(1.02305 -0.00672773 0)
(1.02341 -0.00402359 0)
(1.02366 -0.00142707 0)
(1.02966 0.000174767 0)
(1.03064 0.000478701 0)
(1.03248 0.000763704 0)
(1.03536 0.000904322 0)
(1.03943 0.000825568 0)
(1.0448 0.000358409 0)
(1.05126 -0.00084159 0)
(1.05915 -0.00355347 0)
(1.07052 -0.00817764 0)
(1.08727 -0.0148766 0)
(1.1116 -0.0239642 2.49301e-22)
(1.14524 -0.0363244 8.45903e-23)
(1.18807 -0.0550008 1.34003e-21)
(1.21507 -0.0841845 -5.88835e-22)
(1.18697 -0.15391 0)
(1.10595 -0.242146 0)
(1.02922 -0.337775 0)
(0.933813 -0.405918 0)
(0.858444 -0.469587 3.35726e-20)
(0.795361 -0.476668 -3.82154e-20)
(0.749243 -0.475248 -2.09479e-21)
(0.732958 -0.420613 6.56466e-21)
(0.751657 -0.361955 0)
(0.788011 -0.292997 0)
(0.828992 -0.22529 0)
(0.870862 -0.162939 0)
(0.907174 -0.114709 -2.11033e-21)