/*--------------------------------*- C++ -*----------------------------------*\
| =========                 |                                                 |
| \\      /  F ield         | OpenFOAM: The Open Source CFD Toolbox           |
|  \\    /   O peration     | Version:  v2106                                 |
|   \\  /    A nd           | Website:  www.openfoam.com                      |
|    \\/     M anipulation  |                                                 |
\*---------------------------------------------------------------------------*/
FoamFile
{
    version     2.0;
    format      ascii;
    arch        "LSB;label=32;scalar=64";
    class       pointVectorField;
    location    "0";
    object      pointDisplacement;
}
// * * * * * * * * * * * * * * * * * * * * * * * * * * * * * * * * * * * * * //

dimensions      [0 1 0 0 0 0 0];

internalField   nonuniform List<vector> 
24440
(
(0 0 0)
(0 0 0)
(0 0 0)
(0 0 0)
(0 0 0)
(0 0 0)
(0 0 0)
(0 0 0)
(0 0 0)
(0 0 0)
(0 0 0)
(0 0 0)
(0 0 0)
(0 0 0)
(0 0 0)
(0 0 0)
(0 0 0)
(0 0 0)
(0 0 0)
(0 0 0)
(0 0 0)
(0 0 0)
(0 0 0)
(0 0 0)
(0 0 0)
(0 0 0)
(0 0 0)
(0 0 0)
(0 0 0)
(0 0 0)
(0 0 0)
(0 0 0)
(0 0 0)
(0 0 0)
(0 0 0)
(0 0 0)
(0 0 0)
(0 0 0)
(0 0 0)
(0 0 0)
(0 0 0)
(0 0 0)
(0 0 0)
(0 0 0)
(0 0 0)
(0 0 0)
(0 0 0)
(0 0 0)
(0 0 0)
(0 0 0)
(0 0 0)
(0 0 0)
(0 0 0)
(0 0 0)
(0 0 0)
(0 0 0)
(0 0 0)
(0 0 0)
(0 0 0)
(0 0 0)
(0 0 0)
(0 0 0)
(0 0 0)
(0 0 0)
(0 0 0)
(0 0 0)
(0 0 0)
(0 0 0)
(0 0 0)
(0 0 0)
(0 0 0)
(0 0 0)
(0 0 0)
(0 0 0)
(0 0 0)
(0 0 0)
(0 0 0)
(0 0 0)
(0 0 0)
(0 0 0)
(0 0 0)
(0 0 0)
(0 0 0)
(0 0 0)
(0 0 0)
(0 0 0)
(0 0 0)
(0 0 0)
(0 0 0)
(0 0 0)
(0 0 0)
(0 0 0)
(0 0 0)
(0 0 0)
(0 0 0)
(0 0 0)
(0 0 0)
(0 0 0)
(0 2.05718e-06 0)
(0 1.29727e-05 0)
(0 3.56721e-05 0)
(0 5.4969e-05 0)
(0 6.23746e-05 0)
(0 5.4969e-05 0)
(0 3.56721e-05 0)
(0 1.29727e-05 0)
(0 2.05718e-06 0)
(0 0 0)
(0 0 0)
(0 0 0)
(0 0 0)
(0 0 0)
(0 0 0)
(0 0 0)
(0 0 0)
(0 0 0)
(0 0 0)
(0 0 0)
(0 0 0)
(0 0 0)
(0 0 0)
(0 0 0)
(0 0 0)
(0 0 0)
(0 0 0)
(0 0 0)
(0 0 0)
(0 0 0)
(0 0 0)
(0 0 0)
(0 0 0)
(0 0 0)
(0 0 0)
(0 0 0)
(0 0 0)
(0 0 0)
(0 3.44522e-06 0)
(0 4.55744e-05 0)
(0 0.000134122 0)
(0 0.000241613 0)
(0 0.000344638 0)
(0 0.000416461 0)
(0 0.000483228 0)
(0 0.00050672 0)
(0 0.000483228 0)
(0 0.000416461 0)
(0 0.000344638 0)
(0 0.000241613 0)
(0 0.000134122 0)
(0 4.55744e-05 0)
(0 3.44522e-06 0)
(0 0 0)
(0 0 0)
(0 0 0)
(0 0 0)
(0 0 0)
(0 0 0)
(0 0 0)
(0 0 0)
(0 0 0)
(0 0 0)
(0 0 0)
(0 0 0)
(0 0 0)
(0 0 0)
(0 0 0)
(0 0 0)
(0 0 0)
(0 0 0)
(0 0 0)
(0 0 0)
(0 0 0)
(0 0 0)
(0 0 0)
(0 0 0)
(0 1.4465e-06 0)
(0 5.99347e-05 0)
(0 0.000204396 0)
(0 0.000403067 0)
(0 0.000607697 0)
(0 0.000835989 0)
(0 0.00103371 0)
(0 0.00115616 0)
(0 0.00127325 0)
(0 0.00131372 0)
(0 0.00127325 0)
(0 0.00115616 0)
(0 0.00103371 0)
(0 0.000835989 0)
(0 0.000607697 0)
(0 0.000403067 0)
(0 0.000204396 0)
(0 5.99347e-05 0)
(0 1.4465e-06 0)
(0 0 0)
(0 0 0)
(0 0 0)
(0 0 0)
(0 0 0)
(0 0 0)
(0 0 0)
(0 0 0)
(0 0 0)
(0 0 0)
(0 0 0)
(0 0 0)
(0 0 0)
(0 0 0)
(0 0 0)
(0 0 0)
(0 0 0)
(0 0 0)
(0 0 0)
(0 0 0)
(0 0 0)
(0 1.36774e-05 0)
(0 0.000142237 0)
(0 0.000378002 0)
(0 0.00066321 0)
(0 0.00101732 0)
(0 0.00137448 0)
(0 0.00168389 0)
(0 0.00197373 0)
(0 0.00217941 0)
(0 0.0023023 0)
(0 0.0023587 0)
(0 0.0023023 0)
(0 0.00217941 0)
(0 0.00197373 0)
(0 0.00168389 0)
(0 0.00137448 0)
(0 0.00101732 0)
(0 0.00066321 0)
(0 0.000378002 0)
(0 0.000142237 0)
(0 1.44798e-05 0)
(0 0 0)
(0 0 0)
(0 0 0)
(0 0 0)
(0 0 0)
(0 0 0)
(0 0 0)
(0 0 0)
(0 0 0)
(0 0 0)
(0 0 0)
(0 0 0)
(0 0 0)
(0 0 0)
(0 0 0)
(0 0 0)
(0 0 0)
(0 0 0)
(0 0 0)
(0 2.69003e-05 0)
(0 0.000188625 0)
(0 0.000470784 0)
(0 0.000864285 0)
(0 0.00133195 0)
(0 0.00181792 0)
(0 0.00226389 0)
(0 0.00268667 0)
(0 0.00284554 0)
(0 0.00301734 0)
(0 0.00316104 0)
(0 0.00327427 0)
(0 0.00335523 0)
(0 0.00341122 0)
(0 0.00346294 0)
(0 0.00348026 0)
(0 0.00346294 0)
(0 0.00341122 0)
(0 0.00335523 0)
(0 0.00327427 0)
(0 0.00316104 0)
(0 0.00301734 0)
(0 0.00284554 0)
(0 0.00268667 0)
(0 0.00226389 0)
(0 0.00181792 0)
(0 0.00133195 0)
(0 0.000864285 0)
(0 0.000461012 0)
(0 0.000170441 0)
(0 2.14951e-05 0)
(0 0 0)
(0 0 0)
(0 0 0)
(0 0 0)
(0 0 0)
(0 0 0)
(0 0 0)
(0 0 0)
(0 0 0)
(0 0 0)
(0 0 0)
(0 0 0)
(0 0 0)
(0 0 0)
(0 0 0)
(0 0 0)
(0 0 0)
(0 1.58223e-05 0)
(0 0.00018107 0)
(0 0.000504492 0)
(0 0.000949306 0)
(0 0.00147033 0)
(0 0.00208336 0)
(0 0.00237648 0)
(0 0.00263629 0)
(0 0.00292385 0)
(0 0.00319338 0)
(0 0.00343998 0)
(0 0.00364948 0)
(0 0.00318058 0)
(0 0.00337477 0)
(0 0.00352803 0)
(0 0.00368261 0)
(0 0.00380388 0)
(0 0.00389029 0)
(0 0.0039421 0)
(0 0.003997 0)
(0 0.00401536 0)
(0 0.003997 0)
(0 0.0039421 0)
(0 0.00389029 0)
(0 0.00380388 0)
(0 0.00368261 0)
(0 0.00352803 0)
(0 0.00337477 0)
(0 0.00318058 0)
(0 0.00364948 0)
(0 0.00343998 0)
(0 0.00319338 0)
(0 0.00292385 0)
(0 0.00263629 0)
(0 0.00237648 0)
(0 0.00208336 0)
(0 0.00147033 0)
(0 0.000949306 0)
(0 0.00048609 0)
(0 0.000173192 0)
(0 1.4369e-05 0)
(0 0 0)
(0 0 0)
(0 0 0)
(0 0 0)
(0 0 0)
(0 0 0)
(0 0 0)
(0 0 0)
(0 0 0)
(0 0 0)
(0 0 0)
(0 0 0)
(0 0 0)
(0 0 0)
(0 0 0)
(0 0 0)
(0 0.000100111 0)
(0 0.000409117 0)
(0 0.000874636 0)
(0 0.00145938 0)
(0 0.00211065 0)
(0 0.00277242 0)
(0 0.00244023 0)
(0 0.00275898 0)
(0 0.0030657 0)
(0 0.00335451 0)
(0 0.0036111 0)
(0 0.00387133 0)
(0 0.00410128 0)
(0 0.00429126 0)
(0 0.00385582 0)
(0 0.00402963 0)
(0 0.00447039 0)
(0 0.00459938 0)
(0 0.0041679 0)
(0 0.00429441 0)
(0 0.00472766 0)
(0 0.00481796 0)
(0 0.00438416 0)
(0 0.00442964 0)
(0 0.00487029 0)
(0 0.00491183 0)
(0 0.00448626 0)
(0 0.00450515 0)
(0 0.00493059 0)
(0 0.00491183 0)
(0 0.00448626 0)
(0 0.00442964 0)
(0 0.00487029 0)
(0 0.00481796 0)
(0 0.00438416 0)
(0 0.00429441 0)
(0 0.00472766 0)
(0 0.00459938 0)
(0 0.0041679 0)
(0 0.00402963 0)
(0 0.00447039 0)
(0 0.00429126 0)
(0 0.00385582 0)
(0 0.00410128 0)
(0 0.00387133 0)
(0 0.0036111 0)
(0 0.00335451 0)
(0 0.0030657 0)
(0 0.00275898 0)
(0 0.00244023 0)
(0 0.00277242 0)
(0 0.00211065 0)
(0 0.00144181 0)
(0 0.000867732 0)
(0 0.00040868 0)
(0 0.000108836 0)
(0 0 0)
(0 0 0)
(0 0 0)
(0 0 0)
(0 0 0)
(0 0 0)
(0 0 0)
(0 0 0)
(0 0 0)
(0 0 0)
(0 0 0)
(0 0 0)
(0 0 0)
(0 0 0)
(0 0 0)
(0 2.1839e-05 0)
(0 0.000224368 0)
(0 0.000646736 0)
(0 0.00121172 0)
(0 0.00188339 0)
(0 0.00265292 0)
(0 0.00339416 0)
(0 0.0031057 0)
(0 0.00344149 0)
(0 0.00309017 0)
(0 0.00343578 0)
(0 0.00375712 0)
(0 0.00407376 0)
(0 0.00373994 0)
(0 0.00401772 0)
(0 0.00435924 0)
(0 0.00448941 0)
(0 0.00461058 0)
(0 0.00444583 0)
(0 0.0042522 0)
(0 0.00448817 0)
(0 0.00465739 0)
(0 0.00476193 0)
(0 0.00459265 0)
(0 0.0048468 0)
(0 0.00500732 0)
(0 0.00508159 0)
(0 0.00492221 0)
(0 0.00508838 0)
(0 0.00524542 0)
(0 0.00528456 0)
(0 0.00513675 0)
(0 0.00522564 0)
(0 0.00536954 0)
(0 0.00539003 0)
(0 0.00524945 0)
(0 0.00527505 0)
(0 0.00541258 0)
(0 0.00540843 0)
(0 0.00527064 0)
(0 0.00522564 0)
(0 0.00536954 0)
(0 0.00535012 0)
(0 0.00520522 0)
(0 0.00508838 0)
(0 0.00524542 0)
(0 0.00520047 0)
(0 0.00504382 0)
(0 0.0048468 0)
(0 0.00500732 0)
(0 0.00494174 0)
(0 0.00476165 0)
(0 0.00448817 0)
(0 0.00465739 0)
(0 0.00454336 0)
(0 0.00437458 0)
(0 0.00401772 0)
(0 0.00435924 0)
(0 0.00407376 0)
(0 0.00373994 0)
(0 0.00343578 0)
(0 0.00375712 0)
(0 0.00344149 0)
(0 0.00309017 0)
(0 0.0031057 0)
(0 0.00337887 0)
(0 0.00265109 0)
(0 0.00191375 0)
(0 0.00120155 0)
(0 0.000640439 0)
(0 0.000235613 0)
(0 2.49741e-05 0)
(0 0 0)
(0 0 0)
(0 0 0)
(0 0 0)
(0 0 0)
(0 0 0)
(0 0 0)
(0 0 0)
(0 0 0)
(0 0 0)
(0 0 0)
(0 0 0)
(0 0 0)
(0 0 0)
(0 7.14522e-05 0)
(0 0.000361624 0)
(0 0.000849654 0)
(0 0.00149295 0)
(0 0.00223638 0)
(0 0.00305408 0)
(0 0.00381723 0)
(0 0.00362894 0)
(0 0.00398806 0)
(0 0.00374365 0)
(0 0.00406995 0)
(0 0.00432112 0)
(0 0.00462192 0)
(0 0.00436718 0)
(0 0.00463047 0)
(0 0.00476685 0)
(0 0.00488416 0)
(0 0.00476669 0)
(0 0.0050981 0)
(0 0.00515453 0)
(0 0.00520006 0)
(0 0.00514415 0)
(0 0.00539685 0)
(0 0.00544198 0)
(0 0.00547128 0)
(0 0.00542708 0)
(0 0.0055737 0)
(0 0.00560659 0)
(0 0.00562151 0)
(0 0.00558838 0)
(0 0.0056512 0)
(0 0.00567532 0)
(0 0.00567877 0)
(0 0.00565534 0)
(0 0.00567102 0)
(0 0.00569046 0)
(0 0.00569013 0)
(0 0.00567055 0)
(0 0.0056512 0)
(0 0.00567532 0)
(0 0.00567056 0)
(0 0.00564556 0)
(0 0.0055737 0)
(0 0.00560659 0)
(0 0.00559407 0)
(0 0.00555603 0)
(0 0.00539685 0)
(0 0.00544198 0)
(0 0.00541648 0)
(0 0.00536397 0)
(0 0.0050981 0)
(0 0.00515453 0)
(0 0.00520616 0)
(0 0.00510791 0)
(0 0.00499805 0)
(0 0.00463047 0)
(0 0.00476685 0)
(0 0.00488532 0)
(0 0.00462192 0)
(0 0.00436718 0)
(0 0.00406995 0)
(0 0.00431125 0)
(0 0.00398549 0)
(0 0.00374365 0)
(0 0.00363328 0)
(0 0.00382854 0)
(0 0.0030464 0)
(0 0.00225866 0)
(0 0.00150861 0)
(0 0.000859497 0)
(0 0.000366784 0)
(0 7.32149e-05 0)
(0 0 0)
(0 0 0)
(0 0 0)
(0 0 0)
(0 0 0)
(0 0 0)
(0 0 0)
(0 0 0)
(0 0 0)
(0 0 0)
(0 0 0)
(0 0 0)
(0 0 0)
(0 0 0)
(0 0.000110177 0)
(0 0.000449237 0)
(0 0.000988598 0)
(0 0.00168271 0)
(0 0.00247312 0)
(0 0.00329342 0)
(0 0.00407493 0)
(0 0.00397811 0)
(0 0.00433439 0)
(0 0.00416899 0)
(0 0.00449153 0)
(0 0.00465897 0)
(0 0.0049455 0)
(0 0.00480711 0)
(0 0.00506794 0)
(0 0.00513237 0)
(0 0.00524462 0)
(0 0.00518168 0)
(0 0.00545196 0)
(0 0.00548173 0)
(0 0.00551531 0)
(0 0.00548648 0)
(0 0.00565912 0)
(0 0.00567348 0)
(0 0.00568548 0)
(0 0.0056728 0)
(0 0.00570872 0)
(0 0.00570872 0)
(0 0.00570872 0)
(0 0.00570872 0)
(0 0.00570872 0)
(0 0.00570872 0)
(0 0.00570872 0)
(0 0.00570872 0)
(0 0.00570872 0)
(0 0.00570872 0)
(0 0.00570872 0)
(0 0.00570872 0)
(0 0.00570872 0)
(0 0.00570872 0)
(0 0.00570872 0)
(0 0.00570872 0)
(0 0.00570872 0)
(0 0.00570872 0)
(0 0.00570872 0)
(0 0.00570872 0)
(0 0.00565912 0)
(0 0.00567348 0)
(0 0.00565766 0)
(0 0.00564266 0)
(0 0.00545196 0)
(0 0.00548173 0)
(0 0.00550716 0)
(0 0.00542951 0)
(0 0.00537389 0)
(0 0.00506499 0)
(0 0.00513985 0)
(0 0.00519701 0)
(0 0.00493864 0)
(0 0.00481138 0)
(0 0.00451713 0)
(0 0.00465318 0)
(0 0.00432979 0)
(0 0.00418741 0)
(0 0.00397473 0)
(0 0.00407696 0)
(0 0.00329207 0)
(0 0.00246919 0)
(0 0.00167732 0)
(0 0.000982968 0)
(0 0.00044458 0)
(0 0.000107532 0)
(0 0 0)
(0 0 0)
(0 0 0)
(0 0 0)
(0 0 0)
(0 0 0)
(0 0 0)
(0 0 0)
(0 0 0)
(0 0 0)
(0 0 0)
(0 0 0)
(0 0 0)
(0 0 0)
(0 0.000116813 0)
(0 0.000463598 0)
(0 0.00101123 0)
(0 0.00171371 0)
(0 0.00251199 0)
(0 0.00333902 0)
(0 0.0041253 0)
(0 0.00412675 0)
(0 0.00448339 0)
(0 0.00443054 0)
(0 0.00475272 0)
(0 0.00480564 0)
(0 0.00508668 0)
(0 0.00503492 0)
(0 0.00528056 0)
(0 0.0053043 0)
(0 0.00540279 0)
(0 0.00538139 0)
(0 0.00560368 0)
(0 0.00561284 0)
(0 0.00563715 0)
(0 0.00562869 0)
(0 0.00570872 0)
(0 0.00570872 0)
(0 0.00570872 0)
(0 0.00570872 0)
(0 0.00570872 0)
(0 0.00570872 0)
(0 0.00570872 0)
(0 0.00570872 0)
(0 0.00570872 0)
(0 0.00570872 0)
(0 0.00570872 0)
(0 0.00570872 0)
(0 0.00570872 0)
(0 0.00570872 0)
(0 0.00570872 0)
(0 0.00570872 0)
(0 0.00570872 0)
(0 0.00570848 0)
(0 0.00570766 0)
(0 0.00560368 0)
(0 0.00561284 0)
(0 0.00561888 0)
(0 0.0055618 0)
(0 0.00554165 0)
(0 0.00528024 0)
(0 0.00530463 0)
(0 0.00532061 0)
(0 0.00508668 0)
(0 0.00504224 0)
(0 0.00475838 0)
(0 0.00479353 0)
(0 0.0044695 0)
(0 0.0044344 0)
(0 0.00411135 0)
(0 0.00411607 0)
(0 0.00332875 0)
(0 0.00250157 0)
(0 0.00170402 0)
(0 0.00100314 0)
(0 0.000457788 0)
(0 0.000113803 0)
(0 0 0)
(0 0 0)
(0 0 0)
(0 0 0)
(0 0 0)
(0 0 0)
(0 0 0)
(0 0 0)
(0 0 0)
(0 0 0)
(0 0 0)
(0 0 0)
(0 0 0)
(0 0 0)
(0 9.54631e-05 0)
(0 0.000417213 0)
(0 0.000938633 0)
(0 0.00161524 0)
(0 0.00238976 0)
(0 0.00319707 0)
(0 0.00396995 0)
(0 0.0040815 0)
(0 0.00443756 0)
(0 0.00448223 0)
(0 0.00480478 0)
(0 0.00476006 0)
(0 0.00504243 0)
(0 0.00508615 0)
(0 0.00532039 0)
(0 0.00530786 0)
(0 0.00540632 0)
(0 0.00541826 0)
(0 0.00562889 0)
(0 0.00562592 0)
(0 0.0056487 0)
(0 0.0056514 0)
(0 0.00570872 0)
(0 0.00570872 0)
(0 0.00570872 0)
(0 0.00570872 0)
(0 0.00570872 0)
(0 0.00570872 0)
(0 0.00570872 0)
(0 0.00570872 0)
(0 0.00570872 0)
(0 0.00570872 0)
(0 0.00570872 0)
(0 0.00570872 0)
(0 0.00570872 0)
(0 0.00570872 0)
(0 0.00570872 0)
(0 0.00570872 0)
(0 0.00562889 0)
(0 0.00562348 0)
(0 0.00562052 0)
(0 0.00556357 0)
(0 0.00557004 0)
(0 0.00531545 0)
(0 0.00530747 0)
(0 0.00528325 0)
(0 0.00504588 0)
(0 0.00507992 0)
(0 0.00479739 0)
(0 0.00476258 0)
(0 0.00443906 0)
(0 0.00447383 0)
(0 0.004082 0)
(0 0.00398004 0)
(0 0.00320448 0)
(0 0.0023946 0)
(0 0.00161791 0)
(0 0.000939693 0)
(0 0.000417316 0)
(0 9.52547e-05 0)
(0 0 0)
(0 0 0)
(0 0 0)
(0 0 0)
(0 0 0)
(0 0 0)
(0 0 0)
(0 0 0)
(0 0 0)
(0 0 0)
(0 0 0)
(0 0 0)
(0 0 0)
(0 0 0)
(0 4.82838e-05 0)
(0 0.00030328 0)
(0 0.000754347 0)
(0 0.00136098 0)
(0 0.00211594 0)
(0 0.00288792 0)
(0 0.00364093 0)
(0 0.00384062 0)
(0 0.00419759 0)
(0 0.00432342 0)
(0 0.00466642 0)
(0 0.00452514 0)
(0 0.00481707 0)
(0 0.00495737 0)
(0 0.00520448 0)
(0 0.00514526 0)
(0 0.00525266 0)
(0 0.00531016 0)
(0 0.00555132 0)
(0 0.00553447 0)
(0 0.0055651 0)
(0 0.00558309 0)
(0 0.00570181 0)
(0 0.00569596 0)
(0 0.00570295 0)
(0 0.00570657 0)
(0 0.00570872 0)
(0 0.00570872 0)
(0 0.00570872 0)
(0 0.00570872 0)
(0 0.00570872 0)
(0 0.00570872 0)
(0 0.00570872 0)
(0 0.00570872 0)
(0 0.00570181 0)
(0 0.0056951 0)
(0 0.00568582 0)
(0 0.00569411 0)
(0 0.00555132 0)
(0 0.00553447 0)
(0 0.00551157 0)
(0 0.00543897 0)
(0 0.0054838 0)
(0 0.00520448 0)
(0 0.00514526 0)
(0 0.00507801 0)
(0 0.00481707 0)
(0 0.00495737 0)
(0 0.00465772 0)
(0 0.00452514 0)
(0 0.00419759 0)
(0 0.00433476 0)
(0 0.00384062 0)
(0 0.00364093 0)
(0 0.00288792 0)
(0 0.00208867 0)
(0 0.00137436 0)
(0 0.00076312 0)
(0 0.000308082 0)
(0 4.99065e-05 0)
(0 0 0)
(0 0 0)
(0 0 0)
(0 0 0)
(0 0 0)
(0 0 0)
(0 0 0)
(0 0 0)
(0 0 0)
(0 0 0)
(0 0 0)
(0 0 0)
(0 0 0)
(0 0 0)
(0 5.97441e-06 0)
(0 0.000177349 0)
(0 0.000540048 0)
(0 0.00106195 0)
(0 0.00169535 0)
(0 0.00238466 0)
(0 0.00310798 0)
(0 0.00338224 0)
(0 0.00375002 0)
(0 0.00399118 0)
(0 0.00433188 0)
(0 0.00407202 0)
(0 0.00439448 0)
(0 0.00462815 0)
(0 0.00490037 0)
(0 0.00479122 0)
(0 0.00491146 0)
(0 0.00501969 0)
(0 0.00531185 0)
(0 0.00526324 0)
(0 0.00530744 0)
(0 0.00534782 0)
(0 0.00557004 0)
(0 0.00553808 0)
(0 0.00556141 0)
(0 0.00559214 0)
(0 0.0056855 0)
(0 0.00566762 0)
(0 0.00567547 0)
(0 0.0056918 0)
(0 0.00570872 0)
(0 0.00570554 0)
(0 0.00570678 0)
(0 0.00570872 0)
(0 0.00570872 0)
(0 0.00570872 0)
(0 0.00570872 0)
(0 0.00570872 0)
(0 0.00570872 0)
(0 0.00570872 0)
(0 0.00570554 0)
(0 0.0057038 0)
(0 0.00570852 0)
(0 0.00570867 0)
(0 0.0056855 0)
(0 0.00566762 0)
(0 0.00565792 0)
(0 0.00567739 0)
(0 0.00557004 0)
(0 0.00553808 0)
(0 0.00551207 0)
(0 0.0055452 0)
(0 0.00531576 0)
(0 0.00527113 0)
(0 0.00521751 0)
(0 0.00512884 0)
(0 0.00522525 0)
(0 0.00488692 0)
(0 0.00478567 0)
(0 0.00466739 0)
(0 0.00438844 0)
(0 0.00462815 0)
(0 0.00433188 0)
(0 0.00407202 0)
(0 0.00375002 0)
(0 0.00399118 0)
(0 0.00338224 0)
(0 0.00310798 0)
(0 0.00238466 0)
(0 0.00169535 0)
(0 0.00106195 0)
(0 0.000540048 0)
(0 0.000165431 0)
(0 7.17635e-06 0)
(0 0 0)
(0 0 0)
(0 0 0)
(0 0 0)
(0 0 0)
(0 0 0)
(0 0 0)
(0 0 0)
(0 0 0)
(0 0 0)
(0 0 0)
(0 0 0)
(0 0 0)
(0 0 0)
(0 0 0)
(0 5.4512e-05 0)
(0 0.000287258 0)
(0 0.000675853 0)
(0 0.00117976 0)
(0 0.00180937 0)
(0 0.00246035 0)
(0 0.00276744 0)
(0 0.00312981 0)
(0 0.00343968 0)
(0 0.00377562 0)
(0 0.00345603 0)
(0 0.00376105 0)
(0 0.00409138 0)
(0 0.00437727 0)
(0 0.00403949 0)
(0 0.00427259 0)
(0 0.00446614 0)
(0 0.00462883 0)
(0 0.00450758 0)
(0 0.00484516 0)
(0 0.00467601 0)
(0 0.00478056 0)
(0 0.00494082 0)
(0 0.00518028 0)
(0 0.00503527 0)
(0 0.00509327 0)
(0 0.00524359 0)
(0 0.00539249 0)
(0 0.00526397 0)
(0 0.00530173 0)
(0 0.0054281 0)
(0 0.00550254 0)
(0 0.00538396 0)
(0 0.00540488 0)
(0 0.00551712 0)
(0 0.00553664 0)
(0 0.00542712 0)
(0 0.00542146 0)
(0 0.00553216 0)
(0 0.00550254 0)
(0 0.00538396 0)
(0 0.00535427 0)
(0 0.00547968 0)
(0 0.00539249 0)
(0 0.00526397 0)
(0 0.00521679 0)
(0 0.00534759 0)
(0 0.00518028 0)
(0 0.00503527 0)
(0 0.00496028 0)
(0 0.00510689 0)
(0 0.00484516 0)
(0 0.00467601 0)
(0 0.00457783 0)
(0 0.00474066 0)
(0 0.00437727 0)
(0 0.00403949 0)
(0 0.00376105 0)
(0 0.00409138 0)
(0 0.00377562 0)
(0 0.00345603 0)
(0 0.00312981 0)
(0 0.00343968 0)
(0 0.00276744 0)
(0 0.00246035 0)
(0 0.00180937 0)
(0 0.00117976 0)
(0 0.000675853 0)
(0 0.000287258 0)
(0 5.4512e-05 0)
(0 0 0)
(0 0 0)
(0 0 0)
(0 0 0)
(0 0 0)
(0 0 0)
(0 0 0)
(0 0 0)
(0 0 0)
(0 0 0)
(0 0 0)
(0 0 0)
(0 0 0)
(0 0 0)
(0 0 0)
(0 0 0)
(0 0 0)
(0 8.21472e-05 0)
(0 0.000339206 0)
(0 0.000727162 0)
(0 0.0012083 0)
(0 0.00173531 0)
(0 0.00225554 0)
(0 0.00265926 0)
(0 0.00308855 0)
(0 0.00278054 0)
(0 0.00294817 0)
(0 0.00337846 0)
(0 0.00363418 0)
(0 0.00321888 0)
(0 0.00346648 0)
(0 0.00389514 0)
(0 0.00412566 0)
(0 0.00391235 0)
(0 0.00399468 0)
(0 0.00422847 0)
(0 0.00449081 0)
(0 0.00428107 0)
(0 0.0043589 0)
(0 0.00456923 0)
(0 0.00474796 0)
(0 0.00453702 0)
(0 0.0045718 0)
(0 0.00478855 0)
(0 0.00490217 0)
(0 0.0046996 0)
(0 0.00472326 0)
(0 0.00492563 0)
(0 0.00495322 0)
(0 0.00475193 0)
(0 0.00474218 0)
(0 0.00494438 0)
(0 0.00490217 0)
(0 0.0046996 0)
(0 0.00466646 0)
(0 0.00486924 0)
(0 0.00474796 0)
(0 0.00453702 0)
(0 0.00448697 0)
(0 0.00469787 0)
(0 0.00449081 0)
(0 0.00428107 0)
(0 0.00419427 0)
(0 0.00440313 0)
(0 0.00412566 0)
(0 0.00391235 0)
(0 0.00366581 0)
(0 0.00346648 0)
(0 0.00389514 0)
(0 0.00363418 0)
(0 0.00321888 0)
(0 0.00294817 0)
(0 0.00337846 0)
(0 0.00308855 0)
(0 0.00265926 0)
(0 0.00225554 0)
(0 0.00173531 0)
(0 0.00278054 0)
(0 0.0012083 0)
(0 0.000727162 0)
(0 0.000339206 0)
(0 8.21472e-05 0)
(0 0 0)
(0 0 0)
(0 0 0)
(0 0 0)
(0 0 0)
(0 0 0)
(0 0 0)
(0 0 0)
(0 0 0)
(0 0 0)
(0 0 0)
(0 0 0)
(0 0 0)
(0 0 0)
(0 0 0)
(0 0 0)
(0 0 0)
(0 0 0)
(0 1.04173e-06 0)
(0 9.3322e-05 0)
(0 0.000316238 0)
(0 0.000619713 0)
(0 0.00101434 0)
(0 0.0014352 0)
(0 0.00184212 0)
(0 0.00207966 0)
(0 0.00252059 0)
(0 0.00277057 0)
(0 0.0022799 0)
(0 0.00250582 0)
(0 0.00297655 0)
(0 0.00320239 0)
(0 0.00295971 0)
(0 0.00305904 0)
(0 0.00330566 0)
(0 0.00357188 0)
(0 0.00331579 0)
(0 0.00338645 0)
(0 0.00364496 0)
(0 0.00381054 0)
(0 0.00355411 0)
(0 0.0036112 0)
(0 0.0038693 0)
(0 0.00399241 0)
(0 0.00373102 0)
(0 0.00375339 0)
(0 0.00401536 0)
(0 0.00404559 0)
(0 0.00378365 0)
(0 0.00377133 0)
(0 0.00403376 0)
(0 0.00399241 0)
(0 0.00373102 0)
(0 0.0036998 0)
(0 0.00396036 0)
(0 0.00381054 0)
(0 0.00355411 0)
(0 0.00348874 0)
(0 0.00376604 0)
(0 0.00357188 0)
(0 0.00331579 0)
(0 0.00323746 0)
(0 0.00349077 0)
(0 0.00320239 0)
(0 0.00295971 0)
(0 0.00271263 0)
(0 0.00250582 0)
(0 0.00297655 0)
(0 0.00277057 0)
(0 0.0022799 0)
(0 0.00207966 0)
(0 0.00252059 0)
(0 0.00184212 0)
(0 0.0014352 0)
(0 0.00101434 0)
(0 0.000619713 0)
(0 0.000316238 0)
(0 9.3322e-05 0)
(0 1.04173e-06 0)
(0 0 0)
(0 0 0)
(0 0 0)
(0 0 0)
(0 0 0)
(0 0 0)
(0 0 0)
(0 0 0)
(0 0 0)
(0 0 0)
(0 0 0)
(0 0 0)
(0 0 0)
(0 0 0)
(0 0 0)
(0 0 0)
(0 0 0)
(0 0 0)
(0 0 0)
(0 0 0)
(0 4.90095e-05 0)
(0 0.000204123 0)
(0 0.000413513 0)
(0 0.000696278 0)
(0 0.00102955 0)
(0 0.00121401 0)
(0 0.00161766 0)
(0 0.00182951 0)
(0 0.00139478 0)
(0 0.0015673 0)
(0 0.00202996 0)
(0 0.00221462 0)
(0 0.00196846 0)
(0 0.00204827 0)
(0 0.0022998 0)
(0 0.00252157 0)
(0 0.00225661 0)
(0 0.00229463 0)
(0 0.00255583 0)
(0 0.00274868 0)
(0 0.00247672 0)
(0 0.00252436 0)
(0 0.00279903 0)
(0 0.00290514 0)
(0 0.00262486 0)
(0 0.0026437 0)
(0 0.00292501 0)
(0 0.00295397 0)
(0 0.00267182 0)
(0 0.00265883 0)
(0 0.00294097 0)
(0 0.00290514 0)
(0 0.00262486 0)
(0 0.0025986 0)
(0 0.00287743 0)
(0 0.00274868 0)
(0 0.00247672 0)
(0 0.00242238 0)
(0 0.00269118 0)
(0 0.00252157 0)
(0 0.00225661 0)
(0 0.00219273 0)
(0 0.00245366 0)
(0 0.00221462 0)
(0 0.00196846 0)
(0 0.0017274 0)
(0 0.0015673 0)
(0 0.00202996 0)
(0 0.00182951 0)
(0 0.00139478 0)
(0 0.00121401 0)
(0 0.00161766 0)
(0 0.00102955 0)
(0 0.000696278 0)
(0 0.000413513 0)
(0 0.000204123 0)
(0 4.90095e-05 0)
(0 0 0)
(0 0 0)
(0 0 0)
(0 0 0)
(0 0 0)
(0 0 0)
(0 0 0)
(0 0 0)
(0 0 0)
(0 0 0)
(0 0 0)
(0 0 0)
(0 0 0)
(0 0 0)
(0 0 0)
(0 0 0)
(0 0 0)
(0 0 0)
(0 0 0)
(0 0 0)
(0 0 0)
(0 0 0)
(0 0 0)
(0 4.17354e-06 0)
(0 7.07933e-05 0)
(0 0.000197574 0)
(0 0.000414467 0)
(0 0.000527306 0)
(0 0.00084525 0)
(0 0.000993312 0)
(0 0.000641885 0)
(0 0.000754328 0)
(0 0.00113624 0)
(0 0.00127009 0)
(0 0.00105843 0)
(0 0.00111474 0)
(0 0.0013325 0)
(0 0.0014828 0)
(0 0.00125493 0)
(0 0.00130776 0)
(0 0.00154084 0)
(0 0.00168712 0)
(0 0.00144126 0)
(0 0.00147648 0)
(0 0.00172562 0)
(0 0.00180715 0)
(0 0.00155117 0)
(0 0.00156523 0)
(0 0.00182248 0)
(0 0.00184697 0)
(0 0.00158819 0)
(0 0.00157654 0)
(0 0.0018348 0)
(0 0.00180715 0)
(0 0.00155117 0)
(0 0.0015316 0)
(0 0.00178581 0)
(0 0.00168712 0)
(0 0.00144126 0)
(0 0.00140123 0)
(0 0.00164332 0)
(0 0.0014828 0)
(0 0.00125493 0)
(0 0.0011985 0)
(0 0.00142067 0)
(0 0.00127009 0)
(0 0.00105843 0)
(0 0.000861011 0)
(0 0.000754328 0)
(0 0.00113624 0)
(0 0.000993312 0)
(0 0.000641885 0)
(0 0.000527306 0)
(0 0.00084525 0)
(0 0.000414467 0)
(0 0.000197574 0)
(0 7.07933e-05 0)
(0 4.17354e-06 0)
(0 0 0)
(0 0 0)
(0 0 0)
(0 0 0)
(0 0 0)
(0 0 0)
(0 0 0)
(0 0 0)
(0 0 0)
(0 0 0)
(0 0 0)
(0 0 0)
(0 0 0)
(0 0 0)
(0 0 0)
(0 0 0)
(0 0 0)
(0 0 0)
(0 0 0)
(0 0 0)
(0 0 0)
(0 0 0)
(0 0 0)
(0 0 0)
(0 0 0)
(0 0 0)
(0 7.5654e-07 0)
(0 5.68384e-05 0)
(0 9.90023e-05 0)
(0 0.000274523 0)
(0 0.000355682 0)
(0 0.000147624 0)
(0 0.00019962 0)
(0 0.00043756 0)
(0 0.000516869 0)
(0 0.000355791 0)
(0 0.000392214 0)
(0 0.000536399 0)
(0 0.000658607 0)
(0 0.000495657 0)
(0 0.000527057 0)
(0 0.000695371 0)
(0 0.000789387 0)
(0 0.000607848 0)
(0 0.000629482 0)
(0 0.000814435 0)
(0 0.000867885 0)
(0 0.000675783 0)
(0 0.000684561 0)
(0 0.000877996 0)
(0 0.000895579 0)
(0 0.000700147 0)
(0 0.000691632 0)
(0 0.000886135 0)
(0 0.000867885 0)
(0 0.000675783 0)
(0 0.0006636 0)
(0 0.000853842 0)
(0 0.000789387 0)
(0 0.000607848 0)
(0 0.000583413 0)
(0 0.000761034 0)
(0 0.000658607 0)
(0 0.000495657 0)
(0 0.000462499 0)
(0 0.000619629 0)
(0 0.000516869 0)
(0 0.000355791 0)
(0 0.000239255 0)
(0 0.00019962 0)
(0 0.00043756 0)
(0 0.000355682 0)
(0 0.000147624 0)
(0 9.90023e-05 0)
(0 0.000274523 0)
(0 5.68384e-05 0)
(0 7.5654e-07 0)
(0 0 0)
(0 0 0)
(0 0 0)
(0 0 0)
(0 0 0)
(0 0 0)
(0 0 0)
(0 0 0)
(0 0 0)
(0 0 0)
(0 0 0)
(0 0 0)
(0 0 0)
(0 0 0)
(0 0 0)
(0 0 0)
(0 0 0)
(0 0 0)
(0 0 0)
(0 0 0)
(0 0 0)
(0 0 0)
(0 0 0)
(0 0 0)
(0 0 0)
(0 0 0)
(0 0 0)
(0 0 0)
(0 0 0)
(0 0 0)
(0 0 0)
(0 2.77848e-05 0)
(0 1.00494e-05 0)
(0 0 0)
(0 4.36914e-05 0)
(0 7.29921e-05 0)
(0 2.23464e-06 0)
(0 9.76752e-06 0)
(0 0.000105187 0)
(0 0.000137811 0)
(0 2.05961e-05 0)
(0 3.2795e-05 0)
(0 0.000168637 0)
(0 0.000195731 0)
(0 4.4683e-05 0)
(0 5.48648e-05 0)
(0 0.000217497 0)
(0 0.000232704 0)
(0 6.22642e-05 0)
(0 6.61495e-05 0)
(0 0.000240519 0)
(0 0.000246772 0)
(0 6.94686e-05 0)
(0 6.61495e-05 0)
(0 0.000240519 0)
(0 0.000232704 0)
(0 6.22642e-05 0)
(0 5.48648e-05 0)
(0 0.000217497 0)
(0 0.000195731 0)
(0 4.4683e-05 0)
(0 3.2795e-05 0)
(0 0.000168637 0)
(0 0.000137811 0)
(0 2.05961e-05 0)
(0 9.76752e-06 0)
(0 0.000105187 0)
(0 7.29921e-05 0)
(0 2.23464e-06 0)
(0 0 0)
(0 4.36914e-05 0)
(0 2.77848e-05 0)
(0 0 0)
(0 0 0)
(0 0 0)
(0 1.00494e-05 0)
(0 0 0)
(0 0 0)
(0 0 0)
(0 0 0)
(0 0 0)
(0 0 0)
(0 0 0)
(0 0 0)
(0 0 0)
(0 0 0)
(0 0 0)
(0 0 0)
(0 0 0)
(0 0 0)
(0 0 0)
(0 0 0)
(0 0 0)
(0 0 0)
(0 0 0)
(0 0 0)
(0 0 0)
(0 0 0)
(0 0 0)
(0 0 0)
(0 0 0)
(0 0 0)
(0 0 0)
(0 0 0)
(0 0 0)
(0 0 0)
(0 0 0)
(0 0 0)
(0 0 0)
(0 0 0)
(0 0 0)
(0 0 0)
(0 0 0)
(0 0 0)
(0 0 0)
(0 0 0)
(0 2.00826e-07 0)
(0 0 0)
(0 0 0)
(0 7.72843e-07 0)
(0 4.59829e-07 0)
(0 0 0)
(0 2.00826e-07 0)
(0 4.59829e-07 0)
(0 0 0)
(0 0 0)
(0 0 0)
(0 0 0)
(0 0 0)
(0 0 0)
(0 0 0)
(0 0 0)
(0 0 0)
(0 0 0)
(0 0 0)
(0 0 0)
(0 0 0)
(0 0 0)
(0 0 0)
(0 0 0)
(0 0 0)
(0 0 0)
(0 0 0)
(0 0 0)
(0 0 0)
(0 0 0)
(0 0 0)
(0 0 0)
(0 0 0)
(0 0 0)
(0 0 0)
(0 0 0)
(0 0 0)
(0 0 0)
(0 0 0)
(0 0 0)
(0 0 0)
(0 0 0)
(0 0 0)
(0 0 0)
(0 0 0)
(0 0 0)
(0 0 0)
(0 0 0)
(0 0 0)
(0 0 0)
(0 0 0)
(0 0 0)
(0 0 0)
(0 0 0)
(0 0 0)
(0 0 0)
(0 0 0)
(0 0 0)
(0 0 0)
(0 0 0)
(0 0 0)
(0 0 0)
(0 0 0)
(0 0 0)
(0 0 0)
(0 0 0)
(0 0 0)
(0 0 0)
(0 0 0)
(0 0 0)
(0 0 0)
(0 0 0)
(0 0 0)
(0 0 0)
(0 0 0)
(0 0 0)
(0 0 0)
(0 0 0)
(0 0 0)
(0 0 0)
(0 0 0)
(0 0 0)
(0 0 0)
(0 0 0)
(0 0 0)
(0 0 0)
(0 0 0)
(0 0 0)
(0 0 0)
(0 0 0)
(0 0 0)
(0 0 0)
(0 0 0)
(0 0 0)
(0 0 0)
(0 0 0)
(0 0 0)
(0 0 0)
(0 0 0)
(0 0 0)
(0 0 0)
(0 0 0)
(0 0 0)
(0 0 0)
(0 0 0)
(0 0 0)
(0 0 0)
(0 0 0)
(0 0 0)
(0 0 0)
(0 0 0)
(0 0 0)
(0 0 0)
(0 0 0)
(0 0 0)
(0 0 0)
(0 0 0)
(0 0 0)
(0 0 0)
(0 0 0)
(0 0 0)
(0 0 0)
(0 0 0)
(0 0 0)
(0 0 0)
(0 0 0)
(0 0 0)
(0 0 0)
(0 0 0)
(0 0 0)
(0 0 0)
(0 0 0)
(0 0 0)
(0 0 0)
(0 0 0)
(0 0 0)
(0 0 0)
(0 0 0)
(0 0 0)
(0 0 0)
(0 0 0)
(0 0 0)
(0 0 0)
(0 0 0)
(0 0 0)
(0 0 0)
(0 0 0)
(0 0 0)
(0 0 0)
(0 0 0)
(0 0 0)
(0 0 0)
(0 0 0)
(0 0 0)
(0 0 0)
(0 0 0)
(0 0 0)
(0 0 0)
(0 0 0)
(0 0 0)
(0 0 0)
(0 0 0)
(0 0 0)
(0 0 0)
(0 0 0)
(0 0 0)
(0 0 0)
(0 0 0)
(0 0 0)
(0 0 0)
(0 0 0)
(0 0 0)
(0 0 0)
(0 0 0)
(0 0 0)
(0 0 0)
(0 0 0)
(0 0 0)
(0 0 0)
(0 0 0)
(0 0 0)
(0 0 0)
(0 0 0)
(0 0 0)
(0 0 0)
(0 0 0)
(0 0 0)
(0 0 0)
(0 0 0)
(0 0 0)
(0 0 0)
(0 0 0)
(0 0 0)
(0 0 0)
(0 0 0)
(0 0 0)
(0 0 0)
(0 0 0)
(0 0 0)
(0 0 0)
(0 0 0)
(0 0 0)
(0 0 0)
(0 0 0)
(0 0 0)
(0 0 0)
(0 0 0)
(0 0 0)
(0 0 0)
(0 0 0)
(0 0 0)
(0 0 0)
(0 0 0)
(0 0 0)
(0 0 0)
(0 0 0)
(0 0 0)
(0 0 0)
(0 0 0)
(0 0 0)
(0 0 0)
(0 0 0)
(0 0 0)
(0 0 0)
(0 0 0)
(0 0 0)
(0 0 0)
(0 0 0)
(0 0 0)
(0 0 0)
(0 0 0)
(0 0 0)
(0 0 0)
(0 0 0)
(0 0 0)
(0 0 0)
(0 0 0)
(0 0 0)
(0 0 0)
(0 0 0)
(0 0 0)
(0 0 0)
(0 0 0)
(0 0 0)
(0 0 0)
(0 0 0)
(0 0 0)
(0 0 0)
(0 0 0)
(0 0 0)
(0 0 0)
(0 0 0)
(0 0 0)
(0 0 0)
(0 0 0)
(0 0 0)
(0 0 0)
(0 0 0)
(0 0 0)
(0 0 0)
(0 0 0)
(0 0 0)
(0 0 0)
(0 0 0)
(0 0 0)
(0 0 0)
(0 0 0)
(0 0 0)
(0 0 0)
(0 0 0)
(0 0 0)
(0 0 0)
(0 0 0)
(0 0 0)
(0 0 0)
(0 0 0)
(0 0 0)
(0 0 0)
(0 0 0)
(0 0 0)
(0 0 0)
(0 0 0)
(0 0 0)
(0 0 0)
(0 0 0)
(0 0 0)
(0 0 0)
(0 0 0)
(0 0 0)
(0 0 0)
(0 0 0)
(0 0 0)
(0 0 0)
(0 0 0)
(0 0 0)
(0 0 0)
(0 0 0)
(0 0 0)
(0 0 0)
(0 0 0)
(0 0 0)
(0 0 0)
(0 0 0)
(0 0 0)
(0 0 0)
(0 0 0)
(0 0 0)
(0 0 0)
(0 0 0)
(0 0 0)
(0 0 0)
(0 0 0)
(0 0 0)
(0 0 0)
(0 0 0)
(0 0 0)
(0 0 0)
(0 0 0)
(0 0 0)
(0 0 0)
(0 0 0)
(0 0 0)
(0 0 0)
(0 0 0)
(0 0 0)
(0 0 0)
(0 0 0)
(0 0 0)
(0 0 0)
(0 0 0)
(0 0 0)
(0 0 0)
(0 0 0)
(0 0 0)
(0 0 0)
(0 0 0)
(0 0 0)
(0 0 0)
(0 0 0)
(0 0 0)
(0 0 0)
(0 0 0)
(0 0 0)
(0 0 0)
(0 0 0)
(0 0 0)
(0 0 0)
(0 0 0)
(0 0 0)
(0 0 0)
(0 0 0)
(0 0 0)
(0 0 0)
(0 0 0)
(0 0 0)
(0 0 0)
(0 0 0)
(0 0 0)
(0 0 0)
(0 0 0)
(0 0 0)
(0 0 0)
(0 0 0)
(0 0 0)
(0 0 0)
(0 0 0)
(0 0 0)
(0 0 0)
(0 0 0)
(0 0 0)
(0 0 0)
(0 0 0)
(0 0 0)
(0 0 0)
(0 0 0)
(0 0 0)
(0 0 0)
(0 0 0)
(0 0 0)
(0 0 0)
(0 0 0)
(0 0 0)
(0 0 0)
(0 0 0)
(0 0 0)
(0 0 0)
(0 0 0)
(0 0 0)
(0 0 0)
(0 0 0)
(0 0 0)
(0 0 0)
(0 0 0)
(0 0 0)
(0 0 0)
(0 0 0)
(0 0 0)
(0 0 0)
(0 0 0)
(0 0 0)
(0 0 0)
(0 0 0)
(0 0 0)
(0 0 0)
(0 0 0)
(0 0 0)
(0 0 0)
(0 0 0)
(0 0 0)
(0 0 0)
(0 0 0)
(0 0 0)
(0 0 0)
(0 0 0)
(0 0 0)
(0 0 0)
(0 0 0)
(0 0 0)
(0 0 0)
(0 0 0)
(0 0 0)
(0 0 0)
(0 0 0)
(0 0 0)
(0 0 0)
(0 0 0)
(0 0 0)
(0 0 0)
(0 0 0)
(0 0 0)
(0 0 0)
(0 0 0)
(0 0 0)
(0 0 0)
(0 0 0)
(0 0 0)
(0 0 0)
(0 0 0)
(0 0 0)
(0 0 0)
(0 0 0)
(0 0 0)
(0 0 0)
(0 0 0)
(0 0 0)
(0 0 0)
(0 0 0)
(0 0 0)
(0 0 0)
(0 0 0)
(0 0 0)
(0 0 0)
(0 0 0)
(0 0 0)
(0 0 0)
(0 0 0)
(0 0 0)
(0 0 0)
(0 0 0)
(0 0 0)
(0 0 0)
(0 0 0)
(0 0 0)
(0 0 0)
(0 0 0)
(0 0 0)
(0 0 0)
(0 0 0)
(0 0 0)
(0 0 0)
(0 0 0)
(0 0 0)
(0 0 0)
(0 0 0)
(0 0 0)
(0 0 0)
(0 0 0)
(0 0 0)
(0 0 0)
(0 0 0)
(0 0 0)
(0 0 0)
(0 0 0)
(0 0 0)
(0 0 0)
(0 0 0)
(0 0 0)
(0 0 0)
(0 0 0)
(0 0 0)
(0 0 0)
(0 0 0)
(0 0 0)
(0 0 0)
(0 0 0)
(0 0 0)
(0 0 0)
(0 0 0)
(0 0 0)
(0 0 0)
(0 0 0)
(0 0 0)
(0 0 0)
(0 0 0)
(0 0 0)
(0 0 0)
(0 0 0)
(0 0 0)
(0 0 0)
(0 0 0)
(0 0 0)
(0 0 0)
(0 0 0)
(0 0 0)
(0 0 0)
(0 0 0)
(0 0 0)
(0 0 0)
(0 0 0)
(0 0 0)
(0 0 0)
(0 0 0)
(0 0 0)
(0 0 0)
(0 0 0)
(0 0 0)
(0 0 0)
(0 0 0)
(0 0 0)
(0 0 0)
(0 0 0)
(0 0 0)
(0 0 0)
(0 0 0)
(0 0 0)
(0 0 0)
(0 0 0)
(0 0 0)
(0 0 0)
(0 0 0)
(0 0 0)
(0 0 0)
(0 0 0)
(0 0 0)
(0 0 0)
(0 0 0)
(0 0 0)
(0 0 0)
(0 0 0)
(0 0 0)
(0 0 0)
(0 0 0)
(0 0 0)
(0 0 0)
(0 0 0)
(0 0 0)
(0 0 0)
(0 0 0)
(0 0 0)
(0 0 0)
(0 0 0)
(0 0 0)
(0 0 0)
(0 0 0)
(0 0 0)
(0 0 0)
(0 0 0)
(0 0 0)
(0 0 0)
(0 0 0)
(0 0 0)
(0 0 0)
(0 0 0)
(0 0 0)
(0 0 0)
(0 0 0)
(0 0 0)
(0 0 0)
(0 0 0)
(0 0 0)
(0 0 0)
(0 0 0)
(0 0 0)
(0 0 0)
(0 0 0)
(0 0 0)
(0 0 0)
(0 0 0)
(0 0 0)
(0 0 0)
(0 0 0)
(0 0 0)
(0 0 0)
(0 0 0)
(0 0 0)
(0 0 0)
(0 0 0)
(0 0 0)
(0 0 0)
(0 0 0)
(0 0 0)
(0 0 0)
(0 0 0)
(0 0 0)
(0 0 0)
(0 0 0)
(0 0 0)
(0 0 0)
(0 0 0)
(0 0 0)
(0 0 0)
(0 0 0)
(0 0 0)
(0 0 0)
(0 0 0)
(0 0 0)
(0 0 0)
(0 0 0)
(0 0 0)
(0 0 0)
(0 0 0)
(0 0 0)
(0 0 0)
(0 0 0)
(0 0 0)
(0 0 0)
(0 0 0)
(0 0 0)
(0 0 0)
(0 0 0)
(0 0 0)
(0 0 0)
(0 0 0)
(0 0 0)
(0 0 0)
(0 0 0)
(0 0 0)
(0 0 0)
(0 0 0)
(0 0 0)
(0 0 0)
(0 0 0)
(0 0 0)
(0 0 0)
(0 0 0)
(0 0 0)
(0 0 0)
(0 0 0)
(0 0 0)
(0 0 0)
(0 0 0)
(0 0 0)
(0 0 0)
(0 0 0)
(0 0 0)
(0 0 0)
(0 0 0)
(0 0 0)
(0 0 0)
(0 0 0)
(0 0 0)
(0 0 0)
(0 0 0)
(0 0 0)
(0 0 0)
(0 0 0)
(0 0 0)
(0 0 0)
(0 0 0)
(0 0 0)
(0 0 0)
(0 0 0)
(0 0 0)
(0 0 0)
(0 0 0)
(0 0 0)
(0 0 0)
(0 0 0)
(0 0 0)
(0 0 0)
(0 0 0)
(0 0 0)
(0 0 0)
(0 0 0)
(0 0 0)
(0 0 0)
(0 0 0)
(0 0 0)
(0 0 0)
(0 0 0)
(0 0 0)
(0 0 0)
(0 0 0)
(0 0 0)
(0 0 0)
(0 0 0)
(0 0 0)
(0 0 0)
(0 0 0)
(0 0 0)
(0 0 0)
(0 0 0)
(0 0 0)
(0 0 0)
(0 0 0)
(0 0 0)
(0 0 0)
(0 0 0)
(0 0 0)
(0 0 0)
(0 0 0)
(0 0 0)
(0 0 0)
(0 0 0)
(0 0 0)
(0 0 0)
(0 0 0)
(0 0 0)
(0 0 0)
(0 0 0)
(0 0 0)
(0 0 0)
(0 0 0)
(0 0 0)
(0 0 0)
(0 0 0)
(0 0 0)
(0 0 0)
(0 0 0)
(0 0 0)
(0 0 0)
(0 0 0)
(0 0 0)
(0 0 0)
(0 0 0)
(0 0 0)
(0 0 0)
(0 0 0)
(0 0 0)
(0 0 0)
(0 0 0)
(0 0 0)
(0 0 0)
(0 0 0)
(0 0 0)
(0 0 0)
(0 0 0)
(0 0 0)
(0 0 0)
(0 0 0)
(0 0 0)
(0 0 0)
(0 0 0)
(0 0 0)
(0 0 0)
(0 0 0)
(0 0 0)
(0 0 0)
(0 0 0)
(0 0 0)
(0 0 0)
(0 0 0)
(0 0 0)
(0 0 0)
(0 0 0)
(0 0 0)
(0 0 0)
(0 0 0)
(0 0 0)
(0 0 0)
(0 0 0)
(0 0 0)
(0 0 0)
(0 0 0)
(0 0 0)
(0 0 0)
(0 0 0)
(0 0 0)
(0 0 0)
(0 0 0)
(0 0 0)
(0 0 0)
(0 0 0)
(0 0 0)
(0 0 0)
(0 0 0)
(0 0 0)
(0 0 0)
(0 0 0)
(0 0 0)
(0 0 0)
(0 0 0)
(0 0 0)
(0 0 0)
(0 0 0)
(0 0 0)
(0 0 0)
(0 0 0)
(0 0 0)
(0 0 0)
(0 0 0)
(0 0 0)
(0 0 0)
(0 0 0)
(0 0 0)
(0 0 0)
(0 0 0)
(0 0 0)
(0 0 0)
(0 0 0)
(0 0 0)
(0 0 0)
(0 0 0)
(0 0 0)
(0 0 0)
(0 0 0)
(0 0 0)
(0 0 0)
(0 0 0)
(0 0 0)
(0 0 0)
(0 0 0)
(0 0 0)
(0 0 0)
(0 0 0)
(0 0 0)
(0 0 0)
(0 0 0)
(0 0 0)
(0 0 0)
(0 0 0)
(0 0 0)
(0 0 0)