/*--------------------------------*- C++ -*----------------------------------*\
| =========                 |                                                 |
| \\      /  F ield         | OpenFOAM: The Open Source CFD Toolbox           |
|  \\    /   O peration     | Version:  v2106                                 |
|   \\  /    A nd           | Website:  www.openfoam.com                      |
|    \\/     M anipulation  |                                                 |
\*---------------------------------------------------------------------------*/
FoamFile
{
    version     2.0;
    format      ascii;
    arch        "LSB;label=32;scalar=64";
    class       volVectorField;
    location    "0";
    object      U;
}
// * * * * * * * * * * * * * * * * * * * * * * * * * * * * * * * * * * * * * //

dimensions      [0 1 -1 0 0 0 0];

internalField   nonuniform List<vector> 
11644
(
(0.993039 -0.000240076 -2.42237e-24)
(0.992929 -0.000641275 -6.68019e-24)
(0.992858 -0.000956706 -3.58409e-24)
(0.992838 -0.00127978 0)
(0.992834 -0.00162643 0)
(0.992834 -0.00199535 0)
(0.992833 -0.00238384 0)
(0.992832 -0.00278521 0)
(0.992828 -0.00319179 0)
(0.992833 -0.0035849 0)
(0.992814 -0.00395478 0)
(0.992778 -0.00428141 0)
(0.992833 -0.00451255 0)
(0.99301 -0.0046504 0)
(0.992848 -0.00467528 0)
(0.992794 -0.00456105 0)
(0.992792 -0.00431466 0)
(0.992881 -0.00397796 0)
(0.992972 -0.00362221 0)
(0.992791 -0.00308325 3.43868e-30)
(0.992406 -0.0021932 -3.42594e-30)
(0.992171 -0.000998121 0)
(0.992285 0.000154221 0)
(0.992571 0.00100131 0)
(0.992723 0.00156542 0)
(0.992754 0.00199677 0)
(0.992923 0.00236077 0)
(0.992795 0.00254866 0)
(0.992776 0.00263593 0)
(0.992801 0.00261613 0)
(0.992802 0.00251532 0)
(0.992812 0.00234755 0)
(0.992814 0.00213501 0)
(0.992817 0.00189015 0)
(0.992819 0.0016262 0)
(0.992823 0.00135559 0)
(0.992831 0.00108603 0)
(0.992848 0.000823777 0)
(0.992909 0.00056575 0)
(0.993015 0.000216657 -4.69673e-25)
(0.993858 -0.00047689 -3.11152e-24)
(0.993792 -0.00145019 -2.88227e-24)
(0.993754 -0.00245053 -1.54797e-24)
(0.993768 -0.00346446 0)
(0.993814 -0.00450981 0)
(0.993874 -0.00560077 0)
(0.993936 -0.00674092 0)
(0.99399 -0.00792101 0)
(0.994023 -0.00912105 0)
(0.994013 -0.0103097 0)
(0.993961 -0.0114281 0)
(0.993874 -0.0124044 0)
(0.993616 -0.0131925 0)
(0.993064 -0.0136971 0)
(0.992803 -0.0137608 0)
(0.992351 -0.0134584 1.25797e-24)
(0.99192 -0.0127283 1.61857e-23)
(0.991498 -0.0115167 5.4509e-23)
(0.990823 -0.0095299 -4.73349e-23)
(0.990164 -0.00691727 2.38373e-22)
(0.989801 -0.00407373 -2.91819e-22)
(0.989834 -0.00135963 1.49876e-22)
(0.99022 0.00107807 -1.01554e-22)
(0.990736 0.00325918 -1.68557e-23)
(0.991267 0.00515573 -2.06457e-24)
(0.991759 0.00660141 0)
(0.991952 0.00756411 0)
(0.992541 0.00811186 0)
(0.992908 0.00826412 0)
(0.993134 0.00810897 0)
(0.993309 0.00770631 0)
(0.993429 0.0071259 0)
(0.993512 0.0064211 0)
(0.99356 0.00563735 0)
(0.993584 0.00480807 0)
(0.99359 0.00395721 0)
(0.993591 0.00309988 0)
(0.99361 0.00223125 0)
(0.993674 0.00134162 0)
(0.993758 0.000446776 0)
(0.995461 -0.000726509 0)
(0.995445 -0.00223282 0)
(0.995483 -0.00380362 0)
(0.995582 -0.0054349 0)
(0.99573 -0.00712618 -2.84232e-24)
(0.995903 -0.00889926 0)
(0.99608 -0.0107563 0)
(0.996235 -0.0126874 0)
(0.996331 -0.014665 0)
(0.996323 -0.01664 0)
(0.996181 -0.0185249 0)
(0.995743 -0.0202517 0)
(0.995057 -0.0216141 2.18651e-24)
(0.994359 -0.0224546 -6.80287e-23)
(0.992928 -0.0227248 -1.32032e-22)
(0.991536 -0.0222052 3.04253e-22)
(0.99001 -0.0207562 -2.26027e-22)
(0.988012 -0.0179636 5.48654e-22)
(0.986215 -0.0140238 7.3919e-23)
(0.985036 -0.0094424 -1.81206e-21)
(0.984668 -0.00469083 1.27423e-21)
(0.985075 -5.30948e-05 -5.75076e-22)
(0.98606 0.00414823 4.54981e-22)
(0.98728 0.00782504 -5.06763e-23)
(0.98858 0.0108671 2.55322e-23)
(0.989913 0.0130915 1.05241e-22)
(0.991575 0.0145188 8.01197e-23)
(0.992428 0.015134 -3.47809e-24)
(0.993249 0.0151135 0)
(0.993962 0.014558 0)
(0.994484 0.0136229 0)
(0.994813 0.0124351 0)
(0.995009 0.0110873 0)
(0.995113 0.00964602 0)
(0.995155 0.00816188 0)
(0.99516 0.00666342 0)
(0.995155 0.0051636 0)
(0.995165 0.00366215 0)
(0.995209 0.00216134 0)
(0.995272 0.000701894 0)
(0.997812 -0.000980516 0)
(0.99784 -0.00296306 0)
(0.997957 -0.0050455 0)
(0.998171 -0.00719744 0)
(0.998461 -0.00945718 0)
(0.998799 -0.0118399 0)
(0.99915 -0.0143576 0)
(0.999463 -0.0170065 0)
(0.999671 -0.0197629 0)
(0.999696 -0.0225562 0)
(0.999357 -0.025336 -7.84211e-25)
(0.998688 -0.0278929 -8.94944e-23)
(0.997455 -0.0300695 2.19626e-22)
(0.995279 -0.0316668 2.38162e-22)
(0.993116 -0.0320228 6.42015e-22)
(0.989968 -0.0310894 -7.7813e-22)
(0.986023 -0.0283122 -1.10908e-21)
(0.982022 -0.0238234 6.74498e-22)
(0.978886 -0.0178522 4.38724e-22)
(0.976886 -0.0110489 7.97629e-22)
(0.97623 -0.00384882 -9.32158e-22)
(0.976886 0.00328866 1.37511e-21)
(0.978838 0.00987247 -2.41674e-21)
(0.981488 0.0153638 1.74822e-21)
(0.984406 0.0195477 5.4414e-22)
(0.987472 0.0223702 -1.01993e-21)
(0.989791 0.0239198 -7.55079e-23)
(0.99263 0.0241472 -2.61908e-22)
(0.994523 0.0235087 4.67282e-24)
(0.995786 0.0222159 1.91154e-24)
(0.996621 0.0204454 0)
(0.997178 0.0183798 0)
(0.997483 0.0161775 0)
(0.997618 0.0139236 0)
(0.997648 0.0116718 0)
(0.99762 0.00945215 0)
(0.997575 0.00727437 0)
(0.997547 0.00513784 0)
(0.997556 0.00304639 0)
(0.997603 0.0010085 0)
(1.00079 -0.00117098 0)
(1.00087 -0.00359969 0)
(1.0011 -0.00607886 0)
(1.00146 -0.0086833 0)
(1.00193 -0.0114387 0)
(1.00249 -0.0143724 0)
(1.00307 -0.0175073 0)
(1.00362 -0.0208555 0)
(1.00403 -0.0244015 0)
(1.00411 -0.0281455 8.11312e-25)
(1.00385 -0.0319632 9.12032e-23)
(1.00293 -0.0357535 4.43594e-22)
(1.00101 -0.039145 -6.90442e-22)
(0.998442 -0.0414655 1.10179e-22)
(0.993331 -0.0425537 9.33047e-22)
(0.987506 -0.0412648 -1.72795e-22)
(0.981108 -0.0377971 8.47915e-22)
(0.973602 -0.0316095 -2.4121e-21)
(0.967874 -0.0228142 2.25507e-21)
(0.964212 -0.0119594 -3.68498e-21)
(0.963364 -0.000240876 3.4491e-21)
(0.965285 0.0108707 -2.18505e-21)
(0.969269 0.0203235 2.79703e-21)
(0.974295 0.0274246 -2.52824e-22)
(0.979611 0.0323935 -3.57982e-22)
(0.98503 0.0353319 -1.45161e-21)
(0.990428 0.0360717 1.01574e-22)
(0.993635 0.0355803 3.51366e-22)
(0.996577 0.0338209 -2.74822e-23)
(0.998791 0.0312196 -1.56436e-22)
(1.00013 0.0281895 7.1567e-24)
(1.00081 0.0249523 0)
(1.00114 0.0216614 0)
(1.00122 0.0184339 0)
(1.00116 0.0153111 0)
(1.00103 0.0123088 0)
(1.00089 0.00942394 0)
(1.00078 0.00664431 0)
(1.00073 0.00392561 0)
(1.00074 0.00129515 0)
(1.00426 -0.00139534 0)
(1.0044 -0.00414754 0)
(1.00475 -0.00700955 0)
(1.0053 -0.00998553 0)
(1.00601 -0.0131344 0)
(1.00686 -0.0165273 0)
(1.00777 -0.0202064 0)
(1.00867 -0.0242105 0)
(1.00942 -0.0285955 -8.03812e-24)
(1.00995 -0.0333876 -1.06512e-22)
(1.01003 -0.0385761 1.62512e-22)
(1.00912 -0.0439407 6.27459e-22)
(1.00663 -0.0490249 -4.45249e-24)
(1.00115 -0.0539101 -3.76031e-22)
(0.994374 -0.0556555 3.68807e-22)
(0.984142 -0.0546045 6.1926e-22)
(0.972089 -0.0509799 3.0048e-22)
(0.960139 -0.0426878 -1.28078e-21)
(0.950198 -0.0289566 1.14444e-21)
(0.944277 -0.0124385 -1.1261e-21)
(0.943149 0.00525641 -5.02179e-22)
(0.947157 0.0222466 -8.83292e-22)
(0.954994 0.0365149 2.80377e-21)
(0.965044 0.0459154 -1.76794e-21)
(0.975173 0.0506668 7.94001e-22)
(0.983975 0.0528947 -1.90192e-22)
(0.990405 0.0527182 3.97995e-22)
(0.99703 0.0493167 -4.89769e-22)
(1.00087 0.045519 -4.77859e-22)
(1.00351 0.0412548 -2.0162e-22)
(1.00526 0.0366099 1.8276e-22)
(1.00607 0.0318918 6.16255e-24)
(1.00624 0.0273153 0)
(1.00611 0.0229621 0)
(1.00581 0.0188771 0)
(1.00546 0.0150449 0)
(1.00513 0.0114409 0)
(1.00486 0.00802271 0)
(1.00468 0.00476508 0)
(1.00463 0.00156039 0)
(1.00812 -0.00145211 0)
(1.00834 -0.00450741 0)
(1.00884 -0.00763335 0)
(1.00961 -0.0109034 0)
(1.01061 -0.0144061 0)
(1.01182 -0.018195 0)
(1.01318 -0.0223469 0)
(1.0146 -0.0269606 5.75561e-24)
(1.0161 -0.0322305 -5.67899e-23)
(1.01749 -0.0382991 2.29849e-22)
(1.01815 -0.0451609 1.01175e-22)
(1.0174 -0.052685 -2.83517e-22)
(1.01437 -0.0608238 -3.34918e-22)
(1.00966 -0.0670356 -1.58556e-22)
(0.997827 -0.0740915 4.53965e-22)
(0.983174 -0.0758409 3.59329e-22)
(0.970125 -0.0663042 -3.50582e-21)
(0.953027 -0.0578756 -1.36889e-21)
(0.936579 -0.041656 -1.28436e-21)
(0.925432 -0.0186146 2.62105e-21)
(0.922471 0.00765682 6.5337e-22)
(0.928199 0.0319543 1.06926e-21)
(0.939633 0.0510131 -9.07522e-22)
(0.954417 0.0632083 -1.13399e-21)
(0.971827 0.0775545 -8.66369e-22)
(0.986125 0.0768983 -4.00931e-22)
(0.998031 0.0714138 4.15194e-22)
(1.00334 0.0658023 -8.36531e-23)
(1.00792 0.0586497 4.77457e-22)
(1.01076 0.0515995 -1.4141e-23)
(1.01242 0.0449749 -1.04472e-22)
(1.0131 0.0386565 9.26354e-23)
(1.01299 0.0326861 6.45763e-24)
(1.01238 0.0271534 0)
(1.01163 0.0221032 0)
(1.01089 0.017494 0)
(1.01022 0.0132492 0)
(1.00969 0.00927798 0)
(1.00934 0.00547886 0)
(1.00919 0.0018397 0)
(1.01225 -0.00164667 0)
(1.01255 -0.00480136 0)
(1.01322 -0.00807751 0)
(1.01424 -0.011524 0)
(1.0156 -0.0152274 0)
(1.01726 -0.0192746 0)
(1.01918 -0.0237822 0)
(1.02143 -0.0289578 4.37109e-24)
(1.02418 -0.0351045 -6.35849e-23)
(1.02675 -0.0424742 8.91395e-23)
(1.02851 -0.0510554 1.23301e-23)
(1.02884 -0.0606874 3.22426e-22)
(1.02723 -0.0708968 -3.01474e-22)
(1.01714 -0.0814084 2.57167e-22)
(1.00818 -0.0870582 5.99165e-22)
(0.992724 -0.0938998 -1.11159e-21)
(0.966085 -0.0970914 8.91136e-23)
(0.936328 -0.0888325 -3.22036e-21)
(0.905289 -0.0679551 2.10781e-21)
(0.882517 -0.0318053 4.57343e-21)
(0.876149 0.012955 2.20181e-21)
(0.88862 0.0544414 4.82349e-21)
(0.912866 0.0840298 6.98119e-23)
(0.941448 0.098922 -1.73103e-21)
(0.966614 0.10381 1.17146e-21)
(0.987833 0.0986963 -2.45646e-21)
(1.00172 0.0899512 1.77467e-21)
(1.01543 0.0821319 -4.20518e-22)
(1.01942 0.0713424 7.36515e-22)
(1.0213 0.0613107 -4.2126e-22)
(1.02206 0.0523021 8.5318e-23)
(1.02198 0.0443161 3.63448e-23)
(1.02133 0.037083 -5.16531e-23)
(1.02003 0.0305047 0)
(1.01855 0.0245947 0)
(1.01719 0.0193096 0)
(1.01604 0.0145144 0)
(1.01515 0.0101155 0)
(1.01455 0.00594395 0)
(1.01429 0.00193872 0)
(1.01652 -0.00151731 0)
(1.0169 -0.00484038 0)
(1.01775 -0.00821164 0)
(1.01905 -0.0117634 0)
(1.02081 -0.0155628 0)
(1.023 -0.0197481 0)
(1.02563 -0.0244616 -1.10115e-24)
(1.02913 -0.0300345 -2.8098e-23)
(1.03342 -0.0368797 1.70342e-23)
(1.03755 -0.0451246 4.2114e-23)
(1.04112 -0.0548984 -3.90175e-23)
(1.04366 -0.0667519 -2.58767e-23)
(1.04408 -0.082831 -2.14392e-23)
(1.03388 -0.0968616 4.33951e-22)
(1.02459 -0.110186 -1.22655e-21)
(1.0056 -0.127628 3.40058e-22)
(0.974971 -0.136054 -5.76763e-22)
(0.928293 -0.139454 -1.50849e-21)
(0.87142 -0.117623 -5.40846e-22)
(0.822128 -0.0642776 -1.08465e-21)
(0.804555 0.013924 9.81535e-23)
(0.827932 0.0861315 -2.14692e-21)
(0.876013 0.131477 1.6742e-21)
(0.927156 0.148282 -1.5325e-21)
(0.969109 0.144683 -1.21434e-21)
(1.0011 0.13435 -6.72386e-22)
(1.01709 0.116872 -2.23519e-22)
(1.03351 0.0997462 -2.31531e-22)
(1.03571 0.0829378 2.53692e-22)
(1.0355 0.069141 -8.25883e-23)
(1.03437 0.0575764 1.39938e-22)
(1.03275 0.047962 -1.67732e-22)
(1.03099 0.0397195 -4.93033e-23)
(1.02882 0.0323928 -4.41429e-24)
(1.02634 0.0259004 0)
(1.02415 0.0201812 0)
(1.02235 0.0150891 0)
(1.02099 0.0104361 0)
(1.0201 0.00619263 0)
(1.01967 0.00202131 0)
(1.02079 -0.00168122 0)
(1.02127 -0.00482975 0)
(1.0223 -0.00811739 0)
(1.02389 -0.0115828 0)
(1.02607 -0.0153261 0)
(1.02883 -0.0194555 0)
(1.03239 -0.0241623 -5.11381e-24)
(1.03738 -0.029836 -1.12132e-23)
(1.04327 -0.0367811 -6.86483e-24)
(1.04932 -0.0451507 7.58034e-23)
(1.05548 -0.0553097 6.60164e-23)
(1.06169 -0.0681957 -9.31168e-23)
(1.06742 -0.0867063 5.16483e-24)
(1.06315 -0.107181 -3.92446e-23)
(1.05769 -0.130223 -1.24177e-23)
(1.03681 -0.163967 -8.2457e-23)
(1.00273 -0.19345 1.07509e-22)
(0.93947 -0.226216 -4.41675e-22)
(0.833328 -0.230771 -2.81876e-23)
(0.706835 -0.155953 -9.82247e-22)
(0.648206 0.00775469 -1.85438e-22)
(0.712191 0.165017 -2.38764e-22)
(0.831632 0.233072 -2.084e-22)
(0.928193 0.231155 -3.1329e-22)
(0.994126 0.205204 4.14274e-22)
(1.03453 0.172474 2.01509e-22)
(1.04729 0.139981 -9.32717e-22)
(1.06027 0.112458 4.60405e-23)
(1.05763 0.0901832 -2.86751e-22)
(1.05353 0.0732248 2.73582e-22)
(1.04929 0.0597663 -1.38776e-22)
(1.04517 0.0488274 -8.0154e-23)
(1.04158 0.039918 1.55852e-22)
(1.03826 0.0323465 -3.40988e-23)
(1.03464 0.0257077 0)
(1.03145 0.0199548 0)
(1.02889 0.0149098 0)
(1.02697 0.0103571 0)
(1.02568 0.00603261 0)
(1.02508 0.00207097 0)
(1.02496 -0.00151153 0)
(1.02552 -0.00459438 0)
(1.02674 -0.00777382 0)
(1.02862 -0.0110431 0)
(1.0312 -0.0145682 0)
(1.03455 -0.0184119 0)
(1.03914 -0.0228233 -9.3021e-24)
(1.04553 -0.0281136 -4.37309e-25)
(1.05283 -0.034299 -2.81724e-23)
(1.06094 -0.0415785 7.826e-23)
(1.07034 -0.0508128 -8.13498e-23)
(1.08149 -0.0627451 -1.12279e-22)
(1.09389 -0.0781278 8.72725e-23)
(1.10004 -0.103942 3.32593e-22)
(1.10784 -0.135873 2.70867e-22)
(1.10775 -0.185167 -6.55558e-23)
(1.09049 -0.253284 -4.35042e-23)
(1.03618 -0.36096 1.06065e-23)
(0.86539 -0.485192 -1.27155e-21)
(0.47939 -0.476151 -5.92117e-20)
(0.186535 0.00711419 4.07384e-21)
(0.49588 0.460912 -3.85829e-20)
(0.848187 0.46214 2.22668e-21)
(1.00635 0.352377 -3.772e-23)
(1.06696 0.262739 2.14913e-23)
(1.09167 0.196481 1.42309e-22)
(1.09094 0.15315 1.66456e-22)
(1.09347 0.112379 -6.03013e-23)
(1.08412 0.0898078 2.74125e-23)
(1.0748 0.0719738 -2.55679e-24)
(1.06617 0.057569 -7.48131e-23)
(1.05865 0.0461208 8.99469e-23)
(1.05253 0.037138 -2.6941e-23)
(1.04764 0.0298598 6.41626e-24)
(1.0428 0.0236004 0)
(1.03847 0.0181826 0)
(1.03507 0.0134683 0)
(1.03259 0.00930517 0)
(1.03097 0.0054838 0)
(1.03018 0.00171012 0)
(1.02889 -0.00128082 0)
(1.02952 -0.00418818 0)
(1.03089 -0.00701214 0)
(1.03303 -0.010058 0)
(1.036 -0.0132587 0)
(1.03987 -0.0166713 0)
(1.04536 -0.020461 7.8836e-24)
(1.05268 -0.0247498 1.6547e-23)
(1.06097 -0.0293175 2.34516e-23)
(1.07075 -0.0342897 3.32579e-23)
(1.08298 -0.0403945 7.55947e-23)
(1.09884 -0.0481247 1.24545e-22)
(1.1195 -0.0580678 -2.88129e-22)
(1.13367 -0.0816933 4.90628e-23)
(1.16477 -0.109066 -3.00356e-22)
(1.19395 -0.16057 -4.46823e-22)
(1.23398 -0.241224 -6.5913e-24)
(1.29351 -0.395479 1.7464e-21)
(1.00907 -0.552447 -1.10713e-19)
(1.00534 0.520914 3.4693e-20)
(1.21217 0.3917 -3.1329e-23)
(1.18034 0.262455 -7.17553e-23)
(1.16231 0.184935 -7.4119e-23)
(1.14231 0.146291 -2.26778e-23)
(1.12946 0.100166 -8.03356e-24)
(1.11261 0.0803903 -3.62089e-23)
(1.09716 0.0635612 -1.13868e-23)
(1.08352 0.0499729 1.3453e-23)
(1.07222 0.0394071 8.87445e-24)
(1.0632 0.0312718 1.41454e-23)
(1.05634 0.0249034 1.55697e-23)
(1.0503 0.0196465 0)
(1.04494 0.0151476 0)
(1.04076 0.0112622 0)
(1.03768 0.00778182 0)
(1.03569 0.00462842 0)
(1.0347 0.00159925 0)
(1.03247 -0.00145147 0)
(1.03324 -0.00383823 0)
(1.03478 -0.00638205 0)
(1.03713 -0.00895246 0)
(1.04034 -0.011609 0)
(1.04453 -0.0143895 0)
(1.05045 -0.0172918 -8.03794e-24)
(1.05798 -0.0200892 6.24518e-24)
(1.06639 -0.0223809 -9.09652e-26)
(1.07681 -0.0241915 -2.14593e-23)
(1.09008 -0.0257655 7.66008e-23)
(1.10783 -0.0270757 -9.98397e-23)
(1.13213 -0.0273731 2.67695e-22)
(1.15763 -0.0416035 1.07071e-22)
(1.20304 -0.050751 2.22815e-21)
(1.25667 -0.0788731 -2.90681e-22)
(1.34204 -0.117415 1.49121e-23)
(1.48325 -0.162042 2.91096e-21)
(0.024793 -0.0152312 6.65388e-19)
(0.0267445 -0.022269 -1.05064e-19)
(1.34318 0.252255 -1.82506e-22)
(1.27033 0.197753 -3.19697e-23)
(1.22355 0.144403 3.55598e-22)
(1.18865 0.114861 5.51879e-22)
(1.16222 0.075828 8.36706e-23)
(1.13818 0.0607278 -6.45984e-23)
(1.11727 0.0475832 4.78444e-23)
(1.09925 0.0370082 -4.1672e-23)
(1.08439 0.0287391 7.81927e-24)
(1.0725 0.0223852 2.5498e-24)
(1.06355 0.0176059 1.82239e-25)
(1.05629 0.0138847 0)
(1.05006 0.0107494 0)
(1.04526 0.00802735 0)
(1.04171 0.00555267 0)
(1.03931 0.00323997 0)
(1.03805 0.00101453 0)
(1.03575 -0.000977778 2.80381e-25)
(1.03652 -0.00314917 0)
(1.03816 -0.00533351 0)
(1.04062 -0.00744898 0)
(1.04398 -0.00962448 0)
(1.04831 -0.0117983 0)
(1.05409 -0.0137709 4.75248e-24)
(1.06088 -0.0149232 -1.88693e-23)
(1.06834 -0.014911 -2.29258e-23)
(1.07785 -0.0136076 -2.47722e-23)
(1.09049 -0.010547 1.25547e-22)
(1.10716 -0.00511895 -2.60913e-23)
(1.13011 0.00571667 -1.44231e-22)
(1.15914 0.0057457 -2.51753e-22)
(1.20327 0.0176411 -4.22321e-22)
(1.2633 0.0218424 -8.6482e-22)
(1.35074 0.030779 9.8813e-22)
(1.43249 0.0600523 -3.36068e-22)
(0.263545 0.0182509 2.87462e-21)
(0.0265088 0.0052191 9.53608e-21)
(1.27318 0.120798 2.77099e-22)
(1.30865 0.121672 -4.39093e-22)
(1.26083 0.0906348 -4.6381e-23)
(1.22155 0.0710563 1.07097e-22)
(1.18493 0.0414358 -3.1683e-22)
(1.15657 0.0331255 3.2785e-22)
(1.1321 0.0256416 -5.08321e-23)
(1.11116 0.0196506 7.69499e-23)
(1.09366 0.0148524 2.56912e-23)
(1.07941 0.0111545 -2.35769e-23)
(1.06854 0.00855776 4.3274e-24)
(1.06014 0.00678941 0)
(1.05333 0.00538131 0)
(1.04814 0.00409886 0)
(1.04442 0.00290253 0)
(1.04202 0.001734 0)
(1.04091 0.000704225 0)
(1.03866 -0.000604593 -7.10238e-27)
(1.0394 -0.00238063 0)
(1.04101 -0.00403478 0)
(1.04353 -0.00580837 0)
(1.04697 -0.00756142 0)
(1.05127 -0.00924001 0)
(1.05615 -0.0103701 -1.63996e-24)
(1.06143 -0.0102523 3.58557e-24)
(1.0672 -0.00857111 6.51233e-23)
(1.07465 -0.00494106 4.95092e-23)
(1.0839 0.00144099 -2.538e-22)
(1.09476 0.0113908 1.49327e-22)
(1.10896 0.0275709 1.60647e-22)
(1.13352 0.0442253 -9.28416e-22)
(1.16506 0.0724178 -1.23243e-21)
(1.21453 0.11009 -6.57399e-23)
(1.28952 0.161857 7.61341e-23)
(1.36519 0.241262 -1.17204e-21)
(0.642917 0.141729 4.24756e-22)
(0.104769 -0.0818442 6.49812e-22)
(-0.216438 -0.0385512 -1.16561e-23)
(-0.136793 0.166538 -1.08861e-21)
(0.128055 0.0919499 6.47628e-22)
(1.17096 0.0658564 -5.01765e-22)
(1.3305 0.0595518 2.11522e-21)
(1.28293 0.0327748 -6.14145e-22)
(1.23896 0.0210656 -8.04718e-22)
(1.19565 0.0013663 2.23202e-22)
(1.16524 0.000673242 7.8979e-23)
(1.13921 -0.000229304 -2.36589e-22)
(1.117 -0.000651662 -8.5686e-24)
(1.09831 -0.00115694 8.01286e-23)
(1.08294 -0.00152363 4.35614e-24)
(1.07084 -0.00149986 -2.56298e-24)
(1.06153 -0.000963094 0)
(1.05455 -0.000478652 0)
(1.04934 -0.000241723 0)
(1.04565 -0.000146682 0)
(1.04331 -0.00020723 0)
(1.04199 -0.000252332 0)
(1.04096 -0.000891167 -6.79385e-24)
(1.0419 -0.00198967 0)
(1.04368 -0.00324345 0)
(1.04622 -0.00453999 0)
(1.04953 -0.00577504 0)
(1.05349 -0.00694954 0)
(1.05707 -0.00753204 -4.71823e-25)
(1.06039 -0.00692588 1.24838e-23)
(1.06394 -0.00490096 -5.77233e-23)
(1.06773 -0.000944114 1.01937e-22)
(1.07196 0.00484416 -2.03628e-22)
(1.07586 0.0136333 5.16509e-22)
(1.07926 0.0294594 -3.85656e-22)
(1.09322 0.0541035 -3.54074e-22)
(1.09967 0.0922704 3.83199e-22)
(1.10621 0.162504 -1.17791e-21)
(1.14116 0.254358 -9.12926e-22)
(1.14959 0.431343 -2.19974e-21)
(0.829626 0.600332 -2.40756e-21)
(0.1199 0.612742 2.69886e-20)
(-0.323724 0.592493 -1.23898e-21)
(-0.0899972 0.470874 4.52291e-21)
(0.493607 0.242476 4.01492e-22)
(1.25018 0.0341871 1.6553e-21)
(1.36217 -0.0137552 1.0009e-21)
(1.29575 -0.03801 -8.92024e-22)
(1.24254 -0.0351124 -2.18591e-22)
(1.19271 -0.0427647 4.6293e-22)
(1.16215 -0.0339771 -5.7339e-22)
(1.13683 -0.0274723 1.22849e-22)
(1.11524 -0.021771 6.01128e-23)
(1.09698 -0.0175621 1.78389e-23)
(1.08184 -0.0142784 -4.05626e-24)
(1.06934 -0.0113194 8.87436e-26)
(1.05998 -0.00842113 0)
(1.05336 -0.00608717 0)
(1.04846 -0.00432941 0)
(1.04495 -0.00290341 0)
(1.04267 -0.00159777 0)
(1.04151 -0.000493238 1.34769e-23)
(1.04317 -0.000524885 -2.50638e-23)
(1.04393 -0.00142888 0)
(1.04555 -0.00230218 0)
(1.048 -0.00311653 0)
(1.05119 -0.0039021 0)
(1.05478 -0.00471472 0)
(1.05737 -0.00528827 0)
(1.05867 -0.00504461 3.99236e-24)
(1.06036 -0.00419762 1.82039e-23)
(1.0624 -0.00313647 -9.82309e-24)
(1.06305 -0.000946706 -3.49942e-23)
(1.06111 0.00302055 -9.70595e-23)
(1.05495 0.00990699 -4.62365e-23)
(1.03585 0.0242911 6.84697e-23)
(1.02806 0.0674971 -1.67759e-22)
(0.993079 0.119833 7.6944e-23)
(0.95418 0.223581 -9.60838e-23)
(0.852871 0.369839 8.64075e-21)
(0.541605 0.614342 4.80891e-21)
(0.0299506 0.818319 1.48022e-20)
(-0.086809 0.731629 -1.58229e-20)
(0.318128 0.397731 -2.06727e-21)
(0.862442 0.0890221 2.78716e-21)
(1.39434 -0.119026 1.93634e-21)
(1.36159 -0.147854 -1.50198e-21)
(1.2841 -0.12418 -1.65405e-21)
(1.21121 -0.109101 -4.37104e-22)
(1.17377 -0.0860525 9.96714e-22)
(1.14619 -0.0665429 -6.53305e-22)
(1.12397 -0.0523602 9.81906e-24)
(1.10526 -0.0407485 7.00886e-23)
(1.08937 -0.0319433 -2.09488e-23)
(1.0756 -0.0250137 -1.79205e-23)
(1.0638 -0.0192284 0)
(1.05541 -0.0143527 0)
(1.04982 -0.0104898 0)
(1.04569 -0.00742199 0)
(1.04271 -0.00488392 0)
(1.04078 -0.00268965 0)
(1.03979 -0.000805501 7.00331e-24)
(1.04386 1.21713e-05 -3.44688e-25)
(1.04478 -0.000463803 0)
(1.04634 -0.000896763 0)
(1.04875 -0.00136624 0)
(1.05198 -0.00185437 0)
(1.05553 -0.00246851 0)
(1.05789 -0.0033103 0)
(1.05871 -0.00433792 0)
(1.05998 -0.00568529 -3.30809e-25)
(1.06161 -0.00788419 1.22584e-23)
(1.06195 -0.0110181 -5.6782e-23)
(1.05848 -0.0154258 1.96546e-22)
(1.04791 -0.0202654 1.32383e-23)
(1.0225 -0.033719 -3.05487e-23)
(0.987591 -0.00736807 7.79317e-23)
(0.914503 0.00948478 -5.93685e-23)
(0.828119 0.0704414 6.22867e-22)
(0.594924 0.19548 -1.32305e-21)
(0.211666 0.398598 4.13387e-21)
(0.0332935 0.41651 -9.07682e-21)
(0.283158 0.207026 2.32999e-21)
(0.765529 -0.0840999 -7.4894e-21)
(1.21239 -0.316633 -7.40409e-21)
(1.39606 -0.360295 2.47391e-20)
(1.29348 -0.270607 -4.74553e-22)
(1.2329 -0.208274 -4.32613e-22)
(1.16457 -0.159171 -1.05317e-22)
(1.13732 -0.120217 -2.51795e-23)
(1.11778 -0.0918499 3.64152e-22)
(1.10173 -0.0707398 -8.45427e-23)
(1.08817 -0.0540209 1.97875e-23)
(1.07615 -0.0415254 -5.45817e-24)
(1.06503 -0.0317746 0)
(1.05521 -0.0241295 0)
(1.0486 -0.0180154 0)
(1.04447 -0.0132105 0)
(1.04146 -0.0093583 -4.48674e-24)
(1.03926 -0.00619173 -6.20486e-24)
(1.03782 -0.0034553 -3.70002e-24)
(1.03715 -0.00107154 0)
(1.04359 0.000182682 0)
(1.0447 0.000478985 0)
(1.04647 0.000708791 0)
(1.04901 0.00071529 0)
(1.05239 0.000563894 0)
(1.05622 0.00017284 0)
(1.05918 -0.000812419 0)
(1.06082 -0.00282635 0)
(1.06329 -0.00609565 -1.24347e-25)
(1.06684 -0.0112853 1.39724e-23)
(1.07018 -0.0192405 -2.30099e-23)
(1.07178 -0.0321357 1.06493e-22)
(1.06772 -0.0492205 -6.34762e-23)
(1.05022 -0.0823793 3.16192e-22)
(1.0002 -0.0966034 -7.57185e-22)
(0.921974 -0.136402 -6.08704e-22)
(0.731709 -0.114097 -1.91113e-21)
(0.401225 -0.00406047 -1.54866e-21)
(0.257249 -0.0882743 1.18508e-21)
(0.322041 -0.331195 9.62803e-22)
(0.629718 -0.575984 1.20734e-21)
(0.985801 -0.694672 -4.91683e-21)
(1.21443 -0.634635 3.12039e-21)
(1.22503 -0.467588 -1.06157e-21)
(1.16798 -0.336446 8.5958e-22)
(1.14414 -0.258396 1.1647e-21)
(1.09738 -0.182979 1.75379e-23)
(1.08754 -0.137394 5.16466e-23)
(1.07948 -0.104547 -5.49714e-23)
(1.07262 -0.0792601 -8.43715e-24)
(1.06614 -0.0595994 3.04492e-24)
(1.05937 -0.0450208 -2.42262e-26)
(1.05203 -0.0338839 0)
(1.04511 -0.0254257 0)
(1.04069 -0.018993 0)
(1.03818 -0.0139979 0)
(1.03638 -0.0099473 0)
(1.03504 -0.00663753 0)
(1.03421 -0.00377667 0)
(1.03388 -0.00122365 6.66379e-25)
(1.04284 0.000385829 0)
(1.04395 0.00131226 0)
(1.04586 0.00220956 0)
(1.0486 0.00293188 0)
(1.05226 0.00343608 0)
(1.05667 0.00365125 0)
(1.06091 0.00315152 0)
(1.06456 0.00110538 0)
(1.06975 -0.00286133 0)
(1.07722 -0.0092778 0)
(1.08667 -0.0191799 2.6648e-24)
(1.09822 -0.0354648 -9.65482e-24)
(1.10995 -0.0594246 -1.94055e-22)
(1.1152 -0.0963805 3.02844e-22)
(1.07969 -0.150214 -1.95117e-21)
(1.00508 -0.234987 8.21477e-22)
(0.652175 -0.261384 1.3115e-21)
(0.503993 -0.3509 -4.98603e-22)
(0.546417 -0.511627 -1.14053e-21)
(0.633732 -0.679776 -5.80647e-21)
(0.778721 -0.765567 8.12154e-22)
(0.909847 -0.729549 -5.15368e-21)
(0.974539 -0.600274 2.05796e-21)
(1.01105 -0.458929 -1.64791e-21)
(1.04865 -0.341811 8.53959e-22)
(1.04147 -0.260435 -3.88016e-22)
(1.02504 -0.180199 4.18634e-23)
(1.03258 -0.133873 -5.9247e-23)
(1.03719 -0.101734 3.37411e-23)
(1.04044 -0.0763017 -4.2432e-24)
(1.04157 -0.0568534 0)
(1.04065 -0.042267 0)
(1.03793 -0.0311304 0)
(1.03466 -0.0229758 0)
(1.03273 -0.0171757 0)
(1.03188 -0.0127652 0)
(1.03125 -0.00916296 0)
(1.03073 -0.00620737 0)
(1.03043 -0.00362367 0)
(1.03038 -0.00118695 0)
(1.04139 0.000680662 0)
(1.04238 0.00220045 0)
(1.04428 0.00375635 0)
(1.04714 0.00530527 0)
(1.05107 0.00677657 0)
(1.05615 0.0081301 0)
(1.06197 0.00903658 0)
(1.0683 0.00850675 0)
(1.07678 0.00605296 0)
(1.08857 0.00146106 0)
(1.10457 -0.00573965 0)
(1.12607 -0.0174116 5.48109e-25)
(1.15557 -0.0370909 2.2949e-23)
(1.18935 -0.0606801 -1.93053e-23)
(1.19562 -0.127574 -7.43041e-22)
(1.14116 -0.22373 1.88124e-21)
(0.82521 -0.363071 2.74957e-22)
(0.700921 -0.547695 -7.30356e-22)
(0.685821 -0.652531 -1.12914e-22)
(0.699549 -0.681359 3.20497e-21)
(0.734817 -0.645299 4.36346e-21)
(0.784268 -0.563298 -5.48777e-22)
(0.837471 -0.475335 -2.45827e-21)
(0.898151 -0.40706 -3.95585e-22)
(0.921014 -0.311659 -2.90209e-22)
(0.944886 -0.225956 -7.41134e-22)
(0.957746 -0.149755 2.94879e-23)
(0.980874 -0.109162 1.02412e-23)
(0.99824 -0.0822274 -5.14383e-25)
(1.01033 -0.0609151 0)
(1.01835 -0.0447702 0)
(1.0229 -0.03252 0)
(1.02483 -0.0232497 0)
(1.02546 -0.0168357 0)
(1.02612 -0.0126431 0)
(1.02671 -0.00953249 0)
(1.02695 -0.00697123 0)
(1.02699 -0.00480126 0)
(1.027 -0.00284676 0)
(1.02707 -0.000964061 0)
(1.03895 0.00104081 0)
(1.03979 0.00316149 0)
(1.04155 0.00539402 0)
(1.04433 0.00777852 0)
(1.04827 0.0103743 0)
(1.05358 0.0132166 0)
(1.06038 0.0162121 0)
(1.06876 0.0185998 0)
(1.07967 0.0199193 0)
(1.09419 0.0202585 0)
(1.11392 0.0199258 1.57826e-22)
(1.14098 0.0192889 0)
(1.17924 0.0147691 0)
(1.23332 0.0152163 -6.06928e-22)
(1.31688 0.000397258 6.7646e-22)
(1.29632 -0.087077 -8.09923e-22)
(1.11309 -0.227447 -3.48324e-22)
(0.935793 -0.423797 -5.52561e-22)
(0.801012 -0.581476 -1.44701e-21)
(0.704819 -0.663768 9.95053e-21)
(0.638963 -0.662879 2.75872e-21)
(0.632874 -0.582443 -7.56325e-22)
(0.687101 -0.462101 -5.81095e-23)
(0.757435 -0.329449 -1.20223e-22)
(0.803589 -0.221519 4.14563e-23)
(0.862713 -0.125429 1.80365e-22)
(0.908087 -0.0889611 -1.07258e-21)
(0.942317 -0.0634384 0)
(0.969496 -0.0461795 0)
(0.988513 -0.0333544 -2.09892e-23)
(1.0016 -0.0237819 0)
(1.01024 -0.0166058 0)
(1.01582 -0.0113455 0)
(1.0196 -0.00808687 0)
(1.0222 -0.00624103 0)
(1.02369 -0.00487828 0)
(1.0244 -0.0036792 0)
(1.02466 -0.00257631 7.38437e-25)
(1.02473 -0.00153285 5.29763e-25)
(1.02477 -0.000497077 0)
(1.03554 0.00126002 0)
(1.03628 0.00391964 0)
(1.03779 0.00676569 0)
(1.04018 0.00996043 0)
(1.0436 0.0136659 0)
(1.04834 0.0180094 0)
(1.05493 0.0231112 0)
(1.06373 0.0286629 0)
(1.07508 0.0345221 0)
(1.0895 0.0410861 0)
(1.10836 0.0493065 2.88049e-22)
(1.13397 0.0612594 0)
(1.16823 0.0760908 0)
(1.21916 0.100223 -5.27725e-22)
(1.3015 0.140595 -1.47036e-20)
(1.36754 0.184621 9.4896e-22)
(1.30879 0.179782 0)
(1.17435 0.131446 -2.49715e-21)
(0.995069 0.0529356 1.1539e-20)
(0.80181 0.0180835 5.45827e-20)
(0.62738 -0.043541 -1.58795e-21)
(0.538115 -0.0809531 -1.70434e-21)
(0.534723 -0.0984012 2.45868e-22)
(0.589525 -0.0889822 0)
(0.693449 -0.058569 -5.24433e-21)
(0.807435 -0.0229398 -4.72804e-21)
(0.879291 -0.00792174 1.39974e-22)
(0.923086 2.14713e-05 0)
(0.957174 0.00192709 0)
(0.980047 0.00193145 1.23071e-22)
(0.995331 0.00195368 0)
(1.0057 0.00205692 0)
(1.01297 0.00194184 0)
(1.01822 0.00135994 0)
(1.02151 0.000581102 0)
(1.02306 3.07497e-05 -1.33594e-24)
(1.02373 -0.000236406 1.73603e-24)
(1.02399 -0.000274341 0)
(1.02406 -0.000204146 0)
(1.0241 -3.00431e-05 4.0796e-24)
(1.03168 0.00132891 0)
(1.03217 0.00436133 0)
(1.03319 0.00765243 0)
(1.03485 0.0114673 0)
(1.03727 0.015968 0)
(1.04075 0.0213801 0)
(1.04603 0.0279529 6.56891e-25)
(1.05362 0.0357406 0)
(1.06321 0.0451049 0)
(1.07459 0.0567632 0)
(1.08843 0.0721197 0)
(1.10631 0.0933853 0)
(1.12811 0.122878 0)
(1.15905 0.163255 -1.45533e-22)
(1.20615 0.226702 5.45259e-23)
(1.25702 0.318105 -6.90879e-24)
(1.24603 0.405987 0)
(1.16171 0.464583 0)
(1.02523 0.472582 -5.63177e-21)
(0.868258 0.472946 -1.17562e-19)
(0.7221 0.418273 8.07751e-21)
(0.64858 0.348105 -2.79138e-21)
(0.636106 0.26267 0)
(0.653477 0.180701 0)
(0.703743 0.113235 0)
(0.78771 0.104285 -1.19476e-24)
(0.869111 0.0943511 8.0167e-21)
(0.931378 0.073735 1.54658e-22)
(0.968098 0.0536587 0)
(0.988671 0.0374867 0)
(1.00168 0.0265846 0)
(1.01035 0.0191037 0)
(1.01663 0.0136289 -5.8625e-24)
(1.0213 0.00948217 -2.40246e-24)
(1.02391 0.00631464 -1.21033e-25)
(1.02471 0.00403633 0)
(1.02475 0.00246077 0)
(1.02462 0.00140111 0)
(1.02449 0.000660182 0)
(1.02443 0.000156641 0)
(1.02767 0.00151864 0)
(1.02768 0.00459744 0)
(1.02804 0.00801482 0)
(1.02882 0.0119492 0)
(1.03005 0.0165945 0)
(1.03196 0.02225 0)
(1.03536 0.0292694 0)
(1.04064 0.0379184 0)
(1.04686 0.0488947 6.67863e-24)
(1.05318 0.0630997 0)
(1.05971 0.0819926 0)
(1.06686 0.107103 0)
(1.07393 0.141455 -4.01228e-23)
(1.08112 0.185618 -1.42715e-21)
(1.08864 0.24482 0)
(1.10278 0.327998 0)
(1.09734 0.426637 0)
(1.05558 0.512846 0)
(0.974766 0.565403 -6.00167e-21)
(0.879663 0.588931 -5.19052e-21)
(0.790032 0.569482 -1.61476e-20)
(0.759619 0.521493 7.63683e-21)
(0.762337 0.453485 0)
(0.783679 0.376323 0)
(0.792963 0.286338 0)
(0.833065 0.228379 0)
(0.908711 0.181845 -7.42598e-21)
(0.976661 0.131671 -2.22695e-21)
(1.00606 0.092726 0)
(1.0157 0.0633566 1.68009e-25)
(1.02044 0.0438612 1.54484e-24)
(1.02329 0.0304381 3.81655e-24)
(1.02576 0.0210456 0)
(1.02799 0.0144017 0)
(1.02878 0.00962974 0)
(1.02814 0.00627105 0)
(1.02712 0.00392289 0)
(1.02625 0.0022809 0)
(1.02559 0.00111259 0)
(1.02513 0.000269352 0)
(1.0234 0.00160528 0)
(1.02318 0.00441736 0)
(1.02306 0.00749643 0)
(1.02308 0.0109199 0)
(1.02317 0.0149813 0)
(1.02345 0.0199753 0)
(1.0247 0.0263709 0)
(1.02711 0.0346325 0)
(1.02925 0.0454607 0)
(1.02993 0.0596982 0)
(1.02888 0.078531 2.56276e-23)
(1.02577 0.103275 1.82691e-23)
(1.01975 0.135404 -1.24887e-21)
(1.01385 0.176667 5.52619e-23)
(1.00288 0.22556 0)
(0.987912 0.285192 0)
(0.969912 0.361096 0)
(0.942189 0.440087 0)
(0.893495 0.50518 -1.48567e-20)
(0.844863 0.552278 2.5292e-20)
(0.808538 0.559476 2.03295e-21)
(0.810786 0.536252 -1.23102e-20)
(0.82659 0.500693 0)
(0.867759 0.450512 0)
(0.89471 0.378057 0)
(0.928776 0.298037 0)