/*--------------------------------*- C++ -*----------------------------------*\
| =========                 |                                                 |
| \\      /  F ield         | OpenFOAM: The Open Source CFD Toolbox           |
|  \\    /   O peration     | Version:  v2106                                 |
|   \\  /    A nd           | Website:  www.openfoam.com                      |
|    \\/     M anipulation  |                                                 |
\*---------------------------------------------------------------------------*/
FoamFile
{
    version     2.0;
    format      ascii;
    arch        "LSB;label=32;scalar=64";
    class       volScalarField;
    location    "0";
    object      p;
}
// * * * * * * * * * * * * * * * * * * * * * * * * * * * * * * * * * * * * * //

dimensions      [0 2 -2 0 0 0 0];

internalField   nonuniform List<scalar> 
11644
(
-0.0354568
-0.03557
-0.0357493
-0.0359725
-0.0362005
-0.0363018
-0.0361942
-0.0358907
-0.0353295
-0.03444
-0.0331069
-0.0313891
-0.0290172
-0.0257664
-0.0217677
-0.0164854
-0.0128998
-0.0117259
-0.0064901
0.00197395
0.0111912
0.0195722
0.02283
0.0268165
0.0297129
0.0321306
0.03504
0.037141
0.03869
0.0400713
0.0411049
0.041889
0.0425692
0.043145
0.0435733
0.0439547
0.0442771
0.0444935
0.0446346
0.0447645
-0.035122
-0.0352609
-0.0354511
-0.035709
-0.0360028
-0.0363905
-0.0367091
-0.0367522
-0.0366128
-0.0360559
-0.0349663
-0.033313
-0.0309275
-0.0278421
-0.0242685
-0.0206768
-0.0165645
-0.0101333
-0.000186061
-0.00222511
0.00103498
0.0198833
0.0233171
0.0290619
0.0324641
0.0344192
0.0360259
0.037463
0.0388494
0.0400264
0.0410875
0.0420003
0.0427607
0.0434226
0.0439967
0.0444209
0.0447123
0.044958
0.0451801
0.0453219
-0.0344836
-0.0347143
-0.0350452
-0.0354461
-0.0359225
-0.0364892
-0.0371861
-0.0379091
-0.0384364
-0.0386164
-0.0384461
-0.037387
-0.0354472
-0.0324038
-0.028666
-0.0243215
-0.0165799
-0.00725051
-0.00155622
0.00365897
0.00393095
0.0157735
0.0234361
0.0285537
0.032417
0.0356596
0.0377002
0.0391474
0.0404384
0.0415155
0.0423631
0.0432344
0.0439009
0.0444337
0.0448649
0.0452042
0.0455105
0.0457707
0.0459437
0.0459862
-0.0339819
-0.0340978
-0.0344433
-0.0350597
-0.0358238
-0.0367334
-0.0377428
-0.0388436
-0.0399645
-0.0409532
-0.0412692
-0.0407265
-0.0390678
-0.0367056
-0.032149
-0.0248963
-0.0168941
-0.00912428
-0.00592925
0.0135791
0.0199237
0.0129822
0.0212037
0.0258148
0.0309815
0.0356791
0.0385498
0.0407517
0.0422739
0.043387
0.0439313
0.0443864
0.0448703
0.0453305
0.0457278
0.0460807
0.0463321
0.0464799
0.0465212
0.0465741
-0.033531
-0.0336004
-0.0339159
-0.0344223
-0.0352546
-0.0363709
-0.0376859
-0.0392002
-0.040811
-0.042374
-0.043694
-0.0443972
-0.0435753
-0.0404981
-0.0350466
-0.0289899
-0.0221595
-0.0128493
-0.00513713
0.0144453
0.0242255
0.0200745
0.0282197
0.0293196
0.0319432
0.0356957
0.0394007
0.0417238
0.0431035
0.0440733
0.0449048
0.0455037
0.0459572
0.0463618
0.0466189
0.0468032
0.0469491
0.0470107
0.0470567
0.0470042
-0.0320696
-0.0324145
-0.0328459
-0.0334526
-0.0343187
-0.0353456
-0.0367358
-0.0384487
-0.0405898
-0.0429448
-0.0451702
-0.0467595
-0.0470327
-0.0454612
-0.0416123
-0.0350839
-0.0246273
-0.0154437
-0.00340201
0.00253848
0.0176899
0.0305148
0.0286989
0.0277121
0.031107
0.0353516
0.0392637
0.0422755
0.0447116
0.046697
0.0477242
0.048283
0.0483693
0.0482978
0.0481369
0.0478687
0.0475939
0.0472844
0.0470218
0.0468267
-0.0313935
-0.0314103
-0.0315428
-0.0321726
-0.0328343
-0.0338499
-0.0352064
-0.0370555
-0.0394889
-0.0420418
-0.0441589
-0.0455409
-0.0450047
-0.0445219
-0.0435057
-0.0421722
-0.0286808
-0.0190232
-0.0133177
-0.00642427
0.0115917
0.0242529
0.025033
0.0283912
0.0409265
0.0394637
0.041816
0.0458922
0.04955
0.0518728
0.0527405
0.0526409
0.0517934
0.0507619
0.0497978
0.0488856
0.0480403
0.0474928
0.0469959
0.0469152
-0.0300772
-0.0302274
-0.0307735
-0.031018
-0.031515
-0.0324669
-0.033707
-0.0354872
-0.0372686
-0.0384535
-0.0387103
-0.0401494
-0.0400884
-0.0472823
-0.0387457
-0.0388397
-0.0295381
-0.0228775
-0.00758042
0.00877611
0.0161408
0.0207172
0.0237744
0.029078
0.031611
0.0404108
0.0449387
0.0527268
0.0540807
0.0559796
0.0565309
0.0559868
0.0545538
0.0526525
0.0509091
0.0495657
0.0484882
0.0476962
0.0472179
0.0464607
-0.0274684
-0.0277732
-0.0282906
-0.0289318
-0.0301817
-0.031166
-0.0324367
-0.0337424
-0.0339476
-0.0337487
-0.0331738
-0.0298325
-0.0295017
-0.0372496
-0.0435996
-0.036714
-0.0417866
-0.0108112
-0.00365139
0.00953494
0.0135371
0.024124
0.0260761
0.0356255
0.0336211
0.0480104
0.0540347
0.0595051
0.058695
0.0590426
0.0588477
0.0578188
0.0559691
0.0535597
0.0513437
0.0493225
0.0477084
0.0462713
0.0455889
0.0454839
-0.0267728
-0.0265817
-0.0263436
-0.0272461
-0.0281723
-0.0291442
-0.0301475
-0.0308932
-0.0313709
-0.0307563
-0.0315789
-0.0315638
-0.0298999
-0.0492589
-0.0361455
-0.0409201
-0.0340299
-0.0213988
-0.0124086
0.018522
0.0317263
0.0368336
0.0347311
0.0485758
0.0534125
0.0646071
0.0594179
0.0626213
0.0631439
0.0624239
0.0607481
0.0584826
0.0557176
0.0529512
0.0504274
0.0480095
0.0461696
0.0451222
0.0438753
0.0441783
-0.0243258
-0.0246511
-0.026476
-0.0272504
-0.0275295
-0.0283189
-0.0291155
-0.0296563
-0.0312171
-0.0320605
-0.0322318
-0.0381692
-0.0426192
-0.0413684
-0.0459427
-0.0565583
-0.0648429
-0.0474036
-0.0188724
0.0310673
0.0544186
0.042798
0.0493682
0.0597766
0.0611779
0.0618326
0.0663393
0.0568068
0.0597033
0.0600921
0.0586243
0.0562522
0.0534546
0.050341
0.0475014
0.0455165
0.0435682
0.0419929
0.0406998
0.0387028
-0.0201588
-0.0216514
-0.0229242
-0.0240925
-0.0260489
-0.0281589
-0.0306089
-0.0328853
-0.0335904
-0.0359714
-0.037899
-0.0409706
-0.0469486
-0.0388588
-0.0607682
-0.0620873
-0.0779534
-0.101859
-0.0971473
0.0479161
0.0827104
0.0791542
0.0617013
0.0468502
0.0523736
0.0504207
0.0518457
0.05201
0.0506361
0.0483633
0.0452328
0.0421877
0.0398528
0.0378982
0.0356891
0.0353176
0.0354216
-0.0188905
-0.0198323
-0.0226731
-0.0244241
-0.0261447
-0.0289719
-0.0335061
-0.0389162
-0.0405235
-0.0406612
-0.0458535
-0.0473379
-0.0546607
-0.0666698
-0.0795322
-0.0997096
-0.121752
-0.183757
-0.266231
0.251027
0.123703
0.0567293
0.0284821
0.0323826
0.0173771
0.0253729
0.0369808
0.0430302
0.0422534
0.0402002
0.0374882
0.0358202
0.0346778
0.0344264
0.0340731
0.0304136
0.0336333
-0.027702
-0.0276521
-0.0264173
-0.0247179
-0.0249495
-0.0269118
-0.0340932
-0.0444196
-0.0530548
-0.0463162
-0.0404984
-0.0378319
-0.0789777
-0.0528087
-0.0899011
-0.106323
-0.0934349
-0.141138
-0.153739
0.0770747
0.0179536
-0.0124681
-0.0502768
0.0176704
0.00480937
-0.0121408
0.0277502
0.0343815
0.0332026
0.031274
0.0282787
0.0269092
0.0285825
0.0291379
0.0317529
0.0334466
0.0276617
-0.0226209
-0.0222
-0.0194274
-0.0173088
-0.0174867
-0.0209784
-0.028486
-0.0438644
-0.0551113
-0.0304838
-0.0287616
-0.0280519
-0.0249727
-0.0837547
-0.0893345
-0.0951557
-0.0196087
0.0529614
0.600064
-0.326701
0.59586
0.273866
-0.406083
-0.220597
-0.21616
-0.0375594
0.00947014
0.00696178
-0.0117992
-0.0121775
0.025482
0.0309887
0.0221827
0.020325
0.0181598
0.018222
0.0182383
0.0168184
0.0193897
0.0300538
0.00262594
-0.00238994
0.000870648
0.00104202
0.000452291
-0.0131632
-0.0202745
-0.0180248
-0.0175666
-0.0167986
0.000145621
0.0213546
-0.0176017
-0.0232813
0.0474235
0.0295853
0.0946932
0.0805676
-0.628029
-1.91487
0.37101
2.03384
0.225387
-0.320971
-0.198524
0.00779385
-0.0388436
0.0582383
0.0528219
-0.0089857
-0.000252586
0.00436432
0.0046427
0.0116298
0.010325
0.00430814
0.00175141
0.00194972
0.000986177
-0.00808479
0.0030205
0.00786843
0.00512892
0.00434736
-0.00199891
-0.0111229
-0.0065466
-0.0075733
0.00722895
0.0286697
0.0118209
0.0365591
0.0389194
-0.149343
-0.0473294
0.136364
0.431293
0.276333
-0.555285
-0.825682
-0.770744
1.47082
-0.230958
-0.306617
0.0229164
-0.00528867
-0.0324835
0.075553
0.0280509
0.0109421
-0.00214833
-0.00554753
-0.00248573
0.00655492
0.0109107
0.00836533
-0.00135325
-0.00591561
-0.00319176
-0.00532704
0.0106235
0.00501123
-0.00738481
-0.0117289
-0.0135306
-0.0117054
0.00704333
0.00351462
-0.0177364
-0.0171035
-0.0149147
-0.019691
0.170387
-0.223456
0.0185416
-0.23852
-0.0203996
0.67478
0.712596
0.876891
-0.997112
-1.6815
-0.155773
0.623492
0.335467
0.270513
0.213338
0.00168151
-0.0360391
0.0511331
0.0179315
-0.00250882
-0.0111428
-0.00708588
-0.00196967
0.00144555
0.00507042
0.00150633
-0.00651471
-0.00851542
-0.0032189
-0.00160293
-0.00506855
-0.00465319
-0.00243727
0.00167652
0.0151256
0.0335207
0.0195634
-0.00393116
-0.0314888
-0.092981
-0.0612345
0.0203644
-0.121866
-0.277057
-0.407881
-0.395604
0.314452
0.339961
0.066279
-0.0973213
-0.0519307
0.368142
0.53631
0.309482
0.303249
-0.0989676
-0.0535192
-0.0102114
-0.0159141
-0.00834932
-0.0219641
-0.0227417
-0.0235698
-0.0183781
-0.0124127
-0.0091198
-0.0112171
-0.0109569
0.0125831
0.0157009
0.0178229
0.0200038
0.0202299
0.0101886
0.0140657
0.0380032
0.0505885
0.0483128
0.0253851
-0.252658
0.24239
-0.0696398
0.0550157
-0.0412119
0.0538945
-0.19642
-0.887791
-0.475937
0.24245
-0.126522
0.807784
1.65928
0.062605
0.181017
0.0659798
0.0851093
-0.132479
-0.0323482
-0.02395
-0.0167927
-0.0165004
-0.025226
-0.0321695
-0.0348266
-0.0292556
-0.0206106
-0.0185994
-0.0160142
0.0206827
0.0234818
0.0264899
0.0277722
0.0295986
0.0274831
0.0209509
0.0157834
0.0217441
0.0389276
0.0640429
-0.0288796
0.0423399
-0.128072
0.358811
0.204802
-0.168274
0.287294
1.79436
1.04029
0.56657
0.687543
0.823581
-1.24777
-0.251154
0.0643447
0.158457
0.128225
0.0265741
-0.0572138
-0.019433
-0.00563229
-0.0117948
-0.0242059
-0.0292304
-0.0309057
-0.0306269
-0.0283543
-0.0269518
-0.0254468
0.026568
0.024773
0.0226936
0.0208295
0.0275843
0.027968
0.0256932
0.0169671
-0.00801496
-0.00160755
0.0149375
-0.0140497
0.1206
-0.116458
-0.328448
0.347394
0.978008
0.71988
0.526554
0.0318284
-0.921354
0.492391
0.103224
-0.571853
0.31361
0.510872
0.368254
0.0390177
-0.00748685
0.0251029
0.0177374
0.0137466
-0.0115575
-0.0245579
-0.032849
-0.0346915
-0.0336585
-0.0335384
-0.0296459
-0.0293532
0.0264505
0.032014
0.0347655
0.0343815
0.0323963
0.0337489
0.0298235
0.0241642
0.00649638
-0.0120773
-0.0337009
-0.173211
-0.298284
-0.41384
0.301298
0.217927
0.227171
-0.0902204
0.660045
0.074497
-1.08454
-1.39371
1.05135
1.4672
1.15137
1.20508
0.0890593
-0.0261777
-0.0207004
0.0315608
0.012127
0.00757018
-0.0240908
-0.0339588
-0.0419819
-0.0412448
-0.0411693
-0.0410074
-0.0396631
-0.0418183
0.0493059
0.0404027
0.0418487
0.0439843
0.0449933
0.0313337
0.0335976
0.0265242
0.0175442
-0.00235668
-0.0385233
-0.114588
-0.194059
-0.269214
-1.18577
-0.498895
0.300919
0.834717
-0.558624
-1.50273
-1.49729
-0.564179
0.982576
1.59238
0.918032
0.368494
0.30216
0.0875325
0.0523177
-0.0044641
-0.0290842
-0.0383907
-0.0373421
-0.0417144
-0.0434468
-0.0477446
-0.0515705
-0.0513335
-0.0527617
-0.0499403
0.0541653
0.0539308
0.049582
0.0477184
0.048162
0.0439077
0.0457383
0.0477799
0.0206529
0.0151024
0.0495213
-0.00401405
-0.0878762
-0.0402195
0.58586
0.0727569
-0.729815
0.0743145
-0.0440457
0.54054
0.230258
-0.103533
0.159517
-0.344335
-0.0643798
0.530078
0.223166
0.0137396
-0.017599
-0.0635072
-0.0692001
-0.0705206
-0.0437703
-0.0445699
-0.0459029
-0.0468019
-0.0512263
-0.0488583
-0.0495211
-0.0468318
0.0569344
0.0561326
0.0579455
0.0591229
0.0640175
0.0645442
0.0662694
0.0677167
0.0852707
0.0725396
0.102527
0.137096
0.267464
-0.0713075
0.244552
1.20453
2.32638
2.2674
-0.588729
-1.79843
-2.32211
-1.76095
0.282345
0.478832
0.0106778
-0.104676
-0.093247
-0.069091
-0.176053
-0.0957928
-0.0830922
-0.0776415
-0.0710447
-0.0632991
-0.0594644
-0.0596592
-0.0561463
-0.04874
-0.0489624
-0.0534261
0.0639988
0.0641565
0.0670728
0.0721869
0.0750284
0.0811272
0.0909373
0.087608
0.110125
0.0704897
0.120276
0.186989
0.231541
0.543582
0.283693
-0.141711
0.877885
1.02051
-0.532172
-0.704846
-1.65013
-1.93297
0.544746
0.15232
-1.02483
-0.220918
0.135384
-0.00902694
-0.0545221
-0.110383
-0.0605151
-0.107972
-0.0864744
-0.0769468
-0.0723794
-0.0723426
-0.0686964
-0.0669909
-0.0671634
-0.0613081
0.06691
0.0748214
0.0745298
0.0757958
0.0783807
0.0828368
0.0898858
0.0933559
0.0897514
0.0932854
0.090709
0.127074
0.0799048
-0.138493
0.111116
-0.016014
0.2741
-0.0205426
0.397173
0.764742
-1.41188
-1.28818
-0.0432037
0.65936
0.751195
0.541842
0.116757
-0.0281967
0.0178909
-0.0466357
-0.0535834
-0.0721552
-0.0775683
-0.0790665
-0.0785881
-0.0796932
-0.0771819
-0.074603
-0.0725133
-0.0629908
0.0641254
0.0667562
0.0715525
0.0769763
0.08004
0.0844464
0.0913872
0.0930251
0.0924958
0.07878
0.0945138
0.0572808
0.0347068
-0.0507151
0.0495624
-0.0591262
-0.223154
-0.249321
-0.696773
-1.19705
0.722267
0.486263
0.664645
0.515433
0.106504
-0.0190795
0.135454
0.172994
0.045816
-0.0204834
-0.0500006
-0.0566885
-0.0690458
-0.0682913
-0.0770775
-0.0765684
-0.0731596
-0.069719
-0.0673809
-0.0692341
0.0652708
0.0654086
0.0649816
0.0674564
0.0710126
0.0768018
0.08442
0.063986
0.0652564
0.0587444
0.00869212
0.110752
0.0430203
0.0159636
0.140766
0.0561147
-0.545978
-0.739967
-0.771533
-0.522422
-0.0118542
-0.606639
0.886922
0.349319
0.629399
0.559478
0.262015
0.0972207
0.0669061
-0.0323567
-0.0483026
-0.078489
-0.078604
-0.0758104
-0.0748144
-0.073418
-0.0711232
-0.0682361
-0.0660256
-0.0725576
0.0689195
0.0650659
0.0674031
0.070577
0.0726754
0.0759008
0.0767569
0.0741922
0.0717895
0.0822806
0.0844728
0.0791353
0.0476794
-0.135335
-0.237639
-0.160018
-0.316453
-0.548595
-0.496051
-0.100271
0.948148
1.07541
0.915348
0.776977
0.464062
0.00792705
-0.096551
0.123767
0.0494952
-0.0406618
-0.0610098
-0.0818894
-0.090441
-0.0856362
-0.080532
-0.0761926
-0.0719555
-0.0688956
-0.0675659
-0.0650505
0.0594085
0.0706725
0.0717678
0.0731557
0.0750955
0.0767875
0.074108
0.0627467
0.0570433
0.0762068
0.165406
0.0878232
0.0841047
0.124665
0.079644
0.033775
-0.511002
-0.478323
-0.135091
0.222499
0.882932
0.75583
-0.122424
-0.151108
0.114324
0.266264
0.227456
0.0410528
-0.021124
-0.0744232
-0.104176
-0.125196
-0.112604
-0.0952595
-0.0856497
-0.080538
-0.0749134
-0.0709072
-0.0691563
-0.0670185
0.0582116
0.0708016
0.0714976
0.0677047
0.0676629
0.0671396
0.0639127
0.0648991
0.0710559
0.101792
0.125273
0.0843442
0.0215623
-0.142007
-0.0730192
0.0263162
0.257981
0.496299
1.04973
1.1643
1.40773
0.938616
-0.747609
-0.228909
-0.212766
-0.227436
-0.242101
-0.0709839
-0.140373
-0.160713
-0.100832
-0.13282
-0.108575
-0.0959882
-0.085933
-0.0771896
-0.0713401
-0.0688495
-0.066328
-0.0718314
0.053327
0.0578679
0.0590168
0.0595997
0.063769
0.0663266
0.0657889
0.0690466
0.0965152
0.137133
0.0818348
0.0915995
0.21929
0.30739
0.367143
0.293301
0.287711
0.595577
0.963758
1.00079
0.462054
0.427183
-0.126498
-0.314785
-0.404915
-0.286064
-0.200095
-0.256743
-0.18726
-0.173569
-0.14381
-0.131742
-0.0986746
-0.0931561
-0.0828665
-0.071334
-0.0642434
-0.0545892
-0.0509692
-0.0510385
0.0432921
0.0408449
0.0421542
0.0448762
0.0481809
0.052771
0.0583332
0.068917
0.0719498
0.0669405
0.146508
0.175136
0.150958
0.187149
0.452103
0.302096
0.354671
0.442719
0.699585
0.85273
-0.1282
-0.309243
-0.641224
-0.598685
-0.727775
-0.698523
-0.26929
-0.225934
-0.213222
-0.196678
-0.113641
-0.106039
-0.0945957
-0.0731814
-0.063978
-0.0551527
-0.0484711
-0.0469358
-0.0469869
-0.049737
0.0505648
0.0514819
0.0483994
0.045637
0.0426725
0.0399389
0.0502739
0.061209
0.0758039
0.0849094
0.130038
0.234652
0.26983
0.239509
0.198893
0.216762
0.407101
0.198507
0.763441
0.85967
-1.14906
-1.02779
-0.846269
-0.816221
-0.655083
-0.445661
-0.270041
-0.202183
-0.169512
-0.137697
-0.0989194
-0.0705598
-0.0666441
-0.0587346
-0.0526559
-0.0480985
-0.0440973
-0.039621
-0.0366974
-0.0355828
0.0491679
0.0513052
0.0562854
0.0576107
0.0595104
0.0583682
0.0646084
0.0717606
0.0740776
0.0478345
0.101202
-0.0293856
0.0610855
0.242273
0.419362
0.532711
0.437389
0.304936
0.310639
0.892872
-1.37695
-0.952427
-0.989703
-0.827292
-0.301209
-0.183086
-0.202799
-0.260293
-0.115764
-0.094408
-0.0208504
-0.0227608
-0.0284679
-0.0458596
-0.0383941
-0.0348388
-0.032304
-0.0297944
-0.0302372
-0.0269641
0.035442
0.0394821
0.0424261
0.0446233
0.0490467
0.0588319
0.0698385
0.0831306
0.0987311
0.0957554
0.0994879
0.114998
0.155519
0.0864962
0.0625095
0.269734
0.0070776
-0.107547
-0.466551
-0.431454
-0.382675
-0.0299949
0.128392
0.188295
-0.132244
-0.145053
-0.185992
-0.0900856
-0.00465673
-0.0333596
-7.08219e-05
0.000759376
-0.000742765
-0.00679658
-0.0130747
-0.0106115
-0.0149597
-0.0148847
-0.0136079
-0.0059155
0.0199691
0.0143846
0.0192277
0.0249243
0.0344528
0.0465657
0.0737567
0.105519
0.159044
0.115015
0.160346
0.0877997
0.123393
0.222982
0.225131
0.320087
0.0279044
0.132272
-2.23572
-2.61188
-0.108525
-0.425358
0.919143
0.673847
0.520068
0.419768
0.0484077
-0.0107431
-0.0403665
-0.0083918
0.0268154
0.0128234
0.0247387
0.0202251
0.0201003
0.0177577
0.013477
0.0143231
0.0111781
0.0187105
0.00586895
0.00438708
0.00374892
0.00749506
0.0200892
0.0298413
0.0451509
0.072413
0.0937111
0.0962742
0.126161
0.13718
0.150532
0.139319
0.233094
0.350663
0.119934
0.0824196
-0.990167
-1.61962
-0.47223
-0.341358
0.215007
0.260845
0.362132
0.261871
0.105221
0.139591
0.0877115
0.0756125
0.0387028
0.0286154
0.0368384
0.0400217
0.0354338
0.0360922
0.0311271
0.0328761
0.0289414
0.0214326
0.00675905
0.0111735
0.0113673
0.0117201
0.0140652
0.0172018
0.0194286
0.0370513
0.051918
0.057638
-0.00281233
-0.0172209
0.000254453
0.123821
0.278541
0.404161
0.391041
0.357286
0.0470243
0.149704
-0.825597
-1.01973
-0.38259
-0.0833983
0.242911
0.357476
0.379296
0.367446
0.229284
0.144771
0.0483183
0.0592673
0.059316
0.0667482
0.0488312
0.0358131
0.027988
0.0223941
0.0167842
0.0201677
-0.00832422
-0.00292793
0.00233435
0.0051483
0.00557533
0.00455559
9.66124e-05
-0.0046394
-0.00508179
-0.00767818
-0.0423621
-0.0475212
-0.06393
-0.146733
-0.210972
-0.158673
-0.220453
0.140512
-0.995805
-1.78021
0.35866
-0.0143513
0.529331
0.411703
0.536953
0.439125
0.253232
0.182844
0.229613
0.184777
0.104257
0.110655
0.0746003
0.0541386
0.0378458
0.0253638
0.0192327
0.0173803
0.0158578
0.0247466
-0.0343795
-0.0292508
-0.0298805
-0.0308818
-0.0342139
-0.0352184
-0.0401164
-0.0627454
-0.0448128
-0.0494915
-0.0749314
-0.0317119
-0.0293521
-0.0753146
-0.249697
-0.466175
-0.850063
-0.889026
-1.07906
-0.785993
0.296278
0.288506
0.862449
0.701971
0.800357
0.550725
0.346138
0.277408
0.250832
0.125114
0.088272
0.0892286
0.0608563
0.0493205
0.0406992
0.0372648
0.0371015
0.0386165
0.0413767
0.0322187
-0.0551028
-0.066703
-0.068288
-0.069116
-0.0697891
-0.069338
-0.0703853
-0.0669952
-0.0960098
-0.0826211
-0.0652345
-0.0877334
-0.142298
-0.0245099
-0.0432635
-0.100972
-0.26225
-0.320569
-0.217872
-0.184254
0.337618
0.407165
0.50101
0.521964
0.448703
0.342972
0.20846
0.141408
0.0837785
0.0604588
0.0870639
0.0588681
0.0406803
0.0411814
0.0478605
0.0498569
0.0506677
0.0498668
0.0453084
0.041415
-0.0619835
-0.0657607
-0.0718907
-0.0764368
-0.0785006
-0.0805954
-0.0940475
-0.0965398
-0.102756
-0.0763764
-0.0453435
0.00698301
-0.0660588
-0.0468734
0.00257118
0.110663
0.261327
0.360055
0.669254
0.628521
-0.34404
-0.596081
-0.535642
-0.513349
-0.488138
-0.359655
-0.119569
0.0607972
0.12738
0.0586922
0.0261619
-0.0107731
0.00143873
0.0209686
0.0301115
0.0345944
0.0377233
0.0394376
0.0404501
0.0307921
-0.0527915
-0.0491745
-0.0500603
-0.0549756
-0.0627731
-0.0717805
-0.0985043
-0.0872986
-0.0943939
-0.101463
-0.0805383
-0.145611
-0.169472
-0.24166
-0.254782
-0.31952
-0.0591435
-0.15469
0.840481
0.385609
-0.02857
-0.276797
-0.365399
-0.141863
-0.588161
-0.309701
-0.0914522
-0.0534643
-0.0504502
0.00132851
-0.00795354
-0.0502451
-0.0152641
0.012064
0.0173995
0.0161613
0.0169067
0.018173
0.0196
0.0355832
-0.0671225
-0.058348
-0.0571051
-0.0602839
-0.0676279
-0.0759268
-0.0853981
-0.0950267
-0.0922535
-0.0838446
-0.0626812
-0.0293967
-0.0298614
-0.180201
-0.344516
-0.503149
-0.56089
-0.563266
-0.254983
-0.122256
0.457692
0.561266
0.252037
0.269083
0.158155
0.0376399
-0.0205831
-0.078467
-0.0373881
-0.0205748
-0.0616121
-0.0316731
-0.00492178
0.00816329
0.0150952
0.0176008
0.0228958
0.0260197
0.0331624
0.0433138
-0.093388
-0.102702
-0.101377
-0.0982792
-0.0974382
-0.0967869
-0.103198
-0.0808754
-0.0667406
-0.054648
-0.0224652
-0.0189467
0.0617682
0.0630041
-0.0563798
-0.18629
-0.0773574
-0.0262022
0.234819
0.329478
0.0444031
0.198949
0.0991728
0.0502192
-0.0564814
-0.217378
-0.231787
-0.17143
-0.0537769
-0.0225121
-0.0408178
-0.0275504
0.0200109
0.0327009
0.0446638
0.0508922
0.058802
0.0603854
0.0593115
0.0523105
-0.0910677
-0.107333
-0.113966
-0.116128
-0.112588
-0.105992
-0.103031
-0.0799491
-0.0500831
-0.00814652
0.04007
0.0566076
0.106878
0.308707
0.558352
0.835702
1.26469
1.3112
1.33538
1.31316
-0.575718
-0.793461
-1.01031
-0.991628
-0.633156
-0.518907
-0.340975
-0.145116
-0.0732469
-0.0537782
-0.00635005
0.00321037
0.0213372
0.0454543
0.0588011
0.0654069
0.0707555
0.0710287
0.0676818
0.060375
-0.0841353
-0.0814942
-0.0804233
-0.0787564
-0.077561
-0.0739734
-0.0719216
-0.062208
-0.0522133
-0.0258061
-0.0197779
0.101433
0.234585
0.368658
0.599668
0.928977
1.18974
1.2753
1.23251
1.05821
0.0558147
-0.430625
-0.744952
-0.699108
-0.430353
-0.247044
-0.119418
-0.0549936
-0.0732144
-0.0513774
-0.00649931
0.0194633
0.0326675
0.0415083
0.0454343
0.0483574
0.0517746
0.0525973
0.0525144
0.0509846
-0.0912346
-0.0773749
-0.0703579
-0.0657781
-0.0654741
-0.0649296
-0.0627223
-0.0556791
-0.0471204
-0.0229079
0.00108314
0.0220931
0.00755826
-0.0370268
-0.0431464
-0.0359993
-0.141874
-0.144908
-0.171642
-0.069338
0.875029
0.993626
0.723541
0.633546
0.533921
0.41414
0.267883
0.0875308
0.0136959
0.028074
0.0253014
0.0366055
0.0423337
0.0466455
0.0447661
0.0418706
0.037927
0.0371274
0.0411841
0.0561066
-0.117533
-0.111102
-0.110436
-0.102559
-0.101659
-0.0980509
-0.0898222
-0.0715428
-0.0709459
-0.0155804
0.0217705
0.0395296
0.0116513
-0.0643151
-0.241776
-0.291487
-0.767009
-0.721767
-0.767425
-0.641884
0.751165
0.929591
0.996324
0.822762
0.735678
0.496218
0.302408
0.111053
0.0682036
0.0369239
0.0605472
0.0737617
0.0800394
0.0807657
0.0749141
0.0730407
0.0728841
0.0712417
0.073303
0.0727873
-0.129581
-0.147533
-0.154272
-0.146684
-0.140529
-0.130806
-0.118146
-0.0874103
-0.060992
-0.0044303
0.0696347
0.110031
0.234969
0.433434
0.462677
0.521997
0.485431
0.344173
0.206406
0.0991819
-0.232868
-0.262321
-0.144322
-0.195484
-0.160138
-0.0990126
-0.00924048
-0.0353209
0.0208173
0.043643
0.108402
0.112677
0.112139
0.109375
0.109767
0.111502
0.112546
0.113192
0.109687
0.0947892
-0.117101
-0.131362
-0.135149
-0.134074
-0.127277
-0.116372
-0.104822
-0.071091
-0.043403
-0.00448005
0.0154646
0.123769
0.293601
0.517752
0.752411
0.960323
1.17337
1.21094
1.1325
0.758924
-0.192708
-0.818098
-0.960192
-0.871331
-0.651497
-0.293826
-0.0623685
0.0775055
0.121597
0.10359
0.126286
0.127878
0.128612
0.120094
0.116689
0.113502
0.111603
0.103362
0.099294
0.0910701
-0.112359
-0.0984242
-0.0905919
-0.0893154
-0.088639
-0.082623
-0.0787737
-0.0602907
-0.0400397
-0.00499737
-0.0700073
-0.0374941
-0.0506472
-0.0464405
-0.0045453
0.119615
0.0561648
0.183196
0.08179
-0.0906782
0.390948
0.298799
0.384206
0.421542
0.382666
0.380848
0.334354
0.230392
0.15822
0.164665
0.159205
0.149765
0.133803
0.109262
0.0949122
0.0811271
0.0757477
0.0717851
0.0724045
0.0811089
-0.124009
-0.106924
-0.1019
-0.102856
-0.107365
-0.105413
-0.106925
-0.108641
-0.092448
-0.0688546
-0.121546
-0.10486
-0.174742
-0.280003
-0.483636
-0.673616
-0.79931
-0.729497
-0.522293
-0.0777386
0.745155
1.30057
1.42215
1.31554
1.08622
0.826645
0.699474
0.424406
0.296967
0.26338
0.216478
0.172607
0.142793
0.120786
0.104254
0.0910414
0.0875438
0.0887016
0.0948257
0.0999788
-0.159024
-0.165297
-0.167487
-0.169576
-0.168795
-0.165944
-0.158914
-0.15317
-0.164593
-0.14843
-0.12917
-0.0636058
0.0382516
0.112917
0.146582
0.169861
0.224709
0.252527
0.431496
0.561487
0.309837
0.600972
0.72572
0.300124
0.323607
0.247285
0.276379
0.293241
0.265305
0.22139
0.20058
0.183445
0.165856
0.154542
0.149747
0.144311
0.141125
0.133744
0.125957
0.119344
-0.17013
-0.190978
-0.199727
-0.201338
-0.196658
-0.192125
-0.183464
-0.175205
-0.161195
-0.120015
-0.078641
-0.0304754
0.118829
0.334839
0.565663
0.883925
1.00953
1.31418
1.15593
0.641365
-0.141454
-0.549317
-0.757488
-0.843392
-0.709455
-0.507629
-0.264173
-0.0534702
0.105665
0.181129
0.167264
0.158988
0.143246
0.14111
0.149392
0.144238
0.144822
0.142613
0.136593
0.121685
-0.15193
-0.158371
-0.158031
-0.158106
-0.15894
-0.170321
-0.166022
-0.155609
-0.18669
-0.197894
-0.227113
-0.269038
-0.311186
-0.415295
-0.403943
-0.184157
-0.271175
0.360195
0.158634
-0.0699853
-0.13024
-0.156346
-0.187084
-0.0637928
-0.0326938
0.0935337
0.143197
0.160774
0.189646
0.151506
0.119365
0.123057
0.119849
0.106961
0.121657
0.107642
0.10164
0.100758
0.100258
0.106233
-0.15045
-0.131728
-0.127584
-0.132802
-0.142299
-0.158444
-0.17703
-0.196523
-0.220622
-0.265408
-0.343596
-0.483217
-0.704734
-1.01438
-1.30373
-1.50438
-1.65926
-1.43353
-1.10948
-0.473682
0.0532747
0.918696
1.15147
1.20444
1.1152
0.966889
0.765477
0.527328
0.337183
0.237841
0.196044
0.157245
0.126067
0.109161
0.0975114
0.0825236
0.0735928
0.0713537
0.0768581
0.0889709
-0.180332
-0.177664
-0.177811
-0.181922
-0.190341
-0.202017
-0.221679
-0.262653
-0.269934
-0.320333
-0.371379
-0.443893
-0.572683
-0.75741
-0.927807
-1.0215
-1.07134
-0.74526
-0.434383
-0.0848152
-0.039251
0.532257
0.871052
0.992496
0.806512
0.651727
0.485619
0.367725
0.277542
0.244689
0.236454
0.195019
0.163967
0.143043
0.127181
0.119386
0.11401
0.109559
0.107841
0.107246
-0.204528
-0.222917
-0.235208
-0.242729
-0.24866
-0.252701
-0.256548
-0.268641
-0.289442
-0.291482
-0.305847
-0.272498
-0.113677
0.113251
0.366925
0.582911
0.797752
0.992452
0.867811
0.546501
-0.00448276
-0.360923
-0.516695
-0.52591
-0.468271
-0.310326
-0.170784
-0.00626777
0.117532
0.172986
0.180932
0.182499
0.160014
0.154624
0.152226
0.15185
0.149886
0.147132
0.13761
0.11887
-0.193257
-0.200719
-0.207372
-0.210698
-0.217521
-0.221306
-0.217583
-0.224028
-0.248107
-0.257149
-0.246567
-0.203076
-0.111939
0.0253962
0.214741
0.413446
0.624533
0.718973
0.663869
0.432485
0.33854
-0.0561489
-0.288883
-0.24642
-0.220418
-0.114716
-0.0167994
0.0443819
0.0814952
0.105042
0.110812
0.110619
0.109488
0.11037
0.109187
0.10892
0.110571
0.111306
0.107466
0.0951164
-0.16297
-0.153462
-0.146515
-0.145866
-0.15443
-0.167752
-0.185594
-0.201847
-0.239642
-0.294577
-0.364974
-0.505417
-0.701392
-0.927354
-1.13342
-1.30351
-1.27253
-1.15245
-0.68959
-0.124558
0.562541
1.02995
1.21801
1.21388
1.12211
0.912699
0.712684
0.481935
0.276126
0.150399
0.106286
0.0720499
0.0603013
0.056679
0.0554007
0.047048
0.0426437
0.0427126
0.0481691
0.0657902
-0.158004
-0.139622
-0.14092
-0.150603
-0.167109
-0.185269
-0.212123
-0.244499
-0.286704
-0.36117
-0.469904
-0.600853
-0.859434
-1.10617
-1.32384
-1.50405
-1.5753
-1.4365
-1.06685
-0.0542707
0.289173
0.786269
1.11135
1.18222
1.00844
0.836848
0.597039
0.421354
0.273201
0.173181
0.114981
0.0744045
0.0799489
0.0591677
0.0494372
0.0428782
0.0421572
0.0416904
0.0489857
0.0631188
-0.176299
-0.194813
-0.202319
-0.209028
-0.214869
-0.220557
-0.239977
-0.263356
-0.260943
-0.280487
-0.294449
-0.250696
-0.165909
-0.0898056
-0.00305652
0.0644131
0.0587431
0.0805509
-0.0347546
0.0445168
-0.144843
-0.337122
-0.472101
-0.524814
-0.510445
-0.383801
-0.271052
-0.156878
-0.0593651
0.0271313
0.0626567
0.0721864
0.0838938
0.0819446
0.085271
0.0885565
0.0918619
0.0932549
0.0890041
0.0843338
-0.176486
-0.200649
-0.208072
-0.207728
-0.203387
-0.196356
-0.191149
-0.190268
-0.179631
-0.152937
-0.100598
0.0112291
0.189359
0.370554
0.574738
0.766856
0.896324
0.979978
0.703951
0.19196
-0.211401
-0.776591
-1.12255
-1.22665
-1.10913
-0.897268
-0.630825
-0.381312
-0.175008
-0.0582262
-0.0201978
0.0268389
0.0523206
0.0657821
0.0796536
0.0899491
0.0975586
0.101592
0.0977326
0.07976
-0.127809
-0.116302
-0.112168
-0.109685
-0.110571
-0.105806
-0.106176
-0.0996055
-0.0949366
-0.104961
-0.1025
-0.159345
-0.223489
-0.32126
-0.359207
-0.392589
-0.372197
-0.320994
-0.331867
0.0104267
0.0571154
0.13436
0.216161
0.302861
0.271063
0.179266
0.0984198
0.032111
-0.0127276
-0.0529365
-0.025066
-0.00207288
0.00794075
0.0187677
0.0256175
0.0319805
0.0377385
0.0430864
0.0475167
0.0528731
-0.095341
-0.067041
-0.0555523
-0.053207
-0.0584454
-0.0636288
-0.0742035
-0.0880767
-0.104924
-0.147477
-0.168163
-0.306463
-0.543169
-0.783508
-0.999714
-1.16461
-1.26529
-1.06933
-0.640107
-0.15528
0.291391
0.750767
1.09611
1.23989
1.07043
0.8647
0.642175
0.426308
0.21099
0.0962598
0.0658108
0.0398125
0.0240712
0.00689267
0.00399035
0.00307008
0.00459265
0.00946996
0.01943
0.0385021
-0.119682
-0.114565
-0.112099
-0.110026
-0.110042
-0.110733
-0.111987
-0.114431
-0.120733
-0.127148
-0.109517
-0.0488142
-0.00361434
0.0668212
0.114342
0.141773
0.0977422
0.0988349
0.152741
0.0763791
0.0646683
0.0540336
0.00411675
-0.120266
-0.165139
-0.0769
-0.00448247
0.0423065
0.0728849
0.0939664
0.0743747
0.0516283
0.070578
0.0634217
0.0587172
0.0561379
0.0531788
0.0514291
0.0463388
0.048851
-0.134579
-0.162364
-0.170004
-0.167035
-0.155367
-0.13886
-0.11807
-0.101814
-0.0497641
0.0203157
0.108958
0.327971
0.610295
0.873005
1.02574
1.18674
1.2374
1.07887
0.663631
0.114592
-0.254326
-0.763889
-1.18087
-1.33964
-1.23487
-1.03428
-0.770118
-0.506188
-0.247052
-0.0844754
-0.0230935
0.0195324
0.0540386
0.0674436
0.0750528
0.0833147
0.0915294
0.0961283
0.0907298
0.0735701
-0.106387
-0.118746
-0.119969
-0.113557
-0.0996472
-0.0809588
-0.0572503
-0.0256451
0.0111768
0.0716759
0.11318
0.149234
0.192724
0.197994
0.207583
0.173233
0.0943913
0.203716
0.0116137
-0.222141
-0.312173
-0.507804
-0.564669
-0.484692
-0.333187
-0.312543
-0.195668
-0.165672
-0.110189
-0.0748484
-0.054383
-0.0136268
0.0184529
0.0331819
0.0449741
0.0506615
0.0586352
0.0657702
0.0680325
0.0590436
-0.0673796
-0.0450021
-0.0333908
-0.0273916
-0.0257981
-0.0228856
-0.0166891
-0.00624099
-0.019268
-0.0379978
-0.0869167
-0.24009
-0.470657
-0.712676
-0.950006
-1.15086
-1.33805
-1.13508
-0.723811
-0.393369
-0.0877016
0.332098
0.709652
0.881449
0.837247
0.738264
0.610392
0.440666
0.242417
0.11109
0.0662448
0.0562026
0.0368299
0.0294012
0.0227664
0.0118191
0.00443582
0.0046373
0.0111046
0.0327044
-0.0730998