/*--------------------------------*- C++ -*----------------------------------*\
| =========                 |                                                 |
| \\      /  F ield         | OpenFOAM: The Open Source CFD Toolbox           |
|  \\    /   O peration     | Version:  v2106                                 |
|   \\  /    A nd           | Website:  www.openfoam.com                      |
|    \\/     M anipulation  |                                                 |
\*---------------------------------------------------------------------------*/
FoamFile
{
    version     2.0;
    format      ascii;
    arch        "LSB;label=32;scalar=64";
    class       volVectorField;
    location    "0";
    object      U;
}
// * * * * * * * * * * * * * * * * * * * * * * * * * * * * * * * * * * * * * //

dimensions      [0 1 -1 0 0 0 0];

internalField   nonuniform List<vector> 
11644
(
(0.000178025 0.000146005 1.56437e-20)
(0.000222696 0.000272977 4.31407e-20)
(0.000174685 0.000311984 2.31461e-20)
(-7.51569e-05 0.000278666 0)
(-7.42185e-05 0.000411076 0)
(1.76717e-05 0.00042609 0)
(0.00010076 0.000293864 0)
(0.0001072 2.01718e-05 0)
(0.000153639 -0.000506351 0)
(0.000156328 -0.00132488 0)
(0.000581777 -0.0024024 0)
(0.00065952 -0.00388842 0)
(0.000650377 -0.00575433 0)
(0.00118824 -0.00755214 0)
(0.00119247 -0.00959837 0)
(0.00142831 -0.0111712 0)
(0.00193197 -0.0117765 0)
(0.00313229 -0.0122852 0)
(0.00376874 -0.0134882 0)
(0.0018859 -0.0134856 2.01033e-30)
(-0.000632399 -0.0109567 -1.85704e-30)
(-0.00257454 -0.00668571 0)
(-0.000467413 -0.00339613 0)
(0.0025113 -0.00330907 0)
(0.00220462 -0.00369634 0)
(0.000997033 -0.00364377 0)
(0.000744258 -0.00441428 0)
(0.000604686 -0.00473424 0)
(0.000189569 -0.00497355 0)
(-1.24724e-05 -0.0052033 0)
(0.000103246 -0.00518935 0)
(1.59502e-05 -0.00498303 0)
(1.0335e-05 -0.00459593 0)
(6.00641e-06 -0.00408446 0)
(1.39284e-06 -0.00353367 0)
(-0.000143259 -0.00284964 0)
(-0.000138968 -0.00220965 0)
(-0.000343494 -0.00157885 0)
(-0.00039525 -0.00106961 0)
(-0.000225126 -0.000386015 3.03315e-21)
(5.4968e-05 8.22512e-05 2.00942e-20)
(-8.98679e-05 9.48002e-05 1.86137e-20)
(-8.15429e-05 8.36755e-05 9.99682e-21)
(-5.8527e-06 6.29565e-05 0)
(0.000195028 -0.000211389 0)
(0.000226658 -0.000574854 0)
(0.00037783 -0.00101888 0)
(0.000696894 -0.00179706 0)
(0.00114299 -0.00286548 0)
(0.00156529 -0.00441824 0)
(0.00171191 -0.00662041 0)
(0.00284531 -0.00942109 0)
(0.00346428 -0.0125364 0)
(0.00385538 -0.0163538 0)
(0.00433031 -0.0201248 0)
(0.00347056 -0.0229604 -5.15869e-22)
(0.00404484 -0.0256558 6.1091e-21)
(0.0037277 -0.0272457 2.67167e-20)
(0.00255992 -0.0251864 -2.19929e-20)
(0.000891825 -0.0204479 -2.17984e-20)
(0.000328942 -0.0165442 7.26217e-20)
(-0.000860969 -0.0160119 -4.47325e-20)
(-0.00202265 -0.016129 -1.10146e-20)
(-0.000572433 -0.0136598 -5.31565e-21)
(0.00116385 -0.0113966 2.3483e-22)
(0.00100455 -0.0108116 0)
(0.000845291 -0.0105955 0)
(0.000184571 -0.0105646 0)
(-0.000108346 -0.0104299 0)
(-0.000562937 -0.00990368 0)
(-0.00114305 -0.00907388 0)
(-0.00133964 -0.00815007 0)
(-0.0016431 -0.0070613 0)
(-0.00168016 -0.0059827 0)
(-0.00175437 -0.00479551 0)
(-0.001718 -0.00381913 0)
(-0.00158964 -0.00288104 0)
(-0.00159604 -0.00209454 0)
(-0.00153053 -0.00127942 0)
(-0.00137395 -0.000484774 0)
(0.00109547 -0.000274754 0)
(0.000838151 -0.000517334 0)
(0.000448434 -0.000687997 0)
(0.000556246 -0.000936574 0)
(0.000764667 -0.00145137 1.83557e-20)
(0.00107461 -0.00200799 0)
(0.00145797 -0.00272563 0)
(0.00205962 -0.00361998 0)
(0.00278055 -0.00481961 0)
(0.00381669 -0.00630808 0)
(0.00520622 -0.00836634 0)
(0.0061298 -0.0112072 0)
(0.00798803 -0.0146184 -6.30649e-22)
(0.00890926 -0.0185739 -4.46989e-21)
(0.00811968 -0.0235144 1.18478e-19)
(0.00843712 -0.0281925 7.89189e-20)
(0.00679559 -0.0325225 5.30511e-20)
(0.00152929 -0.0323957 -3.71236e-19)
(-0.00225826 -0.029043 1.00871e-19)
(-0.00343376 -0.0261426 8.20917e-19)
(-0.00271642 -0.0239294 -7.43001e-19)
(-0.00172624 -0.0214288 -6.17802e-20)
(-0.00263569 -0.0198563 2.46152e-19)
(-0.00344158 -0.0185656 -1.95234e-19)
(-0.0021843 -0.0153141 6.8256e-20)
(-0.00061604 -0.0146258 -1.17165e-19)
(-0.00150232 -0.0137979 5.70781e-21)
(-0.00194891 -0.0125576 2.56239e-22)
(-0.00258275 -0.011358 0)
(-0.00298783 -0.00994054 0)
(-0.00330822 -0.00839874 0)
(-0.00362382 -0.00671752 0)
(-0.00352608 -0.00532767 0)
(-0.00323126 -0.00412722 0)
(-0.00303604 -0.00317652 0)
(-0.00248077 -0.00249776 0)
(-0.00229345 -0.00188581 0)
(-0.00195158 -0.00123956 0)
(-0.00173757 -0.000631157 0)
(-0.00157909 -0.000124852 0)
(0.00152575 -0.000185512 0)
(0.00167688 -0.000185249 0)
(0.00183848 -0.000598323 0)
(0.00211611 -0.00104044 0)
(0.00205944 -0.00159764 0)
(0.00231531 -0.00211425 0)
(0.00261635 -0.00277572 0)
(0.0033111 -0.00345418 0)
(0.00415889 -0.00418701 0)
(0.0055502 -0.00526499 0)
(0.00747765 -0.00613933 -6.63151e-23)
(0.00962563 -0.00785132 -9.35208e-21)
(0.0103957 -0.0105198 -7.64449e-20)
(0.0119613 -0.0147903 3.95495e-19)
(0.0136235 -0.0217011 -2.88077e-19)
(0.0107629 -0.0274825 -7.70208e-19)
(0.00851689 -0.0327699 3.70955e-19)
(0.00238336 -0.0350604 7.07824e-19)
(-0.00230703 -0.0337347 -4.02489e-19)
(-0.00296277 -0.0327514 2.09399e-19)
(-0.00358435 -0.0293567 -2.65419e-19)
(-0.00294929 -0.0255823 6.17776e-19)
(-0.0044791 -0.0213968 -8.00633e-19)
(-0.00471095 -0.0184211 7.06728e-21)
(-0.00549365 -0.0167465 3.3508e-19)
(-0.00506615 -0.0149014 2.80376e-19)
(-0.00488056 -0.0142407 -4.10312e-19)
(-0.00639481 -0.0125999 8.83343e-20)
(-0.00751128 -0.0103537 1.06171e-20)
(-0.00768091 -0.00813018 -5.28182e-23)
(-0.00703378 -0.00602823 0)
(-0.00616032 -0.00421819 0)
(-0.00535758 -0.00275707 0)
(-0.00451266 -0.00172705 0)
(-0.00369611 -0.00106548 0)
(-0.00306006 -0.000447006 0)
(-0.00254991 -0.00014302 0)
(-0.00216699 0.000211681 0)
(-0.0019054 9.76553e-05 0)
(-0.00187855 0.00017458 0)
(0.00150497 0.00020987 0)
(0.00157971 -0.000742502 0)
(0.00219577 -0.000527926 0)
(0.00239765 -0.000891929 0)
(0.00274711 -0.000996334 0)
(0.00301822 -0.00121429 0)
(0.00358276 -0.0013919 0)
(0.00413879 -0.00167878 0)
(0.00529829 -0.00180254 0)
(0.00657448 -0.00176644 7.53825e-21)
(0.00693462 -0.00275173 -4.77287e-21)
(0.00791627 -0.00355204 -2.15618e-20)
(0.00981386 -0.00657313 -7.59346e-20)
(0.0138643 -0.0119452 4.67366e-19)
(0.0171467 -0.0199849 -7.57934e-19)
(0.0154642 -0.0263061 -6.1686e-19)
(0.0118655 -0.0334652 7.59548e-19)
(0.0094522 -0.0376972 8.35244e-19)
(0.00809919 -0.0364489 4.34276e-19)
(0.00443062 -0.0369706 -7.53929e-19)
(0.00188903 -0.0342661 1.96357e-19)
(-0.00172668 -0.0311933 -7.62919e-19)
(-0.00498818 -0.0258176 1.06337e-19)
(-0.00734755 -0.0189993 -1.28415e-19)
(-0.010547 -0.0185629 -1.38849e-19)
(-0.0107046 -0.0180154 8.0425e-19)
(-0.0117799 -0.0155096 -5.01798e-19)
(-0.0126992 -0.0124796 -1.84991e-20)
(-0.0122388 -0.00950526 1.83225e-19)
(-0.0123463 -0.00608324 -1.8431e-20)
(-0.011154 -0.00364453 6.80684e-21)
(-0.00896578 -0.00205353 0)
(-0.0071063 -0.000781768 0)
(-0.00564482 0.000223749 0)
(-0.00434651 0.00083053 0)
(-0.00348482 0.00110599 0)
(-0.00281824 0.00123258 0)
(-0.00208425 0.000696768 0)
(-0.00169659 0.000999436 0)
(-0.00169726 -0.000283333 0)
(0.00205807 -0.000786804 0)
(0.00210749 -0.000218659 0)
(0.00217425 -0.000827283 0)
(0.00258542 -0.000884659 0)
(0.00284518 -0.000698207 0)
(0.00328977 -0.000743628 0)
(0.00396526 -0.000785662 0)
(0.00465197 -0.000398213 0)
(0.00564473 -0.000192277 -7.88567e-22)
(0.00593296 -0.000150275 -4.94143e-20)
(0.00699847 0.00060644 1.32429e-19)
(0.0078831 -0.00178752 -1.87537e-19)
(0.0136705 -0.000195024 -2.02575e-19)
(0.0132923 -0.00484774 1.3732e-19)
(0.0166906 -0.0178278 3.72873e-21)
(0.0249482 -0.0280357 7.3514e-19)
(0.0252643 -0.032661 -7.71087e-19)
(0.0175377 -0.0388635 1.91057e-18)
(0.0157209 -0.0427768 -1.51448e-18)
(0.00838613 -0.0407798 7.31297e-19)
(0.00237268 -0.0405577 -6.90998e-19)
(-0.00511473 -0.0381108 1.83683e-19)
(-0.00734173 -0.0287561 -5.41831e-19)
(-0.0139772 -0.026249 1.72809e-20)
(-0.0175232 -0.0225983 1.11449e-21)
(-0.0233936 -0.0205481 -1.47478e-19)
(-0.0232793 -0.0213902 5.4805e-20)
(-0.021936 -0.0160835 1.76789e-19)
(-0.0198837 -0.00855132 -2.29933e-20)
(-0.0157473 -0.00457894 8.42483e-20)
(-0.0132856 -0.00110653 -4.28432e-20)
(-0.0110103 0.000918836 6.06538e-21)
(-0.0081567 0.00173475 0)
(-0.00611118 0.00217863 0)
(-0.00443342 0.00242668 0)
(-0.00309752 0.00212019 0)
(-0.00210729 0.00185317 0)
(-0.00127212 0.00159877 0)
(-0.000708223 0.000354139 0)
(-0.000607646 0.00131013 0)
(0.00257712 0.000508956 0)
(0.00277959 0.00120216 0)
(0.00295727 0.000712662 0)
(0.00327324 0.00142982 0)
(0.00380989 0.000879329 0)
(0.00448045 0.00072 0)
(0.00512442 0.000404695 0)
(0.0059882 0.000439424 -1.78413e-21)
(0.00645928 0.000836478 9.52927e-20)
(0.00711801 0.000324373 5.20133e-20)
(0.00941259 -0.00216348 -3.1648e-19)
(0.0120519 0.000209253 -4.98822e-19)
(0.00930736 -0.00660057 3.89302e-19)
(0.0246058 -0.00645826 6.89291e-19)
(0.0152457 -0.00730515 -4.17198e-19)
(0.0106121 -0.0208257 1.79141e-20)
(0.0152206 -0.0404025 1.40845e-18)
(0.0198323 -0.0449332 2.52981e-19)
(0.013576 -0.0470549 -1.83663e-18)
(0.0059633 -0.0459589 -2.76135e-18)
(-0.00419839 -0.0477675 -3.17954e-18)
(-0.0124258 -0.0445432 1.03184e-18)
(-0.0177347 -0.0333573 -2.10102e-19)
(-0.0246396 -0.0234183 1.36537e-18)
(-0.0397231 -0.0264487 -1.68492e-19)
(-0.0434435 -0.0256602 5.47466e-19)
(-0.0320765 -0.0188766 -6.39821e-19)
(-0.0377806 -0.0133397 3.6441e-19)
(-0.0264256 -0.00668861 -1.09493e-19)
(-0.020328 0.000229324 -1.36178e-19)
(-0.0144183 0.00441042 2.86327e-22)
(-0.0108754 0.00631293 6.13117e-20)
(-0.00803101 0.0065951 -2.50224e-21)
(-0.00530534 0.00584119 0)
(-0.00331322 0.00519883 0)
(-0.00167848 0.00475859 0)
(-0.00046443 0.00337485 0)
(0.000248712 0.00280748 0)
(0.00070525 0.00147336 0)
(0.00103829 -0.000234685 0)
(0.00221903 0.00132473 0)
(0.00263161 -0.00177092 0)
(0.00287406 0.00054023 0)
(0.00307766 -0.000246395 0)
(0.00395361 0.000269677 0)
(0.00510993 0.000649805 0)
(0.00618156 0.00119908 0)
(0.00746807 0.002315 -3.34051e-20)
(0.00893391 0.00182988 7.19626e-20)
(0.0120726 0.000564663 -4.38008e-21)
(0.0164105 -0.00109487 -1.21574e-19)
(0.020581 -0.00776093 -1.89922e-19)
(0.013833 -0.00238155 -7.34212e-20)
(0.0190095 -0.00261124 -2.3136e-19)
(0.013683 -0.0212571 3.76344e-19)
(0.0111469 -0.0235959 4.85446e-19)
(0.0227379 -0.0271346 7.05034e-20)
(0.0251205 -0.0552181 4.11174e-19)
(0.0234299 -0.0632479 1.34352e-18)
(0.0182253 -0.0662611 -2.28356e-18)
(0.00313923 -0.0588524 -1.36711e-18)
(-0.0135148 -0.0455051 9.911e-19)
(-0.0291826 -0.0367853 7.29202e-19)
(-0.0310814 -0.0358557 4.89705e-19)
(-0.0495184 -0.0359006 -1.66157e-19)
(-0.0504843 -0.0195653 8.41984e-19)
(-0.0521312 -0.00828252 6.4869e-20)
(-0.0435287 -0.011409 -4.93972e-19)
(-0.0340264 0.00542103 5.05704e-19)
(-0.025713 0.00669589 1.49781e-19)
(-0.0155447 0.0110609 -6.54514e-20)
(-0.00890293 0.0125934 1.15702e-20)
(-0.00544178 0.0119658 1.59183e-20)
(-0.00284995 0.00983747 0)
(-0.000835957 0.00784581 0)
(0.000411726 0.00637864 0)
(0.00145825 0.00518721 0)
(0.00220193 0.00246053 0)
(0.00263916 0.00336172 0)
(0.00278051 -0.000398529 0)
(0.00182002 -0.00317684 0)
(0.00225498 0.00168319 0)
(0.00272415 8.46151e-05 0)
(0.00401999 0.000414749 0)
(0.00464249 0.00171453 0)
(0.00586068 0.00207071 0)
(0.00742307 0.0032329 2.56067e-21)
(0.00951366 0.004161 2.78506e-20)
(0.0142966 0.00229062 8.92614e-20)
(0.0214713 -0.000617518 -4.27821e-20)
(0.0279294 -0.00347326 -6.95827e-20)
(0.0334623 -0.00661854 -1.70227e-19)
(0.0366013 0.0217958 1.24686e-19)
(0.0361951 5.32805e-05 -4.68885e-19)
(0.031458 -0.0149172 1.16785e-19)
(0.0546766 -0.0165093 -3.48552e-19)
(0.0323502 -0.0334506 2.3892e-19)
(0.0388209 -0.0369279 -9.31861e-19)
(0.0348148 -0.069384 -5.02919e-19)
(0.0203263 -0.0756263 -4.42216e-20)
(-0.0048349 -0.0836675 -1.92685e-18)
(-0.0284262 -0.0735977 1.57473e-18)
(-0.0427074 -0.0528815 1.20681e-19)
(-0.0591416 -0.0454847 7.77078e-19)
(-0.0601761 -0.0246566 -6.39897e-19)
(-0.0506478 -0.0116035 -2.36578e-20)
(-0.0438159 -0.00274051 -6.41767e-19)
(-0.0408994 -0.00866555 -1.33359e-19)
(-0.033284 0.0127831 2.4185e-19)
(-0.0242869 0.012951 -1.51468e-19)
(-0.0149074 0.0158304 -4.75775e-21)
(-0.00634927 0.0155005 2.06754e-20)
(-0.000762778 0.0144683 -8.98181e-21)
(0.00147513 0.0120029 -4.4757e-21)
(0.0029494 0.0092262 0)
(0.00413816 0.00671663 0)
(0.00492888 0.00564051 0)
(0.00514641 0.00480299 0)
(0.00522439 0.000489471 0)
(0.0049773 0.004218 0)
(0.00100548 0.00282805 0)
(0.000306717 0.00326276 0)
(0.000782751 0.00292697 0)
(0.00112388 0.0058744 0)
(0.00251389 0.00560714 0)
(0.00431612 0.00609802 0)
(0.00680474 0.00767683 1.00107e-20)
(0.0128255 0.00687501 -1.9928e-20)
(0.0224134 0.00446442 2.7508e-20)
(0.0317542 0.00314731 -4.23341e-20)
(0.0404883 0.00145202 1.61399e-20)
(0.0508865 -0.00781318 -1.39968e-21)
(0.054285 0.00664075 1.19514e-20)
(0.0424238 0.000749637 1.59547e-20)
(0.0492547 -0.022094 -2.51758e-19)
(0.062007 0.0109987 -2.68118e-19)
(0.0671214 -0.023546 4.75022e-20)
(0.0767302 -0.0372144 4.12156e-20)
(0.0626845 -0.0659403 3.9181e-20)
(0.0430825 -0.10849 -4.88523e-19)
(-0.0105542 -0.123816 -5.30999e-19)
(-0.0561214 -0.102294 2.23516e-19)
(-0.0805963 -0.0678889 5.48494e-19)
(-0.0709424 -0.0354282 -5.25996e-19)
(-0.065633 -0.0130785 1.63178e-19)
(-0.0646528 -0.0167848 -1.24478e-18)
(-0.0583162 0.0330188 -8.27509e-21)
(-0.0330057 0.00799603 1.17867e-20)
(-0.0225474 0.017066 9.12692e-22)
(-0.0168818 0.0168784 3.64455e-20)
(-0.0111077 0.0154587 -8.87605e-20)
(-0.00361268 0.0145586 3.08688e-20)
(0.00349618 0.014239 1.22037e-20)
(0.00650524 0.0118598 -9.5621e-22)
(0.00674987 0.00863605 0)
(0.00665151 0.00635991 0)
(0.00642712 0.0031821 0)
(0.00649923 0.00306674 0)
(0.00658014 0.0013367 0)
(0.0072382 -0.00253221 0)
(-0.00174895 0.00468517 0)
(0.00017441 -0.00230182 0)
(-0.000112581 0.00392431 0)
(0.000629299 0.00378859 0)
(0.00220993 0.00487242 0)
(0.00379126 0.00741402 0)
(0.00676695 0.0102117 3.0944e-21)
(0.01486 0.0112307 -1.92773e-21)
(0.027038 0.010663 1.81922e-22)
(0.0379037 0.00945071 -4.71603e-21)
(0.044411 0.0148564 2.19453e-20)
(0.0586632 0.00974416 -3.03707e-20)
(0.0764885 -0.00640502 -1.37096e-20)
(0.0427177 0.0105702 5.60105e-20)
(0.0829439 0.012095 1.06179e-19)
(0.0552521 0.00874712 2.25264e-20)
(0.0674414 0.0172701 -3.30615e-20)
(0.113271 -0.00386394 1.27265e-20)
(0.150884 -0.0575223 2.05219e-20)
(0.131318 -0.173842 2.02126e-19)
(-0.00856753 -0.255461 -2.71795e-19)
(-0.147825 -0.167313 -1.48984e-18)
(-0.147505 -0.0541092 4.22391e-20)
(-0.115732 -0.00318558 -1.06621e-22)
(-0.0881319 0.00659407 7.76789e-21)
(-0.0608754 0.0149359 7.22889e-20)
(-0.0410636 0.0179108 -5.6033e-20)
(-0.0167784 0.040465 -6.32078e-20)
(-0.0134461 0.0213431 2.56713e-20)
(-0.0116006 0.0124225 -5.69565e-21)
(-0.0070235 0.0124666 4.28524e-21)
(-0.000998348 0.01296 -7.71772e-21)
(0.00545885 0.0121743 -1.35118e-21)
(0.0103814 0.0107449 -6.09085e-21)
(0.0108446 0.00786831 0)
(0.0102313 0.00608746 0)
(0.00985446 0.00411716 0)
(0.00914607 0.00062929 0)
(0.00932248 0.00398506 0)
(0.00820337 -0.00227646 0)
(-0.00429551 -0.0102865 0)
(-0.00547143 0.00355171 0)
(-0.00323005 0.00170207 0)
(-0.00171425 0.00353914 0)
(-0.00144224 0.00738279 0)
(-0.0013098 0.0108138 0)
(0.00226841 0.0140251 9.90141e-23)
(0.012057 0.015485 2.29738e-22)
(0.0226105 0.0180547 -3.00282e-21)
(0.0358419 0.0176374 4.51812e-21)
(0.0433205 0.0235352 2.52424e-21)
(0.0505312 0.0259988 -5.85934e-21)
(0.0524686 0.0187792 1.91664e-21)
(0.0899068 0.028735 1.09289e-20)
(0.0826802 0.033189 -7.26598e-21)
(0.0857653 0.0508755 7.85153e-20)
(0.0978474 0.0633145 -1.26515e-19)
(0.135268 0.0807739 2.10781e-20)
(0.218398 0.106077 -1.54317e-18)
(-0.240008 0.0857414 5.14412e-19)
(-0.124447 0.0829455 8.55735e-21)
(-0.0659732 0.0885113 -3.84042e-20)
(-0.0255787 0.0917402 -4.0268e-20)
(-0.0142562 0.0238745 1.38917e-19)
(-0.0167946 0.0553139 -4.78323e-21)
(-0.0172794 0.0215681 -4.11677e-21)
(-0.0118998 0.0132709 1.81717e-21)
(-0.00660466 0.012479 5.17081e-21)
(-0.00133342 0.0110387 -2.01206e-22)
(0.00488547 0.00972841 -4.7911e-23)
(0.0115979 0.00935617 6.18842e-22)
(0.0131196 0.00823225 0)
(0.012522 0.00666039 0)
(0.0117771 0.00697945 0)
(0.0103805 0.00518931 0)
(0.00869523 0.000712823 0)
(0.0092743 0.00883624 0)
(-0.00474418 0.00738397 0)
(-0.0075982 0.0046525 0)
(-0.00820131 0.00393391 0)
(-0.0101327 0.00643045 0)
(-0.0110029 0.00831362 0)
(-0.00980609 0.0103916 0)
(-0.00590454 0.0132081 1.83444e-21)
(0.0040042 0.0147133 -6.27197e-21)
(0.0126514 0.0186924 6.06498e-21)
(0.0202578 0.0191967 3.67869e-21)
(0.0238298 0.0225793 -1.63542e-20)
(0.0255402 0.0226585 3.75651e-20)
(0.0168975 0.0220632 -6.9336e-21)
(0.0416225 0.0355273 -4.27453e-21)
(0.0166853 0.0448203 -5.19287e-20)
(0.0322004 0.0621888 -1.03179e-20)
(0.0327633 0.0965848 -2.43341e-20)
(0.0533947 0.157533 1.8638e-20)
(-0.0279008 0.233243 -5.04507e-18)
(0.0376467 0.236041 2.49768e-18)
(-0.0525726 0.158663 3.01269e-21)
(-0.040225 0.103304 3.22278e-20)
(-0.0482003 0.0901166 3.01609e-20)
(-0.0252087 0.0611854 -2.605e-20)
(-0.033147 0.0565559 9.66651e-20)
(-0.025801 0.0378017 -6.66132e-20)
(-0.0200736 0.0250524 -9.71813e-21)
(-0.00986235 0.0179962 3.7778e-21)
(-0.00441995 0.0123313 4.80546e-21)
(0.00329342 0.00990692 -9.20732e-21)
(0.0101935 0.00849125 8.93651e-22)
(0.0122722 0.00631692 0)
(0.0109614 0.00425563 0)
(0.00984116 0.00284386 0)
(0.0104662 0.00343426 0)
(0.0106452 0.000108122 0)
(0.0120964 -0.00310068 0)
(-0.00604993 0.0125222 -8.51437e-23)
(-0.00610554 0.00194375 0)
(-0.00750498 0.00632019 0)
(-0.00838669 0.00697214 0)
(-0.0100929 0.00676014 0)
(-0.0116017 0.0066105 0)
(-0.00800229 0.00852131 5.56077e-21)
(-0.00105868 0.00851284 -8.03608e-21)
(0.00578702 0.0147317 -2.20898e-20)
(0.0102084 0.0172592 5.6401e-20)
(0.0120046 0.0212215 -2.05879e-20)
(0.00796584 0.0156394 -1.04233e-20)
(0.00711741 0.0239906 -1.9339e-20)
(0.0113711 0.0395798 -3.28884e-19)
(0.0167061 0.0460115 6.04732e-20)
(0.00735008 0.0659877 3.66243e-19)
(-0.010319 0.076749 2.86002e-19)
(0.0626028 0.0512143 -1.05813e-19)
(-0.119691 0.028775 -2.22524e-19)
(0.0081585 0.0846589 -4.28724e-19)
(0.0500473 0.151489 1.05044e-19)
(0.00456603 0.106022 1.0841e-19)
(-0.00460214 0.088261 1.93532e-19)
(-0.0193054 0.0798112 -2.27039e-20)
(-0.019964 0.0671022 4.30959e-20)
(-0.0188937 0.051493 -1.09702e-19)
(-0.0124875 0.0355062 -1.65176e-19)
(-0.00855578 0.0231361 3.54828e-20)
(-0.00560103 0.0158172 -1.54785e-21)
(0.00306859 0.0115823 -7.85964e-21)
(0.0109747 0.00807135 4.0217e-21)
(0.0130962 0.0061249 0)
(0.0118293 0.00313789 0)
(0.0108596 -0.000906854 0)
(0.0110257 -0.00303998 0)
(0.0114006 -0.000912165 0)
(0.0112364 -0.00843347 0)
(-0.0118953 -0.0105278 -1.60618e-24)
(-0.00803935 -0.00391891 0)
(-0.00910824 -0.00166584 0)
(-0.0092203 -0.000697279 0)
(-0.0105496 0.00217138 0)
(-0.0139598 0.00517018 0)
(-0.0120972 0.00580784 1.42819e-21)
(-0.00363302 0.00883393 -6.57855e-21)
(0.000342557 0.0125858 -6.01655e-20)
(-0.000256392 0.0154978 1.90359e-20)
(0.00106727 0.0203189 -3.24781e-20)
(-0.00467271 0.02175 -1.74835e-19)
(-0.00202996 0.0378102 1.73769e-19)
(-0.0127633 0.0578504 3.29625e-19)
(-0.00217576 0.0607803 -5.16279e-19)
(0.00480043 0.0754368 1.10111e-19)
(0.0239205 0.0622585 -5.51235e-19)
(0.263272 -0.0754155 -7.61279e-19)
(0.415609 -0.262203 -2.16512e-19)
(0.0310113 -0.600678 -2.68911e-19)
(-0.081167 -0.534955 5.12231e-21)
(-0.33556 -0.365692 1.88287e-18)
(-0.467653 0.065358 4.56471e-19)
(0.17619 0.144452 1.69571e-19)
(0.0241308 0.0950443 2.69655e-19)
(0.011041 0.0813311 -1.06925e-19)
(0.00254293 0.0647594 -4.83706e-19)
(0.0298952 0.0470924 -1.98503e-19)
(0.0269939 0.0455356 1.2848e-19)
(0.0103033 0.0368282 1.01552e-20)
(5.78875e-05 0.0244657 -5.04412e-20)
(3.30245e-05 0.0146755 5.60489e-21)
(0.0049857 0.0111316 -9.92173e-24)
(0.0113088 0.00743055 -2.21006e-21)
(0.016993 0.00805064 0)
(0.0165892 0.0080642 0)
(0.014489 0.00858398 0)
(0.0120395 0.00758083 0)
(0.00950967 0.0073198 0)
(0.00579757 0.00816144 0)
(-0.0129257 -0.0013787 -8.33004e-21)
(-0.0111922 0.00381002 0)
(-0.0134924 -0.00149984 0)
(-0.0159232 -0.000229794 0)
(-0.0165715 0.000429036 0)
(-0.0156348 0.000470415 0)
(-0.0166438 0.00307153 1.00999e-22)
(-0.0148051 0.00617545 6.83282e-21)
(-0.0146546 0.014135 -3.44647e-20)
(-0.0231593 0.0213939 3.06051e-20)
(-0.0210108 0.0296567 -1.11258e-19)
(-0.0282837 0.0442901 1.27991e-19)
(-0.0273235 0.0627238 1.03171e-20)
(-0.0146674 0.0751772 1.2005e-19)
(-0.036598 0.0983786 -3.37176e-19)
(-0.0129098 0.146082 1.07174e-19)
(0.0711344 0.190224 4.87051e-19)
(0.685192 0.0478319 -3.45347e-18)
(0.876889 -0.184482 -2.43831e-19)
(-0.176103 0.223461 -2.89386e-19)
(-0.199324 0.283416 -8.57869e-20)
(-0.438479 0.106823 6.29034e-19)
(-0.827443 -0.192615 -1.38235e-18)
(0.242933 0.108989 2.1631e-18)
(0.021194 0.105705 6.78669e-19)
(0.0374918 0.0858655 1.69014e-19)
(0.0378773 0.0653252 1.38387e-19)
(0.0260777 0.0494609 -3.60673e-19)
(0.0129681 0.0345929 -3.55145e-19)
(0.0070522 0.0316081 -1.87144e-20)
(0.00744919 0.0248428 -5.35144e-20)
(0.008388 0.0178531 3.34027e-20)
(0.0101479 0.0115573 1.18355e-20)
(0.0136971 0.00375605 -1.4524e-22)
(0.01625 0.00320091 0)
(0.014586 0.00194515 0)
(0.0144748 0.00163568 0)
(0.0152605 0.000662655 0)
(0.0160082 -0.00137021 0)
(0.0152544 0.00224738 -4.76133e-21)
(-0.0144501 -0.000385544 -5.63997e-21)
(-0.0153989 -0.000770433 0)
(-0.0150222 0.000172678 0)
(-0.0135436 -3.36748e-05 0)
(-0.0146091 -0.00106015 0)
(-0.0194738 -0.00222244 0)
(-0.0242339 -0.00194484 0)
(-0.0319732 0.0012292 3.83959e-22)
(-0.0309483 0.0044416 2.46515e-20)
(-0.0418057 0.0146829 -2.41701e-20)
(-0.0439675 0.0182486 2.37731e-20)
(-0.0637003 0.0401372 1.93365e-19)
(-0.0638495 0.0427495 5.9703e-20)
(-0.0957754 0.0243179 -3.99887e-19)
(-0.119565 0.0840993 -5.98504e-20)
(-0.127736 0.187651 5.90677e-19)
(-0.0788123 0.294843 -4.69372e-19)
(1.19882 0.302176 -1.29712e-17)
(0.146473 0.19462 5.38246e-19)
(-0.826705 0.603008 2.15434e-18)
(-0.314003 0.61498 1.49858e-18)
(0.422869 0.201614 -1.19315e-18)
(-0.603585 0.0456462 -1.83684e-19)
(-0.00887858 0.208327 -1.08823e-17)
(0.0988252 0.181397 4.47205e-19)
(0.130586 0.0979604 -1.38556e-19)
(0.111409 0.0259549 9.99409e-20)
(0.0554959 0.0408953 -8.96337e-20)
(0.0417305 0.0249273 -7.6115e-20)
(0.0291564 0.0124513 -5.49438e-20)
(0.022878 0.00799659 3.34033e-20)
(0.0208413 0.00679131 -3.9249e-20)
(0.013355 -0.00191838 9.90363e-24)
(0.0169921 -0.00461806 0)
(0.0133606 -0.00240047 0)
(0.0111562 -0.00298832 0)
(0.00843784 -0.00212699 0)
(0.00584401 -0.00128812 0)
(0.0085306 -0.001213 0)
(0.0104546 -0.00127771 -9.44591e-22)
(-0.00580319 -0.00284004 -4.27007e-22)
(-0.00581265 -0.00463853 0)
(-0.00429348 -0.00452343 0)
(-0.00495545 -0.00567686 0)
(-0.00676098 -0.00675578 0)
(-0.0119 -0.00781857 0)
(-0.0194369 -0.0133711 0)
(-0.0262259 -0.0114739 0)
(-0.0250952 -0.0141853 -3.49332e-21)
(-0.0261077 -0.0143482 4.04412e-21)
(-0.0367879 -0.017904 5.6727e-20)
(-0.0453053 -0.0229135 1.51859e-20)
(-0.0924284 -0.0306504 -4.31765e-19)
(-0.152805 -0.010831 3.02565e-19)
(-0.161507 0.0421047 1.97405e-19)
(-0.292636 0.139083 9.95045e-19)
(-0.234907 0.212516 3.10325e-19)
(0.566737 0.684682 -1.9464e-19)
(0.481243 1.40407 -1.7407e-18)
(-0.190905 0.46129 -1.66864e-19)
(-0.206929 -0.0806978 -1.05146e-18)
(0.47868 -0.0877429 3.8168e-19)
(-0.769445 0.116026 2.23873e-19)
(-0.0345387 0.525208 1.24922e-17)
(0.438907 0.11889 -7.66544e-19)
(0.242021 -0.0263568 -6.17439e-19)
(0.0942235 -0.0411688 -3.13697e-20)
(0.0702218 -0.0113901 1.78616e-19)
(0.0342998 -0.0254124 7.62072e-21)
(0.0324229 -0.0215093 8.41826e-22)
(0.0223948 -0.0133154 -1.20819e-20)
(0.0201071 -0.0105636 -2.51351e-21)
(0.0213281 -0.00738504 0)
(0.0196827 -0.00605685 0)
(0.0155059 -0.0053173 0)
(0.013804 -0.00366154 0)
(0.0141563 -0.00199513 2.89754e-20)
(0.0137173 -0.00113667 4.0071e-20)
(0.0124479 -0.000279835 2.38948e-20)
(0.0105552 0.00053491 0)
(0.000690584 0.000199971 0)
(-0.0024016 0.000602304 0)
(-0.00443463 0.000785983 0)
(-0.00792224 -0.00053851 0)
(-0.0093288 -0.00248223 0)
(-0.00989876 -0.00292338 0)
(-0.0110942 -0.00811212 0)
(-0.0153297 -0.0137418 0)
(-0.0190279 -0.0212385 1.31488e-23)
(-0.00987235 -0.0322838 -4.05689e-21)
(-0.0233477 -0.047397 1.63012e-20)
(-0.0201344 -0.066565 -7.76554e-20)
(-0.0594281 -0.106053 8.121e-20)
(-0.0960911 -0.119542 -3.33676e-20)
(-0.199867 -0.123715 3.19665e-18)
(-0.36327 -0.179443 -6.10912e-19)
(-0.516502 0.0243619 2.9503e-19)
(-0.339583 0.435756 9.36824e-19)
(0.479562 0.473715 1.04305e-18)
(0.833408 0.434509 3.4365e-18)
(0.533627 0.233567 1.77698e-20)
(-0.249917 0.174399 -2.36782e-18)
(-1.18007 0.416542 -3.57807e-19)
(0.0233261 -0.0224739 3.01559e-21)
(0.727111 -0.355797 -1.07226e-19)
(0.165769 -0.192875 2.5101e-19)
(0.00491303 -0.0483144 8.63196e-20)
(0.00742061 -0.0360701 5.46872e-20)
(0.00168726 -0.0363025 2.50934e-20)
(0.00466247 -0.0184958 8.32075e-21)
(0.00608627 -0.012878 4.00453e-22)
(0.0131573 -0.0154953 3.01979e-23)
(0.0184442 -0.0106463 0)
(0.013723 -0.00915207 0)
(0.0113962 -0.00789561 0)
(0.01085 -0.00640202 0)
(0.0113871 -0.00561238 0)
(0.0115196 -0.00489596 0)
(0.00968298 -0.00259619 0)
(0.00831284 -0.00207888 -4.30348e-21)
(-0.00655613 0.00346777 0)
(-0.00961788 0.00164572 0)
(-0.0108131 0.000889488 0)
(-0.0117053 -0.000467564 0)
(-0.0113116 -0.00330839 0)
(-0.00973594 -0.00639671 0)
(-0.00863023 -0.00908573 0)
(-0.00373533 -0.0164517 0)
(-0.00560788 -0.0267174 0)
(0.00470166 -0.0435276 0)
(0.00958687 -0.051856 1.29071e-21)
(0.0157666 -0.0933331 -1.26732e-21)
(-0.00432814 -0.143537 -4.84318e-20)
(0.00024257 -0.19497 6.67567e-20)
(-0.163641 -0.319327 9.90331e-18)
(-0.309589 -0.416289 -3.46098e-19)
(-0.834001 -0.340548 4.6867e-18)
(-0.495437 -0.448357 7.00457e-19)
(0.224034 -0.313654 9.35339e-19)
(0.678278 0.162675 3.21043e-18)
(0.321446 0.370757 3.30895e-18)
(-0.438266 0.291284 3.17183e-18)
(-0.573911 -0.101372 9.73361e-19)
(0.929295 -0.772044 -6.93008e-21)
(0.359872 -0.672379 1.22594e-18)
(-0.169483 -0.222998 -1.49403e-19)
(-0.060694 -0.0347872 1.98891e-21)
(-0.0307815 -0.0274647 -9.0812e-21)
(-0.0156609 -0.00767763 -2.2246e-20)
(-0.00353237 -0.00179849 -3.69977e-21)
(0.00436991 -0.0102701 0)
(0.0106422 -0.012806 0)
(0.0142954 -0.0124699 0)
(0.0112728 -0.0108649 0)
(0.00810276 -0.00943809 0)
(0.00777136 -0.00700633 0)
(0.00777804 -0.00546816 0)
(0.00786801 -0.00289161 0)
(0.00694272 -0.000702255 0)
(0.00809698 -0.000982201 0)
(-0.0111223 0.00290322 0)
(-0.00779153 -0.00039747 0)
(-0.00599451 -0.00174197 0)
(-0.00396969 -0.00454265 0)
(-0.00341706 -0.00727055 0)
(-0.000678165 -0.0119743 0)
(0.00117073 -0.0147688 0)
(0.0103729 -0.0203456 0)
(0.0168559 -0.0260119 0)
(0.0280847 -0.0417097 0)
(0.0485009 -0.0402367 0)
(0.0679713 -0.0882376 -1.37252e-21)
(0.113396 -0.133503 3.11335e-21)
(0.0683272 -0.282194 -5.49616e-21)
(0.129572 -0.237342 3.34732e-18)
(-0.444847 -0.337635 6.034e-19)
(-0.24582 -0.710481 2.63262e-18)
(0.193967 -1.54755 2.70156e-19)
(0.0245073 -1.74693 -4.86508e-19)
(-0.237237 -1.46366 9.07473e-19)
(-0.330727 -0.914836 -4.33442e-19)
(-0.0971143 -0.786689 -2.3667e-20)
(0.381368 -0.863117 1.13189e-18)
(1.01205 -0.963028 1.07645e-18)
(-0.450653 -0.197276 4.70621e-19)
(-0.392877 -0.0397475 -2.83008e-19)
(-0.0755019 0.0216991 -4.05586e-19)
(-0.0346963 0.00566534 6.78927e-21)
(-0.0135641 0.00106602 -1.82068e-22)
(0.000337415 -0.0024791 0)
(0.00896471 -0.0102377 0)
(0.0145868 -0.00697619 0)
(0.0128127 -0.00928561 0)
(0.0110866 -0.00555954 0)
(0.00789685 -0.0053647 0)
(0.00791732 -0.00410162 0)
(0.00712728 -0.00403995 0)
(0.00685834 -0.00279969 0)
(0.00642709 -0.00139585 0)
(0.00790642 -0.00144573 0)
(-0.00871129 -0.00355595 0)
(-0.00427482 -0.0032285 0)
(-0.00136598 -0.0042807 0)
(0.00087941 -0.00599977 0)
(0.00208497 -0.00782551 0)
(0.00449261 -0.010196 0)
(0.0085812 -0.0119845 0)
(0.0167066 -0.0139601 0)
(0.0275157 -0.0156453 0)
(0.0387756 -0.0128651 0)
(0.072658 -0.0170889 1.15508e-20)
(0.100687 0.000855839 0)
(0.204622 -0.0545711 0)
(0.11062 -0.164746 -2.34267e-19)
(0.0936885 -0.029057 1.41187e-18)
(0.264763 -0.301384 5.58372e-18)
(0.643568 -0.623058 -2.39178e-20)
(-0.00376191 0.0783266 -2.6324e-19)
(-0.230109 0.486598 7.34517e-19)
(-0.468747 0.307356 -5.14051e-18)
(-0.46399 0.0205138 -1.18225e-18)
(0.0546838 -0.181983 -2.41764e-19)
(0.2953 -0.169113 5.62741e-19)
(0.137752 0.298592 2.92845e-19)
(-0.599292 0.418116 -8.29889e-20)
(-0.0943493 0.203619 1.99203e-20)
(-0.00848568 0.0554676 3.33281e-19)
(-0.013438 0.023265 0)
(0.00133776 0.0139711 0)
(0.00700444 -0.00266901 -1.47605e-20)
(0.013938 -0.00609396 0)
(0.0154878 -0.00493456 0)
(0.01307 -0.00365818 0)
(0.0128779 -0.000284956 0)
(0.0107499 -0.00065922 0)
(0.0095592 -0.00098144 0)
(0.00803325 -0.00152434 0)
(0.00710226 -0.00278517 -4.76883e-21)
(0.00649463 -0.00263116 -3.42121e-21)
(0.0062925 -0.00132533 0)
(0.000577338 -0.00645347 0)
(-0.000737013 -0.00638299 0)
(-0.000499661 -0.00758972 0)
(0.000659626 -0.00671578 0)
(0.00223523 -0.0055894 0)
(0.005415 -0.00527414 0)
(0.0108956 -0.00478806 0)
(0.0135784 -0.00224199 0)
(0.0198098 0.00072691 0)
(0.0178784 0.0251711 0)
(0.0451536 0.0394258 -1.92805e-20)
(0.073052 0.0904972 0)
(0.186409 0.127862 0)
(0.374923 0.287597 -4.13229e-19)
(0.0457436 0.0200111 -2.97375e-18)
(-0.208109 0.448534 2.27336e-19)
(-0.31323 1.13716 0)
(-0.0484528 1.11041 4.09839e-19)
(0.183164 0.72495 2.24245e-18)
(0.375076 0.637198 7.02472e-19)
(0.474577 0.615479 1.16986e-18)
(0.404476 0.455125 -2.90792e-18)
(0.198034 0.660843 -1.21179e-20)
(-0.162823 0.690974 0)
(-0.0605668 0.384982 -6.19332e-20)
(0.180617 0.0987942 -1.15044e-19)
(0.0472314 0.0706814 8.54811e-20)
(-0.000449984 0.0189185 0)
(0.0171766 0.00630654 0)
(0.0100286 -0.0112556 -5.28319e-20)
(0.014911 -0.0132998 0)
(0.00958876 -0.014369 0)
(0.00870365 -0.00901882 0)
(0.00783318 -0.00501116 0)
(0.00947897 -0.00219252 0)
(0.0091689 -0.000927133 8.62748e-21)
(0.00891696 0.00104756 -1.12113e-20)
(0.00774131 0.00166875 0)
(0.00578573 0.000511458 0)
(0.00234802 0.00268166 -2.63461e-20)
(0.00637023 0.0014296 0)
(0.000462444 -3.84378e-05 0)
(-0.00114045 -0.00174122 0)
(-0.000814678 -0.00216332 0)
(0.000539358 -0.0015408 0)
(0.00258536 -2.19291e-06 0)
(0.00696519 0.00301199 -4.2422e-21)
(0.005864 0.0113174 0)