/*--------------------------------*- C++ -*----------------------------------*\
| =========                 |                                                 |
| \\      /  F ield         | OpenFOAM: The Open Source CFD Toolbox           |
|  \\    /   O peration     | Version:  v2106                                 |
|   \\  /    A nd           | Website:  www.openfoam.com                      |
|    \\/     M anipulation  |                                                 |
\*---------------------------------------------------------------------------*/
FoamFile
{
    version     2.0;
    format      ascii;
    arch        "LSB;label=32;scalar=64";
    class       volVectorField;
    location    "0";
    object      U;
}
// * * * * * * * * * * * * * * * * * * * * * * * * * * * * * * * * * * * * * //

dimensions      [0 1 -1 0 0 0 0];

internalField   nonuniform List<vector> 
11644
(
(0.993954 -0.000229633 3.95337e-24)
(0.993848 -0.000611549 1.09022e-23)
(0.993781 -0.000911295 5.84931e-24)
(0.993762 -0.00121767 0)
(0.993758 -0.00154478 0)
(0.993758 -0.00188945 0)
(0.993759 -0.00224994 0)
(0.993759 -0.00261935 0)
(0.993758 -0.0029906 0)
(0.993766 -0.0033431 0)
(0.99374 -0.00367365 0)
(0.99371 -0.00395185 0)
(0.993782 -0.00413454 0)
(0.993947 -0.004232 0)
(0.993759 -0.00420022 0)
(0.993739 -0.00405324 0)
(0.993827 -0.00384295 0)
(0.993883 -0.00355352 0)
(0.993724 -0.00305478 0)
(0.9934 -0.00222014 3.3936e-30)
(0.993159 -0.00113742 -3.37715e-30)
(0.993164 -1.74882e-06 0)
(0.9934 0.000925467 0)
(0.993641 0.00159238 0)
(0.993685 0.00208452 0)
(0.993685 0.00246707 0)
(0.993848 0.00275734 0)
(0.993701 0.00289361 0)
(0.993698 0.00292352 0)
(0.993728 0.00285066 0)
(0.993722 0.0027045 0)
(0.993735 0.0024957 0)
(0.993738 0.00224902 0)
(0.993742 0.00197557 0)
(0.993745 0.00168851 0)
(0.993749 0.00139819 0)
(0.993756 0.00111551 0)
(0.993772 0.000843946 0)
(0.993834 0.000579449 0)
(0.993944 0.000221817 7.66517e-25)
(0.994737 -0.000455703 5.07807e-24)
(0.994672 -0.00138494 4.70392e-24)
(0.994634 -0.00233167 2.52633e-24)
(0.994645 -0.00328804 0)
(0.994685 -0.00426784 0)
(0.994734 -0.00528302 0)
(0.994783 -0.00633174 0)
(0.994821 -0.00740376 0)
(0.994839 -0.00847632 0)
(0.994808 -0.00952051 0)
(0.994758 -0.0104667 0)
(0.994657 -0.0112672 0)
(0.994361 -0.0118617 0)
(0.993828 -0.0121428 0)
(0.993637 -0.0120405 0)
(0.993276 -0.0115959 4.53966e-25)
(0.992794 -0.0106496 2.76708e-24)
(0.992079 -0.00903317 3.78117e-23)
(0.991304 -0.00668009 4.58914e-23)
(0.990859 -0.00401007 6.79556e-22)
(0.990803 -0.00136238 -7.62907e-22)
(0.991046 0.00110331 1.49641e-22)
(0.991445 0.00334496 -1.46049e-22)
(0.991865 0.00535687 6.84016e-25)
(0.992375 0.0070406 -3.7788e-24)
(0.992873 0.00823773 0)
(0.993062 0.00898421 0)
(0.993667 0.00928697 0)
(0.993992 0.00923117 0)
(0.994191 0.00889581 0)
(0.994361 0.00832732 0)
(0.994455 0.00761064 0)
(0.994519 0.00679127 0)
(0.994549 0.00591442 0)
(0.994557 0.00501185 0)
(0.99455 0.00410577 0)
(0.994541 0.00320482 0)
(0.994554 0.00230098 0)
(0.994617 0.00137962 0)
(0.994704 0.00045861 0)
(0.996275 -0.000700237 0)
(0.996251 -0.00214378 0)
(0.996275 -0.00364515 0)
(0.996353 -0.00518866 0)
(0.996474 -0.00677403 4.63872e-24)
(0.996611 -0.0084181 0)
(0.996744 -0.0101193 0)
(0.996845 -0.0118626 0)
(0.996879 -0.0136172 0)
(0.996818 -0.0153219 0)
(0.996594 -0.0169105 0)
(0.996109 -0.0182833 0)
(0.995438 -0.0192505 2.66955e-24)
(0.994732 -0.0197156 -1.03104e-22)
(0.993354 -0.0195154 7.1889e-23)
(0.991902 -0.0184903 6.9219e-22)
(0.990162 -0.0164023 -4.91362e-22)
(0.988208 -0.0131017 6.2895e-23)
(0.98675 -0.00904749 1.23152e-22)
(0.98602 -0.00461002 -2.51431e-21)
(0.985975 -6.28692e-05 2.09886e-21)
(0.986523 0.00437035 -6.77438e-22)
(0.987526 0.00840353 9.08536e-22)
(0.988831 0.0118234 -5.5065e-22)
(0.990161 0.014418 3.77225e-22)
(0.991485 0.0161697 -1.21988e-22)
(0.993149 0.0171014 1.29134e-22)
(0.993931 0.0173067 -3.74338e-24)
(0.994731 0.0168895 0)
(0.995384 0.0159791 0)
(0.995815 0.0147481 0)
(0.996077 0.0133043 0)
(0.996205 0.0117495 0)
(0.99625 0.0101415 0)
(0.996242 0.0085255 0)
(0.996209 0.0069245 0)
(0.996175 0.00534247 0)
(0.996166 0.00377565 0)
(0.996198 0.00222304 0)
(0.996257 0.000719937 0)
(0.998543 -0.000947116 0)
(0.998554 -0.00286824 0)
(0.998641 -0.00487303 0)
(0.998808 -0.0069304 0)
(0.999033 -0.00907083 0)
(0.99929 -0.0112978 0)
(0.999543 -0.0136171 0)
(0.999741 -0.0160173 0)
(0.99982 -0.0184622 0)
(0.999694 -0.0208889 0)
(0.999239 -0.0232009 -1.51101e-24)
(0.998462 -0.025215 -3.0767e-23)
(0.997113 -0.0267791 2.15583e-22)
(0.994866 -0.02763 -5.25987e-23)
(0.992585 -0.0272662 8.43118e-22)
(0.989364 -0.0255036 -7.40641e-22)
(0.985526 -0.022006 -7.74524e-22)
(0.981926 -0.0171063 1.69909e-21)
(0.979337 -0.0109782 -1.66354e-21)
(0.97793 -0.00406836 3.62569e-21)
(0.977731 0.00314253 -3.28458e-21)
(0.978638 0.0100658 1.19699e-21)
(0.980686 0.0162859 -1.72298e-21)
(0.983545 0.0212785 2.14367e-21)
(0.986691 0.0248357 -1.48802e-22)
(0.989869 0.026948 -1.23971e-21)
(0.9921 0.0278219 1.87374e-22)
(0.994849 0.0272998 -2.02205e-22)
(0.996597 0.0260374 -5.52822e-23)
(0.997723 0.0242086 2.69603e-24)
(0.998422 0.0219877 0)
(0.998813 0.0195651 0)
(0.99898 0.0170685 0)
(0.998993 0.0145824 0)
(0.998921 0.012148 0)
(0.998814 0.00978738 0)
(0.998707 0.00750108 0)
(0.998635 0.00528145 0)
(0.998617 0.00312287 0)
(0.998649 0.00103648 0)
(1.00144 -0.00115611 0)
(1.0015 -0.00354297 0)
(1.00167 -0.00596294 0)
(1.00195 -0.00849111 0)
(1.00232 -0.0111323 0)
(1.00273 -0.013913 0)
(1.00315 -0.0168409 0)
(1.0035 -0.0199138 0)
(1.00367 -0.023105 0)
(1.00351 -0.0263767 -1.54747e-24)
(1.00297 -0.0295901 -1.11574e-23)
(1.00173 -0.03264 1.82183e-22)
(0.999531 -0.0351405 -1.06706e-21)
(0.996627 -0.0365445 1.74893e-21)
(0.991452 -0.0365167 -6.50574e-24)
(0.985608 -0.0342414 -1.3045e-21)
(0.979541 -0.0299824 1.03041e-21)
(0.972832 -0.0232433 -2.92703e-23)
(0.96783 -0.014005 -1.09873e-22)
(0.965014 -0.00282629 6.67793e-22)
(0.964964 0.00901402 -5.78503e-22)
(0.967585 0.0199925 -1.41334e-21)
(0.972057 0.0289426 1.61886e-21)
(0.977596 0.0352132 -8.96141e-22)
(0.983167 0.0392447 1.78532e-21)
(0.988631 0.0412286 -9.01007e-22)
(0.994067 0.0408991 -1.95254e-21)
(0.996962 0.0395237 8.99156e-22)
(0.999593 0.0369046 3.91814e-22)
(1.00144 0.0335666 -5.31058e-23)
(1.00249 0.0299418 -3.98605e-24)
(1.00293 0.0262427 0)
(1.00302 0.0226069 0)
(1.0029 0.019107 0)
(1.00267 0.0157763 0)
(1.00241 0.0126159 0)
(1.00216 0.00961634 0)
(1.00197 0.00675359 0)
(1.00187 0.00398221 0)
(1.00185 0.00130319 0)
(1.00489 -0.001395 0)
(1.00499 -0.00414493 0)
(1.00526 -0.00700627 0)
(1.00569 -0.00994568 0)
(1.00624 -0.0130299 0)
(1.00688 -0.0163107 0)
(1.00754 -0.0198172 0)
(1.00814 -0.0235697 0)
(1.00853 -0.0275952 -1.01206e-23)
(1.00862 -0.0318612 2.65843e-23)
(1.0081 -0.0363429 -1.68386e-23)
(1.00656 -0.0407853 2.4087e-24)
(1.00354 -0.0447702 6.19535e-22)
(0.997698 -0.0482083 5.93556e-22)
(0.99087 -0.0488283 1.84551e-21)
(0.981151 -0.0467472 -2.74867e-21)
(0.969648 -0.0421253 7.8522e-22)
(0.95865 -0.0330865 -3.13564e-22)
(0.949574 -0.0188569 6.49882e-22)
(0.944652 -0.00193741 -4.47407e-21)
(0.944705 0.0159157 3.35803e-21)
(0.949845 0.0327666 -2.57703e-21)
(0.958673 0.046622 3.79238e-21)
(0.969654 0.0551117 -1.46034e-21)
(0.980065 0.058639 3.49339e-21)
(0.989237 0.0597011 -1.98736e-21)
(0.99559 0.0583869 -5.73415e-22)
(1.00188 0.0535946 -2.8949e-22)
(1.00521 0.0487222 -3.5919e-22)
(1.00722 0.0435482 -5.43797e-22)
(1.00836 0.0381973 1.7222e-22)
(1.00872 0.032963 1.53587e-23)
(1.00855 0.028013 0)
(1.00811 0.023402 0)
(1.00757 0.0191338 0)
(1.00701 0.015181 0)
(1.00651 0.0115042 0)
(1.00613 0.00804743 0)
(1.00587 0.00477381 0)
(1.00578 0.00157416 0)
(1.0088 -0.00149201 0)
(1.00896 -0.00461377 0)
(1.00936 -0.007784 0)
(1.00998 -0.0110888 0)
(1.01077 -0.0146039 0)
(1.01171 -0.018363 0)
(1.01273 -0.0224312 0)
(1.01372 -0.0268815 7.66572e-24)
(1.01465 -0.0318264 6.60505e-24)
(1.01523 -0.0373614 -9.09844e-24)
(1.01494 -0.0434008 -3.82417e-23)
(1.01327 -0.0497972 1.37085e-22)
(1.00953 -0.0565563 -2.64545e-22)
(1.00426 -0.0616298 -6.90027e-22)
(0.992614 -0.0669314 1.88554e-21)
(0.978377 -0.067398 -1.41901e-21)
(0.966747 -0.0571799 -1.79352e-21)
(0.950486 -0.0478618 -2.72249e-21)
(0.935061 -0.03086 -3.6621e-21)
(0.925154 -0.00730243 2.35316e-21)
(0.92375 0.0190601 3.96411e-21)
(0.930929 0.0431284 3.71732e-21)
(0.943691 0.0617115 -2.09964e-24)
(0.959442 0.0728598 -2.92393e-21)
(0.978649 0.0862357 1.02325e-21)
(0.993108 0.0841225 -2.33706e-21)
(1.00517 0.0767816 7.34358e-22)
(1.0099 0.07003 -2.33309e-22)
(1.01384 0.0615045 6.30226e-22)
(1.01579 0.0533463 -4.48415e-22)
(1.01647 0.0459198 1.42026e-22)
(1.01634 0.0390835 1.62837e-22)
(1.01565 0.0327951 5.0591e-24)
(1.01463 0.027085 0)
(1.01355 0.021946 0)
(1.01252 0.0173056 0)
(1.01165 0.0130651 0)
(1.01096 0.00913427 0)
(1.01051 0.00537264 0)
(1.01031 0.00180057 0)
(1.01307 -0.00171498 0)
(1.01331 -0.00503637 0)
(1.01386 -0.00846303 0)
(1.0147 -0.0120582 0)
(1.01582 -0.0158758 0)
(1.01716 -0.0200178 0)
(1.01866 -0.0245794 0)
(1.02032 -0.0297163 -2.97672e-23)
(1.02211 -0.0356135 8.46706e-23)
(1.02345 -0.0424149 -1.45029e-22)
(1.02391 -0.0501011 -9.79496e-23)
(1.02305 -0.0585754 -3.69247e-22)
(1.02047 -0.0674793 5.92839e-22)
(1.01034 -0.0759772 1.78481e-22)
(1.0016 -0.0805132 1.20628e-21)
(0.985936 -0.0863753 -9.95861e-22)
(0.960402 -0.0878483 1.80276e-22)
(0.932257 -0.0783816 -2.09621e-21)
(0.902687 -0.0563908 1.71605e-21)
(0.881565 -0.0195929 2.15066e-21)
(0.877409 0.0252325 -2.74774e-21)
(0.891882 0.0663386 3.02939e-21)
(0.918191 0.0950961 -2.31676e-21)
(0.948341 0.108803 2.79657e-21)
(0.975003 0.112535 -1.26892e-21)
(0.996398 0.105737 -1.60553e-21)
(1.01009 0.0955144 2.93292e-21)
(1.02403 0.0853165 -8.23275e-22)
(1.02697 0.0732798 1.59011e-21)
(1.02769 0.0621253 -7.41062e-22)
(1.02711 0.0522325 1.62413e-22)
(1.02584 0.0437179 4.96973e-23)
(1.02424 0.0362777 -4.8258e-23)
(1.02235 0.0296737 0)
(1.02046 0.0238278 0)
(1.01877 0.0186401 0)
(1.01737 0.0139692 0)
(1.0163 0.00969694 0)
(1.01558 0.00571476 0)
(1.01526 0.00183683 0)
(1.01762 -0.00165339 0)
(1.01793 -0.00522104 0)
(1.01866 -0.00885905 0)
(1.01978 -0.0126678 0)
(1.02127 -0.0167335 0)
(1.02311 -0.0211806 0)
(1.02528 -0.0261334 -4.38274e-24)
(1.02791 -0.0318164 -1.30305e-23)
(1.03075 -0.0384894 3.19529e-23)
(1.03326 -0.0461961 7.47681e-24)
(1.03522 -0.0551326 -1.23934e-22)
(1.03622 -0.0659434 2.16874e-22)
(1.03529 -0.0806326 -2.29621e-22)
(1.02515 -0.0930827 1.07182e-22)
(1.01551 -0.105016 -7.99882e-22)
(0.996849 -0.121216 7.41602e-22)
(0.96745 -0.127398 6.1098e-22)
(0.921851 -0.128655 -2.43137e-21)
(0.867371 -0.10553 2.20829e-21)
(0.820248 -0.0510269 -4.15243e-22)
(0.805712 0.0273061 3.53869e-22)
(0.831924 0.0989008 -6.2436e-21)
(0.882344 0.142757 -3.37831e-21)
(0.935916 0.158246 -2.10184e-21)
(0.979148 0.15258 -2.54722e-21)
(1.01245 0.140033 -2.64199e-22)
(1.02804 0.121008 -5.92148e-22)
(1.04406 0.101661 -3.06638e-22)
(1.04495 0.0834055 5.81662e-22)
(1.04323 0.0685792 -2.87946e-22)
(1.04036 0.0562627 2.38828e-22)
(1.03713 0.0461749 -8.31214e-23)
(1.03399 0.0378107 -2.22058e-22)
(1.03097 0.0306503 -6.20962e-24)
(1.02802 0.0244278 0)
(1.02549 0.0190007 0)
(1.02343 0.0142009 0)
(1.02188 0.00982825 0)
(1.02086 0.00580949 0)
(1.02036 0.0019476 0)
(1.0223 -0.00188787 0)
(1.02272 -0.00537684 0)
(1.02365 -0.0090416 0)
(1.02507 -0.0128831 0)
(1.027 -0.0170509 0)
(1.02943 -0.0216217 0)
(1.03245 -0.0267739 1.96557e-23)
(1.0362 -0.0327457 -6.8151e-23)
(1.04017 -0.0396395 -1.28023e-23)
(1.04425 -0.0476296 9.02162e-23)
(1.04849 -0.0572825 1.25072e-22)
(1.05284 -0.0694606 -1.99263e-22)
(1.05688 -0.0869067 8.2512e-23)
(1.05226 -0.10586 -3.33826e-23)
(1.04629 -0.127488 -2.51508e-24)
(1.02557 -0.159035 -3.73082e-23)
(0.992128 -0.186136 -3.19522e-23)
(0.930052 -0.216153 -3.49022e-22)
(0.826393 -0.217699 2.86598e-22)
(0.703318 -0.140625 -2.40305e-21)
(0.649314 0.0239137 -3.94031e-22)
(0.717994 0.180207 -1.24588e-22)
(0.841073 0.245733 -4.59748e-22)
(0.939987 0.240502 6.78691e-22)
(1.00733 0.211322 9.45493e-23)
(1.04841 0.1761 -2.56539e-22)
(1.06062 0.14124 -8.65305e-22)
(1.07269 0.11134 2.26184e-22)
(1.06828 0.0884046 -7.35162e-22)
(1.06236 0.0709293 4.85756e-22)
(1.056 0.0569891 3.07376e-23)
(1.04988 0.0457613 -1.03036e-22)
(1.04449 0.0368649 5.79758e-23)
(1.03995 0.0296304 -4.53222e-23)
(1.0358 0.0234669 0)
(1.03229 0.0181784 0)
(1.02949 0.0135514 0)
(1.02742 0.00941936 0)
(1.02602 0.00547181 0)
(1.02537 0.00184054 0)
(1.02701 -0.00163595 0)
(1.02753 -0.00523965 0)
(1.02867 -0.00886707 0)
(1.03043 -0.0126882 0)
(1.03284 -0.0167984 0)
(1.03593 -0.0212941 0)
(1.03987 -0.026361 -6.83566e-24)
(1.04462 -0.0321479 9.23268e-24)
(1.04967 -0.0385584 -4.52297e-23)
(1.05553 -0.0458587 5.77973e-23)
(1.06275 -0.0550842 -1.11363e-22)
(1.0718 -0.0669539 6.48749e-24)
(1.08247 -0.0819228 -4.41883e-23)
(1.08767 -0.106254 4.41135e-22)
(1.0941 -0.137031 1.29008e-22)
(1.09313 -0.18398 -2.96099e-22)
(1.07535 -0.249052 -1.52242e-22)
(1.0211 -0.352318 -6.67554e-23)
(0.852551 -0.470631 -1.41399e-21)
(0.47201 -0.45567 -6.21362e-20)
(0.187081 0.0299602 4.72635e-21)
(0.50528 0.482426 -4.33533e-20)
(0.863917 0.477267 2.19935e-21)
(1.02425 0.360557 -7.60105e-23)
(1.08465 0.265451 4.79562e-23)
(1.10842 0.195112 1.77721e-22)
(1.10627 0.151198 1.57772e-22)
(1.10685 0.107616 -3.66505e-23)
(1.09562 0.0854364 2.83906e-23)
(1.0842 0.0675186 3.1197e-23)
(1.0732 0.0531178 -1.2079e-22)
(1.06341 0.0417888 9.39073e-23)
(1.05514 0.0330669 -2.83878e-23)
(1.04862 0.0262916 1.24832e-23)
(1.04317 0.020717 0)
(1.03859 0.0159495 0)
(1.03502 0.0118053 0)
(1.03243 0.00812581 0)
(1.03078 0.00483424 0)
(1.02995 0.00148913 0)
(1.03156 -0.00164721 0)
(1.0322 -0.00497841 0)
(1.03356 -0.00836245 0)
(1.03567 -0.011996 0)
(1.03857 -0.0158638 0)
(1.04229 -0.02008 0)
(1.04702 -0.0247191 1.53239e-23)
(1.0524 -0.0297302 3.43236e-23)
(1.05827 -0.0349145 5.29477e-23)
(1.06573 -0.0405504 6.32927e-23)
(1.07559 -0.0473075 1.41373e-22)
(1.08906 -0.0557367 2.42967e-22)
(1.10776 -0.0665054 -5.51211e-22)
(1.12059 -0.0889 -1.71838e-22)
(1.14915 -0.115554 -1.76068e-22)
(1.17652 -0.165237 -5.14781e-22)
(1.2139 -0.243098 -1.14553e-22)
(1.26955 -0.392131 1.64045e-21)
(0.97948 -0.533319 -1.04172e-19)
(1.04132 0.541996 4.55909e-20)
(1.23998 0.394571 -5.62493e-23)
(1.20337 0.258989 -1.39611e-22)
(1.18171 0.177766 -6.7907e-23)
(1.1588 0.138298 -3.2439e-23)
(1.14313 0.0913571 7.77224e-23)
(1.12384 0.0724906 -6.3021e-23)
(1.10611 0.0564782 -4.58129e-23)
(1.09013 0.0437427 -1.14098e-24)
(1.07649 0.0338748 8.20575e-24)
(1.06518 0.0263699 1.9387e-23)
(1.05639 0.020721 2.37439e-23)
(1.04966 0.0163166 0)
(1.0442 0.0126264 0)
(1.03999 0.00943776 0)
(1.03687 0.00654471 0)
(1.03481 0.00387083 0)
(1.03382 0.00138578 0)
(1.03585 -0.00169529 0)
(1.03665 -0.00460214 0)
(1.03825 -0.00772361 0)
(1.04066 -0.0108848 0)
(1.04395 -0.0142859 0)
(1.04817 -0.017984 0)
(1.05333 -0.0219099 -7.64834e-24)
(1.05878 -0.0256804 -3.51915e-24)
(1.06485 -0.0290823 -1.10512e-24)
(1.07309 -0.032313 4.45906e-23)
(1.08424 -0.035474 -5.30628e-23)
(1.09962 -0.0384559 9.34252e-23)
(1.12176 -0.0408969 3.28147e-22)
(1.14439 -0.0546464 3.40845e-22)
(1.18676 -0.0641889 4.67381e-21)
(1.23765 -0.0913657 -4.39925e-22)
(1.31903 -0.128919 -1.64016e-22)
(1.4512 -0.172444 2.73276e-21)
(0.0231593 -0.00951996 6.32107e-19)
(0.0295312 -0.0164674 -1.19446e-19)
(1.38123 0.243152 -2.1763e-22)
(1.29705 0.184499 -1.61195e-23)
(1.24426 0.128818 9.44496e-22)
(1.20516 0.0998748 1.40904e-21)
(1.17378 0.0615099 1.66634e-22)
(1.14736 0.0488589 -3.73839e-23)
(1.12446 0.0378 -3.7283e-23)
(1.10446 0.0290827 8.99654e-24)
(1.0875 0.0222329 1.75805e-25)
(1.07339 0.0169727 1.61503e-24)
(1.0624 0.0131611 -6.97513e-25)
(1.05438 0.0104075 0)
(1.04818 0.00814226 0)
(1.04347 0.00613523 0)
(1.04004 0.00430037 0)
(1.03773 0.00252666 0)
(1.03655 0.000804057 0)
(1.0398 -0.00100074 -4.1737e-25)
(1.04061 -0.00373006 0)
(1.04236 -0.00637871 0)
(1.04504 -0.00914248 0)
(1.04869 -0.0120777 0)
(1.0533 -0.0151915 0)
(1.0584 -0.0182226 1.76992e-24)
(1.06328 -0.0206327 -3.68795e-23)
(1.06887 -0.0222569 9.0636e-23)
(1.07677 -0.0231249 -3.52829e-22)
(1.08775 -0.0228462 2.22724e-22)
(1.10253 -0.0206484 6.13486e-22)
(1.12316 -0.0136775 -5.99895e-22)
(1.14796 -0.0143836 -7.4136e-23)
(1.18813 -0.00409927 -9.67764e-23)
(1.24431 0.00129852 -6.02499e-22)
(1.32788 0.0110977 1.08159e-21)
(1.39031 0.0412041 -3.07067e-22)
(0.234641 0.0155275 -8.58128e-22)
(0.0479528 0.0305288 1.03888e-20)
(1.33889 0.107215 3.76761e-22)
(1.33739 0.0968062 -6.58164e-22)
(1.28031 0.0643041 4.73952e-22)
(1.23507 0.0478945 1.31774e-22)
(1.19204 0.0216418 -2.40588e-22)
(1.16178 0.0175886 -1.4655e-22)
(1.13588 0.0135159 3.75259e-22)
(1.11367 0.0103804 -1.12949e-22)
(1.09473 0.00774819 6.66653e-23)
(1.07876 0.00568897 6.6682e-24)
(1.06606 0.00431771 4.86234e-24)
(1.05702 0.0035722 0)
(1.05044 0.00299374 0)
(1.0455 0.00236893 0)
(1.04199 0.00173491 0)
(1.03978 0.00105148 0)
(1.03871 0.000381695 0)
(1.0431 -0.000998599 2.26064e-26)
(1.04408 -0.00295761 0)
(1.04602 -0.00501703 0)
(1.04892 -0.00724883 0)
(1.05279 -0.0095405 0)
(1.05754 -0.0119329 0)
(1.06204 -0.0140314 3.5133e-25)
(1.06598 -0.0153937 1.09468e-23)
(1.07068 -0.01584 5.15904e-24)
(1.07737 -0.0151918 1.62711e-22)
(1.08598 -0.0128225 -1.40911e-22)
(1.09595 -0.00762963 -6.09848e-25)
(1.10803 0.00237212 3.43607e-22)
(1.12705 0.0162056 -2.05593e-21)
(1.15288 0.0405431 -2.64841e-22)
(1.19418 0.0790368 -1.58321e-21)
(1.26137 0.135226 -7.38214e-22)
(1.30493 0.229164 1.10691e-21)
(0.536983 0.17505 -1.1726e-21)
(-0.0779513 0.101281 -2.24072e-21)
(-0.231277 0.252745 1.12525e-22)
(-0.00608411 0.357636 -5.3096e-22)
(0.246099 0.146505 1.18289e-21)
(1.30189 0.0414824 -1.30343e-21)
(1.36073 0.0152726 3.55661e-21)
(1.29644 -0.00753774 -1.86043e-21)
(1.24554 -0.0107948 1.0167e-23)
(1.19571 -0.0228838 6.2001e-22)
(1.16434 -0.0173859 -4.47441e-22)
(1.13803 -0.0136702 1.26941e-22)
(1.11559 -0.0103516 6.6782e-23)
(1.0964 -0.00809596 7.75132e-23)
(1.0801 -0.00646338 3.76445e-23)
(1.06673 -0.0049674 1.59449e-24)
(1.05722 -0.00342355 0)
(1.05073 -0.002244 0)
(1.04594 -0.00148356 0)
(1.04254 -0.000976209 0)
(1.04036 -0.000639283 0)
(1.03916 -0.000324622 0)
(1.04613 -0.00101475 -2.75102e-23)
(1.0471 -0.00231054 0)
(1.04912 -0.00373639 0)
(1.05208 -0.0051948 0)
(1.05597 -0.00669388 0)
(1.0606 -0.00829141 0)
(1.06453 -0.00967866 -6.78038e-25)
(1.06748 -0.0104971 -4.41338e-23)
(1.07121 -0.0108058 -5.88175e-23)
(1.0758 -0.0103485 2.46401e-22)
(1.08096 -0.00904835 -2.96866e-22)
(1.0857 -0.00638021 3.875e-22)
(1.08928 -0.000578705 -2.80142e-22)
(1.09713 0.0172657 -1.45133e-21)
(1.09553 0.0456174 -4.92002e-22)
(1.08741 0.107547 1.52549e-21)
(1.10116 0.199642 -6.01869e-21)
(1.04343 0.382576 -4.40533e-21)
(0.522838 0.594909 -1.25139e-21)
(-0.222001 0.71829 -1.59845e-20)
(-0.273024 0.671225 7.24147e-22)
(0.267474 0.451693 2.82669e-21)
(0.717245 0.147099 -1.85262e-21)
(1.40607 -0.0674961 9.68715e-22)
(1.37574 -0.0886161 4.38131e-21)
(1.29193 -0.0917617 2.45886e-21)
(1.23628 -0.0730543 -2.5017e-21)
(1.18231 -0.0678499 1.1819e-21)
(1.15323 -0.0516687 -1.53936e-21)
(1.12933 -0.0398193 2.18353e-22)
(1.109 -0.0301617 -2.8364e-22)
(1.09149 -0.0229763 1.26233e-22)
(1.07631 -0.017538 -3.40796e-24)
(1.06351 -0.013182 5.39944e-27)
(1.05464 -0.00955036 0)
(1.04882 -0.00678162 0)
(1.04454 -0.00471047 0)
(1.04146 -0.00308562 0)
(1.03948 -0.00169639 0)
(1.03849 -0.000523192 2.70647e-23)
(1.0481 -0.00017054 5.93759e-23)
(1.04905 -0.00105284 0)
(1.05087 -0.00185478 0)
(1.0538 -0.00263372 0)
(1.05778 -0.00340886 0)
(1.06244 -0.00426553 0)
(1.0662 -0.00521293 0)
(1.06851 -0.00610193 -6.50678e-25)
(1.07181 -0.00717892 -5.04265e-23)
(1.07621 -0.00907445 5.02264e-23)
(1.08018 -0.0114524 -4.70427e-23)
(1.08231 -0.0140532 2.18021e-22)
(1.07991 -0.0168744 -3.87631e-22)
(1.06374 -0.0207823 1.54957e-23)
(1.04559 0.00781489 -9.11645e-23)
(0.99668 0.0367186 7.61657e-22)
(0.930331 0.118268 9.08257e-22)
(0.728624 0.269629 2.96764e-20)
(0.197566 0.552639 5.76767e-21)
(-0.214615 0.611602 1.19454e-20)
(0.0698621 0.376838 -5.64166e-21)
(0.671206 0.0860729 2.16253e-20)
(1.12684 -0.178168 4.4814e-21)
(1.44008 -0.279917 -9.98416e-21)
(1.32173 -0.229381 -2.12175e-21)
(1.25305 -0.17861 -2.80884e-21)
(1.18246 -0.139917 -9.74044e-22)
(1.15085 -0.105741 1.35176e-21)
(1.12842 -0.0796416 -8.09074e-22)
(1.11003 -0.0604428 1.5021e-22)
(1.09433 -0.0452279 -1.03888e-22)
(1.0804 -0.0339622 7.13013e-23)
(1.06781 -0.0253928 -1.58645e-23)
(1.05685 -0.0188717 0)
(1.04953 -0.013824 0)
(1.04497 -0.00996832 0)
(1.04163 -0.00695298 0)
(1.0392 -0.00452462 0)
(1.0376 -0.00246463 0)
(1.03686 -0.000710717 1.07298e-24)
(1.04808 0.000178876 -3.62244e-24)
(1.04932 0.000301902 0)
(1.05135 0.000400872 0)
(1.05436 0.000351448 0)
(1.05844 0.000269177 0)
(1.06325 0.000118686 0)
(1.06739 -0.000414477 0)
(1.07024 -0.00170463 0)
(1.07428 -0.00406203 4.39343e-24)
(1.0797 -0.00797158 -1.28309e-24)
(1.0854 -0.0139512 1.6317e-24)
(1.08986 -0.0230101 3.10987e-23)
(1.08983 -0.0352562 1.72707e-22)
(1.0788 -0.060694 1.20063e-22)
(1.04178 -0.0630338 -4.78789e-22)
(0.974672 -0.0882604 1.0087e-21)
(0.838945 -0.0726969 1.89234e-21)
(0.414581 0.0778957 1.03772e-21)
(0.067128 0.139383 3.6735e-21)
(0.0846954 -0.0666067 -6.57134e-21)
(0.473549 -0.360275 4.98971e-21)
(0.945569 -0.546512 -3.9913e-21)
(1.27623 -0.567273 -5.85291e-21)
(1.2991 -0.447827 3.45786e-21)
(1.21419 -0.32193 6.03053e-23)
(1.17487 -0.244181 -2.72069e-21)
(1.11883 -0.17352 2.42657e-22)
(1.10429 -0.128023 -5.04382e-22)
(1.09273 -0.0960957 1.19227e-22)
(1.08283 -0.0718931 4.27492e-25)
(1.07387 -0.0530017 -2.29721e-23)
(1.06515 -0.0391427 -8.93513e-24)
(1.05633 -0.0287721 0)
(1.04821 -0.0211399 0)
(1.04299 -0.0155206 0)
(1.03994 -0.011284 0)
(1.03771 -0.00791254 7.32246e-24)
(1.03607 -0.0052099 1.01265e-23)
(1.03502 -0.00289932 6.03852e-24)
(1.03459 -0.000942519 0)
(1.04729 0.000400373 0)
(1.04854 0.00142043 0)
(1.0507 0.00248068 0)
(1.05381 0.00339202 0)
(1.05797 0.00419983 0)
(1.06304 0.00491444 0)
(1.06806 0.00513233 0)
(1.0725 0.00400683 0)
(1.07847 0.00122321 -9.28766e-26)
(1.08667 -0.00351302 1.07735e-23)
(1.09673 -0.0109754 -2.89475e-23)
(1.10869 -0.0235746 -6.11908e-23)
(1.12012 -0.0420664 1.87778e-22)
(1.12686 -0.0731119 -4.74635e-22)
(1.09832 -0.115116 8.04592e-23)
(1.05968 -0.190879 -4.42956e-22)
(0.78789 -0.235676 -2.82145e-21)
(0.353577 -0.235504 -1.17767e-21)
(0.339844 -0.414384 1.09725e-21)
(0.472254 -0.655051 -6.57674e-22)
(0.714097 -0.810639 1.50524e-21)
(0.931157 -0.807951 4.91145e-21)
(1.0425 -0.660279 -5.77374e-22)
(1.08508 -0.477239 5.17283e-22)
(1.07996 -0.347961 2.86106e-22)
(1.07032 -0.260427 1.78444e-21)
(1.0465 -0.177178 -2.662e-22)
(1.04995 -0.130006 3.96834e-22)
(1.05094 -0.0975331 -2.30038e-22)
(1.05122 -0.0720767 -1.42641e-23)
(1.05012 -0.0526114 1.71017e-24)
(1.04743 -0.0382551 2.79835e-26)
(1.04328 -0.0275054 0)
(1.03887 -0.0198121 0)
(1.03611 -0.0145525 0)
(1.03464 -0.0106736 0)
(1.03352 -0.00755816 0)
(1.03266 -0.00507182 0)
(1.0321 -0.00293871 0)
(1.03189 -0.000953442 -1.08755e-24)
(1.04567 0.000760911 0)
(1.04677 0.00249514 0)
(1.04883 0.00433523 0)
(1.05191 0.00622683 0)
(1.05612 0.00813089 0)
(1.0615 0.0100622 0)
(1.0677 0.011723 0)
(1.07441 0.0120997 0)
(1.08312 0.0107474 0)
(1.09479 0.00764299 0)
(1.11018 0.00249865 5.5403e-24)
(1.13057 -0.00683728 5.92298e-23)
(1.15706 -0.0225033 -2.00446e-22)
(1.18792 -0.0425155 3.51689e-22)
(1.19711 -0.10065 1.67419e-21)
(1.20031 -0.185913 1.63146e-22)
(0.879376 -0.301463 8.43096e-22)
(0.586679 -0.50707 -8.39517e-22)
(0.56306 -0.663266 -9.90851e-22)
(0.61882 -0.72914 -1.29609e-20)
(0.706269 -0.709616 1.05679e-21)
(0.791241 -0.624946 8.98611e-22)
(0.858435 -0.526891 -6.12566e-22)
(0.920717 -0.442433 -1.82196e-21)
(0.937261 -0.320915 2.99416e-21)
(0.966582 -0.230972 -3.8665e-22)
(0.976709 -0.151805 -3.96882e-23)
(0.996376 -0.109525 4.24525e-24)
(1.01065 -0.0815901 7.37501e-24)
(1.02049 -0.0595606 -4.25728e-24)
(1.02665 -0.0429992 0)
(1.02967 -0.0305837 0)
(1.03042 -0.0212968 0)
(1.03012 -0.0150059 0)
(1.03001 -0.0110577 0)
(1.02999 -0.00821214 0)
(1.02978 -0.00592452 0)
(1.02949 -0.00405166 0)
(1.02927 -0.00240348 0)
(1.02922 -0.000793283 0)
(1.04298 0.00116584 0)
(1.04387 0.00357693 0)
(1.04571 0.00612575 0)
(1.04856 0.00888276 0)
(1.05258 0.0119156 0)
(1.05796 0.0153014 0)
(1.0649 0.0189715 0)
(1.07344 0.022132 0)
(1.08432 0.0243216 0)
(1.09839 0.0256889 0)
(1.11712 0.0267702 0)
(1.14243 0.0270256 6.40913e-25)
(1.17767 0.024239 2.15251e-23)
(1.22586 0.026169 9.5715e-24)
(1.27502 -0.0141873 5.88466e-22)
(1.3352 -0.0612801 5.23301e-22)
(1.14914 -0.193737 1.27795e-21)
(0.878317 -0.415798 -3.36881e-21)
(0.718656 -0.613265 -1.95018e-21)
(0.643193 -0.715589 -4.60034e-21)
(0.619206 -0.715581 -9.25447e-22)
(0.646086 -0.629559 2.66496e-22)
(0.716899 -0.500173 -2.12434e-21)
(0.788871 -0.364795 6.4407e-22)
(0.809616 -0.233545 2.0316e-22)
(0.881053 -0.165716 -3.79372e-22)
(0.92048 -0.0945417 -1.4212e-22)
(0.953885 -0.0663225 2.54888e-23)
(0.979734 -0.0480382 -7.15868e-25)
(0.997169 -0.0343795 0)
(1.00888 -0.0241577 0)
(1.01634 -0.0164973 0)
(1.02103 -0.0109153 0)
(1.02411 -0.0075095 0)
(1.0261 -0.00564948 0)
(1.02703 -0.00433094 0)
(1.02731 -0.00322038 0)
(1.02729 -0.00222557 0)
(1.02719 -0.00131617 0)
(1.02716 -0.00043632 0)
(1.0392 0.00142484 0)
(1.03993 0.00438372 0)
(1.04145 0.00755303 0)
(1.04384 0.0110849 0)
(1.04725 0.0151682 0)
(1.05195 0.0199575 0)
(1.05855 0.0255916 0)
(1.06742 0.0317384 0)
(1.07869 0.0382358 0)
(1.09266 0.0454223 0)
(1.11063 0.0544736 5.66729e-23)
(1.13475 0.0664784 0)
(1.16691 0.0809808 0)
(1.21404 0.104609 -1.47027e-22)
(1.29292 0.140166 -1.82398e-21)
(1.37457 0.134141 1.49254e-21)
(1.33974 0.114985 -3.86027e-22)
(1.1735 -0.00167186 7.7669e-22)
(0.964736 -0.153392 2.52946e-22)
(0.772487 -0.27746 3.81359e-20)
(0.592987 -0.342052 1.33385e-21)
(0.505272 -0.340306 2.58764e-21)
(0.511401 -0.282019 7.32713e-22)
(0.586129 -0.189546 2.19744e-22)
(0.709868 -0.104674 -2.6756e-23)
(0.835077 -0.0330599 8.61113e-21)
(0.890741 -0.0121314 -9.41472e-22)
(0.933398 -0.00555372 0)
(0.965927 -0.00191456 0)
(0.987318 -0.000918582 1.11565e-23)
(1.00147 -3.49101e-05 0)
(1.01097 0.000702042 0)
(1.0176 0.00111079 0)
(1.02236 0.000886711 0)
(1.0252 0.000339739 0)
(1.02631 -6.08618e-05 0)
(1.02662 -0.000241149 0)
(1.0266 -0.000257117 -1.20515e-24)
(1.0265 -0.000184157 -8.64585e-25)
(1.02644 -4.73505e-05 0)
(1.03488 0.00148456 0)
(1.03536 0.00479418 0)
(1.03637 0.00838373 0)
(1.038 0.0124948 0)
(1.04037 0.017323 0)
(1.04376 0.0230901 0)
(1.049 0.030054 0)
(1.05662 0.0382567 0)
(1.06613 0.0480488 0)
(1.07718 0.0600355 0)
(1.09045 0.0757608 -1.19017e-22)
(1.10743 0.0968797 0)
(1.12856 0.125251 0)
(1.15856 0.163502 -5.83814e-23)
(1.20328 0.223771 -6.67051e-22)
(1.26686 0.319198 4.14017e-22)
(1.28055 0.428427 0)
(1.19813 0.504017 -1.09516e-21)
(1.04829 0.523837 1.11527e-20)
(0.870679 0.509363 3.98442e-20)
(0.701091 0.440186 1.7065e-22)
(0.602319 0.348321 1.01261e-21)
(0.581345 0.237488 -3.57015e-22)
(0.609533 0.139014 0)
(0.693114 0.081786 -4.56449e-21)
(0.79783 0.09489 -1.07745e-20)
(0.884482 0.0814235 -3.77308e-21)
(0.941012 0.0640415 0)
(0.975016 0.0472304 0)
(0.99432 0.0327131 1.49627e-22)
(1.00649 0.0231298 0)
(1.01461 0.0166046 0)
(1.0205 0.0118607 0)
(1.0249 0.00822755 0)
(1.02723 0.00544712 0)
(1.0277 0.00345753 2.18028e-24)
(1.02749 0.00209283 -2.83323e-24)
(1.02717 0.00118272 0)
(1.02691 0.000558182 0)
(1.02674 0.000134681 -6.658e-24)
(1.03043 0.00159526 0)
(1.03046 0.00494785 0)
(1.03081 0.00862428 0)
(1.03154 0.0128311 0)
(1.03268 0.0177636 0)
(1.03447 0.0237058 0)
(1.0378 0.0310229 -1.07206e-24)
(1.0431 0.0399788 0)
(1.04924 0.0512755 0)
(1.05534 0.065734 0)
(1.06158 0.0848716 0)
(1.0683 0.110185 0)
(1.07552 0.14431 0)
(1.08486 0.188602 -2.6085e-22)
(1.09113 0.247279 -2.92486e-24)
(1.10432 0.330749 -7.82384e-23)
(1.11031 0.440611 0)
(1.07348 0.539796 0)
(0.991123 0.6029 2.54398e-21)
(0.886141 0.626024 1.35593e-20)
(0.78561 0.602532 1.83792e-20)
(0.74564 0.542786 -1.60732e-21)
(0.745301 0.460525 0)
(0.760204 0.365028 0)
(0.767262 0.266457 0)
(0.825989 0.221303 9.26702e-23)
(0.917853 0.170965 8.24265e-21)
(0.985026 0.123093 1.52133e-22)
(1.00995 0.085894 0)
(1.01877 0.0577736 0)
(1.02343 0.0397402 0)
(1.02626 0.0274053 0)
(1.02871 0.0187962 9.56773e-24)
(1.03091 0.0127114 3.92086e-24)
(1.03157 0.00839347 1.97528e-25)
(1.03073 0.00539301 0)
(1.02956 0.00331998 0)
(1.02858 0.00189249 0)
(1.02786 0.000904432 0)
(1.02736 0.000208972 0)
(1.0259 0.00168029 0)
(1.02563 0.00471124 0)
(1.02546 0.00800786 0)
(1.02543 0.0116674 0)
(1.02542 0.0159632 0)
(1.02558 0.0211785 0)
(1.02674 0.0277981 0)
(1.02912 0.036314 0)
(1.03117 0.0474359 -1.43947e-24)
(1.03165 0.0619714 0)
(1.03047 0.0810662 0)
(1.0271 0.106206 0)
(1.02097 0.13869 -5.95802e-22)
(1.01517 0.181053 -1.71658e-21)
(1.00582 0.23108 0)
(0.988164 0.290219 0)
(0.973471 0.366724 0)
(0.948034 0.45026 0)
(0.899665 0.522443 -5.40478e-21)
(0.846613 0.574468 -1.61547e-20)
(0.804312 0.585292 1.35283e-20)
(0.803611 0.560632 -5.6426e-21)
(0.819793 0.522175 0)
(0.859696 0.464338 0)
(0.874629 0.380345 0)
(0.92315 0.294425 0)
(1.00982 0.208078 4.5238e-22)
(1.06022 0.143141 -3.73462e-22)
(1.06351 0.0980162 0)
(1.05543 0.0655952 -2.74194e-25)
(1.04821 0.0446526 3.1046e-24)
(1.04301 0.0300432 3.73744e-24)
(1.04021 0.0199648 0)
(1.03889 0.0130225 0)
(1.03703 0.0083656 0)
(1.03445 0.00528318 0)
(1.03209 0.00322561 0)
(1.03031 0.00186048 0)
(1.02904 0.000950426 0)
(1.02818 0.000292014 0)
(1.02179 0.00123119 0)
(1.02157 0.00361115 0)
(1.0212 0.00604598 0)
(1.02061 0.00868346 0)
(1.01964 0.0117789 0)
(1.01832 0.0155468 0)
(1.01721 0.0205091 0)
(1.01641 0.0274047 0)
(1.01432 0.0368248 0)
(1.00956 0.0493718 0)
(1.0015 0.0658271 3.41941e-23)
(0.989484 0.0878772 -9.21467e-23)
(0.97294 0.116168 8.28316e-22)
(0.955962 0.153269 1.52656e-21)
(0.937475 0.202882 0)
(0.906285 0.260742 0)
(0.874944 0.328807 0)
(0.843071 0.406634 0)
(0.810244 0.475738 1.23143e-20)
(0.793503 0.541008 -1.63326e-20)
(0.79663 0.553597 4.40042e-21)
(0.825143 0.541572 -1.53685e-20)
(0.865269 0.501944 0)
(0.933941 0.445267 0)
(0.990851 0.361943 0)
(1.05939 0.265779 0)
(1.1254 0.171748 -2.08407e-22)
(1.14105 0.113215 1.79738e-21)