/*--------------------------------*- C++ -*----------------------------------*\
| =========                 |                                                 |
| \\      /  F ield         | OpenFOAM: The Open Source CFD Toolbox           |
|  \\    /   O peration     | Version:  v2106                                 |
|   \\  /    A nd           | Website:  www.openfoam.com                      |
|    \\/     M anipulation  |                                                 |
\*---------------------------------------------------------------------------*/
FoamFile
{
    version     2.0;
    format      ascii;
    arch        "LSB;label=32;scalar=64";
    class       volScalarField;
    location    "0";
    object      p;
}
// * * * * * * * * * * * * * * * * * * * * * * * * * * * * * * * * * * * * * //

dimensions      [0 2 -2 0 0 0 0];

internalField   nonuniform List<scalar> 
11644
(
-0.0054128
-0.00749566
-0.0113075
-0.0166038
-0.0236575
-0.0323695
-0.042474
-0.0534896
-0.0647729
-0.0755237
-0.0847473
-0.0916053
-0.0951764
-0.0941779
-0.0888912
-0.079022
-0.0663291
-0.0529773
-0.0419163
-0.0306339
-0.0219348
-0.0186029
-0.0201832
-0.0220583
-0.0257429
-0.0302692
-0.033383
-0.0354895
-0.036727
-0.036636
-0.0358174
-0.0345461
-0.0330153
-0.0315184
-0.0301983
-0.029128
-0.0284058
-0.0278463
-0.027316
-0.0268929
0.000890308
-0.00110724
-0.00525963
-0.0114581
-0.0193854
-0.0287793
-0.0395753
-0.0514198
-0.0636757
-0.0754656
-0.0860677
-0.0943008
-0.0985225
-0.100048
-0.0959386
-0.0868228
-0.0748891
-0.0599973
-0.0463253
-0.0339219
-0.0288337
-0.0260674
-0.0258402
-0.0271772
-0.0295848
-0.0320239
-0.034735
-0.0358135
-0.0354011
-0.0347033
-0.0336711
-0.0323108
-0.030896
-0.0294994
-0.0281388
-0.0269598
-0.0258335
-0.024836
-0.0240764
-0.0237171
0.00611124
0.00466619
0.00117523
-0.00462172
-0.0124467
-0.0221245
-0.0333005
-0.0456928
-0.0587854
-0.0720963
-0.0845024
-0.0949965
-0.103037
-0.105864
-0.104384
-0.0967798
-0.0832192
-0.0667358
-0.0533903
-0.0395532
-0.0304111
-0.0227415
-0.0212188
-0.0225518
-0.0260301
-0.0283102
-0.0286899
-0.0293994
-0.0292371
-0.0282523
-0.0272347
-0.0263442
-0.0255048
-0.0248041
-0.0241569
-0.0236656
-0.0232574
-0.0230622
-0.0232356
-0.0236787
0.0122841
0.0109933
0.00793503
0.00304734
-0.00383143
-0.0127591
-0.0235627
-0.0360222
-0.0499252
-0.064616
-0.0797335
-0.0949696
-0.106977
-0.117729
-0.12079
-0.11489
-0.102208
-0.0836126
-0.0647395
-0.0457986
-0.0303239
-0.0201477
-0.0155815
-0.0148333
-0.0154779
-0.0162271
-0.0167146
-0.0153949
-0.0150206
-0.0151368
-0.0151684
-0.0155381
-0.0163541
-0.0173933
-0.0186926
-0.0200373
-0.0214864
-0.0229586
-0.0243031
-0.0251833
0.0198191
0.0185352
0.0157908
0.0115884
0.00580729
-0.00187665
-0.0117105
-0.0237816
-0.0382131
-0.055072
-0.074625
-0.094544
-0.113813
-0.124935
-0.130373
-0.127103
-0.112841
-0.0970076
-0.0800353
-0.0600416
-0.0393929
-0.0229633
-0.00953447
-0.00211337
-0.00125069
0.00174873
0.00622362
0.00721044
0.00797561
0.00600001
0.0023081
-0.00103499
-0.00476295
-0.00900448
-0.0133827
-0.0176301
-0.0215424
-0.024826
-0.0271358
-0.0283099
0.0285234
0.0271254
0.0245225
0.0206498
0.0154944
0.00878087
0.000110169
-0.0110847
-0.0258551
-0.0445315
-0.0655432
-0.0879739
-0.107075
-0.133019
-0.150885
-0.152068
-0.139254
-0.136368
-0.120096
-0.0916313
-0.0618132
-0.0386984
-0.0170228
0.00374328
0.0184174
0.0238362
0.0286877
0.0370885
0.0353886
0.0318102
0.02438
0.0153515
0.00644282
-0.00214979
-0.0105006
-0.0182435
-0.0248319
-0.0298996
-0.0332202
-0.0349585
0.0369202
0.0357329
0.0332371
0.029667
0.0246877
0.0183049
0.0102444
-0.000237798
-0.0144387
-0.0315418
-0.0514634
-0.0729885
-0.102438
-0.120726
-0.144037
-0.181129
-0.195366
-0.16578
-0.139852
-0.109743
-0.077312
-0.03781
-0.00423677
0.0238253
0.0616955
0.0738484
0.079127
0.0744864
0.0675076
0.0585239
0.0458695
0.0306029
0.0142459
-0.000295651
-0.0132352
-0.0243627
-0.0333211
-0.040023
-0.0444121
-0.0465123
0.0453121
0.043815
0.0412771
0.0372698
0.0321444
0.0254766
0.0172658
0.00668924
-0.00614592
-0.0203519
-0.039083
-0.0640416
-0.0779416
-0.126129
-0.154078
-0.175816
-0.19969
-0.189783
-0.157096
-0.113297
-0.06056
-0.00674888
0.0385889
0.0653812
0.0954829
0.123795
0.110364
0.123217
0.0955127
0.0781038
0.0571818
0.0357017
0.0129445
-0.00775405
-0.0245981
-0.0384306
-0.0493077
-0.0571421
-0.0623715
-0.0649987
0.0528581
0.0516806
0.0487566
0.0442347
0.0382311
0.0305261
0.0212598
0.00942028
-0.00360604
-0.0182755
-0.0358241
-0.0590081
-0.0890781
-0.140279
-0.17129
-0.195538
-0.217698
-0.227368
-0.215996
-0.163035
-0.0900494
-0.000761344
0.0762792
0.114541
0.152649
0.162007
0.143176
0.146818
0.114407
0.0837375
0.0513705
0.0225627
-0.00387675
-0.0282059
-0.0471671
-0.0622185
-0.0739968
-0.0828389
-0.0886033
-0.0913991
0.0622209
0.0605201
0.0567436
0.0513518
0.0436839
0.0342482
0.0223955
0.00747487
-0.0086935
-0.028246
-0.0519687
-0.080972
-0.111641
-0.160314
-0.182719
-0.246113
-0.272725
-0.296149
-0.294963
-0.222407
-0.0911029
0.0556927
0.15685
0.209469
0.22129
0.217418
0.171159
0.131041
0.0935022
0.0567242
0.0206363
-0.0110745
-0.038419
-0.063158
-0.0822522
-0.0969912
-0.108306
-0.116703
-0.122151
-0.1253
0.0757706
0.073212
0.0684697
0.0609382
0.0511101
0.0390369
0.0236292
0.00454063
-0.0170017
-0.0427359
-0.0717706
-0.11233
-0.146206
-0.160894
-0.225184
-0.277643
-0.347993
-0.408188
-0.449398
-0.391799
-0.106947
0.230654
0.357739
0.349881
0.296687
0.226207
0.167423
0.0830653
0.0352328
0.000182568
-0.0337808
-0.0638627
-0.0889561
-0.111032
-0.128181
-0.141207
-0.151597
-0.15881
-0.163869
-0.165847
0.0932824
0.0910252
0.0853415
0.0766401
0.0647711
0.0496824
0.0309315
0.00772535
-0.0182165
-0.0494468
-0.082203
-0.125912
-0.166252
-0.183969
-0.258408
-0.29941
-0.380322
-0.501555
-0.69937
0.770169
0.500328
0.3249
0.183912
0.099874
0.00461592
-0.0427302
-0.0759447
-0.104646
-0.12924
-0.149768
-0.167647
-0.181737
-0.192177
-0.200888
-0.206863
-0.210363
-0.212096
0.121738
0.117542
0.110234
0.100494
0.0873044
0.071074
0.0513497
0.026854
0.000263005
-0.0306812
-0.0627447
-0.100695
-0.132969
-0.16012
-0.224609
-0.265906
-0.334844
-0.44264
-0.710283
0.822966
0.476045
0.263336
0.106571
0.0120811
-0.0846331
-0.12683
-0.155115
-0.177365
-0.196337
-0.212507
-0.226334
-0.237332
-0.245813
-0.252651
-0.257573
-0.260207
-0.263043
0.162052
0.156595
0.149953
0.139764
0.127416
0.111957
0.0945981
0.0732914
0.0487014
0.0227243
-0.00497337
-0.0189261
-0.0564948
-0.0701171
-0.119092
-0.148983
-0.177595
-0.189339
-0.255532
0.322775
0.208285
0.0973322
0.00469111
-0.0722753
-0.143189
-0.195409
-0.216278
-0.237586
-0.254819
-0.269872
-0.281011
-0.289377
-0.29686
-0.302943
-0.307667
-0.310076
-0.308326
0.208055
0.206377
0.204516
0.19669
0.188125
0.175187
0.163334
0.147463
0.126616
0.110514
0.0998078
0.0878105
0.0669944
0.0306221
-0.0110278
-0.0314219
-0.0196738
0.0500565
0.252215
0.0632388
-0.0145658
0.12735
-0.171506
-0.124052
-0.10966
-0.109581
-0.122023
-0.19219
-0.230692
-0.259797
-0.272452
-0.30264
-0.317704
-0.328435
-0.334882
-0.341503
-0.344434
-0.348031
-0.345704
-0.345942
0.268338
0.266157
0.266113
0.264611
0.261122
0.256106
0.250932
0.241981
0.236111
0.229668
0.224464
0.210346
0.199491
0.18754
0.0852852
0.0891234
0.0354932
0.0871919
0.32022
-0.215411
0.290651
0.645042
-0.268926
-0.40907
-0.260132
-0.193647
-0.156338
-0.241879
-0.266352
-0.299321
-0.32375
-0.343606
-0.35862
-0.369887
-0.375147
-0.379242
-0.381104
-0.382355
-0.382716
-0.385627
0.334599
0.333946
0.336432
0.338195
0.340819
0.344653
0.348622
0.346341
0.348926
0.346395
0.340208
0.337494
0.293027
0.31381
0.246273
0.224244
0.134743
0.0559582
0.00874079
0.509197
0.095065
-0.379975
-0.206327
-0.41291
-0.261703
-0.245757
-0.304381
-0.287644
-0.333488
-0.353931
-0.379712
-0.393703
-0.404093
-0.415188
-0.418721
-0.419735
-0.421013
-0.42253
-0.423785
-0.427428
0.397501
0.400412
0.405995
0.41212
0.420595
0.429005
0.440351
0.457718
0.467384
0.470556
0.475101
0.487963
0.468018
0.417321
0.387821
0.323564
0.353417
0.330375
0.263083
0.517922
0.14232
-0.0781187
-0.328222
-0.312268
-0.296669
-0.33309
-0.404412
-0.43603
-0.468402
-0.461637
-0.465485
-0.465557
-0.467593
-0.46433
-0.466305
-0.466308
-0.464643
-0.463369
-0.461365
-0.461129
0.460373
0.463329
0.468548
0.475458
0.486138
0.501791
0.513375
0.532625
0.559612
0.589867
0.612816
0.647702
0.694808
0.632619
0.48063
0.460155
0.412845
0.81829
0.641616
0.0824091
-0.277162
-0.329767
-0.398116
-0.24699
-0.442329
-0.479067
-0.596346
-0.663341
-0.607153
-0.577949
-0.557793
-0.534272
-0.518605
-0.510285
-0.511566
-0.50554
-0.501335
-0.498459
-0.495839
-0.494324
0.512006
0.514606
0.521136
0.531583
0.545323
0.564512
0.587353
0.601912
0.63428
0.675488
0.725895
0.756162
0.815275
0.8366
0.725466
0.780849
0.500793
0.0885112
0.382941
0.669144
0.278932
-0.0454955
-0.0511617
-0.269978
-0.739696
-0.756563
-0.733465
-0.723152
-0.697559
-0.661628
-0.623989
-0.592035
-0.570307
-0.563837
-0.55151
-0.539366
-0.532743
-0.527848
-0.524652
-0.52239
0.554953
0.557166
0.563944
0.576073
0.592421
0.613238
0.639607
0.66687
0.700381
0.740888
0.798371
0.884757
0.999736
1.07606
1.05102
1.23512
1.31452
1.18775
0.535768
-0.0719904
-0.466508
-0.785898
-1.23473
-1.46063
-1.11324
-0.916187
-0.950228
-0.849564
-0.777085
-0.722914
-0.680121
-0.647877
-0.621841
-0.601795
-0.581576
-0.566516
-0.557001
-0.550243
-0.546967
-0.545346
0.589327
0.593458
0.600409
0.610578
0.625401
0.644625
0.670758
0.703637
0.739319
0.780533
0.832236
0.941504
1.0082
1.35425
1.39932
1.34472
1.88438
2.18746
1.16676
0.375535
-0.22012
-0.907757
-1.33908
-1.62796
-1.21162
-1.18016
-1.13693
-0.919342
-0.847728
-0.769828
-0.721443
-0.684716
-0.652087
-0.625068
-0.603387
-0.587453
-0.576399
-0.569501
-0.565014
-0.563052
0.615108
0.618868
0.626287
0.636838
0.650399
0.664944
0.68793
0.717173
0.761923
0.808405
0.864426
0.968509
1.05371
1.2931
1.06446
1.61665
2.1965
3.5822
0.196126
0.79436
-1.75098
-0.894906
-3.14754
-1.86899
-1.3091
-0.676926
-1.22878
-0.963649
-0.882688
-0.802061
-0.749939
-0.70767
-0.669809
-0.644478
-0.619417
-0.606149
-0.595709
-0.587886
-0.581987
-0.579109
0.633969
0.635446
0.642877
0.652827
0.666227
0.682539
0.704691
0.730544
0.766193
0.804473
0.849514
0.908167
0.950872
1.15374
1.10023
0.952784
0.620435
0.800337
1.34086
2.33661
-2.61342
-1.33458
-0.687167
-0.684072
-1.04004
-1.16608
-1.15274
-0.942535
-0.868742
-0.811919
-0.764503
-0.726816
-0.689374
-0.663503
-0.638932
-0.622161
-0.609821
-0.600982
-0.594601
-0.593053
0.650223
0.654106
0.659384
0.6675
0.679829
0.695547
0.715782
0.742576
0.772708
0.805821
0.841217
0.869518
0.927465
0.967686
1.06595
1.4318
1.41215
1.20002
1.04366
0.79527
-0.719689
-1.03113
-1.24853
-1.63023
-1.50018
-1.14167
-0.965751
-0.913422
-0.844355
-0.813725
-0.775463
-0.739693
-0.706284
-0.677011
-0.653929
-0.636857
-0.623125
-0.613667
-0.608001
-0.604513
0.65735
0.659508
0.666862
0.677007
0.690033
0.706088
0.72551
0.751203
0.783621
0.820103
0.87227
0.882643
0.957338
0.960784
0.870955
1.01444
1.27623
1.12612
0.804262
0.369638
-0.862466
-1.16014
-1.30188
-1.29966
-0.937178
-0.790037
-0.856627
-0.904172
-0.816782
-0.826644
-0.776094
-0.742742
-0.709913
-0.684378
-0.663952
-0.646637
-0.632859
-0.622349
-0.615342
-0.613198
0.655843
0.660175
0.66554
0.67527
0.688896
0.706017
0.727505
0.757731
0.788525
0.809683
0.849548
0.89993
0.955534
1.08687
1.21153
1.08424
0.749356
0.885088
-0.0739393
0.0218306
-0.486526
-0.282592
-0.940624
-0.611805
-0.918375
-0.984058
-0.932711
-0.854039
-0.811848
-0.783438
-0.749194
-0.740698
-0.714869
-0.689339
-0.668756
-0.650536
-0.63631
-0.626933
-0.62132
-0.61691
0.649143
0.653018
0.659235
0.669132
0.682489
0.698865
0.719393
0.746159
0.774979
0.803323
0.827993
0.830426
0.839064
0.844328
1.01484
1.20327
1.09512
0.96818
0.500816
0.491033
-0.484443
-0.492331
-0.720701
-0.880465
-1.03318
-0.932518
-0.782448
-0.730085
-0.752948
-0.758879
-0.748109
-0.734176
-0.711342
-0.689203
-0.669503
-0.650955
-0.636768
-0.625777
-0.618131
-0.615155
0.638201
0.641612
0.6467
0.654743
0.667434
0.684279
0.702655
0.725345
0.75951
0.786881
0.814801
0.787201
0.828598
0.758349
0.723916
0.807999
0.691228
0.702296
0.640553
0.488788
-0.625188
-0.759649
-0.809515
-0.755279
-0.783315
-0.640202
-0.644022
-0.733187
-0.731215
-0.771588
-0.747096
-0.730489
-0.700554
-0.679955
-0.658872
-0.642189
-0.629398
-0.621189
-0.61608
-0.612634
0.621284
0.6216
0.628106
0.637049
0.649264
0.664418
0.681296
0.701119
0.727114
0.746717
0.781889
0.693102
0.743359
0.819505
0.801314
0.691435
0.416639
0.420049
-0.00702193
-0.0393312
-0.513247
-0.47079
-0.655224
-0.603403
-0.710852
-0.800946
-0.816438
-0.731384
-0.668121
-0.759163
-0.726803
-0.705931
-0.680965
-0.664393
-0.645508
-0.630117
-0.617912
-0.608616
-0.60174
-0.600459
0.602829
0.603847
0.607638
0.613601
0.622418
0.633293
0.646108
0.662566
0.681352
0.69872
0.70501
0.667232
0.608114
0.538421
0.629713
0.708183
0.549485
0.497498
0.26678
0.131885
-0.558846
-0.632302
-0.694142
-0.78623
-0.855907
-0.779226
-0.607041
-0.652252
-0.66608
-0.689139
-0.681567
-0.664931
-0.646139
-0.630951
-0.61739
-0.605468
-0.595235
-0.587631
-0.58227
-0.581418
0.579171
0.581557
0.584134
0.587672
0.59273
0.599929
0.608098
0.619393
0.627501
0.637897
0.643932
0.633336
0.62782
0.565944
0.427188
0.386021
0.256182
0.297759
0.128187
0.264019
-0.602339
-0.545335
-0.540695
-0.491806
-0.490843
-0.495451
-0.575481
-0.624355
-0.613653
-0.618217
-0.612234
-0.608094
-0.598667
-0.591096
-0.581406
-0.574078
-0.568087
-0.564482
-0.561488
-0.558481
0.544693
0.544727
0.547649
0.551607
0.556664
0.562248
0.567988
0.574212
0.575486
0.588917
0.581916
0.560318
0.54968
0.568918
0.565801
0.472078
0.300908
0.249381
-0.0970551
-0.137078
-0.172418
-0.200355
-0.447332
-0.477076
-0.54543
-0.555908
-0.483351
-0.459865
-0.496729
-0.535723
-0.548594
-0.553395
-0.551995
-0.549318
-0.543966
-0.539492
-0.534389
-0.530383
-0.526568
-0.526747
0.511726
0.511526
0.511148
0.511821
0.513213
0.515033
0.516272
0.518853
0.523369
0.529435
0.540543
0.509436
0.474868
0.436742
0.419527
0.421767
0.409167
0.339541
0.170593
0.168127
-0.170764
-0.246625
-0.284475
-0.30299
-0.306537
-0.323189
-0.351592
-0.422618
-0.458424
-0.48687
-0.500632
-0.503001
-0.502778
-0.502492
-0.501617
-0.500198
-0.497975
-0.497082
-0.496452
-0.497093
0.480312
0.481159
0.480931
0.480985
0.47981
0.478433
0.47605
0.473652
0.473639
0.470546
0.467017
0.45375
0.422228
0.382315
0.307154
0.304466
0.309727
0.317103
0.205711
0.25712
0.0705005
-0.0292261
-0.204526
-0.191008
-0.273208
-0.29725
-0.359482
-0.398213
-0.412044
-0.428448
-0.446322
-0.458104
-0.463723
-0.466104
-0.46744
-0.468482
-0.469281
-0.469747
-0.469869
-0.467195
0.445942
0.446922
0.447054
0.447649
0.446803
0.444851
0.439895
0.437153
0.432767
0.429804
0.412179
0.391176
0.385883
0.374183
0.3289
0.257292
0.198023
0.287376
-0.230881
-0.311772
0.355715
0.108912
-0.387689
-0.355093
-0.411102
-0.423581
-0.379493
-0.362773
-0.362381
-0.389261
-0.410845
-0.420157
-0.427179
-0.431218
-0.433435
-0.434868
-0.435269
-0.434807
-0.434679
-0.43391
0.417627
0.418079
0.415609
0.412854
0.409439
0.406862
0.402381
0.398409
0.394323
0.390664
0.378596
0.351252
0.275838
0.198741
0.158718
0.166206
0.129832
0.141199
0.0379894
-0.00740481
-0.221659
-0.27874
-0.310171
-0.31232
-0.328142
-0.280534
-0.266003
-0.329797
-0.374799
-0.373781
-0.383746
-0.385305
-0.388986
-0.391147
-0.394446
-0.396089
-0.398591
-0.400004
-0.401742
-0.401073
0.387529
0.387181
0.386527
0.385739
0.383095
0.382607
0.378721
0.374707
0.367636
0.35582
0.324626
0.301408
0.290147
0.272644
0.192916
0.129706
0.00674622
0.0036772
-0.0753626
-0.126291
-0.0250466
-0.104952
-0.150539
-0.163828
-0.239205
-0.294818
-0.33013
-0.332173
-0.312733
-0.317176
-0.347012
-0.355416
-0.362236
-0.364654
-0.366576
-0.366903
-0.368261
-0.368719
-0.369443
-0.369466
0.360164
0.36055
0.359721
0.359176
0.357872
0.356605
0.355165
0.353273
0.351042
0.346577
0.329286
0.2999
0.249939
0.226778
0.207352
0.18583
0.138044
0.118958
0.0284596
-0.0676393
-0.0817192
-0.195168
-0.231569
-0.288439
-0.311157
-0.30267
-0.257647
-0.237884
-0.260869
-0.295019
-0.312452
-0.328821
-0.33322
-0.335002
-0.337238
-0.338507
-0.339821
-0.341041
-0.341918
-0.341922
0.338723
0.340612
0.339163
0.336984
0.334998
0.333782
0.332114
0.330842
0.32836
0.324084
0.316789
0.301205
0.268982
0.207223
0.123043
0.102986
0.0232934
0.0381837
-0.0441833
-0.0824237
-0.0578782
-0.129568
-0.125089
-0.114829
-0.131117
-0.109523
-0.16307
-0.218079
-0.247123
-0.274216
-0.289485
-0.300822
-0.306656
-0.310457
-0.313385
-0.313582
-0.315799
-0.316865
-0.317626
-0.316294
0.312826
0.312483
0.313093
0.313884
0.3137
0.313483
0.312506
0.313356
0.308011
0.298098
0.271995
0.255533
0.251636
0.25609
0.204686
0.141373
0.0550859
0.00489448
-0.0177036
0.0481617
-0.0605088
-0.0228981
0.0224274
-0.0193554
-0.058517
-0.131226
-0.189898
-0.217357
-0.223073
-0.237642
-0.268312
-0.282965
-0.287108
-0.290461
-0.291144
-0.291182
-0.290414
-0.289239
-0.288528
-0.288096
0.286568
0.285346
0.284058
0.283813
0.282467
0.283289
0.283476
0.284904
0.291487
0.283858
0.251887
0.213126
0.156136
0.13909
0.0982748
0.0772332
0.0413322
0.0302212
0.0162771
0.0117689
-0.00643137
-0.047342
-0.119037
-0.114011
-0.128582
-0.146902
-0.150403
-0.144559
-0.179605
-0.223708
-0.24662
-0.267239
-0.258573
-0.261742
-0.258532
-0.258427
-0.25749
-0.258673
-0.260451
-0.26083
0.263657
0.264272
0.262679
0.260933
0.258588
0.258363
0.257487
0.253298
0.261166
0.254836
0.24113
0.206273
0.141538
0.0702533
0.0100646
0.00121566
-0.0529842
-0.0291796
-0.0737076
-0.0979971
-0.15301
-0.183215
-0.1409
-0.162771
-0.156639
-0.15018
-0.14425
-0.178785
-0.211723
-0.214704
-0.225635
-0.230456
-0.230661
-0.23392
-0.227408
-0.229774
-0.229736
-0.231248
-0.232382
-0.231433
0.24273
0.241411
0.241168
0.240174
0.238089
0.235656
0.232948
0.227607
0.221327
0.206703
0.172347
0.129667
0.120199
0.102107
0.0309017
-0.0418036
-0.110052
-0.110677
-0.102553
-0.0618361
-0.210711
-0.188819
-0.113843
-0.100191
-0.0917316
-0.134605
-0.154287
-0.157232
-0.139801
-0.163591
-0.185426
-0.19284
-0.197115
-0.200892
-0.201891
-0.203163
-0.203899
-0.203594
-0.203589
-0.205002
0.219221
0.219133
0.217143
0.213765
0.209939
0.205396
0.199619
0.194588
0.186147
0.17347
0.146124
0.109832
0.0426164
0.00359541
-0.0717712
-0.101343
-0.116517
-0.126123
-0.102486
-0.029377
-0.141201
-0.057883
-0.0135564
-0.0287443
0.00134188
0.00110685
-0.0273329
-0.0589573
-0.101258
-0.129413
-0.143263
-0.152257
-0.158608
-0.16356
-0.168259
-0.170679
-0.175098
-0.178768
-0.181519
-0.180961
0.194894
0.193666
0.191228
0.188143
0.184047
0.178812
0.172459
0.168483
0.156481
0.14535
0.122589
0.0974994
0.0695327
0.0135342
-0.0554488
-0.100468
-0.167865
-0.11624
-0.0947582
-0.105918
-0.00582705
-0.00901241
0.0408451
0.0598805
0.0115952
-0.0165854
-0.0437184
-0.0659057
-0.057144
-0.0708543
-0.100204
-0.117502
-0.127817
-0.133137
-0.139607
-0.144143
-0.147852
-0.150409
-0.152245
-0.153621
0.174373
0.171804
0.168756
0.164889
0.159669
0.153631
0.146468
0.138855
0.128915
0.120085
0.0879127
0.0612412
0.043731
0.0280223
-0.00384632
-0.0414766
-0.0703091
-0.109184
-0.0909854
0.00416985
-0.0464769
0.0511101
0.049484
0.0482673
0.0367609
0.0310628
0.0178273
-0.00103143
-0.0152872
-0.0456915
-0.077754
-0.0885125
-0.0961708
-0.10395
-0.110401
-0.11589
-0.119201
-0.122051
-0.124253
-0.127418
0.159306
0.157724
0.154425
0.149315
0.142911
0.135231
0.126443
0.119723
0.108401
0.0947475
0.0691344
0.0485055
0.0224861
0.00261826
-0.0215203
-0.0406264
-0.0606092
-0.0792531
-0.0199293
0.0298918
-0.0171834
0.0297921
0.0732613
0.0819843
0.0699235
0.0524747
0.0464519
0.0164215
-0.00680098
-0.0313226
-0.0495131
-0.0604804
-0.0751995
-0.0825745
-0.0876386
-0.0943265
-0.0996377
-0.104622
-0.108237
-0.108439
0.144074
0.144079
0.142077
0.139283
0.133802
0.126368
0.118295
0.108563
0.096498
0.0846257
0.0670894
0.0449776
0.0155213
-0.0350188
-0.0967195
-0.120905
-0.2463
-0.248161
-0.24454
-0.354134
0.211504
0.0927709
0.204107
0.224731
0.0151358
0.00487182
-0.00442367
-0.0280753
-0.018413
-0.0224831
-0.0404193
-0.0486894
-0.059718
-0.06821
-0.0753427
-0.0811411
-0.0856609
-0.0863811
-0.0885039
-0.0887463
0.136449
0.13452
0.131627
0.125954
0.12028
0.113444
0.105949
0.0970929
0.0851981
0.0746959
0.0492507
0.0161875
-0.0140935
-0.0391793
-0.0901957
-0.131618
-0.181605
-0.208733
-0.197091
-0.161338
-0.0887424
-0.0370646
0.029452
0.0465834
0.0112017
-0.00218507
-0.00113039
-0.00222315
0.000913737
-0.0201514
-0.0334451
-0.0382462
-0.0451499
-0.0500775
-0.0561404
-0.0604268
-0.0649446
-0.0679805
-0.070225
-0.0723145
0.126008
0.124162
0.121827
0.11882
0.115252
0.110929
0.105359
0.0986183
0.0888823
0.0790406
0.0671538
0.0606591
0.0419395
0.00726754
-0.0352909
-0.0646361
-0.108755
-0.134839
-0.1209
-0.110115
-0.0645276
-0.0391355
-0.0108305
0.000899884
0.0109921
0.0167648
0.0099853
-0.0125275
-0.0250142
-0.0286834
-0.0315343
-0.0326106
-0.0386289
-0.0417496
-0.0458475
-0.0476006
-0.050877
-0.0536385
-0.0562167
-0.0578149
0.117322
0.115105
0.114506
0.114231
0.113036
0.111133
0.108598
0.106368
0.103962
0.0934057
0.0843729
0.0750726
0.0714487
0.0686745
0.0429932
0.0336265
0.00744001
-0.0075772
-0.0311972
-0.0822072
-0.0576432
-0.0690155
-0.0588167
-0.0635851
-0.053919
-0.049097
-0.0443724
-0.0399087
-0.0233306
-0.0157394
-0.024197
-0.0306075
-0.0357691
-0.0384625
-0.0403188
-0.0418827
-0.0430426
-0.0440521
-0.0449118
-0.0468764
0.116276
0.116187
0.115032
0.113001
0.110368
0.108067
0.106628
0.10567
0.105392
0.103027
0.0954639
0.0735764
0.0429749
0.0316338
-0.0081441
-0.00905779
-0.0113625
-0.0212345
-0.0362088
-0.0738191
-0.0615987
-0.0537612
-0.0438757
-0.0219784
-0.00172826
0.0140541
0.0201449
0.00760719
0.00154064
-0.0139622
-0.0274702
-0.0294023
-0.0320494
-0.0327625
-0.0336061
-0.0352867
-0.0365384
-0.0381917
-0.0387734
-0.0386605
0.111799
0.112272
0.112596
0.111734
0.111015
0.110127
0.108322
0.105798
0.102045
0.099402
0.0911919
0.097115
0.085325
0.0602264
0.0156684
-0.0293188
-0.0531786
-0.102024
-0.102629
-0.0691966
-0.0191394
0.0165873
0.0555929
0.0698683
0.0761368
0.0647622
0.04001
0.00509407
-0.0167097
-0.0130338
-0.0175834
-0.0191684
-0.0250472
-0.0269558
-0.0280339
-0.0282996
-0.0283277
-0.0289368
-0.028667
-0.0280797
0.10372
0.101879
0.101872
0.10261
0.102473
0.102005
0.103146
0.0999343
0.0973026
0.0966318
0.0799413
0.0753744
0.054007
0.04966
0.0110952
-0.00375085
-0.0159968
-0.0325427
-0.0508518
-0.0584869
-0.0483154
-0.0506101
-0.0141608
0.026053
0.0261167
0.0224349
0.00840674
0.00340792
0.00231194
-0.00311907
-0.00674596
-0.00717262
-0.0148513
-0.0122686
-0.0132974
-0.0128187
-0.0137648
-0.0143227
-0.0148889
-0.0156535
0.100774
0.0987975
0.0976131
0.0958358
0.0948482
0.09396
0.0938317
0.0939286
0.0948961
0.0990757
0.0914921
0.0681982
0.0457626
0.0366696
0.0434671
0.0355551
0.0490383
0.00992654
-0.0614158
-0.0724822
-0.109672
-0.124192
-0.0966218
-0.0782496
-0.0629673
-0.0361101
-0.0311467
-0.0140061
-0.00524755
-0.0172332
-0.0183166
-0.00618589
-0.00342472
-0.00162628
-0.000980821
-0.000902698
-0.00182207
-0.00325571
-0.00453284
-0.00530599
0.0972578
0.0964514
0.096337
0.0960069
0.0951575
0.0933303
0.0912457
0.0870466
0.0840303
0.0736952
0.0682205
0.0743366
0.0605248
0.029998
0.000652728
-0.0338967
-0.0439253
-0.0627136
-0.0636569
-0.0666085
-0.0669174
-0.105293
-0.0714754
0.00602045
0.0275302
0.0383203
0.0233608
0.00626223
0.00223112
0.0156139
0.0170904
0.0111675
0.00929565
0.00701175
0.00660776
0.00595174
0.00596358
0.0062639
0.00701241
0.00506236
0.0928226
0.0926706
0.0921147
0.0903556
0.0880034
0.0846847
0.0804636
0.0764993
0.0688753
0.0608504
0.0449701
0.0273696
0.00645281
-0.0159247
-0.0460197
-0.0634075
-0.0984259
-0.0821413
-0.0688554
-0.0669001
-0.00816623
-0.0102416
0.0256411
0.120971
0.111269
0.121158
0.100759
0.0920499
0.0704877
0.0514156
0.0435035
0.0367403
0.0304495
0.0267048
0.0227983
0.0199871
0.0167995
0.0144524
0.0133192
0.0136023
0.0873439
0.0867854
0.0849657
0.0820688
0.0784273
0.0741505
0.0690752
0.0665768
0.0624684
0.0550561
0.0507382
0.0391805
0.0214896
-0.00131527
-0.0170932
-0.0315111
-0.0299611
-0.0227071
0.00856525
0.00476748
-0.0353436
-0.0185335
0.0397481
0.076316
0.0885893
0.092183
0.0812131
0.067941
0.0622563
0.0650641
0.0587159
0.0525672
0.0460383
0.0398256
0.0356255
0.0314896
0.0285388
0.0261818
0.024624
0.0239074
0.0829371
0.0801442
0.078043
0.0757076
0.0727925
0.0686679
0.0642505
0.0595229
0.0545112
0.0487966
0.0478939
0.0502601
0.0479387
0.0421809
0.0355546
0.0289216
0.0187887
0.0117104
-0.010165
-0.00952827
0.0138204
-0.0126446
0.0154768
0.0524183
0.0726567
0.0834495
0.0812177
0.0760178
0.0767917
0.0726809
0.0653656
0.0596616
0.055152
0.05004
0.045749
0.0426186
0.0412932
0.0401669
0.0389093
0.0358034
0.0832881
0.0814256
0.0795064
0.0759316
0.0721048
0.0675706
0.0629661
0.057596
0.0570901
0.0500383
0.0483118
0.0489758
0.0516727
0.0557706
0.0598746
0.0568586
0.0473086
0.0549671
0.0512477
0.0300208
0.00369342
-0.0417667
-0.0208289
0.0160376
0.0369909
0.0700263
0.0877764
0.0928403
0.0887512
0.0779937
0.0719819
0.0654207
0.0630632
0.0601903
0.0553513
0.0509668
0.0469748
0.0435414
0.0412745
0.0406352
0.0859547
0.0856095
0.0850585
0.0831623
0.0801112
0.0755754
0.0708011
0.0635251
0.0642537
0.0580041
0.0527883
0.0436476
0.0232479
-0.000114047
-0.0179887
-0.0285343
-0.03335
-0.0563657
-0.0741589
-0.0359399
-0.0155714
0.0555636
0.0776173
0.0983506
0.106842
0.102881
0.0943453
0.0747073
0.0708902
0.0693531
0.0629003
0.0583899
0.0645766
0.0593217
0.0536537
0.0493915
0.0461354
0.0449608
0.0444984
0.0447798
0.0897843
0.0887885
0.0879595
0.0862467
0.0836086
0.0814608
0.0728109
0.0683383
0.0610301
0.0534231
0.0414618
0.0309808
0.0170066
0.00117626
-0.0113239
-0.0295289
-0.0585919
-0.0384537
-0.0531336
-0.0378885
-0.0259382
-0.00541849
0.0286634
0.070196
0.080707
0.0882379
0.0864817
0.0848366
0.0838577
0.0759669
0.0693581
0.0661771
0.0644974
0.0617398
0.0565335
0.0539231
0.0522822
0.0516978
0.0513881
0.0499135
0.0909843
0.0905235
0.0891338
0.0875592
0.0853986
0.0838146
0.0814255
0.0766445
0.0747261
0.0745549
0.0784726
0.0787281
0.0810286
0.0821647
0.0807154
0.0715343
0.0559876
0.0440448
0.026472
0.0202786
-0.0224888
-0.0202905
-0.00747441
0.00397361
0.011098
0.0329866
0.049447
0.0622869
0.0623466
0.0612908
0.0642024
0.0635103
0.0640827
0.0638572
0.0621916
0.0603755
0.0587774
0.0569496
0.0554704
0.0552525
0.0940077
0.0927663
0.092876
0.0937768
0.0948105
0.0957163
0.0963043
0.0965384
0.0983281
0.102284
0.108087
0.121423
0.132633
0.132202
0.136255
0.126321
0.115584
0.0980455
0.0518364
0.0343901
0.00496006
-0.008867
-0.00870167
0.000685824
0.00205183
0.0132736
0.0205512
0.0263571
0.0341231
0.0478943
0.0559803
0.0577393
0.0585252
0.0587068
0.058852
0.0585858
0.059067
0.0596358
0.0597174
0.0592457
0.102747
0.103085
0.103361
0.103491
0.103896
0.104534
0.105486
0.10575
0.107886
0.111397
0.105293
0.0970624
0.0961431
0.0932384
0.101864
0.102078
0.115403
0.102539
0.0815079
0.0441668
0.00842268
-0.0172175
-0.00801303
0.0302959
0.0525063
0.060619
0.0659275
0.0706117
0.071035
0.062826
0.0555961
0.0545466
0.0556135
0.05622
0.0571489
0.0577162
0.0582459
0.0586387
0.0594663
0.0602991
0.109152
0.111431
0.111965
0.112042
0.112726
0.113173
0.111781
0.112923
0.112643
0.114276
0.119991
0.122258
0.116581
0.103179
0.0875338
0.0618318
0.0372495
-0.0043717
0.00134335
0.011076
0.0557479
0.0835568
0.105903
0.119055
0.0783088
0.0944351
0.0931087
0.0838156
0.0688807
0.0590462
0.0570969
0.0580009
0.0569109
0.057122
0.0578437
0.0584044
0.0589721
0.0595034
0.0605181
0.0622609
0.109296
0.109468
0.110593
0.112366
0.115143
0.116774
0.115228
0.115599
0.116139
0.116366
0.115355
0.128294
0.12283
0.104906
0.0853687
0.065707
0.0749407
0.0661598
0.0730279
0.0176195
0.0269794
0.0131795
0.035037
0.057085
0.0622195
0.0706232
0.0719166
0.070011
0.0722804
0.0710631
0.05659
0.061053
0.0619811
0.0627429
0.0644384
0.0655229
0.0666099
0.0677573
0.068477
0.0680555
0.111593
0.111386
0.111182
0.111031
0.111853
0.112249
0.113597
0.115642
0.118704
0.123007
0.119407
0.12708
0.141439
0.152528
0.163745
0.165235
0.144785
0.10567
0.0544357
-0.00164355
0.00734698
-0.0257368
-0.020632
-0.00392011
-0.00974992
0.00496165
0.0203623
0.029076
0.0503535
0.0596945
0.05804
0.0613613
0.0674225
0.0718527
0.0730635
0.0743179
0.0744955
0.0747642
0.0750393
0.0742042
0.113434
0.114512
0.114884
0.115402
0.11607
0.117651
0.11884
0.119484
0.120881
0.12444
0.132665
0.143203
0.140013
0.130861
0.119698
0.100264
0.088907
0.0538342
0.0339846
0.00508697
0.0184421
0.00529184
0.0154037
0.0445812
0.0568473
0.0688093
0.0694904
0.0635633
0.058976
0.0611144
0.0726719
0.077433
0.0743358
0.0749749
0.0756934
0.076612
0.0774466
0.0783217
0.0787394
0.0792509
0.115846
0.116337
0.117565
0.118471
0.119188
0.119632
0.119895
0.118315
0.118223
0.116356
0.109588
0.104993
0.0949624
0.0820499
0.0646293
0.0412617
0.0272473
0.0254082
0.0290304
0.029057
0.0425867
0.0350915
0.0811833
0.123658
0.135686
0.142753
0.138418
0.131038
0.120582
0.107662
0.0970223
0.0913654
0.0879109
0.08563
0.084021
0.0829683
0.08226
0.0823216
0.0827527
0.0836725
0.117475
0.118149
0.118098
0.117715
0.116903
0.115845
0.11495
0.11372
0.112595
0.111271
0.111297
0.112309
0.11628
0.121989
0.126608
0.124684
0.084926
0.078611
0.0534728
0.0423485
0.0547868
0.0551029
0.0711608
0.0904772
0.0943888
0.109289
0.111637
0.115398
0.113132
0.112986
0.111443
0.106449
0.102157
0.0991163
0.0956351
0.0932816
0.0920239
0.0913262
0.0909244
0.0917896
0.116845
0.116532
0.115856
0.115909
0.115846
0.11519
0.115363
0.114848
0.116081
0.119296
0.125459
0.134205
0.142302
0.145241
0.148116
0.145721
0.143928
0.105661
0.0611158
0.056053
0.0612575
0.0535793
0.0487138
0.0682919
0.098868
0.115177
0.116017
0.115383
0.112499
0.115114
0.112335
0.112418
0.109847
0.106615
0.103826
0.101571
0.101546
0.101747
0.101328
0.100347
0.118916
0.118006
0.117452
0.11737
0.117535
0.117678
0.117376
0.119802
0.120315
0.120601
0.12291
0.132891
0.150098
0.163572
0.178289
0.173159
0.157257
0.136868
0.10802
0.0879922
0.0504253
0.0397963
0.00121624
0.0281027
0.0475236
0.0770452
0.0997998
0.117848
0.128049
0.127563
0.122765
0.120531
0.116356
0.113307
0.110553
0.108251
0.106276
0.104337
0.102838
0.102173
0.123968
0.12459
0.124884
0.124331
0.124287
0.123757
0.124711
0.125371
0.127422
0.125208
0.123587
0.125255
0.119341
0.113744
0.10462