/*--------------------------------*- C++ -*----------------------------------*\
| =========                 |                                                 |
| \\      /  F ield         | OpenFOAM: The Open Source CFD Toolbox           |
|  \\    /   O peration     | Version:  v2106                                 |
|   \\  /    A nd           | Website:  www.openfoam.com                      |
|    \\/     M anipulation  |                                                 |
\*---------------------------------------------------------------------------*/
FoamFile
{
    version     2.0;
    format      ascii;
    arch        "LSB;label=32;scalar=64";
    class       volVectorField;
    location    "0";
    object      U;
}
// * * * * * * * * * * * * * * * * * * * * * * * * * * * * * * * * * * * * * //

dimensions      [0 1 -1 0 0 0 0];

internalField   nonuniform List<vector> 
11644
(
(0.00091356 1.35349e-05 -2.01728e-22)
(0.000921826 4.31082e-05 -5.56306e-22)
(0.00091462 4.56246e-05 -2.98472e-22)
(0.000905232 7.93714e-05 0)
(0.000910005 0.000135954 0)
(0.000914369 0.000197179 0)
(0.000910179 0.000310364 0)
(0.000922443 0.000406537 0)
(0.00094402 0.000489933 0)
(0.00096538 0.000566747 0)
(0.000952766 0.000612009 0)
(0.0010552 0.000700405 0)
(0.00104648 0.000766616 0)
(0.00117698 0.000640195 0)
(0.00115625 0.000831582 0)
(0.000672515 0.000730305 0)
(0.000500855 0.00101639 0)
(0.00100563 0.00065701 0)
(0.00105525 0.000289374 0)
(0.000113113 0.000823191 4.38215e-30)
(0.000382813 0.00239348 -4.39438e-30)
(0.00158625 0.0023309 0)
(0.00125319 0.00146348 0)
(0.000528311 0.000922195 0)
(0.00063662 0.0012107 0)
(0.00112209 0.000912865 0)
(0.00126198 0.000901335 0)
(0.00103181 0.000641261 0)
(0.00105678 0.000505824 0)
(0.0010326 0.000411366 0)
(0.000925116 0.000337903 0)
(0.000902857 0.000281823 0)
(0.000890727 0.0002415 0)
(0.00089812 0.000214443 0)
(0.000934775 0.000204338 0)
(0.000972335 0.000121575 0)
(0.000980487 6.52793e-05 0)
(0.000963723 3.45094e-05 0)
(0.000943123 3.52471e-05 0)
(0.000939874 1.22419e-05 -3.9113e-23)
(0.000843972 5.92066e-05 -2.59118e-22)
(0.000862786 0.000177181 -2.40027e-22)
(0.000887302 0.00033708 -1.28911e-22)
(0.000878762 0.000452351 0)
(0.000819336 0.000549454 0)
(0.000773615 0.000697506 0)
(0.000742528 0.000843212 0)
(0.000718009 0.00102882 0)
(0.000702868 0.00127151 0)
(0.000683564 0.00155691 0)
(0.000630249 0.00188681 0)
(0.000498645 0.00222327 0)
(0.000608346 0.00264887 0)
(0.000450443 0.00317892 0)
(0.000327835 0.00356767 0)
(0.000849092 0.00387805 1.59232e-24)
(0.00151113 0.00371314 1.30835e-22)
(0.0015214 0.00404687 2.16324e-21)
(0.000357317 0.00454781 -4.68923e-21)
(-0.000999009 0.00467162 1.81121e-20)
(-0.000654324 0.00396433 -2.00829e-20)
(0.00123595 0.00403538 8.8727e-21)
(0.00250473 0.00392793 -4.40202e-21)
(0.00199873 0.00342305 -1.50121e-22)
(0.00116243 0.00255402 4.19922e-23)
(0.000824806 0.00230515 0)
(0.000712884 0.00208786 0)
(0.00105495 0.00184604 0)
(0.00105188 0.00161383 0)
(0.00101232 0.00138402 0)
(0.00108879 0.00115037 0)
(0.00108616 0.000945311 0)
(0.00108393 0.000751694 0)
(0.00107874 0.000558137 0)
(0.00106861 0.000396795 0)
(0.00104446 0.00031592 0)
(0.000988398 0.000288316 0)
(0.000978953 0.000233232 0)
(0.000998637 0.000138901 0)
(0.00100707 5.90267e-05 0)
(0.000656739 2.43512e-05 0)
(0.000645467 0.00017005 0)
(0.00062057 0.0003417 0)
(0.00058737 0.000558998 0)
(0.000558423 0.000827373 -2.367e-22)
(0.000492471 0.00111163 0)
(0.000403354 0.00138588 0)
(0.000285264 0.00172423 0)
(0.000131878 0.00210536 0)
(2.2053e-05 0.00257718 0)
(6.70387e-07 0.00314488 0)
(-8.82053e-05 0.00374272 0)
(-0.000289505 0.00437075 -1.19406e-24)
(-0.000229202 0.00499687 1.65725e-21)
(0.000275439 0.0055464 1.15517e-20)
(0.000350306 0.00620482 -2.46977e-20)
(-0.000408258 0.00708005 1.99342e-20)
(-3.12674e-05 0.00915831 1.71993e-20)
(0.00126701 0.00967278 -3.01898e-20)
(0.00130875 0.00817758 3.76958e-20)
(0.00156939 0.0061392 -4.01648e-20)
(0.00232075 0.00477864 -4.51554e-22)
(0.00161901 0.0048448 1.15269e-20)
(0.00147126 0.00588246 -8.23726e-21)
(0.00209205 0.00530783 1.39989e-20)
(0.00179203 0.0045598 -8.38882e-21)
(0.00164863 0.00367139 -1.48533e-21)
(0.00132063 0.00313538 6.71456e-24)
(0.00125904 0.00261354 0)
(0.00129846 0.00213465 0)
(0.00126353 0.00172928 0)
(0.00123948 0.00135691 0)
(0.00120804 0.001047 0)
(0.00115701 0.000813896 0)
(0.00112165 0.000620851 0)
(0.00109177 0.000495785 0)
(0.00109322 0.000334613 0)
(0.00110078 0.000192951 0)
(0.00110859 6.53354e-05 0)
(0.00110313 -3.24356e-05 0)
(0.000504289 0.000120237 0)
(0.000461314 0.000216906 0)
(0.000375943 0.000272778 0)
(0.00025085 0.000425147 0)
(0.000111706 0.000648723 0)
(-4.13923e-05 0.00096103 0)
(-0.000207667 0.00137121 0)
(-0.000451774 0.00184487 0)
(-0.00070587 0.00241286 0)
(-0.00103205 0.00302422 0)
(-0.00146124 0.00363512 -3.35301e-23)
(-0.00175679 0.00443918 -1.40136e-21)
(-0.00179577 0.00534312 2.49505e-20)
(-0.001613 0.00632662 -2.61295e-20)
(-0.00168002 0.00731676 2.43499e-20)
(-0.00176134 0.0085589 -4.23731e-20)
(-0.00161229 0.00996892 -4.30898e-20)
(-0.000511214 0.0101519 4.75201e-20)
(0.000998008 0.0105237 9.67742e-20)
(0.0035266 0.0103611 -9.47109e-20)
(0.00392366 0.00950642 1.53277e-20)
(0.00243478 0.00882889 3.08739e-20)
(0.0017168 0.00845194 -9.30601e-20)
(0.00163442 0.007301 4.83033e-20)
(0.00176533 0.00669262 3.33529e-20)
(0.00212389 0.00611149 -2.34482e-20)
(0.00191723 0.00530841 2.88406e-20)
(0.00188696 0.00415102 -2.51587e-20)
(0.00190789 0.00320922 -7.04297e-22)
(0.00180753 0.0024815 6.00183e-23)
(0.001721 0.00184505 0)
(0.00165202 0.00130959 0)
(0.00158133 0.000902769 0)
(0.00151189 0.00058961 0)
(0.00145994 0.000315028 0)
(0.00138332 0.000124938 0)
(0.00132067 4.74163e-06 0)
(0.00125134 -4.49958e-05 0)
(0.00119257 2.49426e-05 0)
(0.00116842 7.00074e-05 0)
(0.000415825 5.54988e-05 0)
(0.00037636 0.000175429 0)
(0.000328965 0.000509415 0)
(0.000202005 0.000693937 0)
(1.70014e-05 0.000834861 0)
(-0.000261688 0.000965197 0)
(-0.000627049 0.00119548 0)
(-0.00105983 0.00156195 0)
(-0.00156405 0.00203582 0)
(-0.00207417 0.00272384 -6.07406e-22)
(-0.00234405 0.00366379 1.18058e-20)
(-0.0026783 0.00455409 -5.56551e-21)
(-0.00276786 0.00571445 -1.17973e-20)
(-0.0034248 0.00667527 -6.85102e-20)
(-0.00359444 0.00828121 1.02246e-19)
(-0.00296186 0.0094848 2.19059e-20)
(-0.00206546 0.0105062 -5.30202e-20)
(-0.00101261 0.0106674 -2.19015e-19)
(0.000394118 0.0112895 1.97925e-19)
(0.00348292 0.0120938 1.80471e-20)
(0.00431717 0.0117725 2.56054e-20)
(0.00292517 0.0118906 -2.58048e-19)
(0.003222 0.0114663 2.40581e-19)
(0.00414285 0.00947641 3.39043e-20)
(0.00397848 0.00783216 -3.4916e-21)
(0.00362548 0.00654171 -1.0313e-19)
(0.00381944 0.00518052 6.66792e-20)
(0.00364686 0.00400297 9.56317e-21)
(0.00312553 0.00301248 6.16559e-21)
(0.00287658 0.00193373 -1.04405e-20)
(0.00261138 0.00111525 -5.82021e-22)
(0.00229545 0.000618269 0)
(0.00203668 0.000260433 0)
(0.00181649 4.49069e-05 0)
(0.00160347 -2.6909e-05 0)
(0.0014318 -3.27735e-05 0)
(0.00131795 3.3652e-05 0)
(0.00122735 8.11961e-05 0)
(0.0012014 -2.50679e-05 0)
(0.0012005 -1.61276e-05 0)
(0.000416753 -0.00023086 0)
(0.000335366 -0.000240845 0)
(0.000140173 -0.000454998 0)
(-6.88317e-05 -0.00038876 0)
(-0.000285337 -0.000137934 0)
(-0.000591513 0.000134995 0)
(-0.001006 0.000449036 0)
(-0.0015132 0.000807061 0)
(-0.00212148 0.00130132 -6.07826e-22)
(-0.00277194 0.00197296 4.42629e-21)
(-0.00354489 0.00275222 1.48609e-20)
(-0.00422077 0.00385079 3.22773e-21)
(-0.00521493 0.00472667 -1.54081e-20)
(-0.00526771 0.00669916 -6.99529e-20)
(-0.00550465 0.008332 -7.79324e-22)
(-0.00472027 0.00917653 2.65582e-20)
(-0.00269835 0.0107002 1.42836e-19)
(-0.00105748 0.0121203 -1.25041e-19)
(1.8343e-05 0.0119656 1.70489e-20)
(0.00142539 0.0125199 5.13333e-20)
(0.00286656 0.0133932 -1.25876e-19)
(0.00430247 0.0135288 7.3025e-20)
(0.00562664 0.0118571 1.08182e-19)
(0.00687205 0.0106554 -2.64746e-21)
(0.00689684 0.00870425 -1.35488e-19)
(0.00670569 0.00646411 -2.78649e-20)
(0.0062791 0.00486016 8.78164e-20)
(0.00543682 0.00313227 6.48932e-21)
(0.00490497 0.00156382 -3.19764e-20)
(0.00407379 0.000503553 -1.15592e-20)
(0.00342725 -0.000299537 1.13617e-20)
(0.00291326 -0.000841868 5.47009e-22)
(0.00245738 -0.00108192 0)
(0.00208675 -0.00117093 0)
(0.00178094 -0.00119857 0)
(0.0015497 -0.00119681 0)
(0.00139208 -0.00119926 0)
(0.00122819 -0.00105074 0)
(0.00109398 -0.00060394 0)
(0.00104731 -0.000307098 0)
(0.000616849 0.000421 0)
(0.000506488 0.000184993 0)
(0.0003559 0.000137392 0)
(0.000132998 -2.04477e-05 0)
(-0.000166953 -0.000323348 0)
(-0.000552694 -0.000455802 0)
(-0.00106438 -0.000434671 0)
(-0.0016853 -0.000299179 2.89368e-22)
(-0.00246743 1.38467e-06 -8.53978e-21)
(-0.00348446 0.000526486 2.59907e-20)
(-0.00483531 0.00123354 7.94153e-21)
(-0.00632859 0.00201002 -4.22206e-20)
(-0.00736501 0.0036477 -1.53339e-20)
(-0.00853032 0.00511591 8.94997e-20)
(-0.00772539 0.00732082 -1.11084e-19)
(-0.00634599 0.00950472 5.4645e-20)
(-0.00421939 0.0106377 1.09289e-19)
(-0.00230535 0.0123596 1.06028e-19)
(-0.000927643 0.0128818 4.12452e-20)
(-0.000119093 0.0138911 6.88821e-20)
(0.00191323 0.013636 4.76151e-20)
(0.00492974 0.0140501 -4.27074e-20)
(0.00718892 0.0126123 2.12994e-20)
(0.00814463 0.0100915 1.92419e-19)
(0.0104044 0.00855396 -8.35432e-20)
(0.0100448 0.00590075 1.07892e-19)
(0.00889914 0.00308105 -8.16261e-20)
(0.00853292 0.00113468 3.17036e-20)
(0.00700958 -0.000613489 1.71282e-20)
(0.00553588 -0.00188702 -6.52104e-21)
(0.00429775 -0.00258587 -7.42036e-21)
(0.00335828 -0.00284703 6.88574e-22)
(0.00262108 -0.00285409 -9.31141e-23)
(0.00206534 -0.00269955 0)
(0.00160254 -0.00235841 0)
(0.00123604 -0.00183795 0)
(0.000957686 -0.0012194 0)
(0.00073674 -0.000646396 0)
(0.000595612 -0.000244066 0)
(0.000524301 0.000222827 0)
(0.000852075 -0.000869393 0)
(0.000798707 -0.000946082 0)
(0.000625827 -0.000949951 0)
(0.000381826 -0.0011474 0)
(8.25696e-05 -0.00123502 0)
(-0.000335356 -0.00140512 0)
(-0.000894194 -0.00158329 0)
(-0.0016408 -0.00168642 -7.49991e-22)
(-0.00273263 -0.00170669 -5.45787e-21)
(-0.00429276 -0.00153209 1.90823e-20)
(-0.00609903 -0.000555655 -8.92652e-21)
(-0.00774333 0.00114406 -9.83694e-21)
(-0.00884055 0.00271747 -6.44306e-22)
(-0.0109644 0.00384522 1.01847e-20)
(-0.00840585 0.00688366 -3.70708e-20)
(-0.00831263 0.0077546 -6.42225e-20)
(-0.00781527 0.010463 -3.34801e-20)
(-0.00485098 0.0129061 -1.15623e-19)
(-0.00315168 0.0154233 7.04327e-20)
(-0.000949462 0.0166483 2.55662e-19)
(0.00209365 0.0161208 9.24311e-20)
(0.00596972 0.0139328 -1.08098e-20)
(0.00923704 0.0122951 -1.0713e-19)
(0.0101861 0.0103121 -2.09222e-19)
(0.0135204 0.00840688 -8.27768e-21)
(0.0132319 0.00517167 -1.11296e-19)
(0.0115147 0.00309888 5.12754e-21)
(0.0116393 -0.000972548 -3.3284e-20)
(0.00941575 -0.00361651 2.03059e-20)
(0.00731057 -0.00489786 -8.99958e-21)
(0.00514287 -0.00522921 8.14636e-21)
(0.00352863 -0.00514353 -1.76708e-21)
(0.00238609 -0.00470228 -3.78149e-22)
(0.00160606 -0.00404937 0)
(0.00098989 -0.00342123 0)
(0.000546674 -0.00285123 0)
(0.000203684 -0.00231745 0)
(-2.90296e-05 -0.00184064 0)
(-0.000152212 -0.00142829 0)
(-0.00013824 -0.000890595 0)
(0.00148735 0.000459333 0)
(0.00129803 -0.000304833 0)
(0.00117056 -0.00136877 0)
(0.00102589 -0.00203001 0)
(0.000758358 -0.00248929 0)
(0.000289036 -0.00288091 0)
(-0.000345589 -0.00326272 4.88712e-22)
(-0.00128833 -0.00368855 3.93371e-21)
(-0.00288462 -0.00387644 -9.60544e-21)
(-0.00502726 -0.00364345 9.12381e-21)
(-0.00749874 -0.00292669 -1.5591e-21)
(-0.0098084 -0.00153681 -6.51153e-21)
(-0.0116296 -0.000473599 1.09239e-20)
(-0.0145357 0.0039412 -1.67018e-20)
(-0.011896 0.0045813 -4.73773e-21)
(-0.0126001 0.00659363 -2.51911e-20)
(-0.00939342 0.0105574 -3.72032e-20)
(-0.00971271 0.0130797 -7.28221e-21)
(-0.00579581 0.0161446 8.58006e-20)
(-0.00231433 0.0185024 4.84576e-20)
(0.00293215 0.019531 -2.66367e-20)
(0.00783853 0.0170298 4.10098e-20)
(0.0110718 0.0134381 -7.11967e-20)
(0.0170602 0.0127016 -4.24214e-20)
(0.0173809 0.00680495 -2.82091e-20)
(0.0179492 0.00249344 -7.04885e-21)
(0.0180702 -0.00144259 -2.74274e-20)
(0.0147338 -0.00307225 4.20162e-21)
(0.0117434 -0.00651507 -1.45287e-21)
(0.00884312 -0.00712932 -1.83444e-20)
(0.00586125 -0.00783323 1.97717e-20)
(0.00340634 -0.00769422 -1.16807e-20)
(0.00166067 -0.00694686 2.18765e-21)
(0.000632072 -0.00593196 -8.48012e-22)
(-7.05907e-05 -0.00498912 0)
(-0.00056724 -0.0041111 0)
(-0.000879524 -0.00320054 0)
(-0.00103421 -0.00216148 0)
(-0.00107099 -0.000815662 0)
(-0.0011591 7.34391e-05 0)
(0.00227863 -0.00059143 0)
(0.00214023 -0.000885733 0)
(0.00192041 -0.00103234 0)
(0.00161394 -0.0014293 0)
(0.00138605 -0.00238549 0)
(0.00110227 -0.00339724 0)
(0.000608984 -0.00439934 -1.16875e-21)
(-0.000595596 -0.00524231 1.90701e-21)
(-0.0027028 -0.00582416 6.52019e-21)
(-0.00534998 -0.00578534 -1.38527e-21)
(-0.00838062 -0.00501205 -1.56276e-20)
(-0.0114964 -0.00404642 1.06666e-20)
(-0.0136447 -0.0026051 3.89033e-22)
(-0.0122636 -0.000329621 -1.00406e-20)
(-0.0149604 0.0015793 -1.99776e-20)
(-0.0175738 0.00566218 3.54431e-20)
(-0.0156822 0.00905716 2.24949e-21)
(-0.0151817 0.0135322 -3.07253e-21)
(-0.0121637 0.017809 4.27997e-20)
(-0.00561055 0.0225999 3.57482e-20)
(0.00278958 0.025001 6.00861e-20)
(0.0119337 0.0232837 -5.48161e-20)
(0.0171668 0.0179153 -7.24392e-20)
(0.0215255 0.0106808 -1.64995e-20)
(0.0227761 0.00411647 1.28062e-20)
(0.0231586 0.000327025 6.4083e-21)
(0.0217977 -0.00454844 -1.39703e-20)
(0.0174838 -0.00848701 1.23055e-20)
(0.0136582 -0.00833487 -9.72423e-21)
(0.0100756 -0.00938085 2.70056e-21)
(0.00630909 -0.00986308 2.37824e-21)
(0.00308675 -0.00939026 -2.4901e-21)
(0.00058016 -0.00841218 4.55556e-22)
(-0.00077796 -0.00704327 -2.01333e-22)
(-0.0012629 -0.00541761 0)
(-0.00158005 -0.00385904 0)
(-0.00182744 -0.00251364 0)
(-0.00207223 -0.0015141 0)
(-0.0022951 -0.00114857 0)
(-0.00233802 -0.00031275 0)
(0.00318556 -0.000865106 0)
(0.00327363 -0.00199163 0)
(0.00336184 -0.00270727 0)
(0.00347871 -0.00357074 0)
(0.00330081 -0.00420896 0)
(0.00302087 -0.00501275 0)
(0.00237702 -0.00603714 3.22715e-22)
(0.000627948 -0.0068666 -2.33376e-22)
(-0.00240035 -0.00697714 -1.26156e-21)
(-0.00541587 -0.00696904 -2.01961e-21)
(-0.00864351 -0.0067667 3.84442e-21)
(-0.0126029 -0.00537145 -5.37879e-21)
(-0.0158858 -0.00451079 1.48548e-21)
(-0.0172085 -0.00293748 1.94257e-20)
(-0.0203973 -0.00150764 5.99486e-21)
(-0.0207777 0.000759949 1.86502e-21)
(-0.0223005 0.00576015 -4.50486e-22)
(-0.023945 0.0123001 5.11146e-21)
(-0.021739 0.0220714 -7.31366e-21)
(-0.0136009 0.0326251 -4.6953e-20)
(0.00129908 0.0374567 1.0619e-20)
(0.018923 0.0351385 -1.96164e-19)
(0.0307229 0.0225664 3.63162e-21)
(0.0339925 0.00925261 4.30162e-21)
(0.031613 -0.00166061 -4.64433e-21)
(0.0275057 -0.00754895 -5.0528e-21)
(0.0222544 -0.00896862 -4.88616e-21)
(0.0192998 -0.0126781 1.63137e-21)
(0.0149227 -0.0116554 -7.07236e-22)
(0.0109949 -0.0111334 3.75015e-22)
(0.0065101 -0.0109355 -1.40471e-21)
(0.00238596 -0.0104706 1.98946e-21)
(-0.000859786 -0.00928924 -1.23418e-21)
(-0.00276226 -0.00769932 6.77888e-22)
(-0.00349585 -0.00622641 0)
(-0.00387181 -0.00509693 0)
(-0.00412279 -0.00411952 0)
(-0.00402544 -0.00315723 0)
(-0.00388121 -0.00189504 0)
(-0.00362983 -0.00117904 0)
(0.00365188 0.000802761 0)
(0.00338337 -5.50817e-06 0)
(0.00349601 -0.00143182 0)
(0.0037991 -0.00267702 0)
(0.00417013 -0.00395549 0)
(0.0044273 -0.00526888 0)
(0.00401949 -0.0066294 -2.21083e-22)
(0.00171158 -0.00754744 -2.29059e-22)
(-0.00203943 -0.00774142 -4.66901e-22)
(-0.00557519 -0.00764681 -3.71126e-22)
(-0.00820661 -0.00852398 5.78527e-22)
(-0.0117388 -0.00839985 -7.66479e-24)
(-0.016447 -0.00816242 1.17966e-21)
(-0.0197077 -0.0079887 3.07038e-21)
(-0.0232011 -0.00765133 -9.35211e-21)
(-0.0257129 -0.00583169 1.01419e-20)
(-0.0308684 -0.00258796 -4.75362e-21)
(-0.0376272 0.00468712 -1.27382e-21)
(-0.0425662 0.0227772 -7.13613e-20)
(0.067292 0.0308263 5.14516e-19)
(0.0523184 -0.00196835 2.72049e-21)
(0.0399778 -0.012852 3.48957e-21)
(0.0306191 -0.0175764 1.02332e-20)
(0.0241036 -0.0156986 -2.59127e-21)
(0.0175995 -0.0171176 -4.9902e-22)
(0.0151891 -0.0139599 9.1137e-24)
(0.0108047 -0.0122528 4.09839e-22)
(0.00581866 -0.0113696 -3.04932e-22)
(0.00122722 -0.0104733 -6.05554e-22)
(-0.00246938 -0.00917389 -1.25776e-22)
(-0.00481707 -0.00756805 -8.058e-23)
(-0.00529317 -0.00578995 0)
(-0.00520303 -0.00413253 0)
(-0.00505568 -0.00247757 0)
(-0.00502226 -0.00109575 0)
(-0.00487089 -4.3603e-05 0)
(-0.00533767 0.000921046 0)
(0.0051555 -0.0022116 0)
(0.0052749 -0.0025152 0)
(0.00526249 -0.00210407 0)
(0.00524824 -0.0025312 0)
(0.00559287 -0.00350097 0)
(0.00607858 -0.00488266 0)
(0.00551855 -0.00631337 6.65759e-23)
(0.00242896 -0.00710157 -2.7307e-22)
(-0.0012054 -0.00758525 -1.49145e-21)
(-0.00540508 -0.00763203 -3.41216e-22)
(-0.00818639 -0.00875922 4.27249e-21)
(-0.0108336 -0.0108703 3.8587e-23)
(-0.0144994 -0.0129349 -5.52447e-21)
(-0.0183442 -0.0154942 -9.25509e-21)
(-0.0213936 -0.0149993 -4.24464e-21)
(-0.0268334 -0.0139354 -2.55503e-21)
(-0.0318136 -0.0164245 -1.2447e-21)
(-0.0446491 -0.0182172 4.51764e-22)
(-0.00205355 0.00222927 -3.12203e-18)
(0.0144721 0.00163697 -2.25814e-19)
(0.0660984 -0.0294314 2.92708e-21)
(0.0426837 -0.0333965 -2.05966e-21)
(0.0297231 -0.0319611 7.72701e-21)
(0.0231152 -0.0240182 3.55387e-21)
(0.0161078 -0.0208091 2.87611e-21)
(0.0129994 -0.0155936 -1.27194e-21)
(0.00907059 -0.0133312 1.78731e-21)
(0.00422841 -0.0114359 -1.07139e-21)
(0.000291166 -0.00974164 4.96009e-22)
(-0.00384772 -0.0081067 3.92448e-24)
(-0.00695513 -0.0065962 -1.04159e-22)
(-0.00772433 -0.00519779 0)
(-0.00738603 -0.00397506 0)
(-0.00716598 -0.00318405 0)
(-0.00705719 -0.00244739 0)
(-0.00701457 -0.00205824 0)
(-0.00676797 -0.00163271 0)
(0.00383591 0.00134006 2.53885e-23)
(0.00504548 -0.000130277 0)
(0.00614418 -0.00137434 0)
(0.00703788 -0.00222093 0)
(0.00764046 -0.00299687 0)
(0.00842438 -0.00410688 0)
(0.00689562 -0.00503677 1.49922e-22)
(0.00244631 -0.0054682 1.37029e-21)
(-0.00200635 -0.00635007 -2.16372e-22)
(-0.00470986 -0.00574868 3.92636e-21)
(-0.00601423 -0.0050394 -9.40369e-21)
(-0.00498134 -0.00818277 -1.69038e-20)
(-0.00605566 -0.0112456 1.18873e-20)
(-0.00901848 -0.015359 9.96495e-21)
(-0.0183793 -0.0202918 1.75353e-20)
(-0.0267711 -0.0253331 1.31458e-20)
(-0.0242118 -0.0263431 1.58304e-20)
(-0.00724344 -0.0477576 -4.86967e-21)
(-0.105164 -0.0291088 9.52023e-21)
(0.0382918 0.0145698 3.31832e-20)
(0.113717 -0.0508121 -7.24621e-21)
(0.0332412 -0.0604738 -3.33431e-21)
(0.0151465 -0.0471035 -2.77164e-20)
(0.0105425 -0.0361237 -1.16062e-20)
(0.00922364 -0.0273221 -1.15982e-20)
(0.00969352 -0.0212445 -3.99438e-21)
(0.00585765 -0.0167552 3.90169e-21)
(0.00118663 -0.0115597 7.62562e-21)
(-0.00318198 -0.00794995 -1.61805e-21)
(-0.00688895 -0.00648632 -1.33052e-21)
(-0.00937779 -0.00504079 6.00674e-22)
(-0.00985172 -0.00370521 0)
(-0.00980668 -0.0029026 0)
(-0.00946152 -0.00223902 0)
(-0.00922095 -0.00168028 0)
(-0.00901226 -0.000964561 0)
(-0.00885708 0.000144454 0)
(0.0039815 -0.000600315 7.31952e-25)
(0.0034575 0.000157849 0)
(0.0042574 -0.000676367 0)
(0.00535608 -0.00153373 0)
(0.00680084 -0.00221298 0)
(0.00801299 -0.00307608 0)
(0.00608953 -0.00340098 3.37973e-22)
(0.00182799 -0.0043221 -8.0106e-22)
(-0.00308212 -0.00488963 2.02948e-21)
(-0.00490298 -0.00560163 -3.02175e-21)
(-0.0065843 -0.00805727 1.19908e-21)
(-0.0088819 -0.00960425 9.85571e-21)
(-0.0131635 -0.0134853 -2.76006e-20)
(-0.0174827 -0.0312377 2.4164e-20)
(-0.0224859 -0.0327163 -5.52106e-20)
(-0.0206769 -0.0315222 -9.64851e-21)
(-0.0234967 -0.0198835 -8.77764e-20)
(0.0163154 -0.0397383 -7.2783e-20)
(-0.46372 0.198401 1.2675e-20)
(0.180615 -0.278405 -3.90298e-20)
(-0.56304 0.289638 9.19436e-21)
(0.686971 0.485914 9.85244e-20)
(0.0391341 -0.211202 -3.80343e-20)
(0.189425 -0.110614 -7.3436e-20)
(-0.00106891 -0.0901833 1.52893e-20)
(-0.0208449 -0.0445291 5.57134e-20)
(-0.0215118 -0.0295951 -1.34758e-19)
(-0.0103504 -0.021421 -3.49058e-21)
(-0.00479774 -0.0131426 6.39656e-21)
(-0.00302424 -0.00715865 -8.11214e-21)
(-0.00364554 -0.00561988 -3.30676e-21)
(-0.00632747 -0.00402958 2.56944e-21)
(-0.00905974 -0.00275302 -4.24456e-21)
(-0.0117815 -0.00214772 1.29057e-22)
(-0.0113767 -0.000671461 0)
(-0.0102213 0.000263575 0)
(-0.0091457 0.00104049 0)
(-0.00848022 0.00125475 0)
(-0.00833324 0.000628221 0)
(-0.00773123 0.00119058 0)
(0.00550603 -0.000348198 7.2446e-22)
(0.00597173 -9.14861e-05 0)
(0.00634032 0.000375789 0)
(0.00634521 0.000462073 0)
(0.00651993 0.000460717 0)
(0.00629277 -0.000190243 0)
(0.00525251 -0.00212676 4.34725e-25)
(0.000955506 -0.00309235 1.18592e-21)
(-0.00355721 -0.00304981 2.34155e-21)
(-0.0072965 -0.00358063 -1.02792e-20)
(-0.010496 -0.00770347 3.78274e-21)
(-0.013021 -0.0182339 4.0122e-20)
(-0.00792318 -0.0343343 -3.06341e-20)
(-0.00312459 -0.027721 -2.19145e-20)
(0.0147585 -0.0249543 -2.37706e-20)
(0.00510039 -0.052635 2.68344e-20)
(-0.072085 -0.0924475 -1.12792e-19)
(-0.195328 0.144082 5.77867e-19)
(0.636007 0.231301 1.80489e-20)
(-0.0494278 -0.52507 -9.51176e-19)
(-1.37555 -0.0838935 -3.55321e-20)
(1.58548 0.290945 -1.82344e-19)
(0.327425 -0.752294 1.80641e-19)
(0.0374359 -0.28632 1.0998e-19)
(-0.0802242 -0.0655425 7.09037e-20)
(-0.0276433 -0.0495299 -8.75212e-21)
(-0.0182635 -0.0444377 7.56522e-21)
(-0.028401 0.0113383 1.30583e-20)
(-0.0227891 0.00648924 -1.52028e-20)
(-0.0138323 0.00130917 -8.2205e-21)
(-0.0108052 0.00072743 2.30788e-20)
(-0.00978078 0.00181362 -5.31647e-21)
(-0.0114962 0.00207969 -3.27688e-24)
(-0.014006 0.00173349 -4.03387e-23)
(-0.0143499 0.00031287 0)
(-0.011739 0.000242186 0)
(-0.0100607 0.000240573 0)
(-0.00887564 -6.80188e-05 0)
(-0.00882453 -0.000451927 0)
(-0.00895063 -0.000763946 2.44151e-22)
(0.00877871 0.00108953 -1.38165e-21)
(0.00831886 -0.000198069 0)
(0.0067315 0.000293513 0)
(0.00688964 0.00011147 0)
(0.00743358 -0.000239267 0)
(0.00856502 -0.000434354 0)
(0.00889817 0.000223264 0)
(0.00629794 0.000276234 4.94536e-22)
(0.00332289 0.00310972 1.31585e-21)
(0.00257519 0.000956312 -7.47126e-21)
(0.00506258 -0.000127407 2.15359e-21)
(0.00777742 0.00126285 1.52324e-20)
(0.0100597 -0.0227752 1.0037e-20)
(-0.022057 -0.0190687 -2.49597e-20)
(0.0304811 -0.0295306 4.30062e-20)
(0.0599089 -0.0234174 6.66681e-20)
(-0.0969072 -0.236533 -1.16715e-19)
(0.02845 -0.393998 -1.51839e-18)
(-0.570386 -0.54846 -1.98925e-19)
(0.555165 2.53197 1.88269e-20)
(-0.00361892 -1.02289 -6.31471e-20)
(0.940217 -3.25261 -7.05692e-19)
(-0.352204 0.708366 -3.97262e-20)
(-0.537508 -0.0456165 -1.96458e-19)
(-0.042879 -0.000815901 -3.35799e-20)
(-0.0636608 -0.0237404 -5.30986e-20)
(-0.092013 0.00981049 -1.79259e-20)
(-0.0267978 0.0255044 2.57776e-20)
(-0.0107212 0.00401811 -1.37274e-20)
(-0.00313969 0.00706678 -5.89394e-21)
(-0.00356732 0.00558697 1.32293e-20)
(-0.0048202 0.00386679 -5.39875e-21)
(-0.00797447 0.00542738 5.93863e-23)
(-0.0122684 0.00480061 0)
(-0.0136354 0.00423012 0)
(-0.0125034 0.00270227 0)
(-0.0113378 0.00107189 0)
(-0.0103532 -1.61077e-05 0)
(-0.00805243 0.000164656 0)
(-0.0070907 -0.00170157 2.49223e-21)
(0.00369149 -0.000618567 -1.41372e-22)
(0.00630665 0.000736 0)
(0.00713454 -6.999e-05 0)
(0.00712713 0.000238327 0)
(0.00729237 0.000735335 0)
(0.00724213 0.00114892 0)
(0.00540208 0.00173576 0)
(0.00148802 0.00517248 0)
(4.65671e-05 0.00699611 -1.997e-22)
(-6.53739e-05 0.00852542 -7.58128e-22)
(0.0025441 0.0114241 5.23725e-21)
(0.0176426 0.0199005 -1.90229e-20)
(0.0362411 0.0360269 6.02834e-21)
(0.092716 -0.0117583 1.00858e-20)
(0.00762254 -0.0167173 1.14376e-20)
(0.080343 -0.0506549 1.58452e-20)
(0.519801 -0.0233248 -4.16079e-20)
(0.106824 -0.409339 -7.76321e-20)
(-2.55586 -0.037804 -1.57944e-19)
(0.695025 -1.54196 2.89569e-19)
(3.90795 -0.229417 1.34204e-19)
(-0.583268 0.875733 2.64797e-19)
(-2.25106 -0.554901 -1.7964e-19)
(0.18857 0.530372 1.155e-19)
(0.00512907 -0.0669523 -1.65935e-20)
(-0.147437 0.0686659 1.25672e-20)
(0.00826947 0.0612154 -3.8178e-20)
(-0.00743534 0.00698876 1.86909e-20)
(-0.000686623 0.0168681 1.75695e-20)
(-0.00453998 0.0175814 -6.87757e-21)
(-0.00433394 0.0141018 2.11761e-21)
(-0.00601327 0.0116595 -1.55129e-22)
(-0.0115146 0.00971854 0)
(-0.0131129 0.0103642 0)
(-0.0118141 0.00760014 0)
(-0.00946879 0.00516602 0)
(-0.00741274 0.00344104 -3.73642e-22)
(-0.00580116 0.00200006 -5.16722e-22)
(-0.00602823 0.000724499 -3.08127e-22)
(-0.00864436 0.00134126 0)
(0.00628661 -0.000766673 0)
(0.00421632 -0.000400219 0)
(0.00535175 0.000636167 0)
(0.00649902 0.0010553 0)
(0.00711299 0.00107393 0)
(0.00802038 0.00183332 0)
(0.00587708 0.000508309 0)
(-0.00259758 -0.00206135 0)
(-0.00991774 -0.000315697 -2.85361e-24)
(-0.0117954 0.00550948 1.32747e-22)
(-0.0116015 0.0167174 4.64571e-22)
(-0.00524038 0.0285105 4.74102e-21)
(0.00867058 0.0477466 5.9264e-21)
(0.0571997 0.126524 3.19675e-20)
(0.0688821 0.0321318 -9.94766e-20)
(-0.0252308 0.0262689 -1.05264e-20)
(0.0217999 0.629862 -6.57714e-21)
(1.03444 0.110414 1.82379e-19)
(0.777543 -2.19858 7.5234e-20)
(-0.763603 -2.27352 -1.25049e-19)
(-1.50799 0.356104 -3.60103e-19)
(-0.767899 2.45803 1.54983e-19)
(0.717689 1.85978 1.25738e-19)
(0.627366 -0.560788 -5.4137e-22)
(-0.581235 -0.10729 -8.87129e-20)
(-0.10194 0.0578527 5.57627e-20)
(-0.0114654 -0.0051775 1.02163e-20)
(-0.015714 0.0441693 5.69766e-21)
(-0.00598085 0.0421525 4.20635e-21)
(-0.00356168 0.0350473 3.95979e-22)
(-0.00230891 0.0324397 -1.53003e-22)
(-0.0062588 0.0288409 -9.27729e-25)
(-0.00725494 0.0235475 0)
(-0.0054814 0.0162501 0)
(-0.00485666 0.0102366 0)
(-0.00434753 0.00746257 0)
(-0.00341431 0.00492128 0)
(-0.0034313 0.00315943 0)
(-0.00417394 0.00273663 0)
(-0.00261311 0.00184606 5.5494e-23)
(0.00738741 0.00129251 0)
(0.00538409 0.000496388 0)
(0.00473996 0.000443539 0)
(0.00571956 0.00125964 0)
(0.0073043 0.00230603 0)
(0.00916397 0.00452601 0)
(0.0111571 0.00813086 0)
(0.00933344 0.00622488 0)
(-0.00169163 0.00215175 0)
(-0.0148216 0.00125431 0)
(-0.0230057 0.00472634 1.48832e-22)
(-0.034754 0.0167205 -2.09755e-21)
(-0.0156423 0.0313626 -4.36881e-21)
(-0.0340643 0.0420923 1.03724e-20)
(0.121281 0.130177 -1.73389e-19)
(0.0359999 0.0123781 -3.646e-20)
(-0.997514 -0.246374 6.59013e-20)
(1.32009 1.72703 -8.2298e-20)
(0.934044 3.48144 8.72204e-20)
(-0.461458 2.66929 8.13205e-19)
(-0.930276 0.0314109 -7.41331e-20)
(-0.34522 -2.41213 3.95722e-19)
(1.07301 -2.9545 -9.24958e-20)
(0.596999 -0.812186 -9.08382e-20)
(-0.88128 0.675876 -3.193e-19)
(-0.0195667 0.108238 5.10556e-20)
(-0.0402669 0.139292 -1.59912e-21)
(0.0058043 0.0961033 -1.41074e-22)
(-0.00153872 0.0743218 -4.44353e-21)
(0.0098291 0.0593509 -2.05726e-22)
(0.0122139 0.044286 0)
(0.0134278 0.0308322 0)
(0.0132637 0.0177551 0)
(0.00667448 0.00994664 0)
(0.00165084 0.00839737 0)
(-0.000487729 0.00698134 0)
(-0.00201869 0.00546901 0)
(-0.00279743 0.00403671 0)
(-0.00202627 0.00172513 0)
(-0.000431596 -0.000588462 0)
(0.00322368 -0.000100401 0)
(0.00569081 -0.000585628 0)
(0.00604946 -0.00104732 0)
(0.00516747 -0.000689022 0)
(0.00450359 0.000914935 0)
(0.00321292 0.00287365 0)
(0.00189733 0.00769955 0)
(0.00284195 0.0153264 0)
(-0.000781503 0.0187551 0)
(-0.0102021 0.0205444 0)
(-0.0196498 0.0181097 0)
(-0.0267276 0.0296857 -2.88707e-23)
(-0.0412614 0.0304098 -2.28456e-22)
(0.0151372 0.0752989 7.60765e-22)
(0.0984906 0.036176 -3.32293e-20)
(0.637745 0.107723 -2.16604e-19)
(-1.16471 -0.69976 -1.46811e-20)
(-1.88506 -1.20693 5.72183e-20)
(0.442879 -0.59456 1.09269e-20)
(1.50315 -0.07243 4.67966e-19)
(1.66181 0.451017 -5.08966e-20)
(1.34749 0.846824 -1.69716e-19)
(-0.14728 1.47839 -1.49307e-19)
(-2.47745 1.9318 -2.08755e-20)
(0.123398 0.788842 6.62518e-20)
(0.283292 0.286564 6.78611e-20)
(0.0981871 0.123477 4.64905e-21)
(0.0421614 0.107746 -1.49692e-22)
(0.0517393 0.0664223 2.51278e-23)
(0.0448111 0.0471211 0)
(0.0378666 0.0264333 0)
(0.02903 0.0133152 0)
(0.0166982 0.00770865 0)
(0.00422857 0.00865153 0)
(0.00079491 0.00848714 0)
(-6.78253e-05 0.00705585 0)
(-0.000722153 0.00635437 0)
(-0.000914011 0.00491097 0)
(-0.00172042 0.00264874 0)
(-0.00443258 0.000687074 0)
(0.00859806 -0.00150017 0)
(0.00812177 -0.00164279 0)
(0.00678407 -0.00150405 0)
(0.0049071 -0.00236738 0)
(0.00274524 -0.00290273 0)
(9.39227e-05 -0.00359598 0)
(-0.00481805 -0.00458932 0)
(-0.0118125 0.000235236 0)
(-0.0173387 0.0104915 0)
(-0.0258723 0.0216723 0)
(-0.0404356 0.0360859 -3.94572e-21)
(-0.0504894 0.0535475 0)
(-0.0894156 0.0683843 0)
(-0.176674 0.136858 8.59578e-20)
(-0.255175 0.283711 -4.02949e-20)
(0.811175 0.821106 -6.94559e-20)
(1.63094 0.727704 1.27979e-20)
(-0.449436 -0.570216 -3.48467e-20)
(-1.50406 -0.99051 3.9476e-20)
(-1.42316 -0.199945 -1.57402e-19)
(-1.32371 0.834175 3.23163e-20)
(-1.46628 1.80491 3.23648e-19)
(-0.904676 1.85524 -2.17216e-21)
(0.938411 0.49724 2.19319e-20)
(2.04907 -0.548754 -7.23225e-21)
(-0.0710459 -0.0424361 -2.01955e-19)
(-0.00180002 0.0333718 5.80063e-21)
(0.0672885 0.0446819 0)
(0.0758665 0.0226261 0)
(0.0579454 0.015484 -2.19938e-22)
(0.0452466 0.0142669 0)
(0.0279418 0.0126419 0)
(0.012931 0.0160301 0)
(0.00509915 0.0149066 0)
(0.00292033 0.0104599 0)
(0.00180539 0.00745435 0)
(0.00175561 0.00545684 0)
(0.0019214 0.00384356 6.14948e-23)
(0.00234081 0.00326701 4.41171e-23)
(0.00230263 0.00223165 0)
(0.00871835 0.00182865 0)
(0.00677746 0.000869673 0)
(0.00624308 -0.000373939 0)
(0.00638318 -0.00204292 0)
(0.00592059 -0.00389514 0)
(0.0042565 -0.00554878 0)
(-1.76651e-05 -0.00798409 0)
(-0.0110686 -0.0124205 0)
(-0.0247066 -0.0128002 0)
(-0.0384213 -0.0106672 0)
(-0.057625 0.000234666 -1.37181e-20)
(-0.0880201 -0.000712596 0)
(-0.124117 0.0202607 0)
(-0.207087 0.00864469 8.40582e-20)
(-0.791632 -0.179278 5.13702e-19)
(-1.18194 0.018738 -8.88297e-20)
(0.0255111 1.57529 0)
(0.575337 2.19112 -9.6442e-21)
(0.714951 1.75601 2.97562e-19)
(0.921541 0.605952 4.02789e-19)
(0.968552 -0.359716 4.73839e-19)
(0.854614 -1.51348 -2.23175e-19)
(0.783957 -1.90818 3.84976e-20)
(0.265441 -1.27854 0)
(-0.887203 0.213139 -8.33672e-20)
(-0.467578 0.306711 2.21975e-19)
(0.0609145 0.0679705 5.84716e-20)
(0.0909569 0.0309277 0)
(0.073882 0.0313281 0)
(0.0652325 0.0201861 -1.38466e-20)
(0.0484079 0.0224285 0)
(0.0320856 0.0201279 0)
(0.0219573 0.0165641 0)