/*--------------------------------*- C++ -*----------------------------------*\
| =========                 |                                                 |
| \\      /  F ield         | OpenFOAM: The Open Source CFD Toolbox           |
|  \\    /   O peration     | Version:  v2106                                 |
|   \\  /    A nd           | Website:  www.openfoam.com                      |
|    \\/     M anipulation  |                                                 |
\*---------------------------------------------------------------------------*/
FoamFile
{
    version     2.0;
    format      ascii;
    arch        "LSB;label=32;scalar=64";
    class       volScalarField;
    location    "0";
    object      p;
}
// * * * * * * * * * * * * * * * * * * * * * * * * * * * * * * * * * * * * * //

dimensions      [0 2 -2 0 0 0 0];

internalField   nonuniform List<scalar> 
11644
(
0.0409139
0.0413382
0.0422348
0.0436222
0.0455025
0.0478872
0.0507918
0.0542274
0.0581955
0.0626822
0.0676564
0.0730516
0.0787683
0.0846749
0.0905836
0.0963144
0.101627
0.106271
0.110037
0.112722
0.114195
0.114462
0.113626
0.111812
0.109048
0.105534
0.101576
0.097373
0.093098
0.0889255
0.0849694
0.0813136
0.078019
0.0751198
0.0726348
0.0705707
0.068928
0.0677076
0.0669134
0.0665349
0.0401778
0.040596
0.0414605
0.0427957
0.0446204
0.0469525
0.0498116
0.0532165
0.057179
0.0616986
0.0667557
0.0723026
0.0782563
0.0844736
0.0907912
0.0969583
0.102711
0.107752
0.111839
0.114739
0.116285
0.116427
0.115298
0.113138
0.110054
0.106227
0.101913
0.0973831
0.0928478
0.0884702
0.0843712
0.0806277
0.0772839
0.0743658
0.0718825
0.0698348
0.0682188
0.0670276
0.0662522
0.0658766
0.0385469
0.0389711
0.0398129
0.041088
0.0428284
0.0450672
0.0478368
0.0511712
0.0551052
0.0596673
0.0648718
0.0707154
0.0771447
0.0840436
0.0912032
0.0983411
0.105116
0.111164
0.116051
0.119394
0.121041
0.120949
0.119209
0.11616
0.112144
0.107463
0.102393
0.0972177
0.0921727
0.0874231
0.0830686
0.0791706
0.0757504
0.0728086
0.0703368
0.0683198
0.0667398
0.0655764
0.0648072
0.0644214
0.0360837
0.0364867
0.0372839
0.0384805
0.0401083
0.0422113
0.0448395
0.0480506
0.0519106
0.0564933
0.0618771
0.0681211
0.075229
0.0831202
0.0916472
0.100392
0.108876
0.116712
0.122999
0.12719
0.129008
0.128366
0.125522
0.120958
0.115365
0.109181
0.102836
0.096658
0.0908635
0.0855968
0.0809209
0.0768407
0.0733449
0.0704004
0.0679659
0.0660022
0.0644729
0.063345
0.0625939
0.0622125
0.032875
0.0332322
0.0339402
0.0350093
0.0364715
0.0383745
0.0407827
0.0437799
0.0474707
0.0519846
0.0574706
0.0640931
0.0720044
0.0812747
0.0917673
0.102971
0.114023
0.124785
0.133408
0.139026
0.141077
0.139334
0.134521
0.127418
0.119346
0.11089
0.102724
0.0952058
0.0885118
0.0826727
0.0776767
0.0734672
0.0699605
0.0670741
0.0647314
0.0628665
0.0614263
0.0603689
0.0596685
0.0593171
0.0290278
0.029309
0.0298795
0.0307553
0.0319693
0.0335718
0.0356369
0.0382668
0.0416005
0.0458331
0.0512261
0.0581062
0.0668026
0.0775108
0.0905481
0.105456
0.12056
0.135814
0.148495
0.156808
0.159183
0.155337
0.146807
0.135258
0.123253
0.111541
0.100886
0.0918578
0.0843461
0.0781299
0.0730021
0.0688232
0.0654511
0.0627457
0.0605957
0.058913
0.0576305
0.056702
0.0560916
0.0557875
0.024655
0.0248465
0.0252344
0.0258389
0.0266968
0.0278606
0.0294056
0.0314403
0.034133
0.037767
0.0427198
0.0493983
0.0582273
0.0702216
0.086064
0.105502
0.121678
0.141645
0.160502
0.174459
0.179761
0.175347
0.163303
0.147159
0.125639
0.109289
0.0956939
0.0852597
0.0773853
0.071272
0.0664772
0.0626793
0.0596911
0.0573645
0.0555633
0.0541834
0.0531486
0.0524065
0.0519282
0.0516883
0.0199081
0.0199897
0.0201519
0.0204161
0.0208077
0.0213744
0.0221831
0.0233418
0.02504
0.0276038
0.0313989
0.0369348
0.0449725
0.0568231
0.0729216
0.093455
0.122018
0.154809
0.187279
0.211935
0.2202
0.209754
0.186044
0.157839
0.130879
0.107586
0.0915843
0.0741065
0.0667245
0.0614934
0.0577043
0.0548357
0.0526211
0.0509417
0.0496841
0.0487487
0.0480678
0.047591
0.0472861
0.0471413
0.0149971
0.0149365
0.0148352
0.0146885
0.0145156
0.0143394
0.0142062
0.0141913
0.0144675
0.0153082
0.0169866
0.0198799
0.024638
0.0384605
0.0525246
0.0760196
0.108092
0.154821
0.210422
0.259617
0.279835
0.260257
0.215294
0.167063
0.125984
0.093252
0.0755988
0.0567557
0.0517641
0.0486295
0.0466265
0.0452815
0.0443008
0.0435932
0.043102
0.0427665
0.0425391
0.0423927
0.0422986
0.0422472
0.0101014
0.00992598
0.00954012
0.00894765
0.00814274
0.00711165
0.00586088
0.00440049
0.00280446
0.00116263
-0.000399028
-0.00170761
-0.00283971
0.0069803
0.0140369
0.0352287
0.0688309
0.127273
0.221804
0.335899
0.392533
0.340454
0.236791
0.151998
0.093265
0.0568415
0.0454261
0.0328246
0.0326936
0.0330277
0.0336696
0.0343853
0.0350384
0.035589
0.0360555
0.0364481
0.0367589
0.0369844
0.0371346
0.0372095
0.00555885
0.00522269
0.00453996
0.00349738
0.00204532
0.000133918
-0.00232482
-0.00540712
-0.0091861
-0.0138735
-0.019687
-0.0267697
-0.0354742
-0.0362325
-0.0432166
-0.0430137
-0.0338358
-0.00711116
0.100387
0.361985
0.583902
0.385356
0.148179
0.0428434
0.00644391
-0.00371602
0.00256873
0.00379623
0.0104362
0.0156539
0.0197185
0.0229164
0.0254294
0.0273708
0.0288939
0.0300833
0.0309864
0.0316268
0.0320344
0.032218
0.00162056
0.00113801
0.000195804
-0.00128193
-0.00334176
-0.00608074
-0.00968723
-0.014352
-0.0203177
-0.0280626
-0.0382403
-0.0517443
-0.0697078
-0.0783296
-0.109726
-0.138185
-0.192847
-0.308472
-0.608267
-0.421585
-0.207287
-0.120651
-0.0759426
-0.0445597
-0.0265177
-0.0119017
-0.00144602
0.00622252
0.0119457
0.0162647
0.0195481
0.0220923
0.0240438
0.025492
0.0265198
0.027177
0.0275168
-0.00157824
-0.00212028
-0.00327
-0.00506588
-0.00760495
-0.0110082
-0.0154918
-0.0213842
-0.0290798
-0.03921
-0.0526756
-0.0708974
-0.0953563
-0.115482
-0.161262
-0.213381
-0.305855
-0.485744
-0.695199
-0.525428
-0.367858
-0.214228
-0.129835
-0.0819339
-0.0483231
-0.0289155
-0.0150418
-0.00483517
0.00273189
0.00843436
0.0127803
0.0161333
0.0186955
0.0205814
0.0219255
0.0228064
0.023244
-0.0037229
-0.00437085
-0.00566251
-0.00763817
-0.010431
-0.0141925
-0.0191066
-0.0255849
-0.0341228
-0.045369
-0.0602893
-0.080307
-0.106634
-0.133051
-0.182199
-0.239748
-0.32567
-0.442278
-0.486426
-0.448098
-0.364689
-0.226811
-0.139403
-0.0936863
-0.0563138
-0.0370398
-0.0227219
-0.0118854
-0.00365842
0.00270348
0.00763865
0.0114543
0.0143625
0.0165112
0.0180507
0.0190611
0.0195291
-0.00480616
-0.00546574
-0.00676249
-0.00876275
-0.0115532
-0.0152928
-0.020138
-0.0264399
-0.0347507
-0.0456927
-0.0599203
-0.0786442
-0.103018
-0.130659
-0.176416
-0.234019
-0.316995
-0.430912
-0.485079
-0.542534
-0.543426
-0.445924
-0.39145
-0.271028
-0.166662
-0.108156
-0.0799349
-0.0508035
-0.0361542
-0.0241497
-0.0145142
-0.00678524
-0.000560189
0.00442297
0.00833314
0.0112952
0.0134821
0.0150263
0.0160253
0.0166151
-0.00502095
-0.00548228
-0.00662915
-0.00842662
-0.0109232
-0.0142323
-0.0184573
-0.0239068
-0.0309484
-0.039998
-0.0515955
-0.0665993
-0.0859579
-0.11162
-0.149741
-0.205652
-0.287757
-0.436176
-0.655627
-0.786189
-0.761862
-0.466389
-0.158326
-0.045753
-0.0620121
-0.058177
-0.0524259
-0.0367141
-0.028615
-0.020485
-0.0131318
-0.00678149
-0.00139052
0.00314979
0.00680021
0.00957555
0.0116734
0.013178
0.0141313
0.0144357
-0.00396229
-0.00440697
-0.0053043
-0.0066931
-0.00862035
-0.0111369
-0.0143022
-0.0182337
-0.023157
-0.0292714
-0.0369342
-0.0467987
-0.0595297
-0.0751796
-0.106556
-0.143826
-0.209323
-0.313003
-0.499286
-0.680016
-0.658519
-0.372717
-0.0408293
0.0576911
-0.00201516
-0.0231784
-0.0261695
-0.0234677
-0.019469
-0.0142924
-0.00915877
-0.00438439
-8.47347e-05
0.0036853
0.0067434
0.00914962
0.0110111
0.0123294
0.0131218
0.0133977
-0.00172232
-0.00210539
-0.00270794
-0.00362109
-0.00484456
-0.00640579
-0.00830858
-0.0104016
-0.0128014
-0.0156304
-0.0189934
-0.0231404
-0.0286703
-0.0344229
-0.0559083
-0.0712062
-0.109862
-0.155205
-0.233111
-0.322462
-0.337076
-0.225985
-0.0691776
-0.0174149
-0.0307803
-0.0266026
-0.0207618
-0.0167092
-0.0125601
-0.00833709
-0.00437109
-0.000668735
0.0026652
0.00553005
0.00787559
0.00977083
0.0112274
0.0122513
0.0129196
0.0132883
0.00121031
0.00103233
0.000741274
0.000308545
-0.000224509
-0.000837497
-0.00149597
-0.00197987
-0.00222188
-0.00214012
-0.00160369
-0.000635123
0.000851276
0.00226316
-0.00564851
-0.00875236
-0.0296962
-0.0600716
-0.116158
-0.199637
-0.270092
-0.270813
-0.219533
-0.160929
-0.0881137
-0.0479465
-0.0241306
-0.0150103
-0.00834871
-0.00342479
0.000298303
0.00338008
0.0059449
0.00804855
0.00977574
0.0111794
0.0122679
0.0130741
0.0136448
0.0139803
0.00451187
0.00449938
0.00444947
0.00442009
0.00446407
0.00466768
0.00507734
0.00580843
0.00712545
0.00933567
0.012735
0.0172886
0.0249292
0.0305133
0.0304511
0.0346438
0.0226318
-0.0142899
-0.10588
-0.247104
-0.363449
-0.393618
-0.338238
-0.226859
-0.105895
-0.0547381
-0.0240545
-0.011526
-0.00368208
0.00146524
0.00491399
0.00748187
0.0094553
0.0110194
0.0122623
0.0132554
0.0140344
0.0146188
0.0150245
0.0152396
0.00774253
0.00782977
0.00798514
0.00826802
0.00874505
0.00952523
0.0107088
0.0123972
0.014804
0.0182845
0.0231808
0.0299584
0.0397021
0.048767
0.0511898
0.0585474
0.0466056
-0.00220329
-0.106921
-0.247498
-0.343054
-0.344553
-0.26821
-0.164179
-0.0748633
-0.0405754
-0.0129422
-0.0023954
0.00386959
0.00772949
0.0103148
0.0121337
0.0134684
0.0144635
0.0151997
0.0157712
0.0162139
0.0165382
0.0167557
0.0168695
0.0106371
0.0108026
0.0111214
0.0116252
0.0123772
0.0134637
0.0150012
0.0171377
0.0200206
0.0238678
0.0288861
0.0350884
0.0437932
0.0530651
0.0529859
0.049925
0.028914
-0.0187541
-0.0862823
-0.148906
-0.174853
-0.156185
-0.113117
-0.0709409
-0.0395405
-0.00787292
0.00270835
0.00941948
0.013326
0.0154515
0.0166442
0.0173501
0.017792
0.0180836
0.0182805
0.0184247
0.0185276
0.018592
0.0186243
0.0186526
0.0132351
0.0134338
0.0138221
0.014414
0.0152496
0.0163843
0.0178837
0.0198471
0.0223832
0.0255861
0.0295367
0.0336731
0.038759
0.0453286
0.0366319
0.0126814
-0.0274705
-0.0747991
-0.103604
-0.109696
-0.101013
-0.0768738
-0.0480199
-0.0240284
-0.00517216
0.00736975
0.0159644
0.0203704
0.022394
0.022972
0.0228034
0.0223614
0.0218582
0.0214343
0.0211138
0.0208834
0.020718
0.0205959
0.0204936
0.0204166
0.0155834
0.0157795
0.0161436
0.0167005
0.0174584
0.0184457
0.0196708
0.0211272
0.0228575
0.0246911
0.026504
0.0275171
0.0260574
0.0215675
0.00273946
-0.0349296
-0.0780658
-0.12357
-0.151917
-0.150269
-0.126363
-0.0865468
-0.0460677
-0.0153735
0.00665154
0.0196277
0.0262946
0.0293227
0.0297965
0.0290661
0.027863
0.0265355
0.0252968
0.0242786
0.0235071
0.0229445
0.0225477
0.0222851
0.0221212
0.0220008
0.0176347
0.0177863
0.0180973
0.018572
0.0191964
0.0199652
0.0208552
0.0217784
0.022674
0.0230929
0.0226258
0.0203669
0.0132462
-0.000694509
-0.028888
-0.0715187
-0.12513
-0.18575
-0.229573
-0.231477
-0.189095
-0.13122
-0.0717639
-0.0240392
0.0080434
0.0262542
0.033902
0.0358454
0.0352124
0.0334909
0.031489
0.0295391
0.0278745
0.0264961
0.0254246
0.0246017
0.0239978
0.0235811
0.0233378
0.023281
0.019412
0.0195151
0.0197699
0.0201569
0.0206581
0.0212388
0.0218489
0.0223912
0.0226406
0.0221883
0.0202157
0.016213
0.00715296
-0.00908829
-0.0401893
-0.0841593
-0.140517
-0.197778
-0.244912
-0.249107
-0.202429
-0.143358
-0.0817413
-0.0324822
0.00216106
0.0246815
0.0364893
0.0397547
0.0384198
0.0361073
0.0336051
0.0313551
0.0294952
0.0279949
0.0268035
0.02588
0.0251859
0.0247141
0.0244336
0.0243905
0.0209304
0.021034
0.02127
0.021613
0.0220467
0.022526
0.0229773
0.0232942
0.0233274
0.0226921
0.0208864
0.0169754
0.00942075
-0.00452465
-0.0295313
-0.0648324
-0.105341
-0.146253
-0.18071
-0.187642
-0.160132
-0.12024
-0.0734802
-0.0326639
-0.00218633
0.0196075
0.0331259
0.0390867
0.0389526
0.0367569
0.0342511
0.0321074
0.0303168
0.0288548
0.027683
0.0267839
0.0261296
0.0256937
0.025432
0.0252981
0.0221528
0.0223057
0.0225692
0.0229221
0.0233446
0.0238022
0.0242372
0.0245694
0.0246991
0.0244452
0.0235139
0.0211586
0.0167385
0.00875243
-0.00693344
-0.031834
-0.0601088
-0.0893291
-0.110781
-0.121238
-0.118309
-0.100062
-0.0713415
-0.0379809
-0.00926092
0.0129151
0.0270438
0.0338821
0.0357223
0.0347971
0.0332033
0.0316553
0.0302137
0.028968
0.0279581
0.0271742
0.0265837
0.0261609
0.0258814
0.0257257
0.0231513
0.0233436
0.0235901
0.0239269
0.0243445
0.0248345
0.0253705
0.0258992
0.0263607
0.0266192
0.026438
0.0254016
0.0228566
0.0181093
0.00972812
-0.00595502
-0.0285255
-0.053953
-0.0763401
-0.0922154
-0.0989406
-0.0929667
-0.0733586
-0.0473953
-0.0220118
-0.000681869
0.0147658
0.0243675
0.0290767
0.0302906
0.0303528
0.0298285
0.0290369
0.028242
0.0275407
0.0269493
0.0264707
0.0261117
0.0258772
0.0257658
0.0239037
0.0240205
0.024251
0.0245885
0.0250346
0.0255933
0.0262638
0.0270324
0.0278501
0.0285651
0.0289186
0.0283413
0.0263332
0.0217556
0.0142181
0.00218141
-0.0179388
-0.0433693
-0.070758
-0.0931568
-0.102854
-0.101453
-0.0883609
-0.0673375
-0.0435808
-0.0209827
-0.00162798
0.0128044
0.0210479
0.0249208
0.0266641
0.0272255
0.0272694
0.0270684
0.026777
0.0264545
0.0261576
0.025917
0.0257502
0.0256648
0.0243839
0.0243954
0.0246158
0.0249802
0.0254842
0.0261144
0.026885
0.0278125
0.0288526
0.0298912
0.0306674
0.0308092
0.0292481
0.0244572
0.0145772
-0.00122035
-0.024362
-0.0532812
-0.0878938
-0.117766
-0.134665
-0.135127
-0.121482
-0.0989678
-0.06887
-0.0387989
-0.013905
0.00356713
0.0144973
0.0204188
0.023354
0.0248448
0.0256148
0.0259324
0.0259967
0.025928
0.0258032
0.0256704
0.0255545
0.0254591
0.0247153
0.0247461
0.0249223
0.0252448
0.0257231
0.0263464
0.0271152
0.0280662
0.0291391
0.0303236
0.0313718
0.0319068
0.0301207
0.024303
0.013016
-0.00532726
-0.0303848
-0.0611329
-0.100707
-0.134613
-0.162132
-0.159725
-0.139616
-0.113457
-0.078109
-0.0454775
-0.019336
-0.000830725
0.0106922
0.017429
0.0212085
0.0232914
0.0244472
0.0249945
0.0252509
0.0253397
0.0253401
0.0252982
0.0252433
0.0251633
0.0248077
0.0249226
0.0250963
0.025367
0.0257671
0.0263068
0.0269863
0.0278118
0.0287671
0.0298724
0.0306769
0.0305647
0.0276687
0.0209543
0.00965353
-0.00742262
-0.0308642
-0.0598038
-0.0932259
-0.122615
-0.143954
-0.139802
-0.118794
-0.0936335
-0.0631588
-0.0370408
-0.0157381
7.81448e-05
0.0105414
0.0167897
0.0204979
0.0225918
0.0237625
0.0243773
0.0247
0.0248468
0.0248942
0.0248875
0.0248651
0.0248375
0.0245205
0.0246401
0.0248282
0.0250897
0.0254353
0.0258753
0.0264179
0.0270531
0.0277306
0.028414
0.0285866
0.0273209
0.0233975
0.0155218
0.00340749
-0.012838
-0.0334531
-0.0571831
-0.0795738
-0.0951204
-0.101988
-0.0963712
-0.0815714
-0.061498
-0.0402014
-0.0216477
-0.00536346
0.00652494
0.0141009
0.0185836
0.021248
0.0227934
0.0236851
0.0242006
0.0244819
0.0246069
0.0246378
0.0246225
0.024598
0.0245962
0.0239917
0.0240576
0.0241797
0.0243721
0.0246268
0.0249312
0.0252668
0.0255903
0.0257646
0.0256091
0.0247716
0.0221616
0.0169824
0.00794339
-0.00510037
-0.0208568
-0.0388218
-0.0572131
-0.0713806
-0.0769243
-0.073783
-0.0658421
-0.053412
-0.0366836
-0.0202165
-0.00534753
0.00680706
0.0145112
0.0187724
0.0212101
0.0226263
0.0234823
0.0239989
0.024295
0.0244437
0.0245019
0.0245132
0.0244979
0.0244781
0.0244353
0.0233858
0.0233881
0.0234441
0.0235404
0.0236577
0.0237577
0.0237837
0.0236535
0.0231777
0.0219991
0.0196713
0.0150229
0.00744441
-0.00300454
-0.0160489
-0.0310224
-0.0463081
-0.0609494
-0.0711544
-0.0725009
-0.0675149
-0.0556275
-0.0394181
-0.0217531
-0.0057921
0.0066552
0.0147624
0.019493
0.0220923
0.0234706
0.0241265
0.0243621
0.0244343
0.0244245
0.0243812
0.0243287
0.0242839
0.0242456
0.0242116
0.0241813
0.022751
0.022755
0.0227819
0.0228011
0.0227765
0.0226647
0.0223716
0.0217881
0.0207199
0.018705
0.0150746
0.0086894
-0.00141843
-0.0150465
-0.0314952
-0.0486296
-0.0642783
-0.0772865
-0.0854581
-0.085323
-0.0773599
-0.0598632
-0.0387899
-0.0188756
-0.0021684
0.00994185
0.0179817
0.0225509
0.0246931
0.0254019
0.0253759
0.0251022
0.0247544
0.0244479
0.0242107
0.0240212
0.0238814
0.023792
0.0237473
0.0237814
0.0221297
0.0221815
0.0221789
0.022123
0.0219752
0.021725
0.021224
0.0203584
0.0189103
0.0164574
0.0121465
0.0048594
-0.00662221
-0.0225678
-0.0427244
-0.0636035
-0.0834328
-0.0974767
-0.108119
-0.10808
-0.0922997
-0.0693989
-0.0435868
-0.0220346
-0.00411795
0.00914602
0.0184448
0.0236374
0.025914
0.0264242
0.0258136
0.0252883
0.0247356
0.0242774
0.0239271
0.023663
0.0234763
0.0233687
0.023333
0.023382
0.021502
0.0215564
0.0215258
0.0214379
0.021254
0.0209405
0.0203947
0.0194738
0.0179132
0.0153793
0.0111176
0.00413422
-0.00646153
-0.0209886
-0.039534
-0.0606236
-0.0814439
-0.0969596
-0.111458
-0.113507
-0.0927259
-0.0704215
-0.0441348
-0.0231171
-0.00525533
0.00786626
0.0168459
0.0221087
0.0248399
0.0256482
0.0252558
0.0247749
0.0242435
0.0238226
0.0234942
0.023252
0.0230888
0.0229982
0.0229551
0.0229376
0.0209077
0.0209026
0.0208796
0.0208191
0.0206746
0.0204097
0.0199546
0.0192023
0.0179417
0.0158598
0.0123446
0.00670531
-0.001678
-0.0127201
-0.0264305
-0.0427577
-0.060363
-0.0749125
-0.0863219
-0.0889155
-0.078329
-0.062759
-0.0432668
-0.0247006
-0.00871594
0.00368883
0.0125701
0.0184363
0.0219086
0.0234759
0.0237877
0.0236137
0.02329
0.0230148
0.0227873
0.0226144
0.0224874
0.0223957
0.0223213
0.0222532
0.0204984
0.0204769
0.0204612
0.0204244
0.0203349
0.0201631
0.0198618
0.0193656
0.0185686
0.0172838
0.0151134
0.0115085
0.00560419
-0.00277288
-0.0129141
-0.0247579
-0.0373757
-0.0492817
-0.0579392
-0.0626574
-0.0621827
-0.0552512
-0.0430276
-0.0285626
-0.0151991
-0.00361066
0.0058956
0.0131441
0.0177717
0.0202499
0.0213918
0.0217412
0.0218035
0.0217606
0.0216773
0.0215956
0.0215247
0.0214675
0.0214245
0.0213943
0.0201951
0.020216
0.0202084
0.0201859
0.0201404
0.0200662
0.0199408
0.019724
0.0193663
0.0187875
0.0177645
0.0159197
0.0126396
0.0070333
-0.00102572
-0.0111643
-0.0225155
-0.0340597
-0.0443256
-0.0511013
-0.0538848
-0.0523446
-0.0439883
-0.0330852
-0.0217009
-0.010921
-0.00135418
0.00638645
0.0120562
0.0158504
0.0181017
0.0192853
0.0199152
0.0202107
0.02034
0.0203974
0.0204221
0.0204415
0.020468
0.0204968
0.0197913
0.0197858
0.0197996
0.0198208
0.019854
0.0199052
0.0199724
0.020053
0.0201151
0.0200999
0.019819
0.0189491
0.0170858
0.0133911
0.00662583
-0.00309976
-0.0153474
-0.0288898
-0.041877
-0.0517493
-0.056198
-0.0568041
-0.0512847
-0.0421619
-0.0318944
-0.0210385
-0.0106166
-0.0015888
0.00577691
0.0112995
0.0148064
0.0168587
0.0180426
0.0187069
0.0191037
0.0193253
0.0194455
0.0195112
0.0195561
0.0196147
0.0193073
0.0192445
0.0192578
0.0193171
0.0194265
0.0195896
0.0198202
0.0201312
0.0205172
0.0209113
0.0212948
0.0208108
0.0190276
0.0154806
0.0087578
-0.000923284
-0.0137085
-0.0286748
-0.045054
-0.0595612
-0.0695274
-0.0712658
-0.0659635
-0.0573783
-0.0462275
-0.0334819
-0.0202191
-0.00825713
0.00124502
0.00804755
0.0123564
0.0149601
0.0164837
0.0174479
0.0180649
0.0184353
0.0186498
0.018756
0.0188061
0.0188127
0.0188377
0.0187986
0.0188073
0.0188656
0.0189885
0.0191783
0.0194533
0.0198168
0.020303
0.0208338
0.0212327
0.0207391
0.0188203
0.015116
0.00854652
-0.000966494
-0.0135365
-0.0286247
-0.0473834
-0.0641491
-0.0808271
-0.0819293
-0.074368
-0.065343
-0.0521991
-0.0378577
-0.0229513
-0.0101046
-0.000290534
0.00653809
0.0110134
0.013721
0.0154554
0.0165498
0.0172446
0.0176648
0.0179363
0.0180831
0.0181472
0.0180997
0.0182755
0.0183066
0.01834
0.0183926
0.0184839
0.0186255
0.0188259
0.0190902
0.01942
0.0196308
0.019538
0.0186417
0.0164525
0.0125909
0.00623744
-0.00280448
-0.01488
-0.0289394
-0.0453126
-0.0593924
-0.071603
-0.0724077
-0.065639
-0.0561556
-0.0425903
-0.0293566
-0.0168036
-0.006499
0.001314
0.00712958
0.0110724
0.0135331
0.0150857
0.0160339
0.0166367
0.0170116
0.0172454
0.0173727
0.017431
0.0174122
0.0175153
0.0175559
0.0175961
0.0176347
0.0176775
0.0177311
0.0177958
0.0178522
0.0178735
0.0176273
0.0167081
0.0149425
0.0117836
0.00692521
0.000179774
-0.00847433
-0.0188229
-0.0301863
-0.0410967
-0.049186
-0.0529846
-0.0511744
-0.0453559
-0.0368775
-0.0265416
-0.0166908
-0.00782852
-0.000577361
0.00534446
0.00965289
0.0124431
0.0141691
0.0152394
0.0158831
0.016291
0.0165437
0.0166935
0.0167687
0.016806
0.0168443
0.0166655
0.016656
0.0166321
0.0166021
0.0165628
0.0165001
0.0163828
0.0161421
0.0156879
0.0148212
0.0131486
0.0103328
0.00601553
0.000246214
-0.0068543
-0.0149715
-0.0236933
-0.0322288
-0.038665
-0.0414852
-0.0403778
-0.0360071
-0.0295843
-0.0217076
-0.0135456
-0.00588977
0.000642793
0.00603025
0.0101893
0.0127492
0.0142127
0.0150843
0.0156137
0.0159592
0.0161767
0.0163143
0.0163999
0.0164509
0.0164796
0.0164904
0.0158205
0.0157563
0.0156857
0.0155989
0.0154787
0.0152853
0.0149629
0.0143827
0.0133812
0.0116977
0.0089926
0.0050851
-3.72191e-05
-0.00641016
-0.013881
-0.0219006
-0.0297319
-0.0364612
-0.0401157
-0.0396053
-0.0373062
-0.0311935
-0.0229552
-0.0138515
-0.00500666
0.00240125
0.00804642
0.0118795
0.0140423
0.015123
0.0156763
0.0159197
0.0160429
0.0161025
0.0161341
0.016154
0.0161726
0.0161849
0.016186
0.0161684
0.0150328
0.0149765
0.0149123
0.0148047
0.0146182
0.0142977
0.013776
0.0129175
0.0114787
0.00910328
0.00536412
6.95573e-05
-0.00676962
-0.0149094
-0.0237358
-0.0325066
-0.0403873
-0.0462983
-0.0488143
-0.0461859
-0.0402717
-0.0314376
-0.0206345
-0.0097474
-8.95442e-05
0.00727251
0.0123415
0.0151402
0.0165023
0.0169006
0.0167668
0.0165277
0.0162816
0.0160712
0.0159196
0.0158155
0.0157488
0.0157114
0.015697
0.0157187
0.0143683
0.0143871
0.0143272
0.0141891
0.0139342
0.0135145
0.0128566
0.0118289
0.0101745
0.00749254
0.0031814
-0.003055
-0.0114361
-0.021595
-0.0322414
-0.0422965
-0.0512575
-0.0571165
-0.0598663
-0.0563044
-0.0449737
-0.0324327
-0.019171
-0.00734545
0.00208903
0.00899204
0.0135765
0.0160283
0.017366
0.0176025
0.0171267
0.0166296
0.0161507
0.0157933
0.0155336
0.0153562
0.0152444
0.0151919
0.0151874
0.0152411
0.0137769
0.0138256
0.0137634
0.0136248
0.0133613
0.0129417
0.0122781
0.0112329
0.00962079
0.00707523
0.00307713
-0.00266849
-0.01032
-0.0200474
-0.0308073
-0.0412308
-0.0509835
-0.0573613
-0.0606393
-0.0574843
-0.0449547
-0.0319798
-0.0186684
-0.00736774
0.00150074
0.0081337
0.0124941
0.0149484
0.0163112
0.0166873
0.0164071
0.0160317
0.0156192
0.0152969
0.0150624
0.0149041
0.0148077
0.0147645
0.0147543
0.0147688
0.0132182
0.0132178
0.013174
0.0130801
0.0128982
0.0125919
0.0120958
0.0112934
0.0100075
0.00796624
0.00490931
0.000596011
-0.00494649
-0.0121462
-0.020636
-0.0294326
-0.0378601
-0.0439669
-0.047345
-0.0459668
-0.0394994
-0.03035
-0.0202745
-0.0110006
-0.0029328
0.0035629
0.00832406
0.0114452
0.0133339
0.0143225
0.0147143
0.0147683
0.0146379
0.0144991
0.0143908
0.0143144
0.0142632
0.0142276
0.0141949
0.0141577
0.0128243
0.0127887
0.0127628
0.0127143
0.0126212
0.0124551
0.0121807
0.0117211
0.0109861
0.00976125
0.00779973
0.00482109
0.000964641
-0.00379509
-0.00949659
-0.0158279
-0.0220998
-0.027607
-0.0318255
-0.0338434
-0.0329322
-0.0288215
-0.0228846
-0.0160705
-0.00923091
-0.00307657
0.00207603
0.00611189
0.00907485
0.0110829
0.0122757
0.0128658
0.0131338
0.01327
0.0133431
0.0133828
0.013406
0.0134164
0.0134128
0.0133984
0.0125892
0.012597
0.0125857
0.0125645
0.0125272
0.0124716
0.0123716
0.0122239
0.0119647
0.0114953
0.0106138
0.00906363
0.00655405
0.00314969
-0.0012131
-0.00653448
-0.0125004
-0.0184197
-0.0237528
-0.0277479
-0.0291385
-0.0289591
-0.0261521
-0.0210673
-0.0150871
-0.00921251
-0.00380266
0.000861439
0.00462078
0.00743919
0.00940063
0.0106393
0.0113858
0.011846
0.0121207
0.0122883
0.0124047
0.0124944
0.0125647
0.0126062
0.012308
0.012322
0.0123376
0.0123583
0.0123887
0.0124393
0.0125088
0.0126029
0.0126962
0.0127731
0.0126936
0.0122715
0.0109826
0.00851508
0.00464054
-0.000691857
-0.00739366
-0.0146108
-0.0214546
-0.0269898
-0.0306401
-0.0332148
-0.0323496
-0.0283654
-0.0226853
-0.0164516
-0.0102949
-0.00461223
0.000127228
0.00390941
0.00675192
0.00867806
0.00989823
0.0106488
0.0111065
0.0113896
0.0115661
0.0116856
0.0117738
0.0118535
0.011909
0.0118782
0.0118943
0.0119439
0.0120372
0.01218
0.0123949
0.012682
0.0130624
0.0134839
0.0139365
0.0139877
0.0132421
0.0116151
0.00843753
0.00355824
-0.00314947
-0.0116795
-0.0207195
-0.0290355
-0.0366464
-0.0416171
-0.0416101
-0.0376489
-0.0320206
-0.0249885
-0.0175007
-0.0102255
-0.0038057
0.00120356
0.00481977
0.007277
0.00880112
0.0097588
0.0103615
0.0107408
0.0109691
0.0110995
0.0111702
0.0112066
0.0115005
0.0114589
0.0114621
0.0115077
0.0116109
0.0117795
0.0120319
0.0123737
0.012878
0.0133463
0.0138563
0.0140084
0.0134178
0.0122392
0.00970544
0.00541091
-0.000705615
-0.00963373
-0.0201823
-0.030638
-0.0401044
-0.0467755
-0.0465862
-0.0416396
-0.0359725
-0.0283756
-0.0201412
-0.0121409
-0.0051344
0.000132044
0.00389494
0.00647895
0.00810784
0.00915097
0.00981101
0.0102417
0.0105088
0.0106619
0.0107258
0.0106863
0.0110671
0.0110699
0.0110823
0.0111147
0.0111855
0.0113011
0.011478
0.0117186
0.0120279
0.0122523
0.0123785
0.0121477
0.0113244
0.0097913
0.00703557
0.00275766
-0.00298531
-0.0106447
-0.0195846
-0.0288904
-0.0360386
-0.0405695
-0.0399068
-0.0356043
-0.0298464
-0.0227
-0.0153497
-0.00850648
-0.00294635
0.0012609
0.00442571
0.00658848
0.00799802
0.00889816
0.00946746
0.00983957
0.0100684
0.0101926
0.010247
0.0102151
0.010494
0.0105237
0.010545
0.0105583
0.0105699
0.0105828
0.0106005
0.0106017
0.0105456
0.0102953
0.00968437
0.00859066
0.00687897
0.00435628
0.000927236
-0.00341771
-0.00861021
-0.0140983
-0.0197538
-0.0249266
-0.0278646
-0.0284111
-0.0262995
-0.0226318
-0.0178483
-0.0124994
-0.00728889
-0.00268113
0.000949648
0.00386363
0.00604459
0.0074673
0.00842733
0.00900285
0.00935455
0.00957407
0.0096964
0.00975789
0.00978806
0.00980968
0.00982644
0.00981865
0.00978896
0.00973636
0.00965882
0.00954343
0.00936279
0.00907086
0.00859784
0.0077831
0.00643358
0.0044386
0.00179513
-0.00150642
-0.00539461
-0.00967576
-0.0141866
-0.0181854
-0.0207319
-0.0218524
-0.0216772
-0.0194538
-0.015997
-0.012124
-0.00790125
-0.00384638
-0.000311766
0.00261722
0.0049367
0.00676849
0.00794118
0.00862353
0.00904152
0.00926755
0.00940789
0.00949101
0.00953468
0.00955687
0.00957014
0.00958923
0.00915838
0.00909888
0.00901042
0.0088945
0.00873814
0.00850769
0.0081444
0.00757041
0.00666757
0.00528294
0.00329152
0.000640514
-0.00275829
-0.00685125
-0.0114013
-0.0159354
-0.0201103
-0.0230166
-0.0234418
-0.021675
-0.0193636
-0.0157082
-0.0113923
-0.00666214
-0.00205964
0.00190196
0.00492921
0.0070488
0.00843548
0.00917305
0.00944657
0.00955941
0.00956782
0.00953923
0.00951383
0.00949719
0.00948426
0.00947268
0.00946153
0.00943985
0.00855556
0.0084826
0.00839666
0.00827149
0.00807678
0.00776596
0.00727055
0.006479
0.00520454
0.00327837
0.000554051
-0.00308801
-0.007695
-0.0130423
-0.0186734
-0.023883
-0.0279684
-0.030054
-0.0293003
-0.0251427
-0.0199509
-0.0143576
-0.0083424
-0.00244273
0.00254978
0.00633394
0.0088792
0.0102496
0.010817
0.0107589
0.0104581
0.0101298
0.0098428
0.00961877
0.00945229
0.00933578
0.00926157
0.00921449
0.00918811
0.00918271
0.00807947
0.0080675
0.00800242
0.00787131
0.00763943
0.00726543
0.00667753
0.005757
0.00428892
0.00198104
-0.00132076
-0.0058649
-0.0116166
-0.0180712
-0.0245203
-0.030296
-0.0343285
-0.0364529
-0.0350935
-0.0291696
-0.0215017
-0.0135595
-0.00554924
0.00143002
0.00618774
0.00932854
0.0110495
0.0117185
0.0117636
0.0113113
0.0107714
0.0102203
0.0097613
0.00941185
0.00915851
0.00898318
0.00887491
0.00881944
0.00880462
0.00884549
0.00770276
0.0077414
0.00768885
0.00755612
0.0073146
0.00693883
0.00634931
0.00543584
0.00401383
0.00180279
-0.00132443
-0.00554656
-0.0110239
-0.0172436
-0.0235841
-0.0293753
-0.0335536
-0.0357152
-0.0346583
-0.028777
-0.0213702
-0.0132358
-0.00528247
0.00128419
0.00575229
0.00875
0.0102787
0.0109215
0.0109741
0.0106156
0.01021
0.00975085
0.00931503
0.00898933
0.00875646
0.00860718
0.0085174
0.00847835
0.00847357
0.008501
0.00735903
0.00737425
0.00733383
0.00724226
0.00707385
0.00679472
0.00634846
0.00564214
0.00455028
0.00293783
0.000648777
-0.00237087
-0.00630788
-0.0109932
-0.0159572
-0.0206889
-0.0243691
-0.0266518
-0.0268498
-0.0239092
-0.0193186
-0.0136762
-0.00809408
-0.00320063
0.000815643
0.00392843
0.0060752
0.00748916
0.00827811
0.00863998
0.00873914
0.0086545
0.00850666
0.00836753
0.00826028
0.00819225
0.00815137
0.00813032
0.00811625
0.00810033
0.0071104
0.00708813
0.00706773
0.00703457
0.00696547
0.00684076
0.00662063
0.00625502
0.00564988
0.00473218
0.00334301
0.00150034
-0.000809118
-0.00366964
-0.00690802
-0.010288
-0.0133445
-0.0159978
-0.0178548
-0.018159
-0.0170031
-0.0148654
-0.0120598
-0.00876374
-0.00532133
-0.002191
0.000510248
0.00271957
0.0044412
0.0057253
0.0065511
0.00701964
0.00727192
0.00740994
0.00749195
0.00754278
0.00757513
0.00759044
0.00758867
0.00757334
0.00700599
0.00700467
0.00700666
0.00701032
0.00700897
0.00700026
0.00697524
0.00691825
0.00676303
0.00645091
0.00587658
0.00494744
0.00363485
0.00182265
-0.000531468
-0.00345179
-0.00655295
-0.00970028
-0.0123621
-0.0143832
-0.0157566
-0.0165292
-0.0159572
-0.0138337
-0.0108512
-0.00758214
-0.00439425
-0.00153726
0.000876003
0.00278321
0.00420763
0.00519004
0.00582979
0.00624879
0.00651867
0.00669799
0.00682079
0.0069079
0.00696631
0.00699637
0.00690965
0.00693415
0.00696095
0.00699679
0.00704626
0.00712203
0.00722757
0.00736849
0.00753452
0.00768557
0.00776678
0.0076092
0.00698774
0.005773
0.00382796
0.000988635
-0.00244112
-0.00616558
-0.00970763
-0.0134277
-0.0168975
-0.0199677
-0.0210476
-0.0199164
-0.017168
-0.0134165
-0.00941141
-0.00559888
-0.00230901
0.000273521
0.00224489
0.00367621
0.00465646
0.00531103
0.00572243
0.00599081
0.00617028
0.00629684
0.00638989
0.00645893
0.00670137
0.00670127
0.0067302
0.00678537
0.00687819
0.00701833
0.00721607
0.00748653
0.00786298
0.00832283
0.00880647
0.00924333
0.0093612
0.00889343
0.00762948
0.00533927
0.00184724
-0.00278197
-0.00814549
-0.0139332
-0.0196197
-0.0246254
-0.0268545
-0.0264381
-0.0235825
-0.0195045
-0.0146923
-0.00978703
-0.00537035
-0.00181339
0.000807554
0.00267734
0.00392542
0.00473128
0.00523521
0.00555919
0.00576493
0.00589178
0.00597159
0.00601971
0.00642819
0.00639813
0.00640896
0.00645869
0.00656012
0.00671896
0.00695122
0.00727558
0.00770708
0.00825383
0.00885955
0.00954098
0.0100984
0.01015
0.00936787
0.00756827