/*--------------------------------*- C++ -*----------------------------------*\
| =========                 |                                                 |
| \\      /  F ield         | OpenFOAM: The Open Source CFD Toolbox           |
|  \\    /   O peration     | Version:  v2106                                 |
|   \\  /    A nd           | Website:  www.openfoam.com                      |
|    \\/     M anipulation  |                                                 |
\*---------------------------------------------------------------------------*/
FoamFile
{
    version     2.0;
    format      ascii;
    arch        "LSB;label=32;scalar=64";
    class       volScalarField;
    location    "0";
    object      p;
}
// * * * * * * * * * * * * * * * * * * * * * * * * * * * * * * * * * * * * * //

dimensions      [0 2 -2 0 0 0 0];

internalField   nonuniform List<scalar> 
11644
(
0.00584567
0.0064482
0.00754287
0.00907722
0.0112346
0.0141262
0.0175592
0.0212036
0.0249868
0.0289541
0.0330199
0.0368392
0.0398191
0.041529
0.0420743
0.0412069
0.0406339
0.0404606
0.0471527
0.0445628
0.0475606
0.0483493
0.0517017
0.0557052
0.0584456
0.0608654
0.0613557
0.0612985
0.0604546
0.0586628
0.0563892
0.0538428
0.051001
0.0479754
0.0452853
0.043145
0.0413885
0.0399953
0.0389901
0.0384908
0.00373948
0.00430571
0.00553716
0.00737442
0.0097133
0.0124444
0.0157676
0.0197242
0.0240546
0.0283721
0.0325349
0.0361765
0.0391519
0.0416921
0.0429201
0.0435759
0.0433975
0.0412519
0.0470097
0.0463091
0.0502936
0.0543936
0.0583602
0.0591757
0.0613341
0.0626778
0.0635852
0.0627964
0.0608632
0.0584873
0.0556689
0.0525089
0.0494599
0.0468141
0.0443191
0.0419634
0.0399789
0.0384183
0.0373599
0.0368684
0.00254152
0.00278469
0.00362416
0.00526923
0.00749193
0.0101988
0.0133057
0.0168937
0.0209503
0.0253409
0.0296774
0.0338334
0.0379497
0.041497
0.0444978
0.046217
0.0461794
0.0464453
0.049034
0.049024
0.0500787
0.0458907
0.0556217
0.0592768
0.0627456
0.0639259
0.0636365
0.062243
0.0598446
0.0567401
0.0535017
0.0503262
0.0473008
0.0445196
0.041938
0.0397239
0.0379128
0.0366025
0.0358755
0.0355616
0.00136474
0.00162449
0.00225148
0.00325007
0.004776
0.00694498
0.00962491
0.0128293
0.0165348
0.020662
0.0253428
0.0308025
0.0362407
0.0426042
0.0477445
0.0511166
0.0527776
0.0551634
0.060255
0.042426
0.0482683
0.0530387
0.0562134
0.0590055
0.0616289
0.0625304
0.0620045
0.0599746
0.0573059
0.0541757
0.0505808
0.0472048
0.0441705
0.0414175
0.039123
0.0371836
0.0356956
0.0345901
0.0339572
0.0337227
-0.000793871
-0.000473379
0.000196282
0.000951822
0.00206093
0.00343867
0.0053863
0.00792517
0.0111855
0.0153491
0.0209328
0.0277632
0.0360856
0.0430431
0.050558
0.0551794
0.0569826
0.061748
0.0679615
0.0582305
0.0596277
0.0571247
0.0568408
0.0567089
0.0595392
0.0594912
0.0571556
0.0549873
0.0518637
0.0488017
0.0458235
0.042612
0.0397473
0.0373857
0.0354773
0.0340352
0.0330094
0.0325261
0.0320592
0.0320077
-0.00195257
-0.00178848
-0.00159707
-0.00101738
-0.00039885
0.000417066
0.00162495
0.00332583
0.0059976
0.00994025
0.0151364
0.0220395
0.0296947
0.0416843
0.0528253
0.0611639
0.0644605
0.0756819
0.0836544
0.0825384
0.0727459
0.0683292
0.0623567
0.0543088
0.0537277
0.0513579
0.0489814
0.0443727
0.0420334
0.0395522
0.0375229
0.0356162
0.0338144
0.032427
0.0314256
0.0308963
0.0305603
0.0301767
0.0300619
0.0294944
-0.00268313
-0.00245487
-0.00226121
-0.00204249
-0.00199261
-0.00154746
-0.00106871
-0.00010458
0.00183433
0.00506472
0.0101576
0.0170639
0.0277869
0.0364165
0.0485718
0.0637994
0.0847012
0.0853906
0.0874097
0.0891415
0.0695623
0.0704856
0.0606107
0.0510957
0.0368377
0.0293425
0.0280913
0.0293454
0.0292887
0.0288128
0.0285039
0.0284173
0.0283316
0.0281919
0.0282711
0.0281591
0.028114
0.0276682
0.0273744
0.0277054
-0.0034132
-0.00358413
-0.00288076
-0.0026609
-0.0019083
-0.00148593
-0.00116848
-0.000561547
0.000662771
0.00361455
0.00988189
0.0180257
0.02417
0.0395036
0.0573803
0.0736711
0.0967167
0.100622
0.101994
0.0999738
0.0891824
0.0689045
0.0510158
0.0393541
0.0193627
0.0119048
0.0142334
0.0147915
0.0194961
0.0213235
0.0230266
0.0239506
0.0249149
0.0254787
0.0257892
0.026168
0.0264751
0.0274174
0.027348
0.0274025
-0.00196506
-0.00147835
-0.00172128
-0.00122589
-0.000714342
-0.00053366
-9.50791e-05
0.000924471
0.00302087
0.00698797
0.0143939
0.0261004
0.0384762
0.052907
0.0673665
0.0867249
0.0998814
0.117857
0.131953
0.124667
0.112838
0.0760452
0.045916
0.0367001
0.0161491
0.0164288
0.016273
0.00878201
0.0141041
0.017194
0.0206927
0.0233752
0.0253313
0.0267766
0.0273571
0.0279186
0.0276654
0.0270001
0.0271353
0.0259652
-0.000634338
0.00030485
0.00097794
0.00213885
0.00203122
0.00258886
0.00344781
0.00503693
0.00873381
0.0139903
0.0202043
0.0331922
0.0461201
0.0534023
0.0733437
0.101274
0.124089
0.15034
0.16569
0.165215
0.126507
0.0719986
0.0348492
0.0202102
0.0135796
0.0107778
0.0138873
0.0137034
0.018309
0.019865
0.0229837
0.0257932
0.0273795
0.0288105
0.029167
0.0291182
0.0293247
0.0285647
0.0284257
0.0295306
0.00231259
0.00142994
0.00335289
0.00355811
0.00467387
0.00619288
0.00819581
0.0114255
0.0153282
0.0210213
0.025926
0.034361
0.0383279
0.062633
0.0838091
0.0977631
0.128327
0.172488
0.22533
0.258588
0.160271
0.013967
-0.0160178
-0.00326587
0.00750557
0.0189361
0.0284155
0.0306283
0.0298617
0.0294222
0.0300341
0.0307206
0.0315447
0.0324298
0.0327568
0.0328046
0.0336492
0.0349176
0.0342549
0.0329344
0.00290536
0.00549617
0.00508931
0.00552972
0.00731375
0.00862584
0.0107345
0.0147817
0.0181948
0.0230192
0.0301767
0.0376543
0.0448702
0.0460216
0.0676142
0.0854818
0.110368
0.137907
0.191304
-0.0390757
0.0177758
0.0390638
0.0488758
0.0444923
0.050439
0.0422221
0.040256
0.0383105
0.0367695
0.0361663
0.0364498
0.0365681
0.0364388
0.0355564
0.0352294
0.0357623
0.0364685
0.00473255
0.00560556
0.00539606
0.00728123
0.00809206
0.00889347
0.0103814
0.0121335
0.0147547
0.0161349
0.0233223
0.0242742
0.0153976
0.0176982
0.0146801
0.025662
0.0403252
0.0429347
0.0052949
0.186481
0.123618
0.0706395
0.056955
0.0594742
0.0490536
0.0380028
0.0406416
0.0378587
0.0359016
0.035671
0.0364265
0.0362327
0.035738
0.0356825
0.0361798
0.0397673
0.0436666
0.0128581
0.00265079
0.00230584
0.0022469
0.00150531
0.0012631
0.0017506
-0.000280544
0.00412627
-0.016615
-0.00289551
-0.0163165
-0.0413855
0.000249099
-0.0503642
-0.0599622
-0.0438779
-0.0363305
-0.048094
0.236915
0.138987
0.0809295
0.0379424
0.0829932
0.0451445
-0.00324684
0.0405933
0.0251863
0.0255131
0.0307218
0.0367306
0.0389044
0.0382
0.0387054
0.0389851
0.0408564
0.0454317
0.00579523
0.00645752
0.00108331
-0.000595515
-0.00529243
-0.0144649
-0.0256102
-0.0237111
0.00310202
-0.0320681
-0.0883427
-0.0455666
-0.0711683
-0.152642
-0.205276
-0.259889
-0.236058
-0.296713
-0.53974
0.51931
0.858746
-0.13482
0.233678
0.125268
0.0717494
0.0450257
0.0908433
-0.0376831
-0.0564236
0.0185505
0.0289431
0.0228281
0.0188565
0.0377036
0.0384073
0.0374556
0.0323145
0.0277105
0.0275996
0.0274113
-0.00587182
0.00315944
-0.000737147
-0.00504328
-0.0223842
-0.0352022
-0.0379382
-0.0439098
-0.0518263
-0.0729102
-0.109575
-0.16652
-0.181084
-0.038958
-0.275991
-0.200778
-0.578019
-0.469214
-0.296555
1.09442
0.0531051
0.169844
0.0402925
-0.0694635
0.0249793
0.00395311
0.115527
-0.0259229
0.019803
0.0205395
-0.000653866
0.0125967
0.0254214
0.0137354
0.0226323
0.0212478
0.0154481
0.013294
0.0110751
0.0125572
-0.0193514
-0.0125742
-0.020652
-0.0213041
-0.0348094
-0.0474126
-0.0521264
-0.0572771
-0.0699079
-0.0995879
-0.133522
-0.191769
-0.17409
-0.139371
-0.411059
-0.619504
-0.71302
-0.310603
0.349391
0.183111
-1.49223
-0.452234
-0.280779
-0.253066
0.204234
0.124625
-0.0641192
-0.0131978
0.0532317
-0.00969742
0.0261684
0.0247617
0.0268954
0.00358605
0.00290602
0.00511484
-0.00397237
-0.00827281
-0.0125225
0.00417679
-0.0245176
-0.019143
-0.0249076
-0.0337724
-0.0403721
-0.046285
-0.0524342
-0.0689024
-0.0917866
-0.120191
-0.132477
-0.134538
-0.165869
-0.0283617
-0.281618
-0.313792
-0.613676
-0.0980555
0.383226
-0.0724191
-0.159117
-0.850819
-0.596843
0.126022
0.153412
0.227353
-0.0136369
0.00810148
0.0560939
0.0780869
0.0719534
0.0457335
0.0153242
0.0111295
0.00316529
-0.00119575
-0.00337043
-0.0101205
-0.0219835
-0.0229728
-0.0216593
-0.0205989
-0.0256641
-0.0304972
-0.0273788
-0.0310586
-0.0484249
-0.0753089
-0.0967452
-0.117276
-0.154644
-0.212195
-0.0840635
0.126221
-0.277792
-0.143784
-0.0668063
0.336757
-0.459668
-0.122396
-0.379069
0.0431753
0.577215
-0.0587222
0.599156
0.355721
-0.239557
0.273312
0.362821
0.172272
0.100009
0.0282729
0.0053704
-0.00479142
-0.000968129
-0.017343
-0.0187622
-0.0178216
-0.0188274
-0.0168587
-0.00420395
-0.00539359
-0.0183205
-0.025302
-0.0304253
-0.0309204
-0.0410642
-0.0575679
-0.0689084
-0.0754683
-0.0831338
-0.00872212
-0.157911
-0.0513214
-0.0325
0.232514
0.873942
0.880126
0.52045
0.614333
-0.200782
-0.188903
-0.597903
1.09549
0.504056
0.749807
0.35263
-0.00314327
0.365928
0.0514337
0.0181594
0.00260343
-0.00601044
-0.0193554
-0.0338127
-0.0350099
-0.0348357
-0.0328117
-0.0371423
-0.0329256
-0.000615178
-0.00340848
-0.000988257
-0.00207431
-0.0114034
-0.0292557
-0.0394141
-0.0504687
-0.0474214
-0.0342912
-0.00630319
0.08597
-0.146025
-0.361314
0.0437634
0.0870398
0.458149
0.816642
0.0362608
0.352869
-0.653024
-0.288036
0.983475
0.579308
0.946235
0.583251
0.499818
0.332356
0.227353
-0.0776519
-0.023583
-0.0117947
-0.0137816
-0.0429412
-0.042456
-0.0491526
-0.0488535
-0.0525772
-0.052526
-0.0491686
0.0161638
0.0109985
0.0082442
0.00674488
0.00205502
-0.00580111
-0.0228978
-0.0428462
-0.040859
-0.0384139
-0.0362747
-0.0575534
-0.13556
-0.358423
-0.882485
-0.242309
0.496762
0.0524889
-0.369105
-1.02951
-1.2935
-0.749479
1.93944
0.323423
-0.308134
0.66287
0.281894
0.296353
0.15393
0.0529295
0.00506495
-0.017163
-0.0299055
-0.0426729
-0.0530439
-0.0599633
-0.0599458
-0.0581698
-0.0574763
-0.0606724
0.0268879
0.0300459
0.0282913
0.021825
0.0148371
0.00902986
-0.00160159
-0.0229784
-0.0284577
-0.0404565
-0.0705973
-0.148021
-0.12766
-0.0722332
-0.426819
-0.301692
0.339665
1.53585
-0.734763
-1.1498
1.22468
-0.800514
1.72296
0.479377
0.80367
0.979604
-0.287391
0.103488
0.142297
-0.00339471
-0.0118321
-0.0246865
-0.0484234
-0.0600281
-0.0625799
-0.0657417
-0.0685923
-0.072363
-0.0729077
-0.0715397
0.0375338
0.0438416
0.0467299
0.0447905
0.0414782
0.0269233
0.018497
0.00853967
0.00969737
-0.0164978
-0.0681594
-0.227166
-0.3295
-0.2786
-0.274037
0.767021
0.823823
0.415848
0.0944418
0.984895
-1.67118
-1.12068
0.586601
0.448523
0.467365
0.116177
0.391105
0.164026
0.106094
0.0447517
-0.00194414
-0.0235728
-0.0933691
-0.0866181
-0.0803774
-0.084183
-0.0882988
-0.0896012
-0.0890813
-0.0909969
0.0756842
0.0657984
0.0631773
0.0638475
0.0646531
0.0595905
0.0568784
0.0447017
0.0646432
0.0286269
-0.0502713
-0.169606
-0.348101
-0.0892921
-0.547932
-2.0106
-2.39294
-1.44816
-0.117562
0.14048
2.78333
1.77933
0.77065
0.71595
0.80223
0.26977
-0.0360199
0.0436846
-0.0120136
-0.0823886
-0.0712832
-0.0774349
-0.100884
-0.106961
-0.107627
-0.105872
-0.10901
-0.108323
-0.106539
-0.110531
0.099706
0.096713
0.0931087
0.093904
0.0953253
0.101912
0.113425
0.124082
0.105924
0.101134
0.130475
0.00197523
-0.01068
-0.528898
-0.067863
0.0154282
-1.86252
-2.1596
-1.15423
-0.775921
1.72361
1.85896
1.00383
1.37763
-0.456241
-1.0308
-0.521443
-0.366999
-0.205408
-0.238517
-0.166474
-0.155138
-0.15947
-0.148835
-0.133689
-0.123322
-0.125519
-0.123703
-0.124174
-0.129938
0.117772
0.122688
0.12115
0.128496
0.138322
0.14759
0.158864
0.180769
0.19063
0.0835799
0.0746894
0.130248
0.0366373
0.320103
-0.00497988
0.447504
-3.38118
-3.97683
4.07406
2.38851
-1.44037
-1.47752
2.62744
3.475
-2.45
-1.04959
-0.930894
-0.635297
-0.385077
-0.232909
-0.161079
-0.225747
-0.201069
-0.170608
-0.159758
-0.147771
-0.137355
-0.134539
-0.136019
-0.133237
0.142011
0.150275
0.15364
0.159566
0.16826
0.180335
0.197242
0.227412
0.248861
0.235801
0.26824
0.186579
0.20588
-0.307089
0.311806
0.488043
0.115735
0.0774768
2.00723
1.86944
-1.53585
-0.793262
1.0285
0.792505
-0.124705
-0.412602
-0.329145
-0.543925
-0.395498
-0.325673
-0.253014
-0.228299
-0.203486
-0.183426
-0.169962
-0.161132
-0.151714
-0.148317
-0.147104
-0.146271
0.15606
0.163476
0.170522
0.178639
0.192497
0.20362
0.220847
0.243627
0.280176
0.282078
0.306178
0.271855
0.388816
0.384257
0.529537
0.44477
0.712979
0.746015
0.611822
-0.899236
1.17922
0.516228
0.659299
0.2684
-0.371081
-0.78845
-0.499117
-0.349916
-0.269268
-0.260429
-0.258716
-0.216432
-0.200959
-0.18844
-0.182042
-0.172514
-0.164705
-0.160263
-0.156914
-0.155347
0.17305
0.169784
0.173447
0.180339
0.190359
0.201781
0.216429
0.208845
0.228348
0.259805
0.320992
0.171917
0.170588
0.25497
0.368128
0.601432
0.480444
0.298529
0.819958
1.14209
-0.555492
-0.381781
-0.381105
-0.0761303
-0.565901
-0.213965
0.152848
-0.0390064
-0.113553
-0.272573
-0.225434
-0.205938
-0.184393
-0.191917
-0.189026
-0.183976
-0.180143
-0.177011
-0.175027
-0.178986
0.17262
0.171947
0.17665
0.183062
0.189809
0.195247
0.199902
0.200539
0.194639
0.166174
0.129271
0.0724081
0.0769348
0.0167336
-0.121912
-0.244052
0.146494
-0.128313
-0.564759
0.0651846
-1.1938
-0.382426
0.265947
0.500355
0.441487
0.0945217
-0.23461
-0.1523
-0.150206
-0.113995
-0.133191
-0.151841
-0.166395
-0.182607
-0.188475
-0.190299
-0.190713
-0.189036
-0.187797
-0.175584
0.175998
0.17476
0.178625
0.183203
0.190025
0.195558
0.195601
0.211437
0.203375
0.1368
0.0411712
0.0244369
-0.160989
-0.246949
-0.287172
-0.66263
-0.682327
-1.0125
-2.53897
-3.81982
0.959555
0.322355
0.664882
0.105053
-0.0214127
0.130353
0.279632
0.203606
-0.138778
-0.129542
-0.138706
-0.13687
-0.145736
-0.181938
-0.186897
-0.189038
-0.185297
-0.184537
-0.18124
-0.167116
0.187899
0.179756
0.18396
0.184421
0.190373
0.197633
0.208182
0.223822
0.255503
0.118033
0.0999805
0.0788725
0.0740144
-0.107589
-0.506043
-0.669853
-1.00139
-0.622728
-2.53648
-2.35259
-0.738301
-0.215927
0.646731
0.478157
0.472261
0.343302
-0.0177395
-0.114975
-0.145309
-0.103104
-0.193998
-0.174554
-0.157009
-0.163934
-0.172345
-0.176637
-0.175789
-0.177978
-0.178297
-0.166357
0.186487
0.189238
0.192039
0.195968
0.201528
0.210459
0.218222
0.229027
0.233851
0.223755
0.215569
0.144869
0.0406898
-0.0995526
-0.0976098
-0.138879
-0.569713
-0.242338
-0.370183
0.378763
-0.886348
-0.522315
-0.0446999
0.00586875
0.181692
0.0932785
0.160149
0.0474795
-0.0653854
-0.163406
-0.19343
-0.19398
-0.18209
-0.180268
-0.183315
-0.187372
-0.183971
-0.179816
-0.179795
-0.178191
0.173867
0.182687
0.190602
0.199106
0.209686
0.221104
0.232214
0.243354
0.240471
0.220965
0.367781
0.234956
0.195391
0.292162
0.50954
0.600106
-0.562369
-0.349791
0.05904
0.816016
1.07232
0.354504
-0.126644
0.189763
-0.451554
-0.401112
-0.0717957
-0.138657
-0.19475
-0.221374
-0.213582
-0.224861
-0.21234
-0.206614
-0.200188
-0.195036
-0.189648
-0.190163
-0.187592
-0.191371
0.169108
0.1767
0.180928
0.187123
0.198444
0.215981
0.231044
0.247135
0.273402
0.302648
0.337793
0.350547
0.326051
0.302929
0.404009
0.612677
0.265033
0.533869
0.46701
0.971273
-0.320529
0.102324
0.0305201
-0.312074
-0.514478
-0.448117
-0.442656
-0.391343
-0.365558
-0.335624
-0.275792
-0.246587
-0.24179
-0.230602
-0.216673
-0.206074
-0.199241
-0.195256
-0.191879
-0.183141
0.151876
0.155631
0.158745
0.167022
0.174361
0.197273
0.212312
0.233347
0.254266
0.310518
0.301493
0.287511
0.294821
0.43891
0.387634
0.291507
0.125493
0.144854
0.326634
0.667918
-0.710966
-0.420594
-0.449304
-0.56702
-0.861471
-0.739067
-0.635886
-0.640663
-0.439031
-0.376077
-0.300223
-0.285976
-0.261177
-0.246411
-0.232756
-0.219521
-0.203163
-0.190802
-0.184848
-0.181523
0.130433
0.130997
0.132664
0.139557
0.14792
0.161604
0.173397
0.185609
0.181153
0.18354
0.244324
0.220404
0.113304
0.0722328
0.110438
0.115126
0.31381
0.302108
0.828538
1.44511
-1.46671
-1.09383
-1.15504
-1.1283
-1.26972
-1.02263
-0.757098
-0.487245
-0.376628
-0.372692
-0.310528
-0.30752
-0.281703
-0.252099
-0.238585
-0.220791
-0.199331
-0.184452
-0.176719
-0.179777
0.113347
0.117104
0.115699
0.117058
0.119267
0.124826
0.12707
0.124017
0.133415
0.135483
0.108526
0.112739
0.0145077
-0.0371537
-0.331065
-0.62711
-0.453404
-0.697859
0.794747
0.331061
1.02419
0.0992974
-1.89136
-1.32248
-1.00536
-0.740435
-0.498061
-0.427131
-0.335913
-0.348533
-0.316851
-0.318539
-0.295484
-0.250075
-0.220717
-0.193208
-0.176495
-0.157898
-0.152594
-0.158414
0.0970834
0.0950219
0.0956315
0.0914975
0.0946093
0.0938174
0.0845831
0.0821739
0.0758014
0.036786
0.0211459
-0.0517358
-0.169497
-0.174687
-0.772014
-0.775496
-0.0152359
-0.126424
0.526156
0.863093
-0.08112
0.130415
-0.150794
-0.29423
-0.136837
0.0826025
-0.578038
-0.336966
-0.246762
-0.326269
-0.332088
-0.268727
-0.243798
-0.209772
-0.191689
-0.142741
-0.140276
-0.127195
-0.123398
-0.128051
0.0712566
0.0689449
0.0665225
0.0643357
0.0619777
0.0603032
0.0515578
0.0554592
0.0571876
-0.0139419
-0.0832206
-0.197926
-0.276123
-0.40754
-0.570628
-0.581124
-0.433293
-0.272185
-0.0425035
0.307068
0.768604
0.893961
0.85747
0.761296
0.579588
0.372701
0.185794
0.0113254
-0.00412265
-0.11899
-0.181427
-0.170616
-0.151541
-0.137179
-0.127814
-0.112912
-0.108015
-0.103394
-0.102394
-0.0977544
0.0391113
0.0390889
0.0375834
0.0349125
0.0346501
0.038152
0.0248055
0.0210058
0.0122894
-0.00417455
0.0090448
-0.0936018
-0.186466
-0.42352
-0.503998
-0.385004
-0.0622065
0.543462
-1.28985
-2.45521
1.89774
1.10373
1.1954
1.00195
0.67269
0.491209
0.290227
0.0958631
0.0464779
-0.0219096
-0.0999154
-0.0973543
-0.0977904
-0.0818489
-0.0805753
-0.0764501
-0.0764332
-0.0737537
-0.0747768
-0.0731764
0.0308
0.0261166
0.0232798
0.0190708
0.0129534
0.0158593
0.00886069
-0.000408008
0.00272135
-0.0185505
-0.0443143
-0.0814779
-0.101572
-0.118319
-0.202159
-0.203713
-0.273698
-0.236231
-0.747857
-0.726744
0.254785
0.272544
0.593336
0.709213
0.575343
0.416955
0.267198
0.196958
0.158683
0.0522524
-0.0396882
-0.0528684
-0.0336459
-0.0294863
-0.0386405
-0.0398494
-0.042732
-0.043109
-0.0435008
-0.0465158
0.0208998
0.01504
0.0173818
0.0183326
0.0189664
0.0156256
0.0116528
0.0124214
-0.0107708
0.0345748
-0.10909
-0.114047
-0.105459
-0.179635
-0.141671
-0.136106
-0.339289
-0.552508
-0.858308
-0.718976
-0.357353
-0.0495152
0.542952
0.484249
0.498161
0.458675
0.308391
0.215505
0.0960478
0.0406237
0.0205181
-0.0184667
0.0220435
0.0260735
0.00683727
-0.00632155
-0.0151765
-0.0232706
-0.0275411
-0.022285
-0.00368181
-0.000718595
0.00130446
0.00560384
0.00640664
0.00721933
0.0135546
0.0215842
0.0475166
0.0074661
-0.0248783
-0.0766083
-0.0766456
-0.147365
-0.05951
-0.0975455
-0.4022
-0.294776
-1.09619
-1.63069
-0.239111
-0.526904
0.436326
0.401862
0.32266
0.192872
0.102665
0.101116
0.13988
0.102647
0.0723417
0.050935
0.0439709
0.0442202
0.0325173
0.0133972
0.00595242
0.00133287
-0.00181325
0.00308765
-0.028681
-0.0249473
-0.0228687
-0.0199484
-0.0182167
-0.0117724
-0.0201843
-0.0192928
0.0255076
0.0497677
0.0499605
0.030836
0.00181943
0.0527305
0.283014
0.294885
-0.138002
-0.0994878
-0.715442
-1.15965
-0.392885
-0.68365
-0.0102966
-0.0142975
0.203609
0.191687
0.163434
0.15664
0.0886845
-0.0211896
0.0260864
0.0639951
0.0535612
0.0684617
0.0537406
0.0428941
0.0353055
0.028985
0.0251194
0.0208654
-0.0474156
-0.0493652
-0.0520684
-0.0479267
-0.0495684
-0.0474479
-0.0421964
-0.0391756
-0.0228391
0.0117028
0.010232
-0.0031553
0.103459
0.299453
0.32728
0.245479
0.205462
0.0445795
0.155653
0.205775
-1.132
-0.977723
-0.412178
-0.33793
-0.165062
0.0540698
0.029658
0.0394364
0.103125
0.103214
0.0706041
0.0800205
0.0702256
0.0661807
0.0613179
0.054869
0.0493891
0.0380176
0.0358882
0.0263825
-0.0653572
-0.0731956
-0.0736402
-0.0722759
-0.0706834
-0.0696329
-0.0627249
-0.064196
-0.0344608
-0.0234174
-0.034343
0.0259697
0.0459504
0.0530376
-0.0305971
-0.0657626
-0.107009
-0.325485
-0.344254
-0.489179
-0.50138
-0.592164
-0.604668
-0.52999
-0.340688
-0.139166
-0.0312744
0.050085
0.0948768
0.0743441
0.0524856
0.0573941
0.059859
0.0624957
0.0672694
0.0585075
0.0531348
0.0490165
0.0472148
0.0475022
-0.0786511
-0.0853304
-0.0886046
-0.091706
-0.0936834
-0.0946832
-0.0986555
-0.0912014
-0.0748769
-0.069427
-0.0426251
-0.0875829
-0.131342
-0.144463
-0.180623
-0.240122
-0.252063
-0.368781
-0.40511
-0.721025
-0.806609
-0.772462
-0.607137
-0.502876
-0.274942
-0.123986
-0.00335203
0.0502002
0.063137
0.0503601
0.0586917
0.0691622
0.0850613
0.085742
0.0776922
0.0711928
0.0642644
0.0626549
0.0615372
0.0642354
-0.0961293
-0.0983501
-0.100459
-0.105308
-0.110066
-0.115812
-0.125309
-0.12862
-0.13419
-0.133981
-0.11745
-0.119099
-0.0956736
-0.154958
-0.235097
-0.307319
-0.305199
-0.26765
-0.47541
-0.603607
-0.334459
-0.26595
-0.0719175
-0.0366605
0.0520894
0.109575
0.13371
0.131887
0.131467
0.0934267
0.0923327
0.112426
0.106848
0.0914545
0.0885024
0.0875444
0.085519
0.0833345
0.0834344
0.0735605
-0.117762
-0.123858
-0.123762
-0.126666
-0.131101
-0.142166
-0.148907
-0.162228
-0.165515
-0.181479
-0.213329
-0.225767
-0.169186
-0.147296
-0.141108
-0.157125
0.324062
0.338471
0.418638
0.588563
-0.0982736
0.0227383
0.137149
0.161729
0.138043
0.158917
0.15961
0.135852
0.156687
0.190366
0.157983
0.133631
0.116761
0.109749
0.109036
0.104289
0.100863
0.0954797
0.0909154
0.0869686
-0.137291
-0.13816
-0.140548
-0.147238
-0.154339
-0.166444
-0.18277
-0.204201
-0.204521
-0.224804
-0.240554
-0.25891
-0.272183
-0.323231
-0.179216
-0.102049
0.401129
0.477828
0.754055
1.03664
0.707281
0.507859
0.443892
0.511125
0.259308
0.27729
0.252423
0.271361
0.225964
0.162621
0.114294
0.10871
0.109804
0.114923
0.112186
0.107046
0.104593
0.102916
0.100094
0.0980651
-0.142091
-0.150356
-0.152908
-0.162236
-0.167562
-0.176158
-0.200722
-0.22275
-0.263591
-0.314682
-0.276416
-0.319632
-0.305191
-0.35435
0.0238175
0.00280996
0.205121
0.335644
0.691436
0.881824
0.813211
0.828701
0.733622
0.63082
0.530485
0.426237
0.41136
0.204667
0.145886
0.13502
0.081878
0.0998697
0.104364
0.110906
0.107827
0.103422
0.0999432
0.0988285
0.0974242
0.0969408
-0.161484
-0.170349
-0.172455
-0.183172
-0.188586
-0.197079
-0.216624
-0.228947
-0.264235
-0.306956
-0.334099
-0.329803
-0.360088
-0.459413
-0.33224
-0.415238
-0.225518
-0.161534
0.159022
0.44479
0.453679
0.602608
0.525144
0.465419
0.470713
0.350561
0.280679
0.169565
0.122061
0.173265
0.141791
0.130734
0.11764
0.122173
0.11054
0.103277
0.0991861
0.0953115
0.0948178
0.091377
-0.174791
-0.183174
-0.188843
-0.194732
-0.202446
-0.208795
-0.227232
-0.218778
-0.238744
-0.247064
-0.237238
-0.327573
-0.363544
-0.377606
-0.327584
-0.385804
-0.368819
-0.354397
-0.398644
-0.413948
-0.383945
-0.437983
-0.146675
-0.0896229
-0.0575049
-0.0649818
-0.0640317
-0.0225299
0.0450828
0.0824914
0.0959549
0.0994552
0.126203
0.117605
0.111519
0.107143
0.102467
0.0991784
0.0977081
0.0925205
-0.164249
-0.176176
-0.181152
-0.187274
-0.188182
-0.193362
-0.199691
-0.203579
-0.203808
-0.193986
-0.205839
-0.201207
-0.214884
-0.199363
-0.226298
-0.337409
-0.275177
-0.293363
-0.535183
-0.441208
-0.648384
-0.868759
-0.693986
-0.411851
-0.289317
-0.206532
-0.202877
-0.0978783
-0.0196013
0.0567423
0.0890945
0.0992584
0.106356
0.111461
0.109653
0.107931
0.105959
0.107447
0.108475
0.106314
-0.164864
-0.16584
-0.165338
-0.166859
-0.166973
-0.166796
-0.170293
-0.163302
-0.181237
-0.166918
-0.158159
-0.110621
-0.0710631
-0.0567706
-0.0525534
-0.0902192
-0.114775
-0.159367
-0.230017
-0.289082
-0.280611
-0.22385
-0.22569
-0.203539
-0.211316
-0.164234
-0.0879102
-0.0186042
0.0145413
0.035736
0.0682641
0.0938069
0.115603
0.120753
0.116888
0.116128
0.114781
0.106703
0.104528
0.100382
-0.170548
-0.164132
-0.16173
-0.160634
-0.162359
-0.168168
-0.161539
-0.159346
-0.129548
-0.110791
-0.0846652
-0.0518844
0.0198833
0.0930069
0.204535
0.187665
0.313663
0.291004
0.225769
0.347583
0.170153
0.109757
0.164625
0.0813108
0.00981123
-0.0281639
-0.0192677
-0.0427788
-0.0203155
0.0579298
0.102365
0.0889803
0.106851
0.111294
0.106175
0.105531
0.106463
0.102798
0.100011
0.0960403
-0.167996
-0.163371
-0.163308
-0.166156
-0.169159
-0.182247
-0.188207
-0.141641
-0.162465
-0.0886709
-0.0587683
0.04779
0.133151
0.151498
0.249797
0.382126
0.227504
0.605203
0.441713
0.943809
0.416638
0.415396
0.408463
0.224006
0.116846
0.0465874
0.0284658
0.0144526
0.0292226
0.028183
0.0308278
0.0638588
0.0780876
0.0992557
0.0948221
0.0958511
0.0990927
0.0983004
0.0995327
0.0953087
-0.169958
-0.174509
-0.175258
-0.177608
-0.174588
-0.182457
-0.179669
-0.174892
-0.169533
-0.140285
-0.0593669
0.0661793
0.144624
0.166804
0.193124
0.340186
0.178588
0.598667
0.518046
0.666654
0.298007
0.0965645
-0.076012
-0.0831514
-0.080513
-0.0709996
-0.033277
-0.0242011
-0.00949234
0.0361439
0.0367005
0.0522303
0.0572776
0.0773316
0.0830201
0.0802078
0.0860712
0.088643
0.0909606
0.0956541
-0.171267
-0.179801
-0.181525
-0.182263
-0.179594
-0.180091
-0.175245
-0.169248
-0.170044
-0.15211
-0.106923
-0.0471723
-0.0437462
-0.0692582
-0.0910063
-0.0523488
-0.0798383
-0.0867388
-0.0788545
-0.0879408
-0.00283311
-0.20265
-0.0959819
-0.264402
-0.249185
-0.209348
-0.136652
-0.117871
-0.0393418
0.00469569
0.00281769
0.0355818
0.048729
0.064126
0.0680981
0.0732137
0.0776884
0.0832937
0.087204
0.098193
-0.162933
-0.165465
-0.1686
-0.171048
-0.173642
-0.175148
-0.176328
-0.168919
-0.162049
-0.164312
-0.165265
-0.177311
-0.178698
-0.174396
-0.17277
-0.14871
-0.0804586
-0.0288964
-0.0329927
-0.27437
-0.352816
-0.401451
-0.303984
-0.218567
-0.193903
-0.168162
-0.1161
-0.0916856
-0.0186771
2.3407e-05
0.00408432
0.0418882
0.0499815
0.0704972
0.0770167
0.0814756
0.0848492
0.0917941
0.0955798
0.10094
-0.154289
-0.150894
-0.151784
-0.15293
-0.153418
-0.152748
-0.161931
-0.148761
-0.147859
-0.13133
-0.119886
-0.0999665
-0.0947909
-0.0795394
-0.0638352
-0.0356398
0.00846693
0.246504
0.0678078
0.190602
0.19124
0.277876
0.241303
0.155301
0.1191
0.0972532
0.0668056
0.0645704
0.0538206
0.0232879
0.059607
0.0795192
0.0887939
0.0984555
0.0971974
0.10351
0.107019
0.111484
0.112108
0.112237
-0.157757
-0.152589
-0.148087
-0.144489
-0.138799
-0.13926
-0.142744
-0.134281
-0.12422
-0.10619
-0.0698303
-0.023425
0.0231338
0.130545
0.22449
0.351756
0.417845
0.87276
0.847582
0.619662
0.615512
0.781229
0.75787
0.572566
0.451172
0.317081
0.208382
0.139365
0.0906892
0.092287
0.122254
0.12798
0.128234
0.129164
0.126627
0.128533
0.128258
0.128182
0.123499
0.118023
-0.15437
-0.150928
-0.148366
-0.147118
-0.146498
-0.14588
-0.143398
-0.128963
-0.109322
-0.0778374
-0.0274838
0.000898799
0.106061
0.249173
0.364566
0.5294
0.68933
0.919587
1.05164
0.966707
0.845256
1.17755
0.924955
0.786486
0.664764
0.504028
0.371211
0.245397
0.169335
0.143975
0.133469
0.111375
0.144625
0.138619
0.135265
0.135375
0.132132
0.131939
0.131118
0.120211
-0.154172
-0.151304
-0.150928
-0.150729
-0.14853
-0.150129
-0.148601
-0.131893
-0.108238
-0.0840332
-0.0106386
0.081247
0.193039
0.299239
0.379232
0.437202
0.458579
0.644968
0.804572
0.864168
0.92756
0.871625
0.736192
0.641489
0.566012
0.459708
0.380909
0.264983
0.125798
0.172933
0.146219
0.134072
0.134274
0.132317
0.132609
0.127913
0.123903
0.122252
0.121309
0.121707
-0.152765
-0.157573
-0.159686
-0.161344
-0.151303
-0.14449
-0.151497
-0.123833
-0.112066
-0.0908148
-0.0433439
0.0114452
0.0624006
0.104338
0.138839
0.127379
0.199573
0.32018
0.407268
0.388766
0.360297
0.29207
0.275622
0.29976
0.0543324
0.161851
0.237033
0.253262
0.205038
0.184035
0.186343
0.172156
0.145354
0.13553
0.129939
0.124284
0.116825
0.114335
0.115398
0.128097
-0.141566
-0.149232
-0.153437
-0.156804
-0.150979
-0.146359
-0.139745
-0.130323
-0.117755
-0.104821
-0.0659978
-0.0348491
-0.00335225
-0.0290999
0.0895588
0.098874
-0.0142162
-0.109604
-0.239425
-0.0709763
-0.124966
-0.182077
-0.046694
0.0102925
-0.0798151
-0.0550418
-0.00699788
0.0711288
0.117613
0.155185
0.181442
0.162539
0.156289
0.145158
0.137984
0.133946
0.128858
0.126387
0.128621
0.141824
-0.135742
-0.134589
-0.135783
-0.136548
-0.134255
-0.129649
-0.127083
-0.122503
-0.118956
-0.110022
-0.0910621
-0.0802265
-0.0660973
-0.0681466
-0.0516078
0.000247315
0.00603716
-0.0551571
-0.0809091
-0.0848501
-0.261883
-0.235539
-0.143275
-0.0500613
0.0393091
0.0664025
0.121821
0.193515
0.186458
0.187487
0.180855
0.184021
0.1768
0.157826
0.152654
0.149055
0.147633
0.148982
0.149729
0.150638
-0.13187
-0.121224
-0.11956
-0.119387
-0.119722
-0.117832
-0.11978
-0.117195
-0.121975
-0.121297
-0.112146
-0.087291
-0.0626415
-0.0178214
0.0448101
0.176266
0.0761339
0.100557
0.0913812
0.0752239
0.0685989
0.227194
0.335927
0.340568
0.306797
0.285287
0.311109
0.312417
0.298916
0.276237
0.223514
0.210915
0.203677
0.18646
0.175952
0.167019
0.162268
0.157499
0.151569
0.143841
-0.126345
-0.121172
-0.119331
-0.118531
-0.119785
-0.120748
-0.12109
-0.122724
-0.133545
-0.135777
-0.131562
-0.122491
-0.0729859
0.0264428
0.0719836
0.159176
0.26706
0.261582
0.268033
0.376727
0.361136
0.503593
0.575303
0.643428
0.64343
0.591873
0.506253
0.417378
0.350175
0.300036
0.268421
0.235005
0.200052
0.182559
0.170659
0.161098
0.154895
0.150265
0.14478
0.140706
-0.127795
-0.125134
-0.127465
-0.12859
-0.134489
-0.139218
-0.143732
-0.148278
-0.150965
-0.159449
-0.184263
-0.177426
-0.170072
-0.145056
-0.15021
-0.167073
0.0265163
0.0497602
0.149301
0.268511
0.356322
0.6564
0.722791
0.791413
0.7924
0.755277
0.643816
0.540917
0.435962
0.340445
0.255555
0.210184
0.182485
0.161807
0.15338
0.143883
0.139935
0.140066
0.138168
0.134226
-0.127713
-0.134822
-0.136679
-0.138084
-0.147358
-0.149
-0.158037
-0.166078
-0.189354
-0.210098
-0.237469
-0.263668
-0.313954
-0.401093
-0.504349
-0.625588
-0.400532
-0.32521
-0.147041
-0.00197039
0.189542
0.356477
0.425161
0.451051
0.513258
0.553437
0.569418
0.517472
0.434658
0.331819
0.259674
0.20889
0.16972
0.152234
0.136174
0.137884
0.124491
0.122033
0.119221
0.129017
-0.114752
-0.124619
-0.129077
-0.133316
-0.139528
-0.146798
-0.157807
-0.175122
-0.216217
-0.25175
-0.305473
-0.405002
-0.528252
-0.692482
-0.890417
-0.931694
-0.842075
-0.681411
-0.534325
-0.357837
-0.131807
0.0824776
0.313501
0.374896
0.433804
0.420588
0.391846
0.348504
0.333253
0.28124
0.237223
0.178942
0.154766
0.136613
0.123753
0.119469
0.113617
0.114175
0.116471
0.120774
-0.0959647
-0.0956565
-0.101112
-0.109454
-0.120627
-0.133092
-0.149843
-0.173668
-0.224229
-0.28482
-0.358789
-0.470872
-0.581428
-0.678379
-0.742361