/*--------------------------------*- C++ -*----------------------------------*\
| =========                 |                                                 |
| \\      /  F ield         | OpenFOAM: The Open Source CFD Toolbox           |
|  \\    /   O peration     | Version:  v2106                                 |
|   \\  /    A nd           | Website:  www.openfoam.com                      |
|    \\/     M anipulation  |                                                 |
\*---------------------------------------------------------------------------*/
FoamFile
{
    version     2.0;
    format      ascii;
    arch        "LSB;label=32;scalar=64";
    class       volVectorField;
    location    "0";
    object      U;
}
// * * * * * * * * * * * * * * * * * * * * * * * * * * * * * * * * * * * * * //

dimensions      [0 1 -1 0 0 0 0];

internalField   nonuniform List<vector> 
11644
(
(-8.17255e-05 -6.25753e-05 -1.84866e-20)
(-0.000125991 -6.43924e-05 -5.09805e-20)
(-0.000108087 -7.46846e-05 -2.73523e-20)
(-2.25239e-05 -3.40857e-05 0)
(-4.61225e-05 -2.6164e-05 0)
(-7.95814e-05 -3.21581e-05 0)
(-0.000178548 9.29229e-05 0)
(-0.000278232 0.00036241 0)
(-0.000390615 0.000776736 0)
(-0.000507954 0.00135848 0)
(-0.00072667 0.00207663 0)
(-0.000862954 0.0030344 0)
(-0.000867322 0.00417675 0)
(-0.00108293 0.00536956 0)
(-0.0010516 0.00661305 0)
(-0.000798862 0.00803213 0)
(-0.00156278 0.00836486 0)
(-0.00057285 0.00950964 0)
(0.00187016 0.00927569 0)
(0.00160575 0.00676652 -1.25603e-30)
(0.000273299 0.00559745 1.21956e-30)
(-0.00121241 0.00492482 0)
(-0.00148927 0.00423483 0)
(-0.00109451 0.00420933 0)
(-0.000438108 0.00389194 0)
(-0.000238878 0.00354069 0)
(-0.000307222 0.0035651 0)
(2.79954e-05 0.00340451 0)
(0.000129243 0.00319554 0)
(0.000183709 0.00304344 0)
(0.000191461 0.00276837 0)
(0.000211747 0.00249731 0)
(0.000188413 0.00219929 0)
(0.000166556 0.00189275 0)
(0.000156348 0.00158203 0)
(0.000174055 0.00125288 0)
(0.000146392 0.000933562 0)
(0.000188985 0.000677122 0)
(0.000218287 0.000457185 0)
(0.000139414 0.000162651 -3.58435e-21)
(-0.000153769 2.46058e-05 -2.37459e-20)
(-0.000104785 -4.4366e-05 -2.19963e-20)
(-0.000136904 2.44764e-05 -1.18135e-20)
(-0.00022663 3.58963e-05 0)
(-0.000272629 0.000170873 0)
(-0.000327972 0.000308843 0)
(-0.000429343 0.00048182 0)
(-0.000556471 0.000654506 0)
(-0.000723863 0.000882365 0)
(-0.000867287 0.00123778 0)
(-0.000986795 0.00178712 0)
(-0.00135102 0.002497 0)
(-0.00161925 0.00331199 0)
(-0.00184515 0.00434968 0)
(-0.00220319 0.00555114 0)
(-0.00225303 0.00629147 5.33304e-22)
(-0.00157704 0.00712651 2.47306e-20)
(-0.00104171 0.00630533 -7.75855e-20)
(-0.00154851 0.00703896 1.95748e-20)
(-0.000608412 0.00972398 1.86638e-19)
(-2.93372e-05 0.00942594 -2.2638e-19)
(0.00195792 0.00773706 -1.00187e-20)
(0.00189177 0.00629049 1.05873e-19)
(0.000652773 0.00490347 -2.3373e-20)
(-3.53381e-05 0.0042161 -1.22484e-21)
(0.00032929 0.00388597 0)
(0.000694359 0.00355358 0)
(0.000577989 0.00332151 0)
(0.000606097 0.00320795 0)
(0.00066089 0.00287916 0)
(0.00067649 0.00258007 0)
(0.000606001 0.00226438 0)
(0.00060489 0.00192124 0)
(0.000556956 0.00159079 0)
(0.000521948 0.00124423 0)
(0.000486048 0.000958525 0)
(0.000416815 0.000751322 0)
(0.000418337 0.000500949 0)
(0.000380228 0.000306839 0)
(0.000395635 0.000105348 0)
(-0.000497859 1.03272e-05 0)
(-0.000399964 9.60047e-05 0)
(-0.000283757 1.70413e-05 0)
(-0.000275702 -2.10889e-05 0)
(-0.00033487 -5.28646e-06 -2.16914e-20)
(-0.000454679 5.90915e-05 0)
(-0.000534009 0.000136593 0)
(-0.000651178 0.000283352 0)
(-0.000820428 0.000577358 0)
(-0.00110098 0.000997093 0)
(-0.00151614 0.00169253 0)
(-0.00190943 0.00259221 0)
(-0.00258996 0.00392068 3.45854e-21)
(-0.00317294 0.00553602 -9.16365e-21)
(-0.00317944 0.00733321 -1.14264e-19)
(-0.00288661 0.00861491 -1.60403e-19)
(-0.00235618 0.0101339 -2.6111e-20)
(-0.00234728 0.00971502 -1.90308e-19)
(-0.00326158 0.0105003 -1.28601e-19)
(-0.00201915 0.010877 -4.76648e-19)
(0.000195169 0.00856762 9.89264e-19)
(0.000801314 0.00869904 4.06411e-19)
(0.00203233 0.00860382 -6.3967e-19)
(0.0021603 0.00749374 3.77124e-19)
(0.00173563 0.00642323 -8.75723e-20)
(0.00144308 0.00584554 5.42426e-20)
(0.00150676 0.00527793 5.12604e-21)
(0.00174615 0.00469318 -2.00669e-21)
(0.00189304 0.00413341 0)
(0.00185112 0.00361264 0)
(0.00175983 0.00309797 0)
(0.00167673 0.00249414 0)
(0.00150147 0.00197521 0)
(0.00129459 0.00151194 0)
(0.00115032 0.00115206 0)
(0.000895635 0.000862272 0)
(0.000787394 0.000599153 0)
(0.000602313 0.0003962 0)
(0.000480066 0.000133663 0)
(0.00033844 5.28482e-05 0)
(-0.000478772 -1.87391e-05 0)
(-0.000527176 1.9755e-05 0)
(-0.000609429 -9.51809e-05 0)
(-0.000605123 4.1943e-05 0)
(-0.000602756 -4.91185e-05 0)
(-0.000582852 2.59569e-06 0)
(-0.00062172 9.26721e-06 0)
(-0.000811092 9.78926e-05 0)
(-0.00107084 0.000291569 0)
(-0.00152214 0.000669097 0)
(-0.00213992 0.00116994 -1.1022e-21)
(-0.00290905 0.00235675 7.71707e-20)
(-0.00358525 0.00377647 -5.7099e-20)
(-0.0043657 0.00587471 8.50192e-19)
(-0.00453616 0.00888494 -7.78682e-19)
(-0.00414309 0.011405 -1.06735e-18)
(-0.00364611 0.0140817 1.01339e-18)
(-0.00231661 0.0150754 -8.40413e-19)
(-6.42141e-05 0.0139969 5.08756e-20)
(-0.00124195 0.0125389 2.04241e-18)
(0.000803017 0.00931372 -1.19345e-18)
(0.00033116 0.00795327 5.11495e-19)
(0.00121541 0.00791899 -5.44243e-19)
(0.00254057 0.00776099 -5.14765e-19)
(0.00342395 0.00726591 5.77092e-19)
(0.00386089 0.0065757 7.29441e-19)
(0.00411278 0.00596672 -7.82523e-19)
(0.00429667 0.00516225 -7.77107e-20)
(0.00419122 0.00404197 3.79159e-21)
(0.00384551 0.00302612 1.5797e-21)
(0.0034246 0.00216818 0)
(0.00294475 0.00150052 0)
(0.00248629 0.000955013 0)
(0.00201277 0.000564489 0)
(0.0015666 0.000283217 0)
(0.00117818 0.000129577 0)
(0.000875862 -2.78342e-05 0)
(0.000685581 -6.57676e-05 0)
(0.000559727 -2.78608e-05 0)
(0.000508961 -5.4729e-05 0)
(-0.000498211 7.77475e-05 0)
(-0.000531708 -0.000412518 0)
(-0.000581526 -0.000245978 0)
(-0.000718466 -0.000604167 0)
(-0.000787156 -0.000589177 0)
(-0.000865515 -0.00069224 0)
(-0.000990427 -0.000782842 0)
(-0.00107854 -0.000841904 0)
(-0.00138913 -0.00100243 0)
(-0.00179604 -0.00110994 1.00393e-20)
(-0.00238253 -0.000762753 -1.27083e-19)
(-0.00339606 -0.000375882 2.27358e-19)
(-0.00414603 0.00123984 -3.70381e-19)
(-0.00570377 0.00327172 7.95279e-19)
(-0.00726219 0.00623922 2.7787e-19)
(-0.00715492 0.00969421 -4.75422e-19)
(-0.00632098 0.0127138 -4.45318e-19)
(-0.00500937 0.014319 3.72431e-18)
(-0.00281338 0.0111785 1.79894e-19)
(-0.0018134 0.0109327 -6.34892e-18)
(0.00024456 0.0105428 2.6336e-18)
(0.00011586 0.0078688 2.30864e-18)
(0.00129748 0.00852529 -2.62425e-18)
(0.00342473 0.00677226 1.42024e-19)
(0.00517408 0.00636899 7.78623e-19)
(0.0059367 0.00641712 -3.70225e-19)
(0.00651393 0.00555813 -5.54096e-19)
(0.0069133 0.0042363 2.30418e-19)
(0.00649103 0.00290656 -1.09984e-19)
(0.00597912 0.00143264 8.21622e-20)
(0.00492092 0.00044717 2.35753e-20)
(0.00384053 -5.65251e-05 0)
(0.00290097 -0.000351166 0)
(0.00211608 -0.000509091 0)
(0.00145729 -0.000530969 0)
(0.00105963 -0.000534277 0)
(0.000733012 -0.000365076 0)
(0.000491892 -0.000354665 0)
(0.000303476 -0.000197347 0)
(0.00029697 -6.80186e-05 0)
(-0.00047021 -0.00021196 0)
(-0.000502954 6.21964e-05 0)
(-0.000585018 -0.000464063 0)
(-0.000633493 -0.00068198 0)
(-0.000628762 -0.00101161 0)
(-0.000706234 -0.00149242 0)
(-0.000771567 -0.00185682 0)
(-0.000906103 -0.00242958 0)
(-0.00118037 -0.00291666 5.2861e-21)
(-0.00161562 -0.00323573 9.69677e-20)
(-0.00239557 -0.00347783 -4.01352e-20)
(-0.00315809 -0.00290707 3.21708e-20)
(-0.00507989 -0.00352392 6.12688e-19)
(-0.00528049 -0.00215022 2.93982e-19)
(-0.00715349 0.00189833 7.74759e-19)
(-0.0104293 0.00617788 -1.83797e-18)
(-0.00986156 0.00757222 2.27958e-18)
(-0.00832808 0.00876906 -2.42158e-18)
(-0.00800916 0.0109911 -7.85449e-19)
(-0.00357182 0.01168 3.12029e-18)
(-0.00130136 0.00925577 -2.56443e-18)
(0.00265391 0.00802718 -2.60417e-20)
(0.00362786 0.00899927 2.6974e-18)
(0.00539082 0.00761139 -3.81794e-18)
(0.00728178 0.00569357 3.43581e-18)
(0.00981128 0.00542899 -1.18018e-18)
(0.010439 0.0057189 9.90609e-20)
(0.0101622 0.00427342 -1.07211e-18)
(0.00932524 0.00183216 2.88468e-19)
(0.00750224 0.000610624 -5.7426e-20)
(0.00569242 -0.000490846 6.23345e-20)
(0.00413072 -0.000996984 -1.48415e-21)
(0.00283069 -0.00101895 0)
(0.00193829 -0.000969115 0)
(0.00123902 -0.000876041 0)
(0.000709298 -0.000757608 0)
(0.000326468 -0.000674827 0)
(1.95251e-06 -0.000391852 0)
(-0.000145058 -0.000395012 0)
(-0.00018534 -9.55726e-05 0)
(-0.000374294 -0.000324537 0)
(-0.000387321 -0.000605681 0)
(-0.000444921 -0.00110165 0)
(-0.0004969 -0.00104192 0)
(-0.000688717 -0.00163588 0)
(-0.00072228 -0.00186109 0)
(-0.000756282 -0.00234574 0)
(-0.000837023 -0.00305377 -1.74884e-20)
(-0.00128034 -0.00358775 -1.20903e-19)
(-0.00197605 -0.00374186 3.43442e-19)
(-0.00274458 -0.00359718 -4.76917e-19)
(-0.00346206 -0.00397081 -5.47651e-20)
(-0.00347045 -0.00342269 -7.17701e-19)
(-0.0086916 -0.00232461 1.528e-19)
(-0.00643738 -0.0024978 1.15191e-18)
(-0.00674667 0.000737098 -2.28582e-20)
(-0.00890182 0.00789899 1.09773e-18)
(-0.00818398 0.00855123 4.62772e-18)
(-0.00731537 0.00851289 5.60916e-19)
(-0.00407216 0.0100501 -1.56422e-18)
(-0.0011733 0.0168681 1.75178e-18)
(0.00346733 0.00944091 1.86812e-18)
(0.00629388 0.00897021 4.17586e-18)
(0.0091631 0.00363314 2.75768e-18)
(0.0149777 0.0065454 -5.00982e-20)
(0.0159601 0.00638843 -5.37631e-19)
(0.0134514 0.0044576 -1.32655e-19)
(0.0143463 0.00338066 6.61594e-19)
(0.0106579 0.00147274 2.67521e-19)
(0.00833116 -0.000193139 -8.33687e-20)
(0.0058829 -0.00139812 -1.12953e-19)
(0.00389419 -0.0021108 2.40725e-20)
(0.0022731 -0.00226402 -7.96384e-22)
(0.00120721 -0.00193223 0)
(0.000514743 -0.00168217 0)
(-5.65447e-05 -0.00134641 0)
(-0.000371563 -0.00104821 0)
(-0.00051937 -0.000742098 0)
(-0.000636105 -0.000243092 0)
(-0.000725366 -0.000195203 0)
(-0.000226134 0.000254412 0)
(-0.000292899 -0.00064205 0)
(-0.000199602 -0.000418873 0)
(-0.000147055 -0.001308 0)
(-0.00018795 -0.0015143 0)
(-0.000421028 -0.00189476 0)
(-0.00059774 -0.00263263 0)
(-0.001187 -0.00330282 2.31443e-20)
(-0.00233984 -0.00360318 -1.74701e-19)
(-0.00354085 -0.00344597 4.7518e-20)
(-0.0049107 -0.0035077 1.47508e-19)
(-0.00624764 -0.0019961 2.41603e-19)
(-0.00434451 -0.00442695 3.54948e-19)
(-0.0047579 -0.00837292 -2.18233e-19)
(-0.00736995 0.00303611 1.60667e-18)
(-0.00585312 0.00418639 -1.66975e-19)
(-0.00961824 -0.000312979 1.12717e-18)
(-0.0110745 0.0102548 8.7418e-19)
(-0.00820207 0.0134926 -1.61464e-18)
(-0.00706937 0.015842 3.25708e-18)
(-0.00367216 0.0162806 3.25559e-18)
(0.00157578 0.0113267 1.44402e-18)
(0.00862073 0.010084 7.44156e-19)
(0.0112375 0.00699971 9.73989e-21)
(0.0164206 0.0103558 1.28727e-18)
(0.0186283 0.00360841 -1.79873e-19)
(0.0182027 -0.00165552 1.14609e-18)
(0.0154915 0.0031305 -1.14303e-19)
(0.0118402 -0.00144561 1.95231e-19)
(0.00909028 -0.00149511 6.47027e-20)
(0.00568784 -0.00309332 -1.03294e-19)
(0.00320627 -0.0037474 -6.48858e-20)
(0.00130726 -0.00378689 3.98772e-20)
(0.000101711 -0.00307222 0)
(-0.000421333 -0.0023531 0)
(-0.00070921 -0.00183613 0)
(-0.00103924 -0.00121547 0)
(-0.00125639 -0.000834148 0)
(-0.00143172 -0.000715186 0)
(-0.00141812 4.15402e-05 0)
(-6.91401e-05 -0.000192192 0)
(-0.00020013 -0.00029296 0)
(-0.000444021 -0.000739014 0)
(-0.000732979 -0.00114183 0)
(-0.000799852 -0.00132701 0)
(-0.000828489 -0.002174 0)
(-0.000887784 -0.00293026 -2.25968e-21)
(-0.00185399 -0.00357908 -2.94851e-20)
(-0.00382848 -0.00332941 5.77084e-20)
(-0.00623678 -0.00285951 3.32666e-20)
(-0.00879993 -0.00192125 -8.99884e-20)
(-0.010726 -0.0018478 1.73452e-19)
(-0.0130285 -0.0104599 3.77492e-20)
(-0.0162956 -0.007561 -9.54517e-19)
(-0.0123752 -0.00162811 -9.41698e-19)
(-0.0203447 -0.0021728 -2.46339e-20)
(-0.00859783 0.010704 5.03311e-19)
(-0.0143133 0.00502007 -2.38896e-19)
(-0.0146324 0.0235177 -1.42364e-19)
(-0.0103378 0.0251538 1.27547e-18)
(-0.00228191 0.0225058 -1.09216e-18)
(0.00654105 0.0193385 -1.4659e-18)
(0.0133464 0.0123089 -4.78899e-19)
(0.0157883 0.0122419 -1.82276e-19)
(0.0194811 -0.000583273 -1.78204e-18)
(0.0150191 0.00180029 -1.23494e-18)
(0.0152701 -0.000757146 -5.30747e-19)
(0.0116564 0.000783239 5.23449e-20)
(0.0106607 -0.00378843 -2.54138e-19)
(0.0076813 -0.00390697 8.11738e-20)
(0.00460664 -0.0047412 2.0503e-19)
(0.00170972 -0.00482064 -1.00116e-19)
(-0.000514348 -0.00452115 3.20627e-20)
(-0.00191139 -0.00369098 -1.29571e-20)
(-0.00234729 -0.002595 0)
(-0.00262375 -0.0018823 0)
(-0.00269707 -0.00144048 0)
(-0.00255265 -0.000860309 0)
(-0.00230228 -0.00033648 0)
(-0.00225098 -0.000436358 0)
(8.79061e-05 -0.0010656 0)
(0.000306313 -0.00115114 0)
(0.000491541 -0.0022765 0)
(0.000473962 -0.00208923 0)
(0.000311006 -0.00272142 0)
(5.11256e-05 -0.00302991 0)
(-0.000656872 -0.00342677 -1.24816e-21)
(-0.00294184 -0.00345931 2.97554e-20)
(-0.00642312 -0.00250892 -7.36183e-21)
(-0.00978499 -0.00235753 -2.6474e-20)
(-0.0125421 -0.00279012 2.50122e-19)
(-0.0163799 -0.00159708 -5.1597e-19)
(-0.0161675 -0.00737472 3.35536e-19)
(-0.00558717 -0.00830505 -1.45199e-19)
(-0.0122906 -0.00334796 3.24483e-19)
(-0.0219729 -0.0180737 6.76217e-19)
(-0.021497 -0.000113502 -1.46604e-19)
(-0.0280176 0.00718877 -7.90082e-19)
(-0.0207158 0.0120176 -2.18218e-19)
(-0.0153618 0.0298168 1.2269e-20)
(0.00299729 0.0355334 1.76109e-19)
(0.0173954 0.0288231 9.35122e-19)
(0.0258518 0.0177525 6.8794e-19)
(0.0186817 0.00586035 3.65349e-20)
(0.0184704 -3.40277e-06 -3.04628e-20)
(0.0151258 0.00557429 1.57687e-18)
(0.0158244 -0.00839863 -3.2099e-19)
(0.00651125 -0.00320987 5.00415e-20)
(0.00488893 -0.0051858 2.86646e-20)
(0.00449831 -0.00450792 -4.39961e-20)
(0.00262823 -0.00390174 2.96301e-20)
(-0.000111618 -0.00382733 -1.06154e-19)
(-0.00266167 -0.00384151 6.22232e-20)
(-0.00403202 -0.00309285 -8.91122e-21)
(-0.00395141 -0.00189193 0)
(-0.00345936 -0.00105852 0)
(-0.00306231 -0.000454236 0)
(-0.00299965 -0.000444137 0)
(-0.00308273 0.000198073 0)
(-0.00305822 -0.000281765 0)
(0.00069648 0.000230069 0)
(0.000162643 -0.000543181 0)
(-3.41621e-05 -0.00103088 0)
(-9.13055e-06 -0.00143745 0)
(3.31938e-05 -0.00197546 0)
(-3.77454e-05 -0.00223828 0)
(-0.00101105 -0.00306374 -2.46446e-20)
(-0.00430287 -0.0031827 3.99249e-20)
(-0.00819964 -0.00324651 8.67123e-21)
(-0.011297 -0.00342075 -4.29258e-20)
(-0.0123998 -0.00664401 2.15415e-20)
(-0.0162383 -0.00683483 2.53916e-20)
(-0.0191563 -0.000841211 -1.74602e-20)
(-0.0193803 -0.00263893 -8.85244e-20)
(-0.0236106 -0.00748297 1.05192e-19)
(-0.0127813 -0.0105516 1.48564e-19)
(-0.0182195 -0.0206191 -1.2283e-20)
(-0.0375537 -0.00786823 7.89923e-20)
(-0.057448 0.0114378 7.5044e-20)
(-0.0476919 0.0562414 1.00777e-18)
(0.00326732 0.0839907 -1.17164e-18)
(0.0510761 0.0485156 7.55746e-19)
(0.041531 0.00821189 6.00622e-20)
(0.0343452 -0.00523558 4.28859e-20)
(0.0204189 -0.00151929 1.0835e-19)
(0.00642894 -0.012257 -5.80898e-20)
(0.000978274 -0.00917467 1.50905e-19)
(0.00105556 -0.0131219 -1.29691e-20)
(-7.13782e-05 -0.00579996 -1.64228e-20)
(0.000634406 -0.00265821 -5.19772e-20)
(0.000414061 -0.00149326 3.68251e-20)
(-0.00108346 -0.00129545 -8.71771e-21)
(-0.00356743 -0.00150269 2.2262e-20)
(-0.00561617 -0.00150213 -9.9282e-21)
(-0.00563395 -0.000809947 0)
(-0.00500362 -0.000133818 0)
(-0.00468395 0.000458715 0)
(-0.00417855 0.000996425 0)
(-0.00382586 4.6164e-05 0)
(-0.00375148 0.00150727 0)
(0.000997475 0.000668391 0)
(0.00146002 -0.00127301 0)
(0.000859107 -0.000651656 0)
(0.000603635 -0.00153869 0)
(0.00018321 -0.00205506 0)
(0.000425778 -0.00286313 0)
(-0.000456097 -0.00393392 -2.26034e-22)
(-0.00364939 -0.00409047 3.12351e-21)
(-0.00604771 -0.00559708 -1.09595e-21)
(-0.00835982 -0.00652895 -5.79793e-21)
(-0.00879913 -0.00962279 -1.28392e-20)
(-0.0084402 -0.011929 2.23975e-20)
(-0.00904813 -0.0118815 1.04587e-20)
(-0.014424 -0.0215536 -1.14397e-20)
(-0.0127234 -0.0240965 -1.06844e-20)
(-0.0270695 -0.0186037 7.33607e-20)
(-0.0363293 -0.0242509 -2.34193e-20)
(-0.0495015 -0.0315104 -2.54883e-20)
(-0.127646 -0.0171458 2.32575e-18)
(0.0935903 -0.0295302 -9.94764e-19)
(0.0282409 -0.0404831 -1.43273e-20)
(0.00869111 -0.0386488 -3.02685e-19)
(0.00877483 -0.0255215 -1.48289e-19)
(0.00271033 -0.00752533 -2.92449e-20)
(-0.000928855 -0.0130525 -4.94825e-20)
(-0.000833054 -0.00480745 -1.55016e-20)
(-0.00161118 -0.000986073 3.88629e-20)
(-0.0017485 -7.97304e-05 8.09795e-21)
(-0.00167042 0.000883976 -6.96286e-21)
(-0.00320337 0.00136785 2.6502e-22)
(-0.00584658 0.000919462 -2.10571e-22)
(-0.0063868 0.000576722 0)
(-0.00565696 0.000258391 0)
(-0.00466307 -0.000581454 0)
(-0.0037066 -0.000396971 0)
(-0.0030907 -0.000223935 0)
(-0.00290318 -0.000767071 0)
(0.00116066 -0.00189827 0)
(0.000995934 -0.00146733 0)
(0.0018885 -0.00127512 0)
(0.00299566 -0.00148913 0)
(0.00391615 -0.00150805 0)
(0.00415475 -0.00229414 0)
(0.00280267 -0.00333559 3.42279e-21)
(-0.000335365 -0.00442053 3.64911e-21)
(-0.00274245 -0.00598428 -1.0943e-20)
(-0.000853752 -0.00759937 -1.71115e-20)
(-0.000752149 -0.0114442 5.25272e-20)
(-0.000191048 -0.0126484 -7.10038e-20)
(0.00359774 -0.0148151 1.21017e-19)
(-0.00418262 -0.0219571 -1.5833e-19)
(-0.00387152 -0.0246788 -1.39958e-19)
(-0.00156902 -0.0345737 -3.65848e-19)
(-0.00366296 -0.0515173 7.06382e-20)
(-0.0190699 -0.0766597 -2.66066e-20)
(0.0152769 -0.0779219 4.63902e-18)
(-0.0266183 -0.084019 3.57827e-19)
(0.00672971 -0.0511616 1.84202e-20)
(-0.000809083 -0.0327226 -3.5258e-21)
(-0.00138501 -0.0292286 4.79012e-20)
(-0.00597549 -0.0169216 1.1103e-19)
(0.000314315 -0.00876815 1.18704e-19)
(0.00187228 -0.00174937 -1.68376e-19)
(0.00147274 -0.000428277 1.03899e-19)
(-0.00141405 0.000958626 -6.35583e-20)
(-0.00155809 0.00206708 1.8273e-20)
(-0.00304728 0.00244957 1.14884e-20)
(-0.00445162 0.00273632 2.0326e-21)
(-0.00429172 0.00274126 0)
(-0.00334539 0.00226971 0)
(-0.00336048 0.00195579 0)
(-0.00420895 0.000897402 0)
(-0.00421714 0.00153665 0)
(-0.00362894 -0.000650231 0)
(-0.00363771 -0.00290461 -4.03253e-22)
(7.99143e-07 -0.000361537 0)
(0.00130417 -0.00165076 0)
(0.00185077 -0.00137945 0)
(0.00316471 -0.00145634 0)
(0.00391155 -0.00144574 0)
(0.00460885 -0.00141969 8.12653e-21)
(0.00439303 -0.00310182 -1.53598e-20)
(0.00334143 -0.00241468 3.52841e-20)
(0.00459766 -0.00149272 -7.14414e-20)
(0.00752925 -0.00539609 1.88194e-19)
(0.0100863 -0.005157 -4.25211e-19)
(0.0118636 -0.00483709 2.15644e-19)
(0.0227837 -0.0168032 5.2723e-19)
(0.0137551 -0.0277551 1.21518e-19)
(0.00988255 -0.0509073 2.08939e-19)
(0.0221247 -0.0597007 -4.25144e-19)
(-0.0110411 -0.0661012 4.18981e-19)
(-0.0539026 -0.0303993 -6.90459e-19)
(-0.0240811 -0.026129 -1.08683e-19)
(-0.00776232 -0.0332985 -3.51351e-19)
(-0.0115065 -0.0219435 1.16039e-19)
(-0.0108885 -0.0233281 6.86099e-19)
(-0.012414 -0.00939066 -1.23927e-18)
(-0.0116155 -0.0116776 -3.41437e-19)
(0.000597879 -0.0124395 6.77066e-19)
(0.00278491 -0.0011463 -6.01956e-20)
(9.25799e-05 0.00245649 1.66654e-19)
(5.01611e-06 0.00346032 -7.93054e-22)
(-0.0033745 0.00278305 -1.70039e-20)
(-0.00412692 0.00381409 -2.25362e-20)
(-0.00326535 0.00370896 0)
(-0.00240338 0.00440265 0)
(-0.00204496 0.00502585 0)
(-0.00147467 0.00423374 0)
(-0.00272434 0.00257781 0)
(-0.00189167 0.00131994 0)
(0.00337682 0.00509586 8.79681e-23)
(0.00508878 -0.00057231 0)
(0.00389906 -0.000552793 0)
(0.00344663 0.000592396 0)
(0.00470282 0.000948424 0)
(0.00557718 0.00294304 0)
(0.00734116 0.00144042 -9.53702e-22)
(0.00839013 0.000996482 2.6578e-20)
(0.0102285 0.00109462 -9.60683e-20)
(0.00910728 0.00171016 -1.95206e-20)
(0.0147583 0.00096252 9.02439e-20)
(0.0270732 0.00328108 -9.80216e-20)
(0.0335423 -0.000673347 8.1565e-21)
(0.0111035 -0.0111305 1.56848e-19)
(0.0177812 -0.0264692 -8.2993e-19)
(0.0364096 -0.0368514 1.62686e-18)
(0.0297497 -0.0449195 2.24422e-18)
(-0.011682 -0.031484 1.57711e-20)
(-0.359283 0.0458675 3.64856e-19)
(0.081393 -0.232359 8.39533e-19)
(-0.248168 0.161098 7.98754e-20)
(0.0924219 0.0664338 -1.24225e-20)
(0.163354 0.0587996 5.72881e-20)
(0.0239394 -0.00892827 7.08034e-19)
(-0.00801831 -0.018495 5.92086e-19)
(0.000537827 -0.0250186 2.97401e-19)
(-0.00157837 -0.00553821 -1.58795e-18)
(0.00606735 -0.0127095 -2.44882e-19)
(-0.0149162 0.00434726 4.00105e-19)
(-0.0110199 -0.0055938 -4.18508e-19)
(0.00367335 0.000136372 1.9413e-19)
(0.0017723 0.00535573 -1.71328e-19)
(-0.000138274 0.00396562 4.87607e-20)
(-0.00349145 0.00344603 5.31854e-21)
(-0.000875685 0.00311447 0)
(-0.00273756 0.00117102 0)
(-0.00147136 -0.00128729 0)
(-0.00100639 -0.000970134 0)
(-0.00121125 2.54195e-05 0)
(0.00153169 0.000879328 0)
(0.00607803 -0.0033653 9.11053e-21)
(0.00439911 0.000370982 0)
(0.00433729 0.00104215 0)
(0.00348649 0.00238422 0)
(0.00346202 0.00256007 0)
(0.00948361 0.00184108 0)
(0.00950035 0.00593318 -1.42618e-22)
(0.0108288 0.00498647 -2.00918e-20)
(0.0132259 0.00481107 -7.47127e-20)
(0.0147009 0.00335565 -3.95877e-20)
(0.0166411 0.000613284 1.7625e-19)
(0.0110019 -0.00146531 3.19557e-19)
(0.0219231 -0.0104294 -2.52131e-19)
(0.0161594 -0.00055654 -6.31117e-19)
(0.0435869 -0.00806177 -2.47913e-19)
(0.062736 -0.0213014 9.56444e-21)
(0.0112449 -0.0569682 3.31075e-18)
(-0.223498 0.163125 5.44917e-18)
(0.438903 -0.248072 -3.09195e-18)
(-0.3005 -0.352437 -6.04913e-18)
(-1.15105 -0.00904994 1.80763e-19)
(0.0633408 -0.129968 1.55816e-18)
(0.00430033 -0.0487016 -1.86593e-18)
(0.0366022 -0.0763189 3.63038e-18)
(-0.00760977 -0.0323524 -2.70486e-18)
(-0.0180718 -0.0125498 -1.55459e-19)
(0.00288402 -0.00258899 -9.93612e-20)
(-0.011962 0.00991704 7.14542e-19)
(0.00112831 0.00585697 1.498e-20)
(-0.00242539 0.0111196 1.0524e-19)
(-0.00451177 6.4267e-05 -1.06569e-19)
(-0.00190674 0.00129939 2.20798e-19)
(0.00347456 5.09396e-05 -3.00964e-20)
(0.00256086 0.00430916 -9.96067e-22)
(-0.00385237 0.00338258 0)
(0.00232712 0.00196854 0)
(0.00202824 0.00245066 0)
(-0.000445554 -0.000748167 0)
(0.000877772 -0.00195295 0)
(0.000400901 -0.000232976 3.87228e-21)
(0.00178577 -0.000349973 -5.52216e-21)
(2.61489e-05 0.00146292 0)
(0.0015806 0.00464695 0)
(0.00737714 0.00536033 0)
(0.0103875 0.00669625 0)
(0.00690397 0.00785486 0)
(0.00965427 0.0077903 0)
(0.0109751 0.00703406 -4.3435e-21)
(0.0168396 0.0047614 1.77046e-20)
(0.0222464 0.00537356 6.25516e-20)
(0.030137 0.00783254 -1.92578e-19)
(0.0410603 0.00498035 -1.40661e-19)
(0.0389825 -0.0176427 -3.74969e-19)
(0.0666428 0.0107366 6.57945e-19)
(0.0767186 -0.0179048 -5.10074e-19)
(0.0741353 -0.0413556 -2.10603e-18)
(0.073338 -0.0720675 3.60724e-18)
(-0.669253 -0.304281 -8.10373e-18)
(0.656516 0.144981 -5.61172e-19)
(0.930891 0.125754 -2.94641e-18)
(-0.768912 -1.17268 -4.73307e-19)
(0.197291 0.0827146 6.2951e-20)
(0.000458966 -0.135545 1.45514e-18)
(0.0327896 -0.2058 -9.17274e-18)
(-0.0616497 -0.00636095 -6.4238e-19)
(-0.0444387 -0.0148248 -2.11773e-18)
(-0.0395441 0.0203911 -5.92539e-19)
(-0.0274335 0.00554248 2.17547e-19)
(-0.00831067 0.0143274 2.04298e-19)
(-0.000406906 0.00156869 2.99381e-19)
(0.00780636 0.00348653 -2.32541e-20)
(0.00603705 -0.00675274 -5.24023e-20)
(0.00403044 0.000663522 -9.79034e-22)
(0.00478452 0.00206112 0)
(0.0069525 0.00467683 0)
(0.00176357 0.00700498 0)
(-0.000104472 0.0056721 0)
(0.00351699 0.00388668 0)
(0.00182578 0.000438039 0)
(0.00317417 -0.000878708 -2.4082e-20)
(0.0043661 -0.000141606 5.77549e-22)
(0.00195682 0.00066668 0)
(0.00251504 0.0027171 0)
(0.00222874 0.00459242 0)
(0.00306622 0.00789598 0)
(0.00580625 0.0102626 0)
(0.00998089 0.0107793 0)
(0.0166358 0.0130714 0)
(0.0172171 0.0110133 -6.53865e-21)
(0.0202258 0.013735 1.40193e-20)
(0.0203596 0.0199871 1.23165e-20)
(0.0278603 0.026952 1.05457e-19)
(0.0330276 0.0289096 1.35687e-19)
(0.0483271 0.0607645 3.5355e-20)
(0.075853 0.059626 1.43171e-19)
(0.128475 0.0166384 4.05555e-19)
(0.117959 -0.0755854 -1.33226e-18)
(0.0848625 -0.282983 1.41398e-18)
(-0.679494 -0.927069 4.83274e-18)
(0.717071 1.09011 -1.85743e-17)
(-0.00934822 0.645837 -6.33327e-19)
(-0.0374476 0.155259 -5.89927e-18)
(0.41903 -0.411273 4.25714e-18)
(-0.581397 -0.011114 2.74781e-18)
(-0.0315416 0.0198517 -1.85187e-19)
(-0.0615387 0.0426167 1.34245e-18)
(-0.0202731 0.0786601 3.54647e-19)
(-8.05317e-05 0.0254295 -9.99274e-20)
(-0.000239453 0.0250361 5.20661e-20)
(0.0102855 0.00835804 6.78678e-20)
(-0.00518302 0.00656248 -4.76939e-20)
(-0.00836419 0.00931444 6.06545e-21)
(-0.00423069 0.00783161 0)
(0.000376027 0.00405932 0)
(0.00173781 0.00472328 0)
(0.00140892 0.00381544 0)
(0.00167126 0.000462202 -3.4241e-20)
(0.00173752 -0.00141326 -4.7353e-20)
(0.00353932 -0.000267284 -2.8237e-20)
(-0.000612617 0.000264097 0)
(0.00469141 0.00377268 0)
(0.00436268 0.0036857 0)
(0.00145793 0.00386157 0)
(-0.000545196 0.00278645 0)
(-0.00207654 0.0022766 0)
(-0.000300453 0.00411855 0)
(0.00223237 0.00767692 0)
(0.00365646 0.0173694 0)
(0.00666002 0.0232825 -4.03499e-23)
(0.00735664 0.0287955 7.72533e-21)
(0.00607296 0.0328921 4.07323e-21)
(0.00415888 0.0472924 -8.40897e-20)
(0.012437 0.0581612 5.09076e-20)
(0.0217222 0.0670403 -1.10629e-19)
(0.0419434 0.106311 -2.93081e-18)
(0.133602 0.161448 1.89693e-18)
(0.36456 -0.0344655 -1.78815e-18)
(0.439534 0.370999 -1.14787e-18)
(-0.334086 0.11944 -3.95599e-18)
(-1.03744 -1.14948 3.68726e-18)
(0.254101 -1.39162 -2.21907e-18)
(0.685281 -0.121515 3.01909e-19)
(-0.986786 0.602051 -1.142e-18)
(0.593238 0.395638 -1.08264e-18)
(-0.3701 -0.0167757 2.51046e-19)
(-0.0871655 0.0943387 -5.28792e-19)
(0.0288329 0.0367907 6.28104e-20)
(0.0218592 0.033578 8.0261e-20)
(0.022774 0.0255224 -3.55765e-20)
(0.0104191 0.0134855 -9.05067e-21)
(0.00831195 0.0120337 -2.08619e-21)
(0.00595006 0.011994 4.63589e-23)
(0.00236253 0.00580235 0)
(0.0051984 0.00368594 0)
(0.00651829 -0.000572149 0)
(0.00601354 -0.00278452 0)
(0.0042338 -0.00160644 0)
(0.00161664 0.00167183 0)
(0.0004354 0.00239032 0)
(-0.000147094 0.00152668 5.08553e-21)
(-0.00901142 0.000873838 0)
(-0.00101697 0.00164713 0)
(0.00141947 0.00259241 0)
(0.000946278 0.00283252 0)
(-0.00161886 0.00198665 0)
(-0.0044629 0.00120856 0)
(-0.00723839 0.00490089 0)
(-0.00465262 0.00808037 0)
(-0.00421732 0.0152728 0)
(-0.00476269 0.0256281 0)
(-0.00721215 0.0340875 2.94517e-21)
(-0.0041729 0.0474775 3.47926e-20)
(-0.00757983 0.0610487 -1.42759e-20)
(-0.00379233 0.0746669 8.36239e-20)
(-0.00417089 0.0877795 -1.20062e-17)
(0.0210692 0.21084 -5.02764e-19)
(0.244065 0.552069 -4.2561e-18)
(-0.0623587 -0.150336 1.58237e-18)
(0.579783 -0.0592341 -3.14194e-19)
(0.574842 0.856219 9.87199e-18)
(-0.523393 1.00791 2.24062e-18)
(-0.782292 0.899029 -2.6433e-18)
(0.0394275 -0.302081 8.8086e-19)
(0.363821 -0.537965 -1.15898e-19)
(-0.671042 0.390438 -1.90631e-18)
(0.178553 0.0827875 -3.09742e-19)
(0.0420629 0.0230894 -1.02114e-19)
(0.0539125 0.0207963 4.09139e-20)
(0.0292309 0.00764581 -2.28787e-20)
(0.0180582 0.0120038 6.00825e-23)
(0.0140342 0.00841574 0)
(0.0123673 0.00721946 0)
(0.0110177 0.00393978 0)
(0.0123253 -0.000251708 0)
(0.00874635 -0.00236463 0)
(0.0066686 -0.00243443 0)
(0.0055916 -0.00154052 0)
(0.00408084 -0.000720558 0)
(0.00352561 -0.00102412 0)
(0.00410728 -0.00131602 0)
(0.00335165 -0.00399854 0)
(0.00150686 -0.00300702 0)
(0.00171727 -0.00205417 0)
(0.00013692 -0.00170207 0)
(-0.00208621 -0.00122009 0)
(-0.00517346 -0.00231934 0)
(-0.00836863 -0.00297659 0)
(-0.0110807 -0.0018637 0)
(-0.0147471 0.00258275 0)
(-0.0192883 0.00709057 0)
(-0.0286948 0.0263212 0)
(-0.0271015 0.0286042 1.09508e-21)
(-0.034966 0.0597242 -7.08578e-21)
(-0.0300153 0.0650638 -4.64858e-20)
(-0.0679108 0.137371 -3.69678e-18)
(-0.161065 0.0556632 -7.50071e-19)
(0.818695 -0.136322 -4.10117e-18)
(0.285785 0.208426 -2.24236e-18)
(-0.7299 0.686924 -2.01921e-18)
(-0.396624 1.30514 -1.18973e-18)
(-0.131363 0.939896 2.93109e-18)
(0.227285 0.775309 3.90415e-18)
(0.722501 -0.0435284 3.25282e-18)
(-0.356148 0.715514 8.93383e-19)
(-0.359959 0.575548 1.21824e-18)
(0.382896 0.0440381 4.42084e-19)
(0.0896498 -0.0297534 5.05652e-19)
(0.0461933 -0.00649476 1.54712e-20)
(0.0291466 -0.0104471 -6.87977e-22)
(0.0176587 -0.00784243 0)
(0.014135 -0.00774147 0)
(0.0138435 -0.00774134 0)
(0.0138527 -0.00763828 0)
(0.00858293 -0.00656176 0)
(0.00576191 -0.00362589 0)
(0.00349646 -0.0034659 0)
(0.00250921 -0.00326463 0)
(0.00151349 -0.00336726 0)
(0.000317235 -0.00226159 0)
(-0.00033712 -0.000924315 0)
(-0.000609511 -0.00125623 0)
(-0.001171 -0.00161396 0)
(-0.00134845 -0.00207601 0)
(-0.00243341 -1.9236e-05 0)
(-0.00240086 0.000923168 0)
(-0.00403135 0.00169862 0)
(-0.00626057 0.00130208 0)
(-0.0125429 0.000145839 0)
(-0.0175901 0.000909358 0)
(-0.0270278 0.00280226 0)
(-0.0401532 0.00564544 -5.40111e-20)
(-0.055235 0.0187624 0)
(-0.0456139 0.0444851 0)
(0.0635651 0.186644 5.43078e-19)
(0.00325153 -0.0748366 3.34733e-18)
(-0.441931 -0.146638 -6.56607e-18)
(-0.280444 0.919458 -3.93917e-20)
(-0.0584307 0.748254 3.21154e-19)
(-0.32873 0.329243 -1.93832e-19)
(-0.087833 0.0858897 1.82766e-17)
(0.526902 0.049634 -2.80377e-18)
(0.596648 -0.10667 -1.27821e-18)
(-0.189004 0.135062 2.59824e-19)
(-1.21872 0.474942 -5.38301e-19)
(1.10228 -0.375858 -6.72188e-23)
(-0.103572 -0.0911294 4.06842e-19)
(-0.054712 -0.0791754 -1.42798e-18)
(0.02099 -0.0262157 0)
(0.0251385 -0.0344064 0)
(0.0130666 -0.0275979 1.67416e-20)
(0.0114062 -0.0201813 0)
(0.00764911 -0.0189244 0)
(0.00589497 -0.0129297 0)
(0.00229384 -0.00746084 0)
(0.00212369 -0.00374082 0)
(0.00198442 -0.00152599 0)
(0.00263212 0.000815777 0)
(0.00238268 0.00211695 5.63545e-21)
(0.00222328 0.00153168 4.04294e-21)
(0.00324086 0.00147356 0)
(0.00374486 0.000768504 0)
(-0.00208939 0.000242204 0)
(-0.00471629 0.00027032 0)
(-0.00611968 0.000722517 0)
(-0.0066253 0.000854815 0)
(-0.00781864 0.00154048 0)
(-0.00929687 0.00141737 0)
(-0.0132526 0.00177379 0)
(-0.0202455 0.00014554 0)
(-0.0333097 -0.00706615 0)
(-0.0506629 -0.00473919 -1.09684e-19)
(-0.0918241 0.00485976 0)
(-0.114945 0.012748 0)
(-0.0695228 0.0832821 -1.30389e-19)
(0.290384 0.276229 3.26428e-18)
(-0.462272 -0.150322 9.28559e-19)
(-0.153868 -1.05594 0)
(-0.187905 -1.08162 -8.92614e-19)
(-0.265759 -0.723268 -2.55844e-18)
(-0.610846 -0.612223 -2.20977e-18)
(-0.148772 -0.340478 -1.73227e-17)
(-0.119111 -0.218862 -3.33436e-18)
(0.292055 -0.75221 -4.09182e-19)
(0.494006 -0.930417 0)