/*--------------------------------*- C++ -*----------------------------------*\
| =========                 |                                                 |
| \\      /  F ield         | OpenFOAM: The Open Source CFD Toolbox           |
|  \\    /   O peration     | Version:  v2106                                 |
|   \\  /    A nd           | Website:  www.openfoam.com                      |
|    \\/     M anipulation  |                                                 |
\*---------------------------------------------------------------------------*/
FoamFile
{
    version     2.0;
    format      ascii;
    arch        "LSB;label=32;scalar=64";
    class       pointVectorField;
    location    "0";
    object      pointDisplacement;
}
// * * * * * * * * * * * * * * * * * * * * * * * * * * * * * * * * * * * * * //

dimensions      [0 1 0 0 0 0 0];

internalField   nonuniform List<vector> 
24440
(
(0 0 0)
(0 0 0)
(0 0 0)
(0 0 0)
(0 0 0)
(0 0 0)
(0 0 0)
(0 0 0)
(0 0 0)
(0 0 0)
(0 0 0)
(0 0 0)
(0 0 0)
(0 0 0)
(0 0 0)
(0 0 0)
(0 0 0)
(0 0 0)
(0 0 0)
(0 0 0)
(0 0 0)
(0 0 0)
(0 0 0)
(0 0 0)
(0 0 0)
(0 0 0)
(0 0 0)
(0 0 0)
(0 0 0)
(0 0 0)
(0 0 0)
(0 0 0)
(0 0 0)
(0 0 0)
(0 0 0)
(0 0 0)
(0 0 0)
(0 0 0)
(0 0 0)
(0 0 0)
(0 0 0)
(0 0 0)
(0 0 0)
(0 0 0)
(0 0 0)
(0 0 0)
(0 0 0)
(0 0 0)
(0 0 0)
(0 0 0)
(0 0 0)
(0 0 0)
(0 0 0)
(0 0 0)
(0 0 0)
(0 0 0)
(0 0 0)
(0 0 0)
(0 0 0)
(0 0 0)
(0 0 0)
(0 0 0)
(0 0 0)
(0 0 0)
(0 0 0)
(0 0 0)
(0 0 0)
(0 0 0)
(0 0 0)
(0 0 0)
(0 0 0)
(0 0 0)
(0 0 0)
(0 0 0)
(0 0 0)
(0 0 0)
(0 0 0)
(0 0 0)
(0 0 0)
(0 0 0)
(0 0 0)
(0 0 0)
(0 0 0)
(0 0 0)
(0 0 0)
(0 0 0)
(0 0 0)
(0 0 0)
(0 0 0)
(0 0 0)
(0 0 0)
(0 0 0)
(0 0 0)
(0 0 0)
(0 0 0)
(0 0 0)
(0 0 0)
(0 0 0)
(0 -5.2442e-06 0)
(0 -3.30702e-05 0)
(0 -9.09361e-05 0)
(0 -0.000140128 0)
(0 -0.000159007 0)
(0 -0.000140128 0)
(0 -9.09361e-05 0)
(0 -3.30702e-05 0)
(0 -5.2442e-06 0)
(0 0 0)
(0 0 0)
(0 0 0)
(0 0 0)
(0 0 0)
(0 0 0)
(0 0 0)
(0 0 0)
(0 0 0)
(0 0 0)
(0 0 0)
(0 0 0)
(0 0 0)
(0 0 0)
(0 0 0)
(0 0 0)
(0 0 0)
(0 0 0)
(0 0 0)
(0 0 0)
(0 0 0)
(0 0 0)
(0 0 0)
(0 0 0)
(0 0 0)
(0 0 0)
(0 0 0)
(0 0 0)
(0 0 0)
(0 -8.78262e-06 0)
(0 -0.000116179 0)
(0 -0.000341907 0)
(0 -0.000615924 0)
(0 -0.000878558 0)
(0 -0.00106165 0)
(0 -0.00123185 0)
(0 -0.00129174 0)
(0 -0.00123185 0)
(0 -0.00106165 0)
(0 -0.000878558 0)
(0 -0.000615924 0)
(0 -0.000341907 0)
(0 -0.000116179 0)
(0 -8.78262e-06 0)
(0 0 0)
(0 0 0)
(0 0 0)
(0 0 0)
(0 0 0)
(0 0 0)
(0 0 0)
(0 0 0)
(0 0 0)
(0 0 0)
(0 0 0)
(0 0 0)
(0 0 0)
(0 0 0)
(0 0 0)
(0 0 0)
(0 0 0)
(0 0 0)
(0 0 0)
(0 0 0)
(0 0 0)
(0 0 0)
(0 0 0)
(0 0 0)
(0 -3.68745e-06 0)
(0 -0.000152787 0)
(0 -0.000521051 0)
(0 -0.00102751 0)
(0 -0.00154915 0)
(0 -0.00213112 0)
(0 -0.00263515 0)
(0 -0.00294731 0)
(0 -0.0032458 0)
(0 -0.00334896 0)
(0 -0.0032458 0)
(0 -0.00294731 0)
(0 -0.00263515 0)
(0 -0.00213112 0)
(0 -0.00154915 0)
(0 -0.00102751 0)
(0 -0.000521051 0)
(0 -0.000152787 0)
(0 -3.68745e-06 0)
(0 0 0)
(0 0 0)
(0 0 0)
(0 0 0)
(0 0 0)
(0 0 0)
(0 0 0)
(0 0 0)
(0 0 0)
(0 0 0)
(0 0 0)
(0 0 0)
(0 0 0)
(0 0 0)
(0 0 0)
(0 0 0)
(0 0 0)
(0 0 0)
(0 0 0)
(0 0 0)
(0 0 0)
(0 -3.48666e-05 0)
(0 -0.000362594 0)
(0 -0.000963611 0)
(0 -0.00169067 0)
(0 -0.00259338 0)
(0 -0.00350386 0)
(0 -0.00429261 0)
(0 -0.00503149 0)
(0 -0.0055558 0)
(0 -0.00586906 0)
(0 -0.00601286 0)
(0 -0.00586906 0)
(0 -0.0055558 0)
(0 -0.00503149 0)
(0 -0.00429261 0)
(0 -0.00350386 0)
(0 -0.00259338 0)
(0 -0.00169067 0)
(0 -0.000963611 0)
(0 -0.000362594 0)
(0 -3.69122e-05 0)
(0 0 0)
(0 0 0)
(0 0 0)
(0 0 0)
(0 0 0)
(0 0 0)
(0 0 0)
(0 0 0)
(0 0 0)
(0 0 0)
(0 0 0)
(0 0 0)
(0 0 0)
(0 0 0)
(0 0 0)
(0 0 0)
(0 0 0)
(0 0 0)
(0 0 0)
(0 -6.85748e-05 0)
(0 -0.000480846 0)
(0 -0.00120013 0)
(0 -0.00220325 0)
(0 -0.00339544 0)
(0 -0.00463429 0)
(0 -0.00577116 0)
(0 -0.00684893 0)
(0 -0.00725391 0)
(0 -0.00769187 0)
(0 -0.0080582 0)
(0 -0.00834683 0)
(0 -0.00855323 0)
(0 -0.00869595 0)
(0 -0.0088278 0)
(0 -0.00887195 0)
(0 -0.0088278 0)
(0 -0.00869595 0)
(0 -0.00855323 0)
(0 -0.00834683 0)
(0 -0.0080582 0)
(0 -0.00769187 0)
(0 -0.00725391 0)
(0 -0.00684893 0)
(0 -0.00577116 0)
(0 -0.00463429 0)
(0 -0.00339544 0)
(0 -0.00220325 0)
(0 -0.00117522 0)
(0 -0.000434493 0)
(0 -5.47958e-05 0)
(0 0 0)
(0 0 0)
(0 0 0)
(0 0 0)
(0 0 0)
(0 0 0)
(0 0 0)
(0 0 0)
(0 0 0)
(0 0 0)
(0 0 0)
(0 0 0)
(0 0 0)
(0 0 0)
(0 0 0)
(0 0 0)
(0 0 0)
(0 -4.03346e-05 0)
(0 -0.000461586 0)
(0 -0.00128606 0)
(0 -0.00241999 0)
(0 -0.00374821 0)
(0 -0.00531094 0)
(0 -0.00605817 0)
(0 -0.00672048 0)
(0 -0.00745353 0)
(0 -0.00814063 0)
(0 -0.00876927 0)
(0 -0.00930333 0)
(0 -0.008108 0)
(0 -0.00860304 0)
(0 -0.00899373 0)
(0 -0.00938779 0)
(0 -0.00969692 0)
(0 -0.00991721 0)
(0 -0.0100493 0)
(0 -0.0101892 0)
(0 -0.010236 0)
(0 -0.0101892 0)
(0 -0.0100493 0)
(0 -0.00991721 0)
(0 -0.00969692 0)
(0 -0.00938779 0)
(0 -0.00899373 0)
(0 -0.00860304 0)
(0 -0.008108 0)
(0 -0.00930333 0)
(0 -0.00876927 0)
(0 -0.00814063 0)
(0 -0.00745353 0)
(0 -0.00672048 0)
(0 -0.00605817 0)
(0 -0.00531094 0)
(0 -0.00374821 0)
(0 -0.00241999 0)
(0 -0.00123915 0)
(0 -0.000441504 0)
(0 -3.66296e-05 0)
(0 0 0)
(0 0 0)
(0 0 0)
(0 0 0)
(0 0 0)
(0 0 0)
(0 0 0)
(0 0 0)
(0 0 0)
(0 0 0)
(0 0 0)
(0 0 0)
(0 0 0)
(0 0 0)
(0 0 0)
(0 0 0)
(0 -0.000255204 0)
(0 -0.00104293 0)
(0 -0.00222964 0)
(0 -0.00372028 0)
(0 -0.00538052 0)
(0 -0.0070675 0)
(0 -0.00622069 0)
(0 -0.00703326 0)
(0 -0.00781516 0)
(0 -0.00855139 0)
(0 -0.0092055 0)
(0 -0.00986886 0)
(0 -0.0104551 0)
(0 -0.0109394 0)
(0 -0.00982935 0)
(0 -0.0102724 0)
(0 -0.011396 0)
(0 -0.0117248 0)
(0 -0.0106249 0)
(0 -0.0109474 0)
(0 -0.0120519 0)
(0 -0.012282 0)
(0 -0.0111762 0)
(0 -0.0112921 0)
(0 -0.0124155 0)
(0 -0.0125214 0)
(0 -0.0114365 0)
(0 -0.0114846 0)
(0 -0.0125692 0)
(0 -0.0125214 0)
(0 -0.0114365 0)
(0 -0.0112921 0)
(0 -0.0124155 0)
(0 -0.012282 0)
(0 -0.0111762 0)
(0 -0.0109474 0)
(0 -0.0120519 0)
(0 -0.0117248 0)
(0 -0.0106249 0)
(0 -0.0102724 0)
(0 -0.011396 0)
(0 -0.0109394 0)
(0 -0.00982935 0)
(0 -0.0104551 0)
(0 -0.00986886 0)
(0 -0.0092055 0)
(0 -0.00855139 0)
(0 -0.00781516 0)
(0 -0.00703326 0)
(0 -0.00622069 0)
(0 -0.0070675 0)
(0 -0.00538052 0)
(0 -0.0036755 0)
(0 -0.00221204 0)
(0 -0.00104182 0)
(0 -0.000277448 0)
(0 0 0)
(0 0 0)
(0 0 0)
(0 0 0)
(0 0 0)
(0 0 0)
(0 0 0)
(0 0 0)
(0 0 0)
(0 0 0)
(0 0 0)
(0 0 0)
(0 0 0)
(0 0 0)
(0 0 0)
(0 -5.56725e-05 0)
(0 -0.000571963 0)
(0 -0.00164867 0)
(0 -0.00308895 0)
(0 -0.00480119 0)
(0 -0.00676289 0)
(0 -0.00865247 0)
(0 -0.00791711 0)
(0 -0.00877312 0)
(0 -0.00787752 0)
(0 -0.00875856 0)
(0 -0.00957774 0)
(0 -0.0103849 0)
(0 -0.00953394 0)
(0 -0.0102421 0)
(0 -0.0111127 0)
(0 -0.0114445 0)
(0 -0.0117534 0)
(0 -0.0113334 0)
(0 -0.0108398 0)
(0 -0.0114413 0)
(0 -0.0118727 0)
(0 -0.0121392 0)
(0 -0.0117077 0)
(0 -0.0123556 0)
(0 -0.0127648 0)
(0 -0.0129541 0)
(0 -0.0125478 0)
(0 -0.0129714 0)
(0 -0.0133717 0)
(0 -0.0134715 0)
(0 -0.0130947 0)
(0 -0.0133213 0)
(0 -0.0136881 0)
(0 -0.0137404 0)
(0 -0.013382 0)
(0 -0.0134473 0)
(0 -0.0137979 0)
(0 -0.0137873 0)
(0 -0.013436 0)
(0 -0.0133213 0)
(0 -0.0136881 0)
(0 -0.0136386 0)
(0 -0.0132693 0)
(0 -0.0129714 0)
(0 -0.0133717 0)
(0 -0.0132571 0)
(0 -0.0128578 0)
(0 -0.0123556 0)
(0 -0.0127648 0)
(0 -0.0125976 0)
(0 -0.0121385 0)
(0 -0.0114413 0)
(0 -0.0118727 0)
(0 -0.011582 0)
(0 -0.0111518 0)
(0 -0.0102421 0)
(0 -0.0111127 0)
(0 -0.0103849 0)
(0 -0.00953394 0)
(0 -0.00875856 0)
(0 -0.00957774 0)
(0 -0.00877312 0)
(0 -0.00787752 0)
(0 -0.00791711 0)
(0 -0.00861349 0)
(0 -0.00675822 0)
(0 -0.00487857 0)
(0 -0.00306301 0)
(0 -0.00163262 0)
(0 -0.000600629 0)
(0 -6.36644e-05 0)
(0 0 0)
(0 0 0)
(0 0 0)
(0 0 0)
(0 0 0)
(0 0 0)
(0 0 0)
(0 0 0)
(0 0 0)
(0 0 0)
(0 0 0)
(0 0 0)
(0 0 0)
(0 0 0)
(0 -0.000182148 0)
(0 -0.000921859 0)
(0 -0.00216596 0)
(0 -0.00380587 0)
(0 -0.00570103 0)
(0 -0.00778552 0)
(0 -0.00973097 0)
(0 -0.00925096 0)
(0 -0.0101664 0)
(0 -0.00954339 0)
(0 -0.0103752 0)
(0 -0.0110155 0)
(0 -0.0117823 0)
(0 -0.0111329 0)
(0 -0.0118041 0)
(0 -0.0121518 0)
(0 -0.0124508 0)
(0 -0.0121513 0)
(0 -0.0129962 0)
(0 -0.01314 0)
(0 -0.0132561 0)
(0 -0.0131136 0)
(0 -0.0137578 0)
(0 -0.0138728 0)
(0 -0.0139475 0)
(0 -0.0138348 0)
(0 -0.0142086 0)
(0 -0.0142924 0)
(0 -0.0143305 0)
(0 -0.014246 0)
(0 -0.0144062 0)
(0 -0.0144677 0)
(0 -0.0144764 0)
(0 -0.0144167 0)
(0 -0.0144567 0)
(0 -0.0145062 0)
(0 -0.0145054 0)
(0 -0.0144555 0)
(0 -0.0144062 0)
(0 -0.0144677 0)
(0 -0.0144555 0)
(0 -0.0143918 0)
(0 -0.0142086 0)
(0 -0.0142924 0)
(0 -0.0142605 0)
(0 -0.0141635 0)
(0 -0.0137578 0)
(0 -0.0138728 0)
(0 -0.0138078 0)
(0 -0.0136739 0)
(0 -0.0129962 0)
(0 -0.01314 0)
(0 -0.0132717 0)
(0 -0.0130212 0)
(0 -0.0127411 0)
(0 -0.0118041 0)
(0 -0.0121518 0)
(0 -0.0124538 0)
(0 -0.0117823 0)
(0 -0.0111329 0)
(0 -0.0103752 0)
(0 -0.0109903 0)
(0 -0.0101599 0)
(0 -0.00954339 0)
(0 -0.00926203 0)
(0 -0.00975979 0)
(0 -0.00776595 0)
(0 -0.00575783 0)
(0 -0.00384578 0)
(0 -0.00219105 0)
(0 -0.000935014 0)
(0 -0.000186641 0)
(0 0 0)
(0 0 0)
(0 0 0)
(0 0 0)
(0 0 0)
(0 0 0)
(0 0 0)
(0 0 0)
(0 0 0)
(0 0 0)
(0 0 0)
(0 0 0)
(0 0 0)
(0 0 0)
(0 -0.000280867 0)
(0 -0.0011452 0)
(0 -0.00252015 0)
(0 -0.00428961 0)
(0 -0.00630454 0)
(0 -0.00839566 0)
(0 -0.0103879 0)
(0 -0.0101411 0)
(0 -0.0110493 0)
(0 -0.0106277 0)
(0 -0.0114499 0)
(0 -0.0118768 0)
(0 -0.0126072 0)
(0 -0.0122544 0)
(0 -0.0129193 0)
(0 -0.0130835 0)
(0 -0.0133697 0)
(0 -0.0132092 0)
(0 -0.0138983 0)
(0 -0.0139741 0)
(0 -0.0140598 0)
(0 -0.0139863 0)
(0 -0.0144263 0)
(0 -0.014463 0)
(0 -0.0144936 0)
(0 -0.0144612 0)
(0 -0.0145528 0)
(0 -0.0145528 0)
(0 -0.0145528 0)
(0 -0.0145528 0)
(0 -0.0145528 0)
(0 -0.0145528 0)
(0 -0.0145528 0)
(0 -0.0145528 0)
(0 -0.0145528 0)
(0 -0.0145528 0)
(0 -0.0145528 0)
(0 -0.0145528 0)
(0 -0.0145528 0)
(0 -0.0145528 0)
(0 -0.0145528 0)
(0 -0.0145528 0)
(0 -0.0145528 0)
(0 -0.0145528 0)
(0 -0.0145528 0)
(0 -0.0145528 0)
(0 -0.0144263 0)
(0 -0.014463 0)
(0 -0.0144226 0)
(0 -0.0143844 0)
(0 -0.0138983 0)
(0 -0.0139741 0)
(0 -0.014039 0)
(0 -0.013841 0)
(0 -0.0136992 0)
(0 -0.0129118 0)
(0 -0.0131026 0)
(0 -0.0132483 0)
(0 -0.0125897 0)
(0 -0.0122653 0)
(0 -0.0115152 0)
(0 -0.011862 0)
(0 -0.0110376 0)
(0 -0.0106746 0)
(0 -0.0101325 0)
(0 -0.0103931 0)
(0 -0.00839221 0)
(0 -0.00629452 0)
(0 -0.00427585 0)
(0 -0.0025058 0)
(0 -0.00113333 0)
(0 -0.000274124 0)
(0 0 0)
(0 0 0)
(0 0 0)
(0 0 0)
(0 0 0)
(0 0 0)
(0 0 0)
(0 0 0)
(0 0 0)
(0 0 0)
(0 0 0)
(0 0 0)
(0 0 0)
(0 0 0)
(0 -0.000297782 0)
(0 -0.00118181 0)
(0 -0.00257786 0)
(0 -0.00436862 0)
(0 -0.00640363 0)
(0 -0.00851189 0)
(0 -0.0105163 0)
(0 -0.01052 0)
(0 -0.0114292 0)
(0 -0.0112944 0)
(0 -0.0121157 0)
(0 -0.0122506 0)
(0 -0.0129671 0)
(0 -0.0128351 0)
(0 -0.0134613 0)
(0 -0.0135218 0)
(0 -0.0137729 0)
(0 -0.0137183 0)
(0 -0.014285 0)
(0 -0.0143084 0)
(0 -0.0143703 0)
(0 -0.0143488 0)
(0 -0.0145528 0)
(0 -0.0145528 0)
(0 -0.0145528 0)
(0 -0.0145528 0)
(0 -0.0145528 0)
(0 -0.0145528 0)
(0 -0.0145528 0)
(0 -0.0145528 0)
(0 -0.0145528 0)
(0 -0.0145528 0)
(0 -0.0145528 0)
(0 -0.0145528 0)
(0 -0.0145528 0)
(0 -0.0145528 0)
(0 -0.0145528 0)
(0 -0.0145528 0)
(0 -0.0145528 0)
(0 -0.0145522 0)
(0 -0.0145501 0)
(0 -0.014285 0)
(0 -0.0143084 0)
(0 -0.0143238 0)
(0 -0.0141783 0)
(0 -0.0141269 0)
(0 -0.0134605 0)
(0 -0.0135227 0)
(0 -0.0135634 0)
(0 -0.0129671 0)
(0 -0.0128538 0)
(0 -0.0121302 0)
(0 -0.0122198 0)
(0 -0.0113937 0)
(0 -0.0113043 0)
(0 -0.0104807 0)
(0 -0.0104928 0)
(0 -0.00848572 0)
(0 -0.00637705 0)
(0 -0.00434394 0)
(0 -0.00255721 0)
(0 -0.001167 0)
(0 -0.000290108 0)
(0 0 0)
(0 0 0)
(0 0 0)
(0 0 0)
(0 0 0)
(0 0 0)
(0 0 0)
(0 0 0)
(0 0 0)
(0 0 0)
(0 0 0)
(0 0 0)
(0 0 0)
(0 0 0)
(0 -0.000243357 0)
(0 -0.00106357 0)
(0 -0.00239278 0)
(0 -0.00411761 0)
(0 -0.00609204 0)
(0 -0.00815004 0)
(0 -0.0101203 0)
(0 -0.0104047 0)
(0 -0.0113123 0)
(0 -0.0114262 0)
(0 -0.0122484 0)
(0 -0.0121345 0)
(0 -0.0128543 0)
(0 -0.0129657 0)
(0 -0.0135629 0)
(0 -0.0135309 0)
(0 -0.0137819 0)
(0 -0.0138124 0)
(0 -0.0143493 0)
(0 -0.0143417 0)
(0 -0.0143998 0)
(0 -0.0144067 0)
(0 -0.0145528 0)
(0 -0.0145528 0)
(0 -0.0145528 0)
(0 -0.0145528 0)
(0 -0.0145528 0)
(0 -0.0145528 0)
(0 -0.0145528 0)
(0 -0.0145528 0)
(0 -0.0145528 0)
(0 -0.0145528 0)
(0 -0.0145528 0)
(0 -0.0145528 0)
(0 -0.0145528 0)
(0 -0.0145528 0)
(0 -0.0145528 0)
(0 -0.0145528 0)
(0 -0.0143493 0)
(0 -0.0143355 0)
(0 -0.0143279 0)
(0 -0.0141828 0)
(0 -0.0141993 0)
(0 -0.0135503 0)
(0 -0.0135299 0)
(0 -0.0134682 0)
(0 -0.0128631 0)
(0 -0.0129498 0)
(0 -0.0122296 0)
(0 -0.0121409 0)
(0 -0.0113162 0)
(0 -0.0114048 0)
(0 -0.0104059 0)
(0 -0.010146 0)
(0 -0.00816894 0)
(0 -0.00610438 0)
(0 -0.00412441 0)
(0 -0.00239548 0)
(0 -0.00106383 0)
(0 -0.000242825 0)
(0 0 0)
(0 0 0)
(0 0 0)
(0 0 0)
(0 0 0)
(0 0 0)
(0 0 0)
(0 0 0)
(0 0 0)
(0 0 0)
(0 0 0)
(0 0 0)
(0 0 0)
(0 0 0)
(0 -0.000123086 0)
(0 -0.000773127 0)
(0 -0.001923 0)
(0 -0.00346943 0)
(0 -0.00539399 0)
(0 -0.00736196 0)
(0 -0.00928154 0)
(0 -0.0097906 0)
(0 -0.0107006 0)
(0 -0.0110213 0)
(0 -0.0118957 0)
(0 -0.0115356 0)
(0 -0.0122798 0)
(0 -0.0126374 0)
(0 -0.0132674 0)
(0 -0.0131164 0)
(0 -0.0133902 0)
(0 -0.0135368 0)
(0 -0.0141515 0)
(0 -0.0141086 0)
(0 -0.0141867 0)
(0 -0.0142325 0)
(0 -0.0145352 0)
(0 -0.0145203 0)
(0 -0.0145381 0)
(0 -0.0145473 0)
(0 -0.0145528 0)
(0 -0.0145528 0)
(0 -0.0145528 0)
(0 -0.0145528 0)
(0 -0.0145528 0)
(0 -0.0145528 0)
(0 -0.0145528 0)
(0 -0.0145528 0)
(0 -0.0145352 0)
(0 -0.0145181 0)
(0 -0.0144944 0)
(0 -0.0145156 0)
(0 -0.0141515 0)
(0 -0.0141086 0)
(0 -0.0140502 0)
(0 -0.0138651 0)
(0 -0.0139794 0)
(0 -0.0132674 0)
(0 -0.0131164 0)
(0 -0.012945 0)
(0 -0.0122798 0)
(0 -0.0126374 0)
(0 -0.0118736 0)
(0 -0.0115356 0)
(0 -0.0107006 0)
(0 -0.0110503 0)
(0 -0.0097906 0)
(0 -0.00928154 0)
(0 -0.00736196 0)
(0 -0.00532447 0)
(0 -0.00350354 0)
(0 -0.00194536 0)
(0 -0.00078537 0)
(0 -0.000127223 0)
(0 0 0)
(0 0 0)
(0 0 0)
(0 0 0)
(0 0 0)
(0 0 0)
(0 0 0)
(0 0 0)
(0 0 0)
(0 0 0)
(0 0 0)
(0 0 0)
(0 0 0)
(0 0 0)
(0 -1.52301e-05 0)
(0 -0.000452102 0)
(0 -0.0013767 0)
(0 -0.00270716 0)
(0 -0.00432183 0)
(0 -0.00607903 0)
(0 -0.00792293 0)
(0 -0.00862209 0)
(0 -0.00955964 0)
(0 -0.0101744 0)
(0 -0.0110429 0)
(0 -0.0103805 0)
(0 -0.0112025 0)
(0 -0.0117982 0)
(0 -0.0124921 0)
(0 -0.0122139 0)
(0 -0.0125204 0)
(0 -0.0127963 0)
(0 -0.0135411 0)
(0 -0.0134172 0)
(0 -0.0135298 0)
(0 -0.0136328 0)
(0 -0.0141993 0)
(0 -0.0141178 0)
(0 -0.0141773 0)
(0 -0.0142556 0)
(0 -0.0144936 0)
(0 -0.014448 0)
(0 -0.014468 0)
(0 -0.0145097 0)
(0 -0.0145528 0)
(0 -0.0145447 0)
(0 -0.0145479 0)
(0 -0.0145528 0)
(0 -0.0145528 0)
(0 -0.0145528 0)
(0 -0.0145528 0)
(0 -0.0145528 0)
(0 -0.0145528 0)
(0 -0.0145528 0)
(0 -0.0145447 0)
(0 -0.0145402 0)
(0 -0.0145523 0)
(0 -0.0145527 0)
(0 -0.0144936 0)
(0 -0.014448 0)
(0 -0.0144233 0)
(0 -0.0144729 0)
(0 -0.0141993 0)
(0 -0.0141178 0)
(0 -0.0140515 0)
(0 -0.014136 0)
(0 -0.0135511 0)
(0 -0.0134373 0)
(0 -0.0133006 0)
(0 -0.0130745 0)
(0 -0.0133203 0)
(0 -0.0124578 0)
(0 -0.0121997 0)
(0 -0.0118982 0)
(0 -0.0111871 0)
(0 -0.0117982 0)
(0 -0.0110429 0)
(0 -0.0103805 0)
(0 -0.00955964 0)
(0 -0.0101744 0)
(0 -0.00862209 0)
(0 -0.00792293 0)
(0 -0.00607903 0)
(0 -0.00432183 0)
(0 -0.00270716 0)
(0 -0.0013767 0)
(0 -0.000421721 0)
(0 -1.82941e-05 0)
(0 0 0)
(0 0 0)
(0 0 0)
(0 0 0)
(0 0 0)
(0 0 0)
(0 0 0)
(0 0 0)
(0 0 0)
(0 0 0)
(0 0 0)
(0 0 0)
(0 0 0)
(0 0 0)
(0 0 0)
(0 -0.000138963 0)
(0 -0.000732283 0)
(0 -0.0017229 0)
(0 -0.00300748 0)
(0 -0.00461249 0)
(0 -0.00627197 0)
(0 -0.00705481 0)
(0 -0.00797857 0)
(0 -0.00876851 0)
(0 -0.0096249 0)
(0 -0.00881019 0)
(0 -0.00958774 0)
(0 -0.0104298 0)
(0 -0.0111586 0)
(0 -0.0102976 0)
(0 -0.0108918 0)
(0 -0.0113852 0)
(0 -0.0117999 0)
(0 -0.0114908 0)
(0 -0.0123514 0)
(0 -0.0119202 0)
(0 -0.0121867 0)
(0 -0.0125952 0)
(0 -0.0132057 0)
(0 -0.012836 0)
(0 -0.0129839 0)
(0 -0.0133671 0)
(0 -0.0137467 0)
(0 -0.013419 0)
(0 -0.0135153 0)
(0 -0.0138374 0)
(0 -0.0140272 0)
(0 -0.0137249 0)
(0 -0.0137782 0)
(0 -0.0140644 0)
(0 -0.0141141 0)
(0 -0.0138349 0)
(0 -0.0138205 0)
(0 -0.0141027 0)
(0 -0.0140272 0)
(0 -0.0137249 0)
(0 -0.0136492 0)
(0 -0.0139689 0)
(0 -0.0137467 0)
(0 -0.013419 0)
(0 -0.0132988 0)
(0 -0.0136322 0)
(0 -0.0132057 0)
(0 -0.012836 0)
(0 -0.0126448 0)
(0 -0.0130186 0)
(0 -0.0123514 0)
(0 -0.0119202 0)
(0 -0.0116699 0)
(0 -0.012085 0)
(0 -0.0111586 0)
(0 -0.0102976 0)
(0 -0.00958774 0)
(0 -0.0104298 0)
(0 -0.0096249 0)
(0 -0.00881019 0)
(0 -0.00797857 0)
(0 -0.00876851 0)
(0 -0.00705481 0)
(0 -0.00627197 0)
(0 -0.00461249 0)
(0 -0.00300748 0)
(0 -0.0017229 0)
(0 -0.000732283 0)
(0 -0.000138963 0)
(0 0 0)
(0 0 0)
(0 0 0)
(0 0 0)
(0 0 0)
(0 0 0)
(0 0 0)
(0 0 0)
(0 0 0)
(0 0 0)
(0 0 0)
(0 0 0)
(0 0 0)
(0 0 0)
(0 0 0)
(0 0 0)
(0 0 0)
(0 -0.000209411 0)
(0 -0.000864711 0)
(0 -0.0018537 0)
(0 -0.00308023 0)
(0 -0.00442368 0)
(0 -0.00574988 0)
(0 -0.00677904 0)
(0 -0.00787339 0)
(0 -0.00708822 0)
(0 -0.00751554 0)
(0 -0.00861244 0)
(0 -0.00926432 0)
(0 -0.00820564 0)
(0 -0.00883682 0)
(0 -0.00992958 0)
(0 -0.0105172 0)
(0 -0.00997344 0)
(0 -0.0101833 0)
(0 -0.0107793 0)
(0 -0.0114481 0)
(0 -0.0109134 0)
(0 -0.0111118 0)
(0 -0.011648 0)
(0 -0.0121036 0)
(0 -0.0115659 0)
(0 -0.0116545 0)
(0 -0.0122071 0)
(0 -0.0124967 0)
(0 -0.0119803 0)
(0 -0.0120406 0)
(0 -0.0125565 0)
(0 -0.0126268 0)
(0 -0.0121137 0)
(0 -0.0120889 0)
(0 -0.0126043 0)
(0 -0.0124967 0)
(0 -0.0119803 0)
(0 -0.0118959 0)
(0 -0.0124128 0)
(0 -0.0121036 0)
(0 -0.0115659 0)
(0 -0.0114383 0)
(0 -0.0119759 0)
(0 -0.0114481 0)
(0 -0.0109134 0)
(0 -0.0106921 0)
(0 -0.0112245 0)
(0 -0.0105172 0)
(0 -0.00997344 0)
(0 -0.00934497 0)
(0 -0.00883682 0)
(0 -0.00992958 0)
(0 -0.00926432 0)
(0 -0.00820564 0)
(0 -0.00751554 0)
(0 -0.00861244 0)
(0 -0.00787339 0)
(0 -0.00677904 0)
(0 -0.00574988 0)
(0 -0.00442368 0)
(0 -0.00708822 0)
(0 -0.00308023 0)
(0 -0.0018537 0)
(0 -0.000864711 0)
(0 -0.000209411 0)
(0 0 0)
(0 0 0)
(0 0 0)
(0 0 0)
(0 0 0)
(0 0 0)
(0 0 0)
(0 0 0)
(0 0 0)
(0 0 0)
(0 0 0)
(0 0 0)
(0 0 0)
(0 0 0)
(0 0 0)
(0 0 0)
(0 0 0)
(0 0 0)
(0 -2.6556e-06 0)
(0 -0.000237898 0)
(0 -0.00080616 0)
(0 -0.00157978 0)
(0 -0.00258577 0)
(0 -0.00365864 0)
(0 -0.00469596 0)
(0 -0.00530152 0)
(0 -0.00642553 0)
(0 -0.00706279 0)
(0 -0.00581197 0)
(0 -0.00638789 0)
(0 -0.00758787 0)
(0 -0.0081636 0)
(0 -0.00754494 0)
(0 -0.00779817 0)
(0 -0.00842686 0)
(0 -0.00910551 0)
(0 -0.00845268 0)
(0 -0.00863282 0)
(0 -0.0092918 0)
(0 -0.00971391 0)
(0 -0.0090602 0)
(0 -0.00920574 0)
(0 -0.0098637 0)
(0 -0.0101775 0)
(0 -0.0095112 0)
(0 -0.00956823 0)
(0 -0.010236 0)
(0 -0.0103131 0)
(0 -0.00964535 0)
(0 -0.00961397 0)
(0 -0.0102829 0)
(0 -0.0101775 0)
(0 -0.0095112 0)
(0 -0.0094316 0)
(0 -0.0100958 0)
(0 -0.00971391 0)
(0 -0.0090602 0)
(0 -0.00889356 0)
(0 -0.00960047 0)
(0 -0.00910551 0)
(0 -0.00845268 0)
(0 -0.00825299 0)
(0 -0.00889873 0)
(0 -0.0081636 0)
(0 -0.00754494 0)
(0 -0.0069151 0)
(0 -0.00638789 0)
(0 -0.00758787 0)
(0 -0.00706279 0)
(0 -0.00581197 0)
(0 -0.00530152 0)
(0 -0.00642553 0)
(0 -0.00469596 0)
(0 -0.00365864 0)
(0 -0.00258577 0)
(0 -0.00157978 0)
(0 -0.00080616 0)
(0 -0.000237898 0)
(0 -2.6556e-06 0)
(0 0 0)
(0 0 0)
(0 0 0)
(0 0 0)
(0 0 0)
(0 0 0)
(0 0 0)
(0 0 0)
(0 0 0)
(0 0 0)
(0 0 0)
(0 0 0)
(0 0 0)
(0 0 0)
(0 0 0)
(0 0 0)
(0 0 0)
(0 0 0)
(0 0 0)
(0 0 0)
(0 -0.000124936 0)
(0 -0.000520354 0)
(0 -0.00105414 0)
(0 -0.00177497 0)
(0 -0.00262456 0)
(0 -0.00309479 0)
(0 -0.00412378 0)
(0 -0.00466382 0)
(0 -0.0035556 0)
(0 -0.0039954 0)
(0 -0.00517481 0)
(0 -0.00564556 0)
(0 -0.00501804 0)
(0 -0.0052215 0)
(0 -0.00586269 0)
(0 -0.00642805 0)
(0 -0.00575259 0)
(0 -0.00584951 0)
(0 -0.00651539 0)
(0 -0.00700699 0)
(0 -0.00631372 0)
(0 -0.00643514 0)
(0 -0.00713535 0)
(0 -0.00740584 0)
(0 -0.00669134 0)
(0 -0.00673938 0)
(0 -0.00745651 0)
(0 -0.00753034 0)
(0 -0.00681106 0)
(0 -0.00677796 0)
(0 -0.00749718 0)
(0 -0.00740584 0)
(0 -0.00669134 0)
(0 -0.0066244 0)
(0 -0.00733521 0)
(0 -0.00700699 0)
(0 -0.00631372 0)
(0 -0.00617517 0)
(0 -0.00686042 0)
(0 -0.00642805 0)
(0 -0.00575259 0)
(0 -0.00558975 0)
(0 -0.00625492 0)
(0 -0.00564556 0)
(0 -0.00501804 0)
(0 -0.00440354 0)
(0 -0.0039954 0)
(0 -0.00517481 0)
(0 -0.00466382 0)
(0 -0.0035556 0)
(0 -0.00309479 0)
(0 -0.00412378 0)
(0 -0.00262456 0)
(0 -0.00177497 0)
(0 -0.00105414 0)
(0 -0.000520354 0)
(0 -0.000124936 0)
(0 0 0)
(0 0 0)
(0 0 0)
(0 0 0)
(0 0 0)
(0 0 0)
(0 0 0)
(0 0 0)
(0 0 0)
(0 0 0)
(0 0 0)
(0 0 0)
(0 0 0)
(0 0 0)
(0 0 0)
(0 0 0)
(0 0 0)
(0 0 0)
(0 0 0)
(0 0 0)
(0 0 0)
(0 0 0)
(0 0 0)
(0 -1.06393e-05 0)
(0 -0.000180468 0)
(0 -0.000503659 0)
(0 -0.00105657 0)
(0 -0.00134422 0)
(0 -0.00215473 0)
(0 -0.00253217 0)
(0 -0.00163631 0)
(0 -0.00192295 0)
(0 -0.00289652 0)
(0 -0.00323775 0)
(0 -0.00269818 0)
(0 -0.00284172 0)
(0 -0.00339683 0)
(0 -0.00377997 0)
(0 -0.0031991 0)
(0 -0.00333378 0)
(0 -0.00392795 0)
(0 -0.00430085 0)
(0 -0.00367409 0)
(0 -0.00376386 0)
(0 -0.00439899 0)
(0 -0.00460682 0)
(0 -0.00395427 0)
(0 -0.00399012 0)
(0 -0.00464591 0)
(0 -0.00470833 0)
(0 -0.00404864 0)
(0 -0.00401894 0)
(0 -0.00467732 0)
(0 -0.00460682 0)
(0 -0.00395427 0)
(0 -0.00390439 0)
(0 -0.00455241 0)
(0 -0.00430085 0)
(0 -0.00367409 0)
(0 -0.00357204 0)
(0 -0.00418918 0)
(0 -0.00377997 0)
(0 -0.0031991 0)
(0 -0.00305523 0)
(0 -0.0036216 0)
(0 -0.00323775 0)
(0 -0.00269818 0)
(0 -0.00219491 0)
(0 -0.00192295 0)
(0 -0.00289652 0)
(0 -0.00253217 0)
(0 -0.00163631 0)
(0 -0.00134422 0)
(0 -0.00215473 0)
(0 -0.00105657 0)
(0 -0.000503659 0)
(0 -0.000180468 0)
(0 -1.06393e-05 0)
(0 0 0)
(0 0 0)
(0 0 0)
(0 0 0)
(0 0 0)
(0 0 0)
(0 0 0)
(0 0 0)
(0 0 0)
(0 0 0)
(0 0 0)
(0 0 0)
(0 0 0)
(0 0 0)
(0 0 0)
(0 0 0)
(0 0 0)
(0 0 0)
(0 0 0)
(0 0 0)
(0 0 0)
(0 0 0)
(0 0 0)
(0 0 0)
(0 0 0)
(0 0 0)
(0 -1.92859e-06 0)
(0 -0.000144894 0)
(0 -0.000252379 0)
(0 -0.00069982 0)
(0 -0.000906711 0)
(0 -0.000376326 0)
(0 -0.000508874 0)
(0 -0.00111544 0)
(0 -0.00131761 0)
(0 -0.000906991 0)
(0 -0.00099984 0)
(0 -0.0013674 0)
(0 -0.00167893 0)
(0 -0.00126354 0)
(0 -0.00134358 0)
(0 -0.00177265 0)
(0 -0.00201232 0)
(0 -0.00154954 0)
(0 -0.00160469 0)
(0 -0.00207618 0)
(0 -0.00221243 0)
(0 -0.00172272 0)
(0 -0.0017451 0)
(0 -0.0022382 0)
(0 -0.00228303 0)
(0 -0.00178483 0)
(0 -0.00176312 0)
(0 -0.00225895 0)
(0 -0.00221243 0)
(0 -0.00172272 0)
(0 -0.00169166 0)
(0 -0.00217663 0)
(0 -0.00201232 0)
(0 -0.00154954 0)
(0 -0.00148725 0)
(0 -0.00194004 0)
(0 -0.00167893 0)
(0 -0.00126354 0)
(0 -0.00117901 0)
(0 -0.00157957 0)
(0 -0.00131761 0)
(0 -0.000906991 0)
(0 -0.000609913 0)
(0 -0.000508874 0)
(0 -0.00111544 0)
(0 -0.000906711 0)
(0 -0.000376326 0)
(0 -0.000252379 0)
(0 -0.00069982 0)
(0 -0.000144894 0)
(0 -1.92859e-06 0)
(0 0 0)
(0 0 0)
(0 0 0)
(0 0 0)
(0 0 0)
(0 0 0)
(0 0 0)
(0 0 0)
(0 0 0)
(0 0 0)
(0 0 0)
(0 0 0)
(0 0 0)
(0 0 0)
(0 0 0)
(0 0 0)
(0 0 0)
(0 0 0)
(0 0 0)
(0 0 0)
(0 0 0)
(0 0 0)
(0 0 0)
(0 0 0)
(0 0 0)
(0 0 0)
(0 0 0)
(0 0 0)
(0 0 0)
(0 0 0)
(0 0 0)
(0 -7.08295e-05 0)
(0 -2.56182e-05 0)
(0 0 0)
(0 -0.000111379 0)
(0 -0.000186073 0)
(0 -5.6966e-06 0)
(0 -2.48996e-05 0)
(0 -0.000268146 0)
(0 -0.00035131 0)
(0 -5.25041e-05 0)
(0 -8.36017e-05 0)
(0 -0.000429892 0)
(0 -0.000498963 0)
(0 -0.000113907 0)
(0 -0.000139863 0)
(0 -0.000554448 0)
(0 -0.000593214 0)
(0 -0.000158725 0)
(0 -0.00016863 0)
(0 -0.000613137 0)
(0 -0.000629077 0)
(0 -0.000177091 0)
(0 -0.00016863 0)
(0 -0.000613137 0)
(0 -0.000593214 0)
(0 -0.000158725 0)
(0 -0.000139863 0)
(0 -0.000554448 0)
(0 -0.000498963 0)
(0 -0.000113907 0)
(0 -8.36017e-05 0)
(0 -0.000429892 0)
(0 -0.00035131 0)
(0 -5.25041e-05 0)
(0 -2.48996e-05 0)
(0 -0.000268146 0)
(0 -0.000186073 0)
(0 -5.6966e-06 0)
(0 0 0)
(0 -0.000111379 0)
(0 -7.08295e-05 0)
(0 0 0)
(0 0 0)
(0 0 0)
(0 -2.56182e-05 0)
(0 0 0)
(0 0 0)
(0 0 0)
(0 0 0)
(0 0 0)
(0 0 0)
(0 0 0)
(0 0 0)
(0 0 0)
(0 0 0)
(0 0 0)
(0 0 0)
(0 0 0)
(0 0 0)
(0 0 0)
(0 0 0)
(0 0 0)
(0 0 0)
(0 0 0)
(0 0 0)
(0 0 0)
(0 0 0)
(0 0 0)
(0 0 0)
(0 0 0)
(0 0 0)
(0 0 0)
(0 0 0)
(0 0 0)
(0 0 0)
(0 0 0)
(0 0 0)
(0 0 0)
(0 0 0)
(0 0 0)
(0 0 0)
(0 0 0)
(0 0 0)
(0 0 0)
(0 0 0)
(0 -5.11949e-07 0)
(0 0 0)
(0 0 0)
(0 -1.97015e-06 0)
(0 -1.17221e-06 0)
(0 0 0)
(0 -5.11949e-07 0)
(0 -1.17221e-06 0)
(0 0 0)
(0 0 0)
(0 0 0)
(0 0 0)
(0 0 0)
(0 0 0)
(0 0 0)
(0 0 0)
(0 0 0)
(0 0 0)
(0 0 0)
(0 0 0)
(0 0 0)
(0 0 0)
(0 0 0)
(0 0 0)
(0 0 0)
(0 0 0)
(0 0 0)
(0 0 0)
(0 0 0)
(0 0 0)
(0 0 0)
(0 0 0)
(0 0 0)
(0 0 0)
(0 0 0)
(0 0 0)
(0 0 0)
(0 0 0)
(0 0 0)
(0 0 0)
(0 0 0)
(0 0 0)
(0 0 0)
(0 0 0)
(0 0 0)
(0 0 0)
(0 0 0)
(0 0 0)
(0 0 0)
(0 0 0)
(0 0 0)
(0 0 0)
(0 0 0)
(0 0 0)
(0 0 0)
(0 0 0)
(0 0 0)
(0 0 0)
(0 0 0)
(0 0 0)
(0 0 0)
(0 0 0)
(0 0 0)
(0 0 0)
(0 0 0)
(0 0 0)
(0 0 0)
(0 0 0)
(0 0 0)
(0 0 0)
(0 0 0)
(0 0 0)
(0 0 0)
(0 0 0)
(0 0 0)
(0 0 0)
(0 0 0)
(0 0 0)
(0 0 0)
(0 0 0)
(0 0 0)
(0 0 0)
(0 0 0)
(0 0 0)
(0 0 0)
(0 0 0)
(0 0 0)
(0 0 0)
(0 0 0)
(0 0 0)
(0 0 0)
(0 0 0)
(0 0 0)
(0 0 0)
(0 0 0)
(0 0 0)
(0 0 0)
(0 0 0)
(0 0 0)
(0 0 0)
(0 0 0)
(0 0 0)
(0 0 0)
(0 0 0)
(0 0 0)
(0 0 0)
(0 0 0)
(0 0 0)
(0 0 0)
(0 0 0)
(0 0 0)
(0 0 0)
(0 0 0)
(0 0 0)
(0 0 0)
(0 0 0)
(0 0 0)
(0 0 0)
(0 0 0)
(0 0 0)
(0 0 0)
(0 0 0)
(0 0 0)
(0 0 0)
(0 0 0)
(0 0 0)
(0 0 0)
(0 0 0)
(0 0 0)
(0 0 0)
(0 0 0)
(0 0 0)
(0 0 0)
(0 0 0)
(0 0 0)
(0 0 0)
(0 0 0)
(0 0 0)
(0 0 0)
(0 0 0)
(0 0 0)
(0 0 0)
(0 0 0)
(0 0 0)
(0 0 0)
(0 0 0)
(0 0 0)
(0 0 0)
(0 0 0)
(0 0 0)
(0 0 0)
(0 0 0)
(0 0 0)
(0 0 0)
(0 0 0)
(0 0 0)
(0 0 0)
(0 0 0)
(0 0 0)
(0 0 0)
(0 0 0)
(0 0 0)
(0 0 0)
(0 0 0)
(0 0 0)
(0 0 0)
(0 0 0)
(0 0 0)
(0 0 0)
(0 0 0)
(0 0 0)
(0 0 0)
(0 0 0)
(0 0 0)
(0 0 0)
(0 0 0)
(0 0 0)
(0 0 0)
(0 0 0)
(0 0 0)
(0 0 0)
(0 0 0)
(0 0 0)
(0 0 0)
(0 0 0)
(0 0 0)
(0 0 0)
(0 0 0)
(0 0 0)
(0 0 0)
(0 0 0)
(0 0 0)
(0 0 0)
(0 0 0)
(0 0 0)
(0 0 0)
(0 0 0)
(0 0 0)
(0 0 0)
(0 0 0)
(0 0 0)
(0 0 0)
(0 0 0)
(0 0 0)
(0 0 0)
(0 0 0)
(0 0 0)
(0 0 0)
(0 0 0)
(0 0 0)
(0 0 0)
(0 0 0)
(0 0 0)
(0 0 0)
(0 0 0)
(0 0 0)
(0 0 0)
(0 0 0)
(0 0 0)
(0 0 0)
(0 0 0)
(0 0 0)
(0 0 0)
(0 0 0)
(0 0 0)
(0 0 0)
(0 0 0)
(0 0 0)
(0 0 0)
(0 0 0)
(0 0 0)
(0 0 0)
(0 0 0)
(0 0 0)
(0 0 0)
(0 0 0)
(0 0 0)
(0 0 0)
(0 0 0)
(0 0 0)
(0 0 0)
(0 0 0)
(0 0 0)
(0 0 0)
(0 0 0)
(0 0 0)
(0 0 0)
(0 0 0)
(0 0 0)
(0 0 0)
(0 0 0)
(0 0 0)
(0 0 0)
(0 0 0)
(0 0 0)
(0 0 0)
(0 0 0)
(0 0 0)
(0 0 0)
(0 0 0)
(0 0 0)
(0 0 0)
(0 0 0)
(0 0 0)
(0 0 0)
(0 0 0)
(0 0 0)
(0 0 0)
(0 0 0)
(0 0 0)
(0 0 0)
(0 0 0)
(0 0 0)
(0 0 0)
(0 0 0)
(0 0 0)
(0 0 0)
(0 0 0)
(0 0 0)
(0 0 0)
(0 0 0)
(0 0 0)
(0 0 0)
(0 0 0)
(0 0 0)
(0 0 0)
(0 0 0)
(0 0 0)
(0 0 0)
(0 0 0)
(0 0 0)
(0 0 0)
(0 0 0)
(0 0 0)
(0 0 0)
(0 0 0)
(0 0 0)
(0 0 0)
(0 0 0)
(0 0 0)
(0 0 0)
(0 0 0)
(0 0 0)
(0 0 0)
(0 0 0)
(0 0 0)
(0 0 0)
(0 0 0)
(0 0 0)
(0 0 0)
(0 0 0)
(0 0 0)
(0 0 0)
(0 0 0)
(0 0 0)
(0 0 0)
(0 0 0)
(0 0 0)
(0 0 0)
(0 0 0)
(0 0 0)
(0 0 0)
(0 0 0)
(0 0 0)
(0 0 0)
(0 0 0)
(0 0 0)
(0 0 0)
(0 0 0)
(0 0 0)
(0 0 0)
(0 0 0)
(0 0 0)
(0 0 0)
(0 0 0)
(0 0 0)
(0 0 0)
(0 0 0)
(0 0 0)
(0 0 0)
(0 0 0)
(0 0 0)
(0 0 0)
(0 0 0)
(0 0 0)
(0 0 0)
(0 0 0)
(0 0 0)
(0 0 0)
(0 0 0)
(0 0 0)
(0 0 0)
(0 0 0)
(0 0 0)
(0 0 0)
(0 0 0)
(0 0 0)
(0 0 0)
(0 0 0)
(0 0 0)
(0 0 0)
(0 0 0)
(0 0 0)
(0 0 0)
(0 0 0)
(0 0 0)
(0 0 0)
(0 0 0)
(0 0 0)
(0 0 0)
(0 0 0)
(0 0 0)
(0 0 0)
(0 0 0)
(0 0 0)
(0 0 0)
(0 0 0)
(0 0 0)
(0 0 0)
(0 0 0)
(0 0 0)
(0 0 0)
(0 0 0)
(0 0 0)
(0 0 0)
(0 0 0)
(0 0 0)
(0 0 0)
(0 0 0)
(0 0 0)
(0 0 0)
(0 0 0)
(0 0 0)
(0 0 0)
(0 0 0)
(0 0 0)
(0 0 0)
(0 0 0)
(0 0 0)
(0 0 0)
(0 0 0)
(0 0 0)
(0 0 0)
(0 0 0)
(0 0 0)
(0 0 0)
(0 0 0)
(0 0 0)
(0 0 0)
(0 0 0)
(0 0 0)
(0 0 0)
(0 0 0)
(0 0 0)
(0 0 0)
(0 0 0)
(0 0 0)
(0 0 0)
(0 0 0)
(0 0 0)
(0 0 0)
(0 0 0)
(0 0 0)
(0 0 0)
(0 0 0)
(0 0 0)
(0 0 0)
(0 0 0)
(0 0 0)
(0 0 0)
(0 0 0)
(0 0 0)
(0 0 0)
(0 0 0)
(0 0 0)
(0 0 0)
(0 0 0)
(0 0 0)
(0 0 0)
(0 0 0)
(0 0 0)
(0 0 0)
(0 0 0)
(0 0 0)
(0 0 0)
(0 0 0)
(0 0 0)
(0 0 0)
(0 0 0)
(0 0 0)
(0 0 0)
(0 0 0)
(0 0 0)
(0 0 0)
(0 0 0)
(0 0 0)
(0 0 0)
(0 0 0)
(0 0 0)
(0 0 0)
(0 0 0)
(0 0 0)
(0 0 0)
(0 0 0)
(0 0 0)
(0 0 0)
(0 0 0)
(0 0 0)
(0 0 0)
(0 0 0)
(0 0 0)
(0 0 0)
(0 0 0)
(0 0 0)
(0 0 0)
(0 0 0)
(0 0 0)
(0 0 0)
(0 0 0)
(0 0 0)
(0 0 0)
(0 0 0)
(0 0 0)
(0 0 0)
(0 0 0)
(0 0 0)
(0 0 0)
(0 0 0)
(0 0 0)
(0 0 0)
(0 0 0)
(0 0 0)
(0 0 0)
(0 0 0)
(0 0 0)
(0 0 0)
(0 0 0)
(0 0 0)
(0 0 0)
(0 0 0)
(0 0 0)
(0 0 0)
(0 0 0)
(0 0 0)
(0 0 0)
(0 0 0)
(0 0 0)
(0 0 0)
(0 0 0)
(0 0 0)
(0 0 0)
(0 0 0)
(0 0 0)
(0 0 0)
(0 0 0)
(0 0 0)
(0 0 0)
(0 0 0)
(0 0 0)
(0 0 0)
(0 0 0)
(0 0 0)
(0 0 0)
(0 0 0)
(0 0 0)
(0 0 0)
(0 0 0)
(0 0 0)
(0 0 0)
(0 0 0)
(0 0 0)
(0 0 0)
(0 0 0)
(0 0 0)
(0 0 0)
(0 0 0)
(0 0 0)
(0 0 0)
(0 0 0)
(0 0 0)
(0 0 0)
(0 0 0)
(0 0 0)
(0 0 0)
(0 0 0)
(0 0 0)
(0 0 0)
(0 0 0)
(0 0 0)
(0 0 0)
(0 0 0)
(0 0 0)
(0 0 0)
(0 0 0)
(0 0 0)
(0 0 0)
(0 0 0)
(0 0 0)
(0 0 0)
(0 0 0)
(0 0 0)
(0 0 0)
(0 0 0)
(0 0 0)
(0 0 0)
(0 0 0)
(0 0 0)
(0 0 0)
(0 0 0)
(0 0 0)
(0 0 0)
(0 0 0)
(0 0 0)
(0 0 0)
(0 0 0)
(0 0 0)
(0 0 0)
(0 0 0)
(0 0 0)
(0 0 0)
(0 0 0)
(0 0 0)
(0 0 0)
(0 0 0)
(0 0 0)
(0 0 0)
(0 0 0)
(0 0 0)
(0 0 0)
(0 0 0)
(0 0 0)
(0 0 0)
(0 0 0)
(0 0 0)
(0 0 0)
(0 0 0)
(0 0 0)
(0 0 0)
(0 0 0)
(0 0 0)
(0 0 0)
(0 0 0)
(0 0 0)
(0 0 0)
(0 0 0)
(0 0 0)
(0 0 0)
(0 0 0)
(0 0 0)
(0 0 0)
(0 0 0)
(0 0 0)
(0 0 0)
(0 0 0)
(0 0 0)
(0 0 0)
(0 0 0)
(0 0 0)
(0 0 0)
(0 0 0)
(0 0 0)
(0 0 0)
(0 0 0)
(0 0 0)
(0 0 0)
(0 0 0)
(0 0 0)
(0 0 0)
(0 0 0)
(0 0 0)
(0 0 0)
(0 0 0)
(0 0 0)
(0 0 0)
(0 0 0)
(0 0 0)
(0 0 0)
(0 0 0)
(0 0 0)
(0 0 0)
(0 0 0)
(0 0 0)
(0 0 0)
(0 0 0)
(0 0 0)
(0 0 0)
(0 0 0)
(0 0 0)
(0 0 0)
(0 0 0)
(0 0 0)
(0 0 0)
(0 0 0)
(0 0 0)
(0 0 0)
(0 0 0)
(0 0 0)
(0 0 0)
(0 0 0)
(0 0 0)
(0 0 0)
(0 0 0)
(0 0 0)
(0 0 0)
(0 0 0)
(0 0 0)
(0 0 0)
(0 0 0)
(0 0 0)
(0 0 0)
(0 0 0)
(0 0 0)
(0 0 0)
(0 0 0)
(0 0 0)
(0 0 0)
(0 0 0)
(0 0 0)
(0 0 0)
(0 0 0)
(0 0 0)
(0 0 0)
(0 0 0)
(0 0 0)
(0 0 0)
(0 0 0)
(0 0 0)
(0 0 0)
(0 0 0)
(0 0 0)
(0 0 0)
(0 0 0)
(0 0 0)
(0 0 0)
(0 0 0)
(0 0 0)
(0 0 0)
(0 0 0)
(0 0 0)
(0 0 0)
(0 0 0)
(0 0 0)
(0 0 0)
(0 0 0)
(0 0 0)
(0 0 0)
(0 0 0)
(0 0 0)
(0 0 0)
(0 0 0)
(0 0 0)
(0 0 0)
(0 0 0)
(0 0 0)
(0 0 0)
(0 0 0)
(0 0 0)
(0 0 0)
(0 0 0)
(0 0 0)
(0 0 0)
(0 0 0)
(0 0 0)
(0 0 0)
(0 0 0)
(0 0 0)
(0 0 0)
(0 0 0)
(0 0 0)
(0 0 0)
(0 0 0)
(0 0 0)
(0 0 0)
(0 0 0)
(0 0 0)
(0 0 0)
(0 0 0)
(0 0 0)
(0 0 0)
(0 0 0)
(0 0 0)
(0 0 0)
(0 0 0)
(0 0 0)
(0 0 0)
(0 0 0)
(0 0 0)
(0 0 0)
(0 0 0)
(0 0 0)
(0 0 0)
(0 0 0)
(0 0 0)
(0 0 0)
(0 0 0)
(0 0 0)
(0 0 0)
(0 0 0)
(0 0 0)
(0 0 0)
(0 0 0)
(0 0 0)
(0 0 0)
(0 0 0)
(0 0 0)
(0 0 0)
(0 0 0)
(0 0 0)
(0 0 0)
(0 0 0)
(0 0 0)