/*--------------------------------*- C++ -*----------------------------------*\
| =========                 |                                                 |
| \\      /  F ield         | OpenFOAM: The Open Source CFD Toolbox           |
|  \\    /   O peration     | Version:  v2106                                 |
|   \\  /    A nd           | Website:  www.openfoam.com                      |
|    \\/     M anipulation  |                                                 |
\*---------------------------------------------------------------------------*/
FoamFile
{
    version     2.0;
    format      ascii;
    arch        "LSB;label=32;scalar=64";
    class       volScalarField;
    location    "0";
    object      p;
}
// * * * * * * * * * * * * * * * * * * * * * * * * * * * * * * * * * * * * * //

dimensions      [0 2 -2 0 0 0 0];

internalField   nonuniform List<scalar> 
11644
(
-0.188645
-0.188979
-0.189263
-0.189392
-0.189535
-0.189554
-0.189276
-0.188508
-0.187039
-0.184546
-0.180708
-0.175503
-0.168608
-0.159844
-0.149697
-0.138108
-0.12685
-0.116876
-0.105285
-0.0931346
-0.0864615
-0.0864449
-0.0870885
-0.0851591
-0.0855653
-0.0872266
-0.0882772
-0.0888958
-0.0889952
-0.0883276
-0.0872097
-0.0858038
-0.0841869
-0.0825554
-0.0809987
-0.0795475
-0.0783154
-0.077312
-0.0765411
-0.0760538
-0.186756
-0.187072
-0.187689
-0.188478
-0.189179
-0.189737
-0.190056
-0.189894
-0.189013
-0.187088
-0.18392
-0.179054
-0.171917
-0.163493
-0.15295
-0.141311
-0.128547
-0.116006
-0.104812
-0.0959197
-0.0912684
-0.0873476
-0.0865421
-0.0869718
-0.0886499
-0.0898557
-0.0910621
-0.0913465
-0.0907298
-0.0896845
-0.0881943
-0.0863476
-0.0843784
-0.0823374
-0.0802933
-0.0784759
-0.0768832
-0.0755836
-0.0745546
-0.0738944
-0.186634
-0.186664
-0.187064
-0.18777
-0.188677
-0.189715
-0.190675
-0.191404
-0.191572
-0.190921
-0.188876
-0.184879
-0.178963
-0.170105
-0.159123
-0.145992
-0.13143
-0.11617
-0.104418
-0.0918481
-0.0863011
-0.0847954
-0.0810398
-0.084463
-0.0885141
-0.0916234
-0.0933223
-0.0938661
-0.0929272
-0.0909081
-0.0885497
-0.0859655
-0.083285
-0.0807432
-0.0784146
-0.0764344
-0.0747545
-0.0734261
-0.0726241
-0.072293
-0.186721
-0.186855
-0.18697
-0.187366
-0.188108
-0.18914
-0.190416
-0.191775
-0.192973
-0.193487
-0.192861
-0.191137
-0.186893
-0.181344
-0.171176
-0.157395
-0.141857
-0.120604
-0.103658
-0.0849631
-0.0766827
-0.0771478
-0.075704
-0.0811334
-0.0851164
-0.0893162
-0.0926476
-0.0930507
-0.0919065
-0.0893841
-0.0860704
-0.0827693
-0.0797836
-0.0771118
-0.0749204
-0.0731014
-0.0717843
-0.070994
-0.0706462
-0.070723
-0.187957
-0.187478
-0.187367
-0.187547
-0.187876
-0.188528
-0.189572
-0.190954
-0.192602
-0.194353
-0.196583
-0.198245
-0.198632
-0.193131
-0.18316
-0.168209
-0.149582
-0.122667
-0.102508
-0.0811033
-0.0678245
-0.0693741
-0.0672357
-0.0740132
-0.0802154
-0.0835933
-0.0853504
-0.0861954
-0.0844475
-0.0821533
-0.0794259
-0.0761382
-0.073315
-0.071196
-0.0697477
-0.0689224
-0.0686396
-0.0687915
-0.0691072
-0.0691986
-0.18964
-0.189618
-0.189197
-0.188594
-0.188241
-0.188166
-0.188496
-0.189349
-0.191173
-0.194405
-0.198446
-0.202729
-0.204385
-0.208818
-0.205044
-0.186852
-0.162241
-0.13935
-0.114512
-0.0891134
-0.0729491
-0.0628594
-0.0645843
-0.0676196
-0.0728112
-0.0758047
-0.076202
-0.0715167
-0.0697604
-0.0674248
-0.0661627
-0.0650793
-0.0640895
-0.0636714
-0.0639855
-0.0649019
-0.066014
-0.0669315
-0.0677094
-0.0683161
-0.192027
-0.191832
-0.191401
-0.19095
-0.190267
-0.189434
-0.188729
-0.188602
-0.189897
-0.192652
-0.196821
-0.200831
-0.209626
-0.213833
-0.215202
-0.216401
-0.193586
-0.16466
-0.135994
-0.103184
-0.0800193
-0.0645433
-0.0571429
-0.0519174
-0.0528539
-0.0506012
-0.0481326
-0.0458113
-0.0445363
-0.0450164
-0.0467945
-0.0494164
-0.0524819
-0.0552897
-0.0583017
-0.0612814
-0.0639962
-0.0663687
-0.0679476
-0.0689948
-0.196759
-0.195955
-0.195376
-0.194586
-0.193479
-0.192366
-0.19108
-0.190223
-0.190522
-0.191876
-0.195617
-0.202753
-0.200843
-0.221896
-0.222765
-0.225353
-0.211421
-0.180854
-0.139931
-0.101006
-0.0670501
-0.0412784
-0.0269452
-0.0204756
-0.00488507
-0.0160353
-0.0192074
-0.0030123
-0.0147907
-0.0196208
-0.0267146
-0.0339317
-0.0416539
-0.0487232
-0.0547853
-0.0600748
-0.0643644
-0.0674702
-0.069768
-0.0703305
-0.201596
-0.202158
-0.201656
-0.200709
-0.199541
-0.198236
-0.19677
-0.196013
-0.195799
-0.196353
-0.198832
-0.204242
-0.211382
-0.228762
-0.231946
-0.222408
-0.226351
-0.195769
-0.163639
-0.108099
-0.048193
-0.00908463
0.0175739
0.0246253
0.0251176
0.0413507
0.0247481
0.0316479
0.0175658
0.00308429
-0.0115955
-0.0245696
-0.0366134
-0.0472415
-0.0552464
-0.061877
-0.0671964
-0.071279
-0.0741627
-0.0765284
-0.209703
-0.208385
-0.20852
-0.208515
-0.20851
-0.208044
-0.207624
-0.208145
-0.209024
-0.21042
-0.213401
-0.222955
-0.235008
-0.252809
-0.255201
-0.269691
-0.263127
-0.247087
-0.201656
-0.10791
-0.00690623
0.0552391
0.0747854
0.0814988
0.0805881
0.0780972
0.0536186
0.0460514
0.0270666
0.00862359
-0.00981405
-0.0265483
-0.0408577
-0.0532305
-0.0623548
-0.069461
-0.0750507
-0.0795207
-0.082623
-0.0837386
-0.217158
-0.21904
-0.219101
-0.219245
-0.219833
-0.221063
-0.223323
-0.22661
-0.230567
-0.236765
-0.242162
-0.255008
-0.269311
-0.278997
-0.307689
-0.333679
-0.35705
-0.358268
-0.315394
-0.167318
0.0600101
0.137603
0.123849
0.10832
0.0908059
0.0736483
0.0579797
0.0297629
0.00859503
-0.00852871
-0.0274464
-0.0435267
-0.05653
-0.068075
-0.0767354
-0.0828848
-0.0874858
-0.0902882
-0.0923042
-0.0939731
-0.226093
-0.227391
-0.228665
-0.230508
-0.232992
-0.2367
-0.242421
-0.250251
-0.258339
-0.269731
-0.282392
-0.296156
-0.310755
-0.320996
-0.358915
-0.385778
-0.430604
-0.483195
-0.526747
-0.00735058
0.0722831
0.0688082
0.035946
0.0222794
-0.0206433
-0.0393553
-0.0546015
-0.0659619
-0.0753497
-0.0837718
-0.0915686
-0.0973676
-0.101025
-0.103768
-0.105421
-0.10655
-0.107741
-0.238114
-0.236119
-0.236283
-0.239091
-0.244112
-0.2506
-0.259395
-0.271648
-0.28473
-0.297981
-0.316142
-0.331818
-0.337177
-0.347082
-0.392689
-0.423206
-0.478109
-0.540577
-0.589004
0.122983
0.0469627
0.00580587
-0.0402618
-0.0709624
-0.094687
-0.111174
-0.117176
-0.115942
-0.116849
-0.118708
-0.12117
-0.123878
-0.126016
-0.127126
-0.126518
-0.122642
-0.119352
-0.240658
-0.242627
-0.244182
-0.246847
-0.25169
-0.258654
-0.26812
-0.283273
-0.29953
-0.313088
-0.330713
-0.34631
-0.352062
-0.354744
-0.366898
-0.374855
-0.434183
-0.567601
-0.647362
0.113035
-0.018281
-0.110674
-0.163812
-0.197285
-0.191047
-0.184181
-0.179248
-0.166168
-0.15954
-0.154989
-0.153187
-0.152883
-0.15281
-0.152231
-0.149937
-0.146207
-0.138677
-0.230984
-0.234502
-0.239131
-0.243992
-0.250519
-0.256782
-0.267651
-0.284067
-0.291545
-0.297382
-0.319475
-0.310866
-0.288879
-0.277423
-0.250131
-0.228784
-0.24167
-0.272278
-0.179082
-0.651075
-0.241234
-0.208746
0.114697
-0.307497
-0.319088
-0.292603
-0.263204
-0.249607
-0.23486
-0.215229
-0.195134
-0.19001
-0.187328
-0.182833
-0.181655
-0.181274
-0.180124
-0.179383
-0.179917
-0.18467
-0.223899
-0.223183
-0.227088
-0.233246
-0.240186
-0.248336
-0.258053
-0.266919
-0.270229
-0.269201
-0.264201
-0.257709
-0.239311
-0.231759
-0.145277
-0.0555541
0.0967582
0.181194
-0.465031
-0.0441644
1.30625
-0.500553
-1.18332
-0.716375
-0.532586
-0.397769
-0.326011
-0.307734
-0.252649
-0.22624
-0.21292
-0.20948
-0.209012
-0.208225
-0.206223
-0.207142
-0.208888
-0.211596
-0.215795
-0.228432
-0.220794
-0.225068
-0.22646
-0.227914
-0.230929
-0.236328
-0.239811
-0.24336
-0.243522
-0.234418
-0.211748
-0.193018
-0.218962
-0.164641
-0.0820677
0.149638
0.492676
0.340058
-0.856331
-1.00607
-1.26076
-1.16078
-1.3239
-0.691855
-0.55594
-0.434677
-0.40507
-0.317023
-0.24689
-0.232425
-0.238106
-0.235157
-0.22797
-0.223288
-0.218671
-0.216875
-0.218988
-0.223433
-0.227729
-0.221544
-0.214962
-0.215617
-0.216765
-0.217284
-0.216806
-0.216764
-0.208409
-0.198993
-0.193281
-0.181254
-0.164723
-0.125586
-0.0938454
-0.160054
-0.0789845
-0.0646399
0.0737438
0.814172
-0.306008
-2.74984
-2.33956
-1.94987
0.171653
-0.130474
-0.720654
-0.58896
-0.418452
-0.289093
-0.269115
-0.252969
-0.248798
-0.23794
-0.228995
-0.225866
-0.225563
-0.220455
-0.215953
-0.214006
-0.212972
-0.206631
-0.194586
-0.19458
-0.193559
-0.193231
-0.191416
-0.187598
-0.182761
-0.166737
-0.15085
-0.135178
-0.120338
-0.0957842
-0.0399037
-0.0516775
-0.0844232
-0.196863
-0.579647
-1.39201
-0.342897
-0.556897
-0.282754
0.236615
-0.13523
-1.60274
-0.705975
-0.493498
-0.334573
-0.267059
-0.25831
-0.248293
-0.233554
-0.223442
-0.229119
-0.231059
-0.228339
-0.223551
-0.217946
-0.212859
-0.209288
-0.211037
-0.167233
-0.16739
-0.16596
-0.165738
-0.16493
-0.161109
-0.157056
-0.158269
-0.15146
-0.141314
-0.126019
-0.143274
-0.0477141
-0.126772
-0.136931
-0.219119
-0.432178
-1.6621
-2.75227
-1.85926
-1.27541
-1.42153
-1.77357
-0.411076
-0.0800724
-0.207391
-0.214452
-0.222767
-0.242989
-0.223776
-0.226317
-0.230266
-0.231285
-0.223681
-0.222228
-0.220236
-0.217652
-0.214649
-0.212926
-0.214218
-0.15351
-0.152589
-0.151754
-0.150866
-0.149243
-0.147068
-0.14443
-0.145658
-0.149263
-0.152243
-0.151505
-0.155105
-0.139805
-0.163803
-0.110218
-0.25942
-0.249711
0.338863
-0.0113097
-0.760479
-0.64581
0.201826
1.2347
0.978828
0.0592436
0.0628182
-0.109645
-0.146968
-0.180542
-0.178583
-0.199645
-0.208076
-0.208244
-0.2083
-0.208733
-0.208805
-0.210103
-0.210095
-0.209614
-0.209098
-0.14904
-0.149062
-0.14901
-0.148759
-0.147916
-0.14847
-0.149215
-0.152135
-0.164923
-0.178364
-0.206461
-0.228313
-0.260427
-0.188842
-0.294144
-0.682294
-0.954045
-1.14583
-0.998534
-0.0714859
0.522956
0.324337
-0.0708697
0.261033
0.210926
0.165771
0.083767
-0.0367849
-0.126246
-0.157625
-0.177366
-0.188653
-0.192183
-0.195014
-0.197354
-0.199786
-0.201821
-0.202558
-0.201827
-0.199498
-0.144168
-0.142601
-0.141883
-0.142833
-0.146283
-0.155218
-0.165153
-0.176333
-0.192814
-0.210443
-0.235163
-0.297413
-0.347078
-0.349047
-0.282855
-0.0802489
-0.263512
-0.55888
-1.41777
-1.1727
-0.766959
-0.260389
0.988863
1.12242
1.00018
0.439735
0.0142465
-0.0815677
-0.135934
-0.1527
-0.176884
-0.190424
-0.195937
-0.198016
-0.195724
-0.195733
-0.195287
-0.195075
-0.195739
-0.196586
-0.128156
-0.128944
-0.132185
-0.136386
-0.142091
-0.153888
-0.16626
-0.184898
-0.204086
-0.232424
-0.257729
-0.306963
-0.353745
-0.350428
-0.820822
-0.578731
-0.149367
0.803201
1.64887
1.95845
2.0306
2.42226
1.94552
0.981413
0.0846815
-0.299308
-0.0947912
-0.138321
-0.146613
-0.174006
-0.193302
-0.202434
-0.20436
-0.200758
-0.198213
-0.197624
-0.197112
-0.196171
-0.195054
-0.196292
-0.116351
-0.119812
-0.122692
-0.126298
-0.132027
-0.142347
-0.153569
-0.168291
-0.186705
-0.217209
-0.23896
-0.267465
-0.295941
-0.125881
0.0997077
-0.0192613
-0.437288
-0.181252
0.0286331
0.419253
0.655914
0.210844
-0.0766091
-0.190612
0.149164
0.325251
0.046811
-0.16415
-0.177582
-0.2046
-0.208421
-0.209566
-0.206466
-0.204805
-0.2038
-0.202601
-0.204114
-0.20532
-0.205947
-0.203351
-0.102643
-0.103856
-0.107231
-0.112828
-0.119515
-0.127972
-0.13895
-0.14813
-0.158212
-0.168201
-0.17525
-0.240789
-0.196393
-0.284825
-0.151017
0.34824
0.763006
0.903788
0.310897
0.1954
0.0287838
-0.0848967
0.412101
0.486077
0.341972
-0.106276
-0.298785
-0.218354
-0.268483
-0.229614
-0.224706
-0.225761
-0.220983
-0.218201
-0.21354
-0.208591
-0.206138
-0.203169
-0.201014
-0.201458
-0.0896831
-0.0885101
-0.0902298
-0.0927932
-0.0956128
-0.100408
-0.106552
-0.107749
-0.112091
-0.114466
-0.100723
-0.103767
-0.0342247
0.0669553
-0.0397261
-0.108852
0.688161
1.35536
2.17913
2.17295
1.88383
2.04754
0.484321
0.2667
-0.681708
-0.614259
-0.344256
-0.282827
-0.291238
-0.243752
-0.239165
-0.240684
-0.228217
-0.222149
-0.212994
-0.206239
-0.201644
-0.198485
-0.196813
-0.196915
-0.079514
-0.0789918
-0.076896
-0.0744609
-0.072021
-0.0697797
-0.0668957
-0.0632637
-0.055477
-0.0449898
-0.0132424
0.0788499
0.198004
0.383587
0.804766
0.822486
0.570985
0.447817
0.497711
0.570504
0.10204
-0.247517
-0.557747
-0.553578
-0.32599
-0.0877221
-0.17797
-0.218534
-0.258076
-0.275998
-0.261009
-0.24707
-0.233378
-0.223362
-0.21534
-0.210041
-0.206319
-0.204181
-0.203122
-0.203146
-0.0614615
-0.0610225
-0.0605905
-0.0588513
-0.0537802
-0.0483233
-0.0395897
-0.0288284
-0.00982238
0.00930437
0.0572667
0.155488
0.284421
0.478784
0.519967
0.646867
0.697286
0.591702
0.487922
0.133382
-0.456775
-0.465035
-0.43984
-0.367438
-0.294521
-0.336534
-0.294374
-0.302923
-0.322336
-0.306224
-0.27685
-0.264261
-0.247707
-0.236573
-0.226492
-0.218881
-0.213878
-0.210211
-0.207983
-0.204225
-0.0446145
-0.043141
-0.0412199
-0.037911
-0.0317695
-0.0223315
-0.00685166
0.00431319
0.0315009
0.0647336
0.107594
0.174141
0.228859
0.38347
0.690035
0.961297
1.11636
1.01949
0.771702
0.516325
0.383239
0.264211
0.107616
0.0288054
-0.0933774
-0.365035
-0.495191
-0.446992
-0.367401
-0.291406
-0.270969
-0.262041
-0.248271
-0.236828
-0.226631
-0.219016
-0.212644
-0.206876
-0.202679
-0.202599
-0.0325966
-0.0322926
-0.0270346
-0.0198367
-0.0111509
0.000382708
0.0149916
0.0347711
0.0649776
0.105001
0.172057
0.271494
0.375486
0.404267
0.422072
0.473274
0.585451
0.527453
0.575763
0.429411
-0.0091698
-0.198468
-0.461598
-0.645083
-0.752492
-0.649278
-0.448104
-0.319363
-0.304686
-0.264478
-0.252244
-0.241059
-0.228708
-0.218411
-0.211198
-0.206229
-0.202544
-0.200854
-0.200481
-0.199508
-0.0247399
-0.0209722
-0.0193993
-0.0153595
-0.00790683
0.00377383
0.0205974
0.042529
0.0678254
0.099549
0.164468
0.258964
0.427159
0.644805
0.716985
0.60825
0.345138
0.274235
-0.0545405
-0.202738
-0.921066
-0.84237
-0.864862
-0.767511
-0.479087
-0.267061
-0.208786
-0.272541
-0.305545
-0.266915
-0.246201
-0.225512
-0.213218
-0.210231
-0.206002
-0.202519
-0.199264
-0.195792
-0.19205
-0.193074
-0.0227582
-0.0243146
-0.020389
-0.0149207
-0.00774066
0.00251458
0.017255
0.0372666
0.0636073
0.091693
0.123383
0.169973
0.193081
0.316128
0.666781
0.960079
1.03865
0.928734
0.544753
0.370041
-0.0767454
-0.0198701
0.00874674
-0.0124226
-0.0750295
-0.300754
-0.451476
-0.400617
-0.286539
-0.249575
-0.21588
-0.204133
-0.20278
-0.200647
-0.197195
-0.194015
-0.190657
-0.18831
-0.187249
-0.184568
-0.0224406
-0.0208877
-0.0189065
-0.01523
-0.0098813
-0.000870862
0.011714
0.027364
0.0452866
0.0689337
0.114546
0.189798
0.286434
0.292078
0.267053
0.362219
0.528112
0.549064
0.76391
0.684452
0.287687
0.0836985
-0.238765
-0.331573
-0.434969
-0.365253
-0.197184
-0.136367
-0.170247
-0.184604
-0.181811
-0.17993
-0.17854
-0.179953
-0.178389
-0.178224
-0.177111
-0.17747
-0.177549
-0.177729
-0.0177691
-0.0190546
-0.0179444
-0.0160209
-0.0131412
-0.00825601
-0.00137456
0.00792992
0.0220389
0.0437408
0.0675524
0.0965973
0.141287
0.226198
0.270783
0.235804
0.197954
0.184135
-0.0753738
-0.182026
-0.403126
-0.528233
-0.356499
-0.335224
-0.314281
-0.160079
-0.165458
-0.151139
-0.136503
-0.129633
-0.140035
-0.147899
-0.153106
-0.158691
-0.161404
-0.163219
-0.16413
-0.163997
-0.16398
-0.161661
-0.0221399
-0.0206653
-0.0218062
-0.0230635
-0.0238724
-0.0239502
-0.0231071
-0.020144
-0.0178266
-0.0196366
-0.0154563
-0.011033
0.0446264
0.155735
0.31585
0.42992
0.478462
0.535412
0.313724
0.0682897
-0.202221
-0.00337406
0.0713478
0.0180918
0.0202268
-0.014717
-0.0413047
-0.0561943
-0.0946704
-0.120377
-0.12291
-0.130796
-0.137899
-0.144122
-0.147359
-0.149957
-0.150893
-0.150179
-0.149291
-0.151427
-0.0286554
-0.0301649
-0.0283171
-0.0276112
-0.0281688
-0.0306604
-0.0328203
-0.0338162
-0.0302748
-0.0284192
-0.0362075
-0.0849451
-0.106566
-0.0546026
0.0823707
0.266431
0.394953
0.467296
0.516769
0.768021
0.415019
0.32123
0.218448
0.21352
0.182601
0.111406
0.0133942
-0.0767479
-0.0476674
-0.065963
-0.0685167
-0.0966557
-0.113491
-0.122152
-0.128902
-0.133396
-0.137712
-0.142139
-0.146899
-0.146539
-0.0248463
-0.0250937
-0.0270323
-0.0294098
-0.0330419
-0.0332968
-0.0387507
-0.0476107
-0.0482374
-0.054639
-0.0597662
-0.0468459
-0.0629426
-0.131665
-0.195636
-0.13571
-0.0857926
0.107109
0.255023
0.327583
0.24214
0.332325
0.275902
0.197627
0.0472918
0.037334
0.0737012
0.112057
0.0819589
0.0131821
-0.0613535
-0.0871508
-0.101881
-0.111775
-0.122853
-0.125346
-0.128716
-0.130268
-0.130475
-0.131563
-0.0234672
-0.0192975
-0.0218714
-0.0254708
-0.0306079
-0.0363699
-0.0447771
-0.0540225
-0.0678623
-0.0848339
-0.126612
-0.16315
-0.112834
-0.00879295
0.078453
0.0591992
0.0653138
0.214168
0.0413302
0.178484
0.330143
0.292865
0.656317
0.578282
0.594788
0.544239
0.375295
0.186524
0.043238
-0.0182237
-0.0650057
-0.0801578
-0.0946536
-0.105168
-0.112589
-0.116266
-0.11762
-0.119144
-0.119457
-0.122451
-0.0231516
-0.0251327
-0.0250937
-0.0260577
-0.0286263
-0.0338397
-0.0409016
-0.0528093
-0.0649812
-0.0820332
-0.114485
-0.147366
-0.187916
-0.191966
-0.0801168
0.0266738
0.204285
0.306711
0.489794
0.59773
0.757786
0.88412
0.886304
0.88517
0.73608
0.55527
0.265233
0.123247
0.0472606
-2.75556e-05
-0.043078
-0.0678054
-0.088676
-0.101178
-0.108633
-0.113386
-0.117699
-0.120194
-0.122424
-0.119033
-0.0187711
-0.0174232
-0.0184938
-0.0197133
-0.0221952
-0.0269129
-0.032712
-0.0385517
-0.0460295
-0.0542731
-0.0534388
-0.0564254
-0.0844662
-0.166299
-0.280012
-0.309268
-0.270975
-0.122968
0.0200066
0.24948
0.419102
0.481934
0.542797
0.48646
0.384702
0.284633
0.234134
0.163251
0.0880228
0.020292
-0.0263803
-0.0685652
-0.0921123
-0.103111
-0.10799
-0.110338
-0.111942
-0.112551
-0.112156
-0.113626
-0.00455726
-0.00430053
-0.00566407
-0.00822947
-0.0102691
-0.0115561
-0.0148742
-0.0189908
-0.0262249
-0.027318
-0.0176133
-0.0135717
-0.0456263
-0.0748423
-0.117868
-0.177048
-0.158414
-0.198605
0.0420764
0.166929
-0.059595
0.267379
0.375052
0.449959
0.383364
0.327658
0.239886
0.122403
0.0348185
-0.0231067
-0.0645779
-0.093572
-0.0993736
-0.0999688
-0.102825
-0.103419
-0.103339
-0.102592
-0.101844
-0.102446
0.000666289
0.00192928
0.00280649
0.00398374
0.00536898
0.0099419
0.01094
0.0124657
0.0171008
0.0198873
0.0388246
0.092821
0.141494
0.184455
0.187388
0.164986
0.12457
0.121746
0.134856
0.272412
0.396926
0.339073
0.426621
0.444539
0.426736
0.323173
0.197075
0.0546005
-0.0455921
-0.0846404
-0.0884621
-0.0957631
-0.0993245
-0.10132
-0.102337
-0.101376
-0.100476
-0.100237
-0.10026
-0.100297
0.0069729
0.00374503
0.00776264
0.0124199
0.0178531
0.0243503
0.0327962
0.0503662
0.0659381
0.106004
0.1519
0.18649
0.19059
0.206433
0.23526
0.278102
0.310458
0.346158
0.346226
0.249816
0.229719
0.245318
0.272159
0.179282
0.0407147
-0.0853796
-0.152307
-0.149758
-0.118766
-0.10694
-0.0916259
-0.0997493
-0.10384
-0.102641
-0.100547
-0.0994849
-0.099725
-0.09948
-0.100335
-0.0976826
0.0183881
0.0211962
0.0207667
0.0215471
0.0260716
0.0342892
0.046489
0.0658542
0.0887953
0.151701
0.237597
0.335241
0.423515
0.458059
0.472199
0.482832
0.473798
0.450914
0.353188
0.336002
-0.030283
-0.120336
-0.0479367
-0.155484
-0.218494
-0.250048
-0.185121
-0.150107
-0.130854
-0.140502
-0.139162
-0.12537
-0.111254
-0.10296
-0.0973326
-0.0941651
-0.0916499
-0.0878156
-0.0846689
-0.0874134
0.0192396
0.0188768
0.0223907
0.0275716
0.0347373
0.0454224
0.0643609
0.0875839
0.113954
0.164763
0.23694
0.353239
0.540084
0.730934
0.826448
0.852243
0.842716
0.755612
0.562078
0.439989
0.0661912
-0.0645651
-0.149371
-0.229728
-0.264736
-0.244382
-0.232017
-0.257638
-0.269257
-0.2111
-0.161902
-0.12862
-0.110189
-0.0956217
-0.0893098
-0.0845333
-0.0821425
-0.0814749
-0.0821946
-0.0825404
0.0168534
0.0154586
0.0172801
0.0217437
0.0296419
0.0410972
0.0581219
0.0813758
0.122435
0.19079
0.289509
0.379058
0.475573
0.617274
0.751274
0.856856
0.871467
0.768145
0.62086
0.364929
0.0753778
-0.20442
-0.425158
-0.515239
-0.537989
-0.522652
-0.459853
-0.36393
-0.251405
-0.180479
-0.139992
-0.115824
-0.10437
-0.0916235
-0.0835252
-0.0796114
-0.0779682
-0.0784021
-0.0782735
-0.0775919
0.0191485
0.019496
0.0203658
0.0223483
0.0268896
0.0352532
0.0502008
0.0668676
0.103828
0.162913
0.225006
0.328648
0.433678
0.519775
0.598033
0.670981
0.680109
0.607328
0.343021
-0.0116052
-0.297842
-0.527798
-0.599389
-0.702044
-0.68266
-0.613309
-0.486171
-0.340655
-0.245076
-0.183404
-0.128354
-0.0992695
-0.0880315
-0.0784504
-0.0711595
-0.067581
-0.0654751
-0.0651102
-0.0649789
-0.064485
0.0164346
0.0180079
0.0182431
0.0192663
0.0216029
0.0259082
0.0317119
0.043425
0.0632804
0.0984437
0.160946
0.236212
0.351895
0.477582
0.581223
0.633224
0.567139
0.462877
0.257042
-0.00337411
-0.219017
-0.450919
-0.498328
-0.514107
-0.440976
-0.353913
-0.275328
-0.212768
-0.14657
-0.0987136
-0.0891711
-0.0704826
-0.0616719
-0.0544604
-0.0523118
-0.0516056
-0.0509035
-0.0511539
-0.050287
-0.0529471
0.00667677
0.00585374
0.00705618
0.00848462
0.00939828
0.0102269
0.0116394
0.0166372
0.02322
0.0320262
0.0394428
0.0700314
0.139669
0.223531
0.292983
0.369216
0.397178
0.376566
0.324977
0.247803
0.0823095
-0.0938195
-0.218827
-0.230908
-0.185674
-0.124629
-0.0710055
-0.0404075
-0.0345667
-0.0295509
-0.0206211
-0.0126734
-0.0188434
-0.0239926
-0.0290022
-0.0333518
-0.0376177
-0.0425766
-0.0463354
-0.0469708
0.00232734
0.000498037
-0.0012223
-0.00318515
-0.00593938
-0.0104262
-0.0160976
-0.0216423
-0.0278811
-0.0356241
-0.051975
-0.0822087
-0.123421
-0.120512
-0.0710265
0.00913424
0.111671
0.164928
0.170999
0.141554
0.0739642
0.106453
0.127646
0.123386
0.108245
0.103038
0.0883769
0.0863869
0.0977713
0.0971729
0.0633485
0.0309279
0.00696282
-0.0068632
-0.0160172
-0.0250555
-0.0296771
-0.0328244
-0.0348849
-0.0348003
0.0010692
0.00268596
-0.00089365
-0.00495297
-0.0120408
-0.0215352
-0.0354535
-0.0564499
-0.0794987
-0.119556
-0.16276
-0.191703
-0.215936
-0.257498
-0.281756
-0.253969
-0.246684
-0.133888
-0.0369808
0.0723939
0.341781
0.409355
0.457301
0.483663
0.504041
0.490511
0.449026
0.376625
0.28604
0.186048
0.105052
0.0613152
0.0339119
0.0125145
-0.00154177
-0.0110724
-0.0167526
-0.0190807
-0.0200566
-0.023605
-0.00305024
-0.00523501
-0.00583829
-0.00854876
-0.0151783
-0.0260076
-0.0426917
-0.0651048
-0.102107
-0.160504
-0.240345
-0.32274
-0.378347
-0.434092
-0.483119
-0.501819
-0.477038
-0.341385
-0.122072
0.12702
0.446518
0.672513
0.820739
0.872119
0.862632
0.788549
0.656792
0.503677
0.339401
0.226593
0.15289
0.0994697
0.0551281
0.0267334
0.00775871
-0.00480098
-0.0140208
-0.0211677
-0.0255457
-0.0225284
-0.00371603
-0.00363252
-0.00568016
-0.00928713
-0.0163455
-0.0277403
-0.0464596
-0.0673528
-0.102937
-0.15851
-0.233225
-0.345448
-0.499169
-0.64125
-0.757177
-0.798501
-0.75874
-0.620501
-0.344579
0.0110598
0.397044
0.72384
0.908691
0.972661
0.911569
0.763236
0.615194
0.467824
0.364729
0.262928
0.1674
0.0988537
0.0491949
0.0214378
0.000891034
-0.0101027
-0.0169849
-0.0210934
-0.0224425
-0.0231075
0.00692384
0.00586026
0.0037742
2.58355e-05
-0.00611106
-0.0162642
-0.0318692
-0.0519392
-0.0829227
-0.131408
-0.201775
-0.295271
-0.410567
-0.543446
-0.652611
-0.724379
-0.671019
-0.596133
-0.387103
-0.0651584
0.258829
0.644135
0.852728
0.909017
0.844803
0.730506
0.590335
0.450037
0.322652
0.211244
0.129011
0.0695321
0.0308701
0.00930189
-0.00436388
-0.011081
-0.0153069
-0.0174846
-0.0187862
-0.0188036
0.0135147
0.0151392
0.0144948
0.0131839
0.0124986
0.00918901
0.00329803
-0.00759033
-0.0223118
-0.0425551
-0.0773596
-0.106935
-0.162477
-0.229359
-0.31627
-0.393745
-0.387004
-0.325631
-0.160546
0.185515
0.421207
0.616804
0.715953
0.710833
0.675987
0.583055
0.479453
0.348724
0.221243
0.123294
0.0632428
0.0277088
0.00676542
-0.00507835
-0.0142373
-0.0186943
-0.0213551
-0.0228349
-0.0233582
-0.0250574
0.0192887
0.0189636
0.0228117
0.0268984
0.0312199
0.0358143
0.0423702
0.0516498
0.0528781
0.065332
0.0674001
0.0571855
0.0390167
0.0236403
0.00774878
0.00301301
0.0569154
0.0950741
0.166713
0.252969
0.331241
0.503994
0.557149
0.463904
0.381505
0.252234
0.148808
0.0636248
0.00901894
-0.00889643
-0.0135386
-0.024536
-0.0260201
-0.0292164
-0.0333752
-0.0336546
-0.0339768
-0.0354036
-0.0365064
-0.0346973
0.0328656
0.0345159
0.0356401
0.0382122
0.0440109
0.0535989
0.0667898
0.0896903
0.124466
0.173188
0.231414
0.2812
0.31186
0.365689
0.40499
0.429333
0.45514
0.449732
0.446788
0.384364
0.306104
0.147725
0.0465893
0.0777159
-0.0247557
-0.0947387
-0.138583
-0.149315
-0.131926
-0.108291
-0.0995395
-0.086292
-0.0730114
-0.0613256
-0.0536318
-0.0485191
-0.0447583
-0.0405239
-0.037055
-0.0369372
0.0389319
0.0413859
0.0445691
0.0504174
0.0595911
0.0760951
0.0977655
0.128441
0.183918
0.246962
0.355214
0.481968
0.621052
0.747001
0.834812
0.852168
0.869668
0.78204
0.688269
0.394406
0.160118
-0.0941099
-0.289497
-0.393413
-0.422721
-0.424414
-0.376346
-0.312263
-0.269751
-0.22889
-0.178963
-0.132007
-0.100896
-0.0748741
-0.0608104
-0.0515209
-0.0451032
-0.0416023
-0.0396269
-0.0405516
0.0371836
0.0353995
0.0398333
0.0486105
0.0621356
0.0817038
0.110615
0.151926
0.213166
0.300706
0.419275
0.551579
0.716245
0.887828
1.02379
1.09838
1.07276
0.992281
0.738219
0.401346
0.00628495
-0.421976
-0.678061
-0.798493
-0.803798
-0.737305
-0.630155
-0.508543
-0.392039
-0.282598
-0.197164
-0.142201
-0.107923
-0.080672
-0.0649458
-0.0552301
-0.0493692
-0.0467365
-0.0459899
-0.0448094
0.0333014
0.0351675
0.0381389
0.0449291
0.0557438
0.0728296
0.09976
0.143344
0.198177
0.280808
0.394047
0.529035
0.673159
0.833814
0.986481
1.09206
1.10539
0.922822
0.606648
0.161385
-0.249917
-0.642641
-0.857101
-0.94472
-0.95883
-0.873972
-0.739947
-0.579607
-0.415243
-0.291584
-0.207721
-0.142591
-0.102915
-0.0781885
-0.0633575
-0.0529997
-0.0468492
-0.0442247
-0.0430511
-0.0435778
0.0283753
0.0303878
0.0325796
0.0367769
0.0441587
0.0563404
0.0743248
0.104635
0.154527
0.222354
0.31094
0.437046
0.579572
0.714457
0.830522
0.878486
0.856293
0.675712
0.447122
0.0682279
-0.262588
-0.592452
-0.785838
-0.852773
-0.80742
-0.681791
-0.545049
-0.415009
-0.303295
-0.205995
-0.144149
-0.102813
-0.0779105
-0.061283
-0.0498042
-0.0428781
-0.0383501
-0.0362823
-0.034348
-0.0352012
0.012238
0.0136639
0.0146308
0.0175748
0.0220025
0.0291718
0.0403621
0.0561457
0.0765347
0.112662
0.161916
0.240327
0.329228
0.408901
0.485923
0.543423
0.549363
0.460075
0.319911
0.0745341
-0.150562
-0.331818
-0.42533
-0.476801
-0.465345
-0.385101
-0.283551
-0.188531
-0.114756
-0.0714761
-0.052299
-0.0369333
-0.0266838
-0.0241936
-0.0232471
-0.0248212
-0.027147
-0.0295866
-0.0311966
-0.0318449
-0.00592101
-0.00916168
-0.00911883
-0.00869173
-0.0085523
-0.00914469
-0.01035
-0.00980279
-0.0129797
-0.0146772
-0.025891
-0.0113827
0.0089372
0.04304
0.0927
0.136549
0.166855
0.119414
0.0716476
0.0379286
-0.0161574
-0.0519493
-0.0447352
-0.0101056
0.00128461
0.0136347
0.0321462
0.0383412
0.0494906
0.055938
0.0515685
0.0367146
0.0199902
0.00423941
-0.0040002
-0.0122096
-0.0190172
-0.0241204
-0.027871
-0.0267405
-0.0181502
-0.018747
-0.0227556
-0.0279461
-0.0348083
-0.0436708
-0.0569816
-0.0756942
-0.100965
-0.13519
-0.17585
-0.215333
-0.2703
-0.322203
-0.35016
-0.359867
-0.321517
-0.268587
-0.168333
0.0705095
0.211225
0.293073
0.384038
0.4429
0.449032
0.442413
0.397596
0.338029
0.27964
0.209923
0.144642
0.0967083
0.0513769
0.0264615
0.00879418
-0.0026806
-0.00974317
-0.0132049
-0.0146547
-0.0173751
-0.0303582
-0.0307571
-0.0330548
-0.0381875
-0.0472062
-0.0614124
-0.0818546
-0.115179
-0.161633
-0.226821
-0.304748
-0.400115
-0.501989
-0.610811
-0.708311
-0.765103
-0.734973
-0.582955
-0.350791
-0.0165708
0.305416
0.588194
0.764105
0.853214
0.842056
0.795126
0.698047
0.571425
0.436339
0.309276
0.20958
0.136961
0.0833901
0.0482008
0.0237117
0.00647899
-0.00526532
-0.0134002
-0.018103
-0.0186149
-0.0416326
-0.0414094
-0.0435081
-0.0488171
-0.0582126
-0.0737269
-0.0965749
-0.133736
-0.19026
-0.267912
-0.372596
-0.513512
-0.676791
-0.831977
-0.951444
-1.0055
-0.960763
-0.790311
-0.506184
-0.0746008
0.343233
0.73962
0.980355
1.07787
1.06843
0.949937
0.787739
0.62012
0.458966
0.327728
0.229715
0.147343
0.0856879
0.0446378
0.0166995
-0.00169985
-0.0141518
-0.0217566
-0.0259433
-0.0260489
-0.0447536
-0.043548
-0.0459471
-0.0516204
-0.061358
-0.0773475
-0.0988802
-0.134902
-0.188948
-0.264147
-0.361918
-0.496092
-0.645677
-0.777448
-0.879307
-0.930074
-0.913541
-0.756463
-0.456543
-0.0856332
0.335471
0.692178
0.927427
1.03892
1.02096
0.909451
0.743396
0.567414
0.402189
0.274874
0.181081
0.105298
0.053566
0.0190314
-0.00242688
-0.0152339
-0.0235571
-0.0288329
-0.0321687
-0.0340139
-0.0422516
-0.040524
-0.0427602
-0.0468641
-0.0534811
-0.0637974
-0.0791491
-0.102513
-0.135791
-0.181902
-0.237714
-0.313358
-0.419437
-0.529247
-0.618052
-0.662015
-0.63084
-0.458851
-0.203568
0.094821
0.406817
0.652481
0.77184
0.798653
0.739323
0.651934
0.539315
0.409346
0.280049
0.175465
0.0943278
0.0397334
0.00482968
-0.0178285
-0.0312074
-0.0386934
-0.0428555
-0.0442151
-0.044939
-0.0473196
-0.0406778
-0.0404868
-0.0392904
-0.0375434
-0.0366871
-0.0372382
-0.03952
-0.0440453
-0.0539366
-0.0698749
-0.0922324
-0.119308
-0.166444
-0.199832
-0.207547
-0.181398
-0.125641
-0.0354731
0.0846584
0.225185
0.376868
0.479578
0.548066
0.538004
0.450006
0.35422
0.245713
0.140204
0.0563577
0.0104775
-0.0240098
-0.0448408
-0.0519873
-0.0607581
-0.0658456
-0.0688018
-0.0706623
-0.0707778
-0.071232
-0.0697341
-0.0347145
-0.0349553
-0.0323906
-0.029091
-0.0245262
-0.0169148
-0.00757581
0.00261009
0.0267684
0.0454828
0.0645474
0.0984079
0.139786
0.195076
0.236865
0.310562
0.344447
0.402343
0.451955
0.423477
0.381227
0.271073
0.19227
0.112216
0.0390731
-0.0309541
-0.0800533
-0.115593
-0.144128
-0.142368
-0.136761
-0.127869
-0.117761
-0.111468
-0.106083
-0.10135
-0.0977583
-0.0946462
-0.0919447
-0.0879006
-0.0260876
-0.0245132
-0.0226884
-0.0188435
-0.0111357
0.000860362
0.0197655
0.0473922
0.0906492
0.150401
0.231103
0.327279
0.43884
0.551045
0.645641
0.72872
0.795086
0.754826
0.690308
0.508725
0.276758
0.0658742
-0.145766
-0.296176
-0.371052
-0.399405
-0.391538
-0.358675
-0.311118
-0.263751
-0.231856
-0.198165
-0.168183
-0.146884
-0.131047
-0.11958
-0.110379
-0.10333
-0.0985224
-0.0986511
-0.0283614
-0.0287117
-0.0245093
-0.0167529
-0.00435223
0.0133034
0.040004
0.0779074
0.13837
0.22007
0.321018
0.453598
0.607556
0.757709
0.886138
0.972085
1.05377
0.971436
0.823566
0.513809
0.155754
-0.196982
-0.472926
-0.653179
-0.701092
-0.697919
-0.637739
-0.541041
-0.437535
-0.351798
-0.280304
-0.226524
-0.187977
-0.15953
-0.139801
-0.126833
-0.118706
-0.114031
-0.11259
-0.112555
-0.0370741