/*--------------------------------*- C++ -*----------------------------------*\
| =========                 |                                                 |
| \\      /  F ield         | OpenFOAM: The Open Source CFD Toolbox           |
|  \\    /   O peration     | Version:  v2106                                 |
|   \\  /    A nd           | Website:  www.openfoam.com                      |
|    \\/     M anipulation  |                                                 |
\*---------------------------------------------------------------------------*/
FoamFile
{
    version     2.0;
    format      ascii;
    arch        "LSB;label=32;scalar=64";
    class       volVectorField;
    location    "0";
    object      U;
}
// * * * * * * * * * * * * * * * * * * * * * * * * * * * * * * * * * * * * * //

dimensions      [0 1 -1 0 0 0 0];

internalField   nonuniform List<vector> 
11644
(
(0.00843776 4.45097e-05 1.75551e-21)
(0.0084487 9.52026e-05 4.84117e-21)
(0.00845192 0.000160045 2.59741e-21)
(0.00844102 0.00021644 0)
(0.0084645 0.000291877 0)
(0.00848338 0.000347749 0)
(0.00848308 0.000380512 0)
(0.00845274 0.000389657 0)
(0.008455 0.000356641 0)
(0.00851341 0.000281415 0)
(0.00859217 0.000125111 0)
(0.00865138 -0.000127347 0)
(0.00856262 -0.000469353 0)
(0.0090827 -0.000862604 0)
(0.00902487 -0.00126652 0)
(0.00866032 -0.00144013 0)
(0.00895117 -0.00173189 0)
(0.00901806 -0.00199162 0)
(0.00857153 -0.00200241 0)
(0.00823716 -0.00156786 2.18491e-30)
(0.00824156 -0.000922442 -2.17987e-30)
(0.00842626 -0.000360675 0)
(0.00877625 -0.000210994 0)
(0.00892537 -0.000335791 0)
(0.00870879 -0.000371444 0)
(0.00882249 -0.000278092 0)
(0.00901858 -0.000450864 0)
(0.00863241 -0.000629618 0)
(0.00860847 -0.000735532 0)
(0.0085465 -0.000804852 0)
(0.00844737 -0.000790476 0)
(0.00840055 -0.000745158 0)
(0.00840803 -0.000679789 0)
(0.0084117 -0.000598836 0)
(0.00839649 -0.000506399 0)
(0.00838513 -0.000389897 0)
(0.00838283 -0.000281353 0)
(0.00836844 -0.000198521 0)
(0.00837623 -0.000131368 0)
(0.0083966 -5.80854e-05 3.40375e-22)
(0.00838564 6.98493e-06 2.25494e-21)
(0.00835245 0.000108289 2.0888e-21)
(0.00830279 0.000164974 1.12183e-21)
(0.00823137 0.000241837 0)
(0.00822838 0.000364582 0)
(0.00822531 0.000525704 0)
(0.00822248 0.000686799 0)
(0.0082223 0.000796949 0)
(0.00820858 0.000803389 0)
(0.00813873 0.000661966 0)
(0.00814551 0.000402867 0)
(0.0082101 -7.39204e-05 0)
(0.00846262 -0.000643514 0)
(0.00817508 -0.0015119 0)
(0.00838729 -0.00224675 0)
(0.00916917 -0.00295515 -1.60161e-23)
(0.00937051 -0.0033905 3.22858e-22)
(0.00922206 -0.0033671 -1.67155e-21)
(0.00926218 -0.00294116 -7.8317e-22)
(0.00901138 -0.00232148 -8.94669e-21)
(0.00874546 -0.00154512 4.50477e-21)
(0.00856008 -0.00113327 9.38536e-21)
(0.00851401 -0.000935454 -2.50342e-21)
(0.00863184 -0.000708385 -3.51458e-22)
(0.0085071 -0.000595209 8.14401e-23)
(0.00792248 -0.000855289 0)
(0.00747967 -0.00111924 0)
(0.00771166 -0.00139559 0)
(0.00768681 -0.00161824 0)
(0.0076961 -0.0016873 0)
(0.00780283 -0.00165308 0)
(0.00788847 -0.00154367 0)
(0.00793467 -0.0013669 0)
(0.00799005 -0.00116386 0)
(0.00806019 -0.00095765 0)
(0.00810449 -0.000767387 0)
(0.0081827 -0.00061593 0)
(0.00818195 -0.000460065 0)
(0.00820102 -0.000279414 0)
(0.00824154 -8.21446e-05 0)
(0.00853334 0.000107987 0)
(0.00845842 0.000144512 0)
(0.00835726 0.000332503 0)
(0.00827141 0.000496084 0)
(0.00821001 0.000613343 2.05984e-21)
(0.0080943 0.000745412 0)
(0.00793637 0.00090534 0)
(0.00775197 0.00105748 0)
(0.00760629 0.00116356 0)
(0.00753576 0.00117548 0)
(0.00754329 0.000941541 0)
(0.00783767 0.000530837 0)
(0.00807796 -0.000247398 6.45553e-23)
(0.00923868 -0.00121613 2.3849e-21)
(0.00992004 -0.00247562 3.6473e-21)
(0.00977687 -0.00361243 2.1183e-21)
(0.010179 -0.00429507 -5.49565e-21)
(0.0100717 -0.0041562 -1.33078e-21)
(0.00980205 -0.00322591 -2.53825e-21)
(0.00956479 -0.00237282 3.74758e-20)
(0.0092445 -0.00176097 -1.27531e-20)
(0.00885225 -0.0010934 6.8018e-21)
(0.00862295 -0.000606957 -3.15054e-20)
(0.008419 -0.000320817 3.20346e-20)
(0.00800191 -0.000401459 -2.70867e-20)
(0.00765943 -0.000906532 -1.4231e-21)
(0.00741156 -0.00141261 -2.50273e-21)
(0.00676983 -0.00194406 -2.19471e-23)
(0.00661361 -0.00220191 0)
(0.0066016 -0.00226907 0)
(0.00667981 -0.00215998 0)
(0.00685294 -0.0019387 0)
(0.00706628 -0.00168662 0)
(0.00732004 -0.00141737 0)
(0.00750558 -0.0011255 0)
(0.00769322 -0.00085396 0)
(0.0078198 -0.00056769 0)
(0.00792751 -0.00030346 0)
(0.00806206 -0.000116877 0)
(0.00819301 -3.29229e-05 0)
(0.00867727 -0.000161208 0)
(0.00861994 -1.69134e-05 0)
(0.0084868 0.000115851 0)
(0.00832847 0.000281041 0)
(0.00815383 0.000503513 0)
(0.00794195 0.000746159 0)
(0.00765075 0.00100438 0)
(0.0073333 0.00127921 0)
(0.00697683 0.00153115 0)
(0.00670429 0.00169692 0)
(0.00671574 0.00183042 2.14458e-22)
(0.00688275 0.0015912 -1.71296e-21)
(0.00765371 0.00129691 -2.35583e-20)
(0.00789627 0.000141786 4.18542e-20)
(0.00853618 -0.00157041 -2.25032e-20)
(0.0100238 -0.00301258 -1.21016e-20)
(0.0100209 -0.00362324 -2.13565e-20)
(0.0101967 -0.00322455 -2.09122e-20)
(0.0105803 -0.00291798 8.89707e-20)
(0.0105255 -0.00239053 -4.59318e-20)
(0.0101268 -0.000964728 -1.32595e-20)
(0.00963942 -0.000256162 3.30163e-21)
(0.00878035 0.000127486 -1.08597e-20)
(0.00798575 0.000276436 5.016e-20)
(0.00729215 1.81969e-05 -1.11389e-20)
(0.00600537 -0.000903009 2.06166e-20)
(0.00477449 -0.00158375 -4.97748e-20)
(0.00468896 -0.00207361 2.3691e-20)
(0.00460367 -0.00227284 4.33528e-21)
(0.00485971 -0.00229217 -2.59024e-22)
(0.00526482 -0.00215852 0)
(0.00567271 -0.0019128 0)
(0.00609914 -0.00157701 0)
(0.00655152 -0.00122369 0)
(0.006963 -0.000905435 0)
(0.00736769 -0.000670469 0)
(0.00770693 -0.000510574 0)
(0.00793944 -0.000386802 0)
(0.00809482 -0.000245718 0)
(0.00820279 -7.71773e-05 0)
(0.00890709 0.000151542 0)
(0.00883978 3.34465e-05 0)
(0.00874906 7.8103e-05 0)
(0.00855955 0.000185599 0)
(0.00830188 0.000313103 0)
(0.00794938 0.000530924 0)
(0.00751443 0.000829242 0)
(0.00701771 0.00123564 0)
(0.00653971 0.0017615 0)
(0.00615447 0.00242563 -1.77331e-22)
(0.00587664 0.00308495 3.92278e-21)
(0.00599939 0.00367555 -3.31851e-20)
(0.00596521 0.00321353 7.70545e-20)
(0.0074265 0.002404 -1.0878e-19)
(0.00912111 0.00082178 1.26313e-19)
(0.00887993 -0.00148962 2.95153e-20)
(0.00959539 -0.00183331 -1.25062e-19)
(0.0115906 -0.00119675 -1.77169e-19)
(0.0119694 -0.000863758 2.05166e-19)
(0.0121919 -0.000565362 1.0296e-20)
(0.0120336 0.000146146 -8.26952e-20)
(0.0114174 0.000726278 -2.24943e-19)
(0.0100489 0.00111675 2.72587e-19)
(0.00842912 0.00160923 3.24266e-20)
(0.00699739 0.00107058 6.146e-20)
(0.00616968 -0.000540232 -1.37277e-19)
(0.00530295 -0.00160379 1.28909e-19)
(0.00365801 -0.00200104 -7.16905e-20)
(0.00329314 -0.0020231 1.62022e-20)
(0.0033761 -0.00182414 -1.56351e-21)
(0.00397743 -0.00166692 -1.08514e-21)
(0.00471283 -0.00142094 0)
(0.00543508 -0.00110503 0)
(0.00617597 -0.000827141 0)
(0.00682189 -0.000603427 0)
(0.00734119 -0.000397372 0)
(0.00772326 -0.000190983 0)
(0.00796947 2.46747e-05 0)
(0.00814968 0.000236988 0)
(0.00825979 0.000136712 0)
(0.00918386 -0.000145459 0)
(0.0090997 2.08414e-05 0)
(0.00898718 0.000166498 0)
(0.00879941 0.000236221 0)
(0.00853612 0.000316353 0)
(0.00817719 0.000479141 0)
(0.00772684 0.000778411 0)
(0.00716378 0.00128048 0)
(0.00656257 0.00202317 -7.24946e-22)
(0.0057892 0.00304454 1.58797e-20)
(0.00492177 0.00405306 -1.9322e-20)
(0.00392631 0.00435537 3.96363e-20)
(0.00390772 0.00547084 -1.47056e-20)
(0.00364168 0.00568493 5.26307e-20)
(0.0046694 0.00377871 -1.58782e-19)
(0.00825193 0.00181903 1.22354e-19)
(0.00983035 0.00284128 -1.48464e-20)
(0.0111045 0.00383712 -1.86555e-20)
(0.0122832 0.00235896 3.18073e-20)
(0.0128954 0.00171005 -7.488e-20)
(0.0129623 0.00280143 9.10695e-20)
(0.0122156 0.0027813 -8.4853e-20)
(0.0105825 0.00195056 4.85819e-20)
(0.00905554 0.00192582 -4.5691e-20)
(0.00679793 0.00199543 -3.24417e-20)
(0.00485271 0.000473269 1.44371e-19)
(0.00327707 -0.00103962 -2.88686e-20)
(0.00322659 -0.00186939 -4.87424e-20)
(0.00295321 -0.00153532 -1.96719e-20)
(0.00294397 -0.00125874 1.68685e-21)
(0.00344867 -0.000909011 1.62483e-20)
(0.00442894 -0.000716711 -2.19755e-21)
(0.00540442 -0.000467971 0)
(0.00621144 -0.000171391 0)
(0.00687377 6.91156e-05 0)
(0.00740383 0.000219656 0)
(0.00782732 0.000252393 0)
(0.00817093 0.000153972 0)
(0.0084099 -0.000105273 0)
(0.00853062 -2.62083e-05 0)
(0.00956251 -0.000114018 0)
(0.00948183 -0.000392251 0)
(0.00933448 -0.000471971 0)
(0.00914527 -0.000457498 0)
(0.0089312 -0.000230507 0)
(0.00862038 5.5726e-05 0)
(0.00821488 0.000452918 0)
(0.00767159 0.00110908 1.3434e-22)
(0.00685378 0.00199662 -5.91941e-21)
(0.00551039 0.00292453 2.09892e-20)
(0.00387974 0.00402099 -3.03952e-20)
(0.00248799 0.00596023 4.64479e-20)
(0.00169577 0.0070258 -1.38497e-21)
(0.00222621 0.00810826 -8.39429e-20)
(0.00296954 0.0103887 1.2069e-19)
(0.00449038 0.00921808 -5.91151e-20)
(0.00929409 0.00553319 3.01411e-20)
(0.00943569 0.00599986 -8.60897e-20)
(0.00995145 0.00563083 1.64472e-19)
(0.0107683 0.00530661 1.5008e-19)
(0.0114773 0.00407485 5.71258e-20)
(0.0108858 0.00323639 -1.8409e-19)
(0.00983656 0.00313923 2.25388e-19)
(0.00926333 0.00374812 -1.64413e-19)
(0.00581213 0.00345877 9.74452e-20)
(0.00421927 0.00111677 -1.50162e-19)
(0.00593408 0.000175935 1.34071e-19)
(0.00404302 -0.000443405 -8.59008e-21)
(0.00441184 -0.000666217 -3.42292e-20)
(0.00445222 -0.000577184 -1.35905e-20)
(0.00461415 -0.00019905 1.91863e-20)
(0.00514597 8.72531e-05 -1.43179e-20)
(0.00607088 8.27452e-05 4.6349e-22)
(0.00689248 2.9489e-05 0)
(0.00748691 1.569e-05 0)
(0.00798823 -2.78952e-05 0)
(0.0083625 -6.11906e-05 0)
(0.00865173 -2.07925e-05 0)
(0.00885094 0.000313399 0)
(0.00895257 5.72276e-05 0)
(0.0100425 0.000241811 0)
(0.00988932 0.000194581 0)
(0.00974771 -5.50958e-05 0)
(0.00961396 -0.000137187 0)
(0.00949856 -0.000215354 0)
(0.00934578 -0.000107272 0)
(0.00904583 0.000262586 0)
(0.00854956 0.000803251 -2.7775e-21)
(0.0073941 0.00133526 7.45256e-21)
(0.00564753 0.00219545 1.44396e-21)
(0.0037459 0.0037147 -1.48102e-21)
(0.00195403 0.00557145 1.29574e-22)
(-0.000301432 0.00812785 -6.4682e-20)
(0.00199458 0.0102299 8.87722e-20)
(0.00111008 0.010637 -1.1155e-19)
(0.000424276 0.0117139 -1.21797e-19)
(0.00402654 0.0129847 -8.46456e-20)
(0.00732063 0.00895377 -5.24838e-20)
(0.00918681 0.00859858 -1.29095e-19)
(0.00962238 0.00768627 -3.46931e-19)
(0.00978754 0.00651594 -7.61974e-20)
(0.00923759 0.00632302 -3.25057e-19)
(0.00889891 0.00602591 -2.10563e-19)
(0.00954883 0.00562699 -1.29242e-19)
(0.00689205 0.00337474 1.04482e-20)
(0.00477585 0.00376164 -8.46401e-20)
(0.00539348 0.00444209 3.05801e-20)
(0.00625257 0.00213223 -9.79254e-21)
(0.00754426 0.00119151 -1.74498e-20)
(0.00760626 1.59625e-05 7.10183e-21)
(0.00762832 4.55138e-05 8.91085e-21)
(0.00752397 0.000293236 -5.17208e-21)
(0.00763388 0.000316845 -2.51599e-22)
(0.00810477 0.000101103 0)
(0.00845915 0.000159439 0)
(0.00871204 0.00040164 0)
(0.00893891 0.000589262 0)
(0.00910576 0.00054376 0)
(0.00926257 0.000150702 0)
(0.00936409 0.000227261 0)
(0.0104373 -0.000868204 0)
(0.0102758 -0.00120986 0)
(0.0100332 -0.000975751 0)
(0.00987994 -0.000793544 0)
(0.00988026 -0.000554493 0)
(0.00994373 -0.000257273 0)
(0.00993712 1.19946e-05 4.20982e-22)
(0.00952882 0.000392237 1.46111e-21)
(0.00824431 0.000774296 2.23412e-21)
(0.00661635 0.00176883 -7.8131e-21)
(0.00494473 0.00399203 3.09545e-21)
(0.00337944 0.00673998 4.95797e-21)
(0.00218448 0.0137402 -5.31798e-21)
(0.00398482 0.0146396 2.45474e-20)
(0.00296782 0.0134033 -5.75384e-20)
(0.00704119 0.0147125 5.3469e-20)
(0.0053335 0.0162815 4.02488e-21)
(0.00902333 0.014924 -4.62366e-20)
(0.010493 0.0103044 -1.25917e-19)
(0.0101116 0.00938241 2.26457e-19)
(0.00994594 0.00792426 1.3724e-19)
(0.00987389 0.00803634 -1.72058e-19)
(0.0101639 0.00856944 -3.35533e-20)
(0.0109274 0.00718366 -1.86796e-19)
(0.00942456 0.00678435 1.0385e-19)
(0.0144152 0.00667316 -3.64216e-20)
(0.0120716 0.00749685 3.87921e-20)
(0.0141969 0.00279695 -3.64596e-20)
(0.0134633 0.00412503 1.58867e-20)
(0.0129354 0.00136521 1.36784e-20)
(0.0120557 7.35444e-05 -1.63486e-20)
(0.0109953 -0.000431393 1.20471e-20)
(0.0099858 -0.000417437 -1.67384e-21)
(0.00956616 -0.000628686 -3.33803e-22)
(0.00935705 -0.000805339 0)
(0.00919296 -0.000681849 0)
(0.00912006 -0.000541266 0)
(0.00923132 -0.000255747 0)
(0.00947123 -1.24038e-05 0)
(0.00973192 -0.000144919 0)
(0.0105387 0.000556285 0)
(0.010272 -8.42627e-05 0)
(0.0102256 -0.000817792 0)
(0.0104378 -0.0011119 0)
(0.0106609 -0.0009744 0)
(0.0109193 -0.000806477 0)
(0.0110472 -0.000343803 -1.13327e-21)
(0.0105925 6.02105e-05 4.59808e-21)
(0.00927477 0.000660663 4.09001e-22)
(0.00784369 0.00245327 -3.78442e-21)
(0.00642186 0.00492046 2.0275e-22)
(0.00452593 0.00875069 5.57133e-21)
(0.00207586 0.0180732 -4.51365e-21)
(0.00374354 0.0172497 -1.19112e-20)
(0.00393144 0.017218 -4.01282e-21)
(0.00895233 0.0209508 2.07688e-20)
(0.011221 0.0166419 1.68598e-20)
(0.0135326 0.0143697 -6.68917e-20)
(0.0122779 0.0108473 -1.45189e-21)
(0.0102895 0.00783818 -2.63998e-20)
(0.00783065 0.00824361 -4.84557e-20)
(0.00875285 0.0104594 -1.6619e-20)
(0.0104804 0.0122434 -2.4774e-20)
(0.0136598 0.0128403 -4.2331e-20)
(0.0168584 0.0127853 -3.69994e-20)
(0.019861 0.00891253 -1.17604e-19)
(0.0191312 0.0113007 -5.06091e-21)
(0.0232646 0.00418258 4.45243e-21)
(0.0225969 0.00391965 -1.95907e-21)
(0.0205026 0.00135039 6.38165e-22)
(0.0176597 -0.000828917 -1.29637e-22)
(0.0149754 -0.00234377 -4.09e-21)
(0.0125743 -0.00260208 3.30766e-21)
(0.0110675 -0.0024462 1.25555e-21)
(0.0102944 -0.00227392 0)
(0.00977488 -0.00179027 0)
(0.00947948 -0.0010289 0)
(0.00930485 -0.000467363 0)
(0.00934141 8.16178e-05 0)
(0.00942552 8.34443e-05 0)
(0.0101005 -0.00140179 0)
(0.00974518 -0.00196748 0)
(0.00965484 -0.00142545 0)
(0.00985121 -0.000894993 0)
(0.010351 -0.00065512 0)
(0.0109084 -0.000398546 0)
(0.0114244 2.87936e-05 -3.78658e-23)
(0.0110367 0.000406775 7.83492e-23)
(0.00948123 0.00133619 2.39362e-21)
(0.00743931 0.00403703 2.53657e-21)
(0.00548103 0.00758994 -8.10736e-21)
(0.0045543 0.0101993 -1.85757e-21)
(0.00343803 0.0160075 8.21544e-21)
(0.00102128 0.0200349 -8.42992e-21)
(0.00665147 0.022387 -2.36223e-20)
(0.00653273 0.0215033 -8.23191e-21)
(0.0121474 0.0206328 -2.04908e-22)
(0.0192064 0.014459 2.78838e-21)
(0.0202976 0.00591388 9.60778e-22)
(0.0125163 -0.00214859 -1.11017e-19)
(0.00232734 8.5906e-05 7.28731e-20)
(0.00190638 0.0112975 3.28391e-19)
(0.0087069 0.017431 2.89462e-21)
(0.0142115 0.0190171 1.13747e-21)
(0.0198787 0.0167618 4.47581e-22)
(0.0264098 0.0140607 -2.5285e-20)
(0.0299494 0.013533 6.60671e-21)
(0.0339351 0.00892844 -1.1663e-22)
(0.0323101 0.00456116 8.09098e-21)
(0.0284815 1.0792e-05 -7.83886e-21)
(0.0233937 -0.00344288 -4.43902e-22)
(0.0189284 -0.00525227 1.12802e-21)
(0.0149064 -0.00549688 -5.26678e-24)
(0.0119329 -0.00512582 5.46471e-22)
(0.0105099 -0.00439495 0)
(0.00965678 -0.00314909 0)
(0.00891635 -0.00180897 0)
(0.00824924 -0.000565416 0)
(0.00788779 0.000186331 0)
(0.00803374 0.000526749 0)
(0.00836231 -0.000510037 0)
(0.00832512 -0.00142756 0)
(0.00875667 -0.00179474 0)
(0.00922788 -0.00146774 0)
(0.00995084 -0.00111621 0)
(0.0108672 -0.000685633 0)
(0.0112363 -4.05082e-05 4.75357e-23)
(0.00979982 0.000878268 7.13695e-23)
(0.00714417 0.00277587 -1.11321e-22)
(0.00427732 0.00597418 8.77105e-22)
(0.000344371 0.0111058 -2.20099e-21)
(-0.00197801 0.0149475 1.94536e-21)
(-0.00248692 0.0199662 -4.61458e-22)
(-0.00037415 0.0254721 -1.20907e-20)
(0.00572007 0.0276382 2.06643e-20)
(0.0116366 0.0305005 -8.589e-21)
(0.0213885 0.027989 -1.73568e-20)
(0.032365 0.0210397 2.11404e-21)
(0.0462157 -0.00231042 -1.01714e-19)
(-0.00130843 0.0204197 1.99405e-19)
(0.0153272 0.0276538 -4.88292e-21)
(0.0263683 0.02872 -8.04855e-21)
(0.0367675 0.0263918 1.32343e-20)
(0.042642 0.0158336 5.34939e-21)
(0.0439618 0.0127848 -5.07265e-22)
(0.0412337 0.00476816 1.27979e-21)
(0.0356542 -0.0025766 -3.27166e-22)
(0.0281984 -0.00681037 -5.02282e-22)
(0.0213601 -0.00901421 -6.34824e-22)
(0.015498 -0.00942737 -7.95143e-23)
(0.0112524 -0.00857427 -1.09213e-22)
(0.00866888 -0.00743772 0)
(0.00710272 -0.00592122 0)
(0.00600709 -0.00433922 0)
(0.00543738 -0.00265461 0)
(0.00497156 -0.00126257 0)
(0.00487844 -0.00067639 0)
(0.00530668 -0.000567459 0)
(0.00633402 -0.00147728 0)
(0.00694515 -0.000777509 0)
(0.00772713 -0.000649202 0)
(0.00844417 -0.000553772 0)
(0.00911957 -0.000399744 0)
(0.00889769 5.48684e-05 2.10942e-22)
(0.00624823 0.00113558 -5.77382e-22)
(0.000660115 0.00415736 5.17578e-22)
(-0.00463086 0.00814427 5.05538e-21)
(-0.0104111 0.0143424 -6.32955e-21)
(-0.0142775 0.0199859 1.02451e-20)
(-0.0174553 0.0263688 -5.121e-21)
(-0.0126883 0.0319564 1.55455e-22)
(-0.00671763 0.0352444 -1.14916e-20)
(0.0038564 0.0394179 9.92549e-21)
(0.0192126 0.0423703 -6.31365e-21)
(0.0449974 0.0419824 3.02733e-21)
(0.000485927 0.0186957 3.80688e-19)
(-0.00707354 0.0202938 -8.82473e-20)
(0.017017 0.0386944 8.9803e-22)
(0.0303163 0.035604 -8.80812e-22)
(0.0414144 0.0330622 1.67521e-20)
(0.0480451 0.0196752 1.76444e-20)
(0.0516147 0.0140807 -1.29464e-20)
(0.0473675 0.00367962 8.68617e-21)
(0.040172 -0.00459783 -6.21266e-21)
(0.031306 -0.00961504 3.01851e-21)
(0.0225606 -0.0126454 2.58124e-22)
(0.0147217 -0.0134213 6.26286e-22)
(0.00874996 -0.0122468 -1.7624e-22)
(0.00621306 -0.0103827 0)
(0.00493358 -0.00801651 0)
(0.00391219 -0.00555987 0)
(0.00272495 -0.00341813 0)
(0.00170371 -0.000706506 0)
(-9.265e-05 0.000841787 0)
(-0.000757471 -0.00117508 -1.89698e-23)
(0.00252928 -0.000976806 0)
(0.00384752 -0.0015288 0)
(0.00455426 -0.00163118 0)
(0.00513311 -0.00139177 0)
(0.00582284 -0.00129157 0)
(0.00449576 -0.00087892 3.72495e-22)
(-0.00102596 9.99604e-05 -4.63526e-22)
(-0.00985508 0.00386693 -1.22453e-21)
(-0.0195311 0.00888656 -4.1185e-21)
(-0.0291525 0.0159667 6.09945e-22)
(-0.0370535 0.0213404 -3.23053e-20)
(-0.0401603 0.0268048 4.93041e-20)
(-0.0332128 0.0362306 -4.93011e-20)
(-0.0249218 0.0456107 2.50044e-20)
(-0.00952201 0.0546504 7.08698e-20)
(0.0116796 0.0611547 7.8915e-20)
(0.106748 0.0442809 8.88949e-21)
(0.034071 -0.0143269 -6.0856e-20)
(-0.0575971 0.0350603 4.04119e-20)
(0.0256023 0.0511479 -4.94367e-20)
(0.0387327 0.0428839 -5.25462e-20)
(0.0478515 0.0355915 1.36374e-20)
(0.0526991 0.0246405 -6.22253e-20)
(0.0558424 0.0154586 4.2905e-20)
(0.0513871 0.00234786 -5.36522e-20)
(0.043346 -0.0068326 -2.13674e-20)
(0.0333777 -0.0120717 8.52654e-21)
(0.0216237 -0.0154166 -5.94456e-21)
(0.0114198 -0.016654 1.48073e-21)
(0.00385219 -0.0157537 -4.58375e-22)
(3.24286e-05 -0.0132091 0)
(-0.00130551 -0.0104849 0)
(-0.00248187 -0.00782231 0)
(-0.00363489 -0.00557573 0)
(-0.00532736 -0.00434572 0)
(-0.00884663 -0.0025673 0)
(0.000266518 0.00201891 -4.71624e-24)
(0.00108158 0.00185716 0)
(0.00173145 -0.000921539 0)
(0.00272398 -0.00194424 0)
(0.00302752 -0.00228137 0)
(0.00269692 -0.0028286 0)
(-0.00061358 -0.00334704 -5.306e-22)
(-0.0097827 -0.00276831 -1.48254e-21)
(-0.0229926 0.000720142 6.10639e-22)
(-0.0369284 0.00554052 6.86019e-21)
(-0.049438 0.013868 4.73786e-21)
(-0.059388 0.0209244 -5.08568e-20)
(-0.0631386 0.0284384 1.08725e-20)
(-0.0554014 0.044282 1.59488e-20)
(-0.0453171 0.0588291 -7.34329e-20)
(-0.0264038 0.0755093 -9.96581e-20)
(0.0021541 0.0883044 3.60364e-20)
(0.206175 0.0692128 -9.18321e-20)
(0.0754882 0.0239758 1.23544e-19)
(-0.0655751 0.0471034 -7.61229e-20)
(-0.0422612 0.0775085 7.02795e-23)
(-0.0487536 0.124791 -3.85369e-20)
(-0.0438098 0.105228 -3.52893e-20)
(0.0469867 0.0686184 -7.15828e-20)
(0.054887 0.0451961 -1.72918e-19)
(0.0597716 0.0293235 1.30199e-19)
(0.0591841 0.0234688 -2.35542e-19)
(0.058653 0.013791 -4.51015e-20)
(0.0533829 0.00226405 1.23149e-20)
(0.0446977 -0.00605041 -8.02222e-21)
(0.0325246 -0.0127053 1.39342e-20)
(0.0189425 -0.0173976 -2.75319e-21)
(0.00651865 -0.0189215 8.0822e-22)
(-0.00371923 -0.0182656 -5.88773e-22)
(-0.00746446 -0.0155543 0)
(-0.00891253 -0.0125819 0)
(-0.0101458 -0.00997954 0)
(-0.0111662 -0.00787317 0)
(-0.0114462 -0.00716021 0)
(-0.0110275 -0.00367507 0)
(0.00276242 0.0016786 -7.96853e-22)
(0.00157252 0.00172298 0)
(0.00132261 -0.000478815 0)
(0.00141424 -0.00227862 0)
(0.00143504 -0.00406999 0)
(0.000914526 -0.00613041 0)
(-0.0041524 -0.00746256 -1.21008e-23)
(-0.0171358 -0.0073584 -2.09353e-21)
(-0.0347566 -0.00468668 -1.30378e-21)
(-0.0521895 0.000474162 -3.64909e-21)
(-0.0709786 0.0109203 -1.47088e-21)
(-0.0853649 0.0222462 -5.05617e-21)
(-0.0922789 0.0381963 -1.28981e-20)
(-0.0819606 0.049804 8.20737e-20)
(-0.078708 0.0696249 -2.28998e-20)
(-0.0644743 0.101466 -7.03289e-20)
(-0.0219878 0.125928 -8.44237e-20)
(0.301893 0.122764 9.49739e-20)
(0.0345556 0.172231 -3.30679e-19)
(-0.0881198 0.272402 -6.87587e-19)
(-0.0601679 0.190388 2.39818e-20)
(-0.1022 0.165564 1.52965e-19)
(0.0317019 0.172621 2.17308e-19)
(0.105632 0.0627507 -2.32755e-20)
(0.0771594 0.0294601 4.62937e-20)
(0.0746312 0.0151924 -6.4634e-20)
(0.0734428 0.012941 8.02966e-20)
(0.0692651 0.0081696 -4.86159e-20)
(0.0622182 -0.000796364 -6.06185e-20)
(0.0497606 -0.00720242 -1.26666e-20)
(0.0332452 -0.0127377 1.96356e-21)
(0.017004 -0.0168409 6.35396e-21)
(0.00194923 -0.0183713 -1.2119e-21)
(-0.0104038 -0.0180602 -3.49712e-23)
(-0.0142782 -0.0152945 0)
(-0.0147146 -0.0127039 0)
(-0.0147645 -0.0100826 0)
(-0.0147815 -0.00776727 0)
(-0.0144263 -0.00615635 0)
(-0.0133173 -0.00224035 8.16626e-23)
(0.00932358 -0.000686549 9.25137e-22)
(0.00758395 -0.00167966 0)
(0.00645234 -0.00240639 0)
(0.00566328 -0.00418539 0)
(0.00456008 -0.00669321 0)
(0.00240756 -0.00971295 0)
(-0.0047247 -0.0123013 0)
(-0.0221566 -0.0130489 -3.1986e-22)
(-0.0449169 -0.00973978 3.40081e-21)
(-0.0670841 -0.00407087 -9.07425e-21)
(-0.0878389 0.00507978 4.60284e-21)
(-0.106293 0.020315 -4.18395e-20)
(-0.114432 0.0382673 1.64592e-20)
(-0.114929 0.0472345 3.00834e-20)
(-0.114397 0.0668157 -2.4982e-21)
(-0.11113 0.094716 -1.47239e-19)
(-0.0462832 0.130841 1.09809e-20)
(0.236413 0.13436 -9.03702e-19)
(-0.212722 0.228288 -9.58249e-20)
(-0.102743 0.253516 -1.78772e-19)
(0.111544 0.364259 3.55168e-19)
(-0.0630674 0.193873 -4.2727e-19)
(0.183642 -0.0180352 -3.12087e-19)
(0.167573 0.0236027 -7.78459e-19)
(0.0831342 -0.00445001 3.70372e-20)
(0.0809261 0.00338776 1.56172e-20)
(0.0863753 0.000341035 -4.63923e-20)
(0.0813539 -0.00300371 -1.79747e-20)
(0.07326 -0.00488694 4.18333e-20)
(0.0574111 -0.00867661 -1.48572e-20)
(0.0389593 -0.012657 1.65945e-20)
(0.0191398 -0.0156096 -4.02837e-21)
(-0.000760885 -0.0174177 5.87449e-22)
(-0.0149321 -0.0170318 0)
(-0.0189556 -0.0137215 0)
(-0.0181803 -0.0116305 0)
(-0.016911 -0.00942337 0)
(-0.0156892 -0.00677856 0)
(-0.0144369 -0.00376527 0)
(-0.0123386 -0.000960529 -1.10582e-21)
(0.0155476 -0.00204453 2.30233e-22)
(0.0149799 -0.00466909 0)
(0.0142718 -0.00572156 0)
(0.0130327 -0.00809145 0)
(0.0113233 -0.0112363 0)
(0.00840141 -0.0149218 0)
(-0.000729644 -0.018159 0)
(-0.020808 -0.0197763 0)
(-0.0468879 -0.0168683 1.79117e-22)
(-0.0731769 -0.0121485 1.22372e-21)
(-0.0965265 -0.00416061 -3.50393e-22)
(-0.118339 0.00879123 -6.11016e-21)
(-0.135714 0.024701 5.42862e-21)
(-0.145883 0.0383303 -6.81955e-21)
(-0.139995 0.051647 -4.66262e-20)
(-0.147092 0.0766849 -1.33042e-19)
(-0.0465536 0.075443 -5.61998e-20)
(0.0769121 0.134588 -1.02172e-19)
(0.0454407 0.181745 -1.00976e-19)
(-0.286314 0.102157 6.77959e-19)
(-0.0696526 0.0866168 3.56365e-20)
(0.414358 0.0893141 -4.07371e-19)
(0.262911 0.0384989 3.90416e-19)
(0.100293 -0.0731091 -7.1272e-19)
(0.0687995 -0.0105292 3.09176e-19)
(0.0817229 -0.0115941 3.61055e-20)
(0.0876061 -0.0165049 2.10218e-20)
(0.0857604 -0.00697895 -3.1976e-20)
(0.079039 -0.00755315 6.84516e-22)
(0.0650073 -0.00973359 5.64997e-21)
(0.0446334 -0.0111389 -3.74439e-21)
(0.0218733 -0.0133149 3.84421e-22)
(-0.000112289 -0.0136959 0)
(-0.0158158 -0.012885 0)
(-0.0209239 -0.0101068 0)
(-0.0198822 -0.00852026 0)
(-0.0178239 -0.00668838 3.25157e-21)
(-0.0160945 -0.00456857 4.4967e-21)
(-0.0147797 -0.00153831 2.68143e-21)
(-0.0131836 0.000185005 0)
(0.0205106 -0.00215894 0)
(0.0207924 -0.00551587 0)
(0.0205525 -0.00826822 0)
(0.0197838 -0.0117599 0)
(0.0187647 -0.0155248 0)
(0.016284 -0.0194534 0)
(0.0063841 -0.022783 0)
(-0.0165752 -0.0247762 0)
(-0.0455347 -0.0229663 -3.09697e-25)
(-0.0746262 -0.020206 2.31467e-22)
(-0.101393 -0.014702 -2.56034e-21)
(-0.12443 -0.00585916 9.83486e-21)
(-0.144231 0.00404164 1.10265e-20)
(-0.160781 0.0145574 1.59582e-20)
(-0.154642 0.030949 4.27523e-19)
(-0.144227 0.0310988 5.98522e-20)
(0.00710769 -0.0239823 -6.58841e-20)
(-0.0676492 0.150562 -3.7399e-21)
(-0.0618288 0.251851 -3.12191e-19)
(0.0493401 0.129124 5.62246e-19)
(0.139067 -0.115196 2.10681e-19)
(0.216593 -0.208234 -5.86418e-19)
(0.284987 -0.142875 9.0438e-20)
(0.114581 -0.0156161 1.395e-19)
(0.0426691 -0.0186257 -4.95611e-20)
(0.0723363 -0.0291719 -8.33451e-20)
(0.068044 -0.00686777 1.09177e-20)
(0.0794629 -0.00115879 -9.80685e-21)
(0.0787371 -0.00361633 4.74674e-22)
(0.0696041 -0.0047543 -1.37016e-21)
(0.0505044 -0.00648731 3.9772e-22)
(0.0275221 -0.00946557 -1.65675e-24)
(0.00341438 -0.00957383 0)
(-0.0154645 -0.00826421 0)
(-0.0218877 -0.00579381 0)
(-0.02074 -0.00472301 0)
(-0.0183156 -0.0034549 0)
(-0.0162876 -0.00229968 0)
(-0.0148665 -0.000444913 0)
(-0.0141338 0.00032453 -4.82929e-22)
(0.0252034 -0.00195368 0)
(0.0254041 -0.00570894 0)
(0.0256471 -0.00963167 0)
(0.0256161 -0.0140009 0)
(0.0253799 -0.0183407 0)
(0.023443 -0.0226454 0)
(0.0129344 -0.0263193 0)
(-0.0122471 -0.0293378 0)
(-0.0441226 -0.0286844 0)
(-0.0751618 -0.0282456 0)
(-0.103595 -0.0240198 -5.31347e-22)
(-0.125654 -0.0203838 -2.76398e-21)
(-0.145086 -0.0149628 6.63944e-21)
(-0.154911 -0.00391577 -5.43136e-21)
(-0.173146 -0.00178057 1.12919e-18)
(-0.113828 -0.00756549 -3.88037e-20)
(-0.002837 -0.0174612 4.98766e-19)
(-0.225048 -0.0326982 3.97823e-20)
(-0.058933 -0.0146664 2.98708e-19)
(0.18868 -0.0189671 6.92845e-19)
(0.371348 -0.051234 1.18508e-19)
(0.35042 -0.0794942 -5.05145e-20)
(0.124393 -0.0530627 9.02962e-20)
(-0.058902 -0.0455269 -6.67161e-21)
(0.0579832 -0.05861 -5.07905e-20)
(0.0403773 -0.016484 2.52348e-21)
(0.0543974 0.0101693 -2.10445e-21)
(0.0707527 0.0136207 1.65878e-21)
(0.0778964 0.01041 -7.99022e-22)
(0.0721347 0.00700327 -3.13582e-22)
(0.0544188 0.00209476 0)
(0.0306138 -0.00186679 0)
(0.00473982 -0.0024639 0)
(-0.0159152 -0.00192462 0)
(-0.0227514 -0.000620627 0)
(-0.0212708 -0.000304829 0)
(-0.018457 0.000160564 0)
(-0.0162624 7.48776e-05 0)
(-0.0150038 0.000304052 0)
(-0.0147644 0.000396974 0)
(0.0301012 -0.00206186 0)
(0.0300262 -0.00620042 0)
(0.0302924 -0.0105249 0)
(0.0309081 -0.015301 0)
(0.031576 -0.0201807 0)
(0.0303792 -0.0250184 0)
(0.0195561 -0.0293877 0)
(-0.00718846 -0.0338577 0)
(-0.0414451 -0.0347311 0)
(-0.0746244 -0.0364307 0)
(-0.103718 -0.033298 0)
(-0.12647 -0.0335869 6.38529e-23)
(-0.140985 -0.0330394 -1.52978e-21)
(-0.159038 -0.0392559 -1.19674e-23)
(-0.163114 -0.0138755 3.76245e-19)
(-0.17374 0.00612403 2.71636e-20)
(-0.00305796 0.0814344 3.5841e-19)
(0.0181124 -0.0422808 6.02093e-20)
(0.00300587 -0.221297 -1.28476e-19)
(0.113826 -0.227206 6.01527e-19)
(0.206133 -0.120467 2.42152e-19)
(0.191851 0.000270303 1.79914e-19)
(0.0885795 0.118739 2.70402e-19)
(0.129265 0.0655544 7.48174e-21)
(0.0947525 -0.105294 1.66548e-19)
(-0.0371734 -0.0175859 7.5629e-20)
(0.0399013 0.0357542 -4.59206e-20)
(0.0685304 0.0375056 1.44913e-21)
(0.0820017 0.031469 -1.50581e-22)
(0.077452 0.0249631 0)
(0.0593234 0.0173143 0)
(0.0340701 0.0118377 0)
(0.00639349 0.00878217 0)
(-0.0151679 0.00658439 0)
(-0.0224462 0.00557934 0)
(-0.0210245 0.00451517 0)
(-0.0183079 0.00360553 0)
(-0.0162376 0.00225467 0)
(-0.0149759 0.00122637 0)
(-0.0142053 0.000456891 0)
(0.0359147 -0.00196124 0)
(0.0357633 -0.00642047 0)
(0.0361862 -0.0111006 0)
(0.0370554 -0.0161501 0)
(0.0381279 -0.0212574 0)
(0.0373934 -0.0263874 0)
(0.0265446 -0.0310287 0)
(-0.000977871 -0.0363679 0)
(-0.037184 -0.0394904 0)
(-0.0728357 -0.0431382 0)
(-0.102223 -0.0438094 4.87561e-21)
(-0.127881 -0.0426271 0)
(-0.135981 -0.05173 0)
(-0.156393 -0.0553386 -1.02061e-19)
(-0.183984 -0.0396401 -5.08826e-20)
(-0.205538 -0.0400959 6.2897e-19)
(-0.0894044 -0.017875 1.87319e-20)
(0.0725796 0.133788 7.6496e-20)
(0.159917 0.160803 -3.93326e-19)
(0.191635 0.105678 1.59061e-18)
(0.239675 0.0653513 -2.47521e-19)
(0.230677 -0.0166618 1.1014e-19)
(0.237984 -0.118648 -8.51761e-21)
(0.226496 -0.142318 -4.80962e-20)
(-0.0570997 -0.00500564 -1.17684e-20)
(-0.0962383 0.103774 -2.32577e-19)
(0.041093 0.0869526 8.31606e-20)
(0.0822767 0.0692266 0)
(0.0964298 0.060445 0)
(0.0913947 0.0479559 1.55653e-21)
(0.0706107 0.036098 0)
(0.0425469 0.0274096 0)
(0.0123783 0.0206915 0)
(-0.0111252 0.0153923 0)
(-0.0196614 0.0121944 0)
(-0.0189743 0.00940948 0)
(-0.0169217 0.00707559 0)
(-0.0153669 0.00461431 -5.3515e-22)
(-0.0143309 0.00253989 -3.83923e-22)
(-0.0133847 0.000669146 0)
(0.0409976 -0.00228016 0)
(0.0414581 -0.00692374 0)
(0.0423187 -0.0115919 0)
(0.043451 -0.0165921 0)
(0.044708 -0.0217667 0)
(0.0439374 -0.0271243 0)
(0.0327536 -0.0320261 0)
(0.00456774 -0.0372695 0)
(-0.0323209 -0.0415294 0)
(-0.0695749 -0.0457705 0)
(-0.0983339 -0.0512055 2.5328e-21)
(-0.123299 -0.0504017 0)
(-0.135235 -0.0636616 0)
(-0.162248 -0.0866443 2.23067e-20)
(-0.199392 -0.0549984 -2.42831e-19)
(-0.0516228 -0.0637787 -4.6685e-20)
(-0.00149508 -0.162419 0)
(-0.00408418 -0.192089 5.83551e-20)
(0.0292137 -0.132963 -6.97368e-19)
(0.0852362 -0.0330945 7.29095e-20)
(0.0910105 0.114988 6.3616e-19)
(0.0711633 0.223216 -1.32509e-19)
(0.0371597 0.359586 2.04476e-20)
(-0.00956381 0.413768 0)
(-0.048294 0.309431 -1.20048e-19)
(-0.00611837 0.190573 1.15874e-20)
(0.0672946 0.149192 1.68171e-20)
(0.109624 0.112484 0)
(0.124421 0.0904888 0)
(0.114251 0.0693035 -4.55693e-22)
(0.0891402 0.0520023 0)
(0.0566509 0.0397222 0)
(0.0223869 0.0304371 0)
(-0.00428453 0.0232914 0)
(-0.0144538 0.018388 0)
(-0.014768 0.014036 9.6816e-22)
(-0.0132403 0.0105512 -1.25811e-21)
(-0.0120353 0.00720112 0)
(-0.0113961 0.00431558 0)
(-0.0109241 0.00152728 -2.95651e-21)
(0.0475511 -0.00264784 0)
(0.0477844 -0.00758061 0)
(0.0485586 -0.0123549 0)
(0.0497754 -0.0174315 0)