/*--------------------------------*- C++ -*----------------------------------*\
| =========                 |                                                 |
| \\      /  F ield         | OpenFOAM: The Open Source CFD Toolbox           |
|  \\    /   O peration     | Version:  v2106                                 |
|   \\  /    A nd           | Website:  www.openfoam.com                      |
|    \\/     M anipulation  |                                                 |
\*---------------------------------------------------------------------------*/
FoamFile
{
    version     2.0;
    format      ascii;
    arch        "LSB;label=32;scalar=64";
    class       volVectorField;
    location    "0";
    object      U;
}
// * * * * * * * * * * * * * * * * * * * * * * * * * * * * * * * * * * * * * //

dimensions      [0 1 -1 0 0 0 0];

internalField   nonuniform List<vector> 
11644
(
(0.998983 -0.000209223 -2.54887e-23)
(0.998881 -0.000547641 -7.02904e-23)
(0.998821 -0.000799742 -3.77125e-23)
(0.998806 -0.00105354 0)
(0.998801 -0.0013153 0)
(0.998798 -0.00157672 0)
(0.998797 -0.0018336 0)
(0.998798 -0.0020768 0)
(0.998799 -0.00229445 0)
(0.998801 -0.0024708 0)
(0.99879 -0.00259199 0)
(0.998792 -0.0026368 0)
(0.998853 -0.00258427 0)
(0.998993 -0.00246662 0)
(0.998856 -0.00214416 0)
(0.998802 -0.00182619 0)
(0.998504 -0.0013154 0)
(0.998175 -0.000309492 0)
(0.998292 0.000894845 0)
(0.998608 0.00175429 3.20454e-30)
(0.998659 0.0023711 -3.21219e-30)
(0.998623 0.00302371 0)
(0.998727 0.00363338 0)
(0.998898 0.00410691 0)
(0.998841 0.00438459 0)
(0.998821 0.00452964 0)
(0.998974 0.00453753 0)
(0.99877 0.00443477 0)
(0.998759 0.00422209 0)
(0.998792 0.00392397 0)
(0.998786 0.00358049 0)
(0.998791 0.00319947 0)
(0.998794 0.00280487 0)
(0.998798 0.00240903 0)
(0.998801 0.00202336 0)
(0.998804 0.00165422 0)
(0.998809 0.00130583 0)
(0.998827 0.000981283 0)
(0.998902 0.000664622 0)
(0.999022 0.000251023 -4.942e-24)
(0.999699 -0.000425337 -3.27401e-23)
(0.999623 -0.00128046 -3.03278e-23)
(0.999567 -0.00212986 -1.62881e-23)
(0.99955 -0.00295989 0)
(0.99955 -0.00377747 0)
(0.999547 -0.00458358 0)
(0.999532 -0.0053689 0)
(0.999493 -0.00611034 0)
(0.999424 -0.0067769 0)
(0.999306 -0.00732934 0)
(0.999168 -0.00770631 0)
(0.998949 -0.00785746 0)
(0.998576 -0.00769439 0)
(0.998044 -0.0071192 0)
(0.997844 -0.00619299 0)
(0.997311 -0.0047149 1.53121e-24)
(0.99662 -0.00273059 1.41229e-23)
(0.996097 -0.000419401 -4.22329e-23)
(0.995989 0.00222309 -1.78395e-22)
(0.99623 0.00508912 2.34784e-22)
(0.996573 0.00769836 -6.71599e-25)
(0.996779 0.00978058 -1.92562e-22)
(0.996987 0.0114784 1.75633e-22)
(0.99736 0.0128824 -1.06637e-23)
(0.998104 0.0138754 -7.07281e-25)
(0.998671 0.0142748 0)
(0.998881 0.0142505 0)
(0.999488 0.0137156 0)
(0.999723 0.0129309 0)
(0.999835 0.0119386 0)
(0.999939 0.0107796 0)
(0.999953 0.00956096 0)
(0.999939 0.0083164 0)
(0.999897 0.00708841 0)
(0.999845 0.0058989 0)
(0.999792 0.00476018 0)
(0.999752 0.00366814 0)
(0.999747 0.00260215 0)
(0.9998 0.0015421 0)
(0.999879 0.000506408 0)
(1.00115 -0.00066967 0)
(1.00109 -0.00204517 0)
(1.00105 -0.00345811 0)
(1.00104 -0.00486516 0)
(1.00104 -0.00626002 -2.99075e-23)
(1.00103 -0.0076393 0)
(1.00098 -0.0089885 0)
(1.00087 -0.0102767 0)
(1.00066 -0.0114581 0)
(1.00035 -0.0124577 0)
(0.999817 -0.0132019 0)
(0.999108 -0.0135521 0)
(0.998315 -0.013365 -1.25164e-24)
(0.997405 -0.0125711 1.96662e-22)
(0.99584 -0.0108718 4.34716e-23)
(0.994386 -0.00833178 -3.20907e-22)
(0.992924 -0.00501468 -1.05062e-21)
(0.991642 -0.00116492 7.69952e-22)
(0.990848 0.00333744 1.11163e-21)
(0.990822 0.008424 -4.0744e-22)
(0.991566 0.0134894 1.44527e-21)
(0.992847 0.0178898 -7.57728e-22)
(0.994278 0.0211738 -2.17776e-21)
(0.995782 0.0234083 7.18889e-22)
(0.997144 0.0247188 6.57071e-22)
(0.998666 0.0251882 -8.25447e-23)
(1.00032 0.0247514 -1.54959e-22)
(1.00098 0.0237629 7.93759e-25)
(1.00171 0.0221823 0)
(1.00217 0.0202391 0)
(1.00233 0.018146 0)
(1.00237 0.0159523 0)
(1.00229 0.0137823 0)
(1.00214 0.011671 0)
(1.00198 0.00965058 0)
(1.00181 0.00772663 0)
(1.00168 0.00588985 0)
(1.00159 0.00411956 0)
(1.00157 0.00241166 0)
(1.00159 0.000785805 0)
(1.00336 -0.0009364 0)
(1.00331 -0.00285002 0)
(1.0033 -0.00479772 0)
(1.00331 -0.00677451 0)
(1.00332 -0.00876565 0)
(1.0033 -0.0107698 0)
(1.00322 -0.0127628 0)
(1.00302 -0.0147091 0)
(1.00264 -0.0165455 0)
(1.002 -0.0182007 0)
(1.00111 -0.019502 2.07985e-24)
(0.999837 -0.0202885 3.93199e-22)
(0.997931 -0.0203679 -8.7845e-22)
(0.995203 -0.0194506 -2.07747e-22)
(0.992728 -0.0173487 -7.3971e-22)
(0.989768 -0.0139327 1.30786e-21)
(0.986834 -0.00918215 4.9269e-22)
(0.984213 -0.0033258 -1.11218e-22)
(0.982245 0.00364009 2.3194e-21)
(0.981836 0.0113237 -3.42339e-21)
(0.983031 0.0189599 5.26883e-22)
(0.985563 0.0259439 -2.39441e-21)
(0.988808 0.031614 3.31458e-21)
(0.992399 0.0352931 -2.10075e-21)
(0.995973 0.0371733 2.16106e-22)
(0.99919 0.0374905 6.02695e-22)
(1.00137 0.0367031 1.58287e-22)
(1.00378 0.0344696 4.85275e-22)
(1.00509 0.0317411 3.08075e-23)
(1.0058 0.0286412 -8.79724e-25)
(1.00613 0.0253557 0)
(1.00608 0.0221068 0)
(1.00586 0.0189341 0)
(1.00553 0.0159211 0)
(1.00517 0.0130803 0)
(1.00482 0.0104126 0)
(1.00452 0.00790343 0)
(1.0043 0.00552313 0)
(1.00417 0.00324504 0)
(1.00415 0.00106508 0)
(1.00631 -0.00122744 0)
(1.00628 -0.00368637 0)
(1.0063 -0.00620398 0)
(1.00635 -0.00875426 0)
(1.00641 -0.0113618 0)
(1.00643 -0.0140342 0)
(1.00636 -0.016759 0)
(1.0061 -0.0195046 0)
(1.00558 -0.0222209 0)
(1.00472 -0.024762 3.14419e-23)
(1.00326 -0.0269817 1.63833e-22)
(1.00091 -0.0286797 -4.57725e-22)
(0.997851 -0.0294421 1.7966e-21)
(0.994293 -0.0289635 -3.15346e-21)
(0.989075 -0.026985 3.23093e-21)
(0.983746 -0.0230264 -2.7489e-21)
(0.978649 -0.017058 6.19484e-22)
(0.973683 -0.00904878 -3.01959e-21)
(0.969641 0.00106821 5.23691e-21)
(0.968205 0.0127266 -5.3537e-22)
(0.970063 0.0247398 -2.04828e-21)
(0.974881 0.035631 -4.54044e-21)
(0.981322 0.0441718 4.86477e-21)
(0.989127 0.049477 -4.96811e-22)
(0.995315 0.0516428 2.4969e-21)
(1.00075 0.0516376 -3.0015e-21)
(1.00597 0.0492077 2.54711e-21)
(1.00834 0.0460212 -1.50919e-21)
(1.01023 0.0416442 6.55049e-22)
(1.01112 0.0368914 -1.17906e-22)
(1.01136 0.0321853 -3.37994e-24)
(1.01117 0.027691 0)
(1.01067 0.0234984 0)
(1.01003 0.0195963 0)
(1.00935 0.0159911 0)
(1.00872 0.0126594 0)
(1.00818 0.00956657 0)
(1.00777 0.00667559 0)
(1.00751 0.00393169 0)
(1.00741 0.00128988 0)
(1.01 -0.00147246 0)
(1.01 -0.00448091 0)
(1.01009 -0.00754567 0)
(1.01024 -0.0106927 0)
(1.01041 -0.0139698 0)
(1.01055 -0.0173861 0)
(1.01058 -0.0209521 0)
(1.01039 -0.0246615 0)
(1.00988 -0.0284431 7.05217e-23)
(1.00875 -0.0321827 6.42845e-22)
(1.00661 -0.0357216 -4.22668e-22)
(1.00353 -0.0387273 1.61078e-22)
(0.999194 -0.0410795 -1.26301e-21)
(0.992528 -0.0424961 -1.76076e-22)
(0.9859 -0.0411749 4.68464e-22)
(0.977444 -0.0375007 1.69241e-21)
(0.967466 -0.0310456 1.46266e-21)
(0.958122 -0.0203454 -2.20917e-21)
(0.950721 -0.0054259 -5.18304e-21)
(0.947651 0.0118287 1.61651e-20)
(0.950105 0.029604 -1.07482e-20)
(0.957527 0.0460288 -5.5607e-21)
(0.96868 0.0593934 7.30782e-21)
(0.981849 0.0669262 -4.39539e-21)
(0.994004 0.0689654 7.24716e-22)
(1.00428 0.0682302 9.28428e-25)
(1.01066 0.0649456 2.31063e-22)
(1.016 0.0579155 -5.3615e-22)
(1.01824 0.0512616 1.39563e-21)
(1.0188 0.0445761 4.2811e-22)
(1.01841 0.038222 -2.61175e-22)
(1.01765 0.0324249 -8.59871e-24)
(1.01666 0.0271987 0)
(1.01552 0.0224917 0)
(1.01439 0.0182394 0)
(1.01337 0.0143854 0)
(1.0125 0.0108585 0)
(1.01184 0.00758817 0)
(1.0114 0.004483 0)
(1.01121 0.00149516 0)
(1.01436 -0.00174957 0)
(1.01443 -0.00526625 0)
(1.01464 -0.0088389 0)
(1.01496 -0.0125833 0)
(1.01535 -0.0165126 0)
(1.01574 -0.0207021 0)
(1.01605 -0.0251878 0)
(1.01615 -0.0299867 -1.90977e-24)
(1.0157 -0.0350077 -4.10465e-23)
(1.01431 -0.0402075 4.27528e-22)
(1.01187 -0.0454357 -1.33695e-21)
(1.00816 -0.0506722 1.35024e-21)
(1.00301 -0.0557089 3.91428e-22)
(0.996804 -0.0595071 1.36487e-21)
(0.985276 -0.062348 1.16735e-21)
(0.971371 -0.0609245 -3.1216e-21)
(0.962128 -0.0483318 -4.02693e-21)
(0.94763 -0.0371982 3.15778e-21)
(0.93462 -0.0186974 2.28618e-21)
(0.927132 0.0054812 9.77261e-21)
(0.928709 0.0316981 7.1908e-21)
(0.938449 0.0549386 -8.60606e-22)
(0.953887 0.0723139 2.97416e-23)
(0.971469 0.0816484 -2.45417e-21)
(0.995542 0.0935155 3.16711e-21)
(1.01063 0.0894834 -1.20832e-21)
(1.02266 0.0794888 -1.04233e-21)
(1.02665 0.071344 -1.67303e-21)
(1.02906 0.0609793 1.82175e-21)
(1.02907 0.0515316 -8.60115e-22)
(1.02759 0.0432 3.067e-22)
(1.02566 0.0360067 -1.50052e-22)
(1.0237 0.02982 -2.287e-24)
(1.02186 0.024447 0)
(1.02011 0.0197033 0)
(1.01856 0.015462 0)
(1.01728 0.0116225 0)
(1.01631 0.00807661 0)
(1.01566 0.00475599 0)
(1.01537 0.00153742 0)
(1.01934 -0.00194403 0)
(1.0195 -0.00587277 0)
(1.0199 -0.00998158 0)
(1.02049 -0.0142425 0)
(1.02123 -0.0188014 0)
(1.02207 -0.023745 0)
(1.0229 -0.0291661 0)
(1.02346 -0.0350698 -1.06271e-22)
(1.02311 -0.0414232 -1.41785e-22)
(1.02193 -0.0481372 3.6601e-23)
(1.01991 -0.0553466 1.66879e-21)
(1.01671 -0.0632175 -1.90703e-21)
(1.01176 -0.0714391 1.17007e-21)
(1.00165 -0.076041 -1.3277e-21)
(0.992359 -0.0798694 -1.41418e-21)
(0.975294 -0.0849597 5.12305e-21)
(0.951357 -0.0829906 -2.01852e-21)
(0.926492 -0.0708276 7.66935e-21)
(0.900489 -0.0464361 6.47666e-21)
(0.882736 -0.00816334 2.12327e-21)
(0.882789 0.0371135 2.83297e-21)
(0.900948 0.0772551 8.45805e-22)
(0.931398 0.103692 9.45366e-21)
(0.963863 0.11512 4.43533e-21)
(0.993753 0.116514 1.40806e-21)
(1.01573 0.107609 1.14732e-21)
(1.02891 0.0961043 -2.32945e-21)
(1.043 0.0820039 -1.45177e-22)
(1.04374 0.0690885 -3.36494e-22)
(1.04219 0.0570881 7.46235e-22)
(1.03897 0.0467044 -6.41703e-22)
(1.03528 0.0380769 4.01663e-22)
(1.03172 0.0310196 7.16744e-23)
(1.02878 0.025182 0)
(1.02624 0.0201702 0)
(1.02407 0.0157639 0)
(1.0223 0.0118213 0)
(1.02097 0.00822599 0)
(1.02009 0.00485551 0)
(1.01968 0.00164037 0)
(1.02482 -0.00209697 0)
(1.02511 -0.0063285 0)
(1.02576 -0.0106956 0)
(1.02673 -0.0153629 0)
(1.02799 -0.0204533 0)
(1.02949 -0.0260541 0)
(1.03111 -0.0322922 4.76756e-24)
(1.03222 -0.0391939 -7.83077e-23)
(1.03231 -0.0466631 3.59651e-22)
(1.03201 -0.0548637 3.54493e-22)
(1.03119 -0.0643569 -1.55583e-23)
(1.02952 -0.075437 -1.19268e-21)
(1.02582 -0.0893899 1.57378e-21)
(1.0141 -0.099629 -5.33332e-21)
(1.00294 -0.110725 3.87297e-22)
(0.983592 -0.125213 -7.83442e-22)
(0.955103 -0.126863 -1.0057e-21)
(0.910981 -0.12299 -4.73425e-21)
(0.861548 -0.0966521 2.44286e-21)
(0.819243 -0.0388452 2.91878e-21)
(0.810792 0.0410738 2.02954e-21)
(0.842803 0.111403 -2.44133e-21)
(0.897604 0.151286 1.97521e-21)
(0.956652 0.162637 4.03208e-23)
(0.999993 0.152986 -1.91559e-21)
(1.0354 0.136284 3.33237e-22)
(1.04983 0.115029 -1.71981e-21)
(1.06437 0.0936151 3.4207e-22)
(1.06247 0.0745219 5.62852e-22)
(1.05809 0.0599419 -3.23241e-22)
(1.05228 0.0479967 -3.60396e-22)
(1.04624 0.0383012 1.84515e-22)
(1.04054 0.030615 4.6141e-23)
(1.03598 0.0245528 7.50203e-24)
(1.0325 0.0195574 0)
(1.02962 0.0152417 0)
(1.02732 0.0114046 0)
(1.02561 0.00792877 0)
(1.02448 0.00464653 0)
(1.02396 0.00152467 0)
(1.0306 -0.00211953 0)
(1.03105 -0.00652429 0)
(1.03202 -0.0110644 0)
(1.03348 -0.0159638 0)
(1.03542 -0.0213018 0)
(1.03779 -0.0272814 0)
(1.04037 -0.0340349 -4.84956e-23)
(1.04216 -0.0415518 2.79726e-22)
(1.04323 -0.0498113 -3.28658e-23)
(1.04456 -0.0593089 -6.90072e-23)
(1.046 -0.0708357 -3.70539e-22)
(1.04728 -0.0852939 1.3279e-22)
(1.0479 -0.103952 1.72308e-22)
(1.03966 -0.120836 -4.32126e-22)
(1.03125 -0.14158 -7.05428e-23)
(1.0079 -0.16811 -1.20493e-21)
(0.973544 -0.190011 -1.39098e-23)
(0.91163 -0.212979 -1.37486e-21)
(0.812858 -0.206006 3.50748e-21)
(0.698102 -0.122752 4.44337e-22)
(0.653634 0.0446217 2.04269e-21)
(0.732444 0.199641 -2.38062e-22)
(0.864168 0.259403 2.35669e-21)
(0.96809 0.245202 1.48017e-22)
(1.03657 0.207243 -1.29708e-21)
(1.07571 0.165802 1.58066e-21)
(1.08459 0.126814 4.64158e-22)
(1.09262 0.0954425 -2.0779e-22)
(1.08474 0.0738961 1.00848e-22)
(1.0761 0.058375 -1.05108e-22)
(1.06683 0.0460085 5.76215e-23)
(1.0579 0.0360665 1.46041e-22)
(1.04971 0.0283261 -2.04938e-23)
(1.04311 0.0224402 6.5943e-26)
(1.03849 0.0177901 0)
(1.03487 0.0138167 0)
(1.03203 0.0103131 0)
(1.02996 0.00711923 0)
(1.02862 0.00421221 0)
(1.02799 0.00133463 0)
(1.03639 -0.00210278 0)
(1.03703 -0.00628693 0)
(1.03838 -0.0107722 0)
(1.04042 -0.0155871 0)
(1.04316 -0.020914 0)
(1.04657 -0.0269499 0)
(1.05017 -0.033786 -2.86017e-23)
(1.05282 -0.0413386 5.24983e-23)
(1.05544 -0.0499068 9.78927e-23)
(1.05921 -0.0602229 1.18631e-23)
(1.06403 -0.0728374 -2.51402e-22)
(1.06985 -0.0886415 2.65675e-22)
(1.07706 -0.108341 -1.6616e-22)
(1.07566 -0.132027 -1.56536e-22)
(1.0761 -0.162922 -1.30823e-22)
(1.06797 -0.204942 -1.13255e-22)
(1.04379 -0.261106 -1.38207e-22)
(0.985468 -0.349795 5.32301e-22)
(0.822592 -0.448932 -2.4178e-21)
(0.458744 -0.420118 -6.59205e-20)
(0.188552 0.0687544 2.4183e-20)
(0.525261 0.522834 -3.9355e-20)
(0.9039 0.50312 1.19125e-21)
(1.07084 0.364962 1.12034e-23)
(1.12656 0.253233 -7.13366e-23)
(1.14104 0.171271 -1.7964e-22)
(1.13148 0.127607 -5.03734e-22)
(1.12376 0.0830383 3.96933e-22)
(1.10869 0.064904 -3.51322e-22)
(1.09456 0.0506897 -1.49601e-23)
(1.08123 0.039556 -3.57224e-23)
(1.0692 0.0308068 1.01138e-22)
(1.0585 0.0240065 -2.2353e-23)
(1.04973 0.0188609 -4.85999e-24)
(1.04385 0.0149701 0)
(1.03959 0.0117156 0)
(1.03631 0.00883546 0)
(1.0339 0.00618132 0)
(1.03233 0.00365556 0)
(1.03158 0.00129992 0)
(1.04194 -0.00198941 0)
(1.0428 -0.00583945 0)
(1.04453 -0.00988537 0)
(1.04714 -0.0142312 0)
(1.05071 -0.0191416 0)
(1.05523 -0.0247692 0)
(1.0598 -0.0311281 -2.7491e-23)
(1.06352 -0.0381399 -2.12084e-23)
(1.06812 -0.0462861 -1.65825e-23)
(1.0748 -0.0563489 2.37623e-23)
(1.08361 -0.0687176 6.89167e-23)
(1.09448 -0.0835947 8.88759e-23)
(1.10856 -0.101745 -1.64758e-22)
(1.11454 -0.127721 -1.737e-22)
(1.1313 -0.157459 7.03818e-22)
(1.14549 -0.204627 -3.93608e-23)
(1.16532 -0.273977 4.9401e-22)
(1.19946 -0.401647 9.80754e-22)
(0.875143 -0.465654 -7.34575e-20)
(1.16212 0.609866 7.84615e-20)
(1.32233 0.383226 1.25101e-22)
(1.26108 0.225145 -6.33518e-23)
(1.21809 0.136409 2.79669e-22)
(1.18139 0.0989761 2.03277e-22)
(1.15355 0.0573302 5.13003e-22)
(1.12994 0.0450921 -1.40829e-22)
(1.11021 0.0355739 -1.48293e-22)
(1.09321 0.0282321 -9.95833e-23)
(1.07859 0.0224104 -9.24371e-23)
(1.06586 0.0176916 -6.48198e-23)
(1.05524 0.0140097 -2.91525e-23)
(1.0481 0.0112307 0)
(1.04331 0.00891404 0)
(1.03967 0.00676169 0)
(1.03707 0.00477278 0)
(1.03537 0.00278393 0)
(1.0346 0.000882774 0)
(1.04681 -0.0013384 0)
(1.04783 -0.00471279 0)
(1.04993 -0.00812781 0)
(1.05317 -0.0118534 0)
(1.05756 -0.0159814 0)
(1.06311 -0.0207018 0)
(1.06858 -0.0259983 -3.44663e-24)
(1.07351 -0.0319305 1.43759e-23)
(1.08028 -0.039015 -4.82092e-24)
(1.08978 -0.0477953 1.38733e-22)
(1.10231 -0.0586538 -2.63794e-22)
(1.11767 -0.0712405 1.0171e-22)
(1.1367 -0.0854065 3.55521e-22)
(1.14907 -0.107329 1.32306e-23)
(1.17785 -0.127216 4.00615e-21)
(1.20826 -0.158815 -2.14093e-22)
(1.26159 -0.19777 9.15231e-23)
(1.3375 -0.234703 1.76761e-21)
(0.0116668 0.0148178 3.60459e-19)
(0.0684331 0.00400388 -2.09763e-19)
(1.49931 0.174721 -4.09658e-22)
(1.35906 0.111586 -1.77827e-23)
(1.27356 0.061363 2.8868e-21)
(1.21857 0.0440663 5.36601e-21)
(1.17102 0.0181904 4.9983e-22)
(1.14214 0.0166264 3.20573e-22)
(1.11907 0.0146637 -1.65531e-22)
(1.10036 0.0130989 -3.13947e-23)
(1.08448 0.0115553 -2.19033e-23)
(1.07062 0.00994625 1.06653e-23)
(1.0589 0.008351 1.29505e-23)
(1.05101 0.00704412 0)
(1.04591 0.00582562 0)
(1.0421 0.00452635 0)
(1.0394 0.00319499 0)
(1.03774 0.00198849 0)
(1.03694 0.00059104 0)
(1.05075 -0.00138908 -7.26694e-25)
(1.05199 -0.00356354 0)
(1.05445 -0.00595219 0)
(1.05811 -0.00857841 0)
(1.06307 -0.0114775 0)
(1.06939 -0.0148018 0)
(1.07568 -0.0185937 -1.1399e-23)
(1.08199 -0.0230488 2.97982e-23)
(1.09084 -0.0286218 -8.79659e-23)
(1.10281 -0.0355558 2.80292e-22)
(1.11804 -0.0440082 -1.25857e-23)
(1.13621 -0.0535959 -2.40952e-22)
(1.15739 -0.063834 -4.48024e-24)
(1.17199 -0.0796394 1.26489e-21)
(1.20106 -0.0889484 -1.26381e-21)
(1.23179 -0.10081 1.48695e-21)
(1.28265 -0.103928 1.86935e-21)
(1.18376 -0.0595566 1.77753e-22)
(0.0647185 0.025957 -4.33338e-21)
(0.288716 0.0129102 2.24985e-20)
(1.47783 -0.026417 -4.3286e-22)
(1.37749 -0.0226012 1.98848e-22)
(1.28483 -0.0297182 -1.71546e-21)
(1.22678 -0.0226501 -2.53095e-21)
(1.17068 -0.0260046 1.77716e-21)
(1.14157 -0.0152245 -5.94949e-22)
(1.11872 -0.00835008 -3.16099e-22)
(1.10043 -0.00327336 -8.26092e-23)
(1.0851 -9.03398e-05 -1.3568e-22)
(1.07188 0.00170961 3.86528e-23)
(1.06028 0.00262655 -7.14214e-23)
(1.05233 0.00293782 0)
(1.04741 0.0028656 0)
(1.04377 0.0025118 0)
(1.04111 0.00193957 0)
(1.03935 0.00121544 0)
(1.03854 0.000501023 0)
(1.05392 -0.000642509 -4.05978e-26)
(1.05504 -0.00194052 0)
(1.05747 -0.00319435 0)
(1.06129 -0.00451054 0)
(1.0666 -0.005932 0)
(1.0734 -0.00754423 0)
(1.08065 -0.00955031 5.78545e-24)
(1.08831 -0.0121965 1.37723e-23)
(1.09903 -0.0159046 -1.77695e-22)
(1.11287 -0.0206494 3.96267e-22)
(1.12967 -0.0264333 4.35237e-22)
(1.14959 -0.0335165 -2.47999e-21)
(1.17104 -0.0417814 1.84462e-21)
(1.185 -0.053997 -6.82196e-22)
(1.20665 -0.060264 -1.75054e-22)
(1.22495 -0.0606863 3.24792e-23)
(1.24581 -0.0404981 -9.84057e-22)
(0.97094 0.0621759 -1.42777e-21)
(-0.0660055 0.220848 4.9721e-22)
(-0.222709 0.373122 3.54696e-21)
(-0.0360741 0.51111 2.42951e-22)
(0.257276 0.349536 6.35658e-22)
(0.744769 -0.0336897 -1.04898e-21)
(1.45402 -0.175895 -3.01892e-21)
(1.34703 -0.148296 -5.3788e-21)
(1.255 -0.117182 1.75689e-21)
(1.20358 -0.0854742 -2.45305e-21)
(1.14945 -0.0637331 1.02847e-21)
(1.12604 -0.0433362 -9.73801e-22)
(1.10759 -0.0286831 1.30896e-22)
(1.09265 -0.0176917 -2.68603e-22)
(1.07996 -0.0102792 6.79113e-23)
(1.06875 -0.00526552 -1.05348e-23)
(1.0588 -0.00219094 2.0568e-23)
(1.05184 -0.000484777 0)
(1.04739 0.00035971 0)
(1.04409 0.000703195 0)
(1.0417 0.000731096 0)
(1.04011 0.000502495 0)
(1.03936 0.00020336 0)
(1.05437 0.000262812 -7.97087e-25)
(1.05588 0.000234918 0)
(1.05842 0.000177597 0)
(1.06232 0.00017802 0)
(1.06778 0.000281247 0)
(1.07485 0.000519272 0)
(1.08302 0.000576271 7.70327e-27)
(1.09187 -0.000152134 -2.85724e-23)
(1.10376 -0.00166475 7.49415e-23)
(1.11889 -0.00395783 2.12449e-22)
(1.13685 -0.00706339 -3.42599e-22)
(1.15803 -0.0115892 3.7979e-22)
(1.18024 -0.0170396 -3.53113e-22)
(1.1953 -0.0306422 2.10965e-21)
(1.21373 -0.0425713 -6.70295e-22)
(1.22273 -0.0574404 1.11667e-21)
(1.192 -0.0597938 5.32923e-21)
(0.634937 0.0291194 2.5322e-20)
(-0.240219 0.111677 -1.08029e-21)
(-0.319775 0.0983019 -1.00766e-20)
(0.164304 -0.0397718 -4.88292e-22)
(0.624766 -0.196775 1.58233e-20)
(1.2499 -0.433113 -4.58581e-21)
(1.35773 -0.367857 6.39913e-21)
(1.26037 -0.262844 1.84126e-21)
(1.1863 -0.186584 -1.45183e-21)
(1.15269 -0.129342 2.47498e-21)
(1.11037 -0.0880437 2.11219e-21)
(1.09798 -0.0602407 -1.03226e-21)
(1.08729 -0.0408788 4.10445e-22)
(1.07822 -0.0263679 -1.19554e-22)
(1.07009 -0.0161794 -1.78333e-22)
(1.06229 -0.00911176 -2.71119e-23)
(1.05506 -0.00488816 -1.45821e-24)
(1.04999 -0.00268141 0)
(1.04646 -0.00143752 0)
(1.0437 -0.000697723 0)
(1.04169 -0.00033374 0)
(1.04045 -4.63809e-05 0)
(1.03996 -9.63363e-05 1.12775e-22)
(1.05339 0.000518603 2.10831e-23)
(1.05481 0.00182501 0)
(1.05739 0.00328271 0)
(1.06121 0.00478731 0)
(1.06648 0.00649237 0)
(1.0734 0.00857706 0)
(1.08205 0.0108655 0)
(1.09216 0.0124843 -2.86507e-23)
(1.10467 0.0134543 9.86049e-24)
(1.12033 0.0141719 2.21231e-23)
(1.13926 0.0147914 2.79672e-22)
(1.16187 0.0139653 -9.26386e-22)
(1.18802 0.0131248 1.30908e-22)
(1.21959 0.00452055 5.56034e-22)
(1.23686 -0.0167406 8.71012e-22)
(1.26675 -0.0492162 -3.36336e-21)
(1.23154 -0.10791 1.34276e-21)
(0.576113 -0.162093 -1.23689e-19)
(-0.0659399 -0.352729 6.35709e-21)
(-0.118495 -0.601519 -3.62524e-20)
(0.338811 -0.719981 -1.19396e-20)
(0.847746 -0.791207 1.05634e-20)
(1.11565 -0.708932 7.20427e-21)
(1.1325 -0.474724 5.02663e-20)
(1.09128 -0.307656 4.34742e-21)
(1.0868 -0.213508 -7.89696e-22)
(1.0621 -0.133807 -9.06327e-22)
(1.06353 -0.0886495 -9.34619e-22)
(1.06319 -0.0614611 7.16931e-22)
(1.06183 -0.0419006 -2.46798e-22)
(1.06008 -0.0272289 -5.39845e-23)
(1.05751 -0.0166819 1.30929e-23)
(1.05396 -0.0094558 5.76541e-23)
(1.05049 -0.00491406 0)
(1.04763 -0.00273062 0)
(1.04516 -0.00156899 0)
(1.04308 -0.000840335 0)
(1.04145 -0.000460916 0)
(1.04033 -0.000213102 0)
(1.03967 2.53263e-05 -5.84884e-23)
(1.05134 0.00098315 9.78974e-24)
(1.0525 0.00319262 0)
(1.05471 0.00569986 0)
(1.05811 0.00851188 0)
(1.06282 0.0117457 0)
(1.06912 0.0155861 0)
(1.0776 0.0201019 0)
(1.08842 0.0246052 0)
(1.10141 0.0289398 7.6637e-24)
(1.11679 0.0335556 -5.14299e-23)
(1.13571 0.0392412 -3.79016e-23)
(1.15927 0.0448953 -1.08452e-22)
(1.18883 0.0525312 -3.77835e-22)
(1.22682 0.0591841 -4.89925e-22)
(1.26275 0.0391174 8.46723e-22)
(1.32826 0.0223556 8.4314e-23)
(1.35366 -0.0435316 -1.00072e-21)
(0.886382 -0.225297 7.27868e-21)
(0.330439 -0.534017 5.06163e-21)
(0.152745 -0.802596 -2.43046e-22)
(0.364947 -0.902989 1.1852e-22)
(0.69154 -0.787621 -7.3808e-21)
(0.832415 -0.582102 2.07114e-21)
(0.87108 -0.425244 -1.88538e-21)
(0.940502 -0.268071 2.90603e-21)
(0.98271 -0.180413 6.24528e-22)
(0.998683 -0.0993125 -7.72772e-22)
(1.01808 -0.0652779 8.14055e-22)
(1.0307 -0.0450917 1.53713e-22)
(1.03858 -0.0303236 2.27378e-22)
(1.04311 -0.0194951 -1.55491e-23)
(1.04509 -0.0116569 -1.88571e-23)
(1.04586 -0.00613851 0)
(1.04604 -0.00293418 0)
(1.04533 -0.00155864 0)
(1.04383 -0.000858062 0)
(1.04229 -0.000426767 -4.72104e-23)
(1.04098 -0.000176273 -6.52889e-23)
(1.04003 -8.97379e-05 -3.89324e-23)
(1.03956 4.65383e-05 0)
(1.04794 0.00138395 0)
(1.04884 0.00434923 0)
(1.0506 0.00759251 0)
(1.05334 0.0112816 0)
(1.05713 0.0156326 0)
(1.06228 0.0208829 0)
(1.06976 0.0272538 0)
(1.08006 0.034422 0)
(1.09245 0.0424898 2.35535e-25)
(1.1066 0.0517913 4.90426e-24)
(1.1236 0.0635869 -1.53681e-23)
(1.14501 0.0776928 -4.39742e-23)
(1.17236 0.0968056 -4.47075e-22)
(1.21009 0.121518 -1.56231e-22)
(1.25706 0.12286 -9.23214e-22)
(1.33525 0.14744 -5.16488e-22)
(1.43867 0.143604 -4.83828e-21)
(1.24864 0.0561479 -7.14297e-21)
(0.784061 -0.234834 -1.01826e-20)
(0.464114 -0.552072 8.91359e-21)
(0.365642 -0.71617 -3.45488e-21)
(0.419125 -0.649596 -3.73322e-21)
(0.548178 -0.443229 4.34443e-21)
(0.698747 -0.260023 4.26871e-22)
(0.823563 -0.159449 6.38591e-22)
(0.899179 -0.0995303 -2.26772e-21)
(0.952489 -0.0302453 8.18125e-23)
(0.987373 -0.0214871 -2.23262e-22)
(1.01075 -0.0133337 -1.38888e-22)
(1.02468 -0.00863527 2.96286e-23)
(1.0329 -0.00497827 -4.93025e-25)
(1.03779 -0.0022582 -2.81877e-26)
(1.04117 -0.000360171 0)
(1.04351 0.000439781 0)
(1.04409 0.000483248 0)
(1.04307 0.000415678 0)
(1.04173 0.000352867 0)
(1.04058 0.000290556 0)
(1.03981 0.000135983 0)
(1.03942 -4.31677e-05 7.01178e-24)
(1.04363 0.00159005 0)
(1.0442 0.00497775 0)
(1.0454 0.00869765 0)
(1.04731 0.0129174 0)
(1.04993 0.0179316 0)
(1.05357 0.024005 0)
(1.05934 0.0314501 0)
(1.06791 0.0402962 0)
(1.07809 0.0510936 0)
(1.0891 0.0643504 0)
(1.10154 0.0815135 3.87738e-24)
(1.11667 0.10304 7.76581e-23)
(1.13513 0.131816 -1.4589e-22)
(1.16125 0.168664 5.81928e-23)
(1.20405 0.196065 -1.66273e-20)
(1.25513 0.257074 -4.30668e-22)
(1.35682 0.33017 -1.3292e-21)
(1.38561 0.405933 1.18845e-20)
(1.15379 0.340041 -4.8495e-21)
(0.818667 0.156014 5.35451e-20)
(0.523432 -0.030801 8.2774e-21)
(0.339327 -0.143445 -4.99008e-23)
(0.348345 -0.164546 2.79814e-21)
(0.531584 -0.114585 3.90676e-22)
(0.759112 -0.0104928 6.35743e-21)
(0.856075 0.0209776 -1.73465e-22)
(0.942429 0.0541639 2.66471e-24)
(0.985417 0.0334107 1.17812e-24)
(1.01095 0.0251354 3.65709e-23)
(1.02487 0.0164437 1.93676e-24)
(1.03284 0.011235 0)
(1.0377 0.00781796 0)
(1.04129 0.00559941 0)
(1.04399 0.00382193 0)
(1.04464 0.00244729 0)
(1.04348 0.00151686 0)
(1.042 0.000904194 0)
(1.04079 0.00048793 0)
(1.03994 0.000206445 0)
(1.0394 -7.74762e-06 0)
(1.03902 0.00162636 0)
(1.03919 0.00511369 0)
(1.03973 0.0089233 0)
(1.04067 0.0132589 0)
(1.04198 0.0183805 0)
(1.04392 0.0245363 0)
(1.04761 0.0321555 0)
(1.0536 0.0415337 0)
(1.06013 0.0535226 0)
(1.06617 0.0687457 0)
(1.07196 0.088606 0)
(1.07779 0.114065 1.64869e-24)
(1.08466 0.147 -3.13829e-23)
(1.09362 0.191252 3.25385e-23)
(1.11942 0.233843 -5.09869e-21)
(1.13877 0.29947 1.19823e-21)
(1.18145 0.3923 -6.02322e-21)
(1.22578 0.553412 6.32739e-21)
(1.15503 0.701245 9.3269e-22)
(0.968281 0.741568 2.68214e-21)
(0.742671 0.662486 -4.18563e-21)
(0.560202 0.490604 1.24527e-20)
(0.503268 0.283687 3.7314e-21)
(0.551922 0.129924 1.9488e-21)
(0.66381 0.136963 -2.3495e-21)
(0.866144 0.153623 -1.50469e-21)
(0.983045 0.127442 8.92404e-22)
(1.01869 0.0818044 -1.40791e-22)
(1.03449 0.0568746 4.23914e-24)
(1.04049 0.0364584 0)
(1.04313 0.0236714 0)
(1.04441 0.0151528 0)
(1.04581 0.00955105 0)
(1.04719 0.00571842 0)
(1.04681 0.00327829 0)
(1.04491 0.0017539 0)
(1.04293 0.000825697 0)
(1.04138 0.000279748 0)
(1.04026 4.58407e-05 0)
(1.0395 -2.95464e-05 0)
(1.03438 0.00162507 0)
(1.0342 0.00483649 0)
(1.03415 0.00827446 0)
(1.03423 0.012121 0)
(1.03433 0.0166179 0)
(1.03457 0.0219996 0)
(1.0359 0.0288353 0)
(1.03865 0.037714 0)
(1.04079 0.0494743 0)
(1.04116 0.0646255 0)
(1.03966 0.0843367 -2.35747e-23)
(1.03587 0.109924 0)
(1.03035 0.142386 0)
(1.02358 0.186283 -1.34405e-21)
(1.01424 0.244538 -3.68097e-22)
(1.02401 0.302787 -9.10016e-21)
(0.999236 0.379204 1.17259e-21)
(0.985522 0.472333 -2.48507e-22)
(0.966627 0.57271 2.57259e-21)
(0.912747 0.645303 -8.86207e-21)
(0.84003 0.670522 -4.6328e-21)
(0.784169 0.630942 2.5188e-21)
(0.761283 0.546888 5.76116e-22)
(0.733894 0.436898 -1.31103e-21)
(0.702772 0.316319 -1.08653e-22)
(0.979163 0.25522 7.56916e-22)
(1.06548 0.155921 3.898e-21)
(1.08101 0.104215 0)
(1.07552 0.0692215 0)
(1.06766 0.0436428 2.72785e-24)
(1.06103 0.0275583 0)
(1.05616 0.0166808 0)
(1.05353 0.00946255 0)
(1.05214 0.00477917 0)
(1.0498 0.00215477 0)
(1.04667 0.000706733 0)
(1.04392 -2.15496e-05 0)
(1.04183 -0.00029319 7.76999e-24)
(1.04036 -0.000259289 5.57428e-24)
(1.03942 -8.00228e-05 0)
(1.0301 0.00134443 0)
(1.02986 0.00385074 0)
(1.02955 0.00646174 0)
(1.02907 0.0092884 0)
(1.02822 0.0125503 0)
(1.02696 0.0164265 0)
(1.02585 0.0215031 0)
(1.02504 0.0286492 0)
(1.02281 0.0385907 0)
(1.01795 0.0515454 0)
(1.00983 0.0685146 -1.70447e-23)
(0.99768 0.0908315 0)
(0.980844 0.119122 0)
(0.95842 0.157407 -7.35742e-22)
(0.93749 0.206817 4.33178e-21)
(0.917556 0.270577 7.76824e-22)
(0.885787 0.339821 0)
(0.838983 0.424068 -6.23483e-22)
(0.79362 0.521129 9.65342e-21)
(0.765006 0.616265 4.28474e-22)
(0.757895 0.66056 1.90822e-20)
(0.793419 0.662472 -2.55946e-20)
(0.848605 0.620465 1.21147e-21)
(0.912984 0.529216 0)
(0.988011 0.372886 1.38844e-21)
(1.13456 0.220422 -6.30008e-21)
(1.17134 0.127774 3.07892e-22)
(1.14962 0.0857513 0)
(1.11917 0.0538849 0)
(1.0968 0.0330295 3.74095e-22)
(1.08042 0.0194276 0)
(1.0691 0.0100876 0)
(1.06191 0.00396079 0)
(1.05701 0.000355819 0)
(1.05228 -0.00118066 0)
(1.0478 -0.00173904 -1.4057e-23)
(1.04425 -0.00172786 1.82668e-23)
(1.04168 -0.00138337 0)
(1.03997 -0.000841195 0)
(1.03903 -0.000252674 4.29264e-23)
(1.0272 0.000659961 0)
(1.02701 0.0021535 0)
(1.02662 0.00361065 0)
(1.02583 0.00514008 0)
(1.02443 0.00681659 0)
(1.02217 0.00871086 0)
(1.01907 0.0112322 6.91194e-24)
(1.01513 0.0152524 0)
(1.00921 0.021449 0)
(1.00013 0.0297586 0)
(0.986484 0.0410349 0)
(0.96683 0.0563688 0)
(0.939684 0.0769856 0)
(0.907348 0.105793 -3.06373e-22)
(0.858731 0.146179 6.45675e-24)
(0.807613 0.209198 9.99104e-23)
(0.753449 0.293556 0)
(0.697505 0.376346 0)
(0.671578 0.450368 8.60274e-22)
(0.695602 0.509744 -7.96131e-21)
(0.76497 0.512589 4.64478e-20)
(0.859784 0.502595 -1.36478e-20)
(0.969063 0.41529 0)
(1.08481 0.310114 0)
(1.19706 0.174284 0)
(1.27685 0.0824221 -9.94678e-24)
(1.24862 0.0399171 -5.41095e-22)
(1.19318 0.0264197 6.58015e-23)
(1.14757 0.0131279 0)
(1.11609 0.00566701 0)
(1.09349 -0.000204124 0)
(1.07786 -0.00407685 0)
(1.06716 -0.00629313 -6.16865e-23)
(1.05933 -0.00689131 -2.52791e-23)
(1.05279 -0.00621614 -1.27353e-24)
(1.04744 -0.00521759 0)
(1.04342 -0.00406659 0)
(1.04058 -0.0029006 0)
(1.03879 -0.00171163 0)
(1.03791 -0.000575339 0)
(1.0262 3.9192e-05 0)
(1.0259 0.000383521 0)
(1.02547 0.000585295 0)
(1.02467 0.000705905 0)
(1.02326 0.000618901 0)
(1.02081 0.00027014 0)
(1.01681 -0.000206941 0)
(1.01109 -0.000325491 0)
(1.00301 0.000360013 -2.03961e-24)
(0.991389 0.0014575 0)
(0.974145 0.00328812 0)
(0.948707 0.00606006 0)
(0.913572 0.012719 -2.58486e-22)
(0.864596 0.0234546 -8.24321e-21)
(0.791635 0.0501689 0)
(0.717796 0.0834908 0)
(0.663617 0.113194 0)
(0.629832 0.127003 0)
(0.632342 0.129238 -8.86732e-21)
(0.699227 0.124539 -1.74101e-20)
(0.824121 0.0910807 -1.14669e-19)
(0.962494 0.086499 4.38501e-20)
(1.10482 0.012354 0)
(1.22669 -0.0341288 0)
(1.30564 -0.0884755 0)
(1.32257 -0.090063 0)
(1.25667 -0.0699287 1.74893e-22)
(1.19336 -0.0489811 2.18877e-22)
(1.14926 -0.0380679 0)
(1.1176 -0.0296856 1.76783e-24)
(1.09466 -0.0252235 -5.38632e-24)
(1.07824 -0.0216092 -1.70827e-23)
(1.06627 -0.018467 0)
(1.05724 -0.0151943 0)
(1.05025 -0.0118655 0)
(1.04497 -0.00901291 0)
(1.04113 -0.00653443 0)
(1.03844 -0.00442042 0)
(1.03674 -0.0025578 0)
(1.03587 -0.000787537 0)
(1.02651 -0.000209052 0)
(1.02627 -0.000850814 0)
(1.02605 -0.00174846 0)
(1.02566 -0.00296448 0)
(1.02487 -0.00472634 0)
(1.02313 -0.00723386 0)
(1.01966 -0.0106194 0)
(1.01422 -0.0149211 0)
(1.00669 -0.0203472 0)
(0.996051 -0.0278344 0)
(0.979849 -0.0380646 -4.38112e-24)
(0.953719 -0.0520452 -1.4774e-22)
(0.910159 -0.0677265 -1.15291e-20)
(0.851104 -0.078796 -6.71808e-21)
(0.781882 -0.0833898 0)
(0.724087 -0.111411 0)
(0.69429 -0.157276 0)
(0.674432 -0.20785 0)
(0.681956 -0.262472 2.66584e-21)
(0.747288 -0.302716 -1.49574e-21)
(0.87727 -0.341784 -2.17282e-20)
(1.01366 -0.332655 7.47765e-20)
(1.14179 -0.352283 0)
(1.23515 -0.319977 0)
(1.27326 -0.283206 0)
(1.25443 -0.213904 0)
(1.19697 -0.152991 -3.80704e-22)
(1.15456 -0.109396 1.85629e-21)
(1.12447 -0.0804262 4.492e-22)
(1.10089 -0.060222 1.49506e-22)