/*--------------------------------*- C++ -*----------------------------------*\
| =========                 |                                                 |
| \\      /  F ield         | OpenFOAM: The Open Source CFD Toolbox           |
|  \\    /   O peration     | Version:  v2106                                 |
|   \\  /    A nd           | Website:  www.openfoam.com                      |
|    \\/     M anipulation  |                                                 |
\*---------------------------------------------------------------------------*/
FoamFile
{
    version     2.0;
    format      ascii;
    arch        "LSB;label=32;scalar=64";
    class       pointVectorField;
    location    "0";
    object      pointDisplacement;
}
// * * * * * * * * * * * * * * * * * * * * * * * * * * * * * * * * * * * * * //

dimensions      [0 1 0 0 0 0 0];

internalField   nonuniform List<vector> 
24440
(
(0 0 0)
(0 0 0)
(0 0 0)
(0 0 0)
(0 0 0)
(0 0 0)
(0 0 0)
(0 0 0)
(0 0 0)
(0 0 0)
(0 0 0)
(0 0 0)
(0 0 0)
(0 0 0)
(0 0 0)
(0 0 0)
(0 0 0)
(0 0 0)
(0 0 0)
(0 0 0)
(0 0 0)
(0 0 0)
(0 0 0)
(0 0 0)
(0 0 0)
(0 0 0)
(0 0 0)
(0 0 0)
(0 0 0)
(0 0 0)
(0 0 0)
(0 0 0)
(0 0 0)
(0 0 0)
(0 0 0)
(0 0 0)
(0 0 0)
(0 0 0)
(0 0 0)
(0 0 0)
(0 0 0)
(0 0 0)
(0 0 0)
(0 0 0)
(0 0 0)
(0 0 0)
(0 0 0)
(0 0 0)
(0 0 0)
(0 0 0)
(0 0 0)
(0 0 0)
(0 0 0)
(0 0 0)
(0 0 0)
(0 0 0)
(0 0 0)
(0 0 0)
(0 0 0)
(0 0 0)
(0 0 0)
(0 0 0)
(0 0 0)
(0 0 0)
(0 0 0)
(0 0 0)
(0 0 0)
(0 0 0)
(0 0 0)
(0 0 0)
(0 0 0)
(0 0 0)
(0 0 0)
(0 0 0)
(0 0 0)
(0 0 0)
(0 0 0)
(0 0 0)
(0 0 0)
(0 0 0)
(0 0 0)
(0 0 0)
(0 0 0)
(0 0 0)
(0 0 0)
(0 0 0)
(0 0 0)
(0 0 0)
(0 0 0)
(0 0 0)
(0 0 0)
(0 0 0)
(0 0 0)
(0 0 0)
(0 0 0)
(0 0 0)
(0 0 0)
(0 0 0)
(0 5.33292e-06 0)
(0 3.36297e-05 0)
(0 9.24746e-05 0)
(0 0.000142499 0)
(0 0.000161697 0)
(0 0.000142499 0)
(0 9.24746e-05 0)
(0 3.36297e-05 0)
(0 5.33292e-06 0)
(0 0 0)
(0 0 0)
(0 0 0)
(0 0 0)
(0 0 0)
(0 0 0)
(0 0 0)
(0 0 0)
(0 0 0)
(0 0 0)
(0 0 0)
(0 0 0)
(0 0 0)
(0 0 0)
(0 0 0)
(0 0 0)
(0 0 0)
(0 0 0)
(0 0 0)
(0 0 0)
(0 0 0)
(0 0 0)
(0 0 0)
(0 0 0)
(0 0 0)
(0 0 0)
(0 0 0)
(0 0 0)
(0 0 0)
(0 8.9312e-06 0)
(0 0.000118145 0)
(0 0.000347692 0)
(0 0.000626344 0)
(0 0.000893421 0)
(0 0.00107961 0)
(0 0.00125269 0)
(0 0.00131359 0)
(0 0.00125269 0)
(0 0.00107961 0)
(0 0.000893421 0)
(0 0.000626344 0)
(0 0.000347692 0)
(0 0.000118145 0)
(0 8.9312e-06 0)
(0 0 0)
(0 0 0)
(0 0 0)
(0 0 0)
(0 0 0)
(0 0 0)
(0 0 0)
(0 0 0)
(0 0 0)
(0 0 0)
(0 0 0)
(0 0 0)
(0 0 0)
(0 0 0)
(0 0 0)
(0 0 0)
(0 0 0)
(0 0 0)
(0 0 0)
(0 0 0)
(0 0 0)
(0 0 0)
(0 0 0)
(0 0 0)
(0 3.74983e-06 0)
(0 0.000155372 0)
(0 0.000529866 0)
(0 0.00104489 0)
(0 0.00157536 0)
(0 0.00216717 0)
(0 0.00267973 0)
(0 0.00299717 0)
(0 0.00330071 0)
(0 0.00340561 0)
(0 0.00330071 0)
(0 0.00299717 0)
(0 0.00267973 0)
(0 0.00216717 0)
(0 0.00157536 0)
(0 0.00104489 0)
(0 0.000529866 0)
(0 0.000155372 0)
(0 3.74983e-06 0)
(0 0 0)
(0 0 0)
(0 0 0)
(0 0 0)
(0 0 0)
(0 0 0)
(0 0 0)
(0 0 0)
(0 0 0)
(0 0 0)
(0 0 0)
(0 0 0)
(0 0 0)
(0 0 0)
(0 0 0)
(0 0 0)
(0 0 0)
(0 0 0)
(0 0 0)
(0 0 0)
(0 0 0)
(0 3.54565e-05 0)
(0 0.000368728 0)
(0 0.000979913 0)
(0 0.00171927 0)
(0 0.00263726 0)
(0 0.00356314 0)
(0 0.00436523 0)
(0 0.00511661 0)
(0 0.00564979 0)
(0 0.00596835 0)
(0 0.00611458 0)
(0 0.00596835 0)
(0 0.00564979 0)
(0 0.00511661 0)
(0 0.00436523 0)
(0 0.00356314 0)
(0 0.00263726 0)
(0 0.00171927 0)
(0 0.000979913 0)
(0 0.000368728 0)
(0 3.75367e-05 0)
(0 0 0)
(0 0 0)
(0 0 0)
(0 0 0)
(0 0 0)
(0 0 0)
(0 0 0)
(0 0 0)
(0 0 0)
(0 0 0)
(0 0 0)
(0 0 0)
(0 0 0)
(0 0 0)
(0 0 0)
(0 0 0)
(0 0 0)
(0 0 0)
(0 0 0)
(0 6.9735e-05 0)
(0 0.000488981 0)
(0 0.00122044 0)
(0 0.00224053 0)
(0 0.00345288 0)
(0 0.00471269 0)
(0 0.00586879 0)
(0 0.00696479 0)
(0 0.00737663 0)
(0 0.007822 0)
(0 0.00819453 0)
(0 0.00848804 0)
(0 0.00869793 0)
(0 0.00884307 0)
(0 0.00897714 0)
(0 0.00902204 0)
(0 0.00897714 0)
(0 0.00884307 0)
(0 0.00869793 0)
(0 0.00848804 0)
(0 0.00819453 0)
(0 0.007822 0)
(0 0.00737663 0)
(0 0.00696479 0)
(0 0.00586879 0)
(0 0.00471269 0)
(0 0.00345288 0)
(0 0.00224053 0)
(0 0.0011951 0)
(0 0.000441844 0)
(0 5.57228e-05 0)
(0 0 0)
(0 0 0)
(0 0 0)
(0 0 0)
(0 0 0)
(0 0 0)
(0 0 0)
(0 0 0)
(0 0 0)
(0 0 0)
(0 0 0)
(0 0 0)
(0 0 0)
(0 0 0)
(0 0 0)
(0 0 0)
(0 0 0)
(0 4.10169e-05 0)
(0 0.000469395 0)
(0 0.00130782 0)
(0 0.00246093 0)
(0 0.00381162 0)
(0 0.00540079 0)
(0 0.00616066 0)
(0 0.00683418 0)
(0 0.00757963 0)
(0 0.00827835 0)
(0 0.00891763 0)
(0 0.00946072 0)
(0 0.00824516 0)
(0 0.00874858 0)
(0 0.00914588 0)
(0 0.00954661 0)
(0 0.00986097 0)
(0 0.010085 0)
(0 0.0102193 0)
(0 0.0103616 0)
(0 0.0104092 0)
(0 0.0103616 0)
(0 0.0102193 0)
(0 0.010085 0)
(0 0.00986097 0)
(0 0.00954661 0)
(0 0.00914588 0)
(0 0.00874858 0)
(0 0.00824516 0)
(0 0.00946072 0)
(0 0.00891763 0)
(0 0.00827835 0)
(0 0.00757963 0)
(0 0.00683418 0)
(0 0.00616066 0)
(0 0.00540079 0)
(0 0.00381162 0)
(0 0.00246093 0)
(0 0.00126011 0)
(0 0.000448973 0)
(0 3.72493e-05 0)
(0 0 0)
(0 0 0)
(0 0 0)
(0 0 0)
(0 0 0)
(0 0 0)
(0 0 0)
(0 0 0)
(0 0 0)
(0 0 0)
(0 0 0)
(0 0 0)
(0 0 0)
(0 0 0)
(0 0 0)
(0 0 0)
(0 0.000259522 0)
(0 0.00106057 0)
(0 0.00226736 0)
(0 0.00378322 0)
(0 0.00547154 0)
(0 0.00718707 0)
(0 0.00632593 0)
(0 0.00715225 0)
(0 0.00794737 0)
(0 0.00869606 0)
(0 0.00936124 0)
(0 0.0100358 0)
(0 0.0106319 0)
(0 0.0111244 0)
(0 0.00999564 0)
(0 0.0104462 0)
(0 0.0115888 0)
(0 0.0119232 0)
(0 0.0108046 0)
(0 0.0111326 0)
(0 0.0122558 0)
(0 0.0124898 0)
(0 0.0113653 0)
(0 0.0114832 0)
(0 0.0126255 0)
(0 0.0127332 0)
(0 0.0116299 0)
(0 0.0116789 0)
(0 0.0127818 0)
(0 0.0127332 0)
(0 0.0116299 0)
(0 0.0114832 0)
(0 0.0126255 0)
(0 0.0124898 0)
(0 0.0113653 0)
(0 0.0111326 0)
(0 0.0122558 0)
(0 0.0119232 0)
(0 0.0108046 0)
(0 0.0104462 0)
(0 0.0115888 0)
(0 0.0111244 0)
(0 0.00999564 0)
(0 0.0106319 0)
(0 0.0100358 0)
(0 0.00936124 0)
(0 0.00869606 0)
(0 0.00794737 0)
(0 0.00715225 0)
(0 0.00632593 0)
(0 0.00718707 0)
(0 0.00547154 0)
(0 0.00373768 0)
(0 0.00224946 0)
(0 0.00105944 0)
(0 0.000282142 0)
(0 0 0)
(0 0 0)
(0 0 0)
(0 0 0)
(0 0 0)
(0 0 0)
(0 0 0)
(0 0 0)
(0 0 0)
(0 0 0)
(0 0 0)
(0 0 0)
(0 0 0)
(0 0 0)
(0 0 0)
(0 5.66144e-05 0)
(0 0.000581639 0)
(0 0.00167656 0)
(0 0.00314121 0)
(0 0.00488241 0)
(0 0.0068773 0)
(0 0.00879885 0)
(0 0.00805104 0)
(0 0.00892154 0)
(0 0.00801079 0)
(0 0.00890674 0)
(0 0.00973977 0)
(0 0.0105606 0)
(0 0.00969524 0)
(0 0.0104153 0)
(0 0.0113007 0)
(0 0.0116381 0)
(0 0.0119522 0)
(0 0.0115251 0)
(0 0.0110232 0)
(0 0.0116349 0)
(0 0.0120736 0)
(0 0.0123446 0)
(0 0.0119057 0)
(0 0.0125646 0)
(0 0.0129807 0)
(0 0.0131733 0)
(0 0.0127601 0)
(0 0.0131909 0)
(0 0.013598 0)
(0 0.0136994 0)
(0 0.0133163 0)
(0 0.0135467 0)
(0 0.0139197 0)
(0 0.0139728 0)
(0 0.0136084 0)
(0 0.0136748 0)
(0 0.0140313 0)
(0 0.0140205 0)
(0 0.0136633 0)
(0 0.0135467 0)
(0 0.0139197 0)
(0 0.0138694 0)
(0 0.0134938 0)
(0 0.0131909 0)
(0 0.013598 0)
(0 0.0134814 0)
(0 0.0130753 0)
(0 0.0125646 0)
(0 0.0129807 0)
(0 0.0128107 0)
(0 0.0123439 0)
(0 0.0116349 0)
(0 0.0120736 0)
(0 0.011778 0)
(0 0.0113404 0)
(0 0.0104153 0)
(0 0.0113007 0)
(0 0.0105606 0)
(0 0.00969524 0)
(0 0.00890674 0)
(0 0.00973977 0)
(0 0.00892154 0)
(0 0.00801079 0)
(0 0.00805104 0)
(0 0.00875921 0)
(0 0.00687256 0)
(0 0.00496111 0)
(0 0.00311483 0)
(0 0.00166024 0)
(0 0.00061079 0)
(0 6.47415e-05 0)
(0 0 0)
(0 0 0)
(0 0 0)
(0 0 0)
(0 0 0)
(0 0 0)
(0 0 0)
(0 0 0)
(0 0 0)
(0 0 0)
(0 0 0)
(0 0 0)
(0 0 0)
(0 0 0)
(0 0.000185229 0)
(0 0.000937455 0)
(0 0.0022026 0)
(0 0.00387026 0)
(0 0.00579748 0)
(0 0.00791723 0)
(0 0.00989559 0)
(0 0.00940746 0)
(0 0.0103384 0)
(0 0.00970484 0)
(0 0.0105507 0)
(0 0.0112018 0)
(0 0.0119816 0)
(0 0.0113212 0)
(0 0.0120038 0)
(0 0.0123573 0)
(0 0.0126614 0)
(0 0.0123569 0)
(0 0.0132161 0)
(0 0.0133623 0)
(0 0.0134804 0)
(0 0.0133354 0)
(0 0.0139905 0)
(0 0.0141075 0)
(0 0.0141835 0)
(0 0.0140689 0)
(0 0.014449 0)
(0 0.0145342 0)
(0 0.0145729 0)
(0 0.014487 0)
(0 0.0146499 0)
(0 0.0147124 0)
(0 0.0147213 0)
(0 0.0146606 0)
(0 0.0147013 0)
(0 0.0147516 0)
(0 0.0147508 0)
(0 0.0147 0)
(0 0.0146499 0)
(0 0.0147124 0)
(0 0.0147001 0)
(0 0.0146352 0)
(0 0.014449 0)
(0 0.0145342 0)
(0 0.0145018 0)
(0 0.0144032 0)
(0 0.0139905 0)
(0 0.0141075 0)
(0 0.0140414 0)
(0 0.0139053 0)
(0 0.0132161 0)
(0 0.0133623 0)
(0 0.0134962 0)
(0 0.0132415 0)
(0 0.0129567 0)
(0 0.0120038 0)
(0 0.0123573 0)
(0 0.0126645 0)
(0 0.0119816 0)
(0 0.0113212 0)
(0 0.0105507 0)
(0 0.0111763 0)
(0 0.0103318 0)
(0 0.00970484 0)
(0 0.00941872 0)
(0 0.00992491 0)
(0 0.00789733 0)
(0 0.00585523 0)
(0 0.00391084 0)
(0 0.00222811 0)
(0 0.000950832 0)
(0 0.000189798 0)
(0 0 0)
(0 0 0)
(0 0 0)
(0 0 0)
(0 0 0)
(0 0 0)
(0 0 0)
(0 0 0)
(0 0 0)
(0 0 0)
(0 0 0)
(0 0 0)
(0 0 0)
(0 0 0)
(0 0.000285618 0)
(0 0.00116458 0)
(0 0.00256279 0)
(0 0.00436218 0)
(0 0.0064112 0)
(0 0.00853769 0)
(0 0.0105636 0)
(0 0.0103126 0)
(0 0.0112362 0)
(0 0.0108075 0)
(0 0.0116436 0)
(0 0.0120777 0)
(0 0.0128205 0)
(0 0.0124617 0)
(0 0.0131379 0)
(0 0.0133049 0)
(0 0.0135959 0)
(0 0.0134327 0)
(0 0.0141334 0)
(0 0.0142105 0)
(0 0.0142976 0)
(0 0.0142229 0)
(0 0.0146704 0)
(0 0.0147076 0)
(0 0.0147388 0)
(0 0.0147059 0)
(0 0.014799 0)
(0 0.014799 0)
(0 0.014799 0)
(0 0.014799 0)
(0 0.014799 0)
(0 0.014799 0)
(0 0.014799 0)
(0 0.014799 0)
(0 0.014799 0)
(0 0.014799 0)
(0 0.014799 0)
(0 0.014799 0)
(0 0.014799 0)
(0 0.014799 0)
(0 0.014799 0)
(0 0.014799 0)
(0 0.014799 0)
(0 0.014799 0)
(0 0.014799 0)
(0 0.014799 0)
(0 0.0146704 0)
(0 0.0147076 0)
(0 0.0146666 0)
(0 0.0146277 0)
(0 0.0141334 0)
(0 0.0142105 0)
(0 0.0142765 0)
(0 0.0140752 0)
(0 0.013931 0)
(0 0.0131302 0)
(0 0.0133243 0)
(0 0.0134725 0)
(0 0.0128027 0)
(0 0.0124728 0)
(0 0.01171 0)
(0 0.0120627 0)
(0 0.0112243 0)
(0 0.0108552 0)
(0 0.0103039 0)
(0 0.0105689 0)
(0 0.00853419 0)
(0 0.00640101 0)
(0 0.00434819 0)
(0 0.0025482 0)
(0 0.00115251 0)
(0 0.000278761 0)
(0 0 0)
(0 0 0)
(0 0 0)
(0 0 0)
(0 0 0)
(0 0 0)
(0 0 0)
(0 0 0)
(0 0 0)
(0 0 0)
(0 0 0)
(0 0 0)
(0 0 0)
(0 0 0)
(0 0.00030282 0)
(0 0.00120181 0)
(0 0.00262147 0)
(0 0.00444253 0)
(0 0.00651196 0)
(0 0.0086559 0)
(0 0.0106942 0)
(0 0.010698 0)
(0 0.0116225 0)
(0 0.0114855 0)
(0 0.0123207 0)
(0 0.0124579 0)
(0 0.0131864 0)
(0 0.0130523 0)
(0 0.0136891 0)
(0 0.0137506 0)
(0 0.0140059 0)
(0 0.0139504 0)
(0 0.0145267 0)
(0 0.0145504 0)
(0 0.0146134 0)
(0 0.0145915 0)
(0 0.014799 0)
(0 0.014799 0)
(0 0.014799 0)
(0 0.014799 0)
(0 0.014799 0)
(0 0.014799 0)
(0 0.014799 0)
(0 0.014799 0)
(0 0.014799 0)
(0 0.014799 0)
(0 0.014799 0)
(0 0.014799 0)
(0 0.014799 0)
(0 0.014799 0)
(0 0.014799 0)
(0 0.014799 0)
(0 0.014799 0)
(0 0.0147984 0)
(0 0.0147962 0)
(0 0.0145267 0)
(0 0.0145504 0)
(0 0.0145661 0)
(0 0.0144181 0)
(0 0.0143659 0)
(0 0.0136882 0)
(0 0.0137515 0)
(0 0.0137929 0)
(0 0.0131864 0)
(0 0.0130712 0)
(0 0.0123354 0)
(0 0.0124265 0)
(0 0.0115865 0)
(0 0.0114955 0)
(0 0.0106581 0)
(0 0.0106703 0)
(0 0.00862928 0)
(0 0.00648493 0)
(0 0.00441742 0)
(0 0.00260048 0)
(0 0.00118675 0)
(0 0.000295016 0)
(0 0 0)
(0 0 0)
(0 0 0)
(0 0 0)
(0 0 0)
(0 0 0)
(0 0 0)
(0 0 0)
(0 0 0)
(0 0 0)
(0 0 0)
(0 0 0)
(0 0 0)
(0 0 0)
(0 0.000247474 0)
(0 0.00108156 0)
(0 0.00243326 0)
(0 0.00418727 0)
(0 0.0061951 0)
(0 0.00828792 0)
(0 0.0102915 0)
(0 0.0105807 0)
(0 0.0115037 0)
(0 0.0116195 0)
(0 0.0124557 0)
(0 0.0123397 0)
(0 0.0130717 0)
(0 0.0131851 0)
(0 0.0137923 0)
(0 0.0137598 0)
(0 0.0140151 0)
(0 0.014046 0)
(0 0.0145921 0)
(0 0.0145843 0)
(0 0.0146434 0)
(0 0.0146504 0)
(0 0.014799 0)
(0 0.014799 0)
(0 0.014799 0)
(0 0.014799 0)
(0 0.014799 0)
(0 0.014799 0)
(0 0.014799 0)
(0 0.014799 0)
(0 0.014799 0)
(0 0.014799 0)
(0 0.014799 0)
(0 0.014799 0)
(0 0.014799 0)
(0 0.014799 0)
(0 0.014799 0)
(0 0.014799 0)
(0 0.0145921 0)
(0 0.014578 0)
(0 0.0145703 0)
(0 0.0144227 0)
(0 0.0144395 0)
(0 0.0137795 0)
(0 0.0137588 0)
(0 0.013696 0)
(0 0.0130807 0)
(0 0.0131689 0)
(0 0.0124365 0)
(0 0.0123463 0)
(0 0.0115076 0)
(0 0.0115977 0)
(0 0.010582 0)
(0 0.0103177 0)
(0 0.00830714 0)
(0 0.00620765 0)
(0 0.00419419 0)
(0 0.00243601 0)
(0 0.00108183 0)
(0 0.000246933 0)
(0 0 0)
(0 0 0)
(0 0 0)
(0 0 0)
(0 0 0)
(0 0 0)
(0 0 0)
(0 0 0)
(0 0 0)
(0 0 0)
(0 0 0)
(0 0 0)
(0 0 0)
(0 0 0)
(0 0.000125168 0)
(0 0.000786207 0)
(0 0.00195553 0)
(0 0.00352813 0)
(0 0.00548524 0)
(0 0.00748651 0)
(0 0.00943857 0)
(0 0.00995624 0)
(0 0.0108816 0)
(0 0.0112078 0)
(0 0.012097 0)
(0 0.0117307 0)
(0 0.0124875 0)
(0 0.0128512 0)
(0 0.0134918 0)
(0 0.0133383 0)
(0 0.0136167 0)
(0 0.0137658 0)
(0 0.014391 0)
(0 0.0143473 0)
(0 0.0144267 0)
(0 0.0144733 0)
(0 0.0147811 0)
(0 0.0147659 0)
(0 0.014784 0)
(0 0.0147934 0)
(0 0.014799 0)
(0 0.014799 0)
(0 0.014799 0)
(0 0.014799 0)
(0 0.014799 0)
(0 0.014799 0)
(0 0.014799 0)
(0 0.014799 0)
(0 0.0147811 0)
(0 0.0147637 0)
(0 0.0147396 0)
(0 0.0147611 0)
(0 0.014391 0)
(0 0.0143473 0)
(0 0.0142879 0)
(0 0.0140997 0)
(0 0.0142159 0)
(0 0.0134918 0)
(0 0.0133383 0)
(0 0.013164 0)
(0 0.0124875 0)
(0 0.0128512 0)
(0 0.0120744 0)
(0 0.0117307 0)
(0 0.0108816 0)
(0 0.0112372 0)
(0 0.00995624 0)
(0 0.00943857 0)
(0 0.00748651 0)
(0 0.00541455 0)
(0 0.00356281 0)
(0 0.00197827 0)
(0 0.000798657 0)
(0 0.000129375 0)
(0 0 0)
(0 0 0)
(0 0 0)
(0 0 0)
(0 0 0)
(0 0 0)
(0 0 0)
(0 0 0)
(0 0 0)
(0 0 0)
(0 0 0)
(0 0 0)
(0 0 0)
(0 0 0)
(0 1.54877e-05 0)
(0 0.00045975 0)
(0 0.00139999 0)
(0 0.00275296 0)
(0 0.00439495 0)
(0 0.00618187 0)
(0 0.00805697 0)
(0 0.00876795 0)
(0 0.00972137 0)
(0 0.0103465 0)
(0 0.0112297 0)
(0 0.0105561 0)
(0 0.011392 0)
(0 0.0119978 0)
(0 0.0127035 0)
(0 0.0124205 0)
(0 0.0127322 0)
(0 0.0130128 0)
(0 0.0137702 0)
(0 0.0136441 0)
(0 0.0137587 0)
(0 0.0138634 0)
(0 0.0144395 0)
(0 0.0143566 0)
(0 0.0144171 0)
(0 0.0144968 0)
(0 0.0147388 0)
(0 0.0146924 0)
(0 0.0147128 0)
(0 0.0147551 0)
(0 0.014799 0)
(0 0.0147908 0)
(0 0.014794 0)
(0 0.014799 0)
(0 0.014799 0)
(0 0.014799 0)
(0 0.014799 0)
(0 0.014799 0)
(0 0.014799 0)
(0 0.014799 0)
(0 0.0147908 0)
(0 0.0147862 0)
(0 0.0147985 0)
(0 0.0147989 0)
(0 0.0147388 0)
(0 0.0146924 0)
(0 0.0146673 0)
(0 0.0147178 0)
(0 0.0144395 0)
(0 0.0143566 0)
(0 0.0142892 0)
(0 0.0143751 0)
(0 0.0137803 0)
(0 0.0136646 0)
(0 0.0135256 0)
(0 0.0132957 0)
(0 0.0135457 0)
(0 0.0126686 0)
(0 0.0124061 0)
(0 0.0120995 0)
(0 0.0113764 0)
(0 0.0119978 0)
(0 0.0112297 0)
(0 0.0105561 0)
(0 0.00972137 0)
(0 0.0103465 0)
(0 0.00876795 0)
(0 0.00805697 0)
(0 0.00618187 0)
(0 0.00439495 0)
(0 0.00275296 0)
(0 0.00139999 0)
(0 0.000428855 0)
(0 1.86036e-05 0)
(0 0 0)
(0 0 0)
(0 0 0)
(0 0 0)
(0 0 0)
(0 0 0)
(0 0 0)
(0 0 0)
(0 0 0)
(0 0 0)
(0 0 0)
(0 0 0)
(0 0 0)
(0 0 0)
(0 0 0)
(0 0.000141314 0)
(0 0.000744672 0)
(0 0.00175205 0)
(0 0.00305836 0)
(0 0.00469052 0)
(0 0.00637808 0)
(0 0.00717416 0)
(0 0.00811355 0)
(0 0.00891685 0)
(0 0.00978773 0)
(0 0.00895924 0)
(0 0.00974994 0)
(0 0.0106063 0)
(0 0.0113474 0)
(0 0.0104718 0)
(0 0.011076 0)
(0 0.0115778 0)
(0 0.0119995 0)
(0 0.0116852 0)
(0 0.0125603 0)
(0 0.0121219 0)
(0 0.0123929 0)
(0 0.0128083 0)
(0 0.0134291 0)
(0 0.0130532 0)
(0 0.0132035 0)
(0 0.0135932 0)
(0 0.0139792 0)
(0 0.0136461 0)
(0 0.0137439 0)
(0 0.0140715 0)
(0 0.0142645 0)
(0 0.0139571 0)
(0 0.0140113 0)
(0 0.0143023 0)
(0 0.0143529 0)
(0 0.014069 0)
(0 0.0140543 0)
(0 0.0143413 0)
(0 0.0142645 0)
(0 0.0139571 0)
(0 0.0138801 0)
(0 0.0142052 0)
(0 0.0139792 0)
(0 0.0136461 0)
(0 0.0135237 0)
(0 0.0138628 0)
(0 0.0134291 0)
(0 0.0130532 0)
(0 0.0128588 0)
(0 0.0132388 0)
(0 0.0125603 0)
(0 0.0121219 0)
(0 0.0118673 0)
(0 0.0122894 0)
(0 0.0113474 0)
(0 0.0104718 0)
(0 0.00974994 0)
(0 0.0106063 0)
(0 0.00978773 0)
(0 0.00895924 0)
(0 0.00811355 0)
(0 0.00891685 0)
(0 0.00717416 0)
(0 0.00637808 0)
(0 0.00469052 0)
(0 0.00305836 0)
(0 0.00175205 0)
(0 0.000744672 0)
(0 0.000141314 0)
(0 0 0)
(0 0 0)
(0 0 0)
(0 0 0)
(0 0 0)
(0 0 0)
(0 0 0)
(0 0 0)
(0 0 0)
(0 0 0)
(0 0 0)
(0 0 0)
(0 0 0)
(0 0 0)
(0 0 0)
(0 0 0)
(0 0 0)
(0 0.000212954 0)
(0 0.00087934 0)
(0 0.00188506 0)
(0 0.00313234 0)
(0 0.00449852 0)
(0 0.00584715 0)
(0 0.00689372 0)
(0 0.00800659 0)
(0 0.00720814 0)
(0 0.00764268 0)
(0 0.00875815 0)
(0 0.00942105 0)
(0 0.00834446 0)
(0 0.00898632 0)
(0 0.0100976 0)
(0 0.0106951 0)
(0 0.0101422 0)
(0 0.0103556 0)
(0 0.0109617 0)
(0 0.0116417 0)
(0 0.011098 0)
(0 0.0112998 0)
(0 0.011845 0)
(0 0.0123084 0)
(0 0.0117615 0)
(0 0.0118517 0)
(0 0.0124136 0)
(0 0.0127081 0)
(0 0.012183 0)
(0 0.0122443 0)
(0 0.012769 0)
(0 0.0128405 0)
(0 0.0123186 0)
(0 0.0122934 0)
(0 0.0128175 0)
(0 0.0127081 0)
(0 0.012183 0)
(0 0.0120971 0)
(0 0.0126228 0)
(0 0.0123084 0)
(0 0.0117615 0)
(0 0.0116318 0)
(0 0.0121785 0)
(0 0.0116417 0)
(0 0.011098 0)
(0 0.010873 0)
(0 0.0114144 0)
(0 0.0106951 0)
(0 0.0101422 0)
(0 0.00950307 0)
(0 0.00898632 0)
(0 0.0100976 0)
(0 0.00942105 0)
(0 0.00834446 0)
(0 0.00764268 0)
(0 0.00875815 0)
(0 0.00800659 0)
(0 0.00689372 0)
(0 0.00584715 0)
(0 0.00449852 0)
(0 0.00720814 0)
(0 0.00313234 0)
(0 0.00188506 0)
(0 0.00087934 0)
(0 0.000212954 0)
(0 0 0)
(0 0 0)
(0 0 0)
(0 0 0)
(0 0 0)
(0 0 0)
(0 0 0)
(0 0 0)
(0 0 0)
(0 0 0)
(0 0 0)
(0 0 0)
(0 0 0)
(0 0 0)
(0 0 0)
(0 0 0)
(0 0 0)
(0 0 0)
(0 2.70053e-06 0)
(0 0.000241923 0)
(0 0.000819798 0)
(0 0.00160651 0)
(0 0.00262951 0)
(0 0.00372054 0)
(0 0.00477541 0)
(0 0.00539121 0)
(0 0.00653424 0)
(0 0.00718228 0)
(0 0.0059103 0)
(0 0.00649596 0)
(0 0.00771624 0)
(0 0.00830171 0)
(0 0.00767259 0)
(0 0.0079301 0)
(0 0.00856942 0)
(0 0.00925955 0)
(0 0.00859568 0)
(0 0.00877887 0)
(0 0.009449 0)
(0 0.00987825 0)
(0 0.00921348 0)
(0 0.00936148 0)
(0 0.0100306 0)
(0 0.0103497 0)
(0 0.00967211 0)
(0 0.0097301 0)
(0 0.0104092 0)
(0 0.0104876 0)
(0 0.00980853 0)
(0 0.00977661 0)
(0 0.0104569 0)
(0 0.0103497 0)
(0 0.00967211 0)
(0 0.00959117 0)
(0 0.0102666 0)
(0 0.00987825 0)
(0 0.00921348 0)
(0 0.00904402 0)
(0 0.00976289 0)
(0 0.00925955 0)
(0 0.00859568 0)
(0 0.00839261 0)
(0 0.00904928 0)
(0 0.00830171 0)
(0 0.00767259 0)
(0 0.00703209 0)
(0 0.00649596 0)
(0 0.00771624 0)
(0 0.00718228 0)
(0 0.0059103 0)
(0 0.00539121 0)
(0 0.00653424 0)
(0 0.00477541 0)
(0 0.00372054 0)
(0 0.00262951 0)
(0 0.00160651 0)
(0 0.000819798 0)
(0 0.000241923 0)
(0 2.70053e-06 0)
(0 0 0)
(0 0 0)
(0 0 0)
(0 0 0)
(0 0 0)
(0 0 0)
(0 0 0)
(0 0 0)
(0 0 0)
(0 0 0)
(0 0 0)
(0 0 0)
(0 0 0)
(0 0 0)
(0 0 0)
(0 0 0)
(0 0 0)
(0 0 0)
(0 0 0)
(0 0 0)
(0 0.00012705 0)
(0 0.000529158 0)
(0 0.00107197 0)
(0 0.001805 0)
(0 0.00266896 0)
(0 0.00314714 0)
(0 0.00419355 0)
(0 0.00474272 0)
(0 0.00361575 0)
(0 0.00406299 0)
(0 0.00526235 0)
(0 0.00574107 0)
(0 0.00510293 0)
(0 0.00530984 0)
(0 0.00596188 0)
(0 0.0065368 0)
(0 0.00584991 0)
(0 0.00594847 0)
(0 0.00662561 0)
(0 0.00712553 0)
(0 0.00642053 0)
(0 0.00654401 0)
(0 0.00725606 0)
(0 0.00753113 0)
(0 0.00680455 0)
(0 0.0068534 0)
(0 0.00758265 0)
(0 0.00765773 0)
(0 0.00692628 0)
(0 0.00689262 0)
(0 0.00762402 0)
(0 0.00753113 0)
(0 0.00680455 0)
(0 0.00673647 0)
(0 0.0074593 0)
(0 0.00712553 0)
(0 0.00642053 0)
(0 0.00627964 0)
(0 0.00697648 0)
(0 0.0065368 0)
(0 0.00584991 0)
(0 0.00568431 0)
(0 0.00636073 0)
(0 0.00574107 0)
(0 0.00510293 0)
(0 0.00447803 0)
(0 0.00406299 0)
(0 0.00526235 0)
(0 0.00474272 0)
(0 0.00361575 0)
(0 0.00314714 0)
(0 0.00419355 0)
(0 0.00266896 0)
(0 0.001805 0)
(0 0.00107197 0)
(0 0.000529158 0)
(0 0.00012705 0)
(0 0 0)
(0 0 0)
(0 0 0)
(0 0 0)
(0 0 0)
(0 0 0)
(0 0 0)
(0 0 0)
(0 0 0)
(0 0 0)
(0 0 0)
(0 0 0)
(0 0 0)
(0 0 0)
(0 0 0)
(0 0 0)
(0 0 0)
(0 0 0)
(0 0 0)
(0 0 0)
(0 0 0)
(0 0 0)
(0 0 0)
(0 1.08193e-05 0)
(0 0.000183521 0)
(0 0.00051218 0)
(0 0.00107444 0)
(0 0.00136696 0)
(0 0.00219118 0)
(0 0.00257501 0)
(0 0.00166399 0)
(0 0.00195548 0)
(0 0.00294552 0)
(0 0.00329253 0)
(0 0.00274383 0)
(0 0.00288979 0)
(0 0.0034543 0)
(0 0.00384392 0)
(0 0.00325323 0)
(0 0.00339018 0)
(0 0.00399441 0)
(0 0.00437361 0)
(0 0.00373625 0)
(0 0.00382754 0)
(0 0.00447341 0)
(0 0.00468476 0)
(0 0.00402117 0)
(0 0.00405762 0)
(0 0.00472451 0)
(0 0.00478799 0)
(0 0.00411713 0)
(0 0.00408693 0)
(0 0.00475645 0)
(0 0.00468476 0)
(0 0.00402117 0)
(0 0.00397044 0)
(0 0.00462943 0)
(0 0.00437361 0)
(0 0.00373625 0)
(0 0.00363247 0)
(0 0.00426005 0)
(0 0.00384392 0)
(0 0.00325323 0)
(0 0.00310692 0)
(0 0.00368287 0)
(0 0.00329253 0)
(0 0.00274383 0)
(0 0.00223204 0)
(0 0.00195548 0)
(0 0.00294552 0)
(0 0.00257501 0)
(0 0.00166399 0)
(0 0.00136696 0)
(0 0.00219118 0)
(0 0.00107444 0)
(0 0.00051218 0)
(0 0.000183521 0)
(0 1.08193e-05 0)
(0 0 0)
(0 0 0)
(0 0 0)
(0 0 0)
(0 0 0)
(0 0 0)
(0 0 0)
(0 0 0)
(0 0 0)
(0 0 0)
(0 0 0)
(0 0 0)
(0 0 0)
(0 0 0)
(0 0 0)
(0 0 0)
(0 0 0)
(0 0 0)
(0 0 0)
(0 0 0)
(0 0 0)
(0 0 0)
(0 0 0)
(0 0 0)
(0 0 0)
(0 0 0)
(0 1.96122e-06 0)
(0 0.000147345 0)
(0 0.000256648 0)
(0 0.000711659 0)
(0 0.00092205 0)
(0 0.000382692 0)
(0 0.000517483 0)
(0 0.00113431 0)
(0 0.00133991 0)
(0 0.000922335 0)
(0 0.00101676 0)
(0 0.00139053 0)
(0 0.00170734 0)
(0 0.00128492 0)
(0 0.00136631 0)
(0 0.00180264 0)
(0 0.00204636 0)
(0 0.00157575 0)
(0 0.00163184 0)
(0 0.0021113 0)
(0 0.00224986 0)
(0 0.00175186 0)
(0 0.00177462 0)
(0 0.00227607 0)
(0 0.00232165 0)
(0 0.00181502 0)
(0 0.00179295 0)
(0 0.00229717 0)
(0 0.00224986 0)
(0 0.00175186 0)
(0 0.00172028 0)
(0 0.00221346 0)
(0 0.00204636 0)
(0 0.00157575 0)
(0 0.00151241 0)
(0 0.00197286 0)
(0 0.00170734 0)
(0 0.00128492 0)
(0 0.00119896 0)
(0 0.00160629 0)
(0 0.00133991 0)
(0 0.000922335 0)
(0 0.000620231 0)
(0 0.000517483 0)
(0 0.00113431 0)
(0 0.00092205 0)
(0 0.000382692 0)
(0 0.000256648 0)
(0 0.000711659 0)
(0 0.000147345 0)
(0 1.96122e-06 0)
(0 0 0)
(0 0 0)
(0 0 0)
(0 0 0)
(0 0 0)
(0 0 0)
(0 0 0)
(0 0 0)
(0 0 0)
(0 0 0)
(0 0 0)
(0 0 0)
(0 0 0)
(0 0 0)
(0 0 0)
(0 0 0)
(0 0 0)
(0 0 0)
(0 0 0)
(0 0 0)
(0 0 0)
(0 0 0)
(0 0 0)
(0 0 0)
(0 0 0)
(0 0 0)
(0 0 0)
(0 0 0)
(0 0 0)
(0 0 0)
(0 0 0)
(0 7.20278e-05 0)
(0 2.60516e-05 0)
(0 0 0)
(0 0.000113263 0)
(0 0.000189221 0)
(0 5.79298e-06 0)
(0 2.53208e-05 0)
(0 0.000272683 0)
(0 0.000357254 0)
(0 5.33923e-05 0)
(0 8.5016e-05 0)
(0 0.000437165 0)
(0 0.000507404 0)
(0 0.000115834 0)
(0 0.000142229 0)
(0 0.000563828 0)
(0 0.00060325 0)
(0 0.000161411 0)
(0 0.000171482 0)
(0 0.00062351 0)
(0 0.00063972 0)
(0 0.000180087 0)
(0 0.000171482 0)
(0 0.00062351 0)
(0 0.00060325 0)
(0 0.000161411 0)
(0 0.000142229 0)
(0 0.000563828 0)
(0 0.000507404 0)
(0 0.000115834 0)
(0 8.5016e-05 0)
(0 0.000437165 0)
(0 0.000357254 0)
(0 5.33923e-05 0)
(0 2.53208e-05 0)
(0 0.000272683 0)
(0 0.000189221 0)
(0 5.79298e-06 0)
(0 0 0)
(0 0.000113263 0)
(0 7.20278e-05 0)
(0 0 0)
(0 0 0)
(0 0 0)
(0 2.60516e-05 0)
(0 0 0)
(0 0 0)
(0 0 0)
(0 0 0)
(0 0 0)
(0 0 0)
(0 0 0)
(0 0 0)
(0 0 0)
(0 0 0)
(0 0 0)
(0 0 0)
(0 0 0)
(0 0 0)
(0 0 0)
(0 0 0)
(0 0 0)
(0 0 0)
(0 0 0)
(0 0 0)
(0 0 0)
(0 0 0)
(0 0 0)
(0 0 0)
(0 0 0)
(0 0 0)
(0 0 0)
(0 0 0)
(0 0 0)
(0 0 0)
(0 0 0)
(0 0 0)
(0 0 0)
(0 0 0)
(0 0 0)
(0 0 0)
(0 0 0)
(0 0 0)
(0 0 0)
(0 0 0)
(0 5.2061e-07 0)
(0 0 0)
(0 0 0)
(0 2.00348e-06 0)
(0 1.19204e-06 0)
(0 0 0)
(0 5.2061e-07 0)
(0 1.19204e-06 0)
(0 0 0)
(0 0 0)
(0 0 0)
(0 0 0)
(0 0 0)
(0 0 0)
(0 0 0)
(0 0 0)
(0 0 0)
(0 0 0)
(0 0 0)
(0 0 0)
(0 0 0)
(0 0 0)
(0 0 0)
(0 0 0)
(0 0 0)
(0 0 0)
(0 0 0)
(0 0 0)
(0 0 0)
(0 0 0)
(0 0 0)
(0 0 0)
(0 0 0)
(0 0 0)
(0 0 0)
(0 0 0)
(0 0 0)
(0 0 0)
(0 0 0)
(0 0 0)
(0 0 0)
(0 0 0)
(0 0 0)
(0 0 0)
(0 0 0)
(0 0 0)
(0 0 0)
(0 0 0)
(0 0 0)
(0 0 0)
(0 0 0)
(0 0 0)
(0 0 0)
(0 0 0)
(0 0 0)
(0 0 0)
(0 0 0)
(0 0 0)
(0 0 0)
(0 0 0)
(0 0 0)
(0 0 0)
(0 0 0)
(0 0 0)
(0 0 0)
(0 0 0)
(0 0 0)
(0 0 0)
(0 0 0)
(0 0 0)
(0 0 0)
(0 0 0)
(0 0 0)
(0 0 0)
(0 0 0)
(0 0 0)
(0 0 0)
(0 0 0)
(0 0 0)
(0 0 0)
(0 0 0)
(0 0 0)
(0 0 0)
(0 0 0)
(0 0 0)
(0 0 0)
(0 0 0)
(0 0 0)
(0 0 0)
(0 0 0)
(0 0 0)
(0 0 0)
(0 0 0)
(0 0 0)
(0 0 0)
(0 0 0)
(0 0 0)
(0 0 0)
(0 0 0)
(0 0 0)
(0 0 0)
(0 0 0)
(0 0 0)
(0 0 0)
(0 0 0)
(0 0 0)
(0 0 0)
(0 0 0)
(0 0 0)
(0 0 0)
(0 0 0)
(0 0 0)
(0 0 0)
(0 0 0)
(0 0 0)
(0 0 0)
(0 0 0)
(0 0 0)
(0 0 0)
(0 0 0)
(0 0 0)
(0 0 0)
(0 0 0)
(0 0 0)
(0 0 0)
(0 0 0)
(0 0 0)
(0 0 0)
(0 0 0)
(0 0 0)
(0 0 0)
(0 0 0)
(0 0 0)
(0 0 0)
(0 0 0)
(0 0 0)
(0 0 0)
(0 0 0)
(0 0 0)
(0 0 0)
(0 0 0)
(0 0 0)
(0 0 0)
(0 0 0)
(0 0 0)
(0 0 0)
(0 0 0)
(0 0 0)
(0 0 0)
(0 0 0)
(0 0 0)
(0 0 0)
(0 0 0)
(0 0 0)
(0 0 0)
(0 0 0)
(0 0 0)
(0 0 0)
(0 0 0)
(0 0 0)
(0 0 0)
(0 0 0)
(0 0 0)
(0 0 0)
(0 0 0)
(0 0 0)
(0 0 0)
(0 0 0)
(0 0 0)
(0 0 0)
(0 0 0)
(0 0 0)
(0 0 0)
(0 0 0)
(0 0 0)
(0 0 0)
(0 0 0)
(0 0 0)
(0 0 0)
(0 0 0)
(0 0 0)
(0 0 0)
(0 0 0)
(0 0 0)
(0 0 0)
(0 0 0)
(0 0 0)
(0 0 0)
(0 0 0)
(0 0 0)
(0 0 0)
(0 0 0)
(0 0 0)
(0 0 0)
(0 0 0)
(0 0 0)
(0 0 0)
(0 0 0)
(0 0 0)
(0 0 0)
(0 0 0)
(0 0 0)
(0 0 0)
(0 0 0)
(0 0 0)
(0 0 0)
(0 0 0)
(0 0 0)
(0 0 0)
(0 0 0)
(0 0 0)
(0 0 0)
(0 0 0)
(0 0 0)
(0 0 0)
(0 0 0)
(0 0 0)
(0 0 0)
(0 0 0)
(0 0 0)
(0 0 0)
(0 0 0)
(0 0 0)
(0 0 0)
(0 0 0)
(0 0 0)
(0 0 0)
(0 0 0)
(0 0 0)
(0 0 0)
(0 0 0)
(0 0 0)
(0 0 0)
(0 0 0)
(0 0 0)
(0 0 0)
(0 0 0)
(0 0 0)
(0 0 0)
(0 0 0)
(0 0 0)
(0 0 0)
(0 0 0)
(0 0 0)
(0 0 0)
(0 0 0)
(0 0 0)
(0 0 0)
(0 0 0)
(0 0 0)
(0 0 0)
(0 0 0)
(0 0 0)
(0 0 0)
(0 0 0)
(0 0 0)
(0 0 0)
(0 0 0)
(0 0 0)
(0 0 0)
(0 0 0)
(0 0 0)
(0 0 0)
(0 0 0)
(0 0 0)
(0 0 0)
(0 0 0)
(0 0 0)
(0 0 0)
(0 0 0)
(0 0 0)
(0 0 0)
(0 0 0)
(0 0 0)
(0 0 0)
(0 0 0)
(0 0 0)
(0 0 0)
(0 0 0)
(0 0 0)
(0 0 0)
(0 0 0)
(0 0 0)
(0 0 0)
(0 0 0)
(0 0 0)
(0 0 0)
(0 0 0)
(0 0 0)
(0 0 0)
(0 0 0)
(0 0 0)
(0 0 0)
(0 0 0)
(0 0 0)
(0 0 0)
(0 0 0)
(0 0 0)
(0 0 0)
(0 0 0)
(0 0 0)
(0 0 0)
(0 0 0)
(0 0 0)
(0 0 0)
(0 0 0)
(0 0 0)
(0 0 0)
(0 0 0)
(0 0 0)
(0 0 0)
(0 0 0)
(0 0 0)
(0 0 0)
(0 0 0)
(0 0 0)
(0 0 0)
(0 0 0)
(0 0 0)
(0 0 0)
(0 0 0)
(0 0 0)
(0 0 0)
(0 0 0)
(0 0 0)
(0 0 0)
(0 0 0)
(0 0 0)
(0 0 0)
(0 0 0)
(0 0 0)
(0 0 0)
(0 0 0)
(0 0 0)
(0 0 0)
(0 0 0)
(0 0 0)
(0 0 0)
(0 0 0)
(0 0 0)
(0 0 0)
(0 0 0)
(0 0 0)
(0 0 0)
(0 0 0)
(0 0 0)
(0 0 0)
(0 0 0)
(0 0 0)
(0 0 0)
(0 0 0)
(0 0 0)
(0 0 0)
(0 0 0)
(0 0 0)
(0 0 0)
(0 0 0)
(0 0 0)
(0 0 0)
(0 0 0)
(0 0 0)
(0 0 0)
(0 0 0)
(0 0 0)
(0 0 0)
(0 0 0)
(0 0 0)
(0 0 0)
(0 0 0)
(0 0 0)
(0 0 0)
(0 0 0)
(0 0 0)
(0 0 0)
(0 0 0)
(0 0 0)
(0 0 0)
(0 0 0)
(0 0 0)
(0 0 0)
(0 0 0)
(0 0 0)
(0 0 0)
(0 0 0)
(0 0 0)
(0 0 0)
(0 0 0)
(0 0 0)
(0 0 0)
(0 0 0)
(0 0 0)
(0 0 0)
(0 0 0)
(0 0 0)
(0 0 0)
(0 0 0)
(0 0 0)
(0 0 0)
(0 0 0)
(0 0 0)
(0 0 0)
(0 0 0)
(0 0 0)
(0 0 0)
(0 0 0)
(0 0 0)
(0 0 0)
(0 0 0)
(0 0 0)
(0 0 0)
(0 0 0)
(0 0 0)
(0 0 0)
(0 0 0)
(0 0 0)
(0 0 0)
(0 0 0)
(0 0 0)
(0 0 0)
(0 0 0)
(0 0 0)
(0 0 0)
(0 0 0)
(0 0 0)
(0 0 0)
(0 0 0)
(0 0 0)
(0 0 0)
(0 0 0)
(0 0 0)
(0 0 0)
(0 0 0)
(0 0 0)
(0 0 0)
(0 0 0)
(0 0 0)
(0 0 0)
(0 0 0)
(0 0 0)
(0 0 0)
(0 0 0)
(0 0 0)
(0 0 0)
(0 0 0)
(0 0 0)
(0 0 0)
(0 0 0)
(0 0 0)
(0 0 0)
(0 0 0)
(0 0 0)
(0 0 0)
(0 0 0)
(0 0 0)
(0 0 0)
(0 0 0)
(0 0 0)
(0 0 0)
(0 0 0)
(0 0 0)
(0 0 0)
(0 0 0)
(0 0 0)
(0 0 0)
(0 0 0)
(0 0 0)
(0 0 0)
(0 0 0)
(0 0 0)
(0 0 0)
(0 0 0)
(0 0 0)
(0 0 0)
(0 0 0)
(0 0 0)
(0 0 0)
(0 0 0)
(0 0 0)
(0 0 0)
(0 0 0)
(0 0 0)
(0 0 0)
(0 0 0)
(0 0 0)
(0 0 0)
(0 0 0)
(0 0 0)
(0 0 0)
(0 0 0)
(0 0 0)
(0 0 0)
(0 0 0)
(0 0 0)
(0 0 0)
(0 0 0)
(0 0 0)
(0 0 0)
(0 0 0)
(0 0 0)
(0 0 0)
(0 0 0)
(0 0 0)
(0 0 0)
(0 0 0)
(0 0 0)
(0 0 0)
(0 0 0)
(0 0 0)
(0 0 0)
(0 0 0)
(0 0 0)
(0 0 0)
(0 0 0)
(0 0 0)
(0 0 0)
(0 0 0)
(0 0 0)
(0 0 0)
(0 0 0)
(0 0 0)
(0 0 0)
(0 0 0)
(0 0 0)
(0 0 0)
(0 0 0)
(0 0 0)
(0 0 0)
(0 0 0)
(0 0 0)
(0 0 0)
(0 0 0)
(0 0 0)
(0 0 0)
(0 0 0)
(0 0 0)
(0 0 0)
(0 0 0)
(0 0 0)
(0 0 0)
(0 0 0)
(0 0 0)
(0 0 0)
(0 0 0)
(0 0 0)
(0 0 0)
(0 0 0)
(0 0 0)
(0 0 0)
(0 0 0)
(0 0 0)
(0 0 0)
(0 0 0)
(0 0 0)
(0 0 0)
(0 0 0)
(0 0 0)
(0 0 0)
(0 0 0)
(0 0 0)
(0 0 0)
(0 0 0)
(0 0 0)
(0 0 0)
(0 0 0)
(0 0 0)
(0 0 0)
(0 0 0)
(0 0 0)
(0 0 0)
(0 0 0)
(0 0 0)
(0 0 0)
(0 0 0)
(0 0 0)
(0 0 0)
(0 0 0)
(0 0 0)
(0 0 0)
(0 0 0)
(0 0 0)
(0 0 0)
(0 0 0)
(0 0 0)
(0 0 0)
(0 0 0)
(0 0 0)
(0 0 0)
(0 0 0)
(0 0 0)
(0 0 0)
(0 0 0)
(0 0 0)
(0 0 0)
(0 0 0)
(0 0 0)
(0 0 0)
(0 0 0)
(0 0 0)
(0 0 0)
(0 0 0)
(0 0 0)
(0 0 0)
(0 0 0)
(0 0 0)
(0 0 0)
(0 0 0)
(0 0 0)
(0 0 0)
(0 0 0)
(0 0 0)
(0 0 0)
(0 0 0)
(0 0 0)
(0 0 0)
(0 0 0)
(0 0 0)
(0 0 0)
(0 0 0)
(0 0 0)
(0 0 0)
(0 0 0)
(0 0 0)
(0 0 0)
(0 0 0)
(0 0 0)
(0 0 0)
(0 0 0)
(0 0 0)
(0 0 0)
(0 0 0)
(0 0 0)
(0 0 0)
(0 0 0)
(0 0 0)
(0 0 0)
(0 0 0)
(0 0 0)
(0 0 0)
(0 0 0)
(0 0 0)
(0 0 0)
(0 0 0)
(0 0 0)
(0 0 0)
(0 0 0)
(0 0 0)
(0 0 0)
(0 0 0)
(0 0 0)
(0 0 0)
(0 0 0)
(0 0 0)
(0 0 0)
(0 0 0)
(0 0 0)
(0 0 0)
(0 0 0)
(0 0 0)
(0 0 0)
(0 0 0)
(0 0 0)
(0 0 0)
(0 0 0)
(0 0 0)
(0 0 0)
(0 0 0)
(0 0 0)
(0 0 0)
(0 0 0)
(0 0 0)
(0 0 0)
(0 0 0)
(0 0 0)
(0 0 0)
(0 0 0)
(0 0 0)
(0 0 0)
(0 0 0)
(0 0 0)
(0 0 0)
(0 0 0)
(0 0 0)
(0 0 0)
(0 0 0)
(0 0 0)
(0 0 0)
(0 0 0)
(0 0 0)
(0 0 0)
(0 0 0)
(0 0 0)
(0 0 0)
(0 0 0)
(0 0 0)
(0 0 0)
(0 0 0)
(0 0 0)
(0 0 0)
(0 0 0)
(0 0 0)
(0 0 0)
(0 0 0)
(0 0 0)
(0 0 0)
(0 0 0)
(0 0 0)
(0 0 0)
(0 0 0)
(0 0 0)
(0 0 0)
(0 0 0)
(0 0 0)
(0 0 0)
(0 0 0)
(0 0 0)
(0 0 0)
(0 0 0)
(0 0 0)
(0 0 0)
(0 0 0)
(0 0 0)
(0 0 0)
(0 0 0)
(0 0 0)
(0 0 0)
(0 0 0)
(0 0 0)
(0 0 0)
(0 0 0)
(0 0 0)
(0 0 0)
(0 0 0)
(0 0 0)
(0 0 0)
(0 0 0)
(0 0 0)
(0 0 0)
(0 0 0)
(0 0 0)
(0 0 0)
(0 0 0)
(0 0 0)
(0 0 0)
(0 0 0)
(0 0 0)
(0 0 0)
(0 0 0)
(0 0 0)
(0 0 0)
(0 0 0)
(0 0 0)
(0 0 0)
(0 0 0)
(0 0 0)
(0 0 0)
(0 0 0)
(0 0 0)
(0 0 0)
(0 0 0)
(0 0 0)
(0 0 0)
(0 0 0)
(0 0 0)
(0 0 0)
(0 0 0)
(0 0 0)
(0 0 0)
(0 0 0)
(0 0 0)
(0 0 0)
(0 0 0)
(0 0 0)
(0 0 0)
(0 0 0)
(0 0 0)
(0 0 0)
(0 0 0)
(0 0 0)
(0 0 0)
(0 0 0)
(0 0 0)
(0 0 0)
(0 0 0)
(0 0 0)
(0 0 0)
(0 0 0)
(0 0 0)
(0 0 0)
(0 0 0)
(0 0 0)
(0 0 0)
(0 0 0)
(0 0 0)
(0 0 0)
(0 0 0)
(0 0 0)
(0 0 0)
(0 0 0)
(0 0 0)
(0 0 0)
(0 0 0)
(0 0 0)
(0 0 0)
(0 0 0)
(0 0 0)
(0 0 0)
(0 0 0)
(0 0 0)
(0 0 0)
(0 0 0)
(0 0 0)
(0 0 0)
(0 0 0)
(0 0 0)
(0 0 0)
(0 0 0)
(0 0 0)
(0 0 0)
(0 0 0)
(0 0 0)
(0 0 0)
(0 0 0)
(0 0 0)
(0 0 0)
(0 0 0)
(0 0 0)
(0 0 0)
(0 0 0)
(0 0 0)
(0 0 0)
(0 0 0)
(0 0 0)
(0 0 0)
(0 0 0)
(0 0 0)
(0 0 0)
(0 0 0)
(0 0 0)
(0 0 0)
(0 0 0)
(0 0 0)
(0 0 0)
(0 0 0)
(0 0 0)
(0 0 0)
(0 0 0)
(0 0 0)
(0 0 0)
(0 0 0)
(0 0 0)
(0 0 0)
(0 0 0)
(0 0 0)
(0 0 0)
(0 0 0)
(0 0 0)
(0 0 0)
(0 0 0)
(0 0 0)
(0 0 0)
(0 0 0)
(0 0 0)
(0 0 0)
(0 0 0)
(0 0 0)
(0 0 0)
(0 0 0)
(0 0 0)
(0 0 0)
(0 0 0)
(0 0 0)
(0 0 0)
(0 0 0)
(0 0 0)
(0 0 0)
(0 0 0)
(0 0 0)
(0 0 0)
(0 0 0)
(0 0 0)
(0 0 0)
(0 0 0)
(0 0 0)
(0 0 0)
(0 0 0)
(0 0 0)
(0 0 0)
(0 0 0)
(0 0 0)
(0 0 0)
(0 0 0)
(0 0 0)
(0 0 0)
(0 0 0)
(0 0 0)
(0 0 0)
(0 0 0)
(0 0 0)
(0 0 0)
(0 0 0)
(0 0 0)
(0 0 0)
(0 0 0)
(0 0 0)
(0 0 0)
(0 0 0)
(0 0 0)
(0 0 0)
(0 0 0)
(0 0 0)
(0 0 0)
(0 0 0)