/*--------------------------------*- C++ -*----------------------------------*\
| =========                 |                                                 |
| \\      /  F ield         | OpenFOAM: The Open Source CFD Toolbox           |
|  \\    /   O peration     | Version:  v2106                                 |
|   \\  /    A nd           | Website:  www.openfoam.com                      |
|    \\/     M anipulation  |                                                 |
\*---------------------------------------------------------------------------*/
FoamFile
{
    version     2.0;
    format      ascii;
    arch        "LSB;label=32;scalar=64";
    class       volScalarField;
    location    "0";
    object      p;
}
// * * * * * * * * * * * * * * * * * * * * * * * * * * * * * * * * * * * * * //

dimensions      [0 2 -2 0 0 0 0];

internalField   nonuniform List<scalar> 
11644
(
0.0320125
0.032297
0.0327159
0.0331601
0.0335521
0.0337804
0.0337578
0.0332731
0.0320774
0.0299263
0.0265947
0.0221246
0.0162703
0.00863203
-0.000601872
-0.0119039
-0.0235723
-0.0338258
-0.0427803
-0.0546942
-0.0669702
-0.073982
-0.0774583
-0.0796479
-0.0802866
-0.0792897
-0.077458
-0.0748324
-0.0716849
-0.0687868
-0.0660745
-0.0635584
-0.061314
-0.059307
-0.0575853
-0.0560918
-0.0547819
-0.0537088
-0.0530557
-0.052927
0.0309491
0.0313115
0.031833
0.0324687
0.0331762
0.0338935
0.0344114
0.0345469
0.0340277
0.0326762
0.0302013
0.0259512
0.0195813
0.0117399
0.0019421
-0.00920373
-0.0209779
-0.0339275
-0.0455185
-0.0592397
-0.066768
-0.0733089
-0.0776285
-0.0800521
-0.080691
-0.079517
-0.0770579
-0.0744045
-0.0718241
-0.0688341
-0.0659008
-0.0633134
-0.0609509
-0.0588887
-0.0571926
-0.0557014
-0.0545613
-0.0538028
-0.053485
-0.0535106
0.0298325
0.0302842
0.030868
0.0315782
0.032512
0.0336813
0.03492
0.0360455
0.0367792
0.0367657
0.0352484
0.0317515
0.0261834
0.0185269
0.00885209
-0.00365582
-0.0183036
-0.0353428
-0.0496654
-0.0621375
-0.0709811
-0.0799798
-0.0814755
-0.0831693
-0.0832017
-0.0816419
-0.0787532
-0.0754412
-0.0722055
-0.0691924
-0.066116
-0.0632319
-0.0608032
-0.058653
-0.0568193
-0.0553832
-0.0543617
-0.0537157
-0.053234
-0.0528478
0.0291209
0.0291008
0.0295805
0.0305835
0.0318759
0.0333621
0.035089
0.0369609
0.0388059
0.0400891
0.0405693
0.0395171
0.0358406
0.0296646
0.0194265
0.00625631
-0.0115097
-0.0332752
-0.0506446
-0.0698642
-0.0808433
-0.0857726
-0.0894867
-0.0890279
-0.0875372
-0.0846443
-0.0814062
-0.07773
-0.0734272
-0.0696125
-0.066851
-0.064141
-0.0614788
-0.0591973
-0.0571291
-0.0554074
-0.0539076
-0.0525617
-0.0515657
-0.0510538
0.0295881
0.0294699
0.0295616
0.0298742
0.0306936
0.0321413
0.0341869
0.0367431
0.0398067
0.0432901
0.0473081
0.050013
0.0493925
0.0415762
0.0291367
0.0130927
-0.00683394
-0.035279
-0.057513
-0.075895
-0.0879409
-0.0987721
-0.0976735
-0.0914068
-0.0866412
-0.083099
-0.0808291
-0.0784136
-0.0763011
-0.0730901
-0.0693536
-0.0661804
-0.0630849
-0.0599716
-0.0570097
-0.0542412
-0.051862
-0.0500802
-0.0485955
-0.0478684
0.0287048
0.0292197
0.0294345
0.0298421
0.0304604
0.0313474
0.0330087
0.0356663
0.0397339
0.0452903
0.0505874
0.054273
0.0544932
0.0538789
0.042485
0.0205063
-0.00312682
-0.033144
-0.0572878
-0.0786691
-0.0939728
-0.0951578
-0.0940971
-0.0852569
-0.0790661
-0.0761554
-0.0762468
-0.0798909
-0.0808556
-0.0802179
-0.0760685
-0.0707744
-0.0657824
-0.0610421
-0.056646
-0.0525709
-0.0489225
-0.0458288
-0.0437533
-0.0420248
0.0301444
0.0290931
0.0289369
0.0291291
0.0295087
0.0303047
0.0315718
0.0338761
0.0378353
0.041594
0.0443142
0.0459742
0.05239
0.055496
0.0527812
0.0417195
0.0145932
-0.010032
-0.0370834
-0.05955
-0.0847274
-0.0855897
-0.0883749
-0.0848366
-0.0684949
-0.0714048
-0.0777877
-0.0845087
-0.0892136
-0.0894582
-0.0850468
-0.0773626
-0.0689217
-0.0613073
-0.0543457
-0.0484057
-0.043709
-0.0401651
-0.0380295
-0.0378705
0.0292443
0.0305665
0.0303815
0.0296499
0.0289379
0.0288365
0.0292086
0.0306333
0.0327195
0.0332643
0.0330543
0.0342337
0.0290595
0.0551828
0.0478977
0.0529382
0.0282138
-0.0058972
-0.0425034
-0.0705281
-0.0878573
-0.092889
-0.0909504
-0.0908388
-0.103964
-0.0847675
-0.0855759
-0.102588
-0.0984436
-0.0957876
-0.0890204
-0.0800184
-0.0688377
-0.0584272
-0.0499387
-0.0429225
-0.0373534
-0.0336278
-0.0302831
-0.0277918
0.0324126
0.0310533
0.0303171
0.0301064
0.0299129
0.0290721
0.0278763
0.0276182
0.0265133
0.0223106
0.0170138
0.012368
0.00524147
0.024596
0.0180447
-0.00108523
0.0136606
-0.0115483
-0.0416995
-0.0736534
-0.0974868
-0.106381
-0.111757
-0.0929237
-0.0918863
-0.119123
-0.10534
-0.119588
-0.111084
-0.0990475
-0.0871704
-0.0752867
-0.0623003
-0.050339
-0.0410771
-0.0332645
-0.0265671
-0.0207895
-0.0176552
-0.0154356
0.0374612
0.0360205
0.0353944
0.0339452
0.0323128
0.0304911
0.0284491
0.0263625
0.0231387
0.0172268
0.00619706
0.00101765
0.00341655
0.012741
-0.00120218
0.00454488
-0.0104233
-0.0257905
-0.04725
-0.0935317
-0.122508
-0.127539
-0.119563
-0.1258
-0.127274
-0.127375
-0.109799
-0.11505
-0.104424
-0.0916553
-0.0757059
-0.0605651
-0.0472147
-0.034494
-0.0242193
-0.0164855
-0.0112157
-0.00730192
-0.0049166
-0.00478131
0.0381048
0.0415425
0.0413553
0.0408472
0.0389622
0.0366884
0.0350878
0.0328711
0.027593
0.0243092
0.0161683
0.00832559
0.00724093
-0.0059964
-0.00561002
0.0198393
0.028399
0.0118385
-0.0299802
-0.123916
-0.174891
-0.124302
-0.107509
-0.111918
-0.110339
-0.113548
-0.117854
-0.0909245
-0.079247
-0.0662267
-0.0493755
-0.0351372
-0.0232649
-0.0124039
-0.00442306
0.00110128
0.00597572
0.00978405
0.0146163
0.0182173
0.0530306
0.0456166
0.0441665
0.0443
0.044896
0.0448459
0.0451162
0.0461931
0.0431887
0.0404295
0.0409217
0.0348294
0.0193111
-0.00163936
0.0091984
0.0143733
0.0335221
0.0640021
0.0747505
0.0460286
-0.0694512
-0.103414
-0.0985629
-0.100283
-0.0573168
-0.034404
-0.0174179
-0.00538645
0.00450382
0.0129378
0.0195627
0.0240565
0.0272971
0.03054
0.033456
0.0341353
0.0341165
0.0498341
0.0547318
0.0560579
0.0551432
0.0557034
0.0558904
0.0561202
0.0584466
0.0623331
0.0633906
0.0677047
0.0726571
0.0524655
0.0469072
0.0678248
0.0553996
0.0584427
0.0620677
0.0930847
-0.0783638
-0.0190212
-0.044135
-0.0343752
-0.0135287
0.00226669
0.0303564
0.0428395
0.0494239
0.0531409
0.0553022
0.0556269
0.0552037
0.0538956
0.0518506
0.04974
0.0482392
0.048528
0.0436326
0.052034
0.0557186
0.059305
0.0615635
0.06261
0.0617438
0.0635724
0.0711558
0.0787349
0.0868665
0.092828
0.0754317
0.0718911
0.0467357
0.0345267
0.00522245
-0.010293
-0.0782515
0.0301055
0.0711902
0.017991
0.0338561
0.0622423
0.0620237
0.0912478
0.089336
0.103062
0.0976209
0.0953688
0.091139
0.0857051
0.0791513
0.0754478
0.0730323
0.0727648
0.0637175
0.058468
0.0494888
0.0487404
0.0556963
0.0611055
0.0628333
0.0614975
0.0547553
0.0614014
0.0778992
0.0860808
0.0511817
0.0103258
-0.00937841
-0.0227806
-0.0445146
-0.157818
-0.315724
-0.919977
-0.0868449
0.798078
0.0867974
0.245451
0.172849
0.0394215
0.0316229
0.0766334
0.103325
0.109006
0.106669
0.124088
0.122474
0.126988
0.121137
0.116245
0.112917
0.109398
0.103895
0.0965712
0.0909866
0.0729482
0.0721893
0.0729324
0.0709447
0.0668089
0.0629332
0.0600719
0.0584841
0.0626553
0.0627979
0.0638382
0.0541517
-0.0550309
-0.0634564
-0.0675625
-0.163998
-0.334789
-0.586779
-0.903074
0.787144
0.74727
0.587065
0.1874
-0.0506605
-0.0759344
0.0280832
0.00987698
0.103564
0.108815
0.116836
0.129854
0.132052
0.137091
0.135855
0.135053
0.134695
0.12756
0.12339
0.119361
0.116546
0.0724714
0.0794393
0.0785606
0.0748784
0.0673333
0.0584385
0.0563326
0.0576416
0.0532972
0.0450727
0.0355705
0.0487288
0.0468233
-0.0986721
-0.141222
-0.211182
-0.312209
-0.139284
0.299031
-0.00076595
1.27266
1.98688
-0.289319
-0.32125
-0.0199891
-0.0318754
0.0485346
0.0507407
0.104674
0.131418
0.126158
0.137016
0.144636
0.145896
0.145452
0.142797
0.139069
0.137909
0.136559
0.143442
0.0606311
0.0603689
0.0567764
0.0540492
0.0500831
0.0462247
0.050218
0.0430188
0.0219838
-0.00320251
-0.0149833
-0.0244543
0.0151414
-0.0588459
-0.0415852
-0.205196
-0.323174
-0.0639552
1.26346
0.873191
-0.147567
-0.230464
-0.2494
0.143178
-0.00088243
0.0277321
-0.00780562
0.102215
0.1496
0.148336
0.173024
0.182782
0.174918
0.164769
0.163387
0.162686
0.161036
0.160677
0.158834
0.159285
0.0532655
0.0494653
0.043996
0.0420497
0.0410478
0.040182
0.0362205
0.0316542
0.011805
-0.00435687
-0.0228162
-0.0430502
-0.0561665
-0.0496055
-0.0876633
0.00706669
0.307023
-0.342453
-0.273692
-0.359219
-0.462297
-0.143428
0.0616496
0.118655
0.0795062
0.0609159
0.131408
0.177841
0.164021
0.179195
0.201256
0.208281
0.192255
0.183478
0.179415
0.179634
0.180038
0.180089
0.177812
0.175278
0.0595104
0.0578232
0.0547996
0.050555
0.0455648
0.036722
0.0285387
0.0205834
0.0142205
0.00633828
-0.0109176
0.0439854
-0.116314
0.0603234
0.0511346
0.233655
0.530104
1.33338
-0.0607417
-1.16193
-1.0317
-0.710432
-0.597471
-0.0547354
0.0836338
0.102864
0.140977
0.194893
0.14375
0.187302
0.195302
0.199545
0.19855
0.199442
0.194737
0.187368
0.182019
0.177055
0.174607
0.174093
0.0715841
0.0716367
0.0714774
0.0672518
0.0598355
0.0506495
0.0374747
0.0231135
0.0132289
0.00773782
-0.00095894
0.0441161
-0.00728091
-0.0931169
0.0573741
0.148814
-0.128065
-0.461218
0.0698102
-0.386072
-0.849222
-0.667497
-0.0452793
0.331853
0.0873968
0.0273586
0.273375
0.195729
0.174362
0.249295
0.232824
0.224077
0.218474
0.207872
0.19508
0.18183
0.172473
0.164797
0.161214
0.160072
0.0791012
0.0781854
0.0769428
0.0744599
0.0741487
0.0663051
0.0587127
0.0464937
0.0243569
0.0203077
0.0213316
0.0713273
0.0788416
0.0560423
-0.203181
-0.100294
0.0656163
0.0167139
-0.986786
-1.56992
-1.32791
-1.01676
-0.675223
-0.0208603
-0.144643
0.629151
0.389359
0.211281
0.24506
0.270335
0.26193
0.248951
0.232329
0.206884
0.189457
0.178675
0.172217
0.166156
0.16068
0.157303
0.0830066
0.0800395
0.079224
0.0779896
0.0770284
0.0765892
0.0735562
0.0701723
0.0523596
0.0537663
0.051398
0.0424504
0.00499169
-0.0768014
0.177513
-0.604349
-0.777208
-0.598063
-0.335781
0.267832
-1.92104
-2.37441
1.74348
1.15371
0.902158
-0.210343
0.482399
0.479624
0.375641
0.363098
0.302548
0.260629
0.232739
0.210907
0.196184
0.184427
0.174786
0.166034
0.160278
0.158457
0.0916434
0.0926342
0.0915602
0.0913053
0.0897166
0.0903593
0.0885302
0.0860451
0.086857
0.0885178
0.0781525
0.0361082
0.00380522
-0.2785
-0.757087
-0.519807
-0.175863
0.329641
0.0940069
0.235011
0.95198
0.220758
-0.579703
-0.71223
0.0596013
0.877592
0.778238
0.58365
0.472156
0.380447
0.313943
0.265475
0.240785
0.215667
0.196513
0.178594
0.165812
0.158257
0.15532
0.15706
0.107196
0.106055
0.10739
0.108359
0.108904
0.108632
0.110211
0.110094
0.104058
0.106706
0.0955951
0.0743906
0.0775227
0.0412826
-0.239012
-0.682066
-1.29055
-1.16587
-0.434924
0.289722
0.507499
0.626529
1.06382
1.4504
1.5153
0.96107
0.491511
0.51526
0.457499
0.380783
0.317842
0.267741
0.23561
0.206231
0.186986
0.173156
0.160661
0.154345
0.151063
0.149965
0.125377
0.124873
0.123471
0.122725
0.121836
0.125149
0.126113
0.125519
0.117257
0.112904
0.104463
0.0592427
0.0337181
-0.0746599
-0.0430333
-0.0445221
-0.398529
-0.523331
-0.355635
-0.173387
0.552038
0.944581
1.04044
0.816087
0.37781
0.130195
0.306062
0.458985
0.402017
0.324154
0.276664
0.231832
0.201653
0.182382
0.167169
0.156404
0.147077
0.139433
0.134722
0.129872
0.136831
0.135126
0.136678
0.138535
0.138841
0.139159
0.138188
0.131306
0.124925
0.123463
0.102887
0.0576414
-0.0637898
-0.245842
-0.272174
-0.0868039
-0.000699405
-0.167165
0.317223
0.193177
0.127036
0.0609463
-0.361851
-0.529331
0.0782001
0.512598
0.475548
0.260532
0.252229
0.230047
0.226089
0.178462
0.166247
0.153748
0.139807
0.128969
0.121353
0.116031
0.112195
0.110326
0.145797
0.151576
0.150252
0.148935
0.149093
0.149351
0.147792
0.143243
0.134685
0.118423
0.0804012
0.0526413
-0.0339283
-0.241603
-0.386604
-0.622291
-0.506773
-0.21025
-0.0882704
0.20864
-0.452371
-0.216348
0.228362
0.490359
0.584287
0.159428
-0.0936305
0.0964401
0.146129
0.176382
0.174092
0.152302
0.134405
0.123209
0.113988
0.108824
0.10304
0.0980283
0.0936007
0.0924
0.159489
0.156487
0.158918
0.161122
0.161473
0.161338
0.158046
0.154255
0.153936
0.144896
0.0901593
0.000438319
-0.0659083
-0.142337
-0.0475592
-0.0532578
-0.151391
-0.0981926
0.186422
0.624698
-0.749195
-0.225294
-0.344283
-0.468893
-0.668858
-0.43432
-0.0141316
0.108366
0.0966093
0.0996011
0.108298
0.106105
0.0963877
0.0904887
0.0856232
0.0817163
0.0791623
0.0776835
0.0774904
0.0756924
0.178181
0.175122
0.173542
0.171766
0.17059
0.168899
0.165817
0.156708
0.15231
0.142287
0.111599
0.112418
0.000244375
-0.245459
-0.274493
-0.144446
0.235449
0.295318
0.0703284
0.272841
-1.17702
-1.1109
-0.898505
-0.755048
-0.170723
0.0302786
-0.0468927
-0.0746472
-0.0276791
0.0199259
0.0473264
0.0664911
0.0642824
0.0559022
0.0542894
0.0528556
0.050589
0.0473527
0.0444819
0.0442673
0.192554
0.191505
0.190944
0.19033
0.189212
0.187355
0.183461
0.174456
0.158808
0.138538
0.120627
0.119251
0.14216
0.0914654
-0.231061
-0.580688
-0.565677
-0.52448
-0.464588
-0.49264
-0.668209
-0.443201
-0.463811
-0.382486
-0.246657
-0.293734
-0.262573
-0.0668395
-0.0235451
-0.0177504
0.0126779
0.016647
0.014341
0.0140408
0.0157969
0.0168496
0.0173505
0.0179602
0.0191668
0.0187162
0.200972
0.199834
0.202036
0.203346
0.204017
0.202533
0.195184
0.184426
0.178771
0.160184
0.122333
0.103196
0.017525
0.0209332
0.13954
-0.0119168
-0.267623
-0.442886
-0.61263
-0.25666
-0.869118
-0.546697
-0.502998
-0.380234
-0.331929
-0.24678
-0.0673377
-0.0287995
-0.0429513
-0.0423764
-0.0421019
-0.0317108
-0.0282824
-0.0199714
-0.0154601
-0.0108241
-0.00610446
-0.0019657
0.000837198
-0.000862387
0.214513
0.218165
0.217567
0.216219
0.214527
0.21229
0.207741
0.202886
0.19921
0.1844
0.183219
0.183814
0.149565
0.013376
-0.189776
-0.176356
-0.184762
-0.152659
0.0834045
0.0624971
-0.0271067
0.0368979
0.0645546
0.134066
0.156605
0.101231
-0.0351527
-0.103114
-0.105731
-0.0710165
-0.10902
-0.0774838
-0.0629148
-0.0496163
-0.0401211
-0.0331598
-0.0297779
-0.0283991
-0.0285901
-0.025528
0.221884
0.225587
0.228849
0.231405
0.233278
0.235367
0.233457
0.233098
0.233873
0.240918
0.210394
0.200915
0.268793
0.451217
0.481424
0.364275
0.288993
0.343696
0.317689
0.48876
0.68836
0.657137
0.519529
0.419457
0.224422
-0.00705035
-0.136323
-0.140995
-0.11371
-0.106971
-0.130549
-0.124252
-0.110856
-0.0897076
-0.0751285
-0.0631739
-0.0545769
-0.0477559
-0.0431073
-0.0453638
0.239463
0.237181
0.237806
0.238726
0.241868
0.246028
0.249892
0.255304
0.268079
0.286723
0.273237
0.282027
0.278691
0.35901
0.545883
0.686714
0.974103
1.08711
1.40563
1.81367
0.559396
0.597791
0.483704
0.397306
0.139336
-0.0310812
-0.144287
-0.165915
-0.181224
-0.185195
-0.178621
-0.148622
-0.130398
-0.110191
-0.0954612
-0.0828249
-0.0740676
-0.0690557
-0.0673468
-0.0654637
0.253124
0.256283
0.255636
0.255702
0.257392
0.265156
0.272766
0.286043
0.29032
0.310932
0.342069
0.4119
0.494457
0.553517
0.567985
0.677405
0.785149
0.993013
1.19534
1.19727
0.493823
0.276798
0.735556
0.382435
0.175319
0.0191475
-0.140531
-0.24344
-0.267412
-0.227014
-0.199818
-0.17661
-0.157346
-0.137317
-0.120613
-0.107413
-0.0992949
-0.0943951
-0.0904495
-0.086917
0.259438
0.257464
0.261907
0.268824
0.277084
0.287641
0.300039
0.317357
0.337158
0.363765
0.420177
0.447999
0.584643
0.76284
0.902585
0.932948
0.827994
0.762116
0.756091
0.841985
0.134095
0.10868
-0.115144
-0.203738
-0.593133
-0.655355
-0.590456
-0.41738
-0.28545
-0.262955
-0.240773
-0.205825
-0.179622
-0.15528
-0.137452
-0.123992
-0.113515
-0.105585
-0.100208
-0.0971443
0.272379
0.272554
0.272948
0.274981
0.281136
0.297215
0.31439
0.339652
0.378812
0.436272
0.519858
0.635361
0.719482
0.814227
0.950963
1.13191
0.955047
0.935609
0.80619
0.771594
-0.962991
-0.951412
-0.914155
-0.985829
-1.06593
-0.819099
-0.590762
-0.449226
-0.390601
-0.321627
-0.278926
-0.219771
-0.179452
-0.154295
-0.136362
-0.120571
-0.113412
-0.108262
-0.104408
-0.105263
0.278974
0.278674
0.284243
0.291923
0.303121
0.321517
0.343254
0.376991
0.419677
0.470459
0.563715
0.701032
0.851564
1.02948
1.16839
1.18506
1.11115
0.869184
0.936673
0.673438
-0.830463
-0.878494
-1.18655
-1.17112
-1.06992
-1.02404
-0.781048
-0.623626
-0.458229
-0.336707
-0.256653
-0.20312
-0.176039
-0.156427
-0.13988
-0.126872
-0.118679
-0.112417
-0.110757
-0.111142
0.277812
0.279006
0.284295
0.293933
0.307149
0.325698
0.350359
0.391398
0.442055
0.515411
0.624978
0.728518
0.909964
1.12689
1.35303
1.47272
1.397
1.22253
1.1659
0.725367
-0.387435
-0.711372
-1.02457
-1.10505
-1.08241
-0.941442
-0.721277
-0.507349
-0.347589
-0.30115
-0.2389
-0.201012
-0.165983
-0.145574
-0.133086
-0.124416
-0.11707
-0.113752
-0.111027
-0.11224
0.272984
0.276239
0.280228
0.286153
0.296412
0.312075
0.337697
0.372136
0.41348
0.50779
0.578763
0.681981
0.821582
0.992827
1.21193
1.35114
1.44426
1.38081
1.24111
0.890836
-0.236186
-0.660702
-0.778962
-0.837728
-0.707268
-0.517241
-0.392451
-0.319184
-0.342325
-0.26764
-0.20124
-0.169208
-0.138598
-0.124757
-0.118058
-0.115931
-0.114345
-0.115287
-0.116314
-0.115257
0.258482
0.259626
0.263656
0.271933
0.281423
0.29295
0.317903
0.339801
0.370526
0.42546
0.488531
0.565164
0.714105
0.847618
0.967144
1.00724
1.03606
0.847835
0.963656
0.801266
-0.261305
-0.285388
-0.671624
-0.657266
-0.516641
-0.448603
-0.41288
-0.311858
-0.217539
-0.164714
-0.148943
-0.139958
-0.130769
-0.123037
-0.120662
-0.119702
-0.11603
-0.113405
-0.110223
-0.109721
0.241496
0.239946
0.2422
0.245705
0.252334
0.259291
0.270215
0.279424
0.317475
0.33467
0.32189
0.326099
0.369082
0.438097
0.47071
0.442943
0.445349
0.234172
0.157751
0.0515372
-0.553944
-0.548862
-0.803335
-0.73609
-0.548971
-0.360907
-0.205969
-0.119613
-0.124695
-0.108401
-0.110581
-0.107986
-0.0993101
-0.100712
-0.105956
-0.108129
-0.107631
-0.108353
-0.108507
-0.108353
0.227856
0.226238
0.225277
0.22502
0.226135
0.22889
0.230277
0.228629
0.223512
0.236268
0.217829
0.182574
0.0462384
-0.0952503
-0.201248
-0.262974
-0.282653
-0.41343
-0.56665
-0.80046
-0.883204
-0.707848
-0.632078
-0.485471
-0.304542
-0.17028
-0.10322
-0.0714609
-0.0762288
-0.0482939
-0.065761
-0.0904752
-0.0918269
-0.0916708
-0.0983982
-0.103582
-0.106863
-0.108201
-0.108793
-0.105583
0.2096
0.21059
0.211315
0.212178
0.210911
0.207589
0.203504
0.196144
0.178365
0.139381
0.0766544
0.00831994
-0.0413755
-0.16524
-0.387259
-0.554437
-0.677374
-0.793766
-0.802112
-0.704032
-0.726827
-0.490126
-0.233221
-0.114443
-0.0283625
-0.00393013
0.0023302
0.022021
0.0230088
0.00384147
-0.0244169
-0.064331
-0.0802946
-0.0907429
-0.0974576
-0.101897
-0.103237
-0.101081
-0.100026
-0.10186
0.1935
0.193553
0.193724
0.191304
0.186682
0.180221
0.17109
0.148502
0.143657
0.108182
0.0292655
-0.0682859
-0.199033
-0.31342
-0.379221
-0.430565
-0.343498
-0.320415
-0.327502
-0.309861
0.0921219
0.267627
0.335976
0.401735
0.3569
0.309912
0.237199
0.158173
0.0796093
0.00241716
-0.0309864
-0.0495149
-0.0667454
-0.0818942
-0.0883884
-0.0928812
-0.0975938
-0.101187
-0.104029
-0.104063
0.176148
0.17938
0.178128
0.176053
0.171094
0.165074
0.154184
0.136583
0.114526
0.0884784
0.0365808
0.0288306
0.000190296
-0.091644
-0.123334
-0.132382
-0.026308
0.118693
0.376658
0.667125
0.895008
0.875175
0.770658
0.739864
0.615572
0.42784
0.264573
0.122393
0.0470352
0.00377926
-0.0656432
-0.0819217
-0.084905
-0.0955151
-0.100379
-0.101971
-0.103461
-0.102499
-0.103094
-0.106134
0.164529
0.159835
0.159937
0.158846
0.155125
0.148738
0.138222
0.128757
0.103929
0.0729826
0.0425689
0.0254496
0.0721965
0.118872
0.159847
0.2161
0.417997
0.580153
0.939707
1.28858
0.863508
0.98906
0.895958
0.752815
0.609796
0.356037
0.162671
0.0373665
-0.039863
-0.0736376
-0.0912162
-0.105659
-0.116948
-0.115257
-0.113977
-0.110329
-0.109009
-0.107559
-0.10671
-0.109206
0.156527
0.154359
0.150242
0.144959
0.13997
0.134245
0.12534
0.116611
0.106147
0.0992276
0.10471
0.123407
0.123773
0.167993
0.251648
0.391752
0.492689
0.693895
0.894637
1.15208
0.481318
0.436856
0.327247
0.0889432
0.267701
0.10248
-0.00222511
-0.0756898
-0.133678
-0.155717
-0.162462
-0.146555
-0.141658
-0.130255
-0.124963
-0.120988
-0.118594
-0.118741
-0.117563
-0.11836
0.147123
0.141853
0.142338
0.141761
0.141261
0.139505
0.136077
0.126214
0.117083
0.126638
0.14869
0.194127
0.230642
0.240625
0.228631
0.293828
0.36858
0.392148
0.398923
0.295469
-0.0284094
-0.17026
-0.326309
-0.4142
-0.411079
-0.427179
-0.41922
-0.406968
-0.335679
-0.26042
-0.223133
-0.183728
-0.168316
-0.152668
-0.142109
-0.134324
-0.1276
-0.12324
-0.120072
-0.117282
0.141481
0.140028
0.138468
0.136135
0.13504
0.133389
0.134557
0.138196
0.147399
0.165913
0.193041
0.203255
0.207377
0.232767
0.257521
0.25851
0.355601
0.222301
0.0763314
-0.034629
-0.615098
-0.739557
-0.852656
-0.886218
-0.832509
-0.734243
-0.621206
-0.483376
-0.362579
-0.287285
-0.238983
-0.198353
-0.17201
-0.151374
-0.136609
-0.128374
-0.121997
-0.117673
-0.113598
-0.112808
0.135564
0.136823
0.137511
0.135284
0.135743
0.137222
0.140901
0.149437
0.169624
0.185346
0.208195
0.259755
0.298877
0.321872
0.386326
0.40042
0.50191
0.391225
0.234147
-0.0112368
-0.626404
-0.743083
-0.803541
-0.819143
-0.779789
-0.697126
-0.589717
-0.465308
-0.365255
-0.290043
-0.229054
-0.18839
-0.152387
-0.134248
-0.123285
-0.115517
-0.110897
-0.109628
-0.110016
-0.110362
0.124509
0.123787
0.126076
0.127769
0.131623
0.136365
0.14282
0.151872
0.166584
0.203858
0.234595
0.287468
0.359889
0.439049
0.54017
0.61285
0.669897
0.616766
0.447949
0.243173
-0.087024
-0.291171
-0.399497
-0.441065
-0.449145
-0.422269
-0.401179
-0.338856
-0.252746
-0.199739
-0.157233
-0.158632
-0.134223
-0.120828
-0.112597
-0.106892
-0.102202
-0.099698
-0.0984256
-0.101926
0.114404
0.115224
0.114744
0.114615
0.114345
0.115214
0.117908
0.130044
0.145692
0.175752
0.182635
0.212442
0.279194
0.376282
0.436232
0.555264
0.665098
0.744306
0.716682
0.494653
0.253738
0.0670846
-0.0228097
-0.0667472
-0.108427
-0.0842755
-0.0680198
-0.0622358
-0.0886952
-0.106437
-0.106415
-0.0980658
-0.0911145
-0.0915661
-0.0884549
-0.0885322
-0.0892473
-0.092798
-0.094066
-0.0948519
0.10215
0.101644
0.101228
0.0992503
0.0996587
0.0997081
0.100976
0.0968475
0.102461
0.115281
0.126535
0.140017
0.1684
0.165306
0.152004
0.198521
0.186833
0.279758
0.402496
0.306729
0.275778
0.274304
0.266262
0.240213
0.20356
0.162539
0.126013
0.044818
-0.0143669
-0.0323779
-0.0499381
-0.0570282
-0.0602734
-0.0730336
-0.0808972
-0.0821507
-0.0851355
-0.0862613
-0.0859241
-0.0843822
0.0865302
0.0839401
0.0830595
0.0825077
0.0812092
0.0771635
0.0729927
0.0673728
0.0525536
0.0345918
-0.0046235
-0.0278977
-0.0738508
-0.153968
-0.256186
-0.320748
-0.405353
-0.356783
-0.249257
-0.184827
-0.0318531
0.0735303
0.136735
0.156575
0.165417
0.129528
0.186782
0.149884
0.103373
0.0460335
-0.00205838
-0.0282729
-0.0422688
-0.0528299
-0.0660313
-0.0701761
-0.0731389
-0.0747247
-0.0746011
-0.0758525
0.0776257
0.0760337
0.0725068
0.0679265
0.0633602
0.0573958
0.045916
0.0342274
0.0138303
-0.0161012
-0.0751261
-0.175796
-0.299162
-0.417467
-0.538797
-0.637952
-0.742911
-0.779217
-0.748357
-0.641329
-0.506437
-0.228159
-0.00659243
-0.0230438
0.0788701
0.0907571
0.119061
0.115228
0.0921383
0.050227
0.00904093
-0.0130703
-0.0247853
-0.038431
-0.0502218
-0.0571619
-0.062382
-0.0681872
-0.0709191
-0.0691167
0.0697756
0.0700108
0.0681025
0.0657686
0.0624963
0.0563339
0.0421874
0.0218246
-0.00206085
-0.0461242
-0.0922398
-0.140176
-0.266779
-0.424875
-0.578549
-0.7076
-0.784058
-0.836638
-0.803135
-0.60563
-0.407797
-0.222325
-0.0679155
0.0956956
0.117087
0.101966
0.0753288
0.0493559
0.0356268
0.034865
0.0107925
-0.0122017
-0.0264436
-0.0404555
-0.0517899
-0.0558915
-0.0582218
-0.0579755
-0.0583207
-0.0615382
0.0617293
0.0630384
0.0639373
0.0627589
0.0594652
0.054887
0.0435736
0.0237242
0.00140328
-0.0225256
-0.0849611
-0.126411
-0.205827
-0.257577
-0.319014
-0.381754
-0.390439
-0.403271
-0.475165
-0.149151
-0.036682
0.0652628
0.119391
0.193606
0.189275
0.155408
0.112328
0.085475
0.0406017
0.00841763
-0.0027611
-0.021885
-0.0311087
-0.0411163
-0.0469088
-0.0507391
-0.0544969
-0.0566528
-0.0589488
-0.0600015
0.0593568
0.0618708
0.0612532
0.0595161
0.0562167
0.0521265
0.0452026
0.0392042
0.0340544
0.0338942
0.0152623
0.0124993
0.00850673
0.0240297
0.0349664
0.05437
0.0805015
0.135438
0.194178
0.293643
0.298018
0.367271
0.278618
0.201808
0.140354
0.0666004
0.0118713
-0.0193017
-0.0429502
-0.0439975
-0.0474909
-0.0511865
-0.050172
-0.0565046
-0.0587242
-0.0591875
-0.0617369
-0.0626323
-0.0626371
-0.0613482
0.0556505
0.0534334
0.0544665
0.0553813
0.0562489
0.0548505
0.0524069
0.0476832
0.0484096
0.0496668
0.0642645
0.108077
0.16293
0.224647
0.279698
0.334583
0.380075
0.442643
0.47658
0.470852
0.374419
0.232629
0.0591492
0.0581344
-0.0199399
-0.0683806
-0.108027
-0.120664
-0.126194
-0.107283
-0.0916498
-0.0830046
-0.077096
-0.0757187
-0.0720069
-0.0696587
-0.0665378
-0.0639181
-0.0621537
-0.0612247
0.0531911
0.0517268
0.0501565
0.0477864
0.0471828
0.0463415
0.0476527
0.0490419
0.0548601
0.0690328
0.08849
0.128427
0.188003
0.274783
0.346991
0.388043
0.406363
0.417204
0.418623
0.276608
0.085735
-0.22957
-0.429134
-0.502489
-0.49755
-0.437634
-0.350729
-0.258888
-0.192752
-0.147651
-0.123998
-0.101358
-0.0915179
-0.0819738
-0.073569
-0.0698744
-0.0679591
-0.065649
-0.0652835
-0.0644311
0.0479123
0.048161
0.0490481
0.0497691
0.0495377
0.0499058
0.052179
0.0536811
0.0526766
0.0598284
0.0812312
0.105438
0.122655
0.134504
0.154203
0.17204
0.175095
0.0475814
-0.0418299
-0.239002
-0.451957
-0.67541
-0.786538
-0.812896
-0.765247
-0.661391
-0.537432
-0.419678
-0.311914
-0.222482
-0.165483
-0.124896
-0.101244
-0.087033
-0.0766911
-0.0714394
-0.067314
-0.064807
-0.0635912
-0.0621979
0.044733
0.0461038
0.0464558
0.0461706
0.0443919
0.0425228
0.0398792
0.0392187
0.0309837
0.0204168
-0.00303129
-0.0147832
-0.0342469
-0.0699178
-0.0819132
-0.106987
-0.136612
-0.262546
-0.384433
-0.521211
-0.704874
-0.875155
-0.886631
-0.84659
-0.75552
-0.621522
-0.492045
-0.369961
-0.257616
-0.186081
-0.145754
-0.111866
-0.0907382
-0.0786909
-0.0706118
-0.0640373
-0.0602333
-0.0575719
-0.0552603
-0.0578166
0.0397261
0.043142
0.0417306
0.0384845
0.0334901
0.0294101
0.0230762
0.014182
-0.000997133
-0.0221962
-0.0511768
-0.0906683
-0.123076
-0.154663
-0.175701
-0.196347
-0.230252
-0.283524
-0.358425
-0.526458
-0.657517
-0.624336
-0.559256
-0.518234
-0.447244
-0.379363
-0.307653
-0.224228
-0.15624
-0.124494
-0.101723
-0.0814663
-0.0641053
-0.0555164
-0.0505449
-0.0485681
-0.0503123
-0.0521332
-0.0536154
-0.0546253
0.0314302
0.0288918
0.0274393
0.0265287
0.0241416
0.0196129
0.0129184
0.000221625
-0.0176295
-0.0414102
-0.0729762
-0.121685
-0.158425
-0.203825
-0.251891
-0.289181
-0.313154
-0.273812
-0.247737
-0.204802
-0.164279
-0.0681638
0.00554124
0.0144632
0.0905953
0.0576577
0.0253896
-0.0062137
-0.0242115
-0.0422058
-0.0368017
-0.038091
-0.0411994
-0.0428425
-0.045201
-0.0453567
-0.0455916
-0.0458245
-0.0463315
-0.0472498
0.0278877
0.0236885
0.0199865
0.01656
0.0116013
0.0040301
-0.00273388
-0.0195023
-0.0425664
-0.0662211
-0.11501
-0.175325
-0.224764
-0.260205
-0.300135
-0.305092
-0.273283
-0.127451
-0.000313385
0.0977341
0.206889
0.330715
0.420002
0.516381
0.411719
0.364457
0.293938
0.209402
0.137952
0.0754339
0.0276885
0.00154501
-0.0139237
-0.0238952
-0.030648
-0.035059
-0.0368798
-0.0378277
-0.0374357
-0.0380501
0.0270738
0.0250932
0.0228371
0.0195774
0.0157537
0.0102269
-0.00571564
-0.0171375
-0.0366199
-0.063285
-0.098951
-0.150361
-0.213628
-0.278617
-0.394487
-0.449057
-0.487692
-0.353451
-0.0777904
0.101321
0.382892
0.59676
0.644602
0.678507
0.597816
0.513648
0.40971
0.286781
0.168074
0.0917989
0.0534494
0.023085
0.00259946
-0.0113405
-0.0203188
-0.0268906
-0.0307179
-0.0327408
-0.0333215
-0.0293278
0.0289804
0.0277608
0.0276892
0.027452
0.0252015
0.0211938
0.0132854
0.000581035
-0.0239525
-0.0507276
-0.0950065
-0.159121
-0.267652
-0.38659
-0.496272
-0.575319
-0.607225
-0.497056
-0.288581
-0.091933
0.179488
0.377448
0.481097
0.535643
0.461515
0.393324
0.3143
0.228753
0.144592
0.086042
0.0436768
0.0154661
0.00139108
-0.0111015
-0.0167963
-0.0201229
-0.0217495
-0.021578
-0.0216944
-0.0229697
0.0328583
0.0369763
0.0368617
0.0352671
0.0328428
0.0285119
0.0260217
0.0190447
-0.00118986
-0.0259028
-0.0683712
-0.110099
-0.191146
-0.271084
-0.342988
-0.400184
-0.563158
-0.541831
-0.467672
-0.305507
-0.165332
-0.0537759
0.0422798
0.0819458
0.0453436
0.0530407
0.0490208
0.0383879
0.0175272
0.00295696
-0.0180201
-0.0230052
-0.0112685
-0.0129506
-0.012636
-0.0120638
-0.0124417
-0.0123977
-0.0151276
-0.0201692
0.0333927
0.0381171
0.0397218
0.0421359
0.0436453
0.0455018
0.0479749
0.0482333
0.0467596
0.0458349
0.0513191
0.0499152
-0.00132219
-0.0598504
-0.124294
-0.1739
-0.279321
-0.362691
-0.429107
-0.399893
-0.34873
-0.320196
-0.279275
-0.275365
-0.259577
-0.236662
-0.219462
-0.189381
-0.170291
-0.128432
-0.0915889
-0.0650281
-0.048974
-0.0394671
-0.0292196
-0.0220838
-0.0170067
-0.0133745
-0.0135237
-0.0182597
0.0333449
0.0352172
0.0385954
0.0433585
0.0483822
0.0563305
0.0660608
0.0792721
0.098614
0.116409
0.127482
0.159972
0.191854
0.230018
0.244614
0.233512
0.237335
0.127171
-0.051159
-0.233521
-0.376822
-0.522221
-0.554693
-0.56779
-0.523687
-0.439582
-0.376874
-0.295822
-0.234612
-0.180809
-0.142532
-0.10625
-0.0804275
-0.0606715
-0.0455708
-0.0340792
-0.0276646
-0.0229703
-0.0204745
-0.0192051
0.0384292
0.0379873
0.0396183
0.0421973
0.0479706
0.0576543
0.0723196
0.0940497
0.128333
0.170396
0.222861
0.303733
0.416102
0.541075
0.640573
0.717464
0.669475
0.55185
0.317428
0.050518
-0.180063
-0.394031
-0.562661
-0.683486
-0.682179
-0.622489
-0.520785
-0.403461
-0.3019
-0.215852
-0.16753
-0.123048
-0.0920144
-0.070224
-0.0547343
-0.0434284
-0.0364707
-0.0305417
-0.0246517
-0.0162087
0.0404036
0.0372209
0.0378666
0.0415488
0.0497456
0.0617013
0.075745
0.099797
0.137902
0.189621
0.259346
0.35068
0.464568
0.589209
0.735417
0.798221
0.824941
0.71943
0.529659
0.246671
-0.0350842
-0.285714
-0.506543
-0.605146
-0.620638
-0.5619
-0.463446
-0.366901
-0.282192
-0.206569
-0.154058
-0.108108
-0.0798301
-0.0602665
-0.0450902
-0.0347903
-0.0256635
-0.0174911
-0.0107008
-0.00421429
0.0410695
0.0354634
0.0370202
0.0396947
0.0459172
0.0536221
0.0692577
0.0829772
0.110943
0.152393
0.19675
0.268929
0.361799
0.467067
0.577082