/*--------------------------------*- C++ -*----------------------------------*\
| =========                 |                                                 |
| \\      /  F ield         | OpenFOAM: The Open Source CFD Toolbox           |
|  \\    /   O peration     | Version:  v2106                                 |
|   \\  /    A nd           | Website:  www.openfoam.com                      |
|    \\/     M anipulation  |                                                 |
\*---------------------------------------------------------------------------*/
FoamFile
{
    version     2.0;
    format      ascii;
    arch        "LSB;label=32;scalar=64";
    class       volVectorField;
    location    "0";
    object      U;
}
// * * * * * * * * * * * * * * * * * * * * * * * * * * * * * * * * * * * * * //

dimensions      [0 1 -1 0 0 0 0];

internalField   nonuniform List<vector> 
11644
(
(-0.000388584 -0.000126108 -5.92548e-21)
(-0.000419602 -0.000302175 -1.63407e-20)
(-0.000411327 -0.00043858 -8.76721e-21)
(-0.000283041 -0.000529691 0)
(-0.000294839 -0.000750682 0)
(-0.00036963 -0.000915475 0)
(-0.000422917 -0.00107083 0)
(-0.000386236 -0.00113383 0)
(-0.000409189 -0.00106476 0)
(-0.000457203 -0.000834295 0)
(-0.000613281 -0.000410256 0)
(-0.000692073 0.000228781 0)
(-0.00059182 0.00110024 0)
(-0.00142659 0.00203913 0)
(-0.00127218 0.00305029 0)
(-0.00116274 0.00372505 0)
(-0.00174928 0.00441372 0)
(-0.00122965 0.00453325 0)
(-0.000457488 0.00373786 0)
(-8.24136e-05 0.0024908 1.10624e-32)
(-0.000824314 0.000888543 -1.34966e-32)
(-0.00116469 0.000224409 0)
(-0.00121468 0.000155806 0)
(-0.0013045 0.000100221 0)
(-0.00122197 4.42319e-05 0)
(-0.0012682 0.000139739 0)
(-0.00127222 0.000819452 0)
(-0.000653221 0.00141981 0)
(-0.000644479 0.00181826 0)
(-0.000488688 0.00216421 0)
(-0.000407494 0.00229824 0)
(-0.000334234 0.00229798 0)
(-0.000348395 0.00218634 0)
(-0.000347079 0.00198191 0)
(-0.000331919 0.00173168 0)
(-0.000281577 0.00141419 0)
(-0.000287133 0.00111909 0)
(-0.000183392 0.000833253 0)
(-0.000148282 0.000552641 0)
(-0.000221266 0.000214287 -1.14889e-21)
(-0.000159662 -0.000141723 -7.61124e-21)
(-6.90862e-05 -0.00039261 -7.05045e-21)
(-2.35466e-06 -0.000653461 -3.78657e-21)
(8.56575e-05 -0.00093888 0)
(6.59458e-05 -0.00117283 0)
(0.000147969 -0.0014305 0)
(0.000213787 -0.00166731 0)
(0.000172099 -0.00179893 0)
(0.000105264 -0.00172405 0)
(9.1617e-05 -0.00134538 0)
(-1.43265e-05 -0.000617741 0)
(-0.000359373 0.000681863 0)
(-0.000865436 0.00218157 0)
(-0.00062169 0.00438033 0)
(-0.00138493 0.00630633 0)
(-0.00222154 0.00798454 -2.01944e-22)
(-0.00205039 0.0085278 -4.18e-22)
(-0.0015907 0.00832418 3.15049e-21)
(-0.00204931 0.00744568 -7.17826e-21)
(-0.00216308 0.00584639 -9.17137e-21)
(-0.00190098 0.00411468 1.55377e-20)
(-0.00140746 0.00272731 9.78864e-21)
(-0.00082735 0.00204149 -1.14175e-20)
(-0.00102669 0.00151998 6.79136e-23)
(-0.00116864 0.00157242 1.24794e-22)
(-0.000486573 0.00215205 0)
(-0.000104679 0.00293863 0)
(-0.000279999 0.00379727 0)
(0.000187587 0.00453483 0)
(0.000422197 0.0048696 0)
(0.000504755 0.00491454 0)
(0.000550224 0.00472851 0)
(0.000651279 0.00432209 0)
(0.000628303 0.00382306 0)
(0.000600836 0.0032241 0)
(0.000607218 0.00264361 0)
(0.00053558 0.00205424 0)
(0.000621017 0.00146434 0)
(0.00056557 0.00090949 0)
(0.000432917 0.000299159 0)
(-0.000504758 -5.05681e-05 0)
(-0.000301564 -0.000241447 0)
(7.14959e-06 -0.000583585 0)
(0.000161949 -0.00092315 0)
(0.000231589 -0.00116175 -6.95273e-21)
(0.000392826 -0.00142766 0)
(0.000598977 -0.00165891 0)
(0.000797668 -0.00179517 0)
(0.000886536 -0.00181025 0)
(0.000804864 -0.00159999 0)
(0.000482014 -0.000870438 0)
(-0.00034615 0.000284258 0)
(-0.00132384 0.00224785 2.16406e-23)
(-0.00328257 0.00459122 2.55753e-21)
(-0.00395 0.00757424 -1.43649e-22)
(-0.00322177 0.0100035 1.60515e-20)
(-0.0032571 0.0114221 4.36627e-20)
(-0.00306572 0.011499 -2.31258e-19)
(-0.00288769 0.0103277 7.24809e-20)
(-0.00213257 0.00859068 2.02043e-19)
(-0.00155649 0.00678563 -5.08922e-20)
(-0.000632386 0.00476456 -7.22823e-20)
(-0.000338829 0.00266274 8.05863e-20)
(-0.000841048 0.00193616 -9.43164e-20)
(-0.000956248 0.00218524 3.54794e-20)
(-0.000737611 0.0034801 -2.31394e-21)
(-2.35467e-05 0.00462973 -1.80244e-21)
(0.00115406 0.00557682 -4.07651e-23)
(0.00158972 0.00614285 0)
(0.00198377 0.00623711 0)
(0.00232336 0.0059094 0)
(0.00241476 0.00532606 0)
(0.00230905 0.00465706 0)
(0.00206103 0.00392763 0)
(0.0019063 0.00317216 0)
(0.00155586 0.00252632 0)
(0.0013678 0.00186086 0)
(0.00114293 0.00125533 0)
(0.000952856 0.000671967 0)
(0.000731032 0.000223636 0)
(-0.000729878 7.03168e-05 0)
(-0.000639894 -4.21276e-05 0)
(-0.000420118 -0.000298441 0)
(-0.000216377 -0.000532135 0)
(0.000132776 -0.000801248 0)
(0.000482283 -0.00115174 0)
(0.000935862 -0.00151203 0)
(0.00130273 -0.00190842 0)
(0.00171232 -0.00223846 0)
(0.00183133 -0.00238536 0)
(0.0013195 -0.00257636 -2.14597e-22)
(0.000655517 -0.00189944 -9.30116e-21)
(-0.000697405 -0.00109419 -4.10498e-21)
(-0.00138391 0.001559 -1.4557e-22)
(-0.00230223 0.00580933 1.0226e-19)
(-0.00343833 0.00915218 -2.43689e-19)
(-0.00367482 0.0120185 -6.67324e-20)
(-0.00348324 0.0126037 1.59938e-19)
(-0.00360353 0.0121195 6.32332e-20)
(-0.00314745 0.010473 5.78506e-20)
(-0.00245648 0.00679851 -1.38996e-20)
(-0.00122024 0.00427237 -1.56723e-19)
(-0.000413362 0.00222729 -9.50247e-20)
(-0.000155327 0.00198266 2.14298e-19)
(4.09769e-05 0.00217461 5.39485e-20)
(0.00142638 0.00383155 -7.69526e-20)
(0.00333202 0.00560182 4.42987e-21)
(0.00424924 0.00645425 8.71364e-21)
(0.00537218 0.0065189 1.80535e-21)
(0.00546711 0.00620669 1.33025e-22)
(0.0049989 0.00561017 0)
(0.00455256 0.00477421 0)
(0.00402846 0.00388828 0)
(0.00335958 0.00310027 0)
(0.00272774 0.00244917 0)
(0.00213185 0.00185958 0)
(0.00168288 0.00136791 0)
(0.00138102 0.000887433 0)
(0.00117393 0.000396887 0)
(0.00103948 6.67593e-05 0)
(-0.000849633 -9.01849e-05 0)
(-0.00081023 -0.000265781 0)
(-0.000822954 -0.000446881 0)
(-0.00058574 -0.000683389 0)
(-0.000190458 -0.000916221 0)
(0.000373294 -0.00128057 0)
(0.000995932 -0.00174079 0)
(0.00169751 -0.0023743 0)
(0.00222248 -0.00324855 0)
(0.00252639 -0.00446852 -5.16536e-21)
(0.00300897 -0.0055412 2.01568e-20)
(0.0027475 -0.00672613 -1.11405e-19)
(0.00293414 -0.00527829 1.34749e-19)
(-0.000255326 -0.0030779 -6.82852e-20)
(-0.00421463 0.00162124 -6.30888e-20)
(-0.00324076 0.00714199 -1.28152e-19)
(-0.00397244 0.0105535 1.22421e-20)
(-0.0074195 0.0110961 -2.87622e-19)
(-0.00801404 0.00973363 7.96889e-19)
(-0.00764218 0.00881317 -1.47018e-19)
(-0.00669491 0.00728699 1.84874e-19)
(-0.00549324 0.00488352 -8.01432e-19)
(-0.00357357 0.00252697 2.88056e-19)
(-0.00149014 0.0010978 5.45448e-20)
(0.00118098 0.00223621 -3.41603e-20)
(0.00201491 0.00492433 1.60322e-19)
(0.00347498 0.00654383 5.55612e-20)
(0.00686288 0.0070102 -1.5144e-19)
(0.0077439 0.00675492 1.10617e-19)
(0.00847103 0.00576623 -2.00886e-20)
(0.00789649 0.00491433 3.88036e-22)
(0.00651822 0.00413267 0)
(0.00527648 0.00329587 0)
(0.00414329 0.00251633 0)
(0.00314854 0.00192012 0)
(0.00244517 0.00136787 0)
(0.00189709 0.000949196 0)
(0.0015163 0.000519561 0)
(0.0012281 0.000260784 0)
(0.0012 4.70526e-05 0)
(-0.00115516 7.27152e-06 0)
(-0.00105167 -5.59655e-05 0)
(-0.0010179 -0.000432754 0)
(-0.000883555 -0.000628 0)
(-0.000514557 -0.000999499 0)
(2.82369e-05 -0.00135465 0)
(0.00068452 -0.0019248 0)
(0.0015613 -0.00285281 0)
(0.00235046 -0.00418364 -3.00933e-22)
(0.00383108 -0.00589372 -9.51856e-22)
(0.00556817 -0.00785294 3.56725e-20)
(0.00741554 -0.00795671 -1.03354e-19)
(0.00561026 -0.0109952 5.03551e-20)
(0.00642039 -0.00980282 -1.42371e-19)
(0.00314503 -0.00269527 2.20895e-19)
(-0.0066241 0.00378257 9.02192e-20)
(-0.00967882 0.00422472 -7.33537e-20)
(-0.00901004 0.00445791 2.87932e-20)
(-0.0108174 0.00793814 -9.73979e-20)
(-0.00997512 0.00832648 -5.76219e-19)
(-0.00855873 0.00614661 4.99081e-19)
(-0.00707105 0.00571254 3.75848e-21)
(-0.00435124 0.00515943 1.39887e-19)
(-0.000813568 0.00513148 -4.21991e-22)
(0.00335164 0.00386483 -6.44215e-20)
(0.00762738 0.00604357 -1.10457e-19)
(0.010026 0.00913142 6.60624e-20)
(0.00956787 0.00939388 3.31141e-20)
(0.0101763 0.00683404 -4.84874e-21)
(0.00971157 0.00552643 -3.73906e-20)
(0.00910111 0.00424966 4.48475e-20)
(0.00762154 0.00345406 -3.56304e-22)
(0.00574157 0.00282523 0)
(0.00430863 0.00214838 0)
(0.00317872 0.0015657 0)
(0.0023346 0.00119409 0)
(0.00176367 0.000874162 0)
(0.0012665 0.000716302 0)
(0.0010837 0.000303722 0)
(0.00102685 0.00010139 0)
(-0.00167142 -9.36727e-05 0)
(-0.00167411 -0.000241693 0)
(-0.00154801 -0.000256461 0)
(-0.0014074 -0.00044427 0)
(-0.00122418 -0.000730275 0)
(-0.000826474 -0.00104962 0)
(-0.000230738 -0.00158775 0)
(0.000593439 -0.00259616 -5.03289e-22)
(0.00221377 -0.00406896 -1.0004e-20)
(0.0047717 -0.0054662 -2.47993e-20)
(0.00705828 -0.00676051 3.83527e-20)
(0.00866416 -0.0107905 -6.81396e-20)
(0.010287 -0.0107738 9.64276e-20)
(0.00467677 -0.0122987 -8.60973e-20)
(0.0053491 -0.0150739 1.9175e-19)
(0.00381244 -0.00843183 1.47821e-20)
(-0.00632678 0.00235421 1.71809e-19)
(-0.00652096 0.00361837 2.54185e-19)
(-0.00593014 0.00485491 -2.52717e-19)
(-0.005578 0.00577054 1.32245e-19)
(-0.00412489 0.00978331 -3.32938e-19)
(-0.00247203 0.00871466 -3.01448e-19)
(-0.000217319 0.0072145 -6.44538e-21)
(0.00249048 0.00349083 8.0627e-19)
(0.0123042 0.00587282 3.64493e-20)
(0.0156451 0.00935076 -1.01629e-19)
(0.00936649 0.0091229 -1.01928e-21)
(0.0140838 0.00800579 8.82702e-20)
(0.0101512 0.0066842 2.91105e-20)
(0.00855457 0.00472368 -1.24351e-19)
(0.00748701 0.00303092 1.83105e-20)
(0.00668139 0.00194124 6.06773e-21)
(0.00524133 0.00158871 -1.4148e-21)
(0.00365537 0.00153862 0)
(0.00259784 0.00117815 0)
(0.0017128 0.000860666 0)
(0.00116722 0.000560162 0)
(0.000871721 0.000352605 0)
(0.000625152 0.000129391 0)
(0.000548872 4.15281e-05 0)
(-0.00232124 2.90359e-06 0)
(-0.00238108 -0.00044261 0)
(-0.00236072 -0.000529326 0)
(-0.0022776 -0.000927681 0)
(-0.00227938 -0.000847763 0)
(-0.00224933 -0.00107533 0)
(-0.00188091 -0.00137131 0)
(-0.00110803 -0.00238656 -4.23103e-21)
(0.00104742 -0.00323275 1.02625e-21)
(0.00333995 -0.00424935 -1.15065e-21)
(0.00473984 -0.00595529 7.548e-20)
(0.00597409 -0.00630729 -7.10899e-20)
(0.0124312 -0.00930307 1.20253e-19)
(0.00467562 -0.015637 8.21565e-20)
(0.00959987 -0.00879806 1.92067e-20)
(0.0127092 -0.00897698 -1.45159e-19)
(0.00280554 -0.0100385 1.28137e-19)
(-0.00454943 0.00417931 2.94585e-19)
(-0.00812361 0.00747396 5.81143e-19)
(-0.00828554 0.0110565 -8.30739e-20)
(-0.00520522 0.0127183 -6.91485e-19)
(-0.000636986 0.00796246 -2.96956e-19)
(0.00357147 0.0071505 8.33298e-20)
(0.00344376 0.00804087 3.76902e-19)
(0.0139299 0.011844 -4.19983e-19)
(0.018216 0.00610488 9.61301e-20)
(0.017676 0.00153865 -1.61539e-19)
(0.0131399 0.00616219 -8.26108e-20)
(0.00844023 0.00198237 9.69511e-20)
(0.00629326 0.00274457 -3.88745e-20)
(0.00388698 0.00110407 4.60452e-21)
(0.00301296 0.000148885 4.65774e-21)
(0.00284719 -3.22768e-05 -1.42512e-21)
(0.00193822 0.000511804 0)
(0.00112087 0.000789543 0)
(0.000662408 0.000619853 0)
(0.000238022 0.000754334 0)
(3.63792e-05 0.000493206 0)
(-8.81444e-05 0.000617873 0)
(-0.000139888 -7.58024e-05 0)
(-0.00296063 -0.000316935 0)
(-0.00301596 -0.000179375 0)
(-0.00302416 -0.000909561 0)
(-0.00334747 -0.00061229 0)
(-0.00355572 -0.000771876 0)
(-0.00395714 -0.00082283 0)
(-0.0041383 -0.00132444 1.39604e-21)
(-0.00334866 -0.00225134 -5.01426e-21)
(-0.00189921 -0.00245713 1.7056e-20)
(-0.00147768 -0.00313768 -1.28173e-20)
(-0.0013444 -0.00468409 -3.20092e-20)
(-0.00122163 -0.00669466 6.39175e-20)
(9.30154e-05 -0.0250506 -5.37735e-20)
(-0.00272263 -0.0189117 9.5261e-20)
(0.000740648 -0.0123232 9.21611e-20)
(-0.0120099 -0.0124553 3.00104e-20)
(-0.00190313 -0.0111781 8.29103e-20)
(-0.0107389 -0.00838555 9.93991e-20)
(-0.0138743 0.008097 6.07947e-19)
(-0.0107763 0.0119399 1.22396e-19)
(-0.00488037 0.0183134 -4.8753e-19)
(0.000622973 0.0155335 -3.92633e-19)
(0.0046695 0.0110458 -9.77602e-20)
(0.00774101 0.0117938 5.24726e-20)
(0.0116592 0.00861609 -9.4146e-20)
(0.000579383 0.0049151 1.42869e-19)
(0.00428976 0.000193979 -1.26177e-19)
(0.00182945 0.00821187 5.58021e-20)
(0.00137529 -0.00272182 -2.69245e-20)
(-0.000139932 -0.000497888 -2.99636e-20)
(-0.00149048 -0.000937979 -7.63705e-21)
(-0.00203094 -0.000773278 1.85516e-20)
(-0.00136298 -0.000641575 -1.00528e-21)
(-0.000809577 0.000120033 -1.47236e-22)
(-0.000905989 0.000902473 0)
(-0.000977823 0.00118705 0)
(-0.000912024 0.00113582 0)
(-0.000920486 0.00125182 0)
(-0.000904453 0.000404112 0)
(-0.000860405 0.000759665 0)
(-0.00291571 -0.000305347 0)
(-0.0031833 -0.000877229 0)
(-0.00370708 -0.000909 0)
(-0.00441961 -0.000974653 0)
(-0.00500488 -0.0014532 0)
(-0.00567298 -0.00152735 0)
(-0.00607335 -0.0025439 6.33528e-21)
(-0.00611147 -0.00287433 -2.01875e-20)
(-0.00668851 -0.00232279 9.18206e-21)
(-0.0078514 -0.00378789 5.02382e-21)
(-0.00907591 -0.0052223 -2.96672e-20)
(-0.00968831 -0.00512968 2.757e-20)
(-0.00600266 -0.0231762 -1.71642e-21)
(-0.0046243 -0.0190445 6.232e-20)
(-0.00605616 -0.01256 -1.39797e-19)
(-0.0174604 -0.0280069 1.87536e-19)
(-0.0214638 -0.0129185 -1.85721e-20)
(-0.0274675 -0.00706066 9.94526e-21)
(-0.0236829 0.00523423 1.61965e-19)
(-0.018848 0.022128 2.57971e-21)
(-0.00176904 0.0281025 1.73644e-19)
(0.008134 0.0209651 -1.93765e-19)
(0.0112445 0.0110282 -5.20884e-20)
(0.00404207 0.00450881 -4.53605e-20)
(-0.00136868 0.00112011 9.18012e-20)
(-0.0032699 0.00878657 3.86579e-19)
(-0.00233417 -0.00977883 1.99312e-20)
(-0.0106431 0.00592572 -8.30233e-21)
(-0.0121035 -0.00165589 3.73709e-20)
(-0.0106158 -0.00105743 -1.98872e-20)
(-0.0086702 -0.000127628 -1.83719e-22)
(-0.00754305 0.000741221 -1.13541e-21)
(-0.0060992 0.00068964 1.32279e-21)
(-0.00416719 0.00121032 -3.76806e-21)
(-0.00333967 0.0017358 0)
(-0.0028944 0.00171702 0)
(-0.00247947 0.00117264 0)
(-0.00190517 0.000995155 0)
(-0.00156544 0.000784151 0)
(-0.00132957 -0.000282554 0)
(-0.00302361 0.000436429 0)
(-0.00336081 -0.00113908 0)
(-0.00354301 -0.00135347 0)
(-0.0037088 -0.00267132 0)
(-0.00470556 -0.00282436 0)
(-0.00570279 -0.00352859 0)
(-0.00696541 -0.00452171 8.38785e-22)
(-0.00843719 -0.00476648 -7.67626e-22)
(-0.0104698 -0.00494766 -3.8991e-21)
(-0.0117552 -0.00671084 -6.33001e-21)
(-0.0115897 -0.011552 1.79102e-20)
(-0.0158036 -0.00956587 3.13222e-22)
(-0.0203242 -0.0100411 -1.34237e-20)
(-0.00133157 -0.0214346 1.66924e-20)
(-0.0203404 -0.0249773 2.59482e-21)
(-0.00923204 -0.0246627 -1.35661e-20)
(-0.0192188 -0.0286512 6.10156e-21)
(-0.0408379 -0.0184004 -5.46842e-21)
(-0.0568813 0.00361752 8.73946e-21)
(-0.0497865 0.0463433 -1.95808e-19)
(0.000711006 0.071788 8.23216e-19)
(0.0407023 0.0344405 8.63643e-20)
(0.0263052 -0.00128419 -4.79216e-20)
(0.00816241 -0.00883799 -1.11821e-20)
(-0.00279283 -0.00147471 -1.11891e-21)
(-0.0116595 0.00403679 -6.65029e-21)
(-0.019365 -0.0049344 4.06968e-20)
(-0.0267105 -0.00579688 -9.78467e-21)
(-0.0253729 -0.00170199 1.04271e-20)
(-0.0205507 0.00327417 -1.1959e-20)
(-0.0152976 0.00481987 1.43718e-20)
(-0.0117711 0.00492749 -6.08184e-22)
(-0.00905338 0.004211 -9.35478e-23)
(-0.00629268 0.00396005 -1.62242e-21)
(-0.00430131 0.0043464 0)
(-0.00320145 0.00390568 0)
(-0.0025114 0.00352838 0)
(-0.00213472 0.00210588 0)
(-0.00166096 0.00186749 0)
(-0.00164339 0.000318385 0)
(-0.00269019 -0.00210656 0)
(-0.00239635 -0.00209155 0)
(-0.00262532 -0.00322026 0)
(-0.00325111 -0.00369803 0)
(-0.00408046 -0.00412078 0)
(-0.00524998 -0.00518149 0)
(-0.0062517 -0.00673717 -3.20443e-23)
(-0.00711738 -0.00788392 -3.82449e-22)
(-0.007275 -0.0107598 6.0866e-22)
(-0.00892624 -0.012976 -3.42586e-21)
(-0.00736034 -0.0192021 5.01193e-22)
(-0.00712716 -0.0217157 3.32012e-21)
(-0.00742882 -0.0220249 -2.83973e-23)
(-0.016629 -0.0309446 -2.95855e-20)
(-0.0204425 -0.033297 4.92931e-21)
(-0.0219308 -0.0449882 3.36005e-20)
(-0.0335937 -0.0482059 -4.43932e-21)
(-0.053243 -0.0508768 -7.90534e-21)
(-0.0737948 -0.0626656 9.12831e-20)
(0.0107371 -0.0800186 1.64476e-19)
(-0.00867541 -0.0321867 1.16067e-20)
(-0.0238056 -0.0246043 -8.70649e-22)
(-0.0347582 -0.0241696 1.7967e-20)
(-0.0390257 0.00593622 1.30486e-20)
(-0.0337759 -0.0105275 -3.52756e-21)
(-0.0291834 0.0027821 -1.11877e-21)
(-0.0243466 0.00931808 7.02276e-21)
(-0.0178912 0.0100065 -3.34106e-21)
(-0.0123502 0.00989832 8.49649e-22)
(-0.00834814 0.0090789 2.26346e-22)
(-0.00588069 0.00734533 -2.85191e-22)
(-0.00388459 0.00635911 0)
(-0.00250253 0.00536303 0)
(-0.0014283 0.00442308 0)
(-0.000785994 0.00408849 0)
(-0.000824197 0.00230407 0)
(-0.00102761 0.00246977 0)
(0.000506931 -0.000149669 0)
(0.000243745 -0.000669791 0)
(-0.000231197 -0.00190979 0)
(-0.00066056 -0.00247811 0)
(-0.000651174 -0.00425036 0)
(-0.000879906 -0.0058603 0)
(-0.000445769 -0.00805696 2.63356e-22)
(0.000231565 -0.0100098 -3.80449e-21)
(0.00379861 -0.0141568 5.27057e-21)
(0.00643576 -0.0170016 -5.10322e-21)
(0.0104465 -0.0224242 8.46163e-21)
(0.0129146 -0.02449 3.03172e-20)
(0.0199777 -0.0246367 -2.14037e-20)
(0.00918816 -0.0350611 -2.68899e-20)
(0.0169485 -0.0377686 -5.79001e-21)
(0.00605894 -0.0496263 -1.23416e-20)
(-0.00588807 -0.0665537 -1.44443e-20)
(-0.0276427 -0.0901443 -8.06431e-21)
(0.0101636 -0.10636 -2.89744e-18)
(-0.033233 -0.104342 -1.29493e-18)
(-0.051477 -0.0288179 -4.81455e-21)
(-0.0323365 -0.0110065 -3.87323e-21)
(-0.0209107 -0.0162045 2.88952e-21)
(-0.0292061 0.00145362 -1.53072e-20)
(-0.0218208 -0.00613267 -1.28961e-20)
(-0.021669 0.00461853 2.82037e-20)
(-0.017856 0.0106304 -9.29465e-21)
(-0.0144409 0.0119302 1.30352e-21)
(-0.00924077 0.013028 4.44603e-22)
(-0.00431351 0.0125935 4.64624e-22)
(-0.00138098 0.0105863 -5.20506e-22)
(-0.000278779 0.00845738 0)
(2.07857e-05 0.00634352 0)
(0.000333372 0.00415535 0)
(0.000935475 0.00305966 0)
(0.00135115 0.00126684 0)
(0.00234758 -0.00137303 0)
(-0.00038227 0.000223528 3.07191e-24)
(0.00161311 -0.000944086 0)
(0.00294048 -0.000845493 0)
(0.00399946 -0.00187641 0)
(0.00515003 -0.00312263 0)
(0.00571095 -0.00399102 0)
(0.00701486 -0.00602967 -1.3188e-21)
(0.0117213 -0.00719596 1.23915e-21)
(0.0178618 -0.0125607 1.07714e-20)
(0.0242654 -0.0158155 5.04933e-21)
(0.0329219 -0.0211255 -2.73673e-21)
(0.0408229 -0.0186445 5.48466e-22)
(0.0474199 -0.0171693 -2.08701e-20)
(0.0447076 -0.0279683 7.34163e-20)
(0.0403026 -0.0370386 6.09993e-20)
(0.0329872 -0.0573345 3.32459e-20)
(0.0254227 -0.0747657 -3.10779e-20)
(-0.0460969 -0.0732725 5.80694e-21)
(0.00539065 -0.0108993 -1.90408e-19)
(-0.127721 -0.0209605 1.17931e-19)
(-0.100995 0.0134335 -2.80821e-20)
(-0.0293888 0.0120066 3.98928e-22)
(-0.0155905 -0.00106034 -3.97331e-20)
(-0.0127651 -0.00355437 -2.22464e-19)
(-0.0102828 -0.00988809 -1.82168e-20)
(-0.00880588 -0.000174796 1.81625e-20)
(-0.00850669 0.00925459 7.33341e-20)
(-0.00770061 0.0115002 -8.49471e-21)
(-0.0022838 0.0127962 1.03687e-20)
(0.00184432 0.0133654 1.19364e-21)
(0.00537576 0.0119679 -3.17554e-23)
(0.00656993 0.0101752 0)
(0.00632988 0.00831247 0)
(0.00623516 0.00637947 0)
(0.00589729 0.00392128 0)
(0.00549737 0.00263251 0)
(0.00473606 -1.49452e-05 0)
(0.00513482 -0.00100116 1.28208e-23)
(0.00498983 -0.0016285 0)
(0.00632967 -0.00156729 0)
(0.00744851 -0.00238014 0)
(0.00925266 -0.00280732 0)
(0.0115575 -0.00293444 0)
(0.0151044 -0.00326333 2.88298e-22)
(0.022267 -0.00369787 -3.94822e-21)
(0.0333969 -0.0073414 -1.98357e-21)
(0.0445071 -0.00858516 1.8934e-20)
(0.0551982 -0.0115508 -5.87368e-21)
(0.0645763 -0.0117367 7.59437e-21)
(0.0682365 -0.0131942 -3.86143e-20)
(0.0683788 -0.0280569 9.57187e-20)
(0.0637428 -0.0378726 -2.10181e-19)
(0.0579398 -0.0606504 -2.96624e-20)
(0.0462153 -0.0790893 -1.59929e-19)
(-0.0995493 -0.0605507 -1.14939e-19)
(-0.0492346 -0.0860727 -3.54258e-19)
(0.0814901 -0.0819984 4.33721e-19)
(-0.179621 -0.00602056 -7.51106e-21)
(-0.063234 0.12299 -8.69428e-20)
(-0.0426168 0.124826 -7.09582e-20)
(-0.126308 0.042235 -1.94001e-19)
(-0.00299972 0.0281351 1.86631e-19)
(0.00219137 0.0109081 2.34162e-20)
(0.0059248 -0.00179527 -1.00266e-19)
(-0.00598061 -0.00363143 8.30232e-21)
(-0.0112185 -0.000205448 1.69602e-21)
(-0.00609887 0.00289657 -2.71297e-20)
(0.00084466 0.00686208 1.25604e-20)
(0.00541404 0.0110241 -8.74139e-21)
(0.00928936 0.0114224 -5.22742e-21)
(0.0129477 0.011492 4.63089e-22)
(0.011949 0.00851473 0)
(0.0126013 0.00648633 0)
(0.0130224 0.00508295 0)
(0.012666 0.0039025 0)
(0.0120168 0.0032113 0)
(0.0107441 0.00375418 0)
(0.0101788 0.000813387 6.61561e-23)
(0.0082719 0.00246849 0)
(0.00851394 0.00279883 0)
(0.0101136 0.00315824 0)
(0.0124967 0.0033337 0)
(0.0158132 0.00404296 0)
(0.0216969 0.00443039 3.07251e-24)
(0.0320676 0.00385819 -1.12947e-21)
(0.0460145 0.000374917 6.29452e-21)
(0.0601229 0.00057403 2.52148e-20)
(0.0723071 -0.00626048 4.17539e-21)
(0.0850564 -0.011306 2.24901e-20)
(0.08588 -0.0209938 -5.66201e-20)
(0.0814117 -0.0281329 1.37229e-19)
(0.0905927 -0.0358337 1.56517e-19)
(0.0944226 -0.0555137 3.76991e-19)
(0.068737 -0.0947335 -8.07884e-19)
(-0.151123 -0.0799787 -2.59574e-18)
(-0.12311 -0.191322 1.86419e-19)
(0.0701186 -0.226229 -3.28793e-18)
(-0.491029 -0.0907252 5.6435e-19)
(-0.173829 0.162752 -5.42015e-19)
(0.1029 0.213675 8.42721e-19)
(-0.0422103 0.0462324 6.84771e-19)
(0.0287749 0.0172427 -2.49592e-19)
(-0.000847366 0.0151131 4.37213e-19)
(-0.0106438 0.0106391 3.43482e-20)
(-0.00480327 -0.00796515 1.13958e-19)
(-0.00583992 0.00137037 1.40133e-19)
(-0.000754181 0.00108131 2.26327e-21)
(0.00275912 0.00101356 1.13251e-20)
(0.00894446 0.00450042 -1.42731e-20)
(0.015498 0.00540365 -3.84294e-21)
(0.0196982 0.00737175 9.22384e-23)
(0.0187451 0.0060954 0)
(0.0165277 0.00481884 0)
(0.0141623 0.00399864 0)
(0.0124138 0.00302285 0)
(0.0127176 0.000751893 0)
(0.0137968 -0.00197504 4.01067e-22)
(0.00618259 0.000905013 7.48515e-22)
(0.00674998 0.00295482 0)
(0.00788399 0.00403101 0)
(0.0104231 0.0059484 0)
(0.0131574 0.00790397 0)
(0.0172799 0.00965747 0)
(0.0252135 0.0107205 0)
(0.037903 0.0122579 2.3317e-22)
(0.0530922 0.00868328 -1.12691e-20)
(0.0717542 0.00476618 3.8295e-20)
(0.0809955 0.00215753 -1.00153e-21)
(0.09844 -0.0142768 3.46502e-21)
(0.0986218 -0.0168109 -8.67085e-20)
(0.103223 0.00392902 1.10788e-19)
(0.122152 -0.0121559 -2.58503e-19)
(0.132466 -0.0351512 -6.64191e-20)
(0.139863 -0.0578665 -1.27268e-19)
(-0.102298 -0.096634 -1.17392e-18)
(0.108016 -0.0722184 -5.81581e-19)
(0.142921 -0.0665647 -9.41e-19)
(-0.536891 -0.180855 2.85836e-18)
(-0.56438 -0.242427 -4.24318e-19)
(0.133425 -0.0329808 -7.22848e-19)
(0.105821 -0.112281 5.21852e-18)
(-0.0125363 -0.00868034 4.39958e-20)
(-0.0131311 -0.00448489 1.07293e-19)
(-0.0272619 0.00475352 1.55757e-21)
(-0.0183208 -0.00187803 -1.8938e-20)
(-0.0145115 -0.00608536 7.0423e-20)
(-0.00543125 -0.00499776 -1.61057e-21)
(0.00279282 -0.00269534 -2.8164e-20)
(0.00974381 -0.00154005 1.61626e-20)
(0.0185067 0.00198294 -3.29003e-22)
(0.0219126 0.00363317 0)
(0.0228197 0.00212177 0)
(0.0209471 0.0022224 0)
(0.0188612 0.00149796 0)
(0.0175064 0.000721163 0)
(0.0159506 0.000316118 0)
(0.0152684 0.000875554 7.38537e-23)
(0.00456127 0.00198692 8.88539e-23)
(0.00658888 0.00413611 0)
(0.00680853 0.0063954 0)
(0.00732191 0.00940443 0)
(0.00883853 0.0123094 0)
(0.0127589 0.0155618 0)
(0.021047 0.0184878 0)
(0.0351986 0.0213417 0)
(0.0498703 0.0213956 -7.11608e-22)
(0.0660422 0.0203006 -8.77375e-21)
(0.0790376 0.0182071 2.03488e-20)
(0.0911313 0.0120831 -5.37891e-21)
(0.112244 0.00374273 2.56997e-20)
(0.117086 -0.00310852 1.8642e-21)
(0.112827 0.00441997 -1.95187e-19)
(0.135709 -0.00241645 -8.62686e-20)
(0.223493 0.0170921 4.30518e-19)
(-0.0364711 -0.269117 -2.55971e-19)
(-0.222968 -0.225779 -6.28115e-19)
(-0.465234 -0.066903 3.61625e-19)
(-0.0528352 0.426579 -8.94816e-19)
(-0.177952 0.246089 1.09842e-18)
(0.167536 -0.405375 -1.21934e-19)
(-0.106373 -0.25694 -2.29179e-18)
(-0.0928309 -0.00631437 -2.08962e-20)
(-0.0469577 0.0301917 -2.81836e-19)
(-0.0196627 0.0280692 1.77983e-20)
(-0.0206747 0.00645596 -2.28273e-20)
(-0.0159026 0.003451 5.31128e-20)
(-0.0151444 0.00230874 -2.64651e-21)
(-0.00789907 -0.00111411 -1.28252e-20)
(0.00184961 0.00159145 1.1087e-21)
(0.0103119 0.00103344 0)
(0.0190736 -0.000256721 0)
(0.0227875 -0.00148248 0)
(0.0221604 -0.00139615 0)
(0.0211301 -0.00217 -1.09752e-20)
(0.020376 -0.00216939 -1.5178e-20)
(0.019007 -0.000895344 -9.0508e-21)
(0.0186717 0.000685321 0)
(-0.00198247 0.00143259 0)
(8.59551e-06 0.0038056 0)
(0.000519142 0.00715413 0)
(0.00101346 0.00999325 0)
(0.00179074 0.0127518 0)
(0.00359423 0.0161966 0)
(0.0100547 0.0201081 0)
(0.0239958 0.0245924 0)
(0.0388681 0.0282635 1.08678e-23)
(0.0514567 0.0322221 -6.83916e-22)
(0.0709644 0.0348508 5.25285e-21)
(0.0765766 0.0344997 2.09524e-20)
(0.098073 0.0372302 1.93714e-20)
(0.106974 0.0129031 1.3642e-20)
(0.0884262 0.0113143 -1.2064e-18)
(0.0728468 0.0382018 4.24765e-20)
(0.230031 0.0916453 1.69902e-19)
(0.327777 -0.0334836 4.3186e-19)
(-0.245803 -0.206375 2.65945e-19)
(-0.567016 -0.212861 -2.56323e-18)
(-0.453932 -0.601993 4.73429e-19)
(0.133025 -0.679473 -1.8439e-18)
(0.257742 0.028731 -6.40735e-19)
(-0.165583 0.239526 -3.71978e-19)
(-0.266859 0.122685 9.82991e-20)
(0.00903377 0.0751456 -1.16039e-19)
(0.0308001 0.00365124 -3.286e-20)
(0.00828936 0.000328225 1.58634e-20)
(-0.000605188 0.00658102 -1.01476e-21)
(-0.00608092 0.0011332 5.5063e-21)
(-0.00256921 -0.00103245 -8.41966e-22)
(0.00483789 0.00114635 6.75005e-24)
(0.0125529 -0.00277126 0)
(0.0211648 -0.00438677 0)
(0.0231307 -0.00502498 0)
(0.0217196 -0.00434591 0)
(0.0200788 -0.00419753 0)
(0.0189697 -0.00282986 0)
(0.0182115 -0.00129531 0)
(0.0182315 -0.000853965 1.63006e-21)
(-0.00478513 0.000127513 0)
(-0.00415644 0.0026807 0)
(-0.00375065 0.00634608 0)
(-0.00340579 0.00974061 0)
(-0.00319988 0.0131825 0)
(-0.002602 0.0169066 0)
(0.0016604 0.0203799 0)
(0.0138542 0.0253011 0)
(0.0289742 0.0297088 0)
(0.0410139 0.0376765 0)
(0.0562078 0.0399428 8.16115e-22)
(0.0648377 0.049877 -6.52457e-21)
(0.0843302 0.0564581 -1.75763e-20)
(0.0926575 0.0396339 4.49829e-20)
(0.124374 0.0410404 -3.7985e-18)
(0.0659893 0.0258443 -8.07301e-20)
(0.118745 0.110784 -1.13091e-18)
(0.433533 0.199508 2.33547e-19)
(0.320026 -0.110962 2.83754e-19)
(-0.0752728 -0.341803 1.83228e-18)
(-0.419142 -0.0820267 -6.10487e-19)
(-0.535812 0.215451 -3.63767e-19)
(-0.402106 0.240494 3.83453e-19)
(-0.217336 0.299131 -1.16066e-19)
(0.0860636 0.205938 1.95087e-19)
(0.139583 0.0178354 -4.89628e-20)
(0.0527318 -0.0481113 1.33904e-20)
(0.0280853 -0.0310884 -1.11523e-20)
(0.0065717 -0.0249227 -5.30442e-21)
(-0.000194022 -0.0216653 -1.62137e-21)
(0.00105226 -0.0163112 0)
(0.00693776 -0.0121202 0)
(0.0142997 -0.0114309 0)
(0.0207973 -0.00852858 0)
(0.0218275 -0.00700099 0)
(0.0199812 -0.00540044 0)
(0.0179223 -0.00436422 0)
(0.0167584 -0.00310068 0)
(0.0160185 -0.00194309 0)
(0.0144594 -0.000969859 0)
(-0.00641857 0.000579018 0)
(-0.00800071 0.0040741 0)
(-0.00839378 0.00715556 0)
(-0.00915143 0.0107671 0)
(-0.00986162 0.0146872 0)
(-0.0100659 0.0189714 0)
(-0.00567646 0.0226648 0)
(0.00462635 0.0271531 0)
(0.0171671 0.0301698 0)
(0.0284806 0.040263 0)
(0.0374908 0.0400191 0)
(0.0474319 0.0615062 4.19439e-23)
(0.0583131 0.0779949 8.87846e-22)
(0.112414 0.128801 -5.94893e-21)
(0.11439 0.038259 -1.23924e-18)
(0.199556 -0.0573337 -1.31342e-19)
(-0.0841034 -0.0814907 -9.24098e-19)
(0.00735497 0.477758 2.30547e-19)
(-0.033599 1.08498 -9.63859e-20)
(-0.144879 1.20641 1.4549e-18)
(-0.268587 0.940019 1.83362e-19)
(-0.273133 0.550135 4.97587e-19)
(-0.115078 0.124347 -2.44169e-19)
(-0.129794 -0.0282463 2.83762e-19)
(0.059478 0.0413172 4.22171e-19)
(0.275781 -0.0705201 -3.31434e-19)
(0.0296866 -0.0949074 1.58687e-19)
(3.50141e-05 -0.060866 3.61334e-21)
(-0.00957078 -0.0499945 -2.7354e-23)
(-0.01373 -0.0408379 0)
(-0.00853141 -0.0299025 0)
(-0.0017095 -0.0251708 0)
(0.00834577 -0.0189079 0)
(0.0158656 -0.0141085 0)
(0.0182334 -0.0109832 0)
(0.0171404 -0.00857552 0)
(0.015913 -0.00654584 0)
(0.0148736 -0.00490186 0)
(0.0140505 -0.00294298 0)
(0.0130137 -0.000752656 0)
(-0.0112153 0.00219615 0)
(-0.0136668 0.00527055 0)
(-0.014808 0.0081734 0)
(-0.0154448 0.0113128 0)
(-0.0162857 0.0146447 0)
(-0.0164796 0.01831 0)
(-0.0123759 0.0221411 0)
(-0.00350504 0.0275614 0)
(0.00693707 0.0330892 0)
(0.017217 0.0422279 0)
(0.0184493 0.0515954 9.98405e-21)
(0.0328158 0.0572809 0)
(0.0187679 0.101869 0)
(0.119168 0.147138 1.44339e-19)
(0.290037 0.104256 -2.35221e-19)
(0.253829 0.0371196 -2.11414e-18)
(-0.532085 -0.00784446 4.30472e-21)
(-0.544565 -0.246449 -1.33461e-19)
(-0.287995 -0.30792 1.19856e-18)
(0.0554057 -0.291119 -4.04458e-18)
(0.106155 -0.218386 -1.7343e-19)
(-0.0514391 -0.0668453 1.96273e-18)
(-0.187768 0.138679 2.2642e-19)
(-0.135643 0.014505 3.20915e-20)
(0.370285 -0.388231 -8.59705e-21)
(0.0214981 -0.179353 -1.63654e-19)
(-0.0471646 -0.0952782 1.43985e-19)
(-0.0370418 -0.065763 0)
(-0.0310494 -0.0564585 0)
(-0.029002 -0.0446408 -5.43156e-21)
(-0.0203052 -0.0354581 0)
(-0.0125628 -0.0312954 0)
(-0.00121776 -0.0256217 0)
(0.007346 -0.0216359 0)
(0.0110874 -0.0175658 0)
(0.010818 -0.0136012 0)
(0.0101384 -0.0100491 0)
(0.00941243 -0.00656832 1.80633e-21)
(0.009131 -0.00365532 1.29588e-21)
(0.00883807 -0.000584334 0)
(-0.0170475 0.00327724 0)
(-0.0176341 0.00572123 0)
(-0.0184509 0.00793974 0)
(-0.0194744 0.0100025 0)
(-0.0206646 0.0124663 0)
(-0.0214602 0.0156898 0)
(-0.0185762 0.0196594 0)
(-0.0104591 0.0254611 0)
(-0.00326185 0.0340266 0)
(0.00663269 0.0398898 0)
(0.00120997 0.0606947 4.18287e-21)
(0.00910836 0.0632303 0)
(-0.0102261 0.103665 0)
(0.0270294 0.158811 1.60162e-20)
(0.308938 0.215957 1.17207e-18)
(0.180497 0.24216 -1.81861e-19)
(0.0249331 0.111835 0)
(0.0500297 -0.0949684 6.16329e-20)
(0.036623 -0.276959 -9.88921e-20)
(0.0038661 -0.397067 -4.82036e-19)
(-0.0854659 -0.555221 1.93662e-18)
(-0.153722 -0.625482 2.15484e-19)
(-0.170218 -0.606621 -5.35504e-20)
(-0.0723596 -0.457875 0)
(-0.117761 -0.161213 1.85356e-19)
(-0.139409 -0.0865064 9.49696e-20)
(-0.0805673 -0.0613098 1.21607e-20)
(-0.0541971 -0.0548581 0)
(-0.0514542 -0.044172 0)
(-0.0394733 -0.0376157 1.44068e-20)
(-0.030279 -0.0325171 0)
(-0.0186728 -0.0294259 0)
(-0.0070344 -0.0281569 0)
(0.00129248 -0.0250405 0)