/*--------------------------------*- C++ -*----------------------------------*\
| =========                 |                                                 |
| \\      /  F ield         | OpenFOAM: The Open Source CFD Toolbox           |
|  \\    /   O peration     | Version:  v2106                                 |
|   \\  /    A nd           | Website:  www.openfoam.com                      |
|    \\/     M anipulation  |                                                 |
\*---------------------------------------------------------------------------*/
FoamFile
{
    version     2.0;
    format      ascii;
    arch        "LSB;label=32;scalar=64";
    class       volScalarField;
    location    "0";
    object      p;
}
// * * * * * * * * * * * * * * * * * * * * * * * * * * * * * * * * * * * * * //

dimensions      [0 2 -2 0 0 0 0];

internalField   nonuniform List<scalar> 
11644
(
0.0427794
0.043187
0.0440444
0.0453695
0.047169
0.0494556
0.0522447
0.0555485
0.0593702
0.0637003
0.0685032
0.0737127
0.0792396
0.0849426
0.090635
0.0961343
0.101222
0.105613
0.109021
0.111317
0.112488
0.112532
0.111423
0.109224
0.1061
0.102285
0.0980249
0.0935038
0.0889244
0.0844513
0.0802098
0.0762919
0.0727581
0.0696478
0.0669811
0.064765
0.063001
0.0616905
0.0608382
0.0604337
0.0420623
0.0424619
0.0432891
0.044567
0.0463143
0.0485512
0.0512993
0.0545776
0.0584002
0.0627674
0.0676617
0.0730433
0.0788186
0.0848416
0.0909457
0.0968976
0.102377
0.107062
0.11074
0.113313
0.114603
0.114527
0.113137
0.110592
0.107096
0.102902
0.0982452
0.093396
0.0885539
0.083884
0.0795076
0.0755088
0.0719356
0.0688145
0.0661575
0.0639657
0.0622348
0.0609586
0.0601288
0.0597281
0.0405102
0.0409077
0.0417044
0.0429175
0.0445779
0.0467195
0.049377
0.0525874
0.0563859
0.0608013
0.0658527
0.0715195
0.0777502
0.0844369
0.091377
0.0982381
0.104652
0.110299
0.114875
0.11804
0.119498
0.119116
0.117084
0.113693
0.10929
0.104176
0.0986883
0.0931231
0.0877237
0.0826616
0.0780363
0.0738934
0.0702572
0.0671279
0.0644945
0.062343
0.0606561
0.0594134
0.0585915
0.0581781
0.0381852
0.0385601
0.0393034
0.0404249
0.0419596
0.0439523
0.0464562
0.0495323
0.0532498
0.0576817
0.0628883
0.0689301
0.0758377
0.083525
0.0917816
0.100204
0.108368
0.115898
0.122001
0.126052
0.127657
0.126697
0.123474
0.118501
0.112538
0.105888
0.099056
0.0924539
0.0862723
0.0806565
0.0756863
0.0713691
0.0676688
0.0645452
0.0619573
0.0598661
0.0582355
0.0570308
0.0562261
0.0558185
0.0351824
0.0355073
0.0361541
0.0371365
0.0384854
0.0402538
0.0425105
0.0453421
0.0488567
0.0531804
0.0584772
0.0649321
0.0726662
0.0816985
0.0918815
0.102793
0.113683
0.124209
0.132763
0.138241
0.140033
0.138022
0.132722
0.124944
0.116493
0.107481
0.098744
0.0907541
0.083679
0.077526
0.0722413
0.0677787
0.0640605
0.0609946
0.0585007
0.0565109
0.0549707
0.0538377
0.0530833
0.0527016
0.0316097
0.0318588
0.0323627
0.0331341
0.0342114
0.0356484
0.0375215
0.0399373
0.0430382
0.0470447
0.0522506
0.058939
0.0674041
0.0779222
0.0906734
0.105156
0.120198
0.135642
0.148415
0.156582
0.158562
0.154295
0.14526
0.133163
0.120615
0.107986
0.0966603
0.0871367
0.0792021
0.0726792
0.0673106
0.0628904
0.0592912
0.0563975
0.0540925
0.0522819
0.0508964
0.0498875
0.0492256
0.0488949
0.0275757
0.0277345
0.02805
0.0285435
0.02925
0.0302188
0.031529
0.0332934
0.0356979
0.0390502
0.0436982
0.0500457
0.0585894
0.0703631
0.0859926
0.10549
0.121439
0.141945
0.161065
0.174815
0.179515
0.174349
0.161589
0.145097
0.122717
0.105643
0.0913264
0.0803808
0.0720608
0.0655456
0.0604501
0.0564246
0.0532185
0.050693
0.0487266
0.0472139
0.0460778
0.0452668
0.0447414
0.0444855
0.023255
0.0232938
0.0233807
0.0235305
0.0237624
0.0241203
0.0246675
0.0255062
0.0268528
0.0289951
0.0322603
0.0372376
0.0447676
0.0566504
0.072521
0.0939541
0.123549
0.156351
0.189065
0.213203
0.220354
0.208722
0.18368
0.154633
0.126506
0.103878
0.0875883
0.0692755
0.0613828
0.0556096
0.0513747
0.0481897
0.0457502
0.0438736
0.0424586
0.0414026
0.0406296
0.0400868
0.0397412
0.0395641
0.0188179
0.0187387
0.0185689
0.0183111
0.0179801
0.0175935
0.0171761
0.0168045
0.0166464
0.0168755
0.0178209
0.0200232
0.0241931
0.0380126
0.0526387
0.0765963
0.10963
0.159108
0.214473
0.263204
0.281127
0.258663
0.211991
0.162282
0.121755
0.0886785
0.0709867
0.0517917
0.0462684
0.042549
0.0399836
0.0382042
0.0369562
0.0360499
0.0354164
0.0349809
0.0346866
0.0344896
0.034372
0.0343205
0.0144883
0.0142661
0.0138235
0.0131388
0.0122007
0.0109801
0.00945023
0.00762045
0.00553415
0.00319324
0.000774262
-0.00138852
-0.00324546
0.00629459
0.0134614
0.035859
0.0716533
0.133992
0.232048
0.345621
0.395608
0.335498
0.228205
0.143999
0.0868608
0.0514586
0.0404909
0.0270305
0.0265241
0.0262884
0.0263934
0.0267181
0.0271155
0.0274975
0.027859
0.0281935
0.0284767
0.0287003
0.0288413
0.0289137
0.0104649
0.0101341
0.00942563
0.00832262
0.00677107
0.00470824
0.00204105
-0.00133397
-0.00556678
-0.0108607
-0.0174877
-0.0257392
-0.0359633
-0.0371012
-0.0449839
-0.0433735
-0.0303696
0.0054471
0.126551
0.394387
0.589955
0.359813
0.121716
0.0265165
-0.00235436
-0.0095753
-0.00324678
-0.00323085
0.00274237
0.00742689
0.01126
0.0143104
0.0167225
0.018641
0.0201585
0.0213612
0.022278
0.0229381
0.0233712
0.0235622
0.00701132
0.00655802
0.0056199
0.00415308
0.00207389
-0.000718047
-0.0043847
-0.00914345
-0.0153577
-0.0234886
-0.0342401
-0.0487399
-0.0686767
-0.0790336
-0.112892
-0.143055
-0.195658
-0.297045
-0.544394
-0.501128
-0.230028
-0.128289
-0.0817696
-0.0523049
-0.0358165
-0.0221702
-0.0118224
-0.00397481
0.00196241
0.00651107
0.010046
0.0127631
0.0148441
0.0164124
0.0175366
0.0182718
0.0186499
0.00431798
0.00372414
0.00261496
0.000894404
-0.00152645
-0.00480447
-0.00913759
-0.0148223
-0.0223617
-0.0324299
-0.0459886
-0.0643803
-0.0900103
-0.113546
-0.163369
-0.222698
-0.324582
-0.51153
-0.713936
-0.525107
-0.360262
-0.213042
-0.138456
-0.0943837
-0.0634043
-0.0434979
-0.0285403
-0.0174116
-0.00899566
-0.0025576
0.00241578
0.00622406
0.00911121
0.01127
0.0128127
0.0138053
0.0143111
0.00230318
0.00176969
0.000591055
-0.00122042
-0.00376002
-0.00719314
-0.0116963
-0.0176045
-0.0254168
-0.0358049
-0.0497533
-0.0683763
-0.0930073
-0.122269
-0.173104
-0.241014
-0.351725
-0.525589
-0.611463
-0.348361
-0.315722
-0.232328
-0.164139
-0.118769
-0.0802713
-0.0575665
-0.0401926
-0.027167
-0.017186
-0.00952896
-0.00356617
0.00101223
0.00448271
0.00707217
0.00891315
0.0101097
0.0107176
0.00116156
0.000642255
-0.000467007
-0.00216858
-0.00454536
-0.00773209
-0.0118686
-0.0172271
-0.0241817
-0.0331436
-0.0448448
-0.0598286
-0.0785198
-0.104101
-0.139676
-0.196741
-0.29102
-0.467417
-0.654249
-0.582543
-0.449193
-0.368603
-0.309267
-0.30956
-0.239873
-0.171736
-0.126171
-0.0856205
-0.0631077
-0.0454585
-0.0319888
-0.0216191
-0.0135785
-0.00729323
-0.00243474
0.00127056
0.00403587
0.00599735
0.00724986
0.00782209
0.00103785
0.000472754
-0.000444633
-0.00184816
-0.00382372
-0.00646436
-0.00983924
-0.0140369
-0.0192276
-0.0254284
-0.0325597
-0.0404791
-0.0493002
-0.0661693
-0.0771558
-0.0890859
-0.129029
-0.194264
-0.368126
-0.524905
-0.613494
-0.583572
-0.488346
-0.360845
-0.247329
-0.166021
-0.121059
-0.0800811
-0.0595767
-0.0436982
-0.0314193
-0.0217918
-0.0142617
-0.00836584
-0.003763
-0.000204145
0.00246257
0.00434206
0.00552003
0.00603596
0.00174705
0.001556
0.000844188
-0.000260408
-0.00176496
-0.00368734
-0.00605428
-0.00876007
-0.0116099
-0.0143778
-0.0164539
-0.0170939
-0.015407
-0.0124947
-0.0110701
0.0114464
0.035135
0.0581517
-0.119103
-0.478094
-0.719715
-0.716687
-0.550606
-0.34343
-0.205661
-0.142802
-0.087979
-0.0651674
-0.0484377
-0.035656
-0.0258144
-0.0180003
-0.0117358
-0.00675927
-0.00286296
0.000175666
0.00247474
0.00411249
0.0051672
0.00567015
0.0034742
0.00332929
0.00288774
0.00215914
0.00117898
1.81161e-05
-0.0012819
-0.00254712
-0.00342133
-0.0035493
-0.00245281
0.000430104
0.00703874
0.0179452
0.027644
0.0619788
0.104856
0.113112
-0.0700046
-0.35198
-0.531825
-0.499291
-0.35767
-0.233431
-0.143365
-0.101908
-0.0582295
-0.0428188
-0.0314744
-0.0228839
-0.0162856
-0.0109191
-0.00650018
-0.00293426
-7.82519e-05
0.00219145
0.00393008
0.0051824
0.0060167
0.00645408
0.00568307
0.00549209
0.00524835
0.00491255
0.00446768
0.00398203
0.00353091
0.00321975
0.00327204
0.00392124
0.00547843
0.00810001
0.012489
0.0218833
0.0295484
0.0414142
0.060903
0.0459579
-0.0684741
-0.201771
-0.267096
-0.244675
-0.179996
-0.125681
-0.0754476
-0.0521383
-0.024244
-0.0167935
-0.0111945
-0.00729065
-0.00420514
-0.00163174
0.000546817
0.00239995
0.00402319
0.00538942
0.00647588
0.00728826
0.00783593
0.0081186
0.00820883
0.00808943
0.00796188
0.00784736
0.00774226
0.0076709
0.00768102
0.00779257
0.00796724
0.00820105
0.00851189
0.0086023
0.00763062
0.00766827
0.00492613
-0.0151442
-0.0431247
-0.0919663
-0.159537
-0.213747
-0.21537
-0.168294
-0.109843
-0.0629538
-0.0238786
-0.00856113
0.00765364
0.00848239
0.00841054
0.00806472
0.00785779
0.00781807
0.00791865
0.00821689
0.0086702
0.0091596
0.00960899
0.00998437
0.0102369
0.0103538
0.0109203
0.0109101
0.0109036
0.0109226
0.0109747
0.0110672
0.0112079
0.0113702
0.0114082
0.0110813
0.0101101
0.00773301
0.00207159
-0.00703604
-0.0175568
-0.0582843
-0.126226
-0.230515
-0.316569
-0.348707
-0.30719
-0.203847
-0.0971493
-0.0274738
0.0145897
0.0245551
0.0324121
0.0287875
0.0240962
0.0205911
0.0177492
0.0157166
0.0143712
0.0136031
0.0131345
0.0128833
0.0127832
0.0127692
0.0127976
0.0128332
0.0136613
0.0137129
0.0138093
0.0139546
0.0141456
0.0143783
0.0146148
0.0147772
0.0147358
0.0142112
0.0128109
0.00965582
0.0032428
-0.00948336
-0.0296955
-0.0606579
-0.136478
-0.24525
-0.343231
-0.382903
-0.334542
-0.213539
-0.0906927
-0.00758802
0.0345
0.0533062
0.0506121
0.0429397
0.0353268
0.029555
0.02517
0.0219338
0.0196897
0.018131
0.0170021
0.0162273
0.0157365
0.0154364
0.0152856
0.0152558
0.0162328
0.0163086
0.0165044
0.0167941
0.0171612
0.0175853
0.0180162
0.0183646
0.0185281
0.0183204
0.0173972
0.0150268
0.0103779
0.000952917
-0.0152814
-0.0397567
-0.0784207
-0.130277
-0.173172
-0.191706
-0.176196
-0.123939
-0.0584821
-0.00244511
0.0347874
0.0542669
0.0570391
0.0486215
0.0408177
0.0348093
0.0300727
0.0263808
0.0236434
0.021602
0.0201076
0.0190608
0.0183405
0.0178586
0.0175723
0.0174363
0.018523
0.0186632
0.0189464
0.0193388
0.0198381
0.0204327
0.021102
0.0217935
0.0224493
0.0229093
0.0228843
0.0218417
0.0191312
0.0138038
0.00420343
-0.00968997
-0.0318296
-0.0639128
-0.096159
-0.119135
-0.128139
-0.110174
-0.0697902
-0.0221491
0.0161557
0.0385126
0.0472571
0.0441914
0.0398351
0.0357119
0.0316747
0.0283831
0.0258123
0.0238084
0.0223109
0.0212045
0.0204009
0.0198371
0.0194756
0.0192831
0.0205195
0.0207361
0.0210331
0.0214615
0.0220425
0.0227903
0.0237209
0.0248159
0.0260472
0.0272189
0.0281124
0.0283272
0.027139
0.0236157
0.0165009
0.00449728
-0.0133746
-0.0398473
-0.0731524
-0.103749
-0.118871
-0.114421
-0.0894307
-0.0538636
-0.0197377
0.00773177
0.0246647
0.0310863
0.0327899
0.0319618
0.0299848
0.0280519
0.0262861
0.0248195
0.023615
0.0226462
0.0219046
0.0213617
0.0210042
0.0208142
0.0221189
0.0222795
0.0225981
0.0230998
0.0237982
0.0247065
0.0258639
0.0272867
0.0289462
0.030712
0.0323548
0.0335121
0.0331623
0.0301686
0.0221895
0.00627037
-0.0196756
-0.0555198
-0.10088
-0.143487
-0.168352
-0.167483
-0.14116
-0.100269
-0.0570382
-0.0226885
0.00337709
0.0167878
0.024065
0.0262542
0.026856
0.0265467
0.0258519
0.0250624
0.0242714
0.0235682
0.0229795
0.0225302
0.0222224
0.0220554
0.0233886
0.0234336
0.0237813
0.0243391
0.0251159
0.0261296
0.0273913
0.0289257
0.0307499
0.0328534
0.0349088
0.0367388
0.0370014
0.0334408
0.0226831
0.00152572
-0.0303859
-0.0725759
-0.127676
-0.180187
-0.219943
-0.220895
-0.182454
-0.13786
-0.0800071
-0.0398471
-0.00908546
0.00799103
0.0177154
0.0222274
0.0245593
0.02517
0.0253141
0.0250146
0.0245987
0.0241609
0.0237535
0.0234269
0.0231938
0.0230734
0.0244569
0.0245573
0.0248563
0.0253567
0.0260884
0.0270605
0.0282729
0.0297335
0.031482
0.0335219
0.0356011
0.0378322
0.0373063
0.0312487
0.0195334
-0.00116196
-0.0306894
-0.0701174
-0.120028
-0.166185
-0.206134
-0.201721
-0.166997
-0.124481
-0.0781758
-0.0405799
-0.0113354
0.0057251
0.0158084
0.0209271
0.0236807
0.0248157
0.0252108
0.0251761
0.0249645
0.0246883
0.024407
0.0241767
0.0240142
0.023938
0.025118
0.0253029
0.0255963
0.026039
0.0266676
0.0275051
0.0285611
0.0298353
0.0313247
0.0330199
0.0347734
0.0360606
0.0344745
0.0274119
0.0139806
-0.00684884
-0.03417
-0.0680335
-0.10197
-0.129427
-0.146222
-0.139311
-0.115368
-0.0841023
-0.0528083
-0.0237553
-0.00183427
0.010748
0.0181926
0.0222683
0.0243611
0.0253266
0.0256838
0.0257063
0.0255596
0.0253291
0.0250771
0.0248565
0.0246927
0.024628
0.0252567
0.0254105
0.0256778
0.0260742
0.026607
0.0272855
0.0281201
0.0290983
0.030156
0.0311061
0.0317744
0.0313273
0.0278662
0.0197765
0.00535742
-0.0155788
-0.0414297
-0.0692097
-0.0924493
-0.103045
-0.100523
-0.0893289
-0.0706111
-0.0457764
-0.0225477
-0.00209116
0.0109542
0.0182094
0.0224645
0.0246673
0.025828
0.0263297
0.026456
0.0263797
0.0261812
0.0259325
0.0256852
0.0254689
0.0253067
0.025187
0.0251187
0.0251908
0.0253852
0.0256874
0.0260815
0.0265456
0.0270533
0.027555
0.0279276
0.0278376
0.026806
0.0240171
0.0173447
0.00586577
-0.00978169
-0.0287637
-0.0502127
-0.0714076
-0.087409
-0.090982
-0.0829887
-0.0666791
-0.0458042
-0.0230003
-0.00367985
0.0100446
0.0180942
0.0231991
0.0259313
0.0271413
0.0275364
0.027496
0.0272578
0.0269583
0.026635
0.0263373
0.0260863
0.0258835
0.0257308
0.0256002
0.0249047
0.0249679
0.0251019
0.0252896
0.0255015
0.0256953
0.0258094
0.0257368
0.0253141
0.0241805
0.0215569
0.0164591
0.0066224
-0.00875394
-0.028561
-0.0511375
-0.0727756
-0.0909085
-0.102441
-0.102801
-0.0944593
-0.0721707
-0.0456557
-0.0205719
4.99866e-06
0.0135722
0.0219959
0.0267125
0.0287655
0.0293444
0.0291437
0.0285996
0.0279816
0.0274034
0.0269172
0.0265205
0.0262023
0.0259635
0.0258038
0.0257597
0.0246387
0.024737
0.0248177
0.0248966
0.0249324
0.0248878
0.0246736
0.0241401
0.0230759
0.0211442
0.0174426
0.0108569
-0.000946237
-0.0190973
-0.0435194
-0.0726443
-0.100235
-0.120156
-0.134848
-0.135085
-0.118456
-0.0890072
-0.0548714
-0.0265266
-0.00337334
0.0129681
0.0234643
0.0288762
0.0308732
0.0308489
0.0300711
0.0291909
0.0283418
0.0276037
0.0269989
0.0265185
0.0261471
0.0259015
0.0257689
0.025782
0.0242652
0.024351
0.0243826
0.0243807
0.0243094
0.0241349
0.0237744
0.0230688
0.0217112
0.0193685
0.0152087
0.00827985
-0.00324936
-0.0208377
-0.0442076
-0.0731177
-0.103802
-0.126834
-0.144786
-0.146933
-0.123827
-0.0917901
-0.0566926
-0.028036
-0.00508918
0.0114446
0.0222416
0.0281081
0.0307311
0.0308412
0.0299525
0.0290614
0.0281969
0.0274665
0.0268816
0.0264191
0.026084
0.0258794
0.0257709
0.0257478
0.0238713
0.0238787
0.0238967
0.0238938
0.0238254
0.0236466
0.0232902
0.0226404
0.0214639
0.0194211
0.0157944
0.00975382
5.3934e-05
-0.0142509
-0.0324959
-0.0544375
-0.0797929
-0.101124
-0.117661
-0.121731
-0.104328
-0.0814362
-0.0538917
-0.0287868
-0.00834929
0.00714041
0.0178512
0.0247263
0.0283776
0.0293517
0.0289626
0.0282486
0.0275645
0.0269887
0.026511
0.0261354
0.0258552
0.0256583
0.0255165
0.0254253
0.0236243
0.0236227
0.0236301
0.0236337
0.0235968
0.0234786
0.0232237
0.0227561
0.0219424
0.0205763
0.0182816
0.0144248
0.00798904
-0.0023978
-0.0164929
-0.0325394
-0.0502849
-0.0672498
-0.0792459
-0.0852206
-0.0827779
-0.0718804
-0.0542178
-0.0341091
-0.0159052
-0.000466392
0.0117539
0.0200618
0.0245481
0.0264469
0.0268644
0.0266698
0.0263443
0.0259846
0.02566
0.0253894
0.0251738
0.0250074
0.0248831
0.0247821
0.0234566
0.0234918
0.0235093
0.0235178
0.0235089
0.0234666
0.0233599
0.0231377
0.0227421
0.0220708
0.020885
0.018795
0.0151302
0.00882242
-0.00095026
-0.0137408
-0.0282608
-0.0435776
-0.0559536
-0.0645932
-0.0693822
-0.0662536
-0.0542354
-0.0383831
-0.0226351
-0.0083241
0.00353842
0.0124644
0.018426
0.0219598
0.0236111
0.0243049
0.0245347
0.0245108
0.0244047
0.0242805
0.0241644
0.0240744
0.0240225
0.0240017
0.0231556
0.0231726
0.0232106
0.023257
0.0233161
0.0233899
0.0234732
0.0235516
0.0235963
0.0235342
0.0230943
0.0220618
0.0198245
0.0154243
0.00775092
-0.00368597
-0.018425
-0.0351914
-0.0507249
-0.063163
-0.0680937
-0.0676025
-0.0595875
-0.0470583
-0.0338758
-0.0201794
-0.00746633
0.00325125
0.0115053
0.0169685
0.0200106
0.0216593
0.022501
0.0229146
0.0231138
0.0231828
0.0231832
0.0231653
0.0231612
0.0232027
0.0227427
0.0226896
0.0227281
0.0228175
0.0229599
0.0231552
0.0234276
0.0237745
0.0241897
0.0245964
0.0248212
0.024354
0.0224397
0.0179918
0.00972733
-0.00228281
-0.0183365
-0.0371603
-0.057916
-0.0749866
-0.0839177
-0.0844828
-0.0770827
-0.0658337
-0.0516873
-0.0352154
-0.0184276
-0.00447817
0.00604469
0.0129839
0.0170539
0.0193531
0.0207119
0.0215406
0.0220222
0.0222795
0.0224073
0.0224531
0.0224661
0.0224678
0.0223305
0.0222818
0.0223
0.022386
0.0225561
0.0228035
0.0231421
0.0235827
0.024151
0.024678
0.0252575
0.0249451
0.0227206
0.0181216
0.00959495
-0.00260288
-0.0190906
-0.0388566
-0.0625065
-0.0845183
-0.100565
-0.101044
-0.0916327
-0.0790663
-0.0614035
-0.0423921
-0.0228503
-0.00780785
0.0034536
0.0105597
0.0150284
0.0177975
0.0194636
0.0204952
0.0211278
0.0214808
0.0217085
0.0218149
0.0218533
0.0217886
0.0218217
0.0218469
0.0218928
0.0219753
0.0221161
0.0223232
0.0226031
0.0229631
0.0234363
0.0237789
0.0239982
0.0230695
0.0204691
0.0158585
0.00795897
-0.00366448
-0.0192058
-0.0377315
-0.059203
-0.0784572
-0.0954645
-0.0951898
-0.0843553
-0.0709364
-0.0527823
-0.0347324
-0.0184961
-0.00575987
0.00391475
0.0104578
0.0146951
0.0172862
0.0188484
0.019793
0.0203906
0.0207524
0.0209704
0.0210787
0.021121
0.0210771
0.021112
0.0211711
0.021236
0.0213097
0.0214032
0.0215245
0.0216764
0.0218444
0.0220385
0.0220399
0.0214627
0.0196905
0.0159938
0.00999326
0.00159153
-0.00949619
-0.0230104
-0.0386146
-0.0533102
-0.0649714
-0.0718096
-0.0691046
-0.0607628
-0.0487311
-0.03456
-0.0210271
-0.00936967
0.000280893
0.00770814
0.0126207
0.015768
0.0176552
0.0187952
0.0194932
0.0199282
0.0201882
0.0203344
0.0204035
0.020438
0.0204718
0.0202598
0.0202845
0.0202929
0.0203042
0.0203169
0.0203274
0.0203131
0.0202014
0.0199287
0.0192927
0.0178156
0.0150556
0.0103341
0.00323439
-0.00587521
-0.0165629
-0.028467
-0.0404666
-0.0500811
-0.0542291
-0.0523181
-0.0472062
-0.0390745
-0.0286185
-0.017797
-0.00758557
0.000996601
0.00793308
0.0127409
0.0156436
0.0173966
0.0184418
0.0190947
0.0195047
0.0197619
0.019913
0.0200007
0.0200484
0.0200757
0.0200908
0.0193568
0.0193011
0.0192567
0.0192089
0.0191401
0.0190152
0.0187888
0.0183497
0.0174899
0.0159816
0.0133189
0.00913923
0.00338083
-0.00402356
-0.0130528
-0.0231094
-0.0334406
-0.0430166
-0.0491433
-0.0494821
-0.0458986
-0.0385171
-0.02861
-0.0172618
-0.00652932
0.00268365
0.00955985
0.0141336
0.0167474
0.0181559
0.0189368
0.0193159
0.0195168
0.0196348
0.0197046
0.0197442
0.0197713
0.0197851
0.019782
0.0197609
0.0185108
0.0184462
0.018391
0.0183056
0.0181531
0.0178785
0.0174155
0.0166457
0.0153154
0.0130467
0.00927342
0.00348456
-0.00423006
-0.0135758
-0.0239972
-0.0344913
-0.0442355
-0.0523575
-0.0565927
-0.0552352
-0.050263
-0.0398062
-0.0268413
-0.0135809
-0.0016467
0.00769106
0.0142093
0.0178505
0.0195983
0.0201701
0.0201807
0.0200021
0.0197973
0.0196237
0.0194952
0.0194036
0.0193451
0.0193094
0.0192904
0.0193036
0.0178048
0.0178216
0.0177675
0.0176397
0.0173973
0.0169871
0.0163392
0.01533
0.0137157
0.0109929
0.00653216
-0.000308973
-0.00979779
-0.0218236
-0.0349545
-0.047316
-0.0585397
-0.0663419
-0.0715318
-0.0697147
-0.0579493
-0.0431388
-0.0266073
-0.0121061
0.000228828
0.00946222
0.0157832
0.0191901
0.0208874
0.0211708
0.0207041
0.0201961
0.0197297
0.0193658
0.0191007
0.0189148
0.0187961
0.018738
0.0187316
0.018791
0.017156
0.0172186
0.017159
0.0170232
0.0167517
0.0163197
0.0156405
0.0145489
0.0128452
0.0101166
0.00570655
-0.000861197
-0.00980355
-0.021757
-0.0354941
-0.0492998
-0.0620356
-0.07073
-0.0767832
-0.0745303
-0.0587076
-0.0425809
-0.0256533
-0.0112031
0.000591684
0.00942479
0.0153031
0.018442
0.0201303
0.0206286
0.0201289
0.0197035
0.019248
0.0188864
0.0186174
0.0184299
0.0183122
0.0182582
0.01825
0.0182783
0.0165082
0.0165113
0.0164669
0.0163663
0.0161661
0.0158309
0.0152922
0.0144156
0.0130029
0.0107279
0.00709198
0.00175845
-0.00517857
-0.0142444
-0.0253149
-0.0371531
-0.04886
-0.0573137
-0.0630205
-0.0623435
-0.0519208
-0.039703
-0.0261946
-0.0136871
-0.00307968
0.00523812
0.0111718
0.0149775
0.0172217
0.0183264
0.0186381
0.0185645
0.018331
0.0181164
0.0179596
0.0178457
0.0177674
0.017711
0.0176678
0.017637
0.0160335
0.0159912
0.0159518
0.0158901
0.0157747
0.0155734
0.0152477
0.0147094
0.0138406
0.0124143
0.0101414
0.00646711
0.00130938
-0.00492949
-0.0124686
-0.020946
-0.0295849
-0.0370957
-0.042647
-0.0450679
-0.043702
-0.037571
-0.0289358
-0.0193314
-0.0101547
-0.00216473
0.00438237
0.00945873
0.013011
0.0151357
0.016239
0.0166849
0.0168303
0.0168867
0.0169031
0.0169061
0.0169047
0.0168946
0.0168774
0.0168394
0.0157522
0.0157512
0.0157347
0.0157025
0.0156484
0.0155622
0.0154205
0.0151902
0.0148146
0.0141786
0.0130452
0.0111325
0.00795649
0.00354578
-0.00207979
-0.00886583
-0.0163667
-0.0238542
-0.0304509
-0.0352732
-0.037332
-0.0361764
-0.0314429
-0.0242737
-0.0163246
-0.00866021
-0.00178717
0.00387694
0.00813935
0.0111759
0.0131651
0.0143225
0.0149924
0.0153829
0.0155993
0.0157298
0.0158184
0.0158851
0.0159368
0.0159618
0.0154426
0.0154632
0.0154791
0.0154921
0.0155081
0.0155352
0.015569
0.0156062
0.0156275
0.0155845
0.0152993
0.0145495
0.0128207
0.00961248
0.00465482
-0.00209323
-0.0104383
-0.0193099
-0.0276276
-0.0339208
-0.0368657
-0.0385064
-0.0361404
-0.0305067
-0.0233676
-0.0158549
-0.00862841
-0.00226914
0.00299311
0.00717659
0.010173
0.0121145
0.0132902
0.013996
0.0144099
0.0146648
0.0148179
0.0149222
0.0150047
0.0150915
0.0150066
0.0149845
0.0150021
0.0150503
0.0151353
0.0152682
0.0154597
0.0157263
0.016067
0.0164543
0.0167903
0.016577
0.0153639
0.0128509
0.00833104
0.00173549
-0.00705512
-0.017421
-0.0280585
-0.0372371
-0.0442009
-0.0475492
-0.0459893
-0.0411344
-0.0340641
-0.0258015
-0.0171115
-0.00873156
-0.00155568
0.00398771
0.00790397
0.0104224
0.0119523
0.0129061
0.013505
0.0138806
0.014102
0.0142298
0.0143022
0.0143494
0.0145497
0.0144921
0.0144928
0.0145419
0.0146526
0.0148335
0.015098
0.015462
0.0159536
0.0164837
0.0170553
0.0169791
0.0159834
0.0140805
0.0102134
0.00423948
-0.0040605
-0.0150134
-0.0276151
-0.0399557
-0.0511375
-0.0557003
-0.0541231
-0.0490219
-0.0411192
-0.0316553
-0.0214803
-0.0116667
-0.00351885
0.0024868
0.00663807
0.00932539
0.0110557
0.0121497
0.0128485
0.0132981
0.013576
0.0137337
0.0137991
0.0137538
0.0140569
0.0140449
0.0140586
0.0141023
0.0141931
0.0143387
0.0145535
0.0148416
0.0152038
0.0154893
0.0156975
0.0154066
0.0143215
0.0122699
0.00854729
0.00286745
-0.00476788
-0.0145573
-0.0261508
-0.0377534
-0.0477283
-0.0518982
-0.0500916
-0.0446689
-0.0364474
-0.0270213
-0.0174851
-0.00877737
-0.00197979
0.00307351
0.00674065
0.00919984
0.0107754
0.0117458
0.0123876
0.0127948
0.0130487
0.0131745
0.0132306
0.0131818
0.0134404
0.0134702
0.013502
0.0135305
0.0135646
0.013608
0.0136678
0.0137346
0.0137688
0.013585
0.0129693
0.0117392
0.00970581
0.00662343
0.0022997
-0.00336516
-0.0101441
-0.0176489
-0.0256738
-0.0329273
-0.0370624
-0.0376603
-0.0348406
-0.0297656
-0.0229953
-0.0157529
-0.00881586
-0.0028515
0.00180796
0.0055341
0.00820445
0.0099458
0.0110323
0.0117055
0.0121229
0.0123814
0.0125296
0.0126028
0.0126403
0.0126662
0.0127087
0.0127243
0.0127045
0.0126628
0.0126009
0.0125106
0.0123626
0.0121196
0.0117085
0.0109403
0.00954814
0.0073423
0.0042054
7.69481e-05
-0.00486272
-0.0105013
-0.0165186
-0.0220452
-0.0261433
-0.0283442
-0.0280278
-0.0251656
-0.020929
-0.0159186
-0.010451
-0.0051868
-0.000552868
0.00327222
0.00636027
0.00871471
0.0101921
0.011063
0.0115844
0.0118955
0.0120871
0.0121996
0.0122631
0.0122993
0.0123255
0.0123543
0.0119315
0.0118761
0.0117952
0.0116905
0.011549
0.0113394
0.011002
0.0104486
0.00955291
0.00814129
0.00599983
0.00307883
-0.000692297
-0.00543008
-0.0108545
-0.0165282
-0.0220673
-0.0263234
-0.0278643
-0.0267072
-0.0246122
-0.0200897
-0.0145711
-0.00883657
-0.00309199
0.00179954
0.00564305
0.00842855
0.0102852
0.0113121
0.0118296
0.0120485
0.0121417
0.0121681
0.0121817
0.0121836
0.0121829
0.0121795
0.0121718
0.0121528
0.0112096
0.011123
0.0110321
0.0109092
0.0107224
0.0104228
0.00993685
0.00914545
0.00785038
0.00582378
0.00287202
-0.00111036
-0.00610621
-0.0119736
-0.018313
-0.0244338
-0.0297961
-0.033217
-0.0334563
-0.0299877
-0.0253275
-0.0193338
-0.012219
-0.00499473
0.00135707
0.0062917
0.00978655
0.0118554
0.0129213
0.0131307
0.0129495
0.0126891
0.0124519
0.0122546
0.0121072
0.0120056
0.0119385
0.0118937
0.011864
0.0118484
0.0106455
0.0106243
0.0105563
0.0104221
0.010183
0.00980087
0.00918721
0.00823816
0.00669796
0.00422391
0.000573738
-0.00442588
-0.0109586
-0.0183454
-0.0258305
-0.0328819
-0.0381447
-0.0419829
-0.0418261
-0.0359315
-0.0278032
-0.0188626
-0.00933888
-0.000840132
0.00531294
0.00967336
0.012373
0.0136265
0.0141521
0.0139359
0.0133672
0.0128449
0.0123692
0.0120232
0.0117664
0.0115912
0.0114809
0.0114232
0.0114057
0.0114423
0.0101952
0.0102473
0.0101938
0.0100534
0.00979554
0.00939206
0.0087473
0.00775449
0.00620319
0.00373585
0.000130555
-0.00475878
-0.0113355
-0.0190043
-0.0268911
-0.0344271
-0.0400149
-0.0441747
-0.0439024
-0.037177
-0.027925
-0.0177603
-0.00783401
0.000475145
0.00624835
0.010223
0.0124754
0.01342
0.013714
0.0134788
0.0129162
0.0124274
0.0119249
0.0115761
0.0113135
0.0111384
0.0110329
0.0109892
0.0109891
0.0110253
0.00974668
0.0097792
0.00974102
0.00964467
0.00945355
0.0091364
0.00862865
0.00782138
0.00655333
0.00463526
0.00180905
-0.00191845
-0.00681121
-0.0128545
-0.0193922
-0.0258281
-0.0309565
-0.0347499
-0.0354928
-0.0317376
-0.0255074
-0.0175689
-0.00984102
-0.00344264
0.00185102
0.00582305
0.00850611
0.0101536
0.0110618
0.0114487
0.0114754
0.0113496
0.0111251
0.0109324
0.0107836
0.0106825
0.0106174
0.0105804
0.0105582
0.0105476
0.00939464
0.00936706
0.00934284
0.00929945
0.00921092
0.00904991
0.00877803
0.00833098
0.0075826
0.00646649
0.00469231
0.00226484
-0.000716591
-0.00446023
-0.00875549
-0.013302
-0.0175187
-0.0210815
-0.0235695
-0.0238086
-0.0220872
-0.0186252
-0.0144116
-0.00989293
-0.00528398
-0.0012481
0.00213134
0.0048364
0.00686134
0.00832308
0.00918506
0.0096209
0.00980511
0.00989391
0.00994152
0.00997145
0.00998886
0.00999025
0.00997589
0.00994773
0.00922005
0.00920902
0.00920359
0.00919825
0.00918087
0.00914677
0.00908187
0.00896855
0.00872531
0.00828093
0.00750942
0.00622282
0.00446124
0.0021213
-0.000870554
-0.00450185
-0.00841656
-0.0122801
-0.0158213
-0.0184826
-0.0196229
-0.0198626
-0.0185533
-0.0153921
-0.0113844
-0.00730845
-0.00339169
3.72601e-05
0.00285659
0.0050055
0.00652832
0.00754167
0.00817018
0.00857598
0.0088339
0.0090041
0.00912184
0.00920386
0.00925624
0.00927035
0.00907593
0.00910156
0.00912637
0.00915727
0.00919473
0.00925425
0.00933795
0.00944898
0.00956202
0.00962229
0.00958015
0.00916666
0.00819028
0.00651459
0.00388151
0.000271409
-0.00404986
-0.00857743
-0.0128474
-0.0168543
-0.0199613
-0.0227083
-0.0231472
-0.021098
-0.0174643
-0.0130979
-0.00849468
-0.0042768
-0.000730657
0.00206136
0.00420993
0.00574342
0.00676909
0.00743429
0.00785186
0.00811576
0.00829162
0.00841795
0.00851456
0.00859375
0.00880664
0.00881267
0.00884334
0.00889739
0.00898545
0.00912122
0.00931307
0.0095754
0.00992175
0.010335
0.0107522
0.0110053
0.0106983
0.00974003
0.00775758
0.0046441
0.00025057
-0.00536899
-0.011432
-0.0174461
-0.0231348
-0.028221
-0.0296131
-0.0282572
-0.024845
-0.0200016
-0.0145252
-0.00911002
-0.00428532
-0.000411854
0.0024667
0.0045055
0.00583218
0.00667577
0.00719808
0.0075298
0.00773681
0.00786654
0.00795278
0.0080222
0.00846174
0.00842576
0.0084347
0.00848321
0.00858636
0.00875161
0.00899102
0.00933451
0.00978656
0.0103686
0.0109525
0.0115997
0.0118786
0.0116062
0.0104091
0.00793461
0.00378845
-0.00253609
-0.0101858
-0.0180447
-0.025665
-0.0317959
-0.0339485
-0.0329713
-0.0292449
-0.0239869
-0.0179458
-0.0118118
-0.00619641
-0.00172074
0.0015134
0.0038014
0.00528434
0.00620828
0.00679819
0.00718549
0.00742631
0.00755639
0.00761562
0.00760564
0.00811028
0.00808424
0.00808429
0.00811417
0.00819097
0.00832155
0.00852143
0.00880146
0.0091634
0.0095926
0.00998279
0.0103704
0.0104446
0.00995923
0.00868389
0.00627168
0.00249177
-0.0029937
-0.00983502
-0.0170533
-0.023739
-0.0288189
-0.0304409
-0.0293156
-0.0256199
-0.0206993
-0.0151185
-0.00961043
-0.00474981
-0.000940217
0.00181701
0.00382978
0.00514773
0.00599914
0.00656066
0.00691865
0.00713646
0.00725831
0.00730357
0.00725317
0.00769352
0.00770523
0.0077187
0.00773285
0.00775459
0.00779251
0.00784936
0.00791498
0.0079535
0.0079019
0.00762808
0.00705173
0.00611424
0.00469833
0.00272341
5.04452e-05
-0.00330035
-0.00715585
-0.0113714
-0.0155591
-0.0188784
-0.0207299
-0.020348
-0.0184564
-0.0154335
-0.0117305
-0.00781014
-0.00413481
-0.00101955
0.00142113
0.00330318
0.00464539
0.00553651
0.0061125
0.00647732
0.00669757
0.00682363
0.00688939
0.00691757
0.00691641
0.00718089
0.00719324
0.00718122
0.00714351
0.00707819
0.00698058
0.00683405
0.00660406
0.00622624
0.00559055
0.00458634
0.00310031
0.00118639
-0.00111127
-0.00374955
-0.00663368
-0.00959326
-0.0120389
-0.013533
-0.0142941
-0.0143567
-0.0134191
-0.0113649
-0.00875258
-0.00607027
-0.00330036
-0.000800517
0.0013085
0.00296155
0.00424451
0.0052385
0.00585667
0.00622375
0.00644204
0.00656065
0.00662399
0.00665525
0.00666957
0.00668097
0.00670606
0.00662945
0.00659481
0.00652345
0.00641689
0.00626664
0.0060484
0.00572097
0.00522322
0.004482
0.00338819
0.00187712
-0.000127547
-0.00267872
-0.00567865
-0.00895579
-0.0122136
-0.0148569
-0.0163896
-0.0160785
-0.014373
-0.0122436
-0.00961278
-0.00690712
-0.00388762
-0.000961135
0.00172476
0.00372946
0.00514519
0.00605879
0.006578
0.00682552
0.00688547
0.0068645
0.0068089
0.00675228
0.00670908
0.00667971
0.00665709
0.00664206
0.00662974
0.00611976
0.00604632
0.00594909
0.00581654
0.00563018
0.00534915
0.00491922
0.00424019
0.00321464
0.00173975
-0.000299551
-0.0030013
-0.00645027
-0.0104572
-0.0145601