/*--------------------------------*- C++ -*----------------------------------*\
| =========                 |                                                 |
| \\      /  F ield         | OpenFOAM: The Open Source CFD Toolbox           |
|  \\    /   O peration     | Version:  v2106                                 |
|   \\  /    A nd           | Website:  www.openfoam.com                      |
|    \\/     M anipulation  |                                                 |
\*---------------------------------------------------------------------------*/
FoamFile
{
    version     2.0;
    format      ascii;
    arch        "LSB;label=32;scalar=64";
    class       volScalarField;
    location    "0";
    object      p;
}
// * * * * * * * * * * * * * * * * * * * * * * * * * * * * * * * * * * * * * //

dimensions      [0 2 -2 0 0 0 0];

internalField   nonuniform List<scalar> 
11644
(
0.10999
0.109975
0.109871
0.109735
0.109315
0.108456
0.107199
0.10528
0.102468
0.0988641
0.0944581
0.0893572
0.0837064
0.0782668
0.0725597
0.064981
0.0565977
0.0463246
0.0300694
0.0186443
-0.000692984
-0.0153603
-0.0329309
-0.0466662
-0.0579451
-0.0657314
-0.069271
-0.0700005
-0.0684593
-0.0650151
-0.0603186
-0.0547192
-0.0486612
-0.0426984
-0.0373718
-0.0327645
-0.0289269
-0.0259228
-0.0238117
-0.0228018
0.111208
0.111399
0.111325
0.110988
0.110514
0.109958
0.108905
0.107328
0.105166
0.102378
0.0987363
0.0941418
0.0886828
0.0813624
0.0731829
0.0644245
0.0538253
0.0435776
0.0311688
0.0115768
-0.00880441
-0.0242991
-0.03789
-0.0518052
-0.0629945
-0.0699473
-0.0735647
-0.0735521
-0.0704062
-0.0653719
-0.0593289
-0.0529289
-0.0466249
-0.0407211
-0.0352549
-0.0303208
-0.0262201
-0.0230188
-0.0209499
-0.0201135
0.109542
0.110187
0.110869
0.111344
0.111639
0.11187
0.111961
0.111763
0.111186
0.109844
0.107339
0.103321
0.0972594
0.090044
0.0808288
0.0698071
0.0567229
0.0418083
0.0274163
0.00530539
-0.0123175
-0.0280102
-0.0417298
-0.0571645
-0.0692772
-0.0761431
-0.0777057
-0.0759605
-0.0714194
-0.0650009
-0.0576924
-0.0503574
-0.0435098
-0.0372102
-0.0314895
-0.0266683
-0.0227308
-0.0198345
-0.0181252
-0.0175537
0.106893
0.107367
0.108433
0.109899
0.111674
0.113465
0.115329
0.117174
0.118801
0.119774
0.119534
0.116603
0.111099
0.100727
0.0881761
0.075143
0.058422
0.0398413
0.0205066
8.40041e-05
-0.0180276
-0.0350368
-0.0520376
-0.0629986
-0.0727229
-0.0781397
-0.079997
-0.076503
-0.0700864
-0.0623022
-0.0542835
-0.046308
-0.0388464
-0.0322422
-0.026557
-0.0219197
-0.0183799
-0.0159082
-0.0143645
-0.0136048
0.103445
0.104158
0.105458
0.107562
0.110444
0.113823
0.117689
0.121908
0.126345
0.130578
0.133627
0.133486
0.127246
0.115768
0.0992736
0.0804306
0.0626514
0.0344456
0.00896706
-0.0204712
-0.0303266
-0.0575147
-0.0596039
-0.0588624
-0.0657479
-0.0683835
-0.068441
-0.0675062
-0.0631666
-0.0563792
-0.0483292
-0.0400594
-0.0323769
-0.0256513
-0.0201034
-0.0156129
-0.0122374
-0.00976312
-0.00803347
-0.0069908
0.0988717
0.0995692
0.101058
0.103801
0.1074
0.11199
0.117618
0.124255
0.131719
0.139373
0.144866
0.145692
0.141738
0.12748
0.101873
0.0744844
0.0506044
0.00867911
-0.0237942
-0.0457272
-0.0560565
-0.0570871
-0.0562863
-0.0437147
-0.0398835
-0.0414256
-0.0450188
-0.0466555
-0.0486568
-0.0468827
-0.0407064
-0.0326885
-0.0248854
-0.0180018
-0.0123469
-0.00789208
-0.00441445
-0.00200347
-0.000286358
0.000447094
0.0915247
0.0923076
0.0942124
0.0968376
0.10058
0.105863
0.112604
0.121177
0.131012
0.138921
0.142417
0.141721
0.13895
0.137745
0.12212
0.0875228
0.0399027
0.0173783
-0.0103358
-0.0354265
-0.0473738
-0.0340187
-0.0280287
-0.0164183
0.0105672
0.0116552
0.000435359
-0.0169123
-0.0284498
-0.0330862
-0.0311613
-0.0244749
-0.0165334
-0.0094415
-0.00368663
0.000527169
0.0035544
0.00563324
0.00683581
0.0075924
0.0799129
0.0812288
0.0834879
0.0862228
0.090194
0.095089
0.101631
0.110043
0.118993
0.124225
0.123597
0.120269
0.11586
0.126155
0.10238
0.0935867
0.0394294
0.000308196
-0.0286431
-0.04603
-0.0375278
-0.0149486
0.00743849
0.0141262
0.0244018
0.0355037
0.0196896
0.00539986
-0.00956773
-0.0169833
-0.0184267
-0.0146999
-0.00775226
-0.000837161
0.0045743
0.0088247
0.0118273
0.0141767
0.0153723
0.0159848
0.0687586
0.0695311
0.0701334
0.0724215
0.0751548
0.0784959
0.0830169
0.0888278
0.0932506
0.092011
0.0854309
0.0749943
0.061134
0.069061
0.0504091
0.0110832
0.0148236
-0.0237361
-0.0762644
-0.0805239
-0.0559064
-0.0111777
0.0266686
0.0532811
0.0634348
0.0254733
0.0198403
0.00592002
-0.002413
-0.00443005
-0.00574174
-0.00368987
0.00218547
0.00879041
0.0142765
0.0186697
0.0217678
0.0233616
0.0246662
0.0244128
0.0579072
0.0578347
0.0586047
0.0586964
0.058137
0.0586136
0.0592191
0.0594104
0.0572784
0.050264
0.0359186
0.0226917
0.0180166
0.0308621
0.0100223
-0.0215152
-0.060903
-0.110097
-0.149239
-0.160096
-0.0804433
0.0266254
0.0879938
0.0823738
0.0652286
0.0425145
0.032337
0.00915742
0.0035296
0.00170668
0.00528644
0.00937151
0.0143295
0.0202651
0.0258742
0.0297498
0.0325975
0.0340408
0.0348485
0.0356329
0.0454946
0.045901
0.0459442
0.0440166
0.0418874
0.0388636
0.0355628
0.0303769
0.0206772
0.0113153
-0.000366787
-0.0152491
-0.0154374
-0.00172686
-0.0287579
-0.00711457
-0.0348536
-0.122344
-0.265479
-0.392046
-0.15054
0.215523
0.245617
0.160251
0.0981858
0.0361926
-0.00400194
0.0201574
0.0095051
0.0137138
0.0209517
0.0258265
0.0304286
0.0357185
0.0405772
0.0438727
0.0459465
0.0480274
0.0481133
0.0481414
0.0387493
0.0378959
0.0335859
0.0304309
0.0262152
0.019943
0.0135769
0.00644849
-0.00436048
-0.0162638
-0.024017
-0.0368141
-0.0478074
-0.0419366
-0.0225118
-0.00351665
0.0220895
0.0374754
-0.0570477
0.504348
0.167657
0.0300639
-0.0204401
-0.0331908
-0.00372544
0.0201468
0.0382046
0.0454307
0.0507021
0.055153
0.0579615
0.0599161
0.061481
0.0619858
0.0619827
0.0626465
0.0600037
0.037015
0.0315661
0.0274315
0.0225119
0.0161707
0.00824684
-0.000699448
-0.00806055
-0.0136543
-0.0213459
-0.0298977
-0.030846
-0.0374902
0.00318304
0.0693887
0.120734
0.205974
0.370934
0.604666
-0.0265914
0.0102368
-0.0215982
-0.0145207
0.00621892
0.0230149
0.0607011
0.0818994
0.0812227
0.08538
0.0868564
0.0844802
0.0817351
0.0799979
0.0797172
0.0794069
0.0799004
0.0825721
0.0333047
0.023315
0.0203901
0.01516
0.00935232
0.000565714
-0.0112818
-0.0151953
-0.0165452
-0.00638947
-0.0228527
-0.0111355
-0.0762413
-0.0106764
0.0933059
0.16509
0.265581
0.504576
0.654479
-0.189263
-0.0866642
-0.0633224
0.00610229
0.041492
0.125028
0.0928866
0.143477
0.113165
0.126451
0.119979
0.111442
0.105675
0.102814
0.102947
0.103901
0.10354
0.108835
0.0152305
0.0165426
0.0139989
0.0116436
0.00870961
-0.00179731
-0.0140765
-0.0277119
-0.0264586
0.00660215
-0.0476325
-0.0826718
-0.0829493
-0.028608
-0.0236906
-0.02615
0.146924
0.332288
0.421133
0.335571
0.813195
0.552901
-0.0977309
-0.134198
-0.0884199
0.0709123
0.118833
0.149483
0.177588
0.178815
0.133929
0.156305
0.151123
0.127496
0.11917
0.118765
0.121435
0.123256
0.122111
0.121029
0.0170989
0.0115793
0.013988
0.0138994
0.0104093
0.00124383
-0.00849584
-0.0198473
-0.0175857
-0.0138816
-0.0281203
-0.0765045
-0.1252
-0.231569
-0.279736
-0.202903
-0.223533
-0.427015
-0.0623996
-0.026681
1.04648
0.943678
-0.00238198
0.127804
-0.030123
0.268782
0.226559
0.222951
0.227907
0.172103
0.1468
0.153211
0.158665
0.131989
0.11688
0.113469
0.116534
0.115776
0.115441
0.109404
0.0232373
0.00715705
0.0159743
0.0152306
0.0120918
0.00812551
-0.00100222
-0.0183635
-0.0264449
-0.0287738
-0.00408929
-0.0184816
-0.110033
-0.348358
-0.307779
-0.294308
-0.357598
-0.72229
0.365461
-1.07585
-0.541597
0.0620226
-0.841848
0.0119221
0.338725
0.152774
0.225808
0.26812
0.206263
0.169298
0.199897
0.189951
0.172389
0.126941
0.115383
0.111091
0.110279
0.105631
0.100693
0.0878375
0.0151236
0.0121731
0.0143725
0.0134596
0.00793933
0.00230514
0.00223408
-0.0039843
-0.0312221
-0.0521082
-0.0480566
-0.0418673
0.0201196
-0.469538
-0.424407
-0.709851
-0.438514
-0.947572
-1.939
0.694394
-0.941297
-1.94549
0.588463
1.06086
0.324593
0.18755
0.328365
0.152377
0.186455
0.245621
0.24225
0.201895
0.153898
0.138829
0.130988
0.115961
0.104249
0.0995766
0.103021
0.0948562
0.01301
0.0140942
0.00974509
0.00741314
0.00449096
-0.00250728
-0.0023378
0.0127447
0.0145146
0.00282597
-0.0168927
0.0641326
0.0932295
-0.465764
-0.58929
-0.509026
-0.710259
0.0370315
-0.613066
-1.29001
-0.785663
0.208882
0.370762
0.126959
0.0688107
0.084865
0.101335
0.114831
0.207554
0.25736
0.216205
0.186311
0.162167
0.160848
0.141735
0.129357
0.113306
0.10223
0.0967729
0.0984327
0.022188
0.0235621
0.0264106
0.024923
0.0214673
0.0133304
0.00775604
0.0233057
0.0285385
0.0292451
0.0114542
0.00671496
-0.178155
-0.201801
-0.266755
-0.0756
-0.129611
-1.23238
-1.04408
-0.683319
-0.727518
-0.566861
0.250434
0.837811
-0.250884
-0.255768
-0.0189526
0.247132
0.310324
0.210549
0.19246
0.18074
0.170068
0.16497
0.140907
0.124492
0.109077
0.10088
0.100292
0.100801
0.0425028
0.0379381
0.0388425
0.0424185
0.0439447
0.0431548
0.0393724
0.0310877
0.0367268
0.0596198
0.112394
-0.15091
-0.145631
-0.162484
-0.00891552
0.064665
-0.0664282
1.07286
0.201272
-1.33572
-0.949499
-0.0887794
-0.294222
-1.08637
-0.12612
-0.120731
-0.172796
0.316091
0.556368
0.138484
0.159365
0.160067
0.146266
0.139453
0.12534
0.11922
0.110401
0.10858
0.0992603
0.0923549
0.0495469
0.0512067
0.0487145
0.0453479
0.0477408
0.0477633
0.0520288
0.0497015
0.0491269
0.0392915
0.0334073
0.0260906
0.0738868
-0.124543
-0.106031
-0.364939
0.384466
-0.375495
-1.07399
-1.12498
-0.165278
0.728445
1.53155
-0.382755
-0.265225
-0.138787
0.0378656
0.147191
0.241711
0.188109
0.159034
0.133907
0.128082
0.123667
0.119978
0.115191
0.107978
0.100341
0.096802
0.098371
0.0495796
0.0557437
0.0575256
0.055674
0.0547923
0.0558121
0.0618229
0.0673743
0.0500592
0.058366
0.0525754
-0.031274
-0.0927321
-0.336007
-0.046889
0.552546
0.681336
0.111834
1.15624
-0.209528
1.29803
-1.84278
0.734422
-0.424155
-0.692565
0.950204
0.577701
0.296012
0.218845
0.16622
0.141075
0.130951
0.124521
0.115578
0.103583
0.0991884
0.0960427
0.0938569
0.093421
0.0941169
0.0514151
0.0469113
0.0525234
0.0583428
0.0629398
0.066271
0.0673122
0.0704794
0.0496804
0.0447656
0.0210973
-0.0330478
-0.145381
-0.234453
-0.951588
-1.32587
-0.742539
-0.0683777
0.00645516
0.3054
-1.05174
-1.11835
-0.0646381
1.85919
2.03204
1.19279
0.386326
0.361302
0.219979
0.198265
0.155686
0.135755
0.119225
0.101787
0.0883219
0.0882469
0.0866976
0.0861432
0.085579
0.0819806
0.0559449
0.0615487
0.0609974
0.0625238
0.0653562
0.070157
0.0797254
0.0924786
0.0632052
0.0528236
0.000820253
-0.104156
-0.206168
-0.0983055
0.288707
-0.0421716
-1.17557
-0.971123
-0.0212408
0.791881
-0.0376776
0.262151
0.420694
0.0580699
-0.780764
-0.255149
0.339454
0.22001
0.227147
0.182845
0.11766
0.112278
0.0812926
0.0832407
0.0802998
0.076755
0.0701779
0.0699269
0.0689649
0.0763671
0.0635284
0.0632803
0.0684097
0.0740518
0.0810294
0.081654
0.0926218
0.108037
0.121126
0.140319
0.186847
-0.0486755
-0.0159208
-0.155296
-0.483696
0.212769
0.496039
0.409318
-0.689829
-1.15126
-0.455954
-0.257139
-1.38061
-1.10105
0.354294
0.569438
-0.0739406
0.00134951
0.0748126
0.0355717
0.0453316
0.0425868
0.0632646
0.0645134
0.0595645
0.0583403
0.0609255
0.0631572
0.0657116
0.0638306
0.0659515
0.0637277
0.0693168
0.0756996
0.0792277
0.0909285
0.105869
0.132431
0.157748
0.171079
0.20462
0.181814
0.148939
0.509682
0.615243
0.539563
-0.0457234
0.836451
-2.47348
-0.582201
1.04578
3.46235
-3.63759
-2.64157
-0.430931
-0.796541
-0.271794
-0.180264
-0.12853
-0.046254
-0.00164571
-0.0110409
0.0170661
0.0350134
0.0431818
0.0470808
0.0505655
0.0520176
0.0494383
0.0486944
0.056842
0.0610685
0.0649386
0.0714287
0.0795799
0.0941039
0.113109
0.144868
0.158274
0.156945
0.138118
0.105391
0.102811
0.216029
0.397326
0.677944
1.08714
1.19777
-0.391906
-0.536036
-0.00399639
-0.269581
-1.64867
-1.40558
-0.777179
-0.512045
-0.430939
-0.341071
-0.159359
-0.0590063
-0.0385805
-0.0282299
-0.0072858
0.0137125
0.0241635
0.0283977
0.0329055
0.0356306
0.0388522
0.0395183
0.0523825
0.0490022
0.0546292
0.0620944
0.0765554
0.0912213
0.113824
0.146751
0.171407
0.143121
0.170472
0.187855
0.16448
0.0360719
0.309673
0.563893
0.794372
0.695742
-0.713457
-3.48245
1.89757
0.0605961
-1.03094
-1.36057
-1.14531
-0.785028
-0.450204
-0.275003
-0.261049
-0.112187
-0.0626836
-0.0510954
-0.0179091
0.00149345
0.0107179
0.0154599
0.021841
0.0251028
0.0270098
0.0220781
0.0282854
0.0406555
0.0438712
0.0488564
0.058159
0.071573
0.0951607
0.109817
0.11772
0.116956
0.131419
0.116454
0.28968
0.389164
0.177399
0.170823
-0.140059
-0.0294171
-0.0724089
-0.0344992
-1.54742
-1.54486
-0.905979
-0.879009
-0.478921
-0.322742
-0.4107
-0.361017
-0.195318
-0.111921
-0.0665782
-0.0409282
-0.0275279
-0.00903348
0.0013654
0.00753643
0.0107576
0.0123556
0.0138121
0.0197668
0.018067
0.0133467
0.0167925
0.0231465
0.0311784
0.0406775
0.0556698
0.0741319
0.0868999
0.0856766
0.0701083
0.0217487
-0.0824728
-0.0984831
0.268513
0.452888
0.150595
0.0105876
-0.609761
-0.85718
-0.70458
-0.780859
-0.58488
-0.455808
-0.548881
-0.602802
-0.313232
-0.0796079
-0.101846
-0.107573
-0.0660457
-0.0329066
-0.0215275
-0.00857994
0.000253114
0.00829602
0.0133662
0.0161485
0.0195502
0.016678
-0.00921331
-0.00573286
-0.00640473
-0.00509286
-0.00437709
-0.00345144
0.00303057
0.0223329
0.0113121
-0.0144186
-0.0741849
-0.0560601
0.0863219
-0.0877293
-0.376037
-0.395926
-0.218923
-0.0987145
0.445613
1.59383
-1.79936
-0.867416
-0.460034
-0.329622
0.174549
0.113059
0.0102168
-0.135299
-0.0659785
-0.0475846
-0.0241084
-0.00393262
-0.000639988
-0.00636679
0.00619675
0.0142223
0.0176725
0.0171643
0.0174986
0.0187664
-0.0292885
-0.0352596
-0.0318997
-0.0346377
-0.032967
-0.0320741
-0.0319764
-0.0374416
-0.0616308
-0.0452577
-0.101579
-0.21079
-0.401392
-0.38593
-0.105392
-0.129174
-0.251843
-0.0247931
-0.0627031
-0.123712
0.778865
0.472091
0.297914
0.454432
0.339001
0.0986136
0.114529
0.156751
0.0285539
-0.0552036
0.0609362
0.0560039
0.0345888
0.0192234
0.0170756
0.0169351
0.0181284
0.0176866
0.0169824
0.0154515
-0.0479026
-0.053173
-0.0558172
-0.0598326
-0.0662029
-0.0722675
-0.0880369
-0.0967866
-0.124595
-0.13182
-0.12326
-0.178206
-0.130208
-0.216444
-0.342822
-0.380632
-0.263963
-0.0441436
-0.0551475
0.0923229
0.681503
0.747242
0.781872
0.585566
0.59101
0.451183
0.247766
0.0730446
0.0469373
0.0190176
0.0648402
0.054208
0.036077
0.0264352
0.0229114
0.0179755
0.0166125
0.0166013
0.017196
0.0165903
-0.0689182
-0.0705783
-0.0745259
-0.0818096
-0.0919342
-0.102261
-0.113285
-0.129232
-0.154089
-0.197287
-0.180146
-0.239727
-0.393401
-0.493538
-0.0802271
-0.229021
-0.322866
-0.231375
-0.169694
-0.309559
1.67097
0.961185
0.766439
0.647508
0.919836
0.454829
0.435817
0.280355
0.0957497
0.0277855
0.0748069
0.0451413
0.0291387
0.0128643
0.0144861
0.0148091
0.0139734
0.00881634
0.00696477
0.00510607
-0.0908066
-0.0945136
-0.0977918
-0.102394
-0.113308
-0.127111
-0.13579
-0.140278
-0.160028
-0.176159
-0.214518
-0.203471
-0.153483
-0.0682912
-0.0757931
-0.184645
-0.468393
-0.473854
-0.0560146
0.597893
0.231929
0.712349
1.22119
0.743418
0.598084
0.247739
0.0891106
0.0571339
0.0904677
0.0581494
0.0213572
0.0142549
0.00259819
0.00119392
0.00581836
0.00634203
0.00729058
0.00935569
0.0110422
0.0126244
-0.0990679
-0.101204
-0.106561
-0.11624
-0.127761
-0.137385
-0.14883
-0.159129
-0.171074
-0.184817
-0.177236
-0.194075
-0.289856
-0.169342
-0.0207069
0.0421597
0.0756211
0.250302
0.51598
0.536511
-0.04966
-0.11765
-0.160271
-0.159358
0.00911964
0.0776982
0.194289
0.145883
0.0519035
0.00751664
-0.0255744
-0.00358984
0.00155515
-0.00365524
0.00769329
0.0137337
0.0134168
0.00919881
0.00775129
0.00489051
-0.104511
-0.106345
-0.109636
-0.115247
-0.124281
-0.1329
-0.142009
-0.152885
-0.174079
-0.169777
-0.192019
-0.0899641
-0.0160513
-0.00414837
-0.102326
-0.127355
0.238875
0.151567
0.65481
0.316665
0.859036
0.608011
0.0568432
0.0430889
-0.0763378
-0.0686412
-0.186764
-0.15167
-0.0467935
0.0203708
-0.0322853
-0.0162771
-0.00912045
-0.00598025
0.00848439
0.00724426
0.00638885
0.00611292
0.00763334
0.00863527
-0.111198
-0.107818
-0.109652
-0.114865
-0.12063
-0.128809
-0.129013
-0.13972
-0.150196
-0.16139
-0.135349
-0.110188
-0.0317783
0.189844
0.326553
0.383951
0.412796
0.352977
1.28388
1.40412
0.191664
-0.0211091
-0.28574
-0.443721
-0.637623
-0.2999
-0.063375
0.0515114
0.0190591
-0.00929407
0.0061003
-0.0100906
-0.00464664
-0.00122135
0.00352831
0.00444334
0.00571935
0.000328236
0.000882422
0.00427449
-0.112465
-0.108838
-0.111829
-0.115609
-0.11968
-0.121997
-0.124727
-0.128904
-0.129989
-0.134953
-0.0923748
0.131817
0.145158
0.0524374
0.0852257
0.211076
0.263191
0.418061
0.703665
0.553495
0.697756
0.578572
0.0677125
0.0297974
-0.381544
-0.349471
0.0107177
-0.0730001
0.00430649
-0.0161205
-0.0039061
0.0044345
0.00658273
0.00908651
0.0107727
9.80902e-05
0.000672964
-0.0025911
-0.00230627
0.00273494
-0.105563
-0.105733
-0.107521
-0.109761
-0.110211
-0.107573
-0.100991
-0.103984
-0.101654
-0.104364
-0.036142
0.0290838
0.187326
0.351916
0.489351
0.570498
0.56994
0.523838
0.536145
0.668773
0.593365
0.270674
-0.0908684
-0.217691
-0.283423
-0.24309
-0.112954
-0.00141447
0.00985559
-0.0324921
0.046652
0.0438759
0.0229652
0.0164633
0.0112926
0.00479208
0.00263026
0.00223448
0.00314806
0.00647238
-0.106404
-0.107384
-0.10594
-0.107949
-0.105537
-0.103409
-0.102257
-0.0999659
-0.0947182
-0.0648646
-0.0343474
-0.0281559
0.110253
0.160635
0.298946
0.363217
0.304571
0.321746
0.0129485
-0.758861
1.52031
0.97819
-0.0454611
-0.0484282
0.0133356
-0.0193352
-0.00936745
-0.0161238
0.0149924
0.0296954
0.0249208
0.0797447
0.0497288
0.0335242
0.022955
0.0154658
0.00595885
0.00351745
0.00155383
0.00199706
-0.102137
-0.0996538
-0.100891
-0.103604
-0.104418
-0.0970003
-0.0947925
-0.0950441
-0.109885
-0.094952
-0.022454
0.0315539
-0.00726602
0.0368864
0.121781
0.198129
0.373316
0.346593
0.313514
0.384589
0.302894
0.211248
0.0767421
-0.0878215
0.0779641
0.12435
0.150504
0.151573
0.0970478
0.0588699
0.0793355
0.0879741
0.0543613
0.0434077
0.0233485
0.0153985
0.00863789
0.00262414
0.000899507
-0.00375365
-0.101041
-0.103888
-0.102269
-0.099156
-0.096949
-0.0936151
-0.0884974
-0.0839406
-0.109885
-0.13281
-0.147063
-0.12136
-0.0869651
-0.0554075
-0.0295235
-0.0284553
0.00372978
0.165869
0.146228
0.153707
0.488759
0.410851
0.531683
0.547942
0.497144
0.404558
0.25772
0.164918
0.127126
0.100293
0.137035
0.103876
0.067431
0.0467804
0.0285731
0.0148979
0.00719655
-0.000843322
-0.00444207
-0.00424521
-0.103169
-0.0999586
-0.103139
-0.107248
-0.108563
-0.10861
-0.110615
-0.106396
-0.148936
-0.168806
-0.153116
-0.214275
-0.269274
-0.259821
-0.106771
-0.0210082
0.124815
0.0952603
0.576264
0.886305
0.0805931
0.334074
0.469306
0.412445
0.419586
0.37447
0.403206
0.324127
0.180949
0.133312
0.126755
0.0953245
0.0710408
0.047512
0.0282994
0.00936783
-0.000577293
-0.00794291
-0.0138149
-0.0170198
-0.104882
-0.111011
-0.110927
-0.110672
-0.111942
-0.113209
-0.126558
-0.112285
-0.181099
-0.214634
-0.310946
-0.339822
-0.307236
-0.390282
-0.292227
-0.328269
-0.323065
-0.146988
0.111831
0.184135
0.465478
0.244653
0.531229
0.630865
0.510266
0.379873
0.285322
0.190631
0.156902
0.181445
0.101874
0.0845303
0.0556617
0.031304
0.0114301
-0.00101137
-0.0147891
-0.023521
-0.0281802
-0.0259955
-0.107984
-0.107327
-0.111461
-0.111799
-0.117972
-0.124724
-0.138343
-0.159383
-0.193397
-0.21317
-0.235852
-0.322919
-0.41324
-0.485674
-0.481169
-0.536764
-0.487648
-0.449245
-0.538446
-0.378166
-0.0963847
0.180431
0.131608
0.125399
0.108382
0.129992
0.143878
0.169974
0.123582
0.112027
0.0293829
0.0257778
0.0205038
0.00218481
-0.0142397
-0.0271303
-0.0343128
-0.0421755
-0.0430064
-0.0408183
-0.0944001
-0.0937962
-0.0975607
-0.104008
-0.113892
-0.127218
-0.14604
-0.172695
-0.19775
-0.251379
-0.352922
-0.378898
-0.420812
-0.518633
-0.645217
-0.728314
-0.72626
-0.587395
-0.544849
-0.605161
-0.400572
-0.320812
-0.101296
-0.0489931
0.0146811
0.0412565
0.0744612
0.0548787
0.0467966
0.0647378
0.00769907
-0.0207247
-0.0121023
-0.0231273
-0.0376495
-0.0502621
-0.0598049
-0.0626634
-0.065479
-0.0655633
-0.0867251
-0.0855152
-0.0871876
-0.0906702
-0.0964024
-0.10555
-0.136076
-0.155077
-0.188
-0.228614
-0.242319
-0.343474
-0.391597
-0.484938
-0.57254
-0.658335
-0.447022
-0.529552
-0.586973
-0.41359
-0.525982
-0.306426
-0.449285
-0.52352
-0.16647
-0.152845
-0.12621
-0.104919
-0.0689414
-0.0931834
-0.0730111
-0.0568602
-0.0747411
-0.0727281
-0.078659
-0.0842133
-0.0881454
-0.087924
-0.0886064
-0.086716
-0.0762414
-0.0738202
-0.0742891
-0.0783531
-0.085172
-0.096208
-0.111994
-0.131485
-0.151118
-0.234117
-0.263721
-0.350036
-0.353677
-0.391659
-0.469112
-0.427898
-0.305659
-0.19396
-0.0699302
-0.131936
-0.592897
-0.657708
-0.69731
-0.59272
-0.473024
-0.405504
-0.3242
-0.180979
-0.113079
-0.118594
-0.138656
-0.132184
-0.123057
-0.117168
-0.113739
-0.111593
-0.113032
-0.112633
-0.112139
-0.117979
-0.0595025
-0.058653
-0.0599011
-0.0634515
-0.0683391
-0.076988
-0.0885923
-0.108415
-0.13326
-0.16346
-0.177219
-0.239024
-0.305114
-0.313941
-0.310146
-0.267874
-0.110945
-0.12148
-0.0372599
-0.0226147
-0.102526
-0.0928641
-0.227276
-0.288912
-0.270043
-0.249307
-0.246721
-0.268919
-0.303921
-0.272521
-0.248033
-0.210446
-0.190366
-0.17103
-0.162898
-0.150316
-0.144942
-0.141113
-0.139465
-0.136555
-0.0478899
-0.0465482
-0.0447384
-0.0469175
-0.04936
-0.0537418
-0.0609804
-0.0719348
-0.0971551
-0.153528
-0.162559
-0.126454
-0.085312
-0.0794315
-0.0555552
-0.0724813
0.0826303
0.230073
0.455821
0.504797
-0.188214
-0.25769
-0.338714
-0.319857
-0.339432
-0.437753
-0.460292
-0.433956
-0.390495
-0.330019
-0.307511
-0.282976
-0.257068
-0.231678
-0.204594
-0.186259
-0.174322
-0.169376
-0.163736
-0.166736
-0.0321759
-0.0322723
-0.031781
-0.0338467
-0.0363198
-0.0387268
-0.0393805
-0.0474256
-0.06186
-0.0504685
-0.0410189
-0.0971233
-0.132019
-0.0861158
-0.178712
-0.0639167
0.057455
0.090135
0.146479
0.1272
0.0526714
-0.110361
-0.322904
-0.426206
-0.50437
-0.505389
-0.549202
-0.526917
-0.469235
-0.432095
-0.423109
-0.358411
-0.316754
-0.271906
-0.236325
-0.216496
-0.201176
-0.194849
-0.191792
-0.18025
-0.00868434
-0.0107226
-0.0120205
-0.0124234
-0.0108718
-0.0069323
-0.00520072
-0.00603076
0.00567686
-0.00452739
0.0211731
0.0828628
0.119711
0.13588
0.164478
0.157114
0.206135
0.1897
0.30035
0.309789
0.00460425
-0.306712
-0.594582
-0.764267
-0.841369
-0.817781
-0.778058
-0.688729
-0.59413
-0.525795
-0.455785
-0.391558
-0.332053
-0.29785
-0.261737
-0.23588
-0.21795
-0.204744
-0.196585
-0.192786
0.00233946
0.00471745
0.00892168
0.0132274
0.0202925
0.0315335
0.0469629
0.0477569
0.0735196
0.085575
0.130748
0.19642
0.238391
0.316955
0.361642
0.51083
0.254107
0.236797
0.152488
0.123225
0.288941
0.175394
-0.28517
-0.568298
-0.737919
-0.7384
-0.703143
-0.681879
-0.646311
-0.537223
-0.464927
-0.412449
-0.333557
-0.297812
-0.264087
-0.233528
-0.215486
-0.202669
-0.195493
-0.196311
0.0253183
0.0255268
0.0290699
0.0330077
0.0458251
0.0545943
0.0760238
0.0982464
0.1468
0.207778
0.273703
0.354029
0.465211
0.692103
0.796665
0.879893
0.927036
0.894206
0.770131
0.724835
0.443982
0.135199
-0.202981
-0.508228
-0.732686
-0.831464
-0.728821
-0.682269
-0.583169
-0.494522
-0.429743
-0.374916
-0.322179
-0.278197
-0.248794
-0.229722
-0.212039
-0.202087
-0.196837
-0.197291
0.0313718
0.0368149
0.0436753
0.054579
0.0698535
0.0881968
0.113131
0.148153
0.190023
0.251252
0.364541
0.519197
0.688195
0.866962
1.0442
1.23049
1.36346
1.30919
1.19316
0.980872
0.680299
0.360643
0.189567
-0.303913
-0.407588
-0.577482
-0.589142
-0.57165
-0.521726
-0.450966
-0.388932
-0.342014
-0.299646
-0.268394
-0.240649
-0.219518
-0.20236
-0.190038
-0.184376
-0.1858
0.041939
0.0444722
0.0488573
0.0573351
0.0718447
0.0941178
0.123763
0.167778
0.228331
0.320465
0.440283
0.613807
0.832548
1.07837
1.29756
1.64809
1.7406
1.48519
1.45362
1.09384
0.900784
0.0897043
-0.19684
-0.197908
-0.387192
-0.447948
-0.426118
-0.402031
-0.371023
-0.356701
-0.317032
-0.274873
-0.270365
-0.234366
-0.213076
-0.195456
-0.186044
-0.176175
-0.171003
-0.169667
0.0353302
0.0379068
0.0439357
0.0552442
0.0720874
0.0914715
0.135041
0.205988
0.253851
0.317773
0.498241
0.634624
0.849649
0.99494
1.14813
1.37519
1.371
1.54375
1.56338
0.573797
0.37703
0.0209314
-0.152346
-0.278736
-0.323943
-0.347043
-0.332485
-0.325599
-0.304295
-0.271303
-0.252815
-0.229066
-0.205733
-0.194606
-0.179125
-0.170562
-0.163658
-0.156707
-0.15381
-0.148231
0.0320957
0.0293143
0.0340739
0.0434046
0.0588772
0.0851313
0.12306
0.178781
0.244206
0.327654
0.462494
0.616681
0.780964
0.965374
1.10373
1.08792
1.10662
0.733035
0.529217
0.143733
0.186771
-0.130625
-0.27645
-0.353764
-0.395602
-0.363989
-0.319132
-0.271873
-0.194066
-0.153206
-0.181004
-0.152571
-0.159042
-0.152933
-0.144123
-0.140778
-0.135716
-0.130274
-0.124768
-0.121466
0.0272693
0.0257503
0.0279219
0.0349908
0.0469612
0.0691749
0.107784
0.155153
0.199951
0.271706
0.370444
0.513489
0.631267
0.758787
0.869627
0.895264
0.881305
0.705219
0.458657
0.0770088
-0.129272
-0.402002
-0.36373
-0.437107
-0.307483
-0.274775
-0.173106
-0.0665934
-0.0300981
-0.04221
-0.0396416
-0.06258
-0.0816178
-0.0890058
-0.0882231
-0.0924872
-0.0953164
-0.0936901
-0.091806
-0.0874723
0.0124649
0.0133598
0.0172086
0.0244502
0.0360694
0.0540241
0.0798051
0.123938
0.165892
0.239429
0.319972
0.411726
0.549124
0.65852
0.748201
0.71774
0.686074
0.395375
0.170118
-0.0503163
0.0303882
0.0843494
0.0624287
-0.0556036
-0.0312825
0.0010906
0.0386762
0.0931648
0.100885
0.0612393
0.0277591
0.0104665
-0.0169574
-0.0293403
-0.0416921
-0.050556
-0.0590144
-0.0596067
-0.0630083
-0.06259
-0.0133513
-0.00828096
-0.00468657
0.00154157
0.00709512
0.0230191
0.0273038
0.0425386
0.0898295
0.116819
0.162649
0.201584
0.245102
0.299085
0.383852
0.466225
0.54796
0.474339
0.400982
0.22265
0.153721
0.162397
0.294095
0.412543
0.41347
0.388714
0.346806
0.306587
0.241937
0.218649
0.1573
0.0952436
0.0526704
0.019655
-0.00148741
-0.0158137
-0.0234595
-0.0263349
-0.0289334
-0.0366125
-0.0382764
-0.0352787
-0.034402
-0.0352902
-0.0381785
-0.0371652
-0.0372963
-0.0370601
-0.0157541
-0.000463701
0.00138416
-0.0208461
0.024811
0.0903444
0.115018
0.129835
0.106943
0.161322
0.155521
0.290568
0.41646
0.694605
0.802446
0.793903
0.76404
0.695339
0.613314
0.506265
0.390736
0.288386
0.191926
0.135096
0.089601
0.0473095
0.0364707
0.0152336
0.00237024
-0.00850959
-0.0151876
-0.0134416
-0.0679387
-0.0699671
-0.072928
-0.07699
-0.0828807
-0.0896197
-0.100115
-0.119521
-0.140527
-0.169524
-0.168413
-0.173209
-0.196152
-0.211103
-0.22612
-0.224388
-0.125592
0.0144916
0.198034
0.318102
0.464088
0.393894
0.603233
0.734137
0.760586
0.739528
0.674988
0.55536
0.435556
0.329335
0.24106
0.167486
0.105302
0.0694322
0.0467402
0.0215515
0.0100241
0.00519534
0.00172537
-0.000266584
-0.0875403
-0.0974714
-0.105531
-0.114938
-0.125667
-0.139475
-0.158057
-0.191968
-0.231424
-0.299333
-0.384172
-0.50645
-0.586174
-0.640511
-0.684944
-0.682233
-0.63197
-0.51609
-0.373983
-0.133509
0.129984
0.350691
0.570917
0.69371
0.734376
0.722146
0.671454
0.578768
0.484696
0.326935
0.227734
0.157738
0.110095
0.0760792
0.0520827
0.0330967
0.0195395
0.0106346
0.00495531
0.0110832
-0.103727
-0.109905
-0.119328
-0.132643
-0.148086
-0.17171
-0.203713
-0.252748
-0.330901
-0.425428
-0.514766
-0.637244
-0.803334
-0.9413
-1.04068
-1.06886
-1.05665
-0.896339
-0.674368
-0.424092
-0.0860117
0.271368
0.578578
0.624619
0.606157
0.568501
0.527612
0.462461
0.370234
0.278768
0.205998
0.148798
0.0996141
0.0721718
0.0513072
0.0342904
0.0241706
0.0183965
0.0165288
0.0158584
-0.113201
-0.116797
-0.123626
-0.137714
-0.153044
-0.182175
-0.224756
-0.284634
-0.364982
-0.474004
-0.62124
-0.800633
-0.990956
-1.15527
-1.27679
-1.32322
-1.36065
-1.23473
-1.12777
-0.268922
0.0559962
0.416902
0.606607
0.7271
0.765859
0.703421
0.606236
0.483231
0.343619
0.237831
0.175934
0.126282
0.0982184
0.0691247
0.0527273
0.0405361
0.0327309
0.0287243
0.0264378
0.0264637
-0.11553
-0.114873
-0.122526
-0.13759
-0.160242
-0.192241
-0.236235
-0.297451
-0.385845
-0.495155
-0.631437
-0.787694
-0.925803
-1.02565
-1.0846
-1.05599
-1.0134
-0.820566
-0.58964
-0.285126
0.0612965
0.324156
0.550939
0.593637
0.545164
0.4553
0.399039
0.334018
0.261066
0.204958
0.156889
0.114543
0.0905833
0.0630425
0.0544189
0.0453757
0.0363102
0.0296244
0.0245515
0.0214647
-0.114222
-0.111693
-0.119012
-0.131109
-0.150989
-0.181984
-0.225176
-0.276321
-0.36735
-0.466639
-0.575243
-0.71895
-0.843475
-0.908748
-0.931268
-0.877501
-0.836612
-0.701779
-0.453872
-0.229711
0.0162987
0.2958
0.480262
0.546812
0.564039
0.482597
0.377305
0.246145
0.16063
0.104827
0.0831382
0.0532068
0.0566508
0.041714
0.0339524
0.0303568
0.0275627
0.0252883
0.0224862
0.0174085
-0.100508
-0.103423
-0.11025
-0.12092
-0.138499
-0.165809
-0.20474
-0.245619
-0.321443
-0.406669
-0.517717
-0.63946
-0.744844
-0.807844
-0.839866
-0.881077
-0.860097
-0.741658
-0.518216
-0.215851
-0.06997
0.203097
0.232284
0.313533
0.308117
0.303158
0.261974
0.190326
0.123783
0.0646144
0.0343347
0.0197417
0.0138463
0.0127007
0.0123102
0.011693
0.011245
0.0107756
0.00992659
0.0112426
-0.0805099
-0.0813305
-0.0875233
-0.0961541
-0.112313
-0.127118
-0.16061
-0.20855
-0.273333
-0.346512
-0.418576
-0.537511
-0.677837
-0.808622
-0.886506
-0.949044
-0.940388
-0.770086
-0.611571
-0.494612
-0.33715
-0.158346
-0.0573649
0.0644354
0.0703827
0.116486
0.0820414
0.0671673
0.0382861
0.00581419
-0.0143685
-0.0293884
-0.0306605
0.002022
-0.00342004
-0.00445234
-0.00432988
-0.00272293
-0.00092605
0.00639317
-0.0530593
-0.0549131
-0.0570219
-0.0604018
-0.0664005
-0.08101
-0.104232
-0.141428
-0.179331
-0.241612
-0.325318
-0.422185
-0.527531
-0.646133
-0.724693
-0.738323
-1.02594
-0.932122
-0.818011
-0.658607
-0.5002
-0.397462
-0.309929
-0.27463
-0.166949
-0.138819
-0.0967572
-0.082422
-0.0836493
-0.0651425
-0.0610957
-0.0547093
-0.0399581
-0.0258449
-0.0177974
-0.01761
-0.00900431
0.00114448
0.00609311
0.0104835
-0.0196347
-0.0179747
-0.0199096
-0.0220771
-0.0237258
-0.0298735
-0.0387033
-0.0724629
-0.0822254
-0.133872
-0.193593
-0.279914
-0.342813
-0.407835
-0.434399
-0.446265
-0.527691
-0.549063
-0.559236
-0.591957
-0.63578
-0.607889
-0.563311
-0.546346
-0.394085
-0.334192
-0.234452
-0.170138
-0.0956229
-0.0688359
-0.0582482