/*--------------------------------*- C++ -*----------------------------------*\
| =========                 |                                                 |
| \\      /  F ield         | OpenFOAM: The Open Source CFD Toolbox           |
|  \\    /   O peration     | Version:  v2106                                 |
|   \\  /    A nd           | Website:  www.openfoam.com                      |
|    \\/     M anipulation  |                                                 |
\*---------------------------------------------------------------------------*/
FoamFile
{
    version     2.0;
    format      ascii;
    arch        "LSB;label=32;scalar=64";
    class       volVectorField;
    location    "0";
    object      U;
}
// * * * * * * * * * * * * * * * * * * * * * * * * * * * * * * * * * * * * * //

dimensions      [0 1 -1 0 0 0 0];

internalField   nonuniform List<vector> 
11644
(
(0.00053861 0.0001319 1.6022e-20)
(0.000586988 0.000220363 4.41839e-20)
(0.000529439 0.000282643 2.37057e-20)
(0.000288853 0.000275731 0)
(0.000283811 0.00043632 0)
(0.000411976 0.000558732 0)
(0.000544148 0.0005915 0)
(0.000576767 0.00052763 0)
(0.000657551 0.000216846 0)
(0.000759776 -0.000346698 0)
(0.00114853 -0.00113872 0)
(0.0011376 -0.00229943 0)
(0.00128111 -0.00388621 0)
(0.00186288 -0.00532934 0)
(0.00137842 -0.00698512 0)
(0.00128218 -0.00814826 0)
(0.0028316 -0.0089123 0)
(0.00366415 -0.0096066 0)
(0.000835489 -0.00895536 0)
(-1.3949e-05 -0.00551021 5.23974e-30)
(0.00154721 -0.00271463 -5.14529e-30)
(0.00247806 -0.00198937 0)
(0.00214648 -0.00302682 0)
(0.000973142 -0.00294567 0)
(0.00123185 -0.00229193 0)
(0.00100554 -0.00212212 0)
(0.000547736 -0.0027874 0)
(0.000704658 -0.0033218 0)
(0.000548604 -0.00368993 0)
(0.000375037 -0.00402354 0)
(0.00046146 -0.00413042 0)
(0.000300423 -0.00402247 0)
(0.000283369 -0.00374125 0)
(0.000245798 -0.00329777 0)
(0.00024597 -0.00280353 0)
(0.000218833 -0.0023003 0)
(0.000243789 -0.00179623 0)
(9.89093e-05 -0.00134435 0)
(4.15641e-05 -0.000911016 0)
(0.000184697 -0.000345701 3.10649e-21)
(0.000472609 3.68407e-05 2.05801e-20)
(0.000337222 0.000260929 1.90638e-20)
(0.000283897 0.000288432 1.02385e-20)
(0.000261367 0.000401575 0)
(0.000331903 0.000320111 0)
(0.000245931 0.000193784 0)
(0.000137399 0.000113967 0)
(0.000208281 -6.66009e-05 0)
(0.000372648 -0.000399472 0)
(0.000441017 -0.00109827 0)
(0.000742851 -0.0021135 0)
(0.00155469 -0.00382172 0)
(0.00175422 -0.00555733 0)
(0.0017402 -0.00821774 0)
(0.00269763 -0.0107818 0)
(0.00386078 -0.0126058 1.88083e-21)
(0.00350448 -0.0145243 -5.87456e-21)
(0.000533139 -0.0134637 3.0686e-20)
(-0.000253541 -0.0103038 -7.01541e-20)
(0.000412481 -0.00769776 -1.03491e-19)
(0.00201707 -0.00513724 1.50908e-19)
(0.00283339 -0.00317287 1.98867e-20)
(0.00236952 -0.00185782 -2.7498e-20)
(0.00253671 -0.00235565 5.40644e-21)
(0.00165191 -0.00321225 -1.33078e-21)
(0.00113029 -0.00417368 0)
(0.00151454 -0.00524405 0)
(0.000585159 -0.00595773 0)
(-0.000220524 -0.00655841 0)
(-0.000570814 -0.00675578 0)
(-0.000892262 -0.00653653 0)
(-0.000971939 -0.00618475 0)
(-0.00112845 -0.00562452 0)
(-0.00107523 -0.00497706 0)
(-0.000952222 -0.00430414 0)
(-0.00101616 -0.00354411 0)
(-0.000882125 -0.00284142 0)
(-0.00100963 -0.00199957 0)
(-0.000928521 -0.00132239 0)
(-0.000813512 -0.000415329 0)
(0.00144866 -7.04846e-05 0)
(0.00106198 -0.000638536 0)
(0.000699019 -0.00045057 0)
(0.000508281 -0.000543295 0)
(0.00053032 -0.000535915 1.87995e-20)
(0.000387391 -0.000651776 0)
(0.000276152 -0.000729393 0)
(0.000145772 -0.000993414 0)
(0.000203307 -0.00133185 0)
(0.00039489 -0.00188124 0)
(0.000343958 -0.00302192 0)
(0.00126866 -0.00434139 0)
(0.00262363 -0.00672356 1.09164e-21)
(0.00546063 -0.00920717 -8.72195e-21)
(0.00593054 -0.0125211 -9.59709e-20)
(0.00537578 -0.0157091 1.1429e-20)
(0.00432955 -0.016922 1.41684e-19)
(0.00235022 -0.0173898 -2.76368e-20)
(0.00163957 -0.0162015 -2.6073e-19)
(0.00131874 -0.0146221 4.39254e-20)
(-9.13141e-05 -0.0123188 3.156e-19)
(-0.000795793 -0.00852168 2.22239e-20)
(-0.000538023 -0.00443791 -1.02752e-19)
(0.00158834 -0.00247503 7.43289e-20)
(0.00180997 -0.00351156 -2.20915e-19)
(0.00152095 -0.00545189 9.78265e-20)
(4.65376e-06 -0.00687492 7.88411e-21)
(-0.000537804 -0.00828349 -9.66296e-22)
(-0.000747992 -0.00929652 0)
(-0.00153491 -0.00951001 0)
(-0.00216063 -0.00913209 0)
(-0.00237457 -0.00842804 0)
(-0.00240503 -0.00753055 0)
(-0.00220871 -0.00652513 0)
(-0.00221584 -0.00541119 0)
(-0.00186862 -0.00440532 0)
(-0.0017895 -0.00332361 0)
(-0.00154212 -0.00242531 0)
(-0.00147656 -0.001098 0)
(-0.00119801 -0.000529025 0)
(0.00216631 -0.000518939 0)
(0.00211147 -0.00062408 0)
(0.0017679 -0.00110634 0)
(0.0015693 -0.00152024 0)
(0.00117265 -0.00189215 0)
(0.000817136 -0.00221708 0)
(0.000397689 -0.00250099 0)
(0.000273628 -0.00276354 0)
(2.47486e-05 -0.00312656 0)
(0.000135664 -0.0037121 0)
(0.0014971 -0.00398672 -3.34592e-23)
(0.00274 -0.0055516 -4.29671e-20)
(0.00473182 -0.00725874 -1.15061e-20)
(0.00391216 -0.0115086 4.38714e-20)
(0.00497109 -0.0172104 4.08087e-19)
(0.00544459 -0.0206488 -4.6764e-19)
(0.00504851 -0.024219 -1.4834e-19)
(0.00326427 -0.0264478 3.40267e-19)
(0.0044047 -0.0260794 1.36885e-19)
(0.00231617 -0.0233621 1.53979e-19)
(0.000651704 -0.0180477 -2.40209e-19)
(-0.00134517 -0.0142143 -5.39694e-19)
(-0.0014187 -0.0104247 1.93874e-19)
(0.00135932 -0.00783335 9.02228e-20)
(0.00365549 -0.00739773 4.32569e-19)
(0.001711 -0.00968361 -3.17521e-19)
(-0.00038057 -0.0128439 -1.05507e-19)
(-0.00210823 -0.0136858 8.98599e-20)
(-0.00452431 -0.0133037 -1.5698e-20)
(-0.00476151 -0.0130965 -2.94393e-22)
(-0.00461218 -0.0122024 0)
(-0.00473781 -0.0105278 0)
(-0.00458332 -0.00880033 0)
(-0.00414877 -0.00718409 0)
(-0.00378391 -0.00561952 0)
(-0.00325122 -0.00437875 0)
(-0.00287378 -0.00315424 0)
(-0.00268893 -0.00194162 0)
(-0.00233551 -0.00124329 0)
(-0.00222068 6.93988e-05 0)
(0.00300204 -0.000421024 0)
(0.00300147 -0.000316671 0)
(0.00307184 -0.00136629 0)
(0.00300565 -0.00136313 0)
(0.00258277 -0.00242398 0)
(0.00221933 -0.00290498 0)
(0.00180936 -0.00367735 0)
(0.00142485 -0.00433939 0)
(0.00141126 -0.00479304 0)
(0.00165345 -0.00492741 -5.91216e-21)
(0.000819599 -0.00552698 -2.25876e-19)
(0.000506731 -0.00587365 1.60981e-20)
(-0.000379175 -0.00908044 2.26933e-19)
(0.00515681 -0.0129406 -7.11349e-19)
(0.00758937 -0.0204251 1.49114e-18)
(0.00340136 -0.0269559 -7.79527e-19)
(0.00479656 -0.0321371 -1.0382e-18)
(0.00814992 -0.0339 -7.27911e-19)
(0.00906835 -0.0319571 8.93708e-19)
(0.00695467 -0.0296876 -1.46971e-18)
(0.00556466 -0.0242819 2.49272e-18)
(0.00320259 -0.0208847 -1.52195e-18)
(0.00105411 -0.0179565 4.03026e-19)
(0.000222309 -0.0144051 4.00227e-19)
(-0.000551681 -0.013747 1.23937e-18)
(0.000726267 -0.0161169 -1.4894e-18)
(-0.00134066 -0.0172778 8.36003e-19)
(-0.00650692 -0.0175616 2.50736e-19)
(-0.00775462 -0.0170038 -5.40452e-19)
(-0.0097141 -0.0139317 2.64608e-19)
(-0.00977212 -0.0113732 -3.00072e-21)
(-0.00865674 -0.00932061 0)
(-0.00772962 -0.00702907 0)
(-0.00669524 -0.00515422 0)
(-0.00566947 -0.00369941 0)
(-0.00489967 -0.00224798 0)
(-0.0041179 -0.0016381 0)
(-0.00353753 -0.000630772 0)
(-0.00310052 -0.000411921 0)
(-0.00300924 -0.000237674 0)
(0.00404664 0.000638691 0)
(0.00384541 -0.00259379 0)
(0.00416907 -0.00164672 0)
(0.00418122 -0.00348389 0)
(0.00425741 -0.00389282 0)
(0.0040808 -0.00470451 0)
(0.00395116 -0.00548666 0)
(0.00372794 -0.00587512 0)
(0.0035605 -0.00623508 3.7054e-21)
(0.00243975 -0.00643814 -1.08768e-19)
(0.000734383 -0.00638217 4.79272e-20)
(-0.00199935 -0.00849041 -1.3415e-20)
(-0.00120905 -0.00668221 7.19667e-19)
(-0.00376204 -0.0088619 -5.81427e-19)
(0.000167739 -0.0201719 -1.53418e-22)
(0.0117787 -0.0302747 -2.22714e-19)
(0.0127677 -0.0322962 7.13226e-19)
(0.0107038 -0.0333084 -5.25488e-19)
(0.00982339 -0.0366153 1.42461e-19)
(0.00823863 -0.0352614 3.86695e-20)
(0.00678175 -0.0284234 5.81852e-20)
(0.00367437 -0.027907 1.95892e-19)
(0.000416722 -0.0261626 9.72293e-20)
(-0.00443714 -0.0258796 -1.03906e-18)
(-0.00895291 -0.0219872 3.86799e-19)
(-0.0118132 -0.02079 1.73308e-19)
(-0.0124281 -0.0232792 4.27843e-19)
(-0.0121134 -0.021105 -3.43587e-19)
(-0.0136082 -0.015114 -2.72232e-19)
(-0.0138588 -0.0112495 1.20116e-19)
(-0.01363 -0.00714884 -1.34888e-21)
(-0.0119172 -0.00428209 -1.4662e-20)
(-0.00948445 -0.00267582 0)
(-0.00768603 -0.00135148 0)
(-0.00612397 -0.000674015 0)
(-0.00483261 -0.000471063 0)
(-0.00418588 8.6848e-05 0)
(-0.0032431 -0.00085174 0)
(-0.00308739 0.000636752 0)
(-0.0029052 -0.000711476 0)
(0.00553176 -0.00214912 0)
(0.00589345 0.000166922 0)
(0.00566605 -0.00217048 0)
(0.00596927 -0.00298499 0)
(0.00617177 -0.00348468 0)
(0.00630443 -0.00490831 0)
(0.00651345 -0.00584025 0)
(0.00649418 -0.00665419 -2.79031e-21)
(0.00562148 -0.00703332 -7.52494e-22)
(0.00330577 -0.00762809 8.36768e-20)
(0.0012347 -0.00754344 7.21959e-20)
(0.000701942 -0.00219769 -2.98897e-19)
(-0.00196192 -0.00260511 1.13167e-18)
(0.00433428 -0.00576984 -1.09913e-18)
(0.0028585 -0.00222419 7.17763e-19)
(0.00160193 -0.0145133 -9.82173e-20)
(0.00894935 -0.0354273 -1.69087e-18)
(0.00870244 -0.0378752 -2.21266e-18)
(0.00445815 -0.0386 -1.25952e-18)
(0.00154832 -0.0385982 -2.51274e-18)
(-0.00129318 -0.036987 -7.77463e-19)
(-0.00391637 -0.0363333 7.00864e-19)
(-0.00731735 -0.0315094 -1.64988e-18)
(-0.0102559 -0.0256974 -1.1744e-18)
(-0.0242119 -0.0275805 8.26698e-20)
(-0.0282649 -0.0248704 -3.11551e-19)
(-0.0176267 -0.0191456 1.02538e-18)
(-0.0240108 -0.0145709 -9.47019e-19)
(-0.0176097 -0.00944718 1.03387e-20)
(-0.0152293 -0.00540443 -1.54545e-19)
(-0.0139065 -0.00178742 1.52025e-19)
(-0.0124999 0.000673849 -5.15322e-20)
(-0.0100221 0.00169732 -2.02504e-21)
(-0.00757433 0.00211431 0)
(-0.0059393 0.00274766 0)
(-0.0044829 0.00255997 0)
(-0.00341487 0.00267589 0)
(-0.00268381 0.00269081 0)
(-0.00176079 0.000259035 0)
(-0.00175661 0.00198616 0)
(0.0072625 0.000268498 0)
(0.00738785 0.000231471 0)
(0.00815103 -0.00189457 0)
(0.00871842 -0.000153338 0)
(0.0090448 -0.00218908 0)
(0.00983194 -0.00276926 0)
(0.0103682 -0.00390108 0)
(0.0105768 -0.00484549 -3.11193e-20)
(0.00888433 -0.00579388 -1.01905e-20)
(0.0067855 -0.0052754 1.66797e-19)
(0.00487233 -0.00411084 -1.28138e-19)
(0.00268612 -0.00790616 -1.4477e-19)
(-0.00458247 -0.00106304 -2.66036e-19)
(0.00331682 0.00558655 -3.77474e-20)
(-0.00222062 -0.0119992 7.95446e-19)
(-0.00750268 -0.0134293 1.91662e-18)
(0.00669912 -0.0119277 -6.44246e-19)
(0.00724549 -0.0388668 1.12015e-18)
(0.00999137 -0.0447676 -9.43147e-19)
(0.00681457 -0.0516745 -1.50914e-18)
(-0.00189772 -0.0522205 5.29657e-20)
(-0.00979654 -0.0433278 -6.02188e-20)
(-0.0179625 -0.0373161 5.60003e-19)
(-0.0185935 -0.0338917 -5.62678e-19)
(-0.0316158 -0.037173 2.48984e-18)
(-0.037105 -0.021955 5.79778e-19)
(-0.0366108 -0.0064354 2.68031e-19)
(-0.0294033 -0.00741323 -3.79735e-19)
(-0.0206862 0.00473351 8.63988e-20)
(-0.015691 0.00441418 2.51925e-19)
(-0.0115778 0.00501978 -8.70618e-20)
(-0.00959348 0.00542864 4.34404e-20)
(-0.00826001 0.00582014 -9.95598e-21)
(-0.00589872 0.00469751 0)
(-0.00353705 0.00407089 0)
(-0.00206192 0.00434673 0)
(-0.000655415 0.00240929 0)
(0.000192114 0.00297844 0)
(0.000365053 0.00152156 0)
(0.000493996 -0.000440533 0)
(0.00776231 0.00313635 0)
(0.0080219 -0.00389319 0)
(0.00811343 0.00132148 0)
(0.00869203 -0.00204637 0)
(0.010266 -0.00215178 0)
(0.0121904 -0.00252783 0)
(0.0141887 -0.00342902 7.37348e-21)
(0.0149045 -0.00291905 -2.85941e-20)
(0.0135564 -0.0029177 1.22683e-19)
(0.0134967 -0.00290443 -1.76349e-20)
(0.0147134 -0.00127541 -2.42484e-19)
(0.015608 -0.00230234 7.64025e-21)
(0.0166263 0.0178601 8.33368e-21)
(0.0229376 0.0106974 2.5196e-19)
(0.0118105 -0.0065905 4.47853e-19)
(0.0312615 -0.00529596 2.4714e-19)
(0.0121174 -0.0141055 -4.87041e-19)
(0.0232038 -0.0174091 -1.37013e-18)
(0.0259546 -0.0516436 -3.527e-19)
(0.01601 -0.0624434 2.30496e-18)
(-0.00222465 -0.0731149 3.67394e-19)
(-0.0192622 -0.0652138 5.64942e-19)
(-0.0285529 -0.0506174 -5.48941e-19)
(-0.0352881 -0.0433251 -4.84416e-19)
(-0.0476333 -0.025462 4.62725e-19)
(-0.0347555 -0.0139119 3.703e-19)
(-0.0299448 -0.000220593 1.2408e-19)
(-0.0235411 -0.00401221 8.84053e-22)
(-0.0168096 0.0144947 1.03222e-19)
(-0.0100653 0.0129262 -5.54456e-20)
(-0.00574285 0.0137593 -1.24604e-19)
(-0.00390134 0.0116288 5.96253e-20)
(-0.0038867 0.00987649 4.97304e-21)
(-0.00304513 0.00831311 -2.66072e-21)
(-0.00163442 0.00572237 0)
(-0.000563335 0.00413721 0)
(0.000101041 0.00315082 0)
(0.0012105 -0.000418118 0)
(0.00230898 0.00247074 0)
(0.00269582 -0.00103079 0)
(0.00751244 -0.00572771 0)
(0.00849192 0.00285472 0)
(0.00947778 -0.000804935 0)
(0.0116448 -0.00155655 0)
(0.0131138 0.000413207 0)
(0.0150419 -0.000245182 0)
(0.0173939 0.000830279 1.17044e-20)
(0.0185264 0.00108202 -2.01941e-20)
(0.0186123 0.00239241 -5.40346e-20)
(0.0217858 0.00427734 7.20606e-20)
(0.027895 0.00161288 -1.77247e-19)
(0.03225 2.01155e-05 2.32658e-19)
(0.0301671 0.0188184 -1.04072e-19)
(0.0251619 0.00909626 2.48069e-19)
(0.0285593 -0.00698891 8.08978e-21)
(0.0406832 0.0186812 2.70385e-19)
(0.0468646 -0.0125757 2.98422e-19)
(0.0591627 -0.0258735 2.97636e-19)
(0.051804 -0.0522416 -7.15677e-19)
(0.0376649 -0.0891054 -2.74466e-20)
(-0.00621729 -0.102716 4.65361e-20)
(-0.0422962 -0.084954 9.3631e-20)
(-0.0584409 -0.0563096 -5.68845e-20)
(-0.0484585 -0.0316968 5.48568e-19)
(-0.0447314 -0.0136314 -2.46912e-19)
(-0.0413786 -0.0181883 -9.26125e-19)
(-0.0361139 0.0163696 9.57629e-20)
(-0.0145928 -0.00157293 2.89809e-20)
(-0.00519744 0.0145127 7.10751e-20)
(0.00109469 0.0189782 -7.20448e-20)
(0.00305946 0.018695 -2.68433e-20)
(0.00373847 0.0158884 5.80051e-20)
(0.00282702 0.0134072 -4.74121e-20)
(0.00199044 0.0114477 1.99512e-20)
(0.00337406 0.0101276 0)
(0.00474375 0.00797206 0)
(0.00586427 0.00819549 0)
(0.00536407 0.0059856 0)
(0.00485343 0.00157417 0)
(0.00435217 0.00360407 0)
(0.00701434 0.00116463 0)
(0.00567213 0.00209048 0)
(0.00766539 -0.00142281 0)
(0.00819659 0.00465097 0)
(0.0106257 0.00446124 0)
(0.0138484 0.00534594 0)
(0.0165288 0.0079776 -2.32664e-21)
(0.0180201 0.00931874 -7.43517e-22)
(0.0223422 0.00797417 6.999e-21)
(0.0278682 0.00954341 -3.14107e-20)
(0.0349036 0.00996851 7.80368e-20)
(0.0472051 0.000118179 -7.93158e-20)
(0.0545192 -0.00687767 1.12565e-20)
(0.0309649 0.0050723 4.35767e-20)
(0.0589738 0.00824823 -6.75793e-20)
(0.036813 0.0032782 -3.06124e-20)
(0.0484096 0.00906495 -2.15648e-20)
(0.0879318 -0.00881445 2.07482e-20)
(0.121409 -0.0465761 8.15835e-20)
(0.109969 -0.138908 -3.57792e-19)
(-0.00678582 -0.203651 2.83485e-18)
(-0.118402 -0.128404 -7.11384e-19)
(-0.108585 -0.037749 2.08525e-20)
(-0.0821174 -0.00290003 2.54953e-20)
(-0.0594747 -0.00414849 1.50174e-20)
(-0.0315734 0.00505876 -4.88355e-20)
(-0.0174098 0.0108633 1.62547e-19)
(-0.00567968 0.0218466 -5.78651e-20)
(0.00475685 0.0199039 -9.09346e-21)
(0.00645829 0.0153121 6.97325e-20)
(0.00812844 0.0156057 -4.67131e-21)
(0.0106855 0.0165459 -5.92206e-21)
(0.00937244 0.014338 3.05677e-21)
(0.00546769 0.00996071 1.64344e-21)
(0.00486359 0.00716328 0)
(0.00562462 0.00586835 0)
(0.00595889 0.0036589 0)
(0.00682724 0.0062152 0)
(0.00629895 0.00185917 0)
(0.00714181 0.00149532 0)
(0.00555914 0.00875527 0)
(0.00801121 -0.00152056 0)
(0.0059603 0.00799976 0)
(0.0058777 0.00743516 0)
(0.00813009 0.00715981 0)
(0.0111687 0.00937041 0)
(0.0137844 0.0118507 5.91545e-22)
(0.0157595 0.0137259 1.2994e-22)
(0.0232838 0.0129574 2.48321e-21)
(0.0340415 0.0101495 5.2176e-21)
(0.0390596 0.0148111 5.66701e-22)
(0.0508575 0.00665055 -1.52012e-20)
(0.0524974 0.00110667 -3.13235e-21)
(0.0666622 0.00792288 -2.60955e-20)
(0.0654942 0.00627066 5.6757e-20)
(0.0691626 0.0187447 7.35149e-20)
(0.0765944 0.0283386 -5.6482e-20)
(0.0947811 0.0479294 2.05808e-20)
(0.131027 0.124225 -1.09581e-18)
(-0.140676 0.104711 -1.76393e-18)
(-0.0755766 0.0573828 3.70141e-21)
(-0.0381256 0.0559932 7.8394e-20)
(-0.0125214 0.0558194 1.05384e-20)
(0.00453149 0.014648 5.18387e-21)
(0.00641324 0.0410826 -1.44086e-20)
(0.00350026 0.023579 1.5914e-20)
(0.00236693 0.0121945 5.73711e-21)
(0.00648608 0.0123299 -8.80095e-21)
(0.0104777 0.0137833 1.41178e-21)
(0.0120473 0.0134538 1.23639e-21)
(0.0100144 0.0110598 5.55014e-22)
(0.00675177 0.00697545 0)
(0.00596765 0.00444974 0)
(0.00611594 0.000376294 0)
(0.00765757 -0.00269085 0)
(0.0102386 0.000625368 0)
(0.0113165 -0.00448222 0)
(-0.0029475 -0.00658985 0)
(-0.00101774 0.00393951 0)
(0.00105503 0.00589193 0)
(0.00484772 0.00535316 0)
(0.0054661 0.0096388 0)
(0.00629903 0.0127499 0)
(0.00626587 0.0162914 -6.75875e-22)
(0.0101211 0.0175567 3.76812e-22)
(0.013832 0.0207849 -7.94928e-21)
(0.0207822 0.0170851 9.82145e-21)
(0.0194476 0.0200763 -4.78369e-20)
(0.023558 0.0156494 1.19542e-19)
(0.0263023 0.0103601 -3.77326e-20)
(0.0344242 0.0129572 -8.97528e-20)
(0.0312028 0.00539858 3.1659e-20)
(0.0296577 0.0168173 1.96648e-19)
(0.0247496 0.0416926 5.67838e-20)
(0.00101274 0.0885552 3.52003e-20)
(-0.0299669 0.208146 1.90366e-17)
(0.0639434 0.207651 4.78697e-18)
(-0.0113996 0.07782 -1.10166e-20)
(-0.0265852 0.0460832 1.4924e-20)
(-0.0305924 0.0527469 -4.63893e-20)
(-0.017211 0.0326472 -1.18273e-19)
(-0.0184386 0.0498283 7.05125e-20)
(-0.0091748 0.0273346 7.28147e-21)
(-0.00208636 0.0151449 -4.47844e-20)
(-0.000177718 0.0142837 1.48564e-20)
(0.003315 0.0125702 8.76639e-21)
(0.00858659 0.0110188 -4.54064e-21)
(0.0113649 0.0111148 -3.08589e-21)
(0.0137072 0.00924416 0)
(0.0145449 0.00772268 0)
(0.0140271 0.00778483 0)
(0.0102764 0.00396518 0)
(0.00863073 0.00444135 0)
(0.00496313 0.00110826 0)
(-0.00173092 -0.00834323 -1.4786e-23)
(-0.00472332 0.000903231 0)
(-0.00378877 -0.00284469 0)
(-0.00401398 0.00261022 0)
(-0.00400368 0.00821809 0)
(-0.00418439 0.0124568 0)
(-0.00414843 0.0167698 1.0991e-21)
(-0.00223512 0.0177269 1.31299e-20)
(-0.000392334 0.0237511 -3.16058e-20)
(0.00315377 0.0245865 9.63491e-21)
(0.00512594 0.0315222 -1.07445e-19)
(-0.00181425 0.0247327 7.62834e-20)
(0.00272974 0.018911 1.5062e-19)
(0.0192853 0.0152694 -1.02299e-19)
(0.0225266 0.015115 3.74225e-19)
(0.0155884 0.017264 1.03006e-18)
(-0.00130124 0.0207438 5.05413e-19)
(-0.164168 0.0608577 1.02433e-19)
(-0.0828251 0.0325678 -8.52129e-19)
(0.179788 0.0507033 1.95824e-19)
(0.078418 0.0339125 -3.33336e-19)
(-0.0268143 0.023938 4.77554e-19)
(-0.0433552 0.0461457 2.77184e-19)
(-0.0414291 0.055722 -5.20689e-19)
(-0.0268108 0.0577992 6.17389e-20)
(-0.0202442 0.043924 -2.45653e-19)
(-0.014336 0.0350662 -2.05004e-19)
(-0.0048252 0.0238251 8.99514e-20)
(0.00036944 0.0165687 1.00061e-20)
(0.00313178 0.0129442 -2.82314e-21)
(0.00598067 0.0102927 -3.99244e-21)
(0.0066772 0.0100283 0)
(0.00749804 0.00942815 0)
(0.00697688 0.0100789 0)
(0.00709855 0.00995421 0)
(0.00666816 0.00484448 0)
(0.00924697 0.0122058 0)
(0.000967103 0.0150573 -4.92954e-25)
(-0.00444798 0.00934086 0)
(-0.00603502 0.0107479 0)
(-0.0094852 0.0127427 0)
(-0.0116716 0.0130107 0)
(-0.0117082 0.0155439 0)
(-0.00947588 0.0163875 -1.08491e-21)
(-0.00694728 0.0169183 1.25489e-20)
(-0.00699671 0.0218827 -2.61376e-20)
(-0.0104615 0.0207462 -3.55744e-20)
(-0.0164832 0.0171949 -1.52069e-19)
(-0.0131255 0.0213482 -2.64162e-19)
(0.00473818 0.0216066 2.57931e-19)
(0.0141933 0.0482371 2.73375e-19)
(0.0411901 0.0317278 9.54909e-19)
(0.0470436 0.035607 5.48621e-19)
(0.0324811 -0.0138247 3.01742e-19)
(-0.241766 -0.0386353 6.95863e-19)
(0.772829 -0.512098 4.90004e-19)
(-0.313736 -0.582391 -3.48948e-19)
(0.0536052 -0.521708 2.07894e-21)
(-0.155373 -0.540295 3.62392e-20)
(-0.240422 -0.255716 -6.6303e-19)
(0.174705 -0.0280727 1.59371e-19)
(-0.0794387 0.0114465 -5.23395e-19)
(-0.0709952 0.0565504 -3.38757e-19)
(-0.046158 0.0604602 1.50352e-19)
(-0.0222902 0.0779539 -4.19209e-19)
(-0.0161436 0.0618235 1.46472e-19)
(-0.00477516 0.041781 -3.47873e-20)
(0.00015878 0.031861 -2.21816e-20)
(0.00203313 0.0271281 3.87769e-20)
(0.00463158 0.0176127 -2.48208e-20)
(0.00617296 0.0121799 -2.87965e-21)
(0.00587614 0.00629442 0)
(0.00518577 0.00252626 0)
(0.00465916 -0.00103423 0)
(0.00599152 -0.00114841 0)
(0.00685006 -0.00580731 0)
(0.00892311 -0.0112815 0)
(-0.0151051 -0.00101168 4.9391e-21)
(-0.0106777 -0.00356791 0)
(-0.00943082 0.00137447 0)
(-0.0105412 0.00337149 0)
(-0.0139048 0.00584429 0)
(-0.0148171 0.00743393 0)
(-0.0136121 0.0128522 7.39287e-23)
(-0.0152514 0.0111773 5.20341e-21)
(-0.0240123 0.0202082 -1.19938e-20)
(-0.0386144 0.0198043 -1.41918e-20)
(-0.0300895 0.0179404 1.4088e-19)
(-0.0338633 0.0384558 -2.45855e-19)
(-0.0326497 0.0656566 1.54077e-19)
(-2.04298e-05 0.0661774 4.51675e-19)
(0.0114386 0.0865918 3.43913e-19)
(0.0907956 0.116293 1.12662e-18)
(0.174809 0.058107 1.21855e-19)
(0.170647 -0.258764 -8.09436e-18)
(0.572765 -0.330436 -1.10184e-18)
(-0.137793 -0.114616 5.99405e-18)
(0.263074 -0.0491075 -6.56314e-19)
(0.0883694 -0.250634 -1.67832e-18)
(-0.980052 -0.230076 4.14117e-18)
(0.058091 0.0232946 -2.395e-18)
(-0.164513 0.0731375 -1.3155e-18)
(-0.073664 0.0987445 1.38197e-18)
(-0.0448408 0.0995529 7.92197e-19)
(0.0124865 0.0932527 -6.0421e-19)
(0.0243653 0.0731472 7.84308e-20)
(0.0198361 0.0530171 -2.64081e-19)
(0.0248637 0.0385143 5.82825e-20)
(0.0137807 0.0253331 -3.2364e-20)
(0.0115885 0.0173134 7.25956e-21)
(0.0140208 0.0156869 1.5027e-22)
(0.0179595 0.0141256 0)
(0.0151265 0.00943795 0)
(0.0141528 0.00732087 0)
(0.0136174 0.00683235 0)
(0.0110143 0.00701181 0)
(0.00754457 0.00255137 4.73938e-21)
(-0.00603318 -0.000681973 4.93345e-21)
(-0.00694248 -0.000420268 0)
(-0.00796194 0.000158346 0)
(-0.00917776 0.000108078 0)
(-0.0112727 0.00103129 0)
(-0.0179965 0.00147404 0)
(-0.0242767 0.00553665 0)
(-0.0284425 0.00804884 -2.36912e-21)
(-0.0267598 0.0110773 -8.31265e-21)
(-0.0436817 0.02009 -8.35422e-20)
(-0.0452412 0.0361717 2.44901e-19)
(-0.0637987 0.0585869 -1.02432e-19)
(-0.0626601 0.0836665 -2.11454e-19)
(-0.054363 0.0858572 2.14063e-19)
(-0.0319557 0.12582 2.42086e-19)
(0.0372345 0.245864 -3.69144e-19)
(0.409218 0.225315 5.1743e-21)
(0.938296 -0.190224 -8.37629e-18)
(-0.567089 0.472253 8.48568e-19)
(-0.59494 0.82043 1.87332e-19)
(0.764344 0.101374 3.94509e-18)
(-0.126112 0.0631502 -2.10306e-18)
(-0.684062 0.108203 1.66825e-18)
(-0.367185 0.348237 -1.36809e-17)
(-0.103448 0.269192 3.15437e-20)
(-0.00689095 0.213436 1.53769e-19)
(0.0683595 0.132724 -2.45564e-19)
(0.0504063 0.0836857 -1.83786e-19)
(0.0591639 0.0587782 2.07651e-19)
(0.0470414 0.0346816 -1.8463e-19)
(0.0426212 0.0300214 5.51321e-20)
(0.0264947 0.0160158 3.45444e-20)
(0.0282801 0.0179647 4.3409e-21)
(0.0226287 0.0131499 0)
(0.0263878 0.0124801 0)
(0.0250603 0.010185 0)
(0.0236133 0.00881885 0)
(0.023155 0.00581835 0)
(0.0198031 0.00469624 0)
(0.0200366 0.00323124 -1.20265e-20)
(-0.0101248 -0.00205541 1.83995e-21)
(-0.0132819 -7.70009e-05 0)
(-0.0153733 0.000418462 0)
(-0.0149368 -0.00102043 0)
(-0.0148223 -0.00270912 0)
(-0.0188225 -0.00477358 0)
(-0.023305 -0.00901318 0)
(-0.0297229 -0.00526665 0)
(-0.0338831 -0.00279973 -5.71679e-21)
(-0.0416947 0.0109819 -1.48149e-20)
(-0.0529136 0.0224974 1.10751e-20)
(-0.0793097 0.0385742 -6.65356e-20)
(-0.108734 0.0597819 -1.76105e-19)
(-0.167035 0.0937474 2.11355e-19)
(-0.142118 0.172148 1.33085e-19)
(-0.129343 0.33461 -1.19901e-18)
(0.713474 0.384032 6.21373e-20)
(0.113979 0.837721 1.42314e-18)
(-0.606956 0.986332 -1.07998e-18)
(0.693934 0.425125 3.04976e-18)
(0.0689479 0.383452 -1.57005e-18)
(0.146852 0.511028 2.94556e-18)
(-0.747987 0.635169 1.17253e-18)
(-0.25027 0.634414 -5.73477e-18)
(0.140902 0.452367 6.12735e-19)
(0.165262 0.212697 2.68461e-19)
(0.14734 0.108599 -8.87088e-20)
(0.119909 0.0617574 -3.9344e-20)
(0.0832852 0.0336676 -2.08057e-20)
(0.0559578 0.0190929 -4.87656e-20)
(0.0331488 0.0196763 1.53309e-20)
(0.0230265 0.0122438 -9.76297e-23)
(0.0170212 0.00722362 0)
(0.0171488 0.00171365 0)
(0.0184479 0.00515037 0)
(0.0164571 0.00356298 0)
(0.012678 0.0037881 2.9676e-20)
(0.00995453 0.00116893 4.104e-20)
(0.0115846 0.0019287 2.44725e-20)
(0.0156376 0.00196085 0)
(-0.00509488 -0.00227063 0)
(-0.0060431 -0.000979705 0)
(-0.00874186 -0.00337933 0)
(-0.0101461 -0.00680144 0)
(-0.0101369 -0.00908803 0)
(-0.0124557 -0.0106007 0)
(-0.0159959 -0.0134776 0)
(-0.0219296 -0.00957831 0)
(-0.028343 -0.0138898 -1.29371e-23)
(-0.0346365 -0.0119703 5.30736e-21)
(-0.0599968 -0.0125603 -6.37554e-21)
(-0.0795318 -0.015167 1.2989e-19)
(-0.130714 -0.0183752 4.40049e-20)
(-0.223674 0.00176658 -7.10914e-20)
(-0.272943 0.0798672 3.84375e-18)
(-0.403636 0.190529 4.041e-19)
(0.209586 0.682494 3.76811e-19)
(0.161203 1.0301 -5.17838e-19)
(-0.14293 0.446924 1.71488e-18)
(0.399895 0.0984717 -5.41067e-18)
(0.26246 0.866762 2.50488e-18)
(-0.646632 1.54104 3.23302e-18)
(-0.612918 0.868531 3.93179e-19)
(0.128504 0.685684 -4.00054e-19)
(0.251864 0.359805 2.97007e-19)
(0.348364 0.178172 -3.76638e-19)
(0.237539 0.012998 8.31606e-20)
(0.159765 0.0105815 -5.06248e-20)
(0.100479 -0.00712587 8.57187e-20)
(0.0647217 0.00044566 3.15443e-21)
(0.0412474 0.00405029 -8.88256e-22)
(0.0343863 0.00190066 -1.74674e-23)
(0.0219162 -0.000472383 0)
(0.0225175 -0.00273677 0)
(0.0162928 -0.000697289 0)
(0.0140354 -0.000489212 0)
(0.0122301 0.00195828 0)
(0.0102264 0.000703265 0)
(0.0131188 -2.9336e-05 0)
(0.0157737 0.000559677 -4.40754e-21)
(-0.0066468 -0.000314093 0)
(-0.00401546 5.02674e-05 0)
(-0.00362606 -0.00243032 0)
(-0.00504491 -0.00450064 0)
(-0.00609795 -0.00658296 0)
(-0.00878012 -0.00809849 0)
(-0.0137627 -0.0120062 0)
(-0.0199794 -0.0132963 0)
(-0.0241662 -0.0197629 0)
(-0.0228058 -0.0367428 0)
(-0.0380693 -0.0482183 6.53465e-23)
(-0.0468544 -0.0880367 -3.96337e-20)
(-0.0908902 -0.120527 -4.82724e-20)
(-0.180073 -0.159884 1.08096e-20)
(-0.3541 -0.184508 1.05042e-17)
(-0.867295 -0.109829 7.23563e-19)
(-0.526483 0.29458 4.95633e-18)
(0.555463 0.124452 2.14866e-18)
(0.0411781 -0.0555881 4.68298e-18)
(0.156987 0.154832 5.0391e-18)
(-0.100857 -0.00103434 2.7391e-18)
(-0.347283 -0.435315 1.98049e-18)
(-0.535964 -0.247844 -1.01903e-18)
(-0.070931 -0.185652 -3.97114e-19)
(0.81847 0.148095 2.52452e-19)
(0.505878 -0.0676266 -2.38661e-19)
(0.235452 -0.18082 4.0749e-20)
(0.128071 -0.0880553 -2.47934e-20)
(0.0650202 -0.0629451 -2.56087e-20)
(0.0491932 -0.0330831 -3.86808e-21)
(0.03273 -0.026655 0)
(0.03394 -0.0148964 0)
(0.0249026 -0.0103428 0)
(0.0209863 -0.00796873 0)
(0.0137922 -0.00631903 0)
(0.0131133 -0.0053907 0)
(0.0143732 -0.00483883 0)
(0.0143846 -0.00521528 0)
(0.0149544 -0.00581518 0)
(0.0126495 -0.00337707 0)
(-0.00482205 -0.00196416 0)
(-0.00426241 -0.00104707 0)
(-0.00485497 -0.000535942 0)
(-0.00624812 0.00144667 0)
(-0.00763805 0.00104416 0)
(-0.00739481 -0.00157706 0)
(-0.0100641 -0.00644505 0)
(-0.00963704 -0.0170822 0)
(-0.00560719 -0.0299417 0)
(0.00841819 -0.0567022 0)
(0.0126303 -0.0824867 0)
(0.0193329 -0.146548 -2.76546e-22)
(0.0207926 -0.217696 -4.52206e-21)
(-0.0606469 -0.364808 1.12271e-20)
(-0.24319 -0.340176 3.395e-18)
(-1.1857 -0.414007 -2.73833e-19)
(-0.132577 -0.586764 2.47143e-18)
(0.897184 -0.629955 1.03127e-18)
(0.345222 -0.647761 1.44692e-18)
(-0.0447303 -0.74607 6.22432e-18)
(-0.281365 -0.837424 1.73507e-18)
(-0.303572 -1.13934 -4.70364e-19)
(-0.508059 -0.837508 2.7155e-18)
(-0.278468 -0.710722 1.91101e-18)
(0.310374 -0.497831 2.65052e-19)
(0.662525 -0.445942 -6.98659e-19)
(0.107612 -0.316988 -3.97163e-19)
(0.0139785 -0.155618 3.05593e-22)
(-0.000482312 -0.107469 2.92352e-22)
(0.00723754 -0.0527356 0)
(0.00599507 -0.0353933 0)
(0.0160365 -0.0158323 0)
(0.0177278 -0.00834781 0)
(0.0161511 -0.00547014 0)
(0.0119694 -0.00508869 0)
(0.0117434 -0.0046599 0)
(0.0128934 -0.00582702 0)
(0.0127992 -0.00505487 0)
(0.0110393 -0.00317656 0)
(0.0088911 -0.00109767 0)
(-0.00455215 0.00266498 0)
(-0.00749173 0.00285193 0)
(-0.00714427 0.00508421 0)
(-0.00643076 0.00681569 0)
(-0.00518113 0.00586546 0)
(-1.01953e-05 0.00313319 0)
(0.00480173 -0.001278 0)
(0.0150525 -0.0135343 0)
(0.0293964 -0.0319554 0)
(0.0517341 -0.0536495 0)
(0.0844736 -0.0885792 -4.00527e-20)
(0.104762 -0.123455 0)
(0.169046 -0.241959 0)
(0.0873866 -0.349829 4.69701e-19)
(-0.272305 -0.446158 6.473e-19)
(-0.70197 -0.678296 5.73494e-18)
(-0.0301539 -0.945149 5.90774e-20)
(-0.0368442 -0.537095 4.57835e-19)
(0.290957 -0.0761139 -1.50002e-18)
(0.342646 -0.0694015 5.72136e-18)
(0.150447 -0.0673588 -1.80109e-18)
(-0.225295 -0.170271 -4.75052e-19)
(-0.752039 -0.159081 -2.08571e-20)
(-0.363814 -0.331445 5.79706e-20)
(0.833944 -1.04167 -1.36463e-19)
(-0.0268532 -0.620376 -1.68804e-18)
(-0.181593 -0.23523 1.85949e-18)
(-0.150542 -0.155651 0)
(-0.0755867 -0.0768936 0)
(-0.0361342 -0.0382623 -1.19528e-20)
(-0.0139382 -0.0224427 0)
(0.00375524 -0.00895032 0)
(0.0161696 -0.00376459 0)
(0.017481 -0.00143169 0)
(0.0159429 -0.00135855 0)
(0.0152124 -0.000822325 0)
(0.0156281 -0.00192615 0)
(0.0154205 -0.00135133 -4.88414e-21)
(0.0123815 0.00032981 -3.50394e-21)
(0.0114148 0.00110052 0)
(-0.00939291 0.00800153 0)
(-0.00982723 0.0059528 0)
(-0.00754022 0.00936871 0)
(-0.0042423 0.00866452 0)
(-0.000841304 0.00805722 0)
(0.00670724 0.00667568 0)
(0.0183903 0.00429909 0)
(0.0350257 0.000424362 0)
(0.0551049 -0.0104861 0)
(0.0785982 -0.0179778 0)
(0.130348 -0.0356344 2.09266e-20)
(0.182726 -0.0462832 0)
(0.27963 -0.113906 0)
(0.316156 -0.212408 -2.59093e-20)
(0.221231 -0.382257 -2.51003e-18)
(-0.0147556 -0.772411 3.3643e-19)
(-0.159101 -0.840182 0)
(-0.136448 -0.455718 5.82416e-19)
(-0.105125 -0.163296 6.04614e-18)
(-0.208105 0.144938 6.2417e-18)
(-0.210413 0.189072 1.15874e-18)
(-0.0370716 -0.0584134 -8.72445e-19)
(0.241565 -0.146695 -3.64077e-19)
(0.746698 -0.307187 0)
(0.688633 -0.27919 -4.81959e-19)
(-0.458799 0.0238553 -1.4904e-19)
(-0.520843 0.119536 8.09863e-20)
(-0.258248 0.0401615 0)
(-0.110145 0.0400343 0)
(-0.0568182 0.011899 1.09385e-20)
(-0.020364 0.00138753 0)
(-0.000280905 -0.00218015 0)
(0.0135341 -0.00334888 0)
(0.0164626 -0.000873791 0)
(0.0172929 -0.00197321 0)
(0.0165071 -0.00176301 8.83609e-21)
(0.0155051 -0.00173631 -1.14824e-20)
(0.0149471 -0.000792702 0)
(0.0127413 0.00111017 0)
(0.0119624 -0.000247971 -2.69832e-20)
(-0.0209342 0.000910887 0)
(-0.0134299 0.00226332 0)
(-0.00860748 0.00270176 0)
(-0.00493526 0.00120946 0)
(-0.00158285 0.00223846 0)
(0.00424036 0.00417571 0)
(0.0169316 0.00721345 -4.34478e-21)
(0.0340812 0.0158788 0)