/*--------------------------------*- C++ -*----------------------------------*\
| =========                 |                                                 |
| \\      /  F ield         | OpenFOAM: The Open Source CFD Toolbox           |
|  \\    /   O peration     | Version:  v2106                                 |
|   \\  /    A nd           | Website:  www.openfoam.com                      |
|    \\/     M anipulation  |                                                 |
\*---------------------------------------------------------------------------*/
FoamFile
{
    version     2.0;
    format      ascii;
    arch        "LSB;label=32;scalar=64";
    class       volVectorField;
    location    "0";
    object      U;
}
// * * * * * * * * * * * * * * * * * * * * * * * * * * * * * * * * * * * * * //

dimensions      [0 1 -1 0 0 0 0];

internalField   nonuniform List<vector> 
11644
(
(0.997085 -0.000225251 -1.33851e-23)
(0.996981 -0.000599136 -3.69121e-23)
(0.996915 -0.000891448 -1.98043e-23)
(0.996898 -0.00119028 0)
(0.996894 -0.0015093 0)
(0.996893 -0.0018445 0)
(0.996893 -0.00219299 0)
(0.996895 -0.0025485 0)
(0.996893 -0.0029041 0)
(0.996902 -0.00323896 0)
(0.996879 -0.00355054 0)
(0.996854 -0.00380711 0)
(0.996929 -0.0039692 0)
(0.997085 -0.0040497 0)
(0.996899 -0.00399613 0)
(0.996908 -0.0038379 0)
(0.997025 -0.00365086 0)
(0.997002 -0.00337881 0)
(0.9967 -0.002782 0)
(0.99637 -0.00179772 3.31661e-30)
(0.996265 -0.000663443 -3.3035e-30)
(0.996396 0.000397667 0)
(0.996638 0.00121563 0)
(0.996819 0.00183218 0)
(0.996824 0.00230546 0)
(0.996825 0.00267001 0)
(0.996996 0.00293508 0)
(0.996838 0.00305175 0)
(0.996831 0.0030607 0)
(0.996864 0.00296634 0)
(0.996858 0.00280036 0)
(0.996871 0.00257378 0)
(0.996874 0.00231133 0)
(0.996878 0.0020243 0)
(0.996881 0.00172631 0)
(0.996885 0.00142707 0)
(0.996891 0.00113728 0)
(0.996908 0.000860306 0)
(0.996971 0.000590195 0)
(0.997083 0.000226303 -2.59523e-24)
(0.997852 -0.000447324 -1.7193e-23)
(0.997788 -0.00135746 -1.59263e-23)
(0.997751 -0.00228243 -8.5535e-24)
(0.997761 -0.00321411 0)
(0.997799 -0.00416588 0)
(0.997845 -0.00514917 0)
(0.997888 -0.00616117 0)
(0.99792 -0.00719048 0)
(0.997933 -0.00821242 0)
(0.997894 -0.00919905 0)
(0.997839 -0.0100789 0)
(0.997732 -0.0108072 0)
(0.997423 -0.0113221 0)
(0.996907 -0.0115117 0)
(0.99674 -0.0113397 0)
(0.996384 -0.0108264 2.17504e-24)
(0.995844 -0.0097554 -1.64454e-23)
(0.99504 -0.00796319 -5.907e-23)
(0.994287 -0.00554427 5.40738e-23)
(0.993944 -0.00294884 5.85817e-22)
(0.993971 -0.000402918 -4.54709e-22)
(0.994259 0.00202251 -9.7343e-23)
(0.994671 0.0042587 -2.397e-23)
(0.995075 0.00622073 2.23468e-23)
(0.995576 0.0078174 -6.2691e-24)
(0.996071 0.00892908 0)
(0.996257 0.00960101 0)
(0.996872 0.00981562 0)
(0.997197 0.00968013 0)
(0.997388 0.00927316 0)
(0.997553 0.00863855 0)
(0.99764 0.00786375 0)
(0.997697 0.00699342 0)
(0.997719 0.0060734 0)
(0.99772 0.00513507 0)
(0.997709 0.00419934 0)
(0.997695 0.00327309 0)
(0.997707 0.00234725 0)
(0.99777 0.00140668 0)
(0.997856 0.00046602 0)
(0.999359 -0.000687668 0)
(0.999334 -0.00210502 0)
(0.999353 -0.00357815 0)
(0.999425 -0.00508595 0)
(0.999534 -0.00662879 -1.57055e-23)
(0.999659 -0.00821954 0)
(0.999775 -0.00985837 0)
(0.999858 -0.0115282 0)
(0.999869 -0.0131977 0)
(0.999787 -0.0148014 0)
(0.999535 -0.0162765 0)
(0.999026 -0.0175149 0)
(0.998361 -0.0183291 3.5598e-24)
(0.997628 -0.0186452 -7.84734e-23)
(0.996251 -0.0182539 3.59291e-22)
(0.994769 -0.0170148 8.29433e-22)
(0.992963 -0.0146848 -1.23438e-21)
(0.991085 -0.0112366 -1.38959e-22)
(0.989795 -0.00719147 5.61364e-22)
(0.989209 -0.00281746 -3.15695e-21)
(0.989233 0.00167497 3.55234e-21)
(0.989789 0.00604535 -1.08135e-21)
(0.9908 0.0100317 2.4399e-22)
(0.992172 0.013384 -5.68292e-22)
(0.993536 0.0158406 1.00339e-21)
(0.994859 0.0174322 -4.19422e-22)
(0.996526 0.0181915 1.27213e-22)
(0.997287 0.0182537 -4.69769e-24)
(0.99808 0.0176951 0)
(0.998719 0.016649 0)
(0.999126 0.0152969 0)
(0.999367 0.0137468 0)
(0.999471 0.012101 0)
(0.999493 0.0104158 0)
(0.999467 0.00873592 0)
(0.999418 0.00708261 0)
(0.999372 0.005457 0)
(0.999354 0.00385194 0)
(0.999382 0.00226561 0)
(0.999437 0.000736092 0)
(1.00159 -0.00093076 0)
(1.00159 -0.00282298 0)
(1.00167 -0.00479139 0)
(1.00182 -0.00681012 0)
(1.00202 -0.00890099 0)
(1.00225 -0.0110663 0)
(1.00247 -0.0133094 0)
(1.00262 -0.015615 0)
(1.00266 -0.0179438 0)
(1.00248 -0.0202354 0)
(1.00198 -0.02238 -1.20409e-24)
(1.00116 -0.0241973 1.62767e-22)
(0.999746 -0.0255421 -2.922e-22)
(0.997478 -0.02611 -6.46695e-22)
(0.99515 -0.0254648 6.44077e-22)
(0.9919 -0.023409 8.4572e-22)
(0.988134 -0.0196871 5.29493e-23)
(0.984697 -0.0146532 8.17591e-23)
(0.982298 -0.00844833 -1.30385e-21)
(0.981079 -0.00146869 4.60144e-21)
(0.981014 0.00576933 -4.2299e-21)
(0.982008 0.0126329 -7.91307e-22)
(0.984116 0.0187062 1.59613e-21)
(0.98704 0.0235103 3.70483e-22)
(0.99027 0.0268737 -1.06256e-21)
(0.993513 0.0287672 -8.26127e-22)
(0.995737 0.0294252 6.22114e-22)
(0.998463 0.0286458 1.98581e-22)
(1.00018 0.0271586 -3.26305e-23)
(1.00126 0.0251301 2.32932e-24)
(1.00192 0.0227341 0)
(1.00226 0.0201605 0)
(1.00238 0.0175354 0)
(1.00234 0.0149436 0)
(1.00224 0.0124225 0)
(1.0021 0.00999082 0)
(1.00197 0.0076454 0)
(1.00188 0.00537682 0)
(1.00185 0.00317372 0)
(1.00187 0.00104884 0)
(1.00446 -0.00115044 0)
(1.0045 -0.00351092 0)
(1.00465 -0.00590903 0)
(1.0049 -0.00840013 0)
(1.00523 -0.0109909 0)
(1.0056 -0.0137076 0)
(1.00595 -0.0165536 0)
(1.00622 -0.0195225 0)
(1.00631 -0.0225843 0)
(1.00607 -0.0256905 1.84445e-23)
(1.00543 -0.0287039 -2.33698e-23)
(1.00406 -0.0315097 -3.83071e-22)
(1.00179 -0.0336913 -1.15085e-22)
(0.998756 -0.034768 8.56547e-22)
(0.993554 -0.034349 1.17421e-21)
(0.987774 -0.0317471 -3.09238e-21)
(0.981813 -0.0272219 1.55763e-22)
(0.975333 -0.0202698 1.73871e-21)
(0.970538 -0.0108565 -4.90981e-22)
(0.967987 0.000461671 4.3476e-21)
(0.968199 0.0123704 -5.83678e-21)
(0.971097 0.02332 -2.18257e-21)
(0.975794 0.0321152 2.45917e-21)
(0.981533 0.0380872 -6.26556e-22)
(0.987167 0.0417983 4.1636e-21)
(0.992656 0.0434909 -1.96029e-21)
(0.99813 0.0428207 -1.36533e-21)
(1.00097 0.041159 3.79912e-22)
(1.00352 0.0382429 8.4607e-22)
(1.00526 0.034637 -4.91965e-23)
(1.00622 0.0307812 -1.20851e-23)
(1.00658 0.0268922 0)
(1.00659 0.023104 0)
(1.0064 0.0194786 0)
(1.0061 0.0160469 0)
(1.00579 0.0128056 0)
(1.0055 0.0097434 0)
(1.00528 0.00682992 0)
(1.00515 0.00402762 0)
(1.00512 0.00131806 0)
(1.00788 -0.00137772 0)
(1.00797 -0.00412529 0)
(1.00821 -0.00696733 0)
(1.0086 -0.00988559 0)
(1.00909 -0.0129411 0)
(1.00966 -0.0161777 0)
(1.01022 -0.0196193 0)
(1.0107 -0.0232802 0)
(1.01097 -0.0271798 1.11004e-23)
(1.01091 -0.0312693 3.17323e-22)
(1.01021 -0.0355145 -7.91772e-23)
(1.0085 -0.0396489 -3.58467e-22)
(1.0053 -0.0433028 -1.32043e-22)
(0.999375 -0.0462771 1.93759e-21)
(0.992539 -0.0464967 1.24205e-21)
(0.982975 -0.0440876 -2.97702e-21)
(0.971639 -0.0391292 1.75164e-21)
(0.960893 -0.0298198 -4.09962e-22)
(0.952034 -0.0153881 -2.13843e-21)
(0.947419 0.00170016 -2.25702e-22)
(0.947866 0.0195993 2.41809e-21)
(0.953439 0.036441 -6.20365e-21)
(0.962666 0.0502171 7.14797e-21)
(0.973987 0.0584373 -2.69381e-21)
(0.984524 0.0615392 3.79367e-21)
(0.993857 0.0622325 -1.71277e-21)
(1.00021 0.0605656 -1.60241e-21)
(1.00641 0.0553093 -4.56077e-22)
(1.00961 0.0500641 7.7658e-22)
(1.01144 0.0445574 -4.45811e-22)
(1.01239 0.0389437 4.65051e-23)
(1.0126 0.0335094 -4.87993e-24)
(1.0123 0.0284029 0)
(1.01175 0.0236763 0)
(1.01111 0.0193217 0)
(1.01048 0.0153068 0)
(1.00992 0.0115877 0)
(1.00948 0.00810412 0)
(1.0092 0.00479895 0)
(1.00909 0.00158706 0)
(1.0118 -0.00152241 0)
(1.01195 -0.00463713 0)
(1.01231 -0.00781718 0)
(1.01287 -0.0111213 0)
(1.01359 -0.0146264 0)
(1.01443 -0.0183643 0)
(1.01533 -0.022395 0)
(1.01617 -0.0267846 4.28993e-24)
(1.0169 -0.0316169 6.16736e-23)
(1.01722 -0.036978 -1.2771e-23)
(1.01665 -0.0427704 -7.8969e-22)
(1.01471 -0.0488474 9.51259e-22)
(1.01076 -0.055197 3.12822e-22)
(1.00532 -0.0599421 -6.03428e-22)
(0.993724 -0.0647019 2.31163e-21)
(0.979578 -0.0647368 -2.72621e-21)
(0.96838 -0.0541938 -7.79058e-22)
(0.952378 -0.0445466 -2.82796e-22)
(0.937239 -0.0272566 -3.02447e-21)
(0.927705 -0.00348229 4.51675e-21)
(0.926809 0.0229536 8.32378e-21)
(0.934529 0.0469918 3.8162e-21)
(0.947802 0.0654461 2.50613e-21)
(0.963857 0.0762307 -3.39176e-21)
(0.983847 0.0893441 3.27048e-21)
(0.998368 0.0867203 -3.33127e-21)
(1.01045 0.0787211 7.59934e-22)
(1.01504 0.0716087 -7.86115e-22)
(1.01877 0.0626179 1.00713e-21)
(1.02045 0.054094 -1.31517e-21)
(1.02083 0.0463797 5.43907e-22)
(1.02045 0.039345 8.06754e-23)
(1.01957 0.0329337 3.29774e-24)
(1.01839 0.0271447 0)
(1.01718 0.0219561 0)
(1.01606 0.0172864 0)
(1.0151 0.0130279 0)
(1.01435 0.00909509 0)
(1.01385 0.00534845 0)
(1.01363 0.00178211 0)
(1.01612 -0.00169526 0)
(1.01634 -0.00508931 0)
(1.01685 -0.00855525 0)
(1.01763 -0.0121931 0)
(1.01865 -0.0160451 0)
(1.01987 -0.0202145 0)
(1.02123 -0.0247885 0)
(1.0227 -0.0299085 -1.14092e-22)
(1.02417 -0.0357326 2.33857e-22)
(1.02515 -0.0423721 -3.52528e-22)
(1.02523 -0.0498144 6.06337e-22)
(1.02401 -0.0579825 -1.98083e-21)
(1.02115 -0.0665372 2.18352e-21)
(1.01099 -0.0743856 2.25775e-22)
(1.00232 -0.0785959 8.96622e-22)
(0.986505 -0.0842331 1.03492e-21)
(0.961224 -0.0850462 -6.16123e-22)
(0.933614 -0.0750534 4.82719e-21)
(0.90445 -0.0526238 4.44046e-21)
(0.883842 -0.015496 -2.60876e-21)
(0.880436 0.0294539 -5.60314e-21)
(0.895661 0.0704736 -3.31765e-21)
(0.922765 0.0989401 -6.03473e-22)
(0.953478 0.11224 9.49052e-21)
(0.980804 0.115585 -4.02958e-21)
(1.00226 0.108154 1.37656e-21)
(1.01584 0.0974148 2.10922e-21)
(1.02987 0.0863281 -1.30564e-21)
(1.03244 0.0738906 1.99325e-21)
(1.03278 0.0623918 -5.55154e-22)
(1.03179 0.0522363 -1.58407e-22)
(1.03016 0.043557 2.35126e-22)
(1.02826 0.0360394 3.85219e-23)
(1.02617 0.0294189 0)
(1.02412 0.0235856 0)
(1.02231 0.018424 0)
(1.02081 0.0137942 0)
(1.01966 0.00956279 0)
(1.0189 0.00563861 0)
(1.01854 0.00181889 0)
(1.02075 -0.00173918 0)
(1.02105 -0.00533307 0)
(1.02174 -0.0090417 0)
(1.02279 -0.0129281 0)
(1.02419 -0.017078 0)
(1.0259 -0.0216088 0)
(1.02791 -0.0266398 -6.50622e-24)
(1.03027 -0.0323708 1.1321e-23)
(1.03267 -0.0390164 1.02199e-22)
(1.03471 -0.0466123 9.30102e-23)
(1.03618 -0.0553726 -9.67624e-23)
(1.03673 -0.065933 1.50154e-23)
(1.03536 -0.0803291 3.72388e-23)
(1.02518 -0.0922922 -1.77442e-21)
(1.0154 -0.1038 8.28993e-22)
(0.996701 -0.119684 -1.76764e-22)
(0.967691 -0.125017 2.307e-21)
(0.922134 -0.125418 -4.96464e-21)
(0.868434 -0.101681 3.41869e-21)
(0.82202 -0.046539 1.95666e-21)
(0.808572 0.0320771 1.79582e-21)
(0.83591 0.103578 -1.08061e-20)
(0.887282 0.146844 -6.27393e-21)
(0.94189 0.161767 -3.21862e-21)
(0.985531 0.155273 -3.20965e-21)
(1.01931 0.141825 6.37811e-22)
(1.03469 0.122195 -1.41578e-21)
(1.05051 0.102071 -1.76535e-22)
(1.05092 0.0832811 1.17032e-21)
(1.0487 0.0681932 -5.97163e-22)
(1.0453 0.0557003 -1.189e-22)
(1.04159 0.0455062 1.7098e-22)
(1.03804 0.0371251 -2.69367e-22)
(1.03473 0.0300294 2.58646e-24)
(1.03162 0.0239013 0)
(1.02895 0.0185749 0)
(1.02679 0.0138759 0)
(1.02516 0.00960376 0)
(1.02409 0.00566294 0)
(1.02357 0.0019016 0)
(1.02559 -0.00189835 0)
(1.02599 -0.00552936 0)
(1.02688 -0.00932207 0)
(1.02825 -0.0132827 0)
(1.03009 -0.0175879 0)
(1.0324 -0.0223048 0)
(1.03523 -0.027612 1.74121e-24)
(1.0386 -0.0337131 8.32669e-23)
(1.04203 -0.0406602 -1.52967e-23)
(1.04555 -0.0486425 -2.7954e-24)
(1.04921 -0.0582817 -2.04704e-22)
(1.05301 -0.0703975 1.68254e-22)
(1.05652 -0.0877006 -3.89026e-24)
(1.05162 -0.106156 -9.46299e-23)
(1.04543 -0.127451 1.10043e-22)
(1.02453 -0.158311 -3.58117e-22)
(0.991062 -0.184503 -3.60697e-23)
(0.929111 -0.213497 -1.19115e-21)
(0.826084 -0.213722 8.71699e-22)
(0.70404 -0.135379 -3.19782e-21)
(0.651773 0.0300439 7.03303e-22)
(0.722545 0.186321 -8.96225e-22)
(0.847395 0.250839 9.76429e-22)
(0.947351 0.244045 1.24487e-21)
(1.01517 0.213347 -6.78702e-22)
(1.05633 0.177022 8.15917e-22)
(1.06814 0.141088 -2.70574e-22)
(1.07969 0.110382 1.65192e-22)
(1.07459 0.0872617 -8.09536e-22)
(1.06806 0.0697274 4.00932e-22)
(1.06108 0.0557485 2.63339e-22)
(1.05437 0.0445304 -5.74528e-24)
(1.04846 0.0356993 -6.58251e-23)
(1.04355 0.0286062 -5.55395e-23)
(1.03921 0.0226158 0)
(1.03557 0.0174916 0)
(1.03269 0.0130116 0)
(1.03055 0.0090345 0)
(1.02912 0.00524385 0)
(1.02845 0.00175562 0)
(1.0305 -0.00169447 0)
(1.031 -0.00541861 0)
(1.03211 -0.00917123 0)
(1.03382 -0.0131795 0)
(1.03617 -0.0174912 0)
(1.03916 -0.0222149 0)
(1.04291 -0.027523 -1.05021e-23)
(1.0472 -0.0335298 3.80574e-23)
(1.05166 -0.0401333 -6.22452e-24)
(1.0569 -0.0476276 6.61255e-23)
(1.06347 -0.0570419 -2.03827e-22)
(1.07188 -0.0691024 1.98069e-22)
(1.08197 -0.0841665 -2.48846e-22)
(1.08674 -0.108132 5.30262e-22)
(1.09247 -0.138712 -7.20594e-23)
(1.09098 -0.184888 -5.38899e-22)
(1.07267 -0.24895 -2.09718e-22)
(1.01797 -0.350623 1.57381e-23)
(0.849632 -0.466648 -1.54259e-21)
(0.470204 -0.448914 -6.04785e-20)
(0.187909 0.0393339 1.26139e-20)
(0.510971 0.492452 -4.34607e-20)
(0.873308 0.48426 1.93176e-21)
(1.03475 0.363951 -1.3799e-22)
(1.09475 0.266114 5.15521e-23)
(1.11762 0.193747 2.59741e-24)
(1.1145 0.149567 -2.39155e-22)
(1.11404 0.104994 2.28295e-22)
(1.10202 0.0830843 -1.81165e-22)
(1.08987 0.065331 2.84511e-23)
(1.07819 0.0511302 -9.10885e-23)
(1.06778 0.0400004 9.67092e-23)
(1.05894 0.0314743 -3.2274e-23)
(1.05196 0.0249268 1.20391e-23)
(1.04633 0.0196207 0)
(1.04166 0.0150998 0)
(1.03803 0.0111734 0)
(1.03538 0.00767312 0)
(1.03371 0.0045757 0)
(1.03286 0.00140326 0)
(1.03527 -0.00176762 0)
(1.03593 -0.00522119 0)
(1.03728 -0.00878801 0)
(1.03939 -0.0126025 0)
(1.04225 -0.0166856 0)
(1.04592 -0.0211743 0)
(1.05044 -0.026129 1.78492e-23)
(1.05533 -0.031452 4.30612e-23)
(1.06061 -0.036986 6.95023e-23)
(1.06749 -0.0430723 6.87473e-23)
(1.07672 -0.0503065 1.88935e-22)
(1.08943 -0.0592166 2.63893e-22)
(1.10742 -0.070632 -6.88006e-22)
(1.11961 -0.09278 -3.52764e-22)
(1.14701 -0.119344 2.86318e-22)
(1.17345 -0.168593 -3.29533e-22)
(1.20946 -0.245557 -6.17083e-23)
(1.26322 -0.392745 1.57886e-21)
(0.970002 -0.527865 -1.03449e-19)
(1.06051 0.551793 5.39933e-20)
(1.25575 0.395547 -3.72172e-23)
(1.21618 0.256621 -1.33707e-22)
(1.19211 0.173621 1.46008e-22)
(1.16735 0.133965 1.23568e-22)
(1.15011 0.0868376 1.85619e-22)
(1.1298 0.0685693 -7.08809e-23)
(1.11136 0.0531851 -6.82649e-23)
(1.09475 0.0409987 -3.72408e-23)
(1.08051 0.0315641 -1.19791e-23)
(1.06865 0.0244186 5.84739e-24)
(1.05938 0.0191044 1.9512e-23)
(1.05244 0.0150328 0)
(1.04695 0.0116396 0)
(1.04273 0.00870816 0)
(1.0396 0.00603842 0)
(1.03752 0.00354799 0)
(1.03653 0.00127697 0)
(1.03981 -0.00170466 0)
(1.0406 -0.00478197 0)
(1.04223 -0.00808008 0)
(1.04467 -0.0114418 0)
(1.04799 -0.0151013 0)
(1.05224 -0.0191144 0)
(1.05726 -0.0234109 -5.10964e-24)
(1.06227 -0.0275879 -1.22166e-23)
(1.06789 -0.031528 -5.30369e-25)
(1.0757 -0.0354748 1.54051e-22)
(1.08641 -0.039494 -2.89735e-22)
(1.1011 -0.0433298 3.51889e-22)
(1.12248 -0.0468244 3.67691e-22)
(1.1438 -0.0607072 2.63785e-22)
(1.18485 -0.0706519 6.0194e-21)
(1.23434 -0.0977337 -4.16306e-22)
(1.31376 -0.135159 -1.50957e-22)
(1.44198 -0.178466 2.61133e-21)
(0.0224157 -0.00818256 5.59032e-19)
(0.03138 -0.01519 -1.29045e-19)
(1.40206 0.237607 -2.35495e-22)
(1.31158 0.177136 -3.59543e-23)
(1.25505 0.120652 1.53113e-21)
(1.21357 0.0924518 2.54068e-21)
(1.17962 0.0546507 1.3468e-22)
(1.15228 0.0433416 1.76722e-22)
(1.12875 0.033422 -1.8194e-22)
(1.1083 0.0256351 7.24934e-23)
(1.09092 0.0195058 -1.50914e-23)
(1.07636 0.0148054 -3.87109e-25)
(1.06492 0.0114296 4.34402e-24)
(1.05673 0.00905725 0)
(1.05054 0.00712687 0)
(1.04585 0.00539837 0)
(1.04247 0.00381605 0)
(1.04022 0.00225111 0)
(1.03909 0.000743471 0)
(1.04399 -0.0010435 -1.53745e-24)
(1.04481 -0.00390239 0)
(1.04658 -0.00667168 0)
(1.04934 -0.00962754 0)
(1.05312 -0.0127926 0)
(1.05787 -0.0161934 0)
(1.0629 -0.019582 -9.61766e-24)
(1.06751 -0.0224809 -3.91048e-23)
(1.07295 -0.024823 1.52055e-22)
(1.08073 -0.0266511 -3.31316e-22)
(1.0915 -0.0276651 3.09581e-22)
(1.10586 -0.026876 6.01617e-22)
(1.12566 -0.0217156 -6.3003e-22)
(1.14866 -0.0230499 8.89378e-22)
(1.1872 -0.0136717 -1.41275e-22)
(1.24152 -0.00821575 -1.85161e-22)
(1.32304 0.00169854 1.65643e-21)
(1.37883 0.0311749 -2.66236e-22)
(0.222818 0.0104014 -8.60028e-21)
(0.0602661 0.0376193 1.11272e-20)
(1.36954 0.0969376 -1.82245e-22)
(1.35196 0.0834689 -1.35911e-23)
(1.28996 0.0513607 1.07226e-22)
(1.24191 0.0368872 -5.35846e-22)
(1.19599 0.0125657 8.04659e-22)
(1.16499 0.0106348 -8.81206e-22)
(1.13869 0.00816099 6.50038e-22)
(1.11629 0.00635412 -2.57102e-22)
(1.09721 0.00475449 -2.99852e-23)
(1.08105 0.00345958 5.86971e-23)
(1.06807 0.00263258 -2.30089e-23)
(1.05893 0.00230239 0)
(1.05246 0.00203492 0)
(1.04761 0.00166236 0)
(1.04419 0.00125188 0)
(1.04205 0.000786806 0)
(1.04103 0.000225087 0)
(1.04734 -0.0011809 -8.56583e-27)
(1.04843 -0.00315504 0)
(1.05049 -0.00529281 0)
(1.05351 -0.00760369 0)
(1.05754 -0.0100138 0)
(1.06248 -0.0125834 0)
(1.06709 -0.0149722 9.29412e-24)
(1.07107 -0.0168449 3.13335e-23)
(1.07599 -0.0181272 -1.54273e-22)
(1.08298 -0.0186566 4.72448e-22)
(1.09191 -0.017948 -3.06003e-23)
(1.10203 -0.0147785 -1.56113e-21)
(1.11368 -0.00751356 1.52315e-21)
(1.13044 0.00470947 -2.69761e-21)
(1.15372 0.02713 -6.12117e-22)
(1.19131 0.0653805 -3.78666e-21)
(1.2547 0.123116 -1.58605e-21)
(1.28854 0.221595 1.51108e-21)
(0.484043 0.191479 -2.65044e-21)
(-0.152 0.181529 -1.19925e-21)
(-0.224712 0.362543 2.67224e-22)
(0.0522398 0.422761 1.11871e-21)
(0.293797 0.155377 5.29559e-22)
(1.35338 0.0228741 -2.82437e-21)
(1.37369 -0.00644514 7.70447e-22)
(1.3023 -0.0258163 -1.07205e-21)
(1.24871 -0.0250522 -1.18143e-21)
(1.19629 -0.0334151 5.57068e-22)
(1.16478 -0.0251603 -9.58156e-22)
(1.13861 -0.0193989 5.91571e-22)
(1.11646 -0.0144658 1.17272e-22)
(1.09753 -0.0110034 9.99694e-24)
(1.08137 -0.00848799 5.41818e-23)
(1.06801 -0.00637212 2.83839e-24)
(1.05865 -0.0044154 0)
(1.05235 -0.00294376 0)
(1.04771 -0.00196282 0)
(1.04442 -0.0012968 0)
(1.0423 -0.000788616 0)
(1.04112 -0.000339523 0)
(1.05048 -0.000934036 -1.18242e-23)
(1.05145 -0.0023082 0)
(1.05353 -0.00373046 0)
(1.05663 -0.00517569 0)
(1.06075 -0.00668821 0)
(1.06568 -0.00834539 0)
(1.06998 -0.00994787 -1.06811e-24)
(1.07338 -0.0111919 -1.1025e-22)
(1.07784 -0.0122756 -7.07248e-23)
(1.08344 -0.0130594 5.68117e-22)
(1.08961 -0.0133861 -6.23613e-22)
(1.09531 -0.0129474 4.35724e-22)
(1.09938 -0.0109455 -2.00941e-22)
(1.10485 0.00336588 -6.92386e-22)
(1.10063 0.0271234 -7.33824e-22)
(1.08667 0.083624 3.1927e-21)
(1.09085 0.174979 -5.55782e-21)
(1.01226 0.359043 9.07145e-21)
(0.386246 0.597549 -2.30134e-21)
(-0.332454 0.733128 -2.11052e-20)
(-0.224058 0.656962 2.47186e-21)
(0.403782 0.410054 2.55202e-21)
(0.811651 0.0942462 -3.38741e-21)
(1.45092 -0.115322 4.66335e-21)
(1.37925 -0.120798 6.66221e-21)
(1.28965 -0.114152 3.33986e-21)
(1.23349 -0.088958 -1.17605e-21)
(1.1782 -0.0777463 1.83844e-21)
(1.14999 -0.058791 -1.54267e-21)
(1.1271 -0.0447819 7.53983e-22)
(1.10773 -0.0335326 -8.17712e-22)
(1.09104 -0.0251481 2.21267e-22)
(1.07643 -0.0188346 -9.93256e-25)
(1.06404 -0.0139483 -1.21387e-24)
(1.05555 -0.0100358 0)
(1.05007 -0.00707088 0)
(1.04605 -0.00485323 0)
(1.04313 -0.00313598 0)
(1.04124 -0.00171339 0)
(1.04029 -0.000477071 3.40223e-23)
(1.05203 -1.16973e-05 7.46033e-23)
(1.05311 -0.000765803 0)
(1.05506 -0.00147126 0)
(1.05816 -0.00216567 0)
(1.06244 -0.00285388 0)
(1.06752 -0.00362792 0)
(1.07192 -0.00459699 0)
(1.07513 -0.0057455 -2.456e-23)
(1.07964 -0.00732929 -6.75584e-23)
(1.08549 -0.0099624 1.35567e-22)
(1.09133 -0.0136744 7.56947e-23)
(1.09582 -0.0184671 -1.30536e-22)
(1.09574 -0.0244682 -6.66424e-23)
(1.0827 -0.034677 8.15851e-23)
(1.06121 -0.0137421 5.2785e-23)
(1.00823 0.00292552 -6.95084e-22)
(0.92966 0.0722552 6.69743e-22)
(0.675587 0.23362 -5.49947e-21)
(0.0619045 0.515487 8.70643e-21)
(-0.234462 0.495628 -1.97678e-20)
(0.154289 0.203074 1.16362e-20)
(0.761053 -0.0595192 4.23355e-20)
(1.22473 -0.286512 8.04621e-21)
(1.43983 -0.336903 2.18434e-20)
(1.30466 -0.261074 -6.42757e-22)
(1.2394 -0.199973 -1.08546e-21)
(1.17001 -0.151084 -1.12131e-21)
(1.14161 -0.112877 7.43033e-23)
(1.12165 -0.0844639 -4.83347e-23)
(1.1053 -0.0633859 1.09209e-22)
(1.09123 -0.0468621 -2.88962e-22)
(1.07862 -0.0347071 1.1819e-22)
(1.06706 -0.0255515 2.89589e-23)
(1.05688 -0.0187788 0)
(1.05014 -0.0136584 0)
(1.04599 -0.00978879 0)
(1.04294 -0.00678522 0)
(1.04073 -0.00439137 0)
(1.03928 -0.00238232 0)
(1.03867 -0.000709756 -1.32941e-23)
(1.05177 0.000238854 1.58743e-24)
(1.0531 0.000652737 0)
(1.0553 0.0010266 0)
(1.05852 0.00123293 0)
(1.06287 0.00140926 0)
(1.06814 0.00154574 0)
(1.07309 0.00127989 0)
(1.07711 9.97207e-05 0)
(1.08264 -0.00231357 1.88424e-24)
(1.08998 -0.00636227 4.6326e-24)
(1.09814 -0.0127 -1.20179e-23)
(1.10618 -0.0227354 -4.2246e-24)
(1.11107 -0.0367356 -2.06934e-22)
(1.10733 -0.0645012 -6.32042e-23)
(1.07278 -0.0784926 -5.13123e-22)
(1.01395 -0.120791 1.19378e-21)
(0.858016 -0.130043 1.95841e-21)
(0.346564 0.0155533 5.79866e-21)
(0.050298 0.00737674 -4.22773e-21)
(0.154972 -0.261524 2.44459e-21)
(0.550399 -0.553933 7.09465e-21)
(0.969449 -0.701755 -1.82697e-22)
(1.25821 -0.655165 -1.52994e-21)
(1.26313 -0.477149 -2.07854e-20)
(1.18116 -0.340591 1.55091e-21)
(1.15005 -0.255789 -3.89255e-21)
(1.10069 -0.177729 1.20685e-22)
(1.09151 -0.130069 -2.3543e-22)
(1.08335 -0.0971543 -4.25455e-23)
(1.07625 -0.0719764 2.69365e-22)
(1.06954 -0.0524818 -1.23219e-22)
(1.06265 -0.0382175 -1.11337e-25)
(1.05523 -0.0276698 0)
(1.04821 -0.0200233 0)
(1.04367 -0.0145943 0)
(1.04103 -0.0105692 0)
(1.03908 -0.00739418 -2.4792e-23)
(1.03764 -0.00487929 -3.42856e-23)
(1.03673 -0.00273981 -2.04449e-23)
(1.03637 -0.000913144 0)
(1.05075 0.000509674 0)
(1.05201 0.00181039 0)
(1.05425 0.00320502 0)
(1.05752 0.00452119 0)
(1.06191 0.00579223 0)
(1.0674 0.00704527 0)
(1.07328 0.00790586 0)
(1.07909 0.00743341 0)
(1.08667 0.00529281 8.83018e-26)
(1.09684 0.00134129 3.58738e-24)
(1.10954 -0.00503762 -3.20175e-23)
(1.1253 -0.0162803 -1.81104e-22)
(1.14273 -0.0334959 2.50756e-22)
(1.15896 -0.0612526 -9.47254e-22)
(1.14338 -0.110313 -2.11453e-21)
(1.1276 -0.194122 -5.53656e-22)
(0.852039 -0.272387 -2.43854e-21)
(0.361344 -0.340461 5.01774e-22)
(0.361318 -0.535594 -5.00531e-21)
(0.512771 -0.731562 -5.02957e-21)
(0.731591 -0.830387 2.47904e-21)
(0.907189 -0.797061 1.43708e-20)
(0.988584 -0.656148 -3.34877e-21)
(1.03317 -0.49182 1.29626e-21)
(1.03789 -0.348672 -1.39623e-22)
(1.04052 -0.257234 3.79204e-22)
(1.02763 -0.172974 -2.80833e-22)
(1.03592 -0.125456 4.11246e-22)
(1.04074 -0.0936532 -3.14494e-22)
(1.04402 -0.0685655 -2.79541e-23)
(1.04533 -0.0495513 3.80401e-24)
(1.04462 -0.0354813 7.8813e-26)
(1.04216 -0.0250351 0)
(1.03916 -0.0177056 0)
(1.03721 -0.0129183 0)
(1.03613 -0.00946332 0)
(1.03524 -0.0067152 0)
(1.03452 -0.00452551 0)
(1.03403 -0.00265088 0)
(1.03385 -0.000849144 3.68215e-24)
(1.04871 0.000925629 0)
(1.04979 0.00297103 0)
(1.05185 0.00516285 0)
(1.05498 0.00749778 0)
(1.05929 0.00996871 0)
(1.06493 0.0126227 0)
(1.07178 0.0152541 0)
(1.07971 0.0168907 0)
(1.08979 0.0170828 0)
(1.10295 0.0159116 0)
(1.12027 0.0134196 7.40611e-24)
(1.1432 0.0078927 1.24507e-22)
(1.17397 -0.00258728 -2.27358e-22)
(1.21267 -0.0144137 3.72451e-22)
(1.23909 -0.0681365 -9.51647e-21)
(1.27932 -0.143124 -3.13912e-22)
(1.02124 -0.280061 -5.09426e-21)
(0.655946 -0.524978 3.28208e-21)
(0.561733 -0.713381 -7.91512e-22)
(0.593307 -0.777819 8.70224e-21)
(0.670719 -0.738532 5.24555e-22)
(0.756019 -0.632445 6.38244e-21)
(0.828529 -0.520491 -5.01864e-22)
(0.877734 -0.426328 -1.91831e-21)
(0.885243 -0.30194 1.89557e-21)
(0.939723 -0.214908 -9.72551e-23)
(0.959472 -0.137142 -6.84968e-23)
(0.983746 -0.0974558 6.80013e-23)
(1.00207 -0.0718686 -1.703e-23)
(1.01467 -0.0518438 -1.2164e-24)
(1.02298 -0.0369177 0)
(1.02778 -0.025733 0)
(1.03014 -0.0174974 0)
(1.03121 -0.0120805 0)
(1.03187 -0.00886739 0)
(1.03214 -0.00659446 0)
(1.03205 -0.00477916 0)
(1.03181 -0.00326652 0)
(1.03159 -0.0019396 0)
(1.03155 -0.000636799 0)
(1.04551 0.00132899 0)
(1.04638 0.00405258 0)
(1.04815 0.00695529 0)
(1.05094 0.0101399 0)
(1.05487 0.0137387 0)
(1.06018 0.017879 0)
(1.06729 0.0225966 0)
(1.07641 0.0272636 0)
(1.08797 0.0315259 0)
(1.10257 0.0356092 0)
(1.12165 0.0403329 0)
(1.14727 0.0456994 2.07017e-24)
(1.18241 0.0505231 1.60702e-24)
(1.23236 0.0621913 2.45104e-24)
(1.29241 0.0360863 -2.85801e-21)
(1.3851 0.0175519 8.09945e-23)
(1.28608 -0.0845569 -2.18263e-21)
(1.00136 -0.299148 -1.58062e-21)
(0.780761 -0.536544 -2.90491e-21)
(0.650885 -0.68788 -7.16258e-21)
(0.583683 -0.719238 -7.91603e-21)
(0.581559 -0.637602 3.44611e-21)
(0.641059 -0.488017 1.83866e-21)
(0.717875 -0.325238 7.80309e-22)
(0.776518 -0.192054 5.97663e-23)
(0.862079 -0.137125 1.03317e-21)
(0.908596 -0.0688028 4.67986e-22)
(0.946124 -0.0467925 -3.65511e-23)
(0.975428 -0.03284 -1.76619e-24)
(0.994987 -0.0230601 0)
(1.00816 -0.0157453 0)
(1.0168 -0.0103115 0)
(1.0226 -0.00644864 0)
(1.02659 -0.00427816 0)
(1.02901 -0.00328012 0)
(1.03001 -0.00259143 0)
(1.03026 -0.00197518 0)
(1.03021 -0.00136664 0)
(1.03008 -0.000802737 0)
(1.03002 -0.000260887 0)
(1.04137 0.00151233 0)
(1.04205 0.00473252 0)
(1.04342 0.00820789 0)
(1.0456 0.0121215 0)
(1.04869 0.0166885 0)
(1.053 0.0221078 0)
(1.05924 0.0285842 0)
(1.06796 0.0359381 0)
(1.07896 0.044261 0)
(1.09225 0.0539858 0)
(1.10885 0.066489 -3.27271e-23)
(1.13076 0.0829373 0)
(1.15905 0.104412 0)
(1.20081 0.13523 -2.32809e-22)
(1.26866 0.184264 -1.43366e-21)
(1.36611 0.208657 -4.71544e-21)
(1.39516 0.246285 6.05671e-23)
(1.26352 0.202009 1.92019e-21)
(1.04543 0.0975811 3.87738e-21)
(0.821129 -0.0138665 4.69356e-20)
(0.60217 -0.0984832 -7.00652e-22)
(0.478838 -0.145939 2.21206e-21)
(0.462294 -0.151145 1.1538e-21)
(0.541518 -0.118366 -1.58973e-22)
(0.693187 -0.0637442 -1.11901e-22)
(0.821974 0.00643018 1.2987e-20)
(0.886443 0.0208065 1.34021e-21)
(0.934119 0.0186717 0)
(0.968769 0.0160585 0)
(0.990618 0.0116365 3.87441e-23)
(1.00491 0.00873502 0)
(1.01452 0.00675293 0)
(1.02138 0.00524458 0)
(1.02635 0.00375759 0)
(1.02916 0.00238805 0)
(1.03007 0.00139478 0)
(1.03018 0.000766095 0)
(1.03004 0.000390519 4.08032e-24)
(1.02987 0.00016811 2.92726e-24)
(1.02975 4.68881e-05 0)
(1.03688 0.00155685 0)
(1.0372 0.00503209 0)
(1.03796 0.00881975 0)
(1.03926 0.0131683 0)
(1.04116 0.0182714 0)
(1.04394 0.0243833 0)
(1.04852 0.0318178 0)
(1.05544 0.040681 0)
(1.06389 0.0515751 0)
(1.07324 0.0651828 0)
(1.08387 0.0831522 -1.61346e-22)
(1.09693 0.106825 0)
(1.11253 0.139063 0)
(1.13482 0.181401 3.86629e-22)
(1.16253 0.244369 7.14822e-21)
(1.20476 0.344475 -8.9259e-22)
(1.22949 0.476184 0)
(1.17479 0.585504 -5.45584e-22)
(1.05297 0.638439 1.92596e-20)
(0.899592 0.6339 2.1095e-20)
(0.74899 0.572747 8.66363e-21)
(0.659424 0.472872 -5.70335e-21)
(0.638042 0.345666 -1.28213e-22)
(0.65238 0.223637 0)
(0.702027 0.143651 -1.67144e-21)
(0.793373 0.147284 -1.09373e-20)
(0.891278 0.117955 -5.08819e-21)
(0.954677 0.0886195 0)
(0.987453 0.063895 0)
(1.00422 0.0434298 -3.16129e-23)
(1.0145 0.0301679 0)
(1.02124 0.0211436 0)
(1.0263 0.0147741 0)
(1.03019 0.010115 0)
(1.03205 0.00670341 0)
(1.03207 0.00429108 -7.38185e-24)
(1.0315 0.00263062 9.5926e-24)
(1.03094 0.00149573 0)
(1.03051 0.00070617 0)
(1.0302 0.00015647 2.25423e-23)
(1.03224 0.0017002 0)
(1.0321 0.00508068 0)
(1.03219 0.00878418 0)
(1.03259 0.0129784 0)
(1.03324 0.0178849 0)
(1.03435 0.0237965 0)
(1.03686 0.0311525 3.62972e-24)
(1.04112 0.0402678 0)
(1.04574 0.0519551 0)
(1.04964 0.0669735 0)
(1.05282 0.0868491 0)
(1.05531 0.112713 0)
(1.05682 0.147222 0)
(1.05846 0.19168 1.68366e-22)
(1.05608 0.248475 -6.32068e-23)
(1.05371 0.322174 3.92991e-24)
(1.05696 0.42001 0)
(1.03522 0.518201 0)
(0.973488 0.593281 3.22147e-21)
(0.88991 0.629949 4.02453e-20)
(0.810918 0.625639 6.71121e-21)
(0.784002 0.57876 9.83028e-22)
(0.787066 0.514771 0)
(0.801771 0.430864 0)
(0.790427 0.332334 0)
(0.845647 0.267729 1.38994e-22)
(0.948108 0.196431 7.22757e-21)
(1.01406 0.138272 1.84144e-22)
(1.03164 0.0952649 0)
(1.03464 0.0633331 0)
(1.03529 0.0431386 0)
(1.03534 0.0292832 0)
(1.03604 0.0197357 -3.23939e-23)
(1.03711 0.0130743 -1.3275e-23)
(1.03691 0.00849815 -6.6878e-25)
(1.03542 0.00539134 0)
(1.03378 0.00328779 0)
(1.03249 0.00186475 0)
(1.03154 0.00090371 0)
(1.03087 0.000232294 0)
(1.02756 0.00164761 0)
(1.02727 0.00456923 0)
(1.02698 0.00769237 0)
(1.02668 0.0111076 0)
(1.02623 0.0151097 0)
(1.02574 0.0199562 0)
(1.02596 0.0261947 0)
(1.02709 0.0344066 0)
(1.02745 0.0453429 -7.0361e-24)
(1.02578 0.0595748 0)
(1.02178 0.0782879 0)
(1.01478 0.102762 0)
(1.0038 0.13384 -2.49119e-22)
(0.992521 0.17465 2.20655e-22)
(0.980458 0.223603 0)
(0.957771 0.278748 0)
(0.937802 0.349277 0)
(0.912438 0.433154 0)
(0.872648 0.513285 -2.28332e-21)
(0.833039 0.580177 -9.22747e-21)
(0.807393 0.602401 2.31495e-20)
(0.815257 0.586253 -1.28801e-20)
(0.836361 0.555415 0)
(0.884167 0.499993 0)
(0.90908 0.412637 0)
(0.971283 0.309848 0)
(1.06107 0.207961 1.96047e-21)
(1.09843 0.140725 5.87462e-22)
(1.08914 0.0953482 0)
(1.07372 0.0634082 9.28352e-25)
(1.06155 0.0427975 3.14572e-24)
(1.05312 0.0283274 -6.42825e-24)
(1.04817 0.0183602 0)
(1.04534 0.0115612 0)
(1.04236 0.0071949 0)
(1.03902 0.00439801 0)
(1.03617 0.00260017 0)
(1.03407 0.00145923 0)
(1.03262 0.000752237 0)
(1.03169 0.00023821 0)
(1.02378 0.000980322 0)
(1.02357 0.00308733 0)
(1.02315 0.00517745 0)
(1.02238 0.00742723 0)
(1.02108 0.0100409 0)
(1.0192 0.0131854 0)
(1.01717 0.0173795 0)
(1.01505 0.0234194 0)
(1.01132 0.0319837 0)
(1.00462 0.0433816 0)
(0.994129 0.0585144 -1.89514e-23)
(0.979062 0.0788673 -1.17038e-22)
(0.959052 0.105327 1.29158e-21)
(0.935422 0.139537 2.08407e-21)
(0.909865 0.188816 0)
(0.874087 0.249517 0)
(0.83588 0.321035 0)
(0.80051 0.400138 0)
(0.775218 0.47159 1.28373e-20)
(0.774275 0.539705 -1.90654e-20)
(0.796571 0.552045 1.00878e-21)
(0.839425 0.544299 -1.03787e-22)
(0.894001 0.494862 0)
(0.975412 0.429696 0)
(1.04483 0.33525 0)
(1.12629 0.233098 0)
(1.18044 0.140955 -1.4242e-21)
(1.17478 0.0918153 2.33582e-21)
(1.13873 0.0619199 3.25861e-22)
(1.10742 0.0415872 2.35792e-22)