/*--------------------------------*- C++ -*----------------------------------*\
| =========                 |                                                 |
| \\      /  F ield         | OpenFOAM: The Open Source CFD Toolbox           |
|  \\    /   O peration     | Version:  v2106                                 |
|   \\  /    A nd           | Website:  www.openfoam.com                      |
|    \\/     M anipulation  |                                                 |
\*---------------------------------------------------------------------------*/
FoamFile
{
    version     2.0;
    format      ascii;
    arch        "LSB;label=32;scalar=64";
    class       volScalarField;
    location    "0";
    object      p;
}
// * * * * * * * * * * * * * * * * * * * * * * * * * * * * * * * * * * * * * //

dimensions      [0 2 -2 0 0 0 0];

internalField   nonuniform List<scalar> 
11644
(
0.058489
0.0588721
0.0596732
0.0609029
0.0625628
0.0646551
0.0671825
0.0701412
0.0735152
0.077274
0.0813585
0.0856878
0.0901525
0.0945829
0.0988106
0.102652
0.105839
0.108135
0.109457
0.109746
0.108933
0.106981
0.103936
0.0999716
0.0953017
0.0901512
0.0847378
0.0792439
0.073861
0.0687282
0.063955
0.0596173
0.0557566
0.0523965
0.0495434
0.0471925
0.0453343
0.04396
0.0430686
0.042645
0.0578007
0.0581783
0.0589599
0.0601623
0.0617949
0.0638662
0.0663848
0.0693542
0.0727683
0.0766041
0.0808229
0.0853538
0.090075
0.0948427
0.0994454
0.103631
0.107132
0.109737
0.111355
0.111824
0.11098
0.108833
0.105494
0.101167
0.0960709
0.0904877
0.0846696
0.078855
0.0732181
0.0679149
0.0630406
0.0586542
0.0547853
0.0514435
0.0486243
0.0463161
0.044503
0.0431716
0.0423074
0.0418897
0.0563528
0.0567319
0.0574942
0.0586545
0.0602348
0.0622581
0.0647446
0.0677134
0.0711774
0.0751426
0.0795932
0.0844735
0.0897
0.0951091
0.100484
0.105514
0.109917
0.113435
0.115756
0.116547
0.115638
0.113041
0.108937
0.103682
0.0976365
0.0911133
0.08445
0.0779466
0.0718136
0.0661843
0.0611317
0.0566743
0.0528098
0.0495187
0.046773
0.0445458
0.0428091
0.0415352
0.0406961
0.0402764
0.0541757
0.0545441
0.0552745
0.0563755
0.0578756
0.0598114
0.0622226
0.0651524
0.0686476
0.0727471
0.0774734
0.0828441
0.0888037
0.0952443
0.101904
0.108441
0.114471
0.11957
0.123058
0.124435
0.123408
0.120038
0.114588
0.107593
0.0998899
0.0918029
0.0838033
0.0762953
0.0694589
0.0633931
0.0581202
0.053605
0.0497828
0.0465895
0.043968
0.0418652
0.0402365
0.0390401
0.0382451
0.0378443
0.0513406
0.0516733
0.0523378
0.0533436
0.0547183
0.0565092
0.0587745
0.0615853
0.0650256
0.0691881
0.0741838
0.0800949
0.086962
0.0947172
0.103215
0.112065
0.120599
0.128332
0.133915
0.136431
0.135258
0.130538
0.1228
0.112879
0.102657
0.0921367
0.0821869
0.0733285
0.0656801
0.0592155
0.0538073
0.0493164
0.0456249
0.0426181
0.0401978
0.0382837
0.0368136
0.0357391
0.035027
0.0346672
0.047917
0.0481959
0.0487551
0.0496067
0.0507875
0.0523463
0.0543542
0.0569066
0.0601279
0.0641819
0.0692461
0.0754968
0.0831346
0.0924719
0.103521
0.115665
0.128121
0.140464
0.149849
0.154516
0.153088
0.14576
0.134061
0.119681
0.105339
0.0911446
0.0786685
0.0683259
0.0599134
0.0531905
0.0478633
0.0436229
0.040248
0.0375759
0.0354765
0.0338479
0.0326141
0.031723
0.0311412
0.0308538
0.0439948
0.0442006
0.0446124
0.0452522
0.0461518
0.0473608
0.0489559
0.0510466
0.0537917
0.0573819
0.062045
0.0681181
0.0760883
0.0866825
0.100621
0.117695
0.130765
0.148362
0.16371
0.173404
0.174174
0.165463
0.149647
0.130829
0.105468
0.0867952
0.0715194
0.0599882
0.0514263
0.0448933
0.0399992
0.0363409
0.0335799
0.031471
0.0298648
0.0286528
0.0277568
0.0271247
0.026718
0.0265184
0.0397052
0.0398141
0.0400402
0.0404005
0.0409187
0.0416449
0.042642
0.0440147
0.0459119
0.0484941
0.0520529
0.0571439
0.0643573
0.0751673
0.0897143
0.10938
0.136074
0.164357
0.192289
0.211281
0.213546
0.197616
0.169044
0.137325
0.106548
0.0834323
0.0663356
0.0470524
0.0393182
0.0338575
0.0300768
0.0274546
0.0256589
0.0243958
0.0234937
0.0228518
0.0224018
0.0220936
0.021904
0.0218064
0.0351748
0.0351809
0.0351912
0.0352098
0.035261
0.035368
0.0355667
0.0359317
0.036548
0.0375226
0.0391698
0.0420079
0.0467221
0.0595892
0.073691
0.0957258
0.125468
0.17117
0.219749
0.261682
0.273062
0.245183
0.194664
0.140912
0.099701
0.0647152
0.0470315
0.0274925
0.0227803
0.0198416
0.0180915
0.0171348
0.016709
0.0165761
0.0165755
0.0166427
0.0167341
0.0168227
0.0168877
0.0169315
0.0305798
0.0304635
0.0302348
0.0298844
0.0294074
0.0287914
0.028036
0.0271417
0.0261009
0.024946
0.0238323
0.0230489
0.0226852
0.0320257
0.0396509
0.0609772
0.0942254
0.151773
0.241535
0.344155
0.384414
0.31754
0.205688
0.118334
0.0593883
0.0233461
0.0135306
0.00109924
0.00198975
0.00303077
0.00433708
0.00574493
0.00711613
0.00837619
0.00944756
0.0103343
0.0110312
0.0115507
0.0118874
0.0120462
0.0260911
0.0258807
0.02541
0.0246751
0.023635
0.0222574
0.0204879
0.0182357
0.0153426
0.0116819
0.00702948
0.00114597
-0.00634843
-0.00654851
-0.0115191
-0.00830513
0.00500735
0.0387207
0.149814
0.397177
0.573192
0.334702
0.0901764
-0.00840176
-0.0371096
-0.0421111
-0.0333856
-0.0302109
-0.0221475
-0.0156786
-0.0103343
-0.00601758
-0.0025499
0.000273781
0.00251171
0.00425407
0.00558143
0.00653105
0.00715816
0.00745555
0.0219642
0.0216049
0.0209085
0.0198175
0.0182756
0.0161996
0.0134816
0.00995892
0.00530098
-0.000867315
-0.00915248
-0.0204383
-0.0363111
-0.0438366
-0.0712383
-0.096452
-0.140956
-0.22925
-0.450658
-0.568932
-0.284467
-0.173231
-0.119469
-0.0843534
-0.063093
-0.046417
-0.0338585
-0.0243477
-0.0170982
-0.0115083
-0.00713394
-0.0037614
-0.00120019
0.000731794
0.00211383
0.00299568
0.00345205
0.0182709
0.0178288
0.0169524
0.0155903
0.0136712
0.0110542
0.0076116
0.00312338
-0.00283967
-0.0108146
-0.0216377
-0.0364006
-0.057265
-0.0756544
-0.116807
-0.166343
-0.252371
-0.409207
-0.564839
-0.644683
-0.438498
-0.266478
-0.178151
-0.126463
-0.0885567
-0.0656202
-0.0484555
-0.0357437
-0.0261415
-0.0188097
-0.0131769
-0.00888016
-0.00562471
-0.0031962
-0.00147655
-0.000385793
0.000143182
0.015088
0.0146743
0.0136878
0.0121746
0.0100464
0.0071556
0.00335176
-0.00160298
-0.00809156
-0.016588
-0.0279516
-0.0430905
-0.0635394
-0.0863563
-0.127178
-0.182312
-0.273326
-0.420145
-0.489024
-0.441917
-0.393083
-0.285032
-0.200184
-0.146912
-0.101134
-0.0761596
-0.0569681
-0.0426886
-0.031838
-0.0235617
-0.0172341
-0.0124151
-0.00874076
-0.00601213
-0.00408588
-0.00283158
-0.00224433
0.0127385
0.0121715
0.0111995
0.00970479
0.00759499
0.0047353
0.000960249
-0.00388251
-0.0100508
-0.0178308
-0.0277126
-0.0402259
-0.0555209
-0.0749292
-0.101688
-0.14329
-0.211003
-0.338074
-0.468827
-0.469095
-0.499997
-0.477974
-0.426405
-0.382992
-0.280829
-0.197017
-0.145967
-0.100126
-0.0764809
-0.0581434
-0.0441645
-0.0333754
-0.025138
-0.0188459
-0.0140011
-0.0102836
-0.00751472
-0.00554668
-0.00427421
-0.00362436
0.0111204
0.0107273
0.00981366
0.00840406
0.00643768
0.00382044
0.000404714
-0.00383137
-0.00894618
-0.0150047
-0.0219799
-0.0295779
-0.0371926
-0.0488848
-0.055855
-0.058266
-0.0668798
-0.0793502
-0.254045
-0.538373
-0.741875
-0.711828
-0.57767
-0.381987
-0.259355
-0.173939
-0.12894
-0.0866201
-0.0669537
-0.0516994
-0.0398667
-0.0306077
-0.0233901
-0.0177931
-0.013453
-0.0100892
-0.00755812
-0.00574393
-0.00459188
-0.00409583
0.0104067
0.0101949
0.00944001
0.00820295
0.00648378
0.00428499
0.00150675
-0.00185014
-0.00559367
-0.00959088
-0.0135528
-0.0169123
-0.0182225
-0.0180715
-0.0160119
0.00362186
0.0385702
0.0847307
-0.110849
-0.48987
-0.724253
-0.682124
-0.478378
-0.299163
-0.183254
-0.131545
-0.0816421
-0.0637107
-0.0496398
-0.0388594
-0.0304992
-0.0238447
-0.018488
-0.014227
-0.0108301
-0.00816302
-0.00613352
-0.00467373
-0.00373039
-0.00325918
0.010594
0.0102871
0.00970289
0.0087738
0.00745663
0.00578045
0.00373245
0.00131201
-0.00133582
-0.00398159
-0.00637542
-0.00832001
-0.00893705
-0.0073807
-0.00528241
0.00522698
0.0288253
0.0477212
-0.0749151
-0.279079
-0.393057
-0.353265
-0.246629
-0.169037
-0.103499
-0.0760594
-0.0432191
-0.0346046
-0.0273474
-0.0219416
-0.0176717
-0.0141746
-0.0112277
-0.00872551
-0.00655814
-0.00478786
-0.00340693
-0.00239248
-0.00172213
-0.00134024
0.011474
0.0111607
0.0106721
0.00998547
0.00905268
0.00786304
0.00642384
0.00472316
0.00275991
0.000571134
-0.00185045
-0.00488093
-0.00887342
-0.0127764
-0.0178473
-0.0362282
-0.0593382
-0.10138
-0.162719
-0.225027
-0.232599
-0.182746
-0.124328
-0.0768993
-0.0331025
-0.0207016
-0.00612232
-0.00527
-0.00491029
-0.00466097
-0.00429255
-0.0037347
-0.0030582
-0.00225743
-0.00134965
-0.000536343
0.000153484
0.000689116
0.00104131
0.00123732
0.0128948
0.0126946
0.0123276
0.0118179
0.011155
0.0103254
0.00930727
0.00807152
0.00649355
0.00443472
0.0015913
-0.0026575
-0.00970882
-0.0199465
-0.0322655
-0.0675555
-0.124952
-0.227689
-0.315397
-0.34951
-0.305827
-0.198114
-0.087281
-0.0174282
0.0164831
0.0207761
0.0233943
0.0193488
0.013565
0.0100298
0.00737161
0.00566103
0.00465023
0.0041516
0.00393719
0.0038857
0.00396067
0.00407574
0.00417873
0.00421935
0.0146611
0.0145638
0.0143656
0.0140718
0.0136779
0.0131788
0.0125432
0.0117066
0.0105285
0.00882409
0.00621835
0.00203908
-0.00508139
-0.0166998
-0.0314815
-0.0648369
-0.122703
-0.224623
-0.329686
-0.38132
-0.344201
-0.220542
-0.0816564
0.00519683
0.0444066
0.0468982
0.0441998
0.0361524
0.0273475
0.0211503
0.0166337
0.0134344
0.0112368
0.00973251
0.00867697
0.00799095
0.00758949
0.00737064
0.0072728
0.00722706
0.0165892
0.0165565
0.0165304
0.0164844
0.0164023
0.0162795
0.0160855
0.0157559
0.0152166
0.0143228
0.0128018
0.00994423
0.00524789
-0.00403035
-0.0173117
-0.0386044
-0.0778579
-0.137492
-0.201189
-0.240038
-0.226725
-0.154698
-0.0673736
0.00119892
0.0403482
0.0552834
0.053111
0.0436048
0.0345104
0.0280473
0.022942
0.0190599
0.0161959
0.0140952
0.012586
0.0115355
0.0108288
0.0103685
0.0100916
0.00995837
0.0185152
0.0185796
0.0186942
0.0188385
0.019022
0.0192524
0.0195369
0.0198379
0.0201306
0.0202444
0.019988
0.018783
0.0161293
0.0105507
9.43302e-05
-0.0122048
-0.0305873
-0.0551047
-0.0814729
-0.104102
-0.110826
-0.0980047
-0.0643905
-0.0145495
0.0242122
0.0432721
0.0504622
0.041864
0.0350059
0.0300782
0.0255612
0.0219836
0.0192146
0.0171136
0.0155388
0.0143832
0.0135515
0.0129692
0.0125925
0.0123968
0.0202662
0.0204073
0.0205983
0.0208801
0.0212784
0.0218196
0.0225483
0.0234647
0.0245622
0.0256417
0.0265351
0.0268766
0.0260332
0.0225755
0.0163857
0.00569814
-0.0111134
-0.0369002
-0.0705716
-0.103388
-0.122109
-0.123983
-0.0998697
-0.0570574
-0.0170015
0.0141526
0.0293781
0.0303975
0.029737
0.0276553
0.0249898
0.0226352
0.0205771
0.018925
0.0175846
0.0165311
0.0157353
0.0151565
0.0147822
0.0145816
0.0217019
0.0218111
0.0220632
0.0224808
0.0230799
0.0238819
0.0249436
0.0262973
0.0279375
0.0297493
0.0315405
0.0329741
0.0332628
0.0311441
0.0247707
0.00904523
-0.0171862
-0.0577194
-0.109141
-0.158927
-0.193051
-0.191297
-0.156355
-0.104314
-0.0582633
-0.0208725
0.0042487
0.0157616
0.021607
0.0230689
0.0228855
0.0220991
0.0209873
0.0199413
0.0189715
0.0181459
0.0174862
0.0169828
0.0166524
0.0164881
0.0229064
0.0229634
0.0232559
0.0237524
0.0244645
0.0254054
0.0266263
0.0281531
0.0300295
0.0322321
0.0345919
0.0365121
0.0376779
0.0345287
0.0245986
0.00403452
-0.0282314
-0.0744027
-0.133565
-0.19152
-0.235877
-0.233799
-0.192396
-0.13855
-0.0845508
-0.0420007
-0.010137
0.00609337
0.0154236
0.019208
0.0210838
0.0214914
0.0212109
0.0206536
0.020026
0.0194343
0.0189286
0.0185387
0.0182794
0.0181572
0.0239198
0.0240142
0.0243026
0.0247793
0.0254848
0.0264352
0.0276506
0.0291564
0.0309822
0.0331836
0.0356874
0.0378854
0.0383749
0.0329838
0.0198786
-0.00190827
-0.0329612
-0.0751727
-0.125141
-0.172725
-0.21061
-0.206888
-0.169285
-0.126064
-0.0780033
-0.0391118
-0.0105073
0.00523007
0.0141372
0.0186343
0.0208704
0.0216722
0.0217738
0.0215078
0.0210972
0.0206497
0.0202411
0.0199169
0.0196954
0.0196013
0.0245343
0.0246893
0.024975
0.025417
0.0260499
0.0268973
0.0279862
0.0293217
0.0308885
0.0326422
0.0345571
0.0361078
0.0350027
0.0288287
0.0153035
-0.0069703
-0.0368549
-0.0731742
-0.108896
-0.135839
-0.149882
-0.141023
-0.115319
-0.0821063
-0.0486426
-0.0194787
0.00025819
0.0109475
0.0172449
0.0205836
0.0221749
0.0227683
0.0228321
0.022619
0.0222619
0.0218575
0.0214699
0.0211461
0.0209086
0.0207996
0.0247176
0.0248537
0.0251076
0.0254934
0.026015
0.0266819
0.0275116
0.0284869
0.0295427
0.030462
0.031076
0.0307527
0.0272422
0.0190077
0.00496949
-0.0154166
-0.040971
-0.0696803
-0.0930641
-0.103921
-0.1006
-0.0875267
-0.0668535
-0.0414404
-0.0186826
0.00012542
0.011507
0.0180086
0.0217618
0.0235896
0.024263
0.0243542
0.0241286
0.0237655
0.0233314
0.0229036
0.0225214
0.02221
0.0219811
0.021809
0.0246338
0.0247219
0.0249122
0.0251994
0.0255651
0.0259941
0.0264525
0.0268777
0.0271839
0.0270767
0.0260841
0.0232963
0.0167148
0.00465432
-0.0122002
-0.032718
-0.0545522
-0.0764406
-0.090067
-0.0930477
-0.0856156
-0.0680845
-0.0460413
-0.0219993
-0.00260505
0.0107286
0.0184989
0.0231105
0.0254034
0.0264663
0.0263972
0.0259503
0.0253528
0.0247429
0.0241717
0.0236797
0.023276
0.0229595
0.0227312
0.0225748
0.0244058
0.024482
0.0246207
0.0248026
0.0249989
0.0251683
0.0252456
0.0251152
0.024636
0.0234779
0.0209625
0.0160399
0.00652948
-0.00920563
-0.0307961
-0.0570366
-0.0828414
-0.103593
-0.116017
-0.116299
-0.103943
-0.0790888
-0.0496477
-0.0226223
-0.00101536
0.0134579
0.0220702
0.0265396
0.0282927
0.0285592
0.0279887
0.0271444
0.0262437
0.025415
0.0247138
0.0241374
0.0236761
0.0233339
0.0231127
0.0230602
0.024117
0.0242081
0.0242794
0.0243509
0.0243865
0.0243424
0.024161
0.0236694
0.0226459
0.0207031
0.0170371
0.0106577
-0.000782317
-0.0189781
-0.0437682
-0.0744976
-0.106969
-0.130614
-0.147657
-0.149874
-0.127427
-0.0955401
-0.0584991
-0.0287233
-0.00498422
0.0121895
0.0226802
0.0280762
0.0298069
0.0296068
0.0287211
0.0276614
0.0266207
0.0257076
0.0249544
0.0243514
0.0238773
0.0235561
0.0233752
0.0233629
0.0237931
0.0238495
0.0238863
0.023902
0.0238551
0.0237057
0.0233791
0.0227252
0.0215008
0.0192856
0.0153413
0.00861469
-0.00287571
-0.0202549
-0.0435584
-0.0720414
-0.103924
-0.128728
-0.149531
-0.152958
-0.129263
-0.0973
-0.0616936
-0.0318856
-0.00823639
0.00888639
0.0199569
0.0264948
0.0293206
0.0293898
0.0285059
0.0274408
0.02647
0.0256437
0.0249507
0.0244033
0.0239883
0.0237144
0.0235496
0.0234835
0.0234994
0.0235136
0.02354
0.0235545
0.023512
0.0233632
0.0230436
0.0224421
0.0213628
0.0194718
0.0162146
0.010737
0.00167312
-0.0122793
-0.0311251
-0.0533746
-0.0787923
-0.100925
-0.117767
-0.123083
-0.109593
-0.0878847
-0.0612579
-0.0356322
-0.013878
0.0031492
0.0155547
0.0232862
0.0270056
0.0278536
0.0273907
0.0265881
0.0258475
0.0251882
0.0246255
0.0241775
0.0238343
0.0235873
0.0234166
0.0233015
0.0233049
0.0233325
0.0233501
0.0233626
0.023342
0.0232513
0.0230447
0.0226359
0.0219257
0.0206944
0.0186214
0.0150923
0.00926397
-0.000368853
-0.0140092
-0.0304175
-0.0486179
-0.0665602
-0.0797078
-0.0870161
-0.0868357
-0.0769612
-0.0593104
-0.0385888
-0.0192493
-0.00300262
0.00952882
0.017951
0.0225476
0.0245864
0.0250573
0.0249179
0.0245944
0.0241957
0.0238131
0.0234924
0.0232337
0.0230358
0.022901
0.0228057
0.023084
0.0231235
0.0231594
0.0231923
0.0232204
0.0232285
0.0231927
0.0230566
0.0227873
0.0222538
0.021184
0.0192676
0.0159275
0.00989889
0.000733858
-0.0118407
-0.0269354
-0.043584
-0.0567761
-0.0666943
-0.0715186
-0.0688459
-0.0577455
-0.0416678
-0.0260186
-0.0116456
0.000283278
0.0097098
0.0161403
0.0199533
0.0217191
0.0225097
0.0227665
0.0227506
0.0226323
0.0224865
0.022346
0.0222336
0.022167
0.0221506
0.0227268
0.0227285
0.022779
0.022857
0.0229651
0.0230997
0.0232595
0.0234351
0.0236086
0.0236868
0.0234369
0.0225108
0.0204234
0.0159263
0.00808518
-0.00376117
-0.0192139
-0.0373373
-0.0546519
-0.0684722
-0.0750193
-0.0751125
-0.0672856
-0.0545872
-0.0406346
-0.0254992
-0.0112061
0.000791056
0.00959941
0.0151466
0.0182483
0.019943
0.0208114
0.0212407
0.0214423
0.0215039
0.0214975
0.0214662
0.0214435
0.0214635
0.0223204
0.0222763
0.0223129
0.0224086
0.0225747
0.022805
0.023112
0.0234992
0.0239949
0.0244247
0.0248192
0.0243496
0.0223466
0.0176862
0.00929556
-0.00313755
-0.0200226
-0.0401437
-0.0632272
-0.0828281
-0.0960619
-0.0958833
-0.0869367
-0.0744295
-0.0577566
-0.038992
-0.0209354
-0.00622771
0.00447391
0.011402
0.0154675
0.0178053
0.0191741
0.0199756
0.0204212
0.0206602
0.0207874
0.0208365
0.0208468
0.0208227
0.0218624
0.0218336
0.0218701
0.0219631
0.0221346
0.0223796
0.0227239
0.0231605
0.0237042
0.024161
0.0245923
0.02396
0.0216967
0.0169538
0.00847184
-0.00419288
-0.0214608
-0.0423857
-0.0683469
-0.089926
-0.111042
-0.108904
-0.096305
-0.0824821
-0.0633418
-0.0427516
-0.0237978
-0.00889476
0.00212634
0.00943242
0.0138906
0.0164536
0.0180526
0.019022
0.0196019
0.0199411
0.0201398
0.0202266
0.0202573
0.0201982
0.0212424
0.0212738
0.0213313
0.0214202
0.0215597
0.0217545
0.0220178
0.0223486
0.0227747
0.0230747
0.0230868
0.0218525
0.0186753
0.0131166
0.00445467
-0.0078067
-0.0237989
-0.0430893
-0.0645923
-0.0835395
-0.0985798
-0.0967584
-0.0855265
-0.0713113
-0.0527777
-0.0348565
-0.0187922
-0.00610993
0.00344102
0.00979102
0.0137888
0.0161791
0.0176301
0.0185
0.0190309
0.0193357
0.0195108
0.019583
0.0196069
0.0195852
0.0204468
0.0205022
0.0205506
0.0206094
0.0206897
0.0207933
0.0209255
0.0210519
0.0211547
0.0210658
0.0203469
0.0183623
0.0142664
0.00748014
-0.0018189
-0.0137074
-0.0278248
-0.0436335
-0.0586425
-0.0693649
-0.0744041
-0.0707393
-0.0616085
-0.049222
-0.0347966
-0.0210598
-0.009227
0.000503402
0.00759608
0.0121409
0.0149654
0.0166753
0.0177141
0.0183382
0.0187126
0.0189256
0.0190378
0.0190851
0.0191059
0.0191175
0.0195367
0.0195418
0.0195387
0.0195399
0.019539
0.0195215
0.0194691
0.0193043
0.0189116
0.018093
0.0163542
0.0132829
0.00839619
0.00124575
-0.00786464
-0.0189017
-0.031015
-0.0434355
-0.0532156
-0.0571464
-0.0549356
-0.0492989
-0.0406887
-0.0293897
-0.0178791
-0.00724812
0.0012732
0.00789469
0.012309
0.0149672
0.0165772
0.0175233
0.0180771
0.0184064
0.0185998
0.0187069
0.0187651
0.0187928
0.0188013
0.0187905
0.0185953
0.0185352
0.0184902
0.018436
0.0183479
0.0181855
0.0178981
0.0173929
0.0164393
0.0148061
0.0118751
0.00726159
0.000963536
-0.00709156
-0.0164867
-0.0268101
-0.0369611
-0.0467415
-0.0526177
-0.0528677
-0.0493417
-0.0415981
-0.0310425
-0.0186507
-0.00734311
0.00232756
0.0093507
0.0138169
0.0162504
0.0175076
0.0181329
0.0183868
0.0184874
0.018514
0.0185132
0.0184957
0.0184767
0.0184575
0.0184364
0.0184239
0.017736
0.0176876
0.017629
0.0175292
0.0173506
0.0170409
0.0165194
0.0156812
0.0142812
0.0119687
0.00807883
0.0019593
-0.00642561
-0.0170428
-0.0288299
-0.040325
-0.0505369
-0.0590427
-0.0638255
-0.0627395
-0.0557787
-0.0438583
-0.0295607
-0.0154817
-0.0032889
0.00637777
0.0131315
0.0169008
0.0187354
0.0193552
0.0192257
0.0189587
0.0186752
0.0184344
0.01825
0.018115
0.0180232
0.0179699
0.0179485
0.0179773
0.0169954
0.0170228
0.0169592
0.0168139
0.0165585
0.0161432
0.0154768
0.0144533
0.0127697
0.0100273
0.00559197
-0.00119911
-0.0107513
-0.0231193
-0.0375591
-0.0510885
-0.0632912
-0.0721329
-0.0785657
-0.0770575
-0.0640684
-0.0481537
-0.0303304
-0.0150463
-0.0023419
0.00735812
0.0139517
0.0176473
0.0194112
0.0198407
0.019454
0.0189516
0.0184992
0.0181272
0.0178492
0.0176537
0.0175283
0.0174671
0.0174565
0.0175041
0.0162956
0.0163422
0.0162879
0.0161509
0.015895
0.0154778
0.0148274
0.0138076
0.012165
0.00947544
0.00514361
-0.00130426
-0.0100658
-0.0216202
-0.0353546
-0.049243
-0.0629899
-0.0723815
-0.0792482
-0.0784444
-0.0638708
-0.0481976
-0.0307893
-0.0157859
-0.00344775
0.00595035
0.0123057
0.016005
0.0179656
0.0187028
0.0186004
0.0182898
0.0178906
0.0175688
0.0173211
0.0171455
0.0170279
0.0169634
0.0169357
0.0169456
0.0156661
0.0156604
0.0156202
0.0155336
0.0153544
0.0150477
0.0145506
0.0137541
0.0124528
0.0103425
0.00691162
0.0017576
-0.00524567
-0.0142252
-0.0250168
-0.0367039
-0.0483628
-0.0572185
-0.0635175
-0.0643143
-0.0562619
-0.0450603
-0.0317031
-0.0191038
-0.00821309
0.00061291
0.00724826
0.0118931
0.0148525
0.016373
0.0169033
0.0169458
0.0167836
0.0166343
0.0165113
0.0164208
0.0163555
0.0163119
0.0162757
0.0162405
0.015219
0.0152013
0.0151685
0.0151122
0.0150072
0.0148274
0.0145284
0.0140479
0.0132515
0.0119398
0.00978453
0.00633719
0.00132588
-0.00501481
-0.0126128
-0.0212709
-0.0302295
-0.0381506
-0.0442889
-0.0475729
-0.0467029
-0.0414112
-0.0329226
-0.0232426
-0.0139674
-0.00552745
0.00140555
0.00687838
0.0106552
0.0130082
0.0143122
0.0149151
0.015186
0.0153232
0.0153771
0.0154051
0.0154227
0.0154361
0.0154396
0.0154133
0.0148695
0.0148767
0.0148716
0.0148529
0.0148192
0.0147634
0.0146573
0.0144752
0.0141599
0.0136007
0.0125784
0.0108153
0.00787992
0.00356413
-0.00219981
-0.00948377
-0.0176223
-0.0259018
-0.0328767
-0.0379824
-0.0398128
-0.0390909
-0.0346644
-0.02742
-0.0194817
-0.0115748
-0.00460632
0.00119328
0.0055887
0.00892919
0.011212
0.0125766
0.013383
0.0138429
0.0140982
0.0142546
0.014355
0.0144284
0.0144853
0.0145301
0.0144512
0.0144507
0.0144726
0.0145008
0.0145435
0.0146034
0.0146841
0.0147745
0.0148609
0.0148865
0.0146918
0.0140014
0.0122975
0.00909697
0.00404207
-0.00300563
-0.0117415
-0.0213029
-0.0301977
-0.0373174
-0.0415175
-0.0433981
-0.0410364
-0.0354016
-0.0281863
-0.0203135
-0.0126055
-0.00551452
0.000399206
0.0050641
0.00836744
0.010464
0.011734
0.0124928
0.0129528
0.0132384
0.0134112
0.0135208
0.0135995
0.0136786
0.0139829
0.0139509
0.0139571
0.013997
0.0140856
0.0142277
0.0144362
0.0147199
0.015079
0.0154758
0.0157736
0.0154691
0.0141228
0.0115567
0.00699918
0.000234294
-0.00881094
-0.0197364
-0.0313511
-0.0418083
-0.0507359
-0.0540356
-0.0519466
-0.0466528
-0.0389525
-0.0298885
-0.0204289
-0.0112782
-0.00362658
0.00220995
0.00628831
0.00886558
0.0104655
0.0114522
0.0120852
0.0124771
0.0127225
0.0128643
0.0129413
0.0129666
0.0134788
0.0134418
0.0134452
0.013487
0.0135853
0.0137457
0.0139834
0.014306
0.0146953
0.0150845
0.0154733
0.0152519
0.0140992
0.0117926
0.00757481
0.00107531
-0.00767539
-0.0189484
-0.0318767
-0.0442903
-0.0562681
-0.0600763
-0.0577574
-0.0520128
-0.0429492
-0.0329895
-0.0225859
-0.0127331
-0.00485976
0.00111155
0.00531463
0.00801994
0.00969481
0.0107752
0.0114748
0.0119167
0.0121854
0.0123385
0.0124055
0.0123631
0.0128827
0.0128812
0.0129013
0.0129401
0.0130092
0.0131155
0.013273
0.013482
0.0137238
0.0138186
0.0137182
0.0129755
0.0114096
0.00874063
0.00444747
-0.00175824
-0.00974862
-0.0196361
-0.030962
-0.0417351
-0.0504899
-0.0533467
-0.0507187
-0.0448701
-0.0363493
-0.0270169
-0.0176731
-0.00932523
-0.00280166
0.00219159
0.00574078
0.00808242
0.00957546
0.0105049
0.0110891
0.0114513
0.0116672
0.0117806
0.011826
0.011795
0.0121793
0.0122051
0.0122127
0.0122107
0.0122057
0.012199
0.0121907
0.0121639
0.0120739
0.0117143
0.0108822
0.00925655
0.00672396
0.00311405
-0.00162476
-0.00759974
-0.0145075
-0.0220825
-0.0296621
-0.0361048
-0.0395604
-0.0391284
-0.0356553
-0.0302829
-0.0234638
-0.0162976
-0.00947443
-0.00360351
0.00110733
0.00479533
0.0072918
0.00890867
0.0099064
0.0105159
0.0108896
0.011111
0.0112368
0.0112989
0.0113306
0.0113471
0.0113965
0.0113886
0.0113451
0.0112801
0.0111857
0.0110503
0.0108389
0.0105031
0.00994984
0.00900241
0.00739227
0.00501988
0.00178583
-0.00254416
-0.00770343
-0.0135954
-0.0198179
-0.0254176
-0.0292887
-0.0310628
-0.0306515
-0.0273686
-0.02281
-0.0174848
-0.0115983
-0.00606678
-0.00127444
0.00259653
0.00558521
0.0077825
0.00916196
0.00996885
0.0104361
0.0107078
0.0108695
0.0109602
0.0110116
0.0110407
0.0110589
0.011063
0.0105979
0.010525
0.0104376
0.0103237
0.0101611
0.00991412
0.00952398
0.00889155
0.00786348
0.00625847
0.00382321
0.000535112
-0.00351477
-0.00855155
-0.0142583
-0.0201694
-0.0258887
-0.0300112
-0.0312974
-0.0298388
-0.027369
-0.0226458
-0.0168396
-0.0105427
-0.00428612
0.000907974
0.00490287
0.00772149
0.00945304
0.010355
0.0107667
0.0108979
0.010936
0.0109217
0.0108986
0.0108711
0.0108455
0.0108241
0.0108059
0.0107921
0.00988326
0.00980835
0.00971634
0.00958059
0.00936692
0.00902623
0.00848884
0.00762872
0.0062356
0.00404477
0.000800643
-0.00365444
-0.00927305
-0.0157556
-0.0225791
-0.029089
-0.034611
-0.0383128
-0.0386046
-0.0347763
-0.0292566
-0.022164
-0.0142547
-0.00639147
0.000177898
0.00517356
0.00862297
0.0106286
0.0117054
0.0119232
0.0116918
0.0114056
0.0111218
0.0108921
0.0107134
0.0105906
0.0105086
0.0104582
0.0104311
0.010443
0.00932301
0.00931853
0.0092423
0.00908968
0.0088308
0.00841829
0.00777749
0.00677982
0.00518604
0.00267063
-0.00106911
-0.00620989
-0.0129949
-0.0207693
-0.0286961
-0.0363244
-0.0420097
-0.0463968
-0.0464846
-0.0407118
-0.0319663
-0.0225268
-0.0126705
-0.00367241
0.00280364
0.00742293
0.0103105
0.0116924
0.0123939
0.0123246
0.011814
0.0113677
0.010907
0.0105837
0.0103319
0.010163
0.0100632
0.0100188
0.0100133
0.0100437
0.00884742
0.00888963
0.00883553
0.00869753
0.00844273
0.00804461
0.00741372
0.00644723
0.00492614
0.00252171
-0.00103768
-0.00578436
-0.0120877
-0.0196897
-0.0275904
-0.0353321
-0.041263
-0.0457634
-0.0461518
-0.0404789
-0.0321107
-0.022263
-0.0123682
-0.00407238
0.00202484
0.00645133
0.00922975
0.0106363
0.0113179
0.0113399
0.0110366
0.0107276
0.0103537
0.010076
0.00986438
0.0097167
0.00962332
0.0095804
0.00957002
0.00959529
0.00841593
0.00843016
0.00839956
0.00831583
0.00814739
0.00786378
0.00739996
0.00665627
0.00547549
0.00366284
0.00092343
-0.00275059
-0.0074674
-0.013298
-0.0196419
-0.0259849
-0.0312574
-0.0352508
-0.0367151
-0.0340773
-0.0288928
-0.0219311
-0.0145684
-0.0081693
-0.00272968
0.00154112
0.00467178
0.00680222
0.00820111
0.00903368
0.00937319
0.00945519
0.00936912
0.0092735
0.00919294
0.0091381
0.00910052
0.00907898
0.00906329
0.00905032
0.00812023
0.0081055
0.00808417
0.00804319
0.00796212
0.00781783
0.00757529
0.00717132
0.0064918
0.00542904
0.00372364
0.00129002
-0.00172452
-0.00545884
-0.00975138
-0.0143542
-0.0187756
-0.0224857
-0.0253033
-0.0261704
-0.0249544
-0.0221508
-0.0182112
-0.0135459
-0.00882127
-0.00461104
-0.000982287
0.00199645
0.0042784
0.00594578
0.00700683
0.00761631
0.00793798
0.00812652
0.00824519
0.00832925
0.00838818
0.0084268
0.00844187
0.00842473
0.00793518
0.00793889
0.0079387
0.00793762
0.00792703
0.00790345
0.00785596
0.00776584
0.0075566
0.00717868
0.00648592
0.00527786
0.00355082
0.00114307
-0.00208274
-0.00598201
-0.0103665
-0.0144557
-0.0180997
-0.0209936
-0.0224052
-0.0230197
-0.0220006
-0.0189637
-0.0147995
-0.010489
-0.00628881
-0.00261749
0.000369079
0.00269489
0.00441796
0.00559824
0.00637462
0.0068685
0.00718388
0.00739476
0.00754064
0.00764103
0.00770834
0.00774629
0.00771823
0.00772865
0.00775899
0.00780117
0.00785619
0.00793169
0.00803156
0.0081628
0.00829129
0.00840544
0.00842851
0.0081113
0.00716886
0.00550611
0.00281456
-0.000841064
-0.00542443
-0.0102829
-0.0151866
-0.0198349
-0.0236046
-0.0268833
-0.0275055
-0.0254388
-0.0216589
-0.0170793
-0.0121386
-0.00753306
-0.00352919
-0.000272988
0.00217487
0.00391495
0.00507966
0.00581494
0.00628314
0.00658375
0.00678306
0.00691924
0.00701952
0.00710221
0.00743918
0.00742977
0.0074478
0.00749046
0.0075742
0.0077061
0.00789726
0.00815812
0.0084959
0.00888456
0.00923936
0.00950664
0.00918956
0.00826882
0.00630942
0.00317155
-0.00142958
-0.00751296
-0.0142144
-0.0209971
-0.0273026
-0.0328769
-0.0343842
-0.0326169
-0.0289108
-0.0237052
-0.0178376
-0.0120136
-0.00673868
-0.00251542
0.000576587
0.00277737
0.0042095
0.00510696
0.00568271
0.00605825
0.00629625
0.00644249
0.00653299
0.00658088
0.00710565
0.00707564
0.00707811
0.00711042
0.00719255
0.00732871
0.00753266
0.00781291
0.00818736
0.00863559
0.00909153
0.00958859
0.00955069
0.00897318
0.00743203
0.00460743
0.000208835
-0.00619359
-0.0137009
-0.0215704
-0.0287487
-0.0355803
-0.0370283
-0.035442
-0.0315289
-0.025934
-0.0196537
-0.0133576
-0.00772273
-0.00325184
-4.4687e-05
0.00227514
0.00374175
0.00471778
0.0053424
0.00574283
0.00599886
0.00614385
0.00621049
0.0061888
0.0067091
0.00669158
0.00669553
0.00671876
0.00677189
0.00685917
0.00699276
0.00717296
0.00738536
0.00761892
0.0077207
0.00770953
0.00728228
0.00629558
0.00452818
0.00174926
-0.00227396
-0.00756554
-0.0140149
-0.0206768
-0.026537
-0.0308844
-0.031628
-0.0299592
-0.0262084
-0.0212126
-0.0157282
-0.0103854
-0.00572621
-0.0020669
0.000618462
0.00255076
0.00383374
0.00466266
0.00519372
0.00553291
0.00574149
0.0058488
0.00589087
0.00585943
0.00625341
0.00626002
0.00625717
0.00624499
0.0062279
0.00620856
0.0061889
0.00614564
0.00602915
0.00577107
0.00521889
0.00430513
0.00298467
0.00122811
-0.00107479
-0.0039266
-0.00741496
-0.0112229
-0.0151837
-0.0188484
-0.0216012
-0.0227961
-0.0217871
-0.019529
-0.0163628
-0.012604
-0.00871697
-0.00510068
-0.00203389
0.000395672
0.00222816
0.00350483
0.00434613
0.00487444
0.00520238
0.00540113
0.00551433
0.00557145
0.00559572
0.00559944
0.00574535
0.00573812
0.00569849
0.00562691
0.00552297
0.00537389
0.00515761
0.00483256
0.00433084
0.00353789
0.00237431
0.000730764
-0.00139802
-0.00395395
-0.00691644
-0.0100729
-0.0132078
-0.0157188
-0.0171072
-0.0174215
-0.0171556
-0.0157567
-0.0135668
-0.0107475
-0.00771447
-0.00466557
-0.00199582
0.000185501
0.00188116
0.0031744
0.00412011
0.00470437
0.00504904
0.00523998
0.00534569
0.00540375
0.0054348
0.00545083
0.00546035
0.00546994
0.00522959
0.00517295
0.00508817
0.00496536
0.00479305
0.00454176
0.00416414
0.00358834
0.00272999
0.0014717
-0.000261168
-0.00255434
-0.00545269
-0.00883272
-0.0125115
-0.016069
-0.0189131
-0.0203287
-0.0198319
-0.0176963
-0.0152109
-0.012163
-0.00911529
-0.00575647
-0.00244633
0.000478151
0.00265336
0.00414714
0.00506571
0.0055347
0.00571619
0.00573256
0.00567782
0.00561392
0.00554916
0.00549619
0.00545619
0.00542494
0.00540173
0.00539108
0.00478881
0.00471936
0.00461763
0.00447386
0.00426544
0.00395063
0.00347063
0.00272527
0.00158007
-0.000105915
-0.00244124
-0.00557938
-0.00948069
-0.0139096
-0.0184561
-0.0224456
-0.0254687
-0.0262155
-0.0245856
-0.0203066
-0.0156198
-0.0105961
-0.0060026
-0.00174482
0.00183935
0.00434292
0.00592192
0.00674458
0.00699149
0.00686934
0.0065702
0.00624613
0.00595396
0.00573458
0.00556649
0.00544393
0.0053617
0.00530755
0.0052765
0.00526351
0.00446755
0.00444258
0.00436249
0.00422559