/*--------------------------------*- C++ -*----------------------------------*\
| =========                 |                                                 |
| \\      /  F ield         | OpenFOAM: The Open Source CFD Toolbox           |
|  \\    /   O peration     | Version:  v2106                                 |
|   \\  /    A nd           | Website:  www.openfoam.com                      |
|    \\/     M anipulation  |                                                 |
\*---------------------------------------------------------------------------*/
FoamFile
{
    version     2.0;
    format      ascii;
    arch        "LSB;label=32;scalar=64";
    class       volVectorField;
    location    "0";
    object      U;
}
// * * * * * * * * * * * * * * * * * * * * * * * * * * * * * * * * * * * * * //

dimensions      [0 1 -1 0 0 0 0];

internalField   nonuniform List<vector> 
11644
(
(0.998163 -0.00024775 5.19709e-23)
(0.998047 -0.000661746 1.4332e-22)
(0.997973 -0.000985859 7.68949e-23)
(0.997952 -0.00131793 0)
(0.997948 -0.00167439 0)
(0.997946 -0.00205546 0)
(0.997945 -0.00245762 0)
(0.997942 -0.0028755 0)
(0.997938 -0.00330015 0)
(0.997938 -0.00371787 0)
(0.997932 -0.00410869 0)
(0.997894 -0.00446532 0)
(0.997926 -0.00473415 0)
(0.998112 -0.00490156 0)
(0.997985 -0.00496798 0)
(0.997961 -0.0048907 0)
(0.997919 -0.00463695 0)
(0.997847 -0.00422058 0)
(0.997964 -0.00377809 0)
(0.99804 -0.00330952 3.35677e-30)
(0.997831 -0.00266895 -3.35316e-30)
(0.997439 -0.00167151 0)
(0.997266 -0.000404133 0)
(0.997522 0.000682951 0)
(0.997825 0.00132424 0)
(0.997904 0.00175529 0)
(0.99807 0.00216039 0)
(0.99795 0.00235877 0)
(0.997902 0.00247219 0)
(0.997915 0.00247715 0)
(0.997927 0.00239709 0)
(0.997933 0.00225062 0)
(0.997933 0.00205611 0)
(0.997934 0.00182798 0)
(0.997935 0.00157905 0)
(0.997939 0.00132312 0)
(0.997946 0.00106367 0)
(0.997962 0.000809184 0)
(0.998023 0.00055606 0)
(0.998129 0.000213126 1.00766e-23)
(0.99901 -0.000493927 6.67562e-23)
(0.99894 -0.00150614 6.18377e-23)
(0.998898 -0.0025488 3.3211e-23)
(0.998911 -0.00360728 0)
(0.99896 -0.00470066 0)
(0.999024 -0.0058474 0)
(0.99909 -0.00705395 0)
(0.999151 -0.00831162 0)
(0.99919 -0.00960323 0)
(0.999196 -0.0108924 0)
(0.999133 -0.0121383 0)
(0.999056 -0.0132447 0)
(0.998835 -0.014169 0)
(0.998273 -0.0148494 0)
(0.997989 -0.0150369 0)
(0.997416 -0.0148046 2.99651e-24)
(0.996841 -0.0140895 2.48976e-24)
(0.996608 -0.0130326 -4.75032e-23)
(0.996224 -0.0114377 -3.58083e-23)
(0.995634 -0.00911775 -5.82326e-22)
(0.995074 -0.00621565 7.78032e-22)
(0.994849 -0.00318678 -1.88492e-22)
(0.995114 -0.000485978 7.72396e-23)
(0.995661 0.00182467 -3.21875e-24)
(0.996246 0.00388199 -3.76746e-24)
(0.996765 0.00552984 0)
(0.996973 0.00663174 0)
(0.997542 0.00735076 0)
(0.99794 0.00763825 0)
(0.998183 0.00759365 0)
(0.998351 0.00729706 0)
(0.998486 0.00680339 0)
(0.998578 0.00617333 0)
(0.998635 0.00545175 0)
(0.998666 0.00467264 0)
(0.998679 0.0038605 0)
(0.998688 0.00303211 0)
(0.998711 0.00218633 0)
(0.998776 0.00131553 0)
(0.998859 0.000437302 0)
(1.00068 -0.000759472 0)
(1.00066 -0.00232604 0)
(1.00071 -0.003971 0)
(1.00081 -0.00568387 0)
(1.00097 -0.00747072 6.09806e-23)
(1.00117 -0.00935395 0)
(1.00137 -0.0113422 0)
(1.00155 -0.0134318 0)
(1.00169 -0.0155964 0)
(1.00171 -0.0178027 0)
(1.00162 -0.0199363 0)
(1.00121 -0.0219558 0)
(1.00052 -0.023651 2.86965e-24)
(0.999834 -0.0247911 -2.98562e-23)
(0.998296 -0.0254219 7.48858e-23)
(0.996849 -0.0252248 5.55703e-22)
(0.995514 -0.0242201 -7.20572e-22)
(0.993725 -0.0219919 1.00431e-21)
(0.991874 -0.0183921 -9.91358e-22)
(0.99033 -0.0137511 -9.38579e-22)
(0.989564 -0.00868141 1.01179e-21)
(0.989702 -0.00367315 -1.37975e-22)
(0.990632 0.000801899 -9.19039e-23)
(0.991859 0.00470646 -1.95639e-22)
(0.993189 0.00810777 4.72542e-22)
(0.99456 0.0107336 -7.60078e-23)
(0.99621 0.0125657 5.88288e-23)
(0.997128 0.013497 -3.58897e-24)
(0.997971 0.0137805 0)
(0.998729 0.0134961 0)
(0.999317 0.0127876 0)
(0.999692 0.0117958 0)
(0.999939 0.0106048 0)
(1.00009 0.00928961 0)
(1.00016 0.00790358 0)
(1.0002 0.00647915 0)
(1.00021 0.0050375 0)
(1.00024 0.00358139 0)
(1.00029 0.00212007 0)
(1.00035 0.000692611 0)
(1.00313 -0.00100819 0)
(1.00317 -0.00307751 0)
(1.00331 -0.00524126 0)
(1.00355 -0.0075015 0)
(1.00388 -0.00989078 0)
(1.00427 -0.0124345 0)
(1.00468 -0.0151493 0)
(1.00507 -0.018038 0)
(1.00537 -0.0210902 0)
(1.0055 -0.0242273 0)
(1.00525 -0.0274358 5.6095e-26)
(1.00465 -0.0304987 2.05887e-23)
(1.00348 -0.0332265 -1.53076e-22)
(1.00129 -0.0354941 -1.31557e-22)
(0.999179 -0.036463 -1.13559e-22)
(0.996081 -0.0362714 6.36646e-22)
(0.992213 -0.0343 9.64967e-23)
(0.988081 -0.0303448 -2.39237e-21)
(0.984543 -0.0245001 1.13232e-21)
(0.981918 -0.0175975 1.35139e-21)
(0.980733 -0.0101682 4.55233e-22)
(0.981142 -0.00262313 -8.81584e-22)
(0.983103 0.00434985 4.30027e-22)
(0.985613 0.0102367 -1.32104e-21)
(0.988398 0.0150002 2.48916e-22)
(0.991389 0.0184518 2.90322e-22)
(0.993822 0.0205837 2.32287e-22)
(0.996727 0.0214774 3.7263e-23)
(0.998723 0.0213865 6.39782e-23)
(1.00009 0.0205524 -4.96497e-25)
(1.00105 0.0191691 0)
(1.00175 0.0174121 0)
(1.00216 0.0154621 0)
(1.0024 0.0134028 0)
(1.00251 0.0113024 0)
(1.00255 0.00919652 0)
(1.00256 0.00710672 0)
(1.00256 0.00503586 0)
(1.00259 0.00299081 0)
(1.00265 0.000987029 0)
(1.00621 -0.00122273 0)
(1.00631 -0.00370274 0)
(1.00658 -0.00627537 0)
(1.00701 -0.00898256 0)
(1.00757 -0.0118752 0)
(1.00823 -0.0149861 0)
(1.00894 -0.0183526 0)
(1.00964 -0.0219974 0)
(1.01021 -0.025917 0)
(1.01048 -0.0301394 -5.99738e-24)
(1.01041 -0.0345725 1.91862e-22)
(1.00974 -0.0390894 -3.72927e-22)
(1.00802 -0.0433466 7.86266e-22)
(1.00575 -0.0465177 -4.91014e-21)
(1.00071 -0.048758 2.70929e-21)
(0.995037 -0.0485548 2.0427e-21)
(0.988473 -0.0460152 -9.83796e-22)
(0.980306 -0.0403842 -2.09917e-21)
(0.973821 -0.0318451 6.93963e-21)
(0.969196 -0.0210759 -3.35045e-21)
(0.967501 -0.00926847 4.06671e-21)
(0.968905 0.00220043 -8.83092e-21)
(0.972684 0.012245 3.05905e-21)
(0.977392 0.0201096 8.06828e-22)
(0.982427 0.0259495 -2.2512e-21)
(0.987813 0.0297954 -2.73401e-21)
(0.99318 0.031551 5.98275e-21)
(0.996682 0.0319023 -1.37358e-21)
(0.999915 0.030951 5.89147e-22)
(1.00243 0.0290535 -2.81986e-22)
(1.00401 0.0265852 2.58056e-23)
(1.00492 0.0237789 0)
(1.00547 0.0208087 0)
(1.00574 0.0178336 0)
(1.00583 0.0149008 0)
(1.00581 0.0120405 0)
(1.00576 0.00925634 0)
(1.00572 0.00654708 0)
(1.00571 0.00388206 0)
(1.00574 0.00128646 0)
(1.00977 -0.0013856 0)
(1.00995 -0.00419844 0)
(1.01037 -0.00710759 0)
(1.01102 -0.010161 0)
(1.01187 -0.0134286 0)
(1.01289 -0.0169866 0)
(1.01401 -0.0208952 0)
(1.01516 -0.0252106 0)
(1.0162 -0.0300114 -1.64281e-24)
(1.01709 -0.0353809 -1.25795e-22)
(1.01766 -0.0413171 4.43664e-22)
(1.01727 -0.0476476 -1.31534e-22)
(1.01524 -0.0538664 -9.65502e-22)
(1.01008 -0.0602988 -3.66723e-23)
(1.00348 -0.0632898 -1.98267e-21)
(0.993019 -0.0635092 4.7335e-21)
(0.980518 -0.0609311 6.14184e-22)
(0.967457 -0.0532688 -4.15187e-21)
(0.956494 -0.0399391 6.70245e-22)
(0.949443 -0.0236532 9.22248e-22)
(0.947152 -0.00591271 -1.83715e-21)
(0.950252 0.011317 -2.50746e-22)
(0.957393 0.0261242 4.86915e-21)
(0.966682 0.0365382 -2.02049e-21)
(0.976554 0.0425641 -3.64918e-21)
(0.985056 0.0459572 2.24663e-21)
(0.991596 0.0469096 -1.17017e-23)
(0.998542 0.0449062 -4.55321e-22)
(1.00289 0.0422142 5.86841e-22)
(1.00614 0.0388518 1.6459e-22)
(1.00846 0.0349249 4.27704e-22)
(1.00967 0.0307436 -6.32903e-23)
(1.01016 0.0265506 0)
(1.01032 0.0224678 0)
(1.01026 0.0185775 0)
(1.01009 0.0148786 0)
(1.0099 0.0113589 0)
(1.00973 0.00799357 0)
(1.00963 0.00474732 0)
(1.00962 0.00155926 0)
(1.01366 -0.001462 0)
(1.01393 -0.00447523 0)
(1.01453 -0.00758303 0)
(1.01544 -0.0108818 0)
(1.01665 -0.0144369 0)
(1.01811 -0.0183368 0)
(1.01978 -0.0226657 0)
(1.02156 -0.027543 7.87162e-25)
(1.02358 -0.0332255 -7.9904e-23)
(1.02567 -0.0399246 8.78192e-23)
(1.02717 -0.0477088 -5.73511e-22)
(1.02729 -0.0564566 8.35906e-22)
(1.02495 -0.0661306 3.13467e-24)
(1.02083 -0.0736892 -2.42479e-22)
(1.00884 -0.0826629 -1.03177e-21)
(0.993729 -0.0859127 1.62561e-21)
(0.979314 -0.0769923 1.98292e-21)
(0.961252 -0.0693439 2.35591e-21)
(0.943582 -0.0538007 2.14566e-21)
(0.931054 -0.0311621 8.15731e-21)
(0.926542 -0.00487352 5.2263e-21)
(0.93105 0.0198298 -4.24066e-21)
(0.941469 0.0394373 1.72996e-21)
(0.955355 0.0527681 4.41922e-21)
(0.971198 0.068143 -1.07911e-21)
(0.985298 0.0689613 4.0103e-22)
(0.997128 0.0653095 1.87722e-21)
(1.00305 0.0609638 3.58659e-24)
(1.0083 0.0552613 -9.81851e-22)
(1.01203 0.0494213 -1.90662e-22)
(1.01466 0.0436579 1.44733e-22)
(1.0161 0.0379124 -9.98468e-23)
(1.01652 0.032334 1.5602e-24)
(1.01631 0.0270382 0)
(1.0159 0.0221277 0)
(1.01541 0.0175857 0)
(1.01494 0.0133632 0)
(1.01456 0.00936918 0)
(1.01431 0.00555988 0)
(1.01421 0.00184814 0)
(1.01773 -0.00157178 0)
(1.01809 -0.00462774 0)
(1.01889 -0.00783249 0)
(1.0201 -0.0111944 0)
(1.02171 -0.0148565 0)
(1.02371 -0.0189045 0)
(1.02604 -0.0234722 0)
(1.02883 -0.0287989 1.78878e-23)
(1.03248 -0.0353257 -2.24247e-23)
(1.03621 -0.0434097 3.33953e-22)
(1.03922 -0.0530922 -3.78602e-22)
(1.04071 -0.0641941 -4.0969e-23)
(1.03999 -0.0760132 -1.66174e-21)
(1.03004 -0.0884208 -5.82623e-22)
(1.02066 -0.0956766 1.37641e-21)
(1.00503 -0.103752 -9.7229e-22)
(0.977251 -0.108427 -2.8075e-21)
(0.945912 -0.101358 1.85541e-21)
(0.91326 -0.0814711 3.60925e-21)
(0.888741 -0.0458692 -3.05683e-21)
(0.880163 -0.00104313 2.60443e-21)
(0.890845 0.0410278 -4.30134e-21)
(0.913316 0.0714548 -3.01296e-21)
(0.940475 0.0876015 -1.17242e-21)
(0.964433 0.0937271 -3.80352e-21)
(0.985434 0.0903577 3.37726e-21)
(0.999438 0.0833417 -8.79829e-22)
(1.01296 0.0777309 -5.46818e-22)
(1.01798 0.0684993 1.94702e-22)
(1.02106 0.0597618 -3.16628e-22)
(1.02317 0.0518035 -9.83153e-23)
(1.02428 0.0444567 -1.36448e-22)
(1.02455 0.0375215 1.50008e-22)
(1.02382 0.0310613 0)
(1.02277 0.0251569 0)
(1.02175 0.0198269 0)
(1.02085 0.0149498 0)
(1.02013 0.0104512 0)
(1.01965 0.0061337 0)
(1.01944 0.00203628 0)
(1.02181 -0.00142678 0)
(1.02227 -0.00449962 0)
(1.02326 -0.00764191 0)
(1.02478 -0.0109872 0)
(1.02684 -0.0146175 0)
(1.02943 -0.0186511 0)
(1.03257 -0.0232574 2.68819e-24)
(1.03691 -0.0288614 7.91899e-23)
(1.04264 -0.0360637 -1.0771e-22)
(1.04842 -0.0451035 -2.82364e-23)
(1.0537 -0.0560721 -1.6962e-24)
(1.05781 -0.0694175 5.24693e-22)
(1.05953 -0.0871812 -4.02526e-22)
(1.04922 -0.10308 1.1497e-21)
(1.0399 -0.118141 4.975e-23)
(1.0204 -0.13708 -1.30008e-21)
(0.988084 -0.14747 -1.49419e-21)
(0.939771 -0.152696 2.53951e-21)
(0.880622 -0.132131 -1.24919e-21)
(0.829065 -0.0795828 3.21088e-22)
(0.80848 -0.00115023 -4.4435e-21)
(0.829319 0.0719641 -6.35585e-21)
(0.875297 0.118648 4.68228e-21)
(0.92456 0.136719 -7.46851e-22)
(0.965046 0.134899 -1.32716e-21)
(0.99605 0.12676 -3.36887e-22)
(1.01229 0.110942 4.83544e-22)
(1.02885 0.0961198 -1.9215e-22)
(1.03233 0.0811125 4.47804e-22)
(1.03365 0.0687008 8.49219e-23)
(1.03436 0.058208 -7.30043e-22)
(1.03441 0.0492619 1.4766e-22)
(1.03402 0.0412514 1.13197e-22)
(1.03272 0.0338498 2.52124e-23)
(1.03074 0.0271715 0)
(1.02892 0.0212302 0)
(1.0274 0.0158933 0)
(1.02624 0.0110132 0)
(1.02547 0.00653012 0)
(1.02511 0.00211746 0)
(1.02575 -0.001446 0)
(1.02631 -0.00429305 0)
(1.02748 -0.00720901 0)
(1.02931 -0.010352 0)
(1.0318 -0.0137395 0)
(1.03499 -0.0175322 0)
(1.03915 -0.0219184 -1.74745e-23)
(1.04543 -0.0274696 4.3758e-23)
(1.05336 -0.0347267 6.65387e-23)
(1.0616 -0.0438636 -2.56535e-23)
(1.06991 -0.0551043 -8.19485e-23)
(1.07814 -0.0693404 1.33894e-22)
(1.08546 -0.0893573 -1.32897e-22)
(1.081 -0.111719 -1.07328e-22)
(1.07577 -0.136689 -7.80277e-23)
(1.05423 -0.172492 5.19277e-22)
(1.0188 -0.204286 8.58507e-22)
(0.953797 -0.239555 -1.10096e-21)
(0.844846 -0.246622 1.0806e-21)
(0.714733 -0.173395 -4.0729e-22)
(0.651386 -0.00946117 -2.23787e-22)
(0.711407 0.149639 -1.84e-21)
(0.82833 0.220192 -4.98731e-22)
(0.923221 0.220693 -6.23101e-22)
(0.987756 0.197068 2.36943e-22)
(1.0271 0.16633 -3.37728e-21)
(1.04003 0.136068 3.29541e-22)
(1.05328 0.110969 -2.41728e-22)
(1.05234 0.0902413 3.50823e-22)
(1.05016 0.0743352 -2.87661e-22)
(1.04823 0.0617839 1.08941e-22)
(1.04629 0.051441 3.27632e-23)
(1.04461 0.0426781 4.9824e-26)
(1.04254 0.0348446 -3.35558e-23)
(1.03949 0.0277848 0)
(1.03667 0.0215961 0)
(1.03438 0.0161421 0)
(1.03265 0.0111716 0)
(1.0315 0.00654502 0)
(1.03095 0.00219354 0)
(1.02942 -0.00133738 0)
(1.03005 -0.00387724 0)
(1.03143 -0.00660292 0)
(1.03352 -0.00935077 0)
(1.03638 -0.0123205 0)
(1.04011 -0.0155834 0)
(1.04547 -0.0194356 1.07582e-23)
(1.05368 -0.0244235 -3.48634e-24)
(1.0636 -0.0307592 4.11798e-23)
(1.0744 -0.0385976 7.03125e-23)
(1.08636 -0.0485635 -3.42111e-23)
(1.09989 -0.0615122 9.66703e-24)
(1.11408 -0.0781443 -4.60388e-23)
(1.12028 -0.105914 2.92194e-22)
(1.12889 -0.139581 2.7207e-23)
(1.12844 -0.191216 -2.33778e-22)
(1.11058 -0.26211 -3.11799e-24)
(1.05538 -0.373592 2.97015e-23)
(0.881956 -0.502888 -9.55338e-22)
(0.489672 -0.499144 -4.32141e-20)
(0.187236 -0.0155504 -1.48204e-20)
(0.490218 0.443133 -2.68234e-20)
(0.840267 0.44991 1.80579e-21)
(0.997656 0.344205 -1.64878e-22)
(1.05774 0.257664 -1.51967e-23)
(1.08177 0.19397 1.61927e-22)
(1.08138 0.151872 3.93421e-23)
(1.08489 0.113999 1.52688e-22)
(1.07732 0.0920494 -4.61867e-23)
(1.07019 0.0749067 -1.57021e-22)
(1.06428 0.0611462 6.63025e-23)
(1.05941 0.0500431 2.5918e-23)
(1.05573 0.0410574 -3.51534e-24)
(1.05258 0.0333686 2.78713e-24)
(1.04844 0.0264708 0)
(1.04446 0.0204278 0)
(1.0413 0.0151567 0)
(1.03896 0.0104807 0)
(1.0374 0.0061084 0)
(1.03665 0.0020114 0)
(1.03273 -0.000989547 0)
(1.03338 -0.00328133 0)
(1.03482 -0.00549622 0)
(1.03709 -0.00785449 0)
(1.04027 -0.0103541 0)
(1.04447 -0.0129686 0)
(1.05094 -0.0159747 9.99573e-25)
(1.06062 -0.0197329 8.79591e-24)
(1.072 -0.024132 1.70476e-23)
(1.08481 -0.0291756 -1.83601e-23)
(1.09998 -0.0354707 4.12375e-23)
(1.11861 -0.0436358 4.23662e-23)
(1.14128 -0.0541666 -1.40619e-22)
(1.15603 -0.0797839 1.32331e-22)
(1.18856 -0.108709 -1.33928e-23)
(1.21789 -0.162411 4.96129e-23)
(1.25847 -0.24569 -1.25835e-22)
(1.31948 -0.403711 1.88749e-21)
(1.03485 -0.567956 -1.23353e-19)
(0.988116 0.510114 1.37983e-20)
(1.19914 0.387693 -1.22814e-22)
(1.16826 0.261353 2.32972e-22)
(1.15034 0.186604 -2.80045e-24)
(1.13096 0.148879 -2.05985e-23)
(1.11952 0.105176 -2.00456e-23)
(1.1048 0.0854068 7.99445e-24)
(1.09192 0.0688062 -1.81078e-24)
(1.08125 0.0552516 2.71209e-24)
(1.07292 0.0445965 -5.67333e-24)
(1.06677 0.0361866 3.93649e-24)
(1.06216 0.0292362 2.73808e-24)
(1.05695 0.0231342 0)
(1.05181 0.0178046 0)
(1.04778 0.0131926 0)
(1.04482 0.00911417 0)
(1.04291 0.00540556 0)
(1.04195 0.00178261 0)
(1.03553 -0.000961842 0)
(1.03629 -0.00279555 0)
(1.03781 -0.00458033 0)
(1.04021 -0.00645564 0)
(1.04352 -0.00828769 0)
(1.04793 -0.0100851 0)
(1.05495 -0.0119418 -1.44645e-24)
(1.06525 -0.0139167 4.15147e-24)
(1.07704 -0.0155445 -3.8801e-24)
(1.0907 -0.0167268 1.8869e-25)
(1.10705 -0.0176962 3.91716e-23)
(1.12794 -0.0185757 -4.56855e-24)
(1.15473 -0.0184358 1.63818e-22)
(1.18176 -0.034549 -4.49939e-22)
(1.22903 -0.0449795 9.83695e-22)
(1.28327 -0.0752477 7.50673e-23)
(1.36937 -0.115652 3.75936e-22)
(1.51349 -0.161381 3.02941e-21)
(0.0244148 -0.0178 6.06174e-19)
(0.0293306 -0.0253891 -1.00146e-19)
(1.32605 0.252288 -1.35352e-22)
(1.2552 0.200904 4.5247e-24)
(1.20888 0.151249 1.91074e-22)
(1.17573 0.123074 3.37907e-22)
(1.15188 0.0857593 2.35743e-22)
(1.1306 0.0695897 -2.4946e-22)
(1.11236 0.0555725 2.0077e-23)
(1.0973 0.0440915 2.44732e-23)
(1.08555 0.0350907 -5.96069e-24)
(1.07679 0.0280698 2.13553e-24)
(1.07051 0.0224838 9.83591e-24)
(1.06427 0.0177743 0)
(1.05812 0.013689 0)
(1.05331 0.010156 0)
(1.04974 0.00694465 0)
(1.04738 0.00400686 0)
(1.04619 0.00120087 0)
(1.03788 -0.000851404 -5.84339e-25)
(1.03863 -0.00219835 0)
(1.04026 -0.0036935 0)
(1.04264 -0.0049961 0)
(1.04588 -0.00620576 0)
(1.05019 -0.00723206 0)
(1.05712 -0.00795226 -2.4548e-23)
(1.06688 -0.00790985 -1.85057e-23)
(1.07766 -0.00665233 1.71311e-22)
(1.09028 -0.00391009 -4.75454e-23)
(1.10588 0.000847269 5.91868e-22)
(1.12546 0.00810473 -1.09228e-21)
(1.15133 0.0205315 1.65072e-22)
(1.18342 0.0191674 1.65443e-21)
(1.23104 0.0304506 1.60989e-21)
(1.29281 0.0312178 -1.06632e-21)
(1.38065 0.0369301 9.86943e-22)
(1.47022 0.0626573 -6.251e-22)
(0.268945 0.00520453 -7.2882e-21)
(0.0349084 -0.0225288 5.8872e-21)
(1.23365 0.112978 2.0679e-22)
(1.28698 0.12892 -1.47209e-21)
(1.24255 0.10522 6.26167e-22)
(1.20777 0.0866159 5.41677e-22)
(1.17657 0.0574278 -1.26937e-22)
(1.15098 0.0463291 -2.47311e-22)
(1.12905 0.0365322 -6.82279e-22)
(1.1107 0.0285197 1.29601e-22)
(1.09606 0.0221678 -7.70703e-24)
(1.08485 0.0172262 -3.17697e-24)
(1.07679 0.0135306 3.78171e-24)
(1.06948 0.0106735 0)
(1.06264 0.00829924 0)
(1.05734 0.00624493 0)
(1.05349 0.00439011 0)
(1.05096 0.00268211 0)
(1.04982 0.00112193 0)
(1.04003 -0.000358382 8.68709e-26)
(1.04061 -0.00156668 0)
(1.042 -0.00253747 0)
(1.04423 -0.0034652 0)
(1.04732 -0.00427962 0)
(1.05138 -0.0048287 0)
(1.05732 -0.00463446 9.54764e-24)
(1.06536 -0.00297022 2.55209e-23)
(1.07404 0.000649544 -1.71635e-22)
(1.08408 0.00670668 3.2031e-22)
(1.09598 0.0161257 -2.82566e-22)
(1.10982 0.0294359 -4.82248e-22)
(1.1279 0.0494383 1.34787e-23)
(1.1576 0.0661643 -6.97474e-23)
(1.19451 0.0952556 -2.68745e-21)
(1.24983 0.128286 -6.43547e-22)
(1.32928 0.172154 7.56652e-22)
(1.42079 0.23333 -3.15666e-21)
(0.685262 0.0947438 3.87718e-22)
(0.230916 -0.237102 2.59943e-21)
(-0.137084 -0.316738 -9.643e-23)
(-0.211556 -0.087136 -8.20887e-22)
(0.00933764 -0.0346813 -5.84202e-22)
(1.06245 0.0465795 1.51216e-21)
(1.29366 0.0812201 -1.89696e-21)
(1.26201 0.0624398 1.17387e-21)
(1.22704 0.0472221 -3.42473e-21)
(1.19192 0.0239707 -1.34787e-21)
(1.16408 0.0180708 1.02333e-21)
(1.13993 0.0132248 -1.70384e-22)
(1.11959 0.00956435 3.57949e-23)
(1.10304 0.00666907 -6.52404e-23)
(1.09016 0.00449857 -2.06468e-23)
(1.08061 0.00309743 -1.06237e-23)
(1.07218 0.00245362 0)
(1.06492 0.00205948 0)
(1.05937 0.00162673 0)
(1.05544 0.0011573 0)
(1.05298 0.000610048 0)
(1.05169 1.19536e-06 0)
(1.0414 -0.000415186 8.63728e-23)
(1.04216 -0.00117032 0)
(1.04355 -0.00184959 0)
(1.04565 -0.00256851 0)
(1.04846 -0.00307282 0)
(1.05196 -0.00331254 0)
(1.0561 -0.0027071 -1.66214e-24)
(1.06155 -0.000355537 -1.5192e-23)
(1.06717 0.00422417 -1.28529e-22)
(1.07276 0.0115547 1.02651e-22)
(1.0787 0.0219664 3.33978e-22)
(1.08457 0.0367141 6.14956e-22)
(1.09047 0.0610412 -5.75332e-22)
(1.11026 0.0887116 1.45886e-21)
(1.12734 0.132074 2.53929e-21)
(1.1494 0.201828 -1.26375e-21)
(1.20093 0.287239 1.592e-21)
(1.25916 0.445943 -1.24659e-20)
(1.0453 0.57315 -1.91385e-21)
(0.427654 0.426277 8.27559e-20)
(-0.200008 0.376179 -1.51693e-21)
(-0.331757 0.321608 -1.22074e-20)
(0.206083 0.203296 6.14096e-21)
(1.03575 0.0856826 -4.53718e-22)
(1.32098 0.0498206 1.15209e-21)
(1.28428 0.0140793 -2.93275e-21)
(1.24013 0.0021902 4.17446e-21)
(1.19774 -0.0151199 -1.99954e-21)
(1.16802 -0.0137426 -1.81883e-22)
(1.14309 -0.0128173 -4.62056e-22)
(1.12215 -0.0113625 2.71882e-22)
(1.10494 -0.0102167 -6.04806e-23)
(1.09159 -0.00921226 2.51667e-23)
(1.08096 -0.0079483 3.41328e-25)
(1.07183 -0.00611364 0)
(1.06459 -0.00447667 0)
(1.05912 -0.00323971 0)
(1.05521 -0.00223422 0)
(1.05259 -0.00130457 0)
(1.05112 -0.000426767 -3.58123e-23)
(1.04254 -0.000560676 -5.15288e-23)
(1.0433 -0.00104598 0)
(1.04473 -0.00162618 0)
(1.0467 -0.00212035 0)
(1.04914 -0.00247869 0)
(1.05188 -0.00269076 0)
(1.05427 -0.00229395 0)
(1.05653 -0.000236971 -1.58228e-23)
(1.05879 0.00345691 -1.42651e-23)
(1.06063 0.00882435 1.80766e-22)
(1.06075 0.0168993 -8.90248e-23)
(1.0583 0.0285522 2.10169e-22)
(1.0529 0.0460728 3.40362e-22)
(1.03891 0.0785471 -2.39841e-22)
(1.04357 0.12823 -4.88336e-22)
(1.02694 0.192653 3.2693e-21)
(1.01438 0.303967 -6.35566e-22)
(0.957111 0.463222 -3.04265e-20)
(0.848678 0.677346 9.00262e-22)
(0.435461 0.887565 -1.05032e-20)
(-0.072654 0.888852 2.03593e-20)
(-0.0468949 0.62726 6.19531e-22)
(0.521012 0.327594 -7.77766e-21)
(1.18591 0.0575182 -3.01902e-20)
(1.37668 -0.0454797 -1.14315e-21)
(1.30191 -0.0580926 4.93395e-21)
(1.23226 -0.0687386 5.0279e-22)
(1.1921 -0.0589676 -1.42167e-21)
(1.16162 -0.0477876 7.17859e-22)
(1.13745 -0.0397399 -2.37655e-22)
(1.11746 -0.0325639 2.42383e-23)
(1.10127 -0.0270044 -1.85979e-23)
(1.08817 -0.0223745 3.42979e-23)
(1.07705 -0.0179639 0)
(1.06817 -0.0136911 0)
(1.06158 -0.0101642 0)
(1.05664 -0.00730721 0)
(1.05308 -0.00487024 0)
(1.05077 -0.00268616 0)
(1.04957 -0.000816579 6.56699e-23)
(1.0434 -0.000117826 -3.6448e-25)
(1.044 -0.000707662 0)
(1.04516 -0.00122947 0)
(1.04697 -0.00164626 0)
(1.04927 -0.00204431 0)
(1.05161 -0.00248708 0)
(1.05288 -0.00282299 0)
(1.05315 -0.00252969 0)
(1.05326 -0.00135083 -1.69155e-23)
(1.05288 0.000278363 4.78844e-23)
(1.04993 0.00273489 -6.81684e-23)
(1.04179 0.00627357 1.85761e-22)
(1.02603 0.0127232 -6.20467e-22)
(0.996967 0.0201944 3.56205e-22)
(0.974914 0.0674726 6.41013e-22)
(0.917103 0.116243 6.95774e-23)
(0.862496 0.201496 -2.8936e-21)
(0.744339 0.295496 9.82896e-22)
(0.478022 0.525069 -1.4862e-21)
(0.208488 0.743778 7.4197e-21)
(0.15713 0.705614 3.60096e-21)
(0.42864 0.40641 5.33075e-22)
(0.935077 0.0539209 1.08109e-20)
(1.4051 -0.163396 1.41356e-20)
(1.37446 -0.189087 -4.43225e-22)
(1.28692 -0.152343 1.89256e-22)
(1.20761 -0.131436 -1.6545e-22)
(1.1699 -0.102656 4.68041e-22)
(1.14302 -0.0805506 8.71574e-23)
(1.12204 -0.0643307 1.02358e-22)
(1.10517 -0.0511473 -9.01022e-23)
(1.0914 -0.0411098 1.75711e-23)
(1.07951 -0.0327718 0)
(1.06924 -0.0255912 0)
(1.0616 -0.0193779 0)
(1.05628 -0.0143492 0)
(1.05234 -0.0102614 9.62608e-23)
(1.04948 -0.00683412 1.33122e-22)
(1.04762 -0.00385944 7.93822e-23)
(1.04667 -0.00119153 0)
(1.0435 4.65833e-05 0)
(1.04429 -0.000215529 0)
(1.04553 -0.000524534 0)
(1.04736 -0.000949466 0)
(1.04975 -0.00149952 0)
(1.05218 -0.0023029 0)
(1.0534 -0.00352853 0)
(1.05339 -0.00510671 0)
(1.05336 -0.00706774 -2.05e-26)
(1.053 -0.0101165 1.28385e-24)
(1.05026 -0.0147132 2.40742e-24)
(1.0424 -0.0223534 1.71676e-22)
(1.02486 -0.030443 -4.56891e-22)
(0.989958 -0.0516337 9.18212e-22)
(0.941693 -0.0299662 1.08803e-20)
(0.856256 -0.0206368 -1.85496e-21)
(0.776701 0.0357884 6.72268e-22)
(0.520301 0.158937 4.37841e-21)
(0.249112 0.237765 1.55186e-21)
(0.210568 0.177679 3.54777e-21)
(0.462912 -0.0113014 3.34631e-21)
(0.86403 -0.253216 1.67019e-20)
(1.26015 -0.427783 -7.45986e-21)
(1.39796 -0.423309 -4.58472e-21)
(1.2754 -0.310664 1.51571e-21)
(1.22071 -0.236966 -6.83928e-22)
(1.15348 -0.176878 4.19269e-22)
(1.12866 -0.135456 -1.36408e-22)
(1.11133 -0.104724 7.9593e-24)
(1.09755 -0.0816101 -2.47257e-23)
(1.08623 -0.0633677 9.81526e-24)
(1.07632 -0.04964 -3.65593e-27)
(1.06703 -0.0386927 0)
(1.05878 -0.0298598 0)
(1.05305 -0.0225753 0)
(1.04936 -0.0167329 0)
(1.04664 -0.0119751 0)
(1.04466 -0.00801185 0)
(1.0434 -0.00455373 0)
(1.04284 -0.00145697 -1.42968e-23)
(1.04342 0.000124675 0)
(1.04437 0.00032445 0)
(1.04585 0.000401671 0)
(1.04793 0.000197461 0)
(1.05065 -0.000297907 0)
(1.05365 -0.00123503 0)
(1.05579 -0.00298101 0)
(1.05686 -0.00595628 0)
(1.05868 -0.0104611 0)
(1.0613 -0.0174703 0)
(1.06323 -0.0280743 -6.91086e-24)
(1.06291 -0.0455301 -5.74481e-23)
(1.05548 -0.0680859 1.85406e-23)
(1.03129 -0.109338 4.70991e-23)
(0.967208 -0.131699 3.34625e-20)
(0.862438 -0.176646 1.95424e-21)
(0.635882 -0.120101 1.43992e-20)
(0.485367 -0.0952139 9.27369e-22)
(0.431322 -0.252302 3.54126e-21)
(0.510649 -0.500777 1.28635e-20)
(0.745543 -0.708329 -9.59153e-21)
(1.00636 -0.785255 -8.49422e-21)
(1.1759 -0.696467 2.28597e-21)
(1.18958 -0.508041 -1.21349e-21)
(1.14031 -0.352497 -2.48419e-21)
(1.12168 -0.273856 3.38251e-22)
(1.0814 -0.194404 -3.6523e-24)
(1.07521 -0.148318 3.5098e-23)
(1.07026 -0.114244 -4.76728e-23)
(1.0665 -0.0877873 3.52334e-24)
(1.06251 -0.0672615 0)
(1.05794 -0.051804 0)
(1.05252 -0.0397462 0)
(1.04715 -0.0303655 0)
(1.04365 -0.0229778 0)
(1.04172 -0.0171091 0)
(1.04034 -0.0122734 0)
(1.03933 -0.00824835 0)
(1.03874 -0.0047408 0)
(1.03857 -0.00152801 0)
(1.04293 0.000260162 0)
(1.04396 0.000900357 0)
(1.04567 0.00145911 0)
(1.04812 0.00179578 0)
(1.0514 0.0018033 0)
(1.05538 0.0013202 0)
(1.05923 -0.000114483 0)
(1.06279 -0.00332451 0)
(1.06806 -0.00874892 0)
(1.07578 -0.0172173 0)
(1.08559 -0.029868 0)
(1.09747 -0.0502961 1.85683e-24)
(1.11012 -0.0798705 3.09926e-23)
(1.11262 -0.125584 -1.30377e-22)
(1.06605 -0.18955 1.12908e-20)
(0.91229 -0.278818 -2.15047e-21)
(0.625146 -0.325622 9.98893e-21)
(0.642131 -0.442152 2.75461e-21)
(0.691932 -0.564299 -2.17457e-22)
(0.751952 -0.672427 1.13929e-20)
(0.843924 -0.713325 -6.4739e-22)
(0.927021 -0.671766 -4.74702e-22)
(0.963262 -0.567856 -3.79587e-21)
(0.97533 -0.455151 -3.865e-21)
(1.01496 -0.346517 1.79476e-21)
(1.02193 -0.263749 5.53652e-22)
(1.00782 -0.18695 -1.31612e-21)
(1.01917 -0.14011 2.06839e-26)
(1.02716 -0.107911 -2.35431e-24)
(1.03324 -0.0821314 0)
(1.03685 -0.0623712 0)
(1.03819 -0.0472479 0)
(1.03736 -0.0355516 0)
(1.03556 -0.0267704 0)
(1.0346 -0.0202886 0)
(1.03442 -0.0152522 0)
(1.03428 -0.0110791 0)
(1.03415 -0.00754951 0)
(1.03412 -0.00442099 0)
(1.03425 -0.00146865 0)
(1.04187 0.000525561 0)
(1.04282 0.00168776 0)
(1.04462 0.00285074 0)
(1.04737 0.0039319 0)
(1.05119 0.00484318 0)
(1.05616 0.00547563 0)
(1.06195 0.00546582 0)
(1.06853 0.00385496 0)
(1.07759 0.00015946 0)
(1.09042 -0.0060427 0)
(1.10809 -0.0154034 1.15429e-22)
(1.13181 -0.0296981 0)
(1.16518 -0.0536922 0)
(1.20215 -0.0825047 4.26147e-21)
(1.23211 -0.159001 1.92065e-21)
(1.07126 -0.282331 1.85848e-20)
(0.8629 -0.465187 -4.88516e-23)
(0.799372 -0.625757 6.91878e-22)
(0.771857 -0.703593 -2.07666e-21)
(0.753983 -0.708538 5.24903e-21)
(0.766117 -0.656288 -4.62855e-21)
(0.791785 -0.555239 -2.56584e-21)
(0.83561 -0.454418 2.29542e-22)
(0.884573 -0.375661 9.34539e-22)
(0.909326 -0.308202 4.96016e-23)
(0.908765 -0.200505 -4.26321e-21)
(0.943258 -0.151181 1.79134e-21)
(0.968866 -0.112375 0)
(0.988706 -0.0854748 0)
(1.00324 -0.064013 7.87083e-24)
(1.01356 -0.0477887 0)
(1.02022 -0.0353642 0)
(1.02387 -0.0259018 0)
(1.02585 -0.0191842 0)
(1.02745 -0.0146216 0)
(1.02875 -0.0111501 0)
(1.02951 -0.00824538 0)
(1.0299 -0.00571995 -1.58428e-23)
(1.03012 -0.00340582 -1.13658e-23)
(1.0303 -0.0011727 0)
(1.0399 0.000873029 0)
(1.04075 0.00261271 0)
(1.04252 0.00444426 0)
(1.04533 0.006371 0)
(1.04931 0.00844115 0)
(1.05471 0.0106492 0)
(1.06169 0.0128841 0)
(1.07043 0.0144304 0)
(1.08208 0.014903 0)
(1.0979 0.0143835 0)
(1.11975 0.0128603 8.00853e-22)
(1.14967 0.0116145 0)
(1.19269 0.0060938 0)
(1.25366 0.00455043 5.14729e-22)
(1.32674 -0.00821913 -3.22789e-20)
(1.30781 -0.0721752 -3.80266e-22)
(1.17816 -0.202899 0)
(1.03951 -0.338111 -1.8608e-21)
(0.893852 -0.454944 2.46544e-20)
(0.752635 -0.483313 2.52428e-20)
(0.64275 -0.495077 -6.34642e-21)
(0.602991 -0.450012 6.33406e-21)
(0.630636 -0.371269 1.22855e-22)
(0.699176 -0.273815 0)
(0.76579 -0.180042 -6.01785e-22)
(0.841476 -0.124348 3.99405e-21)
(0.89597 -0.0907707 1.91445e-21)
(0.931066 -0.0642987 0)
(0.960362 -0.0467555 0)
(0.98189 -0.0337721 -9.83224e-23)
(0.997193 -0.0243594 0)
(1.00776 -0.0173391 0)
(1.01491 -0.0122162 0)
(1.01989 -0.00897071 0)
(1.02335 -0.00704924 0)
(1.02551 -0.00557665 2.86619e-23)
(1.02675 -0.00424698 -3.72456e-23)
(1.02738 -0.00298913 0)
(1.02767 -0.00178018 0)
(1.02781 -0.000549964 -8.75259e-23)
(1.03704 0.00103965 0)
(1.03784 0.00334964 0)
(1.03941 0.00581221 0)
(1.04188 0.00862041 0)
(1.0454 0.0119038 0)
(1.05031 0.015775 0)
(1.05712 0.0203612 -1.40933e-23)
(1.06628 0.0253813 0)
(1.07828 0.0307856 0)
(1.09381 0.0371764 0)
(1.11445 0.0451901 0)
(1.1425 0.0578801 0)
(1.1804 0.0744619 0)
(1.23839 0.101409 2.1665e-22)
(1.32264 0.143814 5.63514e-23)
(1.35454 0.182472 3.14524e-23)
(1.28548 0.168823 0)
(1.16087 0.133092 0)
(0.997597 0.0666774 -1.42296e-20)
(0.828257 0.0515665 -2.06566e-19)
(0.677557 0.00232344 -1.68552e-20)
(0.594172 -0.0310716 8.79408e-22)
(0.582953 -0.0539703 0)
(0.617677 -0.0599355 0)
(0.689265 -0.0474368 0)
(0.784103 -0.0203701 -3.37759e-23)
(0.861201 -0.00140817 4.13911e-21)
(0.909762 0.00513929 9.31734e-23)
(0.947866 0.00575449 0)
(0.97379 0.00484281 0)
(0.991497 0.00395958 0)
(1.00372 0.00339728 0)
(1.0124 0.00276574 1.25777e-22)
(1.01866 0.00185357 5.15435e-23)
(1.02271 0.000860732 2.5967e-24)
(1.02487 0.000165833 0)
(1.02599 -0.000187162 0)
(1.02658 -0.000262943 0)
(1.02687 -0.000217453 0)
(1.02706 -2.08646e-05 0)
(1.0338 0.00113974 0)
(1.03428 0.00383476 0)
(1.03532 0.00679089 0)
(1.03705 0.0102929 0)
(1.03959 0.0144664 0)
(1.04325 0.019552 0)
(1.04873 0.0258199 0)
(1.05657 0.0333476 0)
(1.0666 0.0425334 7.27245e-24)
(1.07869 0.0543725 0)
(1.09343 0.0700324 0)
(1.11252 0.0922403 0)
(1.1358 0.123722 3.54644e-22)
(1.16874 0.167774 9.27816e-22)
(1.22067 0.236504 0)
(1.26086 0.325969 0)
(1.23957 0.399195 0)
(1.15808 0.452037 0)
(1.02927 0.455147 2.43745e-20)
(0.886992 0.458351 6.531e-20)
(0.752347 0.414386 -1.52527e-20)
(0.685378 0.357768 7.02608e-21)
(0.674145 0.282489 0)
(0.689516 0.209645 0)
(0.718079 0.140763 0)
(0.779694 0.112833 0)
(0.851835 0.106288 -1.40823e-20)
(0.91791 0.0838809 -3.40857e-21)
(0.960647 0.0623024 0)
(0.984388 0.04406 -3.60455e-24)
(0.999439 0.0312493 -8.62456e-24)
(1.00955 0.0223605 -4.40282e-24)
(1.01689 0.0159176 0)
(1.02232 0.0111159 0)
(1.02553 0.00746807 0)
(1.0268 0.0048226 0)
(1.02719 0.00298059 0)
(1.0273 0.00172724 0)
(1.02733 0.000823528 0)
(1.02741 0.000197024 0)
(1.03022 0.00145459 0)
(1.0302 0.00421686 0)
(1.03056 0.00736541 0)
(1.0314 0.011026 0)
(1.03275 0.0154043 0)
(1.03483 0.0208189 0)
(1.03836 0.0276403 0)
(1.04376 0.0361406 0)
(1.05018 0.0470259 0)
(1.05685 0.0613212 0)
(1.06362 0.0804322 2.08063e-23)
(1.07096 0.105862 9.69473e-23)
(1.07718 0.140868 -2.07813e-21)
(1.08316 0.187003 -1.70486e-21)
(1.0952 0.250314 0)
(1.11354 0.336982 0)
(1.10486 0.429008 0)
(1.0647 0.509987 0)
(0.984351 0.558105 -1.12786e-20)
(0.893769 0.579608 1.29709e-20)
(0.812375 0.564031 -5.24572e-21)
(0.783236 0.521489 1.43866e-20)
(0.783855 0.459818 0)
(0.804015 0.393523 0)
(0.814188 0.313446 0)
(0.83545 0.24684 0)
(0.895439 0.198831 1.40435e-21)
(0.965404 0.147044 -1.13929e-20)