/*--------------------------------*- C++ -*----------------------------------*\
| =========                 |                                                 |
| \\      /  F ield         | OpenFOAM: The Open Source CFD Toolbox           |
|  \\    /   O peration     | Version:  v2106                                 |
|   \\  /    A nd           | Website:  www.openfoam.com                      |
|    \\/     M anipulation  |                                                 |
\*---------------------------------------------------------------------------*/
FoamFile
{
    version     2.0;
    format      ascii;
    arch        "LSB;label=32;scalar=64";
    class       volScalarField;
    location    "0";
    object      p;
}
// * * * * * * * * * * * * * * * * * * * * * * * * * * * * * * * * * * * * * //

dimensions      [0 2 -2 0 0 0 0];

internalField   nonuniform List<scalar> 
11644
(
0.0834524
0.0838371
0.084641
0.0858676
0.0875064
0.0895463
0.0919714
0.0947548
0.0978561
0.101214
0.104742
0.108328
0.111827
0.115034
0.117754
0.119772
0.120812
0.120793
0.119684
0.117319
0.113623
0.108708
0.102812
0.0961966
0.0890765
0.0817047
0.0743211
0.0671346
0.0603291
0.0540147
0.048276
0.0431663
0.0386987
0.0348691
0.0316597
0.029044
0.026995
0.0254911
0.024521
0.02406
0.0827699
0.0831545
0.0839486
0.0851629
0.0867965
0.0888436
0.091295
0.0941315
0.0973205
0.10081
0.104527
0.108352
0.112128
0.115685
0.11877
0.121119
0.122529
0.122797
0.121797
0.119425
0.115696
0.110614
0.104325
0.0971616
0.0894914
0.0816233
0.0738303
0.0663314
0.0592835
0.052833
0.0470418
0.0419296
0.0374982
0.0337267
0.0305863
0.0280441
0.0260666
0.0246247
0.0236919
0.02324
0.0813009
0.0817025
0.0825035
0.083713
0.0853443
0.0874064
0.0899021
0.0928289
0.0961732
0.0999063
0.103969
0.108268
0.112667
0.116941
0.120835
0.124066
0.126322
0.127287
0.126701
0.124319
0.120226
0.114514
0.107386
0.0991526
0.0903164
0.0813716
0.0726723
0.0645043
0.0570385
0.050352
0.0444771
0.0393931
0.0350567
0.0314193
0.0284256
0.0260247
0.0241693
0.0228161
0.0219278
0.0214847
0.0790571
0.0794666
0.0802743
0.0814828
0.0831119
0.0851869
0.0877305
0.0907642
0.0943063
0.0983603
0.102915
0.10791
0.113194
0.118584
0.123803
0.128481
0.132152
0.134426
0.134744
0.13262
0.128004
0.121069
0.112247
0.102106
0.0914759
0.0808203
0.0706759
0.0614793
0.0533767
0.0464029
0.0404747
0.0354911
0.0313464
0.0279373
0.0251768
0.0229884
0.0213089
0.0200848
0.0192752
0.0188685
0.0760697
0.0764663
0.0772553
0.0784395
0.0800447
0.0821076
0.0846735
0.0877937
0.0915234
0.095919
0.101008
0.106738
0.113059
0.119853
0.126905
0.133802
0.139828
0.144573
0.146649
0.145314
0.140097
0.131315
0.119626
0.106218
0.0928931
0.0796563
0.0674322
0.0568204
0.0479363
0.0406816
0.0348348
0.0301131
0.0263111
0.0232708
0.0208622
0.0189842
0.0175578
0.0165249
0.0158461
0.0155052
0.0723569
0.072728
0.0734634
0.0745812
0.0761099
0.0780966
0.0806063
0.0837235
0.08755
0.0921503
0.0975357
0.103792
0.111064
0.119567
0.129267
0.139496
0.149443
0.158525
0.164068
0.164471
0.158473
0.146473
0.130147
0.111555
0.0938261
0.0767491
0.0619612
0.0498879
0.0402891
0.0328875
0.0273087
0.0231074
0.0199044
0.0174395
0.0155482
0.0141113
0.013043
0.0122821
0.0117905
0.0115498
0.0679824
0.0682954
0.0689357
0.0699224
0.071291
0.0730963
0.0754148
0.0783553
0.0820233
0.0864367
0.0917048
0.0981211
0.106103
0.116198
0.129076
0.144046
0.154238
0.169133
0.180649
0.185888
0.181678
0.167694
0.146705
0.123117
0.0918868
0.0698754
0.0522723
0.0391082
0.0296364
0.0226804
0.0177733
0.0144225
0.0121483
0.0105368
0.0093742
0.00853636
0.00794207
0.0075364
0.00727999
0.00715153
0.0629936
0.0632413
0.063744
0.0645214
0.0656211
0.0670969
0.0690285
0.0715213
0.0746175
0.0783447
0.0829854
0.0890103
0.0968453
0.106887
0.120892
0.139191
0.163432
0.188417
0.21213
0.226114
0.222583
0.200204
0.165163
0.127548
0.0911625
0.0646369
0.0449386
0.0230665
0.0148765
0.0095518
0.006202
0.00423736
0.0032457
0.0027866
0.00256831
0.0024851
0.00246961
0.00248385
0.00250534
0.00252285
0.057495
0.0576558
0.0579724
0.058477
0.0591907
0.0601646
0.061469
0.0631728
0.0652651
0.0678413
0.0711674
0.0756599
0.0821059
0.0945401
0.109171
0.130262
0.157566
0.19933
0.243278
0.279912
0.284978
0.249399
0.190703
0.127843
0.081489
0.0409494
0.0211941
-0.000479816
-0.00454164
-0.00661788
-0.00730912
-0.00712825
-0.00640902
-0.0054484
-0.00453558
-0.00374024
-0.00309126
-0.00260088
-0.00227428
-0.00211432
0.0516769
0.0517095
0.0517942
0.0519309
0.0521363
0.0524474
0.0529014
0.053505
0.0542028
0.0551022
0.0563729
0.0580448
0.0602427
0.0712977
0.0804856
0.101275
0.132718
0.185988
0.269426
0.365763
0.400514
0.324704
0.199948
0.10058
0.03279
-0.00833442
-0.0185035
-0.0310156
-0.028257
-0.0253595
-0.0222243
-0.0191371
-0.0162717
-0.0136793
-0.0115031
-0.00976162
-0.00841665
-0.00743816
-0.00680009
-0.00649071
0.0456656
0.0455836
0.0454062
0.0451233
0.0447438
0.0442589
0.0436788
0.0429459
0.0419182
0.0405416
0.0387849
0.0365652
0.0329774
0.036807
0.035976
0.041879
0.0546983
0.0835832
0.181572
0.415907
0.595991
0.348743
0.0764083
-0.0425215
-0.0794435
-0.0853137
-0.0731756
-0.0665664
-0.0547674
-0.0451942
-0.0372871
-0.0308356
-0.0255865
-0.0212774
-0.0178334
-0.0151738
-0.0131634
-0.0117163
-0.0107832
-0.0103091
0.0397423
0.0395051
0.0390293
0.0383171
0.0373255
0.0359922
0.0342905
0.0320895
0.0291665
0.025273
0.019971
0.0129667
0.00336868
-0.000452309
-0.017443
-0.0348328
-0.0705325
-0.153416
-0.383676
-0.652989
-0.363864
-0.242069
-0.1773
-0.131915
-0.101949
-0.0797005
-0.0630277
-0.0504634
-0.0408335
-0.0333577
-0.0275099
-0.0229735
-0.0195284
-0.0169533
-0.015128
-0.0139582
-0.0134187
0.0341168
0.0337506
0.0330006
0.0318674
0.0302913
0.0281617
0.0253673
0.0217402
0.0170268
0.0108755
0.00259471
-0.00854555
-0.0235123
-0.0327073
-0.0617093
-0.0943623
-0.155795
-0.274177
-0.385285
-0.871196
-0.58516
-0.36276
-0.244895
-0.176977
-0.125276
-0.0964354
-0.0750043
-0.0592755
-0.0474619
-0.038486
-0.0316318
-0.0264003
-0.022451
-0.019515
-0.0174476
-0.0161217
-0.0154594
0.0289771
0.0284554
0.0275349
0.0261004
0.0240536
0.0212749
0.0175546
0.0127687
0.00668249
-0.00108542
-0.0111968
-0.024579
-0.041929
-0.0556589
-0.084895
-0.117448
-0.168151
-0.242261
-0.285177
-0.678432
-0.561703
-0.38512
-0.260401
-0.18992
-0.130137
-0.10041
-0.0781647
-0.0617756
-0.0494285
-0.0401077
-0.0330655
-0.0277021
-0.0236311
-0.0206042
-0.0184478
-0.0170689
-0.0163844
0.0243988
0.0240146
0.0229576
0.021288
0.0189086
0.0157191
0.0114245
0.00593646
-0.000872065
-0.00947073
-0.0202106
-0.0341152
-0.0514143
-0.066139
-0.092556
-0.119397
-0.150632
-0.170221
-0.217876
-0.375478
-0.618119
-0.772646
-0.723262
-0.523921
-0.344273
-0.228524
-0.169611
-0.114867
-0.0904072
-0.0716549
-0.0572481
-0.0463455
-0.037922
-0.0315925
-0.0267304
-0.0229532
-0.0201449
-0.0181448
-0.0168656
-0.0163177
0.0208803
0.0204712
0.0194102
0.0176664
0.0151676
0.0118352
0.0074646
0.00185042
-0.00508187
-0.0136763
-0.0242942
-0.0376496
-0.0544555
-0.0703644
-0.0965661
-0.130767
-0.156499
-0.163526
-0.187066
-0.374378
-0.685581
-0.793404
-0.593007
-0.365399
-0.24357
-0.159665
-0.124329
-0.0833357
-0.0683404
-0.0560275
-0.0462371
-0.038428
-0.0321728
-0.0274127
-0.0236312
-0.0205975
-0.0183009
-0.016649
-0.0155586
-0.0150438
0.0185701
0.0180276
0.0169747
0.0153318
0.0129861
0.00984431
0.00578054
0.000568124
-0.00593109
-0.0139317
-0.0237954
-0.0363148
-0.0521287
-0.0743813
-0.0993047
-0.142681
-0.197846
-0.279545
-0.309493
-0.381671
-0.444165
-0.373291
-0.23397
-0.147874
-0.0868086
-0.0730101
-0.0480155
-0.0452118
-0.0400554
-0.0351378
-0.0308477
-0.0270278
-0.0238184
-0.0211149
-0.0187119
-0.0166996
-0.0151056
-0.0139189
-0.0131198
-0.0126087
0.0174207
0.0168915
0.0158927
0.0144005
0.0123381
0.00961821
0.00611483
0.00163374
-0.00397093
-0.0108866
-0.0195104
-0.0307772
-0.0454558
-0.0655913
-0.0933787
-0.141114
-0.212157
-0.346377
-0.461773
-0.497478
-0.42223
-0.227656
-0.0509178
0.0075922
0.0194733
0.00552514
-0.00229577
-0.00705378
-0.0117723
-0.0138619
-0.0145199
-0.0144681
-0.0141166
-0.013424
-0.0124747
-0.0115675
-0.0107597
-0.0101097
-0.00965335
-0.00942194
0.0171753
0.0167615
0.0159576
0.0147507
0.0130934
0.0109318
0.00817683
0.00467299
0.000302936
-0.00508274
-0.011784
-0.0204875
-0.0320697
-0.0480015
-0.0720359
-0.107183
-0.163265
-0.267605
-0.402815
-0.477443
-0.423849
-0.228589
-0.0260819
0.0681254
0.080095
0.05456
0.0331694
0.0213538
0.010299
0.00366492
-0.000527387
-0.00316402
-0.00477271
-0.0056261
-0.00597587
-0.00604376
-0.00594461
-0.00579688
-0.00567515
-0.00567601
0.0176779
0.0174047
0.0168583
0.0160216
0.0148709
0.0133893
0.0115428
0.00927189
0.00648838
0.00311285
-0.00105274
-0.00627203
-0.0134116
-0.0226614
-0.0414617
-0.0617786
-0.0950881
-0.138899
-0.210335
-0.271936
-0.263904
-0.163147
-0.031717
0.0570317
0.0838833
0.0680185
0.0476695
0.0338378
0.0223824
0.0144997
0.0089546
0.00511658
0.00254373
0.0008735
-0.000244685
-0.000939827
-0.00137011
-0.00163424
-0.00179458
-0.00187667
0.0187262
0.0185962
0.0183017
0.0178299
0.0171978
0.0164269
0.0155549
0.0146284
0.0136011
0.0123952
0.0108637
0.00883035
0.00540334
0.00108745
-0.0118347
-0.0257406
-0.0494354
-0.0731643
-0.102143
-0.131782
-0.140419
-0.112663
-0.052404
0.00693306
0.0344797
0.0450867
0.0388591
0.0305864
0.0237889
0.017853
0.0133287
0.00992829
0.00744756
0.00565301
0.00432266
0.00335188
0.00266175
0.00217769
0.00187796
0.00176108
0.0200452
0.0200049
0.0198944
0.0197432
0.0195934
0.0194869
0.0194953
0.01971
0.0201386
0.020763
0.0214739
0.0220017
0.0215805
0.0190486
0.0145176
-0.000177768
-0.0188164
-0.0515549
-0.0966495
-0.148123
-0.186437
-0.192617
-0.155076
-0.094833
-0.0418259
0.000889167
0.0186906
0.0189408
0.0189313
0.0166609
0.0144102
0.0123431
0.0105688
0.00909767
0.00789263
0.00694723
0.00622853
0.00570827
0.00538531
0.00524954
0.02137
0.0213452
0.0213831
0.0215117
0.0217759
0.0222061
0.0228711
0.0238682
0.0252473
0.0271317
0.0294376
0.0319287
0.0337875
0.0339279
0.0297252
0.0179424
-0.0139566
-0.0707813
-0.152631
-0.246446
-0.319632
-0.319518
-0.24827
-0.172348
-0.0949282
-0.0254907
-0.00466116
0.00766938
0.0137253
0.0145727
0.0146988
0.0139564
0.0129188
0.0118563
0.0108963
0.0100989
0.00945928
0.00898115
0.00867383
0.00852575
0.0226151
0.0226221
0.0227943
0.0231262
0.0236568
0.0244218
0.0254981
0.0269534
0.0289134
0.0315712
0.0349129
0.0387847
0.0424487
0.0442201
0.0371594
0.017887
-0.0186718
-0.0782555
-0.153955
-0.233068
-0.299279
-0.288732
-0.225593
-0.155408
-0.0886301
-0.037486
-0.0111572
0.00445172
0.0117369
0.0146724
0.0158669
0.015811
0.015239
0.0144728
0.0136936
0.0129863
0.0123918
0.0119383
0.0116431
0.0115087
0.0237116
0.023813
0.0240594
0.0244769
0.0251102
0.0260202
0.0272906
0.0289618
0.0311707
0.034054
0.0377043
0.0418126
0.0456082
0.0449021
0.0344119
0.012432
-0.0219159
-0.0710923
-0.124317
-0.171597
-0.203266
-0.191994
-0.151404
-0.103226
-0.0572224
-0.0234656
-0.00316272
0.00856513
0.0142531
0.0170827
0.0181637
0.0181686
0.0177373
0.0170854
0.016365
0.0156651
0.0150582
0.0145787
0.0142501
0.0141109
0.0244739
0.0246329
0.0249083
0.0253466
0.0259857
0.0268754
0.028077
0.0296346
0.0315662
0.0338884
0.0365568
0.0389343
0.0397276
0.0344119
0.022412
0.00126396
-0.0296839
-0.0669877
-0.0996571
-0.118162
-0.119928
-0.105462
-0.0800513
-0.0488805
-0.0207444
-0.000803923
0.0104349
0.0167061
0.0197207
0.0211811
0.02134
0.0209382
0.0202958
0.0195486
0.0187708
0.0180384
0.0174092
0.016908
0.0165428
0.0163351
0.0248544
0.024989
0.0252622
0.0256715
0.0262319
0.026942
0.0278146
0.028858
0.029976
0.0309966
0.0315709
0.0308911
0.0272014
0.0171393
7.73442e-06
-0.0239076
-0.0518858
-0.0819616
-0.100962
-0.106129
-0.0975646
-0.0761087
-0.050041
-0.0226546
-0.000130311
0.0130757
0.0200946
0.0237173
0.0253041
0.0254554
0.0247966
0.023796
0.0227498
0.0217247
0.020799
0.020002
0.0193498
0.0188443
0.0184833
0.0182266
0.0250253
0.0251419
0.0253559
0.0256579
0.0260424
0.0264729
0.0268981
0.0272414
0.0273435
0.0269328
0.0253706
0.0217885
0.0139302
-0.00122923
-0.0250593
-0.0552607
-0.0890636
-0.118408
-0.136623
-0.13728
-0.122953
-0.0912227
-0.0544612
-0.0228508
0.00142482
0.0156252
0.0237107
0.0278179
0.029235
0.0288514
0.0277212
0.0262795
0.0248201
0.0235181
0.0224186
0.0215233
0.020815
0.0202886
0.01994
0.0197683
0.0250964
0.0252013
0.025341
0.0255111
0.0256982
0.0258564
0.025899
0.0256942
0.0250257
0.0236476
0.0207141
0.01504
0.00425591
-0.014804
-0.0440729
-0.0805935
-0.122951
-0.156691
-0.179445
-0.181473
-0.154332
-0.113382
-0.0684169
-0.0326704
-0.00529972
0.0136565
0.025098
0.0304444
0.031916
0.0309074
0.0295443
0.0278554
0.0262218
0.024809
0.0236234
0.0226592
0.0219035
0.0213632
0.0210339
0.0209742
0.0250565
0.0251255
0.0252051
0.0252898
0.0253521
0.0253406
0.0251883
0.0247813
0.0238132
0.0219718
0.0185089
0.0121121
0.0007546
-0.018053
-0.0475627
-0.0841305
-0.127177
-0.161793
-0.190309
-0.193005
-0.16099
-0.119662
-0.0747251
-0.0374729
-0.00878062
0.012578
0.025233
0.0314731
0.0332236
0.0316252
0.0301823
0.0284547
0.0268909
0.0255491
0.0244138
0.0234899
0.0227774
0.0222814
0.0219837
0.0219027
0.0249622
0.0249877
0.0250452
0.0251085
0.0251415
0.0250907
0.0248938
0.0244423
0.0235081
0.021749
0.0185699
0.0131346
0.0036704
-0.0113971
-0.0344428
-0.0632476
-0.0967902
-0.127497
-0.151683
-0.157503
-0.136078
-0.106039
-0.0706398
-0.0374708
-0.0109817
0.00910697
0.0220911
0.0294442
0.0319784
0.0312207
0.0298378
0.0282751
0.0269058
0.025732
0.0247417
0.0239462
0.0233423
0.0229201
0.022643
0.0224692
0.0249252
0.0249638
0.0250155
0.025071
0.0251044
0.0250767
0.024924
0.0245647
0.0238994
0.0226746
0.0205318
0.0169327
0.0106806
0.000576732
-0.0148293
-0.0344555
-0.0568482
-0.0801727
-0.0972227
-0.105543
-0.102641
-0.0883108
-0.0657557
-0.0393647
-0.0164265
0.00216437
0.0157034
0.0240459
0.0279152
0.0287239
0.0281601
0.0272175
0.0262145
0.0253037
0.0245037
0.0238583
0.0233532
0.0229813
0.0227209
0.0225537
0.0248922
0.0249523
0.0250125
0.0250771
0.0251337
0.0251707
0.0251531
0.0250275
0.0247648
0.0242022
0.0231302
0.0211875
0.0176385
0.0111971
0.000844605
-0.0138019
-0.0312329
-0.0509379
-0.0661327
-0.0779211
-0.0838005
-0.0803942
-0.0661724
-0.0461508
-0.0267142
-0.00931409
0.00480493
0.015051
0.0212451
0.0241544
0.025026
0.0250986
0.0247234
0.0242212
0.0237115
0.0232575
0.0228711
0.0225736
0.0223765
0.0223002
0.0247138
0.0247415
0.0248093
0.0249088
0.02504
0.0252026
0.0253916
0.0255879
0.0257564
0.0258071
0.025502
0.0245222
0.0223197
0.0175374
0.00909503
-0.00466105
-0.0231142
-0.0443774
-0.0651291
-0.082373
-0.090018
-0.0894257
-0.0790152
-0.0630649
-0.0449888
-0.026008
-0.00893885
0.00443781
0.0135729
0.0186422
0.021148
0.0223258
0.0227346
0.0227923
0.0226757
0.0224842
0.02228
0.0221076
0.0219961
0.0219638
0.0244123
0.0243741
0.0244381
0.0245717
0.0247897
0.025082
0.0254622
0.0259382
0.0264893
0.0269692
0.0273036
0.0267149
0.0244466
0.0193841
0.0104327
-0.00385847
-0.0243165
-0.048846
-0.076952
-0.101136
-0.114274
-0.113805
-0.102309
-0.0863502
-0.0649688
-0.0419628
-0.0210301
-0.00464502
0.00701238
0.0138417
0.017738
0.0197849
0.0208746
0.0214471
0.0217016
0.0217778
0.0217619
0.0217031
0.0216427
0.0215846
0.0240426
0.0240197
0.024085
0.0242332
0.0244833
0.0248284
0.0252774
0.0258613
0.0265497
0.027218
0.0278996
0.0274233
0.0248198
0.0190273
0.0088505
-0.00611594
-0.027354
-0.0529478
-0.0837705
-0.112041
-0.132445
-0.131199
-0.116574
-0.0986997
-0.0741962
-0.0486559
-0.0261428
-0.00857426
0.00367944
0.0111853
0.0156742
0.0181377
0.0195559
0.020374
0.0208467
0.0210898
0.0212002
0.0212242
0.0212038
0.0211254
0.0235392
0.0235931
0.0236835
0.0238252
0.0240441
0.0243459
0.0247393
0.0252313
0.0258352
0.0263968
0.0268729
0.026001
0.0228198
0.0166558
0.00629161
-0.00873442
-0.0286169
-0.0525861
-0.0799023
-0.104154
-0.12255
-0.120825
-0.106223
-0.087885
-0.0635736
-0.0410369
-0.0215288
-0.00623981
0.00430898
0.0110346
0.015151
0.0175387
0.0189682
0.0197586
0.020236
0.0204986
0.0206313
0.020672
0.0206768
0.0206329
0.0228042
0.0228913
0.0229804
0.0230938
0.0232517
0.0234613
0.0237285
0.024031
0.0243513
0.0245378
0.0242073
0.0224965
0.0184478
0.0113413
0.000960092
-0.0130359
-0.0304841
-0.0504212
-0.0697315
-0.0838821
-0.0920793
-0.0878442
-0.0759403
-0.0599041
-0.0415655
-0.0247388
-0.0106595
0.000414632
0.00813409
0.0130546
0.0160682
0.0178672
0.0189556
0.0195684
0.0199334
0.0201295
0.0202183
0.0202455
0.020253
0.0202531
0.0218585
0.0218853
0.02193
0.0219948
0.0220785
0.0221682
0.0222504
0.0222694
0.0221083
0.0215525
0.0200909
0.017041
0.0118405
0.00384153
-0.00675725
-0.019835
-0.0347117
-0.0503952
-0.062153
-0.0673607
-0.0642591
-0.0583898
-0.0489338
-0.0350908
-0.0213808
-0.00927557
0.000675332
0.00817427
0.013074
0.0159897
0.0177074
0.0187363
0.0193385
0.0196845
0.0198883
0.0199884
0.020029
0.0200385
0.0200309
0.0200228
0.0208677
0.0208179
0.0208001
0.0207923
0.0207714
0.0206958
0.0205218
0.020151
0.0193796
0.0179246
0.0151785
0.0103322
0.00317821
-0.00641898
-0.0177453
-0.0302709
-0.0427702
-0.0549202
-0.0627116
-0.0634227
-0.0588297
-0.0493761
-0.0372917
-0.0231877
-0.0102365
0.000744539
0.00909283
0.014429
0.0172962
0.0187143
0.0194107
0.0197227
0.019861
0.0199118
0.0199174
0.0198966
0.0198722
0.0198441
0.0198169
0.019795
0.0199553
0.019917
0.0198686
0.0197876
0.0196405
0.0193699
0.0189047
0.018121
0.0167632
0.0144575
0.0104828
0.0039033
-0.00546652
-0.0175365
-0.0314642
-0.0454304
-0.0580989
-0.068819
-0.0756741
-0.0750906
-0.0685569
-0.0544365
-0.037175
-0.0205736
-0.00584253
0.00569317
0.013778
0.0180848
0.020069
0.0207792
0.0207532
0.0205456
0.02027
0.0200112
0.0198061
0.0196478
0.0195383
0.0194696
0.0194364
0.0194492
0.0191179
0.0191405
0.0190867
0.0189619
0.0187132
0.0182949
0.0176299
0.0165489
0.0148035
0.0119594
0.00723925
-0.00025971
-0.0111028
-0.0253114
-0.0419551
-0.0584858
-0.073389
-0.0845481
-0.0931351
-0.0927369
-0.0782539
-0.0594929
-0.0384777
-0.0200871
-0.0045019
0.00708267
0.0148965
0.0191339
0.0212418
0.0217871
0.021416
0.0208666
0.0203248
0.019869
0.0195241
0.0192719
0.0191003
0.0190049
0.0189736
0.019021
0.0183099
0.0183558
0.0182936
0.0181451
0.0178633
0.0174232
0.0167208
0.0156
0.0138655
0.0109791
0.00639976
-0.000742667
-0.011213
-0.0250568
-0.0415279
-0.0586109
-0.0753251
-0.0870833
-0.0961774
-0.0957061
-0.0789986
-0.0597321
-0.0382853
-0.0201984
-0.005377
0.00592998
0.0136529
0.0182035
0.0206189
0.0212711
0.0209739
0.0204702
0.019892
0.0194517
0.0191034
0.0188509
0.0186757
0.0185726
0.0185243
0.0185291
0.0175782
0.0175741
0.0175132
0.0173935
0.0171712
0.0168126
0.016238
0.015329
0.0138798
0.0115612
0.00778902
0.00211253
-0.00604958
-0.0168344
-0.029902
-0.0443543
-0.0589458
-0.0701612
-0.0784953
-0.0797145
-0.068981
-0.0547523
-0.0379129
-0.02221
-0.00889442
0.00176996
0.0095072
0.0146498
0.0176918
0.0190923
0.0193922
0.0192279
0.0188996
0.0186239
0.0183961
0.0182248
0.0181031
0.0180208
0.0179575
0.0179003
0.0170349
0.0170025
0.0169579
0.0168815
0.0167418
0.0165113
0.0161401
0.0155495
0.014625
0.0131269
0.0106677
0.00682713
0.00127136
-0.00601341
-0.014849
-0.0253963
-0.0365263
-0.0464577
-0.0536123
-0.0571578
-0.0558457
-0.0492751
-0.0387096
-0.0263162
-0.0148087
-0.00480167
0.00314367
0.0092107
0.013228
0.0155703
0.0167762
0.0172045
0.0173135
0.0173237
0.0172768
0.0172258
0.0171848
0.0171506
0.017119
0.0170716
0.0166532
0.0166466
0.0166318
0.016597
0.0165319
0.0164286
0.0162616
0.015995
0.0155912
0.0149055
0.0136812
0.0115424
0.00801708
0.00290007
-0.00377757
-0.0122417
-0.0215367
-0.0312936
-0.0392933
-0.0453224
-0.0479674
-0.0469385
-0.0409281
-0.0315976
-0.0219678
-0.012581
-0.00433274
0.0024292
0.00751511
0.0111515
0.0134496
0.0146845
0.0153634
0.0157229
0.0158927
0.0159813
0.0160252
0.0160532
0.0160808
0.0161194
0.0162511
0.0162597
0.0162664
0.0162769
0.0162921
0.0163215
0.0163559
0.0163926
0.0164179
0.0163849
0.0160576
0.0151618
0.0130203
0.00898363
0.00276205
-0.00572092
-0.0160471
-0.0272785
-0.0379462
-0.0463405
-0.0503659
-0.0519306
-0.0480662
-0.0407141
-0.0319628
-0.0226635
-0.0135219
-0.00528784
0.001563
0.0067234
0.0101033
0.0121998
0.0134388
0.0141566
0.0145747
0.0148239
0.0149672
0.0150622
0.0151347
0.0152112
0.0157464
0.0157189
0.0157291
0.0157747
0.0158661
0.016014
0.0162245
0.0165105
0.0168529
0.017206
0.0174352
0.017081
0.0155609
0.012368
0.00650275
-0.00207504
-0.0133808
-0.026315
-0.0402086
-0.0523211
-0.0611586
-0.0639381
-0.0602993
-0.0535624
-0.044188
-0.0333745
-0.0222959
-0.01184
-0.00328733
0.00311817
0.00747871
0.0102313
0.0118954
0.0129242
0.0135614
0.0139599
0.0141966
0.0143337
0.0144058
0.0144253
0.0151915
0.0151471
0.0151598
0.0152216
0.0153492
0.0155475
0.0158511
0.0162351
0.0167178
0.0171946
0.0176505
0.0173359
0.0158301
0.0130437
0.00779479
-0.000263281
-0.0110612
-0.0244254
-0.0399596
-0.0544931
-0.0689514
-0.072264
-0.0685576
-0.0615345
-0.0503576
-0.0383507
-0.025947
-0.0144106
-0.0053156
0.00146133
0.00613608
0.00907273
0.0109036
0.0120501
0.0127932
0.0132645
0.0135571
0.0137029
0.0137685
0.0137281
0.0145825
0.0145859
0.0146191
0.0146789
0.0147853
0.0149446
0.0151782
0.0154782
0.0158396
0.0160928
0.016145
0.0154461
0.0135965
0.0104343
0.00523021
-0.00229515
-0.0120111
-0.0240703
-0.0379528
-0.0515404
-0.0631532
-0.0658941
-0.0619812
-0.0548091
-0.0441997
-0.0327965
-0.0214134
-0.0113875
-0.0036116
0.00229072
0.00631884
0.00887515
0.0105262
0.0115652
0.0122305
0.0126392
0.0129027
0.0130438
0.013106
0.0130759
0.0138526
0.0138957
0.0139214
0.0139417
0.0139722
0.0140179
0.0140792
0.0141325
0.0141436
0.0139005
0.013142
0.0115611
0.00886196
0.00481868
-0.000788783
-0.00806866
-0.0166825
-0.0262739
-0.0360171
-0.0442406
-0.0489503
-0.0486286
-0.0443158
-0.0375959
-0.0289428
-0.0200485
-0.0117261
-0.00474766
0.000743532
0.00494131
0.00775594
0.00959478
0.0107567
0.0114779
0.0119292
0.0122056
0.0123757
0.0124683
0.0125206
0.0125441
0.0129645
0.012968
0.0129455
0.0129046
0.0128455
0.0127559
0.0126056
0.0123297
0.011835
0.0109284
0.00927326
0.00673985
0.00310592
-0.0018754
-0.0080032
-0.0151566
-0.0227764
-0.0299409
-0.0351027
-0.0376163
-0.0370416
-0.0337575
-0.0284485
-0.0218919
-0.0149516
-0.00825991
-0.00253029
0.00203504
0.00558422
0.00810088
0.00972987
0.0107199
0.0113253
0.0116813
0.0118997
0.0120322
0.0121124
0.0121551
0.0121797
0.012205
0.0120317
0.0119562
0.0118771
0.0117778
0.0116354
0.011414
0.0110545
0.0104488
0.00944161
0.00777184
0.00516221
0.00147047
-0.0032681
-0.00911609
-0.0157221
-0.0227867
-0.0295944
-0.035112
-0.0375362
-0.0364303
-0.0339013
-0.0285096
-0.0215843
-0.0141191
-0.00696684
-0.000872749
0.00386279
0.00732162
0.00963081
0.010877
0.0115368
0.0117727
0.011894
0.0119382
0.0119617
0.0119685
0.0119707
0.0119675
0.0119606
0.0119505
0.0112112
0.0111357
0.0110366
0.0108938
0.0106728
0.0103203
0.00976567
0.00887437
0.00741348
0.00504953
0.00150529
-0.00345024
-0.00976474
-0.0171363
-0.0249375
-0.0326049
-0.0392555
-0.0440856
-0.0453672
-0.0420414
-0.0366495
-0.0290327
-0.0198521
-0.0106137
-0.00258672
0.00371797
0.00818562
0.0109473
0.0124361
0.012818
0.0126894
0.0124539
0.0122164
0.0120044
0.0118553
0.011747
0.0116777
0.0116343
0.0116143
0.0116102
0.0105367
0.01053
0.0104512
0.0102975
0.0100179
0.00956841
0.00886244
0.00780159
0.00604164
0.00324543
-0.000936886
-0.00673144
-0.0143577
-0.0233196
-0.0325572
-0.0415413
-0.0487335
-0.0537338
-0.0549265
-0.0495966
-0.0397823
-0.0290465
-0.0174916
-0.00700784
0.00108889
0.00698179
0.0107713
0.0126939
0.0136145
0.0136131
0.0131156
0.0126524
0.0121492
0.0117894
0.0115189
0.0113304
0.0112107
0.0111492
0.011134
0.0111734
0.00994103
0.00998647
0.00992128
0.00976289
0.00947971
0.00903044
0.00831745
0.00722167
0.0055018
0.0027743
-0.00129686
-0.00691471
-0.0143215
-0.0233747
-0.0328428
-0.0419685
-0.0494787
-0.0544922
-0.055708
-0.0502827
-0.0396559
-0.0277555
-0.0159894
-0.00594408
0.00147263
0.00689055
0.010258
0.0119423
0.0128855
0.0130242
0.0126063
0.0121783
0.011707
0.0113381
0.0110611
0.0108677
0.0107431
0.0106813
0.0106611
0.0106881
0.00940936
0.00942137
0.00936499
0.00924498
0.0090275
0.00867745
0.00811892
0.007239
0.0058813
0.00375478
0.000548958
-0.00379357
-0.0093939
-0.0164022
-0.0240948
-0.0317327
-0.0384052
-0.0432734
-0.0452769
-0.0424517
-0.0359677
-0.0268408
-0.0176508
-0.00958456
-0.00298845
0.0022231
0.00591047
0.008318
0.00988136
0.0106907
0.0109192
0.0109072
0.0107216
0.0105431
0.0104005
0.010301
0.0102344
0.0101944
0.0101647
0.0101437
0.00901817
0.00899104
0.00895277
0.00888903
0.00877543
0.00858533
0.00826611
0.0077568
0.00693789
0.00566156
0.00366485
0.000860375
-0.00264371
-0.00712872
-0.0123925
-0.0180248
-0.0235463
-0.0279954
-0.0312296
-0.0320999
-0.03061
-0.0266514
-0.0216699
-0.0159443
-0.0100219
-0.00480133
-0.000429003
0.00298479
0.00551485
0.00727476
0.00834872
0.00891607
0.00918885
0.0093267
0.0094022
0.00944823
0.00947877
0.00949747
0.00949742
0.00946625
0.00879054
0.00878017
0.00877476
0.00876432
0.00873614
0.00868392
0.00858476
0.00841837
0.0081124
0.00759187
0.00664013
0.00507785
0.00289995
-2.4141e-05
-0.00380592
-0.00838462
-0.0134714
-0.0181786
-0.0226864
-0.0259588
-0.0274909
-0.0278639
-0.0261376
-0.0220655
-0.016858
-0.0116633
-0.0067342
-0.00245628
0.000942182
0.00352926
0.00540885
0.00664083
0.00741037
0.00789282
0.00819007
0.00837346
0.00849396
0.00857892
0.0086379
0.0086747
0.0085807
0.00859864
0.00861973
0.00864893
0.00868279
0.00873465
0.00880334
0.00890092
0.00898595
0.00901012
0.00887057
0.0082566
0.00684752
0.00463667
0.00132162
-0.00315051
-0.00862804
-0.014593
-0.0203822
-0.0252428
-0.0289038
-0.0321097
-0.0321043
-0.0291019
-0.0244071
-0.0190143
-0.0133706
-0.0081151
-0.00360079
1.79035e-05
0.00272652
0.00461438
0.00583669
0.00660752
0.00708615
0.00739037
0.00758759
0.00772646
0.00783261
0.00792207
0.00826214
0.0082591
0.00827975
0.00832686
0.00841052
0.00854585
0.00874571
0.00900836
0.00935766
0.00973406
0.0100959
0.0101952
0.00954938
0.00811266
0.00538718
0.00121454
-0.00442532
-0.0117805
-0.0195543
-0.0268504
-0.0335781
-0.0391463
-0.0400696
-0.0373491
-0.0327927
-0.0266922
-0.0199524
-0.013308
-0.00741455
-0.00273186
0.000727727
0.00316683
0.00473599
0.005723
0.00634576
0.00675329
0.00701198
0.00717322
0.00727306
0.00732567
0.00786265
0.0078252
0.00783461
0.00788465
0.00799246
0.00816644
0.00842448
0.00877213
0.0092281
0.00974859
0.0102459
0.0106529
0.0105349
0.00974391
0.00773327
0.00409054
-0.00118313
-0.00903691
-0.0180889
-0.0275313
-0.0361762
-0.0428725
-0.0442074
-0.0417947
-0.0370823
-0.0304058
-0.0230048
-0.0155673
-0.00905152
-0.00393905
-0.000188445
0.00245384
0.00411257
0.00520106
0.00590294
0.00636137
0.00664594
0.00680035
0.0068707
0.00685644
0.00743278
0.00741143
0.00742765
0.00746877
0.00755333
0.00768629
0.00787966
0.00813724
0.00847107
0.00877071
0.0089522
0.0089433
0.00847686
0.00738989
0.0053723
0.00203506
-0.00278147
-0.00932735
-0.0174778
-0.0260339
-0.0332755
-0.0384515
-0.0390188
-0.036455
-0.0319852
-0.0258962
-0.0193086
-0.012897
-0.00731973
-0.00294344
0.000285373
0.00255014
0.00402811
0.00500149
0.00561911
0.00602712
0.00628454
0.0064264
0.00648613
0.00645256
0.00694682
0.00696917
0.00697842
0.00697932
0.00698236
0.00699177
0.00701108
0.00701952
0.00697248
0.00675674
0.00621618
0.00525384
0.00382191
0.00180578
-0.000905719
-0.00444789
-0.00882109
-0.0135479
-0.0185657
-0.023516
-0.0268852
-0.0285279
-0.0273327
-0.0244721
-0.0205292
-0.0158116
-0.0110539
-0.00668509
-0.00306413
-0.000196768
0.00198095
0.00348591
0.0044966
0.00514451
0.0055573
0.00582208
0.0059838
0.00607492
0.00612267
0.00613082
0.00634272
0.00634892
0.00632007
0.00626014
0.00616643
0.00602957
0.00582514
0.00550822
0.00500402
0.00418563
0.00293086
0.00107237
-0.00135402
-0.00434277
-0.00787737
-0.0116769
-0.0156322
-0.0188365
-0.0206803
-0.0216258
-0.0215873
-0.0197812
-0.0171934
-0.0139155
-0.010295
-0.00663129
-0.00339302
-0.000712786
0.00134
0.00292906
0.00409445
0.00482398
0.00529654
0.00556414
0.00572483
0.00582618
0.00588401
0.00591412
0.00593369
0.00595797
0.00567955
0.00562045
0.00553679
0.00541782
0.00524655
0.00499196
0.00460229
0.00399357
0.00306973
0.00168735
-0.000247611
-0.0028294
-0.00610645
-0.00996642
-0.014232
-0.018354
-0.0219553
-0.0240977
-0.0240532
-0.0220211
-0.0194678
-0.0160189
-0.0123254
-0.00834667
-0.00438498
-0.000968069
0.00163673
0.00348477
0.00470786
0.00547597
0.00583992
0.00599038
0.00602464
0.00600319
0.00597182
0.00594804
0.00593221
0.00591659
0.00590232
0.00589292
0.00511823
0.00503645
0.00492441
0.00476725
0.00453934
0.00419818
0.00367991
0.00285778
0.00157658
-0.000305974
-0.00293002
-0.00639986
-0.0107808
-0.0157535
-0.0209187
-0.0255651
-0.0290002
-0.0304579
-0.0291986
-0.0249977
-0.0201272
-0.0148422
-0.00959131
-0.00459043
-0.000227777
0.00303126
0.00522414
0.00650987
0.00710456
0.00716363
0.00693672
0.00666662
0.00641078
0.00620424
0.00605047
0.00594103
0.00587162
0.00582742
0.00579943
0.00577948
0.00471447
0.00468095
0.00459003
0.00443014
0.00417562
0.00377447
0.00317755
0.00222269
0.000712937
-0.00155526
-0.00468641
-0.00897637
-0.0143708
-0.0203685
-0.0264113
-0.0316207
-0.0353233
-0.0362581
-0.0341717
-0.0281894
-0.0210878
-0.0137379
-0.00659061
-0.000585731
0.0037804
0.0065408
0.00806029
0.00859526
0.00845124
0.00792593
0.00735648
0.0068349
0.00641666
0.00610081
0.0058696
0.00570565
0.00560251
0.00554863
0.00552997
0.00554953
0.00441661
0.00443413
0.00437284
0.00423215
0.00398003
0.00358203
0.00296591
0.0020037
0.000516531
-0.0017464
-0.00482331
-0.0091146
-0.0144807
-0.0203857
-0.0262536
-0.0312842
-0.0349646
-0.0358727
-0.0337931
-0.0281509
-0.0208534
-0.0131941
-0.00577537
0.000182981
0.00425466
0.00670378
0.00798393
0.00834372
0.00807124
0.00754855
0.00705002
0.00652049
0.00610118
0.00578085
0.00554675
0.00538702
0.00528671
0.00523952
0.0052302
0.00526722
0.00418786
0.00420381
0.00415203
0.00404226
0.00384272
0.00352749
0.00303136
0.002267
0.00110846
-0.000637935
-0.00302044
-0.00621442
-0.0101972
-0.0146652
-0.0192397
-0.0232794
-0.026689
-0.0282002
-0.0276694
-0.0243117
-0.0195
-0.0139701
-0.00857944
-0.00394294
-0.000353824
0.00222002
0.00393619
0.00496348
0.0054703
0.00568209
0.00569093
0.00555175
0.0053835
0.00523392
0.00511875
0.00504394
0.00500013
0.00498066
0.00497409
0.00497914
0.00404846
0.00403318
0.00399852
0.00394399
0.00384464
0.00368098
0.00341447
0.00298722
0.00234438