/*--------------------------------*- C++ -*----------------------------------*\
| =========                 |                                                 |
| \\      /  F ield         | OpenFOAM: The Open Source CFD Toolbox           |
|  \\    /   O peration     | Version:  v2106                                 |
|   \\  /    A nd           | Website:  www.openfoam.com                      |
|    \\/     M anipulation  |                                                 |
\*---------------------------------------------------------------------------*/
FoamFile
{
    version     2.0;
    format      ascii;
    arch        "LSB;label=32;scalar=64";
    class       pointVectorField;
    location    "0";
    object      pointDisplacement;
}
// * * * * * * * * * * * * * * * * * * * * * * * * * * * * * * * * * * * * * //

dimensions      [0 1 0 0 0 0 0];

internalField   nonuniform List<vector> 
24440
(
(0 0 0)
(0 0 0)
(0 0 0)
(0 0 0)
(0 0 0)
(0 0 0)
(0 0 0)
(0 0 0)
(0 0 0)
(0 0 0)
(0 0 0)
(0 0 0)
(0 0 0)
(0 0 0)
(0 0 0)
(0 0 0)
(0 0 0)
(0 0 0)
(0 0 0)
(0 0 0)
(0 0 0)
(0 0 0)
(0 0 0)
(0 0 0)
(0 0 0)
(0 0 0)
(0 0 0)
(0 0 0)
(0 0 0)
(0 0 0)
(0 0 0)
(0 0 0)
(0 0 0)
(0 0 0)
(0 0 0)
(0 0 0)
(0 0 0)
(0 0 0)
(0 0 0)
(0 0 0)
(0 0 0)
(0 0 0)
(0 0 0)
(0 0 0)
(0 0 0)
(0 0 0)
(0 0 0)
(0 0 0)
(0 0 0)
(0 0 0)
(0 0 0)
(0 0 0)
(0 0 0)
(0 0 0)
(0 0 0)
(0 0 0)
(0 0 0)
(0 0 0)
(0 0 0)
(0 0 0)
(0 0 0)
(0 0 0)
(0 0 0)
(0 0 0)
(0 0 0)
(0 0 0)
(0 0 0)
(0 0 0)
(0 0 0)
(0 0 0)
(0 0 0)
(0 0 0)
(0 0 0)
(0 0 0)
(0 0 0)
(0 0 0)
(0 0 0)
(0 0 0)
(0 0 0)
(0 0 0)
(0 0 0)
(0 0 0)
(0 0 0)
(0 0 0)
(0 0 0)
(0 0 0)
(0 0 0)
(0 0 0)
(0 0 0)
(0 0 0)
(0 0 0)
(0 0 0)
(0 0 0)
(0 0 0)
(0 0 0)
(0 0 0)
(0 0 0)
(0 0 0)
(0 -6.70294e-07 0)
(0 -4.22692e-06 0)
(0 -1.16231e-05 0)
(0 -1.79107e-05 0)
(0 -2.03236e-05 0)
(0 -1.79107e-05 0)
(0 -1.16231e-05 0)
(0 -4.22692e-06 0)
(0 -6.70294e-07 0)
(0 0 0)
(0 0 0)
(0 0 0)
(0 0 0)
(0 0 0)
(0 0 0)
(0 0 0)
(0 0 0)
(0 0 0)
(0 0 0)
(0 0 0)
(0 0 0)
(0 0 0)
(0 0 0)
(0 0 0)
(0 0 0)
(0 0 0)
(0 0 0)
(0 0 0)
(0 0 0)
(0 0 0)
(0 0 0)
(0 0 0)
(0 0 0)
(0 0 0)
(0 0 0)
(0 0 0)
(0 0 0)
(0 0 0)
(0 -1.12256e-06 0)
(0 -1.48496e-05 0)
(0 -4.37013e-05 0)
(0 -7.87251e-05 0)
(0 -0.000112294 0)
(0 -0.000135696 0)
(0 -0.000157451 0)
(0 -0.000165106 0)
(0 -0.000157451 0)
(0 -0.000135696 0)
(0 -0.000112294 0)
(0 -7.87251e-05 0)
(0 -4.37013e-05 0)
(0 -1.48496e-05 0)
(0 -1.12256e-06 0)
(0 0 0)
(0 0 0)
(0 0 0)
(0 0 0)
(0 0 0)
(0 0 0)
(0 0 0)
(0 0 0)
(0 0 0)
(0 0 0)
(0 0 0)
(0 0 0)
(0 0 0)
(0 0 0)
(0 0 0)
(0 0 0)
(0 0 0)
(0 0 0)
(0 0 0)
(0 0 0)
(0 0 0)
(0 0 0)
(0 0 0)
(0 0 0)
(0 -4.71316e-07 0)
(0 -1.95287e-05 0)
(0 -6.65989e-05 0)
(0 -0.000131332 0)
(0 -0.000198007 0)
(0 -0.000272392 0)
(0 -0.000336815 0)
(0 -0.000376714 0)
(0 -0.000414866 0)
(0 -0.000428051 0)
(0 -0.000414866 0)
(0 -0.000376714 0)
(0 -0.000336815 0)
(0 -0.000272392 0)
(0 -0.000198007 0)
(0 -0.000131332 0)
(0 -6.65989e-05 0)
(0 -1.95287e-05 0)
(0 -4.71316e-07 0)
(0 0 0)
(0 0 0)
(0 0 0)
(0 0 0)
(0 0 0)
(0 0 0)
(0 0 0)
(0 0 0)
(0 0 0)
(0 0 0)
(0 0 0)
(0 0 0)
(0 0 0)
(0 0 0)
(0 0 0)
(0 0 0)
(0 0 0)
(0 0 0)
(0 0 0)
(0 0 0)
(0 0 0)
(0 -4.45652e-06 0)
(0 -4.63454e-05 0)
(0 -0.000123165 0)
(0 -0.000216095 0)
(0 -0.000331477 0)
(0 -0.000447851 0)
(0 -0.000548666 0)
(0 -0.000643106 0)
(0 -0.000710122 0)
(0 -0.000750162 0)
(0 -0.000768542 0)
(0 -0.000750162 0)
(0 -0.000710122 0)
(0 -0.000643106 0)
(0 -0.000548666 0)
(0 -0.000447851 0)
(0 -0.000331477 0)
(0 -0.000216095 0)
(0 -0.000123165 0)
(0 -4.63454e-05 0)
(0 -4.71798e-06 0)
(0 0 0)
(0 0 0)
(0 0 0)
(0 0 0)
(0 0 0)
(0 0 0)
(0 0 0)
(0 0 0)
(0 0 0)
(0 0 0)
(0 0 0)
(0 0 0)
(0 0 0)
(0 0 0)
(0 0 0)
(0 0 0)
(0 0 0)
(0 0 0)
(0 0 0)
(0 -8.76498e-06 0)
(0 -6.146e-05 0)
(0 -0.000153396 0)
(0 -0.000281612 0)
(0 -0.000433992 0)
(0 -0.000592338 0)
(0 -0.000737648 0)
(0 -0.000875404 0)
(0 -0.000927168 0)
(0 -0.000983146 0)
(0 -0.00102997 0)
(0 -0.00106686 0)
(0 -0.00109324 0)
(0 -0.00111148 0)
(0 -0.00112834 0)
(0 -0.00113398 0)
(0 -0.00112834 0)
(0 -0.00111148 0)
(0 -0.00109324 0)
(0 -0.00106686 0)
(0 -0.00102997 0)
(0 -0.000983146 0)
(0 -0.000927168 0)
(0 -0.000875404 0)
(0 -0.000737648 0)
(0 -0.000592338 0)
(0 -0.000433992 0)
(0 -0.000281612 0)
(0 -0.000150212 0)
(0 -5.55353e-05 0)
(0 -7.00379e-06 0)
(0 0 0)
(0 0 0)
(0 0 0)
(0 0 0)
(0 0 0)
(0 0 0)
(0 0 0)
(0 0 0)
(0 0 0)
(0 0 0)
(0 0 0)
(0 0 0)
(0 0 0)
(0 0 0)
(0 0 0)
(0 0 0)
(0 0 0)
(0 -5.15542e-06 0)
(0 -5.89983e-05 0)
(0 -0.00016438 0)
(0 -0.000309314 0)
(0 -0.000479082 0)
(0 -0.000678825 0)
(0 -0.000774332 0)
(0 -0.000858987 0)
(0 -0.000952683 0)
(0 -0.00104051 0)
(0 -0.00112086 0)
(0 -0.00118912 0)
(0 -0.00103633 0)
(0 -0.00109961 0)
(0 -0.00114954 0)
(0 -0.00119991 0)
(0 -0.00123942 0)
(0 -0.00126758 0)
(0 -0.00128446 0)
(0 -0.00130235 0)
(0 -0.00130833 0)
(0 -0.00130235 0)
(0 -0.00128446 0)
(0 -0.00126758 0)
(0 -0.00123942 0)
(0 -0.00119991 0)
(0 -0.00114954 0)
(0 -0.00109961 0)
(0 -0.00103633 0)
(0 -0.00118912 0)
(0 -0.00112086 0)
(0 -0.00104051 0)
(0 -0.000952683 0)
(0 -0.000858987 0)
(0 -0.000774332 0)
(0 -0.000678825 0)
(0 -0.000479082 0)
(0 -0.000309314 0)
(0 -0.000158384 0)
(0 -5.64314e-05 0)
(0 -4.68186e-06 0)
(0 0 0)
(0 0 0)
(0 0 0)
(0 0 0)
(0 0 0)
(0 0 0)
(0 0 0)
(0 0 0)
(0 0 0)
(0 0 0)
(0 0 0)
(0 0 0)
(0 0 0)
(0 0 0)
(0 0 0)
(0 0 0)
(0 -3.26193e-05 0)
(0 -0.000133303 0)
(0 -0.000284984 0)
(0 -0.000475513 0)
(0 -0.000687718 0)
(0 -0.000903342 0)
(0 -0.000795105 0)
(0 -0.000898965 0)
(0 -0.000998905 0)
(0 -0.00109301 0)
(0 -0.00117661 0)
(0 -0.0012614 0)
(0 -0.00133633 0)
(0 -0.00139823 0)
(0 -0.00125635 0)
(0 -0.00131298 0)
(0 -0.0014566 0)
(0 -0.00149862 0)
(0 -0.00135804 0)
(0 -0.00139926 0)
(0 -0.00154042 0)
(0 -0.00156985 0)
(0 -0.0014285 0)
(0 -0.00144332 0)
(0 -0.0015869 0)
(0 -0.00160043 0)
(0 -0.00146177 0)
(0 -0.00146792 0)
(0 -0.00160654 0)
(0 -0.00160043 0)
(0 -0.00146177 0)
(0 -0.00144332 0)
(0 -0.0015869 0)
(0 -0.00156985 0)
(0 -0.0014285 0)
(0 -0.00139926 0)
(0 -0.00154042 0)
(0 -0.00149862 0)
(0 -0.00135804 0)
(0 -0.00131298 0)
(0 -0.0014566 0)
(0 -0.00139823 0)
(0 -0.00125635 0)
(0 -0.00133633 0)
(0 -0.0012614 0)
(0 -0.00117661 0)
(0 -0.00109301 0)
(0 -0.000998905 0)
(0 -0.000898965 0)
(0 -0.000795105 0)
(0 -0.000903342 0)
(0 -0.000687718 0)
(0 -0.000469789 0)
(0 -0.000282735 0)
(0 -0.000133161 0)
(0 -3.54623e-05 0)
(0 0 0)
(0 0 0)
(0 0 0)
(0 0 0)
(0 0 0)
(0 0 0)
(0 0 0)
(0 0 0)
(0 0 0)
(0 0 0)
(0 0 0)
(0 0 0)
(0 0 0)
(0 0 0)
(0 0 0)
(0 -7.11586e-06 0)
(0 -7.31062e-05 0)
(0 -0.000210727 0)
(0 -0.000394818 0)
(0 -0.00061367 0)
(0 -0.000864408 0)
(0 -0.00110593 0)
(0 -0.00101194 0)
(0 -0.00112135 0)
(0 -0.00100688 0)
(0 -0.00111949 0)
(0 -0.00122419 0)
(0 -0.00132736 0)
(0 -0.00121859 0)
(0 -0.0013091 0)
(0 -0.00142038 0)
(0 -0.00146279 0)
(0 -0.00150227 0)
(0 -0.00144859 0)
(0 -0.0013855 0)
(0 -0.00146239 0)
(0 -0.00151753 0)
(0 -0.00155159 0)
(0 -0.00149643 0)
(0 -0.00157924 0)
(0 -0.00163154 0)
(0 -0.00165575 0)
(0 -0.00160381 0)
(0 -0.00165796 0)
(0 -0.00170913 0)
(0 -0.00172188 0)
(0 -0.00167372 0)
(0 -0.00170268 0)
(0 -0.00174957 0)
(0 -0.00175624 0)
(0 -0.00171044 0)
(0 -0.00171878 0)
(0 -0.00176359 0)
(0 -0.00176224 0)
(0 -0.00171734 0)
(0 -0.00170268 0)
(0 -0.00174957 0)
(0 -0.00174324 0)
(0 -0.00169603 0)
(0 -0.00165796 0)
(0 -0.00170913 0)
(0 -0.00169448 0)
(0 -0.00164344 0)
(0 -0.00157924 0)
(0 -0.00163154 0)
(0 -0.00161018 0)
(0 -0.0015515 0)
(0 -0.00146239 0)
(0 -0.00151753 0)
(0 -0.00148037 0)
(0 -0.00142538 0)
(0 -0.0013091 0)
(0 -0.00142038 0)
(0 -0.00132736 0)
(0 -0.00121859 0)
(0 -0.00111949 0)
(0 -0.00122419 0)
(0 -0.00112135 0)
(0 -0.00100688 0)
(0 -0.00101194 0)
(0 -0.00110094 0)
(0 -0.000863811 0)
(0 -0.000623561 0)
(0 -0.000391503 0)
(0 -0.000208676 0)
(0 -7.67702e-05 0)
(0 -8.13735e-06 0)
(0 0 0)
(0 0 0)
(0 0 0)
(0 0 0)
(0 0 0)
(0 0 0)
(0 0 0)
(0 0 0)
(0 0 0)
(0 0 0)
(0 0 0)
(0 0 0)
(0 0 0)
(0 0 0)
(0 -2.32814e-05 0)
(0 -0.000117829 0)
(0 -0.000276844 0)
(0 -0.000486452 0)
(0 -0.000728685 0)
(0 -0.000995116 0)
(0 -0.00124378 0)
(0 -0.00118242 0)
(0 -0.00129944 0)
(0 -0.0012198 0)
(0 -0.00132612 0)
(0 -0.00140796 0)
(0 -0.00150597 0)
(0 -0.00142297 0)
(0 -0.00150875 0)
(0 -0.00155319 0)
(0 -0.00159141 0)
(0 -0.00155314 0)
(0 -0.00166113 0)
(0 -0.00167951 0)
(0 -0.00169435 0)
(0 -0.00167613 0)
(0 -0.00175847 0)
(0 -0.00177317 0)
(0 -0.00178272 0)
(0 -0.00176832 0)
(0 -0.00181609 0)
(0 -0.00182681 0)
(0 -0.00183167 0)
(0 -0.00182087 0)
(0 -0.00184134 0)
(0 -0.0018492 0)
(0 -0.00185032 0)
(0 -0.00184269 0)
(0 -0.0018478 0)
(0 -0.00185413 0)
(0 -0.00185403 0)
(0 -0.00184765 0)
(0 -0.00184134 0)
(0 -0.0018492 0)
(0 -0.00184765 0)
(0 -0.0018395 0)
(0 -0.00181609 0)
(0 -0.00182681 0)
(0 -0.00182273 0)
(0 -0.00181033 0)
(0 -0.00175847 0)
(0 -0.00177317 0)
(0 -0.00176486 0)
(0 -0.00174775 0)
(0 -0.00166113 0)
(0 -0.00167951 0)
(0 -0.00169633 0)
(0 -0.00166432 0)
(0 -0.00162852 0)
(0 -0.00150875 0)
(0 -0.00155319 0)
(0 -0.00159179 0)
(0 -0.00150597 0)
(0 -0.00142297 0)
(0 -0.00132612 0)
(0 -0.00140474 0)
(0 -0.0012986 0)
(0 -0.0012198 0)
(0 -0.00118384 0)
(0 -0.00124746 0)
(0 -0.000992615 0)
(0 -0.000735944 0)
(0 -0.000491553 0)
(0 -0.000280052 0)
(0 -0.00011951 0)
(0 -2.38557e-05 0)
(0 0 0)
(0 0 0)
(0 0 0)
(0 0 0)
(0 0 0)
(0 0 0)
(0 0 0)
(0 0 0)
(0 0 0)
(0 0 0)
(0 0 0)
(0 0 0)
(0 0 0)
(0 0 0)
(0 -3.58993e-05 0)
(0 -0.000146376 0)
(0 -0.000322117 0)
(0 -0.000548282 0)
(0 -0.000805823 0)
(0 -0.0010731 0)
(0 -0.00132774 0)
(0 -0.00129619 0)
(0 -0.00141228 0)
(0 -0.00135839 0)
(0 -0.00146348 0)
(0 -0.00151804 0)
(0 -0.0016114 0)
(0 -0.00156631 0)
(0 -0.0016513 0)
(0 -0.00167229 0)
(0 -0.00170886 0)
(0 -0.00168836 0)
(0 -0.00177642 0)
(0 -0.00178612 0)
(0 -0.00179707 0)
(0 -0.00178767 0)
(0 -0.00184392 0)
(0 -0.0018486 0)
(0 -0.00185251 0)
(0 -0.00184838 0)
(0 -0.00186008 0)
(0 -0.00186008 0)
(0 -0.00186008 0)
(0 -0.00186008 0)
(0 -0.00186008 0)
(0 -0.00186008 0)
(0 -0.00186008 0)
(0 -0.00186008 0)
(0 -0.00186008 0)
(0 -0.00186008 0)
(0 -0.00186008 0)
(0 -0.00186008 0)
(0 -0.00186008 0)
(0 -0.00186008 0)
(0 -0.00186008 0)
(0 -0.00186008 0)
(0 -0.00186008 0)
(0 -0.00186008 0)
(0 -0.00186008 0)
(0 -0.00186008 0)
(0 -0.00184392 0)
(0 -0.0018486 0)
(0 -0.00184345 0)
(0 -0.00183856 0)
(0 -0.00177642 0)
(0 -0.00178612 0)
(0 -0.00179441 0)
(0 -0.00176911 0)
(0 -0.00175099 0)
(0 -0.00165034 0)
(0 -0.00167473 0)
(0 -0.00169335 0)
(0 -0.00160917 0)
(0 -0.0015677 0)
(0 -0.00147182 0)
(0 -0.00151616 0)
(0 -0.00141078 0)
(0 -0.00136439 0)
(0 -0.00129509 0)
(0 -0.0013284 0)
(0 -0.00107266 0)
(0 -0.000804543 0)
(0 -0.000546524 0)
(0 -0.000320283 0)
(0 -0.000144858 0)
(0 -3.50375e-05 0)
(0 0 0)
(0 0 0)
(0 0 0)
(0 0 0)
(0 0 0)
(0 0 0)
(0 0 0)
(0 0 0)
(0 0 0)
(0 0 0)
(0 0 0)
(0 0 0)
(0 0 0)
(0 0 0)
(0 -3.80614e-05 0)
(0 -0.000151055 0)
(0 -0.000329493 0)
(0 -0.000558381 0)
(0 -0.000818488 0)
(0 -0.00108796 0)
(0 -0.00134415 0)
(0 -0.00134463 0)
(0 -0.00146083 0)
(0 -0.00144361 0)
(0 -0.00154859 0)
(0 -0.00156583 0)
(0 -0.0016574 0)
(0 -0.00164054 0)
(0 -0.00172058 0)
(0 -0.00172831 0)
(0 -0.0017604 0)
(0 -0.00175343 0)
(0 -0.00182586 0)
(0 -0.00182884 0)
(0 -0.00183676 0)
(0 -0.00183401 0)
(0 -0.00186008 0)
(0 -0.00186008 0)
(0 -0.00186008 0)
(0 -0.00186008 0)
(0 -0.00186008 0)
(0 -0.00186008 0)
(0 -0.00186008 0)
(0 -0.00186008 0)
(0 -0.00186008 0)
(0 -0.00186008 0)
(0 -0.00186008 0)
(0 -0.00186008 0)
(0 -0.00186008 0)
(0 -0.00186008 0)
(0 -0.00186008 0)
(0 -0.00186008 0)
(0 -0.00186008 0)
(0 -0.00186001 0)
(0 -0.00185974 0)
(0 -0.00182586 0)
(0 -0.00182884 0)
(0 -0.00183081 0)
(0 -0.00181221 0)
(0 -0.00180565 0)
(0 -0.00172047 0)
(0 -0.00172842 0)
(0 -0.00173363 0)
(0 -0.0016574 0)
(0 -0.00164292 0)
(0 -0.00155043 0)
(0 -0.00156189 0)
(0 -0.0014563 0)
(0 -0.00144487 0)
(0 -0.00133961 0)
(0 -0.00134115 0)
(0 -0.00108461 0)
(0 -0.00081509 0)
(0 -0.000555226 0)
(0 -0.000326854 0)
(0 -0.000149162 0)
(0 -3.70805e-05 0)
(0 0 0)
(0 0 0)
(0 0 0)
(0 0 0)
(0 0 0)
(0 0 0)
(0 0 0)
(0 0 0)
(0 0 0)
(0 0 0)
(0 0 0)
(0 0 0)
(0 0 0)
(0 0 0)
(0 -3.11049e-05 0)
(0 -0.000135941 0)
(0 -0.000305837 0)
(0 -0.000526298 0)
(0 -0.000778661 0)
(0 -0.00104171 0)
(0 -0.00129354 0)
(0 -0.00132988 0)
(0 -0.0014459 0)
(0 -0.00146045 0)
(0 -0.00156555 0)
(0 -0.00155098 0)
(0 -0.00164299 0)
(0 -0.00165723 0)
(0 -0.00173355 0)
(0 -0.00172947 0)
(0 -0.00176155 0)
(0 -0.00176544 0)
(0 -0.00183407 0)
(0 -0.0018331 0)
(0 -0.00184053 0)
(0 -0.00184141 0)
(0 -0.00186008 0)
(0 -0.00186008 0)
(0 -0.00186008 0)
(0 -0.00186008 0)
(0 -0.00186008 0)
(0 -0.00186008 0)
(0 -0.00186008 0)
(0 -0.00186008 0)
(0 -0.00186008 0)
(0 -0.00186008 0)
(0 -0.00186008 0)
(0 -0.00186008 0)
(0 -0.00186008 0)
(0 -0.00186008 0)
(0 -0.00186008 0)
(0 -0.00186008 0)
(0 -0.00183407 0)
(0 -0.00183231 0)
(0 -0.00183135 0)
(0 -0.00181279 0)
(0 -0.0018149 0)
(0 -0.00173194 0)
(0 -0.00172934 0)
(0 -0.00172145 0)
(0 -0.00164411 0)
(0 -0.0016552 0)
(0 -0.00156314 0)
(0 -0.0015518 0)
(0 -0.00144639 0)
(0 -0.00145772 0)
(0 -0.00133004 0)
(0 -0.00129683 0)
(0 -0.00104412 0)
(0 -0.000780239 0)
(0 -0.000527167 0)
(0 -0.000306182 0)
(0 -0.000135975 0)
(0 -3.1037e-05 0)
(0 0 0)
(0 0 0)
(0 0 0)
(0 0 0)
(0 0 0)
(0 0 0)
(0 0 0)
(0 0 0)
(0 0 0)
(0 0 0)
(0 0 0)
(0 0 0)
(0 0 0)
(0 0 0)
(0 -1.57324e-05 0)
(0 -9.88183e-05 0)
(0 -0.00024579 0)
(0 -0.00044345 0)
(0 -0.000689439 0)
(0 -0.000940978 0)
(0 -0.00118633 0)
(0 -0.0012514 0)
(0 -0.00136771 0)
(0 -0.00140871 0)
(0 -0.00152047 0)
(0 -0.00147444 0)
(0 -0.00156956 0)
(0 -0.00161527 0)
(0 -0.00169579 0)
(0 -0.00167649 0)
(0 -0.00171148 0)
(0 -0.00173022 0)
(0 -0.0018088 0)
(0 -0.00180331 0)
(0 -0.00181329 0)
(0 -0.00181915 0)
(0 -0.00185783 0)
(0 -0.00185593 0)
(0 -0.0018582 0)
(0 -0.00185938 0)
(0 -0.00186008 0)
(0 -0.00186008 0)
(0 -0.00186008 0)
(0 -0.00186008 0)
(0 -0.00186008 0)
(0 -0.00186008 0)
(0 -0.00186008 0)
(0 -0.00186008 0)
(0 -0.00185783 0)
(0 -0.00185565 0)
(0 -0.00185262 0)
(0 -0.00185532 0)
(0 -0.0018088 0)
(0 -0.00180331 0)
(0 -0.00179585 0)
(0 -0.00177219 0)
(0 -0.0017868 0)
(0 -0.00169579 0)
(0 -0.00167649 0)
(0 -0.00165458 0)
(0 -0.00156956 0)
(0 -0.00161527 0)
(0 -0.00151763 0)
(0 -0.00147444 0)
(0 -0.00136771 0)
(0 -0.0014124 0)
(0 -0.0012514 0)
(0 -0.00118633 0)
(0 -0.000940978 0)
(0 -0.000680554 0)
(0 -0.000447809 0)
(0 -0.000248649 0)
(0 -0.000100383 0)
(0 -1.62611e-05 0)
(0 0 0)
(0 0 0)
(0 0 0)
(0 0 0)
(0 0 0)
(0 0 0)
(0 0 0)
(0 0 0)
(0 0 0)
(0 0 0)
(0 0 0)
(0 0 0)
(0 0 0)
(0 0 0)
(0 -1.94665e-06 0)
(0 -5.77859e-05 0)
(0 -0.000175965 0)
(0 -0.000346019 0)
(0 -0.0005524 0)
(0 -0.000776999 0)
(0 -0.00101268 0)
(0 -0.00110204 0)
(0 -0.00122188 0)
(0 -0.00130045 0)
(0 -0.00141146 0)
(0 -0.00132679 0)
(0 -0.00143186 0)
(0 -0.001508 0)
(0 -0.0015967 0)
(0 -0.00156113 0)
(0 -0.00160031 0)
(0 -0.00163558 0)
(0 -0.00173077 0)
(0 -0.00171493 0)
(0 -0.00172933 0)
(0 -0.00174249 0)
(0 -0.0018149 0)
(0 -0.00180448 0)
(0 -0.00181209 0)
(0 -0.0018221 0)
(0 -0.00185252 0)
(0 -0.00184669 0)
(0 -0.00184925 0)
(0 -0.00185457 0)
(0 -0.00186008 0)
(0 -0.00185905 0)
(0 -0.00185945 0)
(0 -0.00186008 0)
(0 -0.00186008 0)
(0 -0.00186008 0)
(0 -0.00186008 0)
(0 -0.00186008 0)
(0 -0.00186008 0)
(0 -0.00186008 0)
(0 -0.00185905 0)
(0 -0.00185848 0)
(0 -0.00186002 0)
(0 -0.00186007 0)
(0 -0.00185252 0)
(0 -0.00184669 0)
(0 -0.00184353 0)
(0 -0.00184988 0)
(0 -0.0018149 0)
(0 -0.00180448 0)
(0 -0.00179601 0)
(0 -0.00180681 0)
(0 -0.00173205 0)
(0 -0.0017175 0)
(0 -0.00170003 0)
(0 -0.00167114 0)
(0 -0.00170255 0)
(0 -0.00159231 0)
(0 -0.00155932 0)
(0 -0.00152079 0)
(0 -0.0014299 0)
(0 -0.001508 0)
(0 -0.00141146 0)
(0 -0.00132679 0)
(0 -0.00122188 0)
(0 -0.00130045 0)
(0 -0.00110204 0)
(0 -0.00101268 0)
(0 -0.000776999 0)
(0 -0.0005524 0)
(0 -0.000346019 0)
(0 -0.000175965 0)
(0 -5.39028e-05 0)
(0 -2.33828e-06 0)
(0 0 0)
(0 0 0)
(0 0 0)
(0 0 0)
(0 0 0)
(0 0 0)
(0 0 0)
(0 0 0)
(0 0 0)
(0 0 0)
(0 0 0)
(0 0 0)
(0 0 0)
(0 0 0)
(0 0 0)
(0 -1.77617e-05 0)
(0 -9.35978e-05 0)
(0 -0.000220214 0)
(0 -0.000384405 0)
(0 -0.000589551 0)
(0 -0.00080166 0)
(0 -0.000901719 0)
(0 -0.00101979 0)
(0 -0.00112076 0)
(0 -0.00123022 0)
(0 -0.00112609 0)
(0 -0.00122547 0)
(0 -0.0013331 0)
(0 -0.00142626 0)
(0 -0.0013162 0)
(0 -0.00139215 0)
(0 -0.00145521 0)
(0 -0.00150822 0)
(0 -0.00146871 0)
(0 -0.00157871 0)
(0 -0.00152359 0)
(0 -0.00155766 0)
(0 -0.00160988 0)
(0 -0.0016879 0)
(0 -0.00164065 0)
(0 -0.00165955 0)
(0 -0.00170853 0)
(0 -0.00175705 0)
(0 -0.00171517 0)
(0 -0.00172747 0)
(0 -0.00176865 0)
(0 -0.0017929 0)
(0 -0.00175427 0)
(0 -0.00176108 0)
(0 -0.00179766 0)
(0 -0.00180401 0)
(0 -0.00176833 0)
(0 -0.00176648 0)
(0 -0.00180255 0)
(0 -0.0017929 0)
(0 -0.00175427 0)
(0 -0.00174459 0)
(0 -0.00178545 0)
(0 -0.00175705 0)
(0 -0.00171517 0)
(0 -0.0016998 0)
(0 -0.00174242 0)
(0 -0.0016879 0)
(0 -0.00164065 0)
(0 -0.00161622 0)
(0 -0.00166399 0)
(0 -0.00157871 0)
(0 -0.00152359 0)
(0 -0.0014916 0)
(0 -0.00154466 0)
(0 -0.00142626 0)
(0 -0.0013162 0)
(0 -0.00122547 0)
(0 -0.0013331 0)
(0 -0.00123022 0)
(0 -0.00112609 0)
(0 -0.00101979 0)
(0 -0.00112076 0)
(0 -0.000901719 0)
(0 -0.00080166 0)
(0 -0.000589551 0)
(0 -0.000384405 0)
(0 -0.000220214 0)
(0 -9.35978e-05 0)
(0 -1.77617e-05 0)
(0 0 0)
(0 0 0)
(0 0 0)
(0 0 0)
(0 0 0)
(0 0 0)
(0 0 0)
(0 0 0)
(0 0 0)
(0 0 0)
(0 0 0)
(0 0 0)
(0 0 0)
(0 0 0)
(0 0 0)
(0 0 0)
(0 0 0)
(0 -2.67662e-05 0)
(0 -0.000110524 0)
(0 -0.000236933 0)
(0 -0.000393703 0)
(0 -0.000565419 0)
(0 -0.000734928 0)
(0 -0.000866471 0)
(0 -0.00100635 0)
(0 -0.00090599 0)
(0 -0.000960608 0)
(0 -0.00110081 0)
(0 -0.00118413 0)
(0 -0.00104882 0)
(0 -0.00112949 0)
(0 -0.00126916 0)
(0 -0.00134427 0)
(0 -0.00127477 0)
(0 -0.00130159 0)
(0 -0.00137777 0)
(0 -0.00146325 0)
(0 -0.00139491 0)
(0 -0.00142027 0)
(0 -0.0014888 0)
(0 -0.00154704 0)
(0 -0.00147831 0)
(0 -0.00148964 0)
(0 -0.00156026 0)
(0 -0.00159728 0)
(0 -0.00153128 0)
(0 -0.00153899 0)
(0 -0.00160493 0)
(0 -0.00161392 0)
(0 -0.00154833 0)
(0 -0.00154516 0)
(0 -0.00161104 0)
(0 -0.00159728 0)
(0 -0.00153128 0)
(0 -0.00152048 0)
(0 -0.00158655 0)
(0 -0.00154704 0)
(0 -0.00147831 0)
(0 -0.001462 0)
(0 -0.00153072 0)
(0 -0.00146325 0)
(0 -0.00139491 0)
(0 -0.00136663 0)
(0 -0.00143468 0)
(0 -0.00134427 0)
(0 -0.00127477 0)
(0 -0.00119444 0)
(0 -0.00112949 0)
(0 -0.00126916 0)
(0 -0.00118413 0)
(0 -0.00104882 0)
(0 -0.000960608 0)
(0 -0.00110081 0)
(0 -0.00100635 0)
(0 -0.000866471 0)
(0 -0.000734928 0)
(0 -0.000565419 0)
(0 -0.00090599 0)
(0 -0.000393703 0)
(0 -0.000236933 0)
(0 -0.000110524 0)
(0 -2.67662e-05 0)
(0 0 0)
(0 0 0)
(0 0 0)
(0 0 0)
(0 0 0)
(0 0 0)
(0 0 0)
(0 0 0)
(0 0 0)
(0 0 0)
(0 0 0)
(0 0 0)
(0 0 0)
(0 0 0)
(0 0 0)
(0 0 0)
(0 0 0)
(0 0 0)
(0 -3.39429e-07 0)
(0 -3.04073e-05 0)
(0 -0.00010304 0)
(0 -0.000201922 0)
(0 -0.000330503 0)
(0 -0.000467634 0)
(0 -0.000600221 0)
(0 -0.000677621 0)
(0 -0.000821288 0)
(0 -0.00090274 0)
(0 -0.000742865 0)
(0 -0.000816476 0)
(0 -0.000969854 0)
(0 -0.00104344 0)
(0 -0.000964367 0)
(0 -0.000996733 0)
(0 -0.00107709 0)
(0 -0.00116383 0)
(0 -0.00108039 0)
(0 -0.00110341 0)
(0 -0.00118764 0)
(0 -0.0012416 0)
(0 -0.00115804 0)
(0 -0.00117664 0)
(0 -0.00126074 0)
(0 -0.00130085 0)
(0 -0.00121569 0)
(0 -0.00122298 0)
(0 -0.00130833 0)
(0 -0.00131818 0)
(0 -0.00123283 0)
(0 -0.00122882 0)
(0 -0.00131433 0)
(0 -0.00130085 0)
(0 -0.00121569 0)
(0 -0.00120551 0)
(0 -0.00129041 0)
(0 -0.0012416 0)
(0 -0.00115804 0)
(0 -0.00113674 0)
(0 -0.0012271 0)
(0 -0.00116383 0)
(0 -0.00108039 0)
(0 -0.00105487 0)
(0 -0.0011374 0)
(0 -0.00104344 0)
(0 -0.000964367 0)
(0 -0.000883862 0)
(0 -0.000816476 0)
(0 -0.000969854 0)
(0 -0.00090274 0)
(0 -0.000742865 0)
(0 -0.000677621 0)
(0 -0.000821288 0)
(0 -0.000600221 0)
(0 -0.000467634 0)
(0 -0.000330503 0)
(0 -0.000201922 0)
(0 -0.00010304 0)
(0 -3.04073e-05 0)
(0 -3.39429e-07 0)
(0 0 0)
(0 0 0)
(0 0 0)
(0 0 0)
(0 0 0)
(0 0 0)
(0 0 0)
(0 0 0)
(0 0 0)
(0 0 0)
(0 0 0)
(0 0 0)
(0 0 0)
(0 0 0)
(0 0 0)
(0 0 0)
(0 0 0)
(0 0 0)
(0 0 0)
(0 0 0)
(0 -1.59689e-05 0)
(0 -6.65098e-05 0)
(0 -0.000134736 0)
(0 -0.00022687 0)
(0 -0.000335461 0)
(0 -0.000395564 0)
(0 -0.000527087 0)
(0 -0.000596112 0)
(0 -0.000454463 0)
(0 -0.000510677 0)
(0 -0.000661425 0)
(0 -0.000721594 0)
(0 -0.000641387 0)
(0 -0.000667393 0)
(0 -0.000749348 0)
(0 -0.00082161 0)
(0 -0.000735275 0)
(0 -0.000747663 0)
(0 -0.000832773 0)
(0 -0.000895608 0)
(0 -0.000806996 0)
(0 -0.000822516 0)
(0 -0.000912014 0)
(0 -0.000946587 0)
(0 -0.000855263 0)
(0 -0.000861403 0)
(0 -0.000953063 0)
(0 -0.0009625 0)
(0 -0.000870564 0)
(0 -0.000866333 0)
(0 -0.000958262 0)
(0 -0.000946587 0)
(0 -0.000855263 0)
(0 -0.000846707 0)
(0 -0.000937559 0)
(0 -0.000895608 0)
(0 -0.000806996 0)
(0 -0.000789288 0)
(0 -0.000876874 0)
(0 -0.00082161 0)
(0 -0.000735275 0)
(0 -0.000714461 0)
(0 -0.00079948 0)
(0 -0.000721594 0)
(0 -0.000641387 0)
(0 -0.000562844 0)
(0 -0.000510677 0)
(0 -0.000661425 0)
(0 -0.000596112 0)
(0 -0.000454463 0)
(0 -0.000395564 0)
(0 -0.000527087 0)
(0 -0.000335461 0)
(0 -0.00022687 0)
(0 -0.000134736 0)
(0 -6.65098e-05 0)
(0 -1.59689e-05 0)
(0 0 0)
(0 0 0)
(0 0 0)
(0 0 0)
(0 0 0)
(0 0 0)
(0 0 0)
(0 0 0)
(0 0 0)
(0 0 0)
(0 0 0)
(0 0 0)
(0 0 0)
(0 0 0)
(0 0 0)
(0 0 0)
(0 0 0)
(0 0 0)
(0 0 0)
(0 0 0)
(0 0 0)
(0 0 0)
(0 0 0)
(0 -1.35987e-06 0)
(0 -2.30667e-05 0)
(0 -6.43759e-05 0)
(0 -0.000135047 0)
(0 -0.000171813 0)
(0 -0.00027541 0)
(0 -0.000323653 0)
(0 -0.000209147 0)
(0 -0.000245784 0)
(0 -0.000370222 0)
(0 -0.000413838 0)
(0 -0.000344871 0)
(0 -0.000363218 0)
(0 -0.00043417 0)
(0 -0.000483142 0)
(0 -0.000408898 0)
(0 -0.000426111 0)
(0 -0.000502056 0)
(0 -0.000549719 0)
(0 -0.000469609 0)
(0 -0.000481083 0)
(0 -0.000562262 0)
(0 -0.000588827 0)
(0 -0.00050542 0)
(0 -0.000510002 0)
(0 -0.000593823 0)
(0 -0.000601801 0)
(0 -0.000517482 0)
(0 -0.000513686 0)
(0 -0.000597838 0)
(0 -0.000588827 0)
(0 -0.00050542 0)
(0 -0.000499045 0)
(0 -0.000581873 0)
(0 -0.000549719 0)
(0 -0.000469609 0)
(0 -0.000456565 0)
(0 -0.000535446 0)
(0 -0.000483142 0)
(0 -0.000408898 0)
(0 -0.000390508 0)
(0 -0.0004629 0)
(0 -0.000413838 0)
(0 -0.000344871 0)
(0 -0.000280545 0)
(0 -0.000245784 0)
(0 -0.000370222 0)
(0 -0.000323653 0)
(0 -0.000209147 0)
(0 -0.000171813 0)
(0 -0.00027541 0)
(0 -0.000135047 0)
(0 -6.43759e-05 0)
(0 -2.30667e-05 0)
(0 -1.35987e-06 0)
(0 0 0)
(0 0 0)
(0 0 0)
(0 0 0)
(0 0 0)
(0 0 0)
(0 0 0)
(0 0 0)
(0 0 0)
(0 0 0)
(0 0 0)
(0 0 0)
(0 0 0)
(0 0 0)
(0 0 0)
(0 0 0)
(0 0 0)
(0 0 0)
(0 0 0)
(0 0 0)
(0 0 0)
(0 0 0)
(0 0 0)
(0 0 0)
(0 0 0)
(0 0 0)
(0 -2.46505e-07 0)
(0 -1.85198e-05 0)
(0 -3.22581e-05 0)
(0 -8.94484e-05 0)
(0 -0.000115892 0)
(0 -4.81005e-05 0)
(0 -6.50424e-05 0)
(0 -0.000142571 0)
(0 -0.000168413 0)
(0 -0.000115928 0)
(0 -0.000127796 0)
(0 -0.000174776 0)
(0 -0.000214595 0)
(0 -0.000161501 0)
(0 -0.000171732 0)
(0 -0.000226574 0)
(0 -0.000257207 0)
(0 -0.000198056 0)
(0 -0.000205105 0)
(0 -0.000265369 0)
(0 -0.000282785 0)
(0 -0.000220192 0)
(0 -0.000223052 0)
(0 -0.000286079 0)
(0 -0.000291808 0)
(0 -0.00022813 0)
(0 -0.000225356 0)
(0 -0.000288731 0)
(0 -0.000282785 0)
(0 -0.000220192 0)
(0 -0.000216222 0)
(0 -0.000278209 0)
(0 -0.000257207 0)
(0 -0.000198056 0)
(0 -0.000190095 0)
(0 -0.000247969 0)
(0 -0.000214595 0)
(0 -0.000161501 0)
(0 -0.000150697 0)
(0 -0.000201895 0)
(0 -0.000168413 0)
(0 -0.000115928 0)
(0 -7.79568e-05 0)
(0 -6.50424e-05 0)
(0 -0.000142571 0)
(0 -0.000115892 0)
(0 -4.81005e-05 0)
(0 -3.22581e-05 0)
(0 -8.94484e-05 0)
(0 -1.85198e-05 0)
(0 -2.46505e-07 0)
(0 0 0)
(0 0 0)
(0 0 0)
(0 0 0)
(0 0 0)
(0 0 0)
(0 0 0)
(0 0 0)
(0 0 0)
(0 0 0)
(0 0 0)
(0 0 0)
(0 0 0)
(0 0 0)
(0 0 0)
(0 0 0)
(0 0 0)
(0 0 0)
(0 0 0)
(0 0 0)
(0 0 0)
(0 0 0)
(0 0 0)
(0 0 0)
(0 0 0)
(0 0 0)
(0 0 0)
(0 0 0)
(0 0 0)
(0 0 0)
(0 0 0)
(0 -9.05317e-06 0)
(0 -3.27442e-06 0)
(0 0 0)
(0 -1.42361e-05 0)
(0 -2.37832e-05 0)
(0 -7.28119e-07 0)
(0 -3.18257e-06 0)
(0 -3.42735e-05 0)
(0 -4.49032e-05 0)
(0 -6.71088e-06 0)
(0 -1.06857e-05 0)
(0 -5.49472e-05 0)
(0 -6.37756e-05 0)
(0 -1.45592e-05 0)
(0 -1.78767e-05 0)
(0 -7.08675e-05 0)
(0 -7.58225e-05 0)
(0 -2.02877e-05 0)
(0 -2.15536e-05 0)
(0 -7.83689e-05 0)
(0 -8.04063e-05 0)
(0 -2.26351e-05 0)
(0 -2.15536e-05 0)
(0 -7.83689e-05 0)
(0 -7.58225e-05 0)
(0 -2.02877e-05 0)
(0 -1.78767e-05 0)
(0 -7.08675e-05 0)
(0 -6.37756e-05 0)
(0 -1.45592e-05 0)
(0 -1.06857e-05 0)
(0 -5.49472e-05 0)
(0 -4.49032e-05 0)
(0 -6.71088e-06 0)
(0 -3.18257e-06 0)
(0 -3.42735e-05 0)
(0 -2.37832e-05 0)
(0 -7.28119e-07 0)
(0 0 0)
(0 -1.42361e-05 0)
(0 -9.05317e-06 0)
(0 0 0)
(0 0 0)
(0 0 0)
(0 -3.27442e-06 0)
(0 0 0)
(0 0 0)
(0 0 0)
(0 0 0)
(0 0 0)
(0 0 0)
(0 0 0)
(0 0 0)
(0 0 0)
(0 0 0)
(0 0 0)
(0 0 0)
(0 0 0)
(0 0 0)
(0 0 0)
(0 0 0)
(0 0 0)
(0 0 0)
(0 0 0)
(0 0 0)
(0 0 0)
(0 0 0)
(0 0 0)
(0 0 0)
(0 0 0)
(0 0 0)
(0 0 0)
(0 0 0)
(0 0 0)
(0 0 0)
(0 0 0)
(0 0 0)
(0 0 0)
(0 0 0)
(0 0 0)
(0 0 0)
(0 0 0)
(0 0 0)
(0 0 0)
(0 0 0)
(0 -6.54354e-08 0)
(0 0 0)
(0 0 0)
(0 -2.51817e-07 0)
(0 -1.49827e-07 0)
(0 0 0)
(0 -6.54354e-08 0)
(0 -1.49827e-07 0)
(0 0 0)
(0 0 0)
(0 0 0)
(0 0 0)
(0 0 0)
(0 0 0)
(0 0 0)
(0 0 0)
(0 0 0)
(0 0 0)
(0 0 0)
(0 0 0)
(0 0 0)
(0 0 0)
(0 0 0)
(0 0 0)
(0 0 0)
(0 0 0)
(0 0 0)
(0 0 0)
(0 0 0)
(0 0 0)
(0 0 0)
(0 0 0)
(0 0 0)
(0 0 0)
(0 0 0)
(0 0 0)
(0 0 0)
(0 0 0)
(0 0 0)
(0 0 0)
(0 0 0)
(0 0 0)
(0 0 0)
(0 0 0)
(0 0 0)
(0 0 0)
(0 0 0)
(0 0 0)
(0 0 0)
(0 0 0)
(0 0 0)
(0 0 0)
(0 0 0)
(0 0 0)
(0 0 0)
(0 0 0)
(0 0 0)
(0 0 0)
(0 0 0)
(0 0 0)
(0 0 0)
(0 0 0)
(0 0 0)
(0 0 0)
(0 0 0)
(0 0 0)
(0 0 0)
(0 0 0)
(0 0 0)
(0 0 0)
(0 0 0)
(0 0 0)
(0 0 0)
(0 0 0)
(0 0 0)
(0 0 0)
(0 0 0)
(0 0 0)
(0 0 0)
(0 0 0)
(0 0 0)
(0 0 0)
(0 0 0)
(0 0 0)
(0 0 0)
(0 0 0)
(0 0 0)
(0 0 0)
(0 0 0)
(0 0 0)
(0 0 0)
(0 0 0)
(0 0 0)
(0 0 0)
(0 0 0)
(0 0 0)
(0 0 0)
(0 0 0)
(0 0 0)
(0 0 0)
(0 0 0)
(0 0 0)
(0 0 0)
(0 0 0)
(0 0 0)
(0 0 0)
(0 0 0)
(0 0 0)
(0 0 0)
(0 0 0)
(0 0 0)
(0 0 0)
(0 0 0)
(0 0 0)
(0 0 0)
(0 0 0)
(0 0 0)
(0 0 0)
(0 0 0)
(0 0 0)
(0 0 0)
(0 0 0)
(0 0 0)
(0 0 0)
(0 0 0)
(0 0 0)
(0 0 0)
(0 0 0)
(0 0 0)
(0 0 0)
(0 0 0)
(0 0 0)
(0 0 0)
(0 0 0)
(0 0 0)
(0 0 0)
(0 0 0)
(0 0 0)
(0 0 0)
(0 0 0)
(0 0 0)
(0 0 0)
(0 0 0)
(0 0 0)
(0 0 0)
(0 0 0)
(0 0 0)
(0 0 0)
(0 0 0)
(0 0 0)
(0 0 0)
(0 0 0)
(0 0 0)
(0 0 0)
(0 0 0)
(0 0 0)
(0 0 0)
(0 0 0)
(0 0 0)
(0 0 0)
(0 0 0)
(0 0 0)
(0 0 0)
(0 0 0)
(0 0 0)
(0 0 0)
(0 0 0)
(0 0 0)
(0 0 0)
(0 0 0)
(0 0 0)
(0 0 0)
(0 0 0)
(0 0 0)
(0 0 0)
(0 0 0)
(0 0 0)
(0 0 0)
(0 0 0)
(0 0 0)
(0 0 0)
(0 0 0)
(0 0 0)
(0 0 0)
(0 0 0)
(0 0 0)
(0 0 0)
(0 0 0)
(0 0 0)
(0 0 0)
(0 0 0)
(0 0 0)
(0 0 0)
(0 0 0)
(0 0 0)
(0 0 0)
(0 0 0)
(0 0 0)
(0 0 0)
(0 0 0)
(0 0 0)
(0 0 0)
(0 0 0)
(0 0 0)
(0 0 0)
(0 0 0)
(0 0 0)
(0 0 0)
(0 0 0)
(0 0 0)
(0 0 0)
(0 0 0)
(0 0 0)
(0 0 0)
(0 0 0)
(0 0 0)
(0 0 0)
(0 0 0)
(0 0 0)
(0 0 0)
(0 0 0)
(0 0 0)
(0 0 0)
(0 0 0)
(0 0 0)
(0 0 0)
(0 0 0)
(0 0 0)
(0 0 0)
(0 0 0)
(0 0 0)
(0 0 0)
(0 0 0)
(0 0 0)
(0 0 0)
(0 0 0)
(0 0 0)
(0 0 0)
(0 0 0)
(0 0 0)
(0 0 0)
(0 0 0)
(0 0 0)
(0 0 0)
(0 0 0)
(0 0 0)
(0 0 0)
(0 0 0)
(0 0 0)
(0 0 0)
(0 0 0)
(0 0 0)
(0 0 0)
(0 0 0)
(0 0 0)
(0 0 0)
(0 0 0)
(0 0 0)
(0 0 0)
(0 0 0)
(0 0 0)
(0 0 0)
(0 0 0)
(0 0 0)
(0 0 0)
(0 0 0)
(0 0 0)
(0 0 0)
(0 0 0)
(0 0 0)
(0 0 0)
(0 0 0)
(0 0 0)
(0 0 0)
(0 0 0)
(0 0 0)
(0 0 0)
(0 0 0)
(0 0 0)
(0 0 0)
(0 0 0)
(0 0 0)
(0 0 0)
(0 0 0)
(0 0 0)
(0 0 0)
(0 0 0)
(0 0 0)
(0 0 0)
(0 0 0)
(0 0 0)
(0 0 0)
(0 0 0)
(0 0 0)
(0 0 0)
(0 0 0)
(0 0 0)
(0 0 0)
(0 0 0)
(0 0 0)
(0 0 0)
(0 0 0)
(0 0 0)
(0 0 0)
(0 0 0)
(0 0 0)
(0 0 0)
(0 0 0)
(0 0 0)
(0 0 0)
(0 0 0)
(0 0 0)
(0 0 0)
(0 0 0)
(0 0 0)
(0 0 0)
(0 0 0)
(0 0 0)
(0 0 0)
(0 0 0)
(0 0 0)
(0 0 0)
(0 0 0)
(0 0 0)
(0 0 0)
(0 0 0)
(0 0 0)
(0 0 0)
(0 0 0)
(0 0 0)
(0 0 0)
(0 0 0)
(0 0 0)
(0 0 0)
(0 0 0)
(0 0 0)
(0 0 0)
(0 0 0)
(0 0 0)
(0 0 0)
(0 0 0)
(0 0 0)
(0 0 0)
(0 0 0)
(0 0 0)
(0 0 0)
(0 0 0)
(0 0 0)
(0 0 0)
(0 0 0)
(0 0 0)
(0 0 0)
(0 0 0)
(0 0 0)
(0 0 0)
(0 0 0)
(0 0 0)
(0 0 0)
(0 0 0)
(0 0 0)
(0 0 0)
(0 0 0)
(0 0 0)
(0 0 0)
(0 0 0)
(0 0 0)
(0 0 0)
(0 0 0)
(0 0 0)
(0 0 0)
(0 0 0)
(0 0 0)
(0 0 0)
(0 0 0)
(0 0 0)
(0 0 0)
(0 0 0)
(0 0 0)
(0 0 0)
(0 0 0)
(0 0 0)
(0 0 0)
(0 0 0)
(0 0 0)
(0 0 0)
(0 0 0)
(0 0 0)
(0 0 0)
(0 0 0)
(0 0 0)
(0 0 0)
(0 0 0)
(0 0 0)
(0 0 0)
(0 0 0)
(0 0 0)
(0 0 0)
(0 0 0)
(0 0 0)
(0 0 0)
(0 0 0)
(0 0 0)
(0 0 0)
(0 0 0)
(0 0 0)
(0 0 0)
(0 0 0)
(0 0 0)
(0 0 0)
(0 0 0)
(0 0 0)
(0 0 0)
(0 0 0)
(0 0 0)
(0 0 0)
(0 0 0)
(0 0 0)
(0 0 0)
(0 0 0)
(0 0 0)
(0 0 0)
(0 0 0)
(0 0 0)
(0 0 0)
(0 0 0)
(0 0 0)
(0 0 0)
(0 0 0)
(0 0 0)
(0 0 0)
(0 0 0)
(0 0 0)
(0 0 0)
(0 0 0)
(0 0 0)
(0 0 0)
(0 0 0)
(0 0 0)
(0 0 0)
(0 0 0)
(0 0 0)
(0 0 0)
(0 0 0)
(0 0 0)
(0 0 0)
(0 0 0)
(0 0 0)
(0 0 0)
(0 0 0)
(0 0 0)
(0 0 0)
(0 0 0)
(0 0 0)
(0 0 0)
(0 0 0)
(0 0 0)
(0 0 0)
(0 0 0)
(0 0 0)
(0 0 0)
(0 0 0)
(0 0 0)
(0 0 0)
(0 0 0)
(0 0 0)
(0 0 0)
(0 0 0)
(0 0 0)
(0 0 0)
(0 0 0)
(0 0 0)
(0 0 0)
(0 0 0)
(0 0 0)
(0 0 0)
(0 0 0)
(0 0 0)
(0 0 0)
(0 0 0)
(0 0 0)
(0 0 0)
(0 0 0)
(0 0 0)
(0 0 0)
(0 0 0)
(0 0 0)
(0 0 0)
(0 0 0)
(0 0 0)
(0 0 0)
(0 0 0)
(0 0 0)
(0 0 0)
(0 0 0)
(0 0 0)
(0 0 0)
(0 0 0)
(0 0 0)
(0 0 0)
(0 0 0)
(0 0 0)
(0 0 0)
(0 0 0)
(0 0 0)
(0 0 0)
(0 0 0)
(0 0 0)
(0 0 0)
(0 0 0)
(0 0 0)
(0 0 0)
(0 0 0)
(0 0 0)
(0 0 0)
(0 0 0)
(0 0 0)
(0 0 0)
(0 0 0)
(0 0 0)
(0 0 0)
(0 0 0)
(0 0 0)
(0 0 0)
(0 0 0)
(0 0 0)
(0 0 0)
(0 0 0)
(0 0 0)
(0 0 0)
(0 0 0)
(0 0 0)
(0 0 0)
(0 0 0)
(0 0 0)
(0 0 0)
(0 0 0)
(0 0 0)
(0 0 0)
(0 0 0)
(0 0 0)
(0 0 0)
(0 0 0)
(0 0 0)
(0 0 0)
(0 0 0)
(0 0 0)
(0 0 0)
(0 0 0)
(0 0 0)
(0 0 0)
(0 0 0)
(0 0 0)
(0 0 0)
(0 0 0)
(0 0 0)
(0 0 0)
(0 0 0)
(0 0 0)
(0 0 0)
(0 0 0)
(0 0 0)
(0 0 0)
(0 0 0)
(0 0 0)
(0 0 0)
(0 0 0)
(0 0 0)
(0 0 0)
(0 0 0)
(0 0 0)
(0 0 0)
(0 0 0)
(0 0 0)
(0 0 0)
(0 0 0)
(0 0 0)
(0 0 0)
(0 0 0)
(0 0 0)
(0 0 0)
(0 0 0)
(0 0 0)
(0 0 0)
(0 0 0)
(0 0 0)
(0 0 0)
(0 0 0)
(0 0 0)
(0 0 0)
(0 0 0)
(0 0 0)
(0 0 0)
(0 0 0)
(0 0 0)
(0 0 0)
(0 0 0)
(0 0 0)
(0 0 0)
(0 0 0)
(0 0 0)
(0 0 0)
(0 0 0)
(0 0 0)
(0 0 0)
(0 0 0)
(0 0 0)
(0 0 0)
(0 0 0)
(0 0 0)
(0 0 0)
(0 0 0)
(0 0 0)
(0 0 0)
(0 0 0)
(0 0 0)
(0 0 0)
(0 0 0)
(0 0 0)
(0 0 0)
(0 0 0)
(0 0 0)
(0 0 0)
(0 0 0)
(0 0 0)
(0 0 0)
(0 0 0)
(0 0 0)
(0 0 0)
(0 0 0)
(0 0 0)
(0 0 0)
(0 0 0)
(0 0 0)
(0 0 0)
(0 0 0)
(0 0 0)
(0 0 0)
(0 0 0)
(0 0 0)
(0 0 0)
(0 0 0)
(0 0 0)
(0 0 0)
(0 0 0)
(0 0 0)
(0 0 0)
(0 0 0)
(0 0 0)
(0 0 0)
(0 0 0)
(0 0 0)
(0 0 0)
(0 0 0)
(0 0 0)
(0 0 0)
(0 0 0)
(0 0 0)
(0 0 0)
(0 0 0)
(0 0 0)
(0 0 0)
(0 0 0)
(0 0 0)
(0 0 0)
(0 0 0)
(0 0 0)
(0 0 0)
(0 0 0)
(0 0 0)
(0 0 0)
(0 0 0)
(0 0 0)