/*--------------------------------*- C++ -*----------------------------------*\
| =========                 |                                                 |
| \\      /  F ield         | OpenFOAM: The Open Source CFD Toolbox           |
|  \\    /   O peration     | Version:  v2106                                 |
|   \\  /    A nd           | Website:  www.openfoam.com                      |
|    \\/     M anipulation  |                                                 |
\*---------------------------------------------------------------------------*/
FoamFile
{
    version     2.0;
    format      ascii;
    arch        "LSB;label=32;scalar=64";
    class       volScalarField;
    location    "0";
    object      p;
}
// * * * * * * * * * * * * * * * * * * * * * * * * * * * * * * * * * * * * * //

dimensions      [0 2 -2 0 0 0 0];

internalField   nonuniform List<scalar> 
11644
(
0.0384673
0.0388947
0.039801
0.0412073
0.0431151
0.0455383
0.0484962
0.0520051
0.0560728
0.0606926
0.0658416
0.0714593
0.0774532
0.0836998
0.0900094
0.0961998
0.102017
0.107188
0.111498
0.114734
0.116727
0.117443
0.116996
0.11556
0.113145
0.109922
0.106216
0.102231
0.098143
0.094132
0.0903132
0.086772
0.0835722
0.0807495
0.0783252
0.0763079
0.0746995
0.0735036
0.0727262
0.072357
0.0377418
0.0381632
0.0390337
0.0403794
0.0422228
0.0445852
0.0474885
0.0509561
0.0550063
0.0596467
0.0648647
0.0706229
0.076851
0.0833977
0.0901173
0.0967519
0.103019
0.10862
0.113286
0.116749
0.118808
0.119417
0.118704
0.116914
0.11417
0.110651
0.106596
0.102289
0.0979483
0.0937321
0.0897663
0.086133
0.0828787
0.0800326
0.0776066
0.0756034
0.0740219
0.0728565
0.0720985
0.0717316
0.0360836
0.0365134
0.0373629
0.0386467
0.0404001
0.0426591
0.0454602
0.0488422
0.0528462
0.0575071
0.0628506
0.0688843
0.075561
0.0827871
0.0903483
0.0979678
0.105304
0.111969
0.117464
0.121394
0.123598
0.124043
0.122779
0.120119
0.116427
0.112036
0.10723
0.102272
0.0974093
0.092812
0.0885805
0.0847797
0.0814362
0.0785538
0.0761279
0.0741453
0.0725908
0.0714447
0.0706849
0.0703011
0.033573
0.0339804
0.034784
0.0359887
0.0376263
0.0397423
0.0423896
0.0456306
0.0495367
0.0541909
0.0596797
0.0660706
0.0733989
0.0815765
0.0905003
0.0997554
0.108839
0.117351
0.124316
0.129186
0.131648
0.131606
0.129281
0.125157
0.119926
0.114039
0.107942
0.10198
0.0963515
0.0912098
0.0866303
0.0826218
0.0791766
0.0762672
0.0738552
0.0719051
0.0703821
0.0692551
0.0685016
0.0681177
0.0303034
0.0306629
0.0313739
0.0324473
0.0339149
0.0358235
0.0382386
0.0412461
0.0449548
0.0495005
0.0550406
0.0617681
0.0698511
0.0794187
0.0903248
0.102067
0.11376
0.125235
0.134606
0.140999
0.143795
0.14274
0.138538
0.131932
0.124247
0.116124
0.108237
0.100917
0.0943726
0.0886218
0.0836692
0.0794841
0.0759856
0.0730935
0.0707366
0.0688531
0.0673926
0.0663167
0.0656021
0.0652431
0.0263877
0.0266667
0.0272348
0.028107
0.0293164
0.030913
0.0329701
0.0355889
0.0389072
0.0431295
0.0485448
0.0554995
0.0643643
0.0752769
0.0886652
0.104128
0.119928
0.135908
0.14944
0.158687
0.161962
0.158904
0.15108
0.140144
0.128598
0.117237
0.106851
0.0980523
0.0906552
0.0844931
0.0793537
0.0751265
0.0716948
0.0689275
0.0667149
0.0649729
0.0636386
0.062669
0.0620307
0.0617116
0.0219323
0.0221213
0.0225004
0.0230923
0.0239314
0.0250712
0.0265861
0.0285825
0.0312271
0.0348265
0.039775
0.0465025
0.0554036
0.0676374
0.0838001
0.103627
0.120417
0.141274
0.161101
0.176119
0.182447
0.179015
0.167811
0.152349
0.131652
0.115712
0.102361
0.0920567
0.0842178
0.0780814
0.0732065
0.0692836
0.0661484
0.0636862
0.0617645
0.060281
0.0591626
0.058357
0.057837
0.0575766
0.0171026
0.0171732
0.0173192
0.0175566
0.0179131
0.0184331
0.0191836
0.0202686
0.021888
0.0243911
0.0281329
0.0336239
0.0417797
0.0537115
0.0700344
0.0909674
0.120145
0.153992
0.187706
0.213727
0.22332
0.214101
0.191398
0.163911
0.137632
0.114658
0.0988081
0.0816661
0.0741061
0.0687269
0.0647478
0.0616711
0.0592285
0.0573359
0.0559021
0.0548227
0.0540288
0.0534709
0.0531107
0.0529386
0.0121012
0.0120315
0.0119052
0.0117176
0.0114886
0.0112374
0.0110113
0.0108783
0.0110318
0.0117513
0.0133068
0.0160688
0.0206986
0.0345827
0.048752
0.072644
0.105403
0.15298
0.210227
0.261146
0.283126
0.265178
0.221456
0.174187
0.133663
0.101447
0.083727
0.0649995
0.0596617
0.0562073
0.0538666
0.0522045
0.0509282
0.0499492
0.0492408
0.0487335
0.0483723
0.0481265
0.0479682
0.0478841
0.00713755
0.00694724
0.00652438
0.00587736
0.00499114
0.00385409
0.00246587
0.000833303
-0.000950061
-0.00280981
-0.00462544
-0.00623226
-0.00768484
0.00207013
0.00905617
0.0303116
0.0644773
0.123982
0.220434
0.337245
0.396558
0.34658
0.244436
0.160662
0.102505
0.0663105
0.0544602
0.0415026
0.040856
0.0407182
0.0408969
0.0412063
0.041514
0.0417616
0.04199
0.0422003
0.0423738
0.042498
0.0425827
0.0426217
0.00257562
0.00221029
0.00147928
0.000357551
-0.00120135
-0.00325073
-0.00589283
-0.00920289
-0.0132444
-0.0182538
-0.0244492
-0.0320438
-0.0413076
-0.0422442
-0.0500041
-0.0501888
-0.0412078
-0.0140426
0.0957214
0.362045
0.588991
0.393321
0.158241
0.0539756
0.0176115
0.00685331
0.0123496
0.0125643
0.0185041
0.023112
0.0266462
0.0294077
0.0315631
0.0332054
0.0344983
0.0355148
0.0362867
0.0368368
0.0371826
0.0373396
-0.00136378
-0.00186737
-0.00286686
-0.00443502
-0.00662067
-0.00952632
-0.0133485
-0.0182829
-0.0245681
-0.0327185
-0.0433842
-0.0575574
-0.0763473
-0.085501
-0.118376
-0.147964
-0.204501
-0.322901
-0.627221
-0.40394
-0.191675
-0.107134
-0.0644076
-0.034638
-0.0180887
-0.00439629
0.00538797
0.0125529
0.0178775
0.0218771
0.0249018
0.0272493
0.0290583
0.0303965
0.0313504
0.0319643
0.0322857
-0.00448067
-0.00506078
-0.0062831
-0.00817323
-0.0108441
-0.0144165
-0.0191139
-0.0252754
-0.0332943
-0.0438361
-0.0578119
-0.0767204
-0.102019
-0.123086
-0.170702
-0.224965
-0.321131
-0.508095
-0.729291
-0.496101
-0.346775
-0.198758
-0.118136
-0.0724365
-0.0409109
-0.0224188
-0.0091265
0.00066788
0.00792086
0.0133845
0.0175451
0.0207559
0.0232165
0.0250295
0.0263267
0.0271879
0.0276041
-0.00645327
-0.00715851
-0.00851604
-0.010587
-0.0134978
-0.0174085
-0.0224987
-0.0291921
-0.0380004
-0.0495762
-0.0648999
-0.0854371
-0.112438
-0.139835
-0.190646
-0.250642
-0.340773
-0.464531
-0.514571
-0.421356
-0.341864
-0.21156
-0.129328
-0.0858677
-0.0505648
-0.0318899
-0.0179554
-0.00737352
0.000668776
0.00690189
0.0117512
0.0155021
0.0183568
0.0204674
0.0219833
0.0229833
0.023491
-0.00736487
-0.00803311
-0.00936858
-0.0114336
-0.0143068
-0.0181576
-0.0231151
-0.0295471
-0.038021
-0.0491432
-0.0635744
-0.0825033
-0.107087
-0.135529
-0.182136
-0.241524
-0.327979
-0.449189
-0.516518
-0.572429
-0.566809
-0.437552
-0.35764
-0.247395
-0.155655
-0.102338
-0.0751585
-0.047154
-0.0325814
-0.0206553
-0.0110592
-0.0033634
0.00285288
0.0078561
0.0117939
0.0147718
0.0169756
0.0185366
0.0195515
0.0201419
-0.00734664
-0.00779402
-0.00895546
-0.0107717
-0.0132937
-0.0166399
-0.0208904
-0.0263568
-0.0334035
-0.042423
-0.053937
-0.0687772
-0.0877634
-0.113804
-0.151599
-0.207169
-0.289974
-0.439264
-0.669793
-0.806793
-0.776773
-0.458859
-0.144653
-0.0423015
-0.0633155
-0.0595159
-0.0521512
-0.0357107
-0.0269253
-0.0183467
-0.0107467
-0.00422906
0.00129187
0.00595985
0.00970324
0.0125521
0.0147175
0.0162711
0.0172389
0.0174966
-0.00595324
-0.00639551
-0.00729026
-0.00867115
-0.0105789
-0.0130536
-0.0161413
-0.0199351
-0.0246762
-0.03055
-0.0378655
-0.0471889
-0.0592179
-0.0732906
-0.10436
-0.139199
-0.203216
-0.301276
-0.478088
-0.651783
-0.627031
-0.351018
-0.0474798
0.0310298
-0.0197861
-0.0328008
-0.0303855
-0.0252145
-0.0196705
-0.0134937
-0.0077709
-0.00258379
0.0020075
0.00597814
0.00916738
0.011678
0.0136058
0.0149537
0.015759
0.0160623
-0.00335427
-0.00374373
-0.00431757
-0.00517855
-0.00632019
-0.00777062
-0.0095354
-0.0114158
-0.0135311
-0.0159987
-0.018841
-0.0222298
-0.0266816
-0.0310292
-0.0506844
-0.0635222
-0.0992073
-0.141468
-0.214612
-0.299182
-0.321393
-0.231204
-0.10109
-0.0604814
-0.0550503
-0.0401218
-0.0271189
-0.0200348
-0.0139367
-0.00844648
-0.00365865
0.000610471
0.00430712
0.00741403
0.00992647
0.0119439
0.0134776
0.0145586
0.0152756
0.0156829
-6.61354e-05
-0.0002236
-0.000473204
-0.000830875
-0.00125278
-0.0017179
-0.00219905
-0.00246808
-0.0024266
-0.00194132
-0.00082911
0.000909741
0.00357041
0.00606888
9.63575e-05
-0.000410256
-0.0187863
-0.046762
-0.108608
-0.2085
-0.295703
-0.307323
-0.260052
-0.191558
-0.102969
-0.057559
-0.0291098
-0.0177145
-0.00960535
-0.0036573
0.000807116
0.00441331
0.00733728
0.00970057
0.0116142
0.0131564
0.0143442
0.0152273
0.0158485
0.0162078
0.0035542
0.00357153
0.00357253
0.00362084
0.00377183
0.00411525
0.00471278
0.00567308
0.00728355
0.00985695
0.0137622
0.0189074
0.0275652
0.0340244
0.0352344
0.0421561
0.0316302
-0.00714872
-0.104304
-0.256046
-0.377392
-0.404157
-0.341655
-0.225149
-0.105207
-0.0565045
-0.0249835
-0.0119477
-0.00376002
0.00182724
0.00568444
0.00859402
0.0108542
0.0126477
0.0140512
0.015164
0.0160279
0.0166697
0.017108
0.0173399
0.0070242
0.0071409
0.00734871
0.00769911
0.00826242
0.00914919
0.0104693
0.0123341
0.0149659
0.0186951
0.0239062
0.0309356
0.0412352
0.0506257
0.0541141
0.062814
0.0508747
0.00134858
-0.100905
-0.233478
-0.318975
-0.314089
-0.238984
-0.144123
-0.0662086
-0.0368147
-0.0104325
-0.000751002
0.00520257
0.00897276
0.0116341
0.013569
0.0150474
0.0161737
0.0170104
0.0176598
0.0181561
0.0185128
0.0187468
0.0188718
0.0101099
0.0102935
0.0106467
0.0111933
0.0119959
0.0131342
0.0147176
0.0168963
0.0198129
0.0236731
0.0286568
0.0347455
0.0429761
0.0524006
0.0501044
0.047218
0.0289333
-0.0166096
-0.0783543
-0.128983
-0.147155
-0.128244
-0.0909259
-0.0573514
-0.0321428
-0.00328668
0.00603805
0.012013
0.0155237
0.0173805
0.0184644
0.0191183
0.0195512
0.0198598
0.0200941
0.0202827
0.020422
0.020512
0.0205547
0.0205769
0.0128812
0.0130806
0.0134777
0.0140814
0.0149237
0.0160542
0.0175209
0.0194098
0.0218129
0.0248151
0.0284121
0.0322125
0.0360937
0.0413472
0.0319437
0.00267102
-0.0382974
-0.0848838
-0.112706
-0.11567
-0.103108
-0.0763149
-0.0448159
-0.0201513
-0.000927334
0.0113763
0.0191151
0.0231957
0.0248493
0.0251661
0.0248271
0.0242655
0.0236833
0.0232164
0.0228905
0.0226714
0.0225231
0.0224227
0.0223384
0.0222589
0.0153962
0.0155858
0.0159399
0.0164814
0.0172153
0.0181645
0.0193231
0.0206783
0.022224
0.0237795
0.0251005
0.0255723
0.0230043
0.0168856
-0.00370105
-0.0454115
-0.0912425
-0.140568
-0.174783
-0.174484
-0.14293
-0.0971772
-0.0509497
-0.016329
0.00849767
0.0224261
0.0290605
0.0318802
0.0321176
0.0311707
0.0297951
0.02835
0.0270515
0.025999
0.0252178
0.0246436
0.024241
0.0239807
0.0238245
0.0237265
0.0176047
0.0177455
0.0180442
0.0184998
0.0191013
0.0198343
0.0206636
0.0215193
0.0222705
0.0225115
0.0217025
0.0190345
0.011437
-0.00331258
-0.0324471
-0.0766362
-0.133577
-0.19742
-0.246187
-0.248883
-0.200149
-0.138972
-0.076054
-0.0257009
0.00844609
0.0280742
0.0365219
0.0384304
0.0373811
0.0354046
0.0332191
0.031178
0.0294856
0.0281048
0.027032
0.026206
0.025603
0.0251906
0.0249518
0.0249165
0.0195146
0.0196102
0.0198691
0.0202592
0.0207631
0.0213402
0.0219305
0.0224525
0.022674
0.0222363
0.0203277
0.0163546
0.0077341
-0.0078189
-0.0379991
-0.0812938
-0.135894
-0.191766
-0.238605
-0.243993
-0.198587
-0.141422
-0.0805085
-0.0312213
0.00378468
0.0264498
0.0386021
0.0419824
0.0404115
0.0377973
0.0351533
0.0328453
0.0309716
0.0294784
0.0282966
0.0273914
0.0267205
0.0262692
0.0260018
0.0259491
0.021147
0.0212687
0.0215248
0.0218906
0.0223476
0.0228564
0.0233429
0.023704
0.0238278
0.0233683
0.021912
0.0185462
0.0120509
-0.000141478
-0.0221312
-0.0547066
-0.0916524
-0.129854
-0.161919
-0.17018
-0.148308
-0.113857
-0.0701818
-0.0304698
-0.000328316
0.0211599
0.0344245
0.0403283
0.0401864
0.0379739
0.0354933
0.0333732
0.0315976
0.030159
0.0290159
0.0281517
0.0275271
0.027111
0.0268595
0.0267159
0.0224761
0.022662
0.022943
0.0233193
0.0237736
0.0242816
0.0247939
0.0252418
0.0255434
0.0255476
0.0250202
0.0232322
0.0197148
0.0130995
-5.44157e-05
-0.021796
-0.0478419
-0.0753066
-0.0955767
-0.107269
-0.107892
-0.0939251
-0.0681595
-0.0368435
-0.00931839
0.012504
0.0268004
0.0338931
0.0359077
0.0352683
0.0339093
0.0325067
0.0311765
0.030016
0.0290778
0.0283471
0.0277934
0.027393
0.0271282
0.0269866
0.0235397
0.0237383
0.0240031
0.02437
0.0248366
0.0254001
0.0260413
0.0267262
0.0273891
0.0279118
0.0280228
0.0273441
0.0252377
0.0209746
0.0134025
-0.00082952
-0.0231123
-0.0483326
-0.0721706
-0.0898842
-0.0963922
-0.0924963
-0.0745547
-0.0498618
-0.0246443
-0.00317035
0.0129321
0.0233067
0.0284817
0.0301277
0.0305583
0.030285
0.0297061
0.029072
0.028492
0.0279825
0.0275624
0.0272409
0.0270299
0.0269327
0.0243421
0.0244331
0.0246854
0.0250649
0.0255761
0.0262171
0.0269919
0.0279062
0.0288953
0.0298081
0.0303347
0.0301362
0.0282154
0.0235988
0.0155948
0.00309425
-0.0180655
-0.0445558
-0.0752021
-0.100116
-0.111149
-0.109949
-0.0961963
-0.0750604
-0.0491765
-0.0250092
-0.00404507
0.0114958
0.0203547
0.0246452
0.0267387
0.0275739
0.0278503
0.0278116
0.0276553
0.0274309
0.0272063
0.0270146
0.026875
0.02679
0.0249116
0.0249243
0.0251512
0.0255367
0.0260819
0.0267713
0.0276143
0.0286359
0.0297871
0.0309891
0.0319459
0.0323258
0.030696
0.0255425
0.0149333
-0.00175989
-0.0258883
-0.0558404
-0.093034
-0.125363
-0.145886
-0.145891
-0.130023
-0.105966
-0.0731067
-0.0412202
-0.0149624
0.00300623
0.0142836
0.0204871
0.023667
0.0253566
0.0262885
0.0267162
0.0268753
0.0268829
0.0268171
0.0267247
0.0266342
0.0265447
0.0252962
0.0253569
0.0255464
0.02588
0.0263732
0.0270223
0.0278241
0.0288182
0.0299355
0.0312155
0.0323575
0.0329544
0.031022
0.0248766
0.0131916
-0.00553124
-0.0308738
-0.0616825
-0.101462
-0.134944
-0.163694
-0.160513
-0.13874
-0.111691
-0.0756562
-0.0436705
-0.0179237
0.000164079
0.0115602
0.0181926
0.0219962
0.0241099
0.0253132
0.0258931
0.0261957
0.0263188
0.0263495
0.0263283
0.0262928
0.0262347
0.0253487
0.0254844
0.0256733
0.0259585
0.0263695
0.0269216
0.0276139
0.0284589
0.0294215
0.0305298
0.0313233
0.0311408
0.0281731
0.0212932
0.00977498
-0.0074015
-0.0306017
-0.0586449
-0.0900618
-0.115954
-0.134216
-0.129092
-0.108937
-0.084492
-0.0558171
-0.0315891
-0.0114949
0.00311092
0.0126908
0.0183846
0.0218162
0.0237582
0.0248675
0.0254573
0.0257815
0.0259287
0.0259826
0.0259825
0.0259696
0.0259536
0.0250166
0.0251242
0.0253083
0.025571
0.0259157
0.0263534
0.0268854
0.0275062
0.028143
0.0287313
0.0287717
0.0273251
0.0232416
0.0152015
0.00305216
-0.0128293
-0.0326565
-0.0551155
-0.075289
-0.0871553
-0.0903488
-0.0840654
-0.0700983
-0.0509862
-0.0315551
-0.0146565
-2.47294e-05
0.0103409
0.0168306
0.0206389
0.0229082
0.0242219
0.0249916
0.025443
0.0256902
0.0257963
0.0258219
0.0258058
0.0257792
0.025767
0.024501
0.0245435
0.0246509
0.024828
0.0250604
0.0253318
0.0256104
0.0258553
0.0259084
0.0255579
0.0245017
0.0215556
0.0159625
0.00672087
-0.00634719
-0.0217209
-0.0386763
-0.0557479
-0.068458
-0.0719658
-0.0677977
-0.0589206
-0.0460775
-0.0295087
-0.0134954
0.000345216
0.0113433
0.0179505
0.0214395
0.023361
0.0244508
0.0250657
0.0254269
0.0256177
0.025703
0.0257212
0.0257118
0.0256863
0.0256583
0.0256091
0.0239471
0.0239471
0.0239921
0.024066
0.0241422
0.0241833
0.0241213
0.023873
0.0232428
0.0218588
0.0192363
0.0141714
0.00588586
-0.00518396
-0.0190408
-0.0345857
-0.0497336
-0.0635915
-0.0733135
-0.0739241
-0.0685689
-0.0551473
-0.0369826
-0.0186965
-0.00225051
0.0100265
0.0178808
0.0222008
0.0244693
0.0255507
0.0259503
0.0259846
0.0258979
0.0257677
0.0256427
0.025533
0.0254485
0.0253873
0.0253435
0.025327
0.0233664
0.023387
0.0234052
0.0234023
0.0233377
0.0231761
0.0228093
0.0221269
0.0209233
0.0187432
0.0148833
0.00823039
-0.00245814
-0.0170371
-0.0348955
-0.053324
-0.0701592
-0.0833078
-0.0920161
-0.0919349
-0.0817253
-0.0620072
-0.0387873
-0.0179773
-0.000682729
0.0116839
0.0199464
0.0245295
0.026678
0.0272753
0.0270277
0.0266215
0.0261482
0.025759
0.0254566
0.0252189
0.0250461
0.0249416
0.0248953
0.02494
0.0227799
0.0228364
0.0228294
0.022766
0.0226021
0.0223367
0.0218131
0.0209241
0.0194228
0.0169231
0.0125658
0.0052658
-0.00621754
-0.0222085
-0.0427757
-0.0643856
-0.0856054
-0.100312
-0.111986
-0.11215
-0.0938206
-0.0700138
-0.0432272
-0.0213293
-0.00306686
0.0102505
0.0196607
0.0249489
0.0273643
0.0278888
0.027184
0.0266066
0.0259999
0.0255201
0.0251488
0.0248692
0.0246737
0.0245604
0.024517
0.0245506
0.0222164
0.0222569
0.0222264
0.0221476
0.0219761
0.021684
0.0211695
0.020303
0.0188164
0.016419
0.0123735
0.00578274
-0.00433379
-0.0181138
-0.0356966
-0.0559112
-0.0764877
-0.0919727
-0.106478
-0.108994
-0.0896137
-0.0685851
-0.0431051
-0.0224831
-0.00478462
0.00839949
0.0174851
0.0229457
0.0258107
0.0266817
0.0263462
0.0258738
0.0253556
0.0249573
0.0246387
0.0244038
0.0242441
0.0241488
0.0240942
0.0240531
0.0217385
0.0217315
0.0217164
0.0216723
0.0215515
0.0213272
0.020931
0.0202672
0.0191595
0.0173302
0.0142222
0.00924679
0.00171117
-0.00828016
-0.020748
-0.0357441
-0.052041
-0.0660013
-0.0768521
-0.0799757
-0.072369
-0.0595378
-0.0416591
-0.0239537
-0.00841407
0.00383758
0.0128197
0.0188523
0.0224656
0.0241387
0.0245738
0.0244702
0.0242117
0.0239765
0.0237757
0.0236229
0.0235103
0.023428
0.0233598
0.0232927
0.0214296
0.0214222
0.0214204
0.0214016
0.0213395
0.0212141
0.0209796
0.0205924
0.0199659
0.0189471
0.0171797
0.0141948
0.00914443
0.00173751
-0.0075577
-0.0185201
-0.0303888
-0.0420115
-0.0506187
-0.0558421
-0.0566663
-0.0516613
-0.0408001
-0.027312
-0.01463
-0.00350525
0.00581064
0.0130305
0.0178231
0.0205272
0.0218619
0.022358
0.022543
0.0225747
0.0225428
0.0224979
0.0224527
0.0224169
0.0223952
0.0223922
0.0211561
0.0211812
0.0211873
0.0211876
0.0211782
0.0211605
0.0211168
0.0210178
0.0208263
0.0204863
0.0197838
0.0183522
0.0156149
0.0106356
0.00282675
-0.00711145
-0.0186174
-0.0304713
-0.0416495
-0.0491315
-0.0515266
-0.0509468
-0.043407
-0.03326
-0.022354
-0.0118546
-0.0021818
0.00575921
0.0117559
0.015918
0.0184221
0.0198061
0.0205872
0.0209929
0.021201
0.0213116
0.0213712
0.0214123
0.021454
0.0215019
0.0207649
0.020745
0.0207673
0.0208124
0.0208876
0.0209962
0.021144
0.0213314
0.021551
0.021711
0.021672
0.0210162
0.0193013
0.0158636
0.00907692
-0.0007504
-0.0134966
-0.0276553
-0.0420125
-0.0531565
-0.0586668
-0.0593442
-0.0539039
-0.0451549
-0.0346534
-0.0234459
-0.0122683
-0.00248824
0.00550508
0.0114787
0.0152321
0.017467
0.0187801
0.0195522
0.0200285
0.0203118
0.0204743
0.0205638
0.0206176
0.0206658
0.0203176
0.0202552
0.0202738
0.0203463
0.0204803
0.0206773
0.0209567
0.0213303
0.0218043
0.0222678
0.0227941
0.022342
0.0205304
0.0171079
0.0104189
0.000718896
-0.0123158
-0.0276871
-0.0452314
-0.0609433
-0.0731555
-0.0749597
-0.0690065
-0.0602289
-0.0482509
-0.0347201
-0.0206282
-0.00808281
0.00174427
0.00868998
0.0131026
0.0157964
0.0173842
0.018412
0.0190796
0.0194886
0.0197334
0.0198548
0.019912
0.0198995
0.0198584
0.0198395
0.0198612
0.0199278
0.0200559
0.0202488
0.0205268
0.0208939
0.0213812
0.0218939
0.0222516
0.0216991
0.0196832
0.0158961
0.0093249
-0.000169197
-0.0126854
-0.0276277
-0.0464221
-0.0629849
-0.0799447
-0.0806774
-0.0725466
-0.0633496
-0.0497709
-0.0353666
-0.0205708
-0.00819001
0.00127903
0.00788739
0.0122429
0.0149
0.0165975
0.0176703
0.0183533
0.0187681
0.0190367
0.0191819
0.0192474
0.0192068
0.0192562
0.019303
0.0193406
0.0193903
0.0194712
0.0195948
0.0197689
0.0199973
0.0202722
0.0204188
0.0201925
0.0191586
0.0167833
0.0126576
0.00614606
-0.0028996
-0.0147591
-0.0282102
-0.0433779
-0.0556752
-0.0658281
-0.0656908
-0.0588057
-0.0495312
-0.0365919
-0.0242269
-0.0126502
-0.00329868
0.00393978
0.00925101
0.012817
0.015061
0.0164664
0.0173278
0.0178718
0.0182082
0.0184173
0.018531
0.0185867
0.0185825
0.0184586
0.018485
0.0185085
0.0185278
0.018547
0.0185689
0.0185902
0.0185787
0.018501
0.0181387
0.017067
0.0151182
0.0118015
0.00685151
8.0902e-05
-0.00838182
-0.018339
-0.0289579
-0.0385723
-0.0448078
-0.0467884
-0.0439988
-0.0381389
-0.0298387
-0.0201793
-0.0111929
-0.00323554
0.00317259
0.00840675
0.0120964
0.0144674
0.0159078
0.0167992
0.0173325
0.0176699
0.0178763
0.0179992
0.0180569
0.0180827
0.0181158
0.0176103
0.0175726
0.0175288
0.0174777
0.017412
0.0173095
0.0171356
0.0168029
0.0162224
0.0151943
0.0133454
0.0103243
0.00588786
0.000129868
-0.00689812
-0.0147649
-0.0230935
-0.0310529
-0.0365814
-0.038213
-0.0368951
-0.0320114
-0.0251226
-0.0170185
-0.00880556
-0.0014592
0.0047159
0.00954914
0.0131377
0.0151722
0.0162717
0.0168878
0.0172482
0.017483
0.0176275
0.0177165
0.0177725
0.0178049
0.0178191
0.0178161
0.0168147
0.016744
0.016666
0.0165644
0.0164139
0.0161713
0.0157803
0.0151101
0.0139789
0.01211
0.00913314
0.0048963
-0.00062372
-0.00739057
-0.0151415
-0.0231865
-0.0309019
-0.0372604
-0.040612
-0.0394085
-0.0366185
-0.0297987
-0.0206644
-0.0109442
-0.00164932
0.00577938
0.0113417
0.0148217
0.0166674
0.0174167
0.0176677
0.0176967
0.0176615
0.0176134
0.0175691
0.0175352
0.0175174
0.0175087
0.0174989
0.0174837
0.0161018
0.0160663
0.0159985
0.015876
0.0156575
0.0152932
0.0147085
0.013781
0.0122445
0.0097585
0.00581108
0.000182632
-0.00718867
-0.0159861
-0.0254911
-0.0346974
-0.0429197
-0.0488272
-0.0515602
-0.0484772
-0.0407502
-0.0306681
-0.0187602
-0.00725175
0.00263183
0.00997874
0.0149337
0.0174447
0.0186788
0.0189137
0.0185705
0.01819
0.0178277
0.0175308
0.0173165
0.0171687
0.017071
0.017018
0.0170004
0.0170344
0.0154789
0.0155126
0.0154545
0.0153141
0.0150502
0.01462
0.013947
0.0129066
0.0112389
0.0085694
0.00429782
-0.00190278
-0.0102961
-0.0206589
-0.0316895
-0.0421205
-0.0516071
-0.0576335
-0.0606239
-0.057013
-0.0445277
-0.0312252
-0.0173933
-0.00541685
0.00401775
0.0108293
0.01531
0.0176478
0.018946
0.0191456
0.0186342
0.0181052
0.0175819
0.0171934
0.0169104
0.0167195
0.0165962
0.0165361
0.0165246
0.016571
0.0149303
0.0149674
0.0149088
0.0147838
0.0145433
0.0141577
0.0135426
0.0125713
0.0110705
0.0086835
0.00497534
-0.000415044
-0.00755294
-0.0166245
-0.026931
-0.0370283
-0.0466968
-0.0530942
-0.0566595
-0.0542142
-0.0427863
-0.0303962
-0.0175787
-0.00669334
0.00206645
0.00869425
0.0131785
0.0157981
0.0172889
0.0177768
0.0175973
0.017279
0.0168917
0.0165944
0.0163802
0.0162356
0.0161456
0.0161003
0.0160805
0.0160744
0.0144618
0.0144523
0.0144176
0.0143438
0.0141982
0.0139471
0.0135323
0.0128524
0.0117543
0.00998956
0.00732418
0.00352859
-0.00139384
-0.00772544
-0.0153794
-0.0234493
-0.0313584
-0.0373203
-0.0410008
-0.0407948
-0.0360984
-0.0283905
-0.0194247
-0.0107626
-0.00290806
0.00355228
0.0084716
0.0118189
0.0139011
0.0150623
0.0156002
0.0157606
0.0157082
0.0156322
0.0155684
0.015524
0.0154959
0.0154753
0.0154496
0.015409
0.0141595
0.0141352
0.0141259
0.0140998
0.0140416
0.0139303
0.0137351
0.0134012
0.0128528
0.011914
0.0103236
0.00784987
0.00448463
0.000306354
-0.00489223
-0.0108218
-0.0169219
-0.0224416
-0.0270108
-0.0297774
-0.0295276
-0.0266079
-0.0216147
-0.0152895
-0.00869764
-0.00270822
0.00242966
0.0064919
0.00951739
0.0116476
0.0129917
0.0137061
0.0140757
0.0142971
0.0144214
0.0144991
0.0145509
0.0145867
0.0146053
0.0146143
0.0139492
0.0139695
0.013974
0.0139736
0.0139705
0.0139687
0.0139465
0.0139073
0.0138109
0.0135763
0.0130265
0.0118854
0.00970582
0.00660457
0.00237831
-0.00291918
-0.00911379
-0.0153817
-0.0211005
-0.0255389
-0.0273129
-0.0279811
-0.0256862
-0.0209028
-0.0151253
-0.00928809
-0.00379891
0.00101277
0.00496414
0.00795778
0.0101065
0.0114989
0.0123642
0.0129046
0.0132318
0.0134383
0.0135786
0.0136842
0.0137679
0.0138315
0.0136479
0.0136557
0.0136805
0.0137215
0.0137873
0.013889
0.0140342
0.0142253
0.0144601
0.0147177
0.0149181
0.0147831
0.0137169
0.0115327
0.00779533
0.00246945
-0.00440747
-0.0122509
-0.0199089
-0.0262622
-0.030956
-0.034202
-0.0334858
-0.0295843
-0.0239379
-0.0175018
-0.0109625
-0.00484702
0.000354475
0.00447531
0.00756307
0.00966112
0.0109853
0.0118059
0.0123154
0.012638
0.0128412
0.0129724
0.0130624
0.0131348
0.0132501
0.0132125
0.0132319
0.013293
0.0134102
0.0135871
0.0138546
0.0142054
0.0146787
0.0151958
0.0158057
0.0160088
0.0154194
0.0140481
0.0110827
0.00630623
-0.000406744
-0.00927915
-0.0190773
-0.0284174
-0.0369923
-0.0426432
-0.0426669
-0.0384509
-0.0326559
-0.0252527
-0.0173723
-0.00968769
-0.00295363
0.00222409
0.00595518
0.00848021
0.0100346
0.011031
0.011669
0.0120741
0.0123202
0.0124571
0.0125258
0.0125361
0.0128429
0.0128127
0.0128245
0.0128768
0.0129856
0.0131594
0.0134233
0.0137747
0.0142888
0.014749
0.0152373
0.0153602
0.0147565
0.0135735
0.0110498
0.00679205
0.000751995
-0.0079715
-0.0185093
-0.0291344
-0.0383249
-0.0448321
-0.0443051
-0.0391311
-0.0334192
-0.025794
-0.0176661
-0.00982847
-0.00312169
0.00189395
0.00551746
0.00799228
0.0095552
0.010565
0.0112041
0.0116186
0.0118742
0.0120183
0.0120763
0.0120328
0.0123716
0.0123896
0.0124067
0.012436
0.0124947
0.0125895
0.012739
0.0129412
0.0131955
0.0133353
0.0133361
0.0129303
0.0118959
0.0101158
0.00717164
0.00284862
-0.00279381
-0.00992915
-0.0180224
-0.0263798
-0.0322511
-0.0356435
-0.0343986
-0.0300937
-0.0245568
-0.0178804
-0.0111637
-0.00501552
-8.65068e-05
0.00369841
0.0065284
0.0084298
0.00967299
0.0104659
0.0109562
0.0112733
0.0114673
0.0115714
0.0116186
0.0115984
0.0117457
0.0117688
0.0117755
0.0117684
0.0117555
0.0117355
0.0117062
0.0116402
0.0114982
0.0111423
0.0103847
0.00914929
0.00728962
0.00462521
0.0011116
-0.00319916
-0.00820876
-0.0132927
-0.0180235
-0.0220401
-0.0240315
-0.0234265
-0.0208494
-0.0171198
-0.0125196
-0.0076007
-0.00298946
0.000989074
0.00408041
0.00655597
0.00835656
0.00949586
0.010261
0.0106957
0.0109526
0.0111115
0.0111934
0.0112285
0.0112429
0.0112641
0.0110506
0.0110184
0.0109688
0.0108965
0.0107972
0.0106526
0.0104287
0.0100719
0.00950686
0.00858883
0.00713504
0.00506501
0.00235129
-0.00102933
-0.00497375
-0.00923545
-0.0136039
-0.0173092
-0.0192433
-0.0195008
-0.0188002
-0.016073
-0.0123919
-0.00824889
-0.00397642
1.05654e-05
0.00330324
0.00590112
0.00789192
0.00936246
0.0102093
0.0106507
0.0108911
0.0109961
0.0110531
0.0110792
0.0110845
0.0110798
0.0110743
0.0110786
0.0104032
0.0103318
0.0102367
0.0101125
0.00994084
0.00968647
0.00928641
0.00865383
0.00765747
0.00613075
0.00397433
0.001105
-0.00256714
-0.00692058
-0.0116477
-0.0162933
-0.02034
-0.0230507
-0.0231898
-0.0206982
-0.0176645
-0.0135067
-0.00865736
-0.00343159
0.00133754
0.00528644
0.00816327
0.0100467
0.0111613
0.0115672
0.0115704
0.0114783
0.0113336
0.0112043
0.0111062
0.0110342
0.0109826
0.0109501
0.0109274
0.0108997
0.00984987
0.00979421
0.00970964
0.00957842
0.00936747
0.00903396
0.00851341
0.00768059
0.00634448
0.00428931
0.00138166
-0.00253897
-0.00750897
-0.0132159
-0.0191334
-0.0245836
-0.0286825
-0.0308927
-0.0299241
-0.0249393
-0.018808
-0.0123492
-0.00554959
0.00083901
0.00587562
0.00954401
0.0118374
0.0129424
0.0132292
0.0128765
0.0123862
0.0118981
0.0114934
0.0111874
0.010958
0.0107948
0.0106868
0.0106227
0.0105903
0.0105938
0.00939145
0.00939678
0.00934016
0.00921526
0.00898463
0.00861007
0.00802105
0.0071064
0.00566027
0.00336644
9.29415e-05
-0.00444658
-0.0102393
-0.0167934
-0.0233207
-0.0292245
-0.0332769
-0.0355976
-0.0342527
-0.0279851
-0.0200325
-0.0115665
-0.00319924
0.00388871
0.00855518
0.0115887
0.0131213
0.0136476
0.0135618
0.0130099
0.0124092
0.0117911
0.0112795
0.0108883
0.0106005
0.0104016
0.0102759
0.0102107
0.0101909
0.0102334
0.00901919
0.00905538
0.00900982
0.00889388
0.00868017
0.00834319
0.00780859
0.00697438
0.00567854
0.00366309
0.000780349
-0.00307796
-0.00808431
-0.0138781
-0.0198049
-0.025346
-0.0293667
-0.0316649
-0.031117
-0.0258265
-0.0191378
-0.0115363
-0.004027
0.00218921
0.00650548
0.00949559
0.0110881
0.0118506
0.0120404
0.0118216
0.0114893
0.0110761
0.0106694
0.0103574
0.0101324
0.00998842
0.00989916
0.0098563
0.00984268
0.0098559
0.00871226
0.00872037
0.00868975
0.00862245
0.00849668
0.0082815
0.00792966
0.00736098
0.00645491
0.00512366
0.00318823
0.000638598
-0.00267617
-0.00672715
-0.0110691
-0.0153688
-0.0187949
-0.0212307
-0.0220035
-0.0200611
-0.0165681
-0.0119626
-0.00721926
-0.00280027
0.00097031
0.00405347
0.00630661
0.00789774
0.00889772
0.00946252
0.00970077
0.00972227
0.00964985
0.0095658
0.00949882
0.00945846
0.00943439
0.00942174
0.00940887
0.00938421
0.00850254
0.00849005
0.00848865
0.00848438
0.00845798
0.00839761
0.00827147
0.00804389
0.00763212
0.00697135
0.00590796
0.00443393
0.0025606
0.000123751
-0.0027202
-0.00590006
-0.00887881
-0.0116672
-0.0137611
-0.0146537
-0.0142363
-0.012991
-0.0108761
-0.00794368
-0.00475985
-0.00168554
0.00103207
0.00329409
0.00508497
0.00644434
0.00737086
0.00793886
0.00826985
0.00847184
0.00859929
0.0086817
0.00873645
0.0087699
0.00878406
0.00878199
0.00838595
0.00840202
0.00842304
0.00845226
0.00848665
0.00852998
0.00857956
0.00863352
0.00863645
0.00853785
0.00823461
0.00759856
0.00657533
0.00501098
0.00287021
3.30723e-05
-0.00310432
-0.00640622
-0.00923662
-0.0116968
-0.0136881
-0.0152348
-0.0151471
-0.0133307
-0.0105668
-0.00730229
-0.00403801
-0.00103407
0.00151095
0.00351738
0.00504558
0.00611894
0.00683023
0.00730154
0.00760683
0.00780964
0.00794804
0.00804782
0.0081202
0.00816909
0.00822222
0.00825047
0.0082873
0.00834239
0.00842338
0.00854317
0.00871103
0.00894231
0.00923608
0.00957522
0.009889
0.0100539
0.00976555
0.00884285
0.00716467
0.00450363
0.00105306
-0.00304976
-0.0071398
-0.0114711
-0.0156821
-0.0194461
-0.0209402
-0.0201088
-0.0174756
-0.0136768
-0.0095162
-0.00543663
-0.00186228
0.000970878
0.00310952
0.00466567
0.00572807
0.0064231
0.00686184
0.00714964
0.00734245
0.00747564
0.00757214
0.00763751
0.0079376
0.0079278
0.00796186
0.00803063
0.00814782
0.00832254
0.00857082
0.00890837
0.00937358
0.00997104
0.0106205
0.0113244
0.0117375
0.0115588
0.0105837
0.00851287
0.00517389
0.000292118
-0.00559994
-0.0119846
-0.0182334
-0.0238015
-0.0263507
-0.0261381
-0.0232762
-0.0191819
-0.0142601
-0.00918966
-0.0045807
-0.000856469
0.00185962
0.00380004
0.00508469
0.00590708
0.00642436
0.00675708
0.00696717
0.00709032
0.00716011
0.00719053
0.0076102
0.00758124
0.00759719
0.00765247
0.00776293
0.00793489
0.00818605
0.0085371
0.00899182
0.00957566
0.0102067
0.0109315
0.0115438
0.0116864
0.011035
0.00937938
0.00623067
0.00124106
-0.00513291
-0.0118557
-0.0183176
-0.0240262
-0.02639
-0.0260135
-0.0231696
-0.0192837