/*--------------------------------*- C++ -*----------------------------------*\
| =========                 |                                                 |
| \\      /  F ield         | OpenFOAM: The Open Source CFD Toolbox           |
|  \\    /   O peration     | Version:  v2106                                 |
|   \\  /    A nd           | Website:  www.openfoam.com                      |
|    \\/     M anipulation  |                                                 |
\*---------------------------------------------------------------------------*/
FoamFile
{
    version     2.0;
    format      ascii;
    arch        "LSB;label=32;scalar=64";
    class       volScalarField;
    location    "0";
    object      p;
}
// * * * * * * * * * * * * * * * * * * * * * * * * * * * * * * * * * * * * * //

dimensions      [0 2 -2 0 0 0 0];

internalField   nonuniform List<scalar> 
11644
(
-0.00739552
-0.00791146
-0.00892163
-0.010368
-0.0122675
-0.0145537
-0.0173524
-0.0204863
-0.0235353
-0.0264325
-0.0292053
-0.0318253
-0.0339097
-0.0349118
-0.0351698
-0.0348375
-0.0340101
-0.0324932
-0.0255864
-0.0297917
-0.0343465
-0.0357811
-0.0330373
-0.0364006
-0.0407294
-0.0447854
-0.0475155
-0.0497101
-0.051453
-0.0522325
-0.0523323
-0.0519294
-0.0513696
-0.050903
-0.050344
-0.0496509
-0.0491046
-0.0486866
-0.0483559
-0.0481357
-0.00574374
-0.00629509
-0.00741744
-0.00908317
-0.011265
-0.0139053
-0.016838
-0.0200387
-0.02356
-0.0270448
-0.0301681
-0.0326809
-0.0342999
-0.0356045
-0.0359355
-0.0348976
-0.0333429
-0.033085
-0.0301111
-0.0340974
-0.0332109
-0.0331676
-0.0364299
-0.0408408
-0.0436541
-0.0462927
-0.0489941
-0.050851
-0.0518056
-0.0522861
-0.0523423
-0.0521301
-0.0516496
-0.0507995
-0.0498824
-0.0491495
-0.0484626
-0.0478154
-0.0473226
-0.0470769
-0.00423595
-0.00469973
-0.00566517
-0.00723523
-0.00933739
-0.0120088
-0.0151382
-0.0186205
-0.0223651
-0.0262317
-0.0299199
-0.0329788
-0.0353334
-0.0363282
-0.0365208
-0.036309
-0.0356509
-0.0343697
-0.0370882
-0.0272674
-0.0309287
-0.0262197
-0.038516
-0.0410794
-0.0451406
-0.0482892
-0.0504808
-0.0519453
-0.0525557
-0.0526577
-0.0525189
-0.0520187
-0.0512326
-0.0503157
-0.049409
-0.048583
-0.0477861
-0.0471702
-0.0467957
-0.0467261
-0.00242198
-0.00268803
-0.00352376
-0.0049149
-0.00682505
-0.00927665
-0.012235
-0.015679
-0.0195685
-0.0237294
-0.0277697
-0.0317501
-0.0351655
-0.0389342
-0.0409808
-0.0415411
-0.0410268
-0.0379828
-0.0343504
-0.0265138
-0.0274479
-0.0312797
-0.0359909
-0.0404126
-0.0442227
-0.0478636
-0.0509096
-0.052173
-0.0525082
-0.0521182
-0.0514025
-0.0506506
-0.0498119
-0.0489241
-0.0481054
-0.0473565
-0.0467863
-0.0464449
-0.0462811
-0.0461313
-0.000195465
-0.000557439
-0.00121803
-0.00220609
-0.00366372
-0.00566494
-0.00820783
-0.0113553
-0.0151242
-0.0194685
-0.024797
-0.0308706
-0.0374988
-0.0421554
-0.0452483
-0.0461032
-0.0447695
-0.0412033
-0.0400374
-0.0273206
-0.0271864
-0.032503
-0.0346678
-0.0381844
-0.0422695
-0.0453216
-0.0471533
-0.0490985
-0.0497372
-0.0498021
-0.049237
-0.0483175
-0.0475337
-0.0468817
-0.0464081
-0.0460184
-0.0457233
-0.0454722
-0.0453899
-0.0454214
0.00239991
0.00205455
0.00139659
0.000411008
-0.000802691
-0.00224137
-0.00411098
-0.00655343
-0.00993145
-0.0147663
-0.021177
-0.0288237
-0.0357136
-0.0446213
-0.0508044
-0.0507711
-0.0490166
-0.0501657
-0.047077
-0.0395693
-0.0355207
-0.0346
-0.0368153
-0.0364539
-0.0399977
-0.0427271
-0.0447651
-0.0440285
-0.0446588
-0.0451624
-0.0456065
-0.0453911
-0.0449475
-0.0446916
-0.0446453
-0.0448001
-0.0450558
-0.0454102
-0.0456166
-0.0458204
0.00377156
0.0038523
0.00346757
0.00279983
0.00186493
0.000756977
-0.000655975
-0.00256388
-0.00554982
-0.0102147
-0.0163838
-0.0229776
-0.0318793
-0.0381974
-0.0452649
-0.0565161
-0.0573936
-0.053574
-0.0518599
-0.0433584
-0.0407702
-0.0320568
-0.03104
-0.0292877
-0.026715
-0.0313916
-0.0353622
-0.0363822
-0.0373743
-0.0386212
-0.040155
-0.0415522
-0.0425882
-0.0433761
-0.0442268
-0.0450872
-0.0457236
-0.0460849
-0.0462727
-0.0461187
0.00615155
0.00532702
0.00468772
0.00403276
0.0034535
0.00258114
0.00148212
-0.000108663
-0.00269043
-0.00628979
-0.0113726
-0.0178666
-0.0220375
-0.0336583
-0.0433895
-0.0516312
-0.0609956
-0.0600514
-0.0555125
-0.0477002
-0.0372575
-0.0261542
-0.0202845
-0.0250128
-0.0227785
-0.0181594
-0.0221079
-0.0260596
-0.0318484
-0.0335107
-0.0359707
-0.0388319
-0.0415378
-0.0436337
-0.0452675
-0.0464369
-0.0472427
-0.0474738
-0.047663
-0.048071
0.00730855
0.00721771
0.0064462
0.00545543
0.00432066
0.00318716
0.00205057
0.000444189
-0.00179208
-0.00490859
-0.0101522
-0.0177514
-0.0275523
-0.039487
-0.0484055
-0.0559535
-0.0655707
-0.068437
-0.0601885
-0.0506115
-0.0282513
-0.0118799
-0.00381283
0.0155243
-0.00409131
-0.0126592
-0.0191984
-0.0216059
-0.0285144
-0.0327528
-0.036618
-0.0398777
-0.0432045
-0.0458966
-0.0476585
-0.0491498
-0.0504282
-0.0514746
-0.05166
-0.0515154
0.00769582
0.00708917
0.00659433
0.00591541
0.00481106
0.00369049
0.00237799
0.00019333
-0.00261487
-0.00552666
-0.010829
-0.0206367
-0.0257505
-0.0396022
-0.0558851
-0.0722131
-0.0841512
-0.0961262
-0.0931226
-0.0589101
-0.00794924
0.0258925
0.0268345
0.0142002
-0.000430936
-0.00825344
-0.018309
-0.0299182
-0.0357135
-0.0395089
-0.0428157
-0.0462374
-0.0494697
-0.0521136
-0.0538052
-0.0551694
-0.0557973
-0.0560336
-0.0559082
-0.055596
0.00962645
0.00822551
0.006857
0.00543605
0.00425824
0.00283325
0.00100058
-0.00157653
-0.00535709
-0.00999584
-0.0144735
-0.0245541
-0.0341932
-0.0585442
-0.078244
-0.0937248
-0.119312
-0.157383
-0.185663
-0.144537
0.0230544
0.114325
0.0743605
0.0218975
-0.0143791
-0.0314692
-0.039158
-0.0465048
-0.0497388
-0.0504555
-0.0538294
-0.0566862
-0.0584048
-0.0603203
-0.0615319
-0.0623267
-0.0630844
-0.0634212
-0.0636525
-0.0635681
0.00860344
0.00926517
0.00849315
0.00711794
0.00507249
0.0024784
-0.000653664
-0.0048892
-0.00908574
-0.0161283
-0.0246113
-0.0353261
-0.0506621
-0.0694509
-0.0867142
-0.104222
-0.138314
-0.210189
-0.417398
0.0342048
-0.0454523
-0.0734857
-0.0823941
-0.0706629
-0.0750818
-0.0677759
-0.0675883
-0.0683135
-0.0691378
-0.0696474
-0.0707614
-0.071339
-0.0716665
-0.0725648
-0.0734208
-0.0736742
-0.0725827
0.00985071
0.0102241
0.00946062
0.00784954
0.00539433
0.00269039
-0.00133653
-0.00715132
-0.0133849
-0.0207222
-0.034752
-0.0489202
-0.0618949
-0.0606832
-0.0759364
-0.0889556
-0.0946751
-0.100973
-0.150531
-0.239241
-0.213658
-0.162944
-0.124673
-0.113089
-0.0964976
-0.085823
-0.0847476
-0.0809131
-0.0819622
-0.0818568
-0.0814152
-0.0809621
-0.0808351
-0.0809959
-0.0812974
-0.0819323
-0.0846708
0.0198196
0.0175784
0.0154143
0.0118004
0.00805262
0.0047153
0.00108552
-0.00546211
-0.0161284
-0.0201213
-0.0332699
-0.0558532
-0.0610484
-0.0818291
-0.137881
-0.116927
-0.0573858
0.0781332
0.08653
-0.417172
-0.381073
-0.242019
-0.163234
-0.127341
-0.132788
-0.0874424
-0.0915915
-0.0873788
-0.0960862
-0.0923206
-0.0888011
-0.0864698
-0.0863225
-0.088039
-0.0908556
-0.0943684
-0.0960133
0.0176381
0.0274774
0.0289177
0.0238206
0.0188002
0.0177838
0.0155834
0.00809483
-0.0208874
-0.0108086
0.00271754
-0.0673455
-0.114961
-0.0942213
-0.0949225
-0.131364
-0.13299
-0.0378371
0.10323
0.332696
-0.0120711
-0.326978
-0.534152
-0.433236
-0.22915
-0.0927696
-0.0638313
-0.0582111
-0.0912391
-0.0952179
-0.0863306
-0.0903828
-0.102276
-0.0938088
-0.0901954
-0.0894112
-0.0925891
-0.0944496
-0.0980584
-0.0934591
0.0238341
0.0354907
0.0326433
0.0343
0.0433943
0.0468307
0.0475888
0.0369626
0.0236673
0.00854416
0.0331216
0.0460466
-0.0556733
-0.127021
-0.00854889
-0.210635
-0.364968
-0.38857
0.0843148
0.874031
-0.180231
-0.0881311
-0.0204626
-0.120687
0.109709
-0.0327024
-0.0380847
-0.0479381
-0.0785503
-0.0824261
-0.0662436
-0.0797297
-0.0924075
-0.0939977
-0.0922531
-0.0942714
-0.0866761
-0.084905
-0.0883392
-0.0790558
0.0602391
0.0600009
0.0622168
0.0613922
0.0680664
0.0747328
0.0763007
0.079572
0.0860804
0.0920692
0.0526428
0.104911
0.132995
0.037268
-0.191002
-0.0528834
-0.200848
-0.502918
-0.487766
0.317263
0.335233
1.59042
0.258434
0.601822
0.227369
0.209741
-0.0965593
-0.0675181
-0.0687007
-0.0472204
-0.094221
-0.0962968
-0.0926749
-0.0942521
-0.088759
-0.0829351
-0.0838589
-0.0884608
-0.0835599
-0.0775103
0.0912238
0.0788597
0.0810538
0.0880385
0.0926019
0.0965085
0.0982869
0.111008
0.131695
0.141676
0.129742
0.124782
0.293324
0.0455885
0.128788
0.0255918
-0.312089
-0.139043
0.227541
-0.81016
-0.623096
0.743291
0.217754
0.791026
0.210488
0.0762105
-0.0648584
-0.0950123
-0.0866445
-0.0822518
-0.105843
-0.104717
-0.0907161
-0.0895142
-0.0859845
-0.0810021
-0.0749353
-0.0694833
-0.0688603
-0.0752296
0.0908201
0.0911378
0.0944733
0.0998532
0.100063
0.096729
0.114924
0.132702
0.158095
0.185095
0.243851
0.215595
0.295858
0.132713
0.256517
0.399873
0.629329
-0.795904
-0.0210601
0.449947
0.300044
-0.0896203
0.966075
0.424897
0.0284736
-0.0221574
0.0660536
-0.189913
-0.100415
-0.135024
-0.0967235
-0.0957921
-0.088072
-0.0949011
-0.0750139
-0.0774455
-0.0745165
-0.0665311
-0.0612255
-0.064399
0.0907063
0.092458
0.0964899
0.103617
0.108448
0.110932
0.114871
0.131928
0.145343
0.164317
0.187593
0.100348
0.399675
0.448363
0.470496
0.460204
0.385399
2.50371
0.352655
0.277138
0.379577
-0.468305
-0.273757
-0.87923
-0.0291299
0.0299344
-0.237688
-0.194347
-0.112
-0.0996307
-0.083047
-0.0776324
-0.0787469
-0.0859624
-0.0779711
-0.0734741
-0.0663266
-0.0580385
-0.0558615
-0.056103
0.0929338
0.0966511
0.0984036
0.100616
0.107368
0.11666
0.122611
0.121654
0.114994
0.104191
0.0616556
0.320312
0.407815
0.18787
0.256555
0.453067
0.213382
-0.259082
2.09216
1.42283
0.17469
-0.632349
-0.112865
-0.115273
-0.690662
-0.243793
-0.213391
-0.210146
-0.143659
0.0238768
-0.0251756
-0.0526182
-0.072579
-0.0663659
-0.0629898
-0.0556877
-0.0550354
-0.0599439
-0.0599334
-0.0541908
0.090783
0.0901859
0.0948495
0.102128
0.109
0.111576
0.122851
0.133491
0.119959
0.135952
0.147674
0.150011
0.221837
0.199607
0.280703
0.413184
-0.484616
1.89396
1.23877
-0.360192
-0.462315
0.886793
-1.31898
-1.10618
0.414571
-0.153453
-0.236738
0.00121383
-0.0338475
-0.0359714
-0.0390084
-0.0361259
-0.0547179
-0.0573377
-0.0589155
-0.0576891
-0.0549174
-0.0492509
-0.0432785
-0.0452382
0.0855096
0.0887759
0.0926575
0.0966712
0.102789
0.103721
0.114237
0.12301
0.139462
0.148745
0.174654
0.0301238
0.0202386
-0.0347183
0.00897172
-1.35494
-1.79227
-2.02373
2.6291
1.51427
-1.22183
-0.57111
-1.19559
1.12376
1.30372
0.137115
-0.232899
-0.106437
-0.0451899
-0.0530357
-0.0266611
-0.0246318
-0.0435042
-0.0502898
-0.0503279
-0.0455819
-0.0429522
-0.0423786
-0.0421441
-0.0410036
0.0874269
0.0878984
0.0895829
0.093749
0.10043
0.107709
0.117482
0.130692
0.100193
0.110039
0.0869761
0.0567267
-0.0202348
-0.22553
-0.220424
-1.43017
-2.27425
-2.13255
-0.212186
-0.0436447
0.624731
1.36474
2.1653
1.43736
0.181365
-0.814763
-0.00879205
-0.0952852
-0.0663831
-0.0185315
-0.0143142
-0.00041965
-0.0584754
-0.0439597
-0.044525
-0.042367
-0.0425327
-0.042046
-0.0415508
-0.0376105
0.0758021
0.0766683
0.0800298
0.0867571
0.09426
0.104969
0.112098
0.12151
0.121564
0.14293
0.173597
0.162154
0.0153385
-0.0596439
0.0492726
-0.0813957
-0.255569
-1.00711
-2.14232
-2.62084
2.37752
1.16098
-0.788313
-0.432183
0.284281
0.4918
0.0676271
-0.107655
-0.12743
-0.0970938
-0.042319
-0.0305091
-0.0257512
-0.0319631
-0.035233
-0.0331569
-0.0280481
-0.024812
-0.0248782
-0.0218287
0.0678251
0.0735613
0.0737847
0.0754889
0.0803843
0.0916599
0.101907
0.117807
0.140357
0.155868
0.186492
0.140626
0.133251
0.254878
0.483066
0.32518
0.14762
0.0896129
-1.20429
-1.36549
-1.0111
-0.415407
-0.320948
0.178643
-0.147263
-0.889573
-0.529663
0.0471857
-0.00909399
-0.0264837
-0.029646
-0.0382542
-0.0314313
-0.0244058
-0.0253348
-0.0218736
-0.0195397
-0.0166161
-0.0184668
-0.019078
0.0614871
0.0612313
0.0658399
0.0674159
0.0737422
0.0788456
0.0866304
0.107718
0.131411
0.109658
0.14976
0.148258
0.121384
0.101501
-0.0552119
0.252894
1.01346
1.85532
0.0717107
-0.0306177
-0.169953
-0.487279
-3.39236
-3.01588
-0.173839
0.409529
0.369608
-0.0277638
0.000260628
-0.0202245
0.0191959
-0.0518826
-0.0377088
-0.0149911
-0.0182523
-0.022925
-0.0168943
-0.0188206
-0.0197425
-0.0158696
0.0429041
0.0480291
0.0487793
0.0501164
0.0524261
0.0545086
0.0570549
0.0558747
0.0575083
0.040239
0.0639281
0.0498334
-0.00391809
0.210486
0.371287
0.152929
0.418435
0.645347
1.15512
2.15543
-2.6571
-1.95415
-1.03099
-0.270255
0.30646
-0.254298
-0.473505
0.0274632
0.0508248
0.0574469
0.0466539
0.0156243
0.00256937
-0.00869695
-0.0129526
-0.0137254
-0.0115229
-0.00920842
-0.0077361
-0.00554905
0.0256658
0.031252
0.0303291
0.0290561
0.0268886
0.0228134
0.0159161
0.00409307
-0.0206154
-0.0443135
-0.0681719
-0.085827
-0.106345
-0.179529
-0.114409
0.0796362
0.17033
0.641196
1.92026
3.37119
-4.34542
-2.23544
-0.944965
-0.696253
-0.571417
-0.107047
0.286737
0.18074
0.10533
0.0741882
0.0657811
0.0177087
0.0136851
0.00791942
-0.00394669
-0.00567915
-0.00502557
-0.0048861
-0.00543545
-0.00127449
0.0119189
0.0137999
0.0114986
0.00880723
0.00330973
-0.0064872
-0.0247228
-0.0420399
-0.0742894
-0.0867328
-0.110401
-0.192086
-0.273576
-0.183871
-0.131723
-0.148101
-0.415985
-0.54313
-0.378134
0.0709835
-0.962282
-1.06209
0.651981
0.533919
0.23167
0.34434
0.0187719
0.0892189
0.117179
0.0692781
0.0610156
0.034221
0.0146694
0.0128993
0.00502352
0.000631089
-0.000802359
0.000319717
0.00113194
-0.0004774
-0.00126395
0.00641699
0.00311942
-0.002159
-0.0103783
-0.022098
-0.039865
-0.0688721
-0.109031
-0.140054
-0.177266
-0.256396
-0.312319
-0.57559
-0.877273
-0.941965
-0.970281
-0.849797
-0.737301
-0.636318
1.10182
1.04343
1.00861
0.664857
0.449165
0.332978
0.276071
0.191824
0.127509
0.101983
0.0502911
0.0331552
0.0163453
0.00782553
0.00645975
0.00568423
0.00507588
0.00453456
0.00264983
0.0186635
-0.00671397
-0.0101841
-0.011245
-0.0141129
-0.020195
-0.0301221
-0.0446496
-0.0776503
-0.100585
-0.120398
-0.150168
-0.25739
-0.387272
-0.231062
-0.27069
-0.541158
-1.32115
-1.82153
-2.09362
-3.40651
4.2412
2.12546
1.5511
0.919893
0.521791
0.374818
0.24042
0.216778
0.105462
0.0207218
0.016274
0.0105846
0.00759141
0.0120349
0.0095264
0.0102323
0.0141255
0.0180051
0.0201142
0.0144525
-0.0119441
-0.0116698
-0.0147707
-0.0209096
-0.0268859
-0.0341038
-0.0451066
-0.060371
-0.0775999
-0.0639772
-0.0946742
-0.0939971
-0.14467
-0.436615
-0.511739
-0.284466
-0.222356
-0.243046
0.0744544
0.151207
1.50886
1.18761
0.825142
0.588546
0.425638
0.291748
0.0670654
-0.0804419
-0.0517282
-0.02799
-0.0112775
-0.00376807
0.00134066
0.00740635
0.0122582
0.0169717
0.0194165
0.0209011
0.0193709
0.0180098
-0.0192122
-0.0188088
-0.0201068
-0.0199749
-0.0199846
-0.024818
-0.0319461
-0.0391916
-0.0148054
0.00257468
-0.0107506
-0.0475691
0.0413581
0.253443
0.285962
0.185316
0.0273781
0.368286
0.312625
0.067352
0.851787
0.531186
0.232491
0.218222
0.00231528
-0.0956144
-0.0904823
-0.0914278
-0.0387773
-0.0304981
-0.0780517
-0.0520836
-0.0200007
-0.000449406
0.00546399
0.0174064
0.0257488
0.0311354
0.034506
0.0319153
-0.0259011
-0.0239579
-0.0256619
-0.0241437
-0.027246
-0.03153
-0.0353635
-0.0341182
-0.0110879
0.0381803
0.0108256
0.10132
0.176353
0.204373
0.162873
0.502412
0.939816
1.11177
1.59289
2.18074
-1.17654
-1.0044
-0.897995
-0.697223
-0.594348
-0.264454
-0.377913
-0.266847
-0.118383
-0.0149029
-0.119837
-0.0449173
-0.00628772
0.010832
0.0223498
0.0304943
0.0354835
0.0396024
0.0399112
0.0425192
-0.0175553
-0.015242
-0.0192338
-0.0231427
-0.0277783
-0.0357034
-0.0329329
-0.0287632
-0.0224536
-0.00994891
0.0208428
0.0940257
0.233908
0.455521
0.502041
0.478132
0.608743
0.546702
1.22393
0.98471
-0.00442863
-0.428299
-1.01452
-0.671583
-0.489562
-0.388497
-0.284425
-0.129556
-0.0664064
-0.0377777
-0.0222251
0.0056535
0.0212355
0.0333844
0.0388909
0.0429247
0.0466977
0.0500243
0.0529518
0.0500456
-0.0234114
-0.0269813
-0.0220068
-0.0181238
-0.0160404
-0.0183935
-0.0155101
-0.0103466
-0.00705843
0.00390261
0.0334244
0.132495
0.268743
0.438162
0.644559
0.701429
0.825375
0.56756
0.48411
0.592049
-0.229037
-0.0576346
-0.358297
-0.591531
-0.425922
-0.380571
-0.370638
-0.310867
-0.129913
0.0206561
0.0860588
0.0690076
0.0562309
0.0557588
0.0589176
0.0595235
0.0625292
0.0673201
0.069994
0.0713677
-0.0250488
-0.0243651
-0.0256025
-0.022203
-0.012463
-0.0232738
-0.0134668
-0.00211684
0.0210739
0.0346404
0.152803
0.196822
0.329821
0.401965
0.492198
0.499151
0.735923
0.493019
0.0886646
-0.52665
0.764596
0.45041
-0.113363
-0.336488
-0.340542
-0.248456
-0.0585787
0.123948
0.0966191
0.0127959
0.102852
0.0917178
0.0985061
0.0983295
0.0878102
0.0806729
0.0853079
0.0890555
0.0902367
0.091382
-0.0310437
-0.027493
-0.025523
-0.0211651
-0.0170744
-0.0135843
-0.00315489
0.0144592
0.0459215
0.0902264
0.160608
0.321037
0.401555
0.479378
0.598706
0.738783
0.780546
0.6559
-0.203951
-1.19144
1.66474
0.467872
0.158134
-0.0317802
0.207425
0.203049
0.224029
0.0215872
0.000604082
0.0781254
0.121216
0.129472
0.128726
0.122578
0.116132
0.109849
0.108134
0.109728
0.108239
0.114172
-0.0344041
-0.029009
-0.0287502
-0.0272767
-0.0235755
-0.0176417
-0.00561615
0.00961409
0.0445795
0.0842473
0.137004
0.268864
0.289209
0.444285
0.70227
0.814701
0.765235
0.8802
0.839637
0.395473
0.660339
0.245585
0.0570971
0.224927
0.0690846
-0.0606321
0.300445
0.338258
0.311795
0.192985
0.144233
0.148219
0.152033
0.153883
0.149044
0.130425
0.129717
0.126129
0.127688
0.128966
-0.0385198
-0.0381646
-0.0360364
-0.0335986
-0.0306817
-0.0290429
-0.0193015
0.0177327
0.0391867
0.108127
0.103484
0.224144
0.289448
0.299949
0.3493
0.412294
0.48592
0.597701
0.895183
1.03771
-0.118893
-0.256485
0.0687847
0.235841
0.39067
0.463347
0.476558
0.344825
0.196384
0.233788
0.194406
0.190814
0.189913
0.201364
0.17998
0.165216
0.154342
0.147831
0.143974
0.148446
-0.0419274
-0.0471471
-0.0465831
-0.04423
-0.0388093
-0.0342791
-0.0167313
0.00518112
0.0295666
0.0474787
0.061475
0.0554475
0.0867415
0.192867
0.192335
0.185271
0.291341
0.323526
1.36701
2.20118
-2.05117
-1.01432
0.231409
0.298453
0.367102
0.30868
0.273963
0.36538
0.399804
0.330126
0.273332
0.248228
0.221353
0.216521
0.196283
0.183249
0.17262
0.168872
0.165915
0.162102
-0.0552663
-0.0545423
-0.0534388
-0.0501804
-0.0457041
-0.040947
-0.0298631
-0.0122308
-0.0233922
-0.00915375
-0.00437459
0.0187508
0.0486062
0.0464186
0.0358555
0.0307847
0.0252392
0.0417966
0.102813
0.300224
-0.191254
-0.273948
0.172732
0.173164
0.451633
0.503778
0.508732
0.478952
0.407396
0.338828
0.314023
0.283292
0.246397
0.229438
0.205748
0.197971
0.192125
0.186695
0.183141
0.171253
-0.0653
-0.0592953
-0.0593509
-0.0598552
-0.0578456
-0.0550111
-0.0484845
-0.0469883
-0.0696327
-0.0735709
-0.0483882
-0.141842
-0.170789
-0.173033
-0.127951
-0.0500754
-0.0264838
-0.0916808
-0.0860302
-0.122795
0.169305
0.35247
0.170465
0.24441
0.282762
0.405469
0.436942
0.440463
0.433253
0.376332
0.357163
0.307632
0.251651
0.234276
0.216477
0.204508
0.195603
0.181538
0.176784
0.179254
-0.0791043
-0.0704364
-0.0700523
-0.069274
-0.0713352
-0.0741424
-0.077947
-0.0804171
-0.0883283
-0.0736132
-0.108247
-0.126527
-0.194727
-0.343404
-0.518969
-0.534684
-0.802878
-0.927754
-1.23545
-1.73076
1.96539
1.0812
0.550196
0.62461
0.490273
0.488876
0.515018
0.466265
0.438766
0.367198
0.316803
0.280186
0.254682
0.236051
0.218264
0.200341
0.192998
0.191152
0.189653
0.191134
-0.0866221
-0.0903186
-0.0909646
-0.093486
-0.097316
-0.101028
-0.110312
-0.109869
-0.124563
-0.139642
-0.188715
-0.315451
-0.408426
-0.455101
-0.481276
-0.606506
-0.700363
-0.776493
-0.681305
-0.671955
0.402496
0.69332
0.604059
0.630973
0.480928
0.463903
0.464491
0.447552
0.368464
0.315036
0.304486
0.279883
0.263907
0.243789
0.228098
0.214787
0.203464
0.195233
0.189907
0.195624
-0.100712
-0.102386
-0.107952
-0.110811
-0.118963
-0.127327
-0.13843
-0.151836
-0.176695
-0.175208
-0.253644
-0.324537
-0.438924
-0.559233
-0.726078
-0.802293
-0.891897
-0.768382
-0.7437
-0.759548
0.358448
0.327598
0.352738
0.47609
0.521968
0.495411
0.436796
0.40069
0.37461
0.317839
0.310349
0.283668
0.26124
0.23708
0.220565
0.208275
0.202814
0.197899
0.194688
0.189382
-0.0995421
-0.107211
-0.110044
-0.116033
-0.12535
-0.140709
-0.162962
-0.166255
-0.215305
-0.269001
-0.362454
-0.5018
-0.606579
-0.671945
-0.76116
-0.81606
-0.621332
-0.563914
-0.236103
-0.0729495
-0.851352
-0.479186
0.0614231
0.138967
0.256433
0.254993
0.284834
0.337308
0.334797
0.310041
0.307615
0.287248
0.231699
0.216568
0.20567
0.196589
0.191889
0.186472
0.182834
0.175164
-0.0968564
-0.0992346
-0.103905
-0.112447
-0.125125
-0.144154
-0.172684
-0.199736
-0.248862
-0.33544
-0.453476
-0.555149
-0.689942
-0.926829
-1.08516
-1.18055
-1.1304
-1.03911
-0.7257
-0.608461
-0.031628
0.00266208
0.234728
0.495319
0.452336
0.510866
0.468965
0.405151
0.368281
0.347104
0.290181
0.2494
0.206149
0.195642
0.186385
0.178258
0.172514
0.171219
0.170632
0.168897
-0.104215
-0.102295
-0.103512
-0.109439
-0.120237
-0.137062
-0.159608
-0.201577
-0.247118
-0.355895
-0.454998
-0.584415
-0.699945
-0.889635
-1.04815
-1.18167
-1.22996
-1.1791
-0.99818
-0.579299
0.15588
0.552799
0.736771
0.75485
0.663693
0.558382
0.462314
0.364279
0.282956
0.240271
0.221743
0.212917
0.198856
0.178334
0.171351
0.165782
0.163872
0.161615
0.159345
0.162006
-0.106477
-0.105124
-0.110119
-0.116293
-0.126903
-0.143442
-0.165291
-0.193566
-0.232161
-0.301473
-0.395342
-0.528093
-0.680791
-0.80813
-0.918135
-0.994403
-1.07792
-0.932771
-0.732174
-0.254598
0.404239
0.738134
0.795246
0.803381
0.661635
0.53764
0.391286
0.283052
0.266334
0.242794
0.204088
0.171044
0.171467
0.161429
0.159615
0.158106
0.157391
0.157988
0.158031
0.156717
-0.0935865
-0.0928045
-0.0991315
-0.101896
-0.112805
-0.126841
-0.144299
-0.165955
-0.199226
-0.234212
-0.29731
-0.404485
-0.516668
-0.571094
-0.596709
-0.568918
-0.685334
-0.596292
-0.44541
-0.326275
0.787714
0.760912
0.711287
0.521444
0.391337
0.320612
0.269996
0.268568
0.207593
0.100878
0.0913576
0.114774
0.132297
0.135174
0.13966
0.143105
0.144886
0.145211
0.141505
0.139758
-0.0687212
-0.0721651
-0.07382
-0.0754301
-0.0842555
-0.0957946
-0.108598
-0.123096
-0.149777
-0.196428
-0.253257
-0.304266
-0.35755
-0.418964
-0.546458
-0.540909
-0.465751
-0.318052
-0.0266541
0.191022
0.263025
0.268327
0.372105
0.430719
0.398037
0.300243
0.176255
0.106233
0.104032
0.119516
0.0841742
0.0665758
0.0789038
0.100195
0.10913
0.115291
0.116868
0.120069
0.122147
0.123332
-0.0467539
-0.045275
-0.0449136
-0.0495807
-0.0549859
-0.0637119
-0.0796389
-0.0811887
-0.0920518
-0.11503
-0.160346
-0.22056
-0.305333
-0.433179
-0.601305
-0.670376
-0.482593
-0.500338
-0.173837
0.0226727
0.148025
0.323349
0.29527
0.297253
0.319572
0.155732
0.129614
0.0939585
0.0641389
0.031049
0.014313
0.0502523
0.0567222
0.101555
0.0986038
0.100172
0.101645
0.103156
0.105667
0.110405
-0.0310213
-0.0334269
-0.0321539
-0.0309442
-0.0295489
-0.0319268
-0.0302522
-0.0409734
-0.042267
-0.0550471
-0.0815424
-0.0571958
-0.079567
-0.177742
-0.255575
-0.276239
-0.0998151
-0.0137034
0.23253
0.0727893
-0.422853
-0.439829
-0.275716
-0.0980711
0.022265
-0.048871
-0.0845826
-0.128479
-0.0750209
0.0124579
0.0409716
0.0618387
0.0634549
0.0798165
0.0900778
0.0914645
0.0960718
0.0987461
0.101131
0.101411
-0.0159088
-0.0165887
-0.0167961
-0.0140054
-0.00823208
0.000396432
0.0107713
0.0190103
0.0390692
0.068464
0.0992377
0.132101
0.160913
0.189817
0.215171
0.245865
0.279332
0.176757
0.119105
-0.00830931
-0.204024
-0.31867
-0.468127
-0.472626
-0.422493
-0.335078
-0.23774
-0.151049
-0.0636523
-0.0240223
0.0133653
0.043176
0.0574201
0.0721836
0.0872147
0.0903272
0.0992064
0.104113
0.106108
0.0999209
0.00601893
0.0056243
0.00952605
0.0150794
0.0239372
0.0358213
0.0533136
0.0802574
0.107632
0.134853
0.192869
0.247956
0.342115
0.457094
0.562399
0.604545
0.626538
0.587575
0.337267
0.0309316
-0.166605
-0.477691
-0.600768
-0.54853
-0.529735
-0.421266
-0.304865
-0.183014
-0.112686
-0.0494486
0.0184264
0.0365663
0.0565084
0.0666784
0.0822389
0.0880877
0.0913768
0.0931429
0.0912735
0.0920541
0.0218015
0.0296359
0.0343038
0.0408385
0.0513734
0.0639009
0.0888569
0.110276
0.169147
0.238833
0.298953
0.327382
0.359568
0.392577
0.414476
0.239629
0.221193
-0.112146
-0.251534
-0.0824744
0.132969
0.395533
0.309806
-0.413372
-0.251054
-0.245154
-0.147092
-0.0855246
-0.0423699
-0.0349058
0.000113813
0.0223888
0.0448565
0.0568426
0.0710927
0.0744402
0.0786058
0.0816506
0.0847069
0.0894095
0.0299933
0.0305171
0.0372471
0.0453677
0.0569166
0.0695141
0.100766
0.123759
0.161895
0.211914
0.271664
0.339187
0.401394
0.425737
0.391635
0.321041
0.117024
0.114542
0.0133621
-0.0757407
-0.0186178
0.0206494
-0.0266506
-0.153013
-0.150347
-0.138635
-0.0904662
-0.0426142
-0.0105304
0.00773425
0.0263279
0.0489824
0.0685076
0.0805515
0.0807222
0.0822184
0.0817823
0.0809139
0.0809781
0.0822212
0.0271737
0.024767
0.0252606
0.0306232
0.04144
0.059204
0.0811759
0.113906
0.166903
0.228541
0.30603
0.375723
0.453355
0.523036
0.554553
0.450867
0.411891
0.136691
0.0642216
0.0821089
-0.256767
-0.382403
-0.423823
-0.41103
-0.331457
-0.232416
-0.132635
-0.0567718
0.00664627
0.047985
0.0680002
0.087211
0.0897434
0.0903527
0.0871045
0.0900055
0.088833
0.087728
0.0867402
0.0826882
0.030132
0.0208918
0.0241231
0.0297337
0.04194
0.0585311
0.0780151
0.0952286
0.15729
0.194964
0.262047
0.355669
0.446422
0.500635
0.550842
0.576093
0.451789
0.50906
0.270195
-0.195483
-0.427843
-0.745039
-0.783498
-0.47898
-0.459965
-0.33633
-0.225316
-0.11988
-0.0198419
0.0445965
0.0829293
0.0923098
0.0954433
0.0953932
0.0883161
0.0884647
0.088281
0.0862348
0.0833294
0.0789354
0.0252352
0.0291233
0.0322786
0.0374359
0.0450626
0.057828
0.0721384
0.0961892
0.122675
0.156251
0.19307
0.201859
0.196916
0.19121
0.154306
0.0758974
0.0236267
0.0312287
-0.0399767
-0.195867
-0.253454
-0.352611
-0.369816
-0.225079
-0.107325
-0.0151175
0.0535124
0.0698803
0.087409
0.0960945
0.105666
0.0983305
0.096209
0.0898564
0.0818536
0.0768688
0.07269
0.0703232
0.0700768
0.073084
0.0156585
0.0257734
0.0295808
0.0330808
0.0368604
0.0491906
0.051058
0.0644737
0.0891085
0.105424
0.128503
0.124243
0.115159
0.0664097
-0.00247789
-0.0784819
-0.155113
-0.372664
-0.33535
-0.244225
-0.00642058
0.195525
0.270123
0.227343
0.20289
0.158868
0.127383
0.111839
0.110747
0.100644
0.0909544
0.0922199
0.0901306
0.0835432
0.0768295
0.0695562
0.0649184
0.0614946
0.0600945
0.0601053
-0.000461709
5.24734e-05
0.000532295
0.00208627
0.00886036
0.0119442
0.0149126
0.0274511
0.0549648
0.0636545
0.0682432
0.0751353
0.109754
0.129332
0.133604
0.115264
0.135935
0.0748725
0.0810915
0.160391
0.101283
0.122544
0.123552
0.0523172
0.12312
0.102697
0.100718
0.0989747
0.0998596
0.109996
0.112492
0.10056
0.0872395
0.0806717
0.0741826
0.0664793
0.0635483
0.0623493
0.0608723
0.0537259
-0.0101935
-0.0167468
-0.0194741
-0.0214815
-0.0201438
-0.0181769
-0.0143487
-0.00227807
0.0179206
0.0385773
0.0524843
0.11085
0.197148
0.291701
0.383471
0.488948
0.513998
0.428778
0.279091
0.255891
0.148836
0.177132
0.0204306
-0.122342
-0.190412
-0.164248
-0.106945
-0.036752
0.0472381
0.0730556
0.0537264
0.0599339
0.0721063
0.0675007
0.061661
0.0605537
0.0578993
0.0544259
0.0520865
0.040191
-0.0165843
-0.0231895
-0.0226666
-0.0204805
-0.0190178
-0.0179965
-0.0164941
-0.0157465
-0.0145373
-0.0145775
0.00520296
0.039766
0.073715
0.120688
0.162497
0.223872
0.300186
0.327514
0.322993
0.250392
0.158841
0.0415884
-0.0410122
-0.081636
-0.0569047
-0.034319
-0.00388585
0.00521728
0.0136071
0.0164447
0.0453208
0.048592
0.0407878
0.0371553
0.0333648
0.0315285
0.030459
0.0311657
0.0308583
0.0293078
-0.0219537
-0.0154001
-0.0149963
-0.0179013
-0.0212522
-0.0262039
-0.0360784
-0.038704
-0.0604157
-0.0578894
-0.0765757
-0.120141
-0.182816
-0.217696
-0.237592
-0.219205
-0.182656
-0.0824082
0.0381355
0.0783885
0.155805
0.252697
0.31511
0.298882
0.0832558
0.0717
0.0999301
0.103401
0.0825944
0.0510399
0.0205288
0.0176519
0.0162177
0.016966
0.0140016
0.0106307
0.00770484
0.00759125
0.0103619
0.0118034
-0.0371124
-0.0290454
-0.0290579
-0.0325804
-0.0377745
-0.0469406
-0.0599978
-0.0802436
-0.104317
-0.0965521
-0.112387
-0.156707
-0.165727
-0.11246
-0.096414
-0.047962
0.0346981
0.14982
0.295817
-0.003456
0.0120519
-0.0852174
-0.0140105
-0.0246262
-0.0534508
-0.0488697
-0.033794
-0.0193825
-0.0306238
-0.0110438
0.0349475
0.034567
0.0160328
0.00929025
0.00420203
0.00433751
0.00237807
0.00114446
0.000871956
0.00201593
-0.0505762
-0.0528872
-0.0564174
-0.060447
-0.0634627
-0.0700743
-0.0792866
-0.0901662
-0.0905906
-0.0880434
-0.0835975
-0.0694116
-0.0229658
0.0335904
0.0993798
0.19889
0.285286
0.30462
0.258011
0.160206
0.110291
0.022132
-0.114758
-0.227482
-0.223314
-0.230376
-0.195745
-0.122605
-0.0716483
-0.0279475
-0.0131358
-0.0059248
-0.00223504
-0.0113914
-0.00629757
-0.00150446
0.00103156
0.00211758
0.000859591
-0.00242171
-0.0519262
-0.0581509
-0.0605427
-0.0634667
-0.0654844
-0.0688654
-0.0767368
-0.083072
-0.0817657
-0.0834117
-0.0760757
-0.0713368
0.00460159
0.0948503
0.181964
0.282361
0.384148
0.430902
0.397124
0.250864
0.149889
0.0667895
-0.0761965
-0.147989
-0.104322
-0.138882
-0.136871
-0.115617
-0.0784379
-0.0634376
-0.0402156
-0.0298564
-0.0374034
-0.0303957
-0.0237767
-0.0164188
-0.013147
-0.0139005
-0.0151679
-0.0195554
-0.0460481
-0.0449652
-0.0445296
-0.046639
-0.0493913
-0.0543866
-0.0585448
-0.0577189
-0.0546293
-0.0571099
-0.0687565
-0.103519
-0.121574
-0.140688
-0.246768
-0.229268
-0.157912
-0.0298267
0.140203
0.27544
0.383496
0.580509
0.548781
0.504549
0.403283
0.276741
0.164213
0.0687598
0.00277273
-0.0459291
-0.0641527
-0.0706534
-0.0672077
-0.061646
-0.0534211
-0.0505742
-0.0477642
-0.0452421
-0.0418187
-0.0382021
-0.048039
-0.0427461
-0.0407307
-0.0406582
-0.0417141
-0.048438
-0.0540408
-0.0605424
-0.0705512
-0.08013
-0.0974635
-0.124044
-0.153199
-0.165649
-0.165186
-0.146733
-0.0455446
0.0757479
0.206891
0.336671
0.431278
0.566008
0.565693
0.514038
0.423207
0.317016
0.220351
0.116278
0.0279772
-0.0225759
-0.0517659
-0.0671019
-0.0718742
-0.0630157
-0.0619862
-0.0638935
-0.0607525
-0.0574352
-0.0532252
-0.0487971
-0.050584
-0.0527236
-0.0539949
-0.0568305
-0.0583743
-0.0598648
-0.0611596
-0.0577896
-0.0447428
-0.0348467
-0.0177929
0.0274675
0.0809887
0.136406
0.18039
0.237731
0.323667
0.415728
0.412591
0.425914
0.422135
0.362536
0.197019
0.0642902