/*--------------------------------*- C++ -*----------------------------------*\
| =========                 |                                                 |
| \\      /  F ield         | OpenFOAM: The Open Source CFD Toolbox           |
|  \\    /   O peration     | Version:  v2106                                 |
|   \\  /    A nd           | Website:  www.openfoam.com                      |
|    \\/     M anipulation  |                                                 |
\*---------------------------------------------------------------------------*/
FoamFile
{
    version     2.0;
    format      ascii;
    arch        "LSB;label=32;scalar=64";
    class       volVectorField;
    location    "0";
    object      U;
}
// * * * * * * * * * * * * * * * * * * * * * * * * * * * * * * * * * * * * * //

dimensions      [0 1 -1 0 0 0 0];

internalField   nonuniform List<vector> 
11644
(
(0.000292947 -2.01411e-05 2.77847e-21)
(0.000300194 -0.000120605 7.66219e-21)
(0.000249866 -0.000267072 4.11096e-21)
(0.000131357 -0.000432228 0)
(0.000123995 -0.00050008 0)
(0.000187455 -0.000626582 0)
(0.000246649 -0.000792944 0)
(0.000298863 -0.000992799 0)
(0.000249445 -0.00129149 0)
(0.000256565 -0.00162119 0)
(0.000649385 -0.00193355 0)
(0.000549927 -0.00238839 0)
(0.000454782 -0.00290633 0)
(7.19748e-05 -0.00320698 0)
(3.79721e-05 -0.00383764 0)
(0.000526855 -0.00392947 0)
(0.00149693 -0.00459718 0)
(0.00216368 -0.00634056 0)
(0.000766899 -0.00742724 0)
(-0.000952666 -0.00629901 -9.39974e-33)
(-0.00150459 -0.00443235 4.45551e-32)
(-0.00100316 -0.00241839 0)
(0.000742171 -0.00182377 0)
(0.00143882 -0.00250645 0)
(0.00105182 -0.00280976 0)
(0.000269071 -0.00266631 0)
(0.000218743 -0.00260305 0)
(0.000566371 -0.00241941 0)
(-2.44086e-05 -0.00208058 0)
(4.52729e-05 -0.00192108 0)
(0.000221849 -0.00178704 0)
(0.000152783 -0.00157661 0)
(0.000151362 -0.00137492 0)
(0.000161367 -0.00117034 0)
(0.000229213 -0.0010273 0)
(0.000235672 -0.000850669 0)
(0.000248808 -0.000696247 0)
(0.000179438 -0.000516635 0)
(0.000127495 -0.000326889 0)
(0.00013659 -0.000121202 5.38716e-22)
(0.000411982 -5.70919e-05 3.56892e-21)
(0.000436163 -0.000175284 3.30597e-21)
(0.000522159 -0.000334286 1.77553e-21)
(0.000589925 -0.000609933 0)
(0.000615151 -0.00104589 0)
(0.000600203 -0.00156562 0)
(0.000671 -0.00210245 0)
(0.000815532 -0.00274265 0)
(0.00111435 -0.00342236 0)
(0.00123684 -0.00435877 0)
(0.000950484 -0.00544523 0)
(0.00162914 -0.00639704 0)
(0.00159008 -0.00752412 0)
(0.0023048 -0.00879112 0)
(0.00235559 -0.0100537 0)
(0.00214867 -0.0113292 1.97034e-23)
(0.00313235 -0.0132392 -9.91297e-21)
(0.00201264 -0.0140194 2.82184e-20)
(-0.000109082 -0.0135032 -7.87613e-21)
(-0.00147038 -0.0126768 -9.43303e-20)
(-0.00151444 -0.0118607 1.06649e-19)
(-0.00102548 -0.0116992 -3.4541e-20)
(-0.000534833 -0.0110467 1.93582e-21)
(0.000332168 -0.00964998 1.05351e-20)
(0.000233631 -0.00869558 -2.51681e-22)
(0.000455199 -0.00798406 0)
(0.00056148 -0.00740394 0)
(-0.000451316 -0.00649034 0)
(0.000183885 -0.00593375 0)
(7.45823e-05 -0.00525084 0)
(-0.00029219 -0.00436842 0)
(-0.000193187 -0.0037571 0)
(-0.000201168 -0.00318497 0)
(-0.000157066 -0.00266682 0)
(-0.000175059 -0.00213133 0)
(-0.000229991 -0.00164276 0)
(-0.000251681 -0.00120249 0)
(-0.000287048 -0.000808358 0)
(-0.000271777 -0.00048648 0)
(-0.000249998 -0.000136804 0)
(0.000731566 -0.000139123 0)
(0.000746017 -0.000390026 0)
(0.000817662 -0.000644288 0)
(0.00111598 -0.000868881 0)
(0.00139594 -0.00137806 3.26014e-21)
(0.00171858 -0.00203446 0)
(0.00210464 -0.00288418 0)
(0.00261166 -0.00392535 0)
(0.00316493 -0.00515253 0)
(0.00384113 -0.00643273 0)
(0.004456 -0.00791872 0)
(0.00444121 -0.00975755 0)
(0.00528197 -0.0115906 -3.98489e-23)
(0.00481726 -0.0132987 -8.46118e-21)
(0.00420246 -0.0153362 -1.74393e-20)
(0.00543831 -0.0177772 6.72857e-21)
(0.0038563 -0.0192377 -1.85603e-20)
(0.000532772 -0.0188285 -1.05394e-19)
(-0.00121704 -0.0187067 2.88022e-19)
(-0.00158672 -0.0193278 -2.21825e-19)
(-0.00162059 -0.020146 8.73432e-20)
(-0.00157968 -0.019896 -4.3979e-20)
(-0.00219674 -0.0187845 -8.10301e-21)
(-0.00217068 -0.0168121 1.06588e-19)
(-0.0012918 -0.0142869 -8.18386e-20)
(-0.000990301 -0.0126752 9.67729e-21)
(-0.00146121 -0.0109236 7.36035e-21)
(-0.000406116 -0.0094869 3.68111e-22)
(-0.000765062 -0.00794417 0)
(-0.000801778 -0.00667457 0)
(-0.00067513 -0.0056853 0)
(-0.000861505 -0.00450653 0)
(-0.000926006 -0.00353548 0)
(-0.000900726 -0.00273217 0)
(-0.00095685 -0.00198541 0)
(-0.000846082 -0.00145483 0)
(-0.000793281 -0.00103648 0)
(-0.000692145 -0.000628366 0)
(-0.000611074 -0.000353186 0)
(-0.000550854 -0.000131934 0)
(0.000898849 -0.000146782 0)
(0.000995159 -0.000418693 0)
(0.00118724 -0.000878904 0)
(0.00149377 -0.00149854 0)
(0.00185684 -0.00208772 0)
(0.002431 -0.00271135 0)
(0.00317692 -0.0035499 0)
(0.00424305 -0.00452955 0)
(0.00540112 -0.005733 0)
(0.00675095 -0.00728274 0)
(0.00828702 -0.00884532 1.78807e-22)
(0.00964728 -0.0106109 -6.02786e-21)
(0.00982988 -0.0129183 -5.78956e-20)
(0.00996799 -0.0156043 5.20138e-20)
(0.0102079 -0.0184569 -4.71332e-19)
(0.00715975 -0.0205045 3.14876e-19)
(0.00501425 -0.0221869 -1.97766e-19)
(0.00114957 -0.023328 5.65838e-19)
(-0.000949392 -0.0241164 -5.27934e-20)
(-0.00158677 -0.0254124 -2.72186e-20)
(-0.00209982 -0.0253094 1.09912e-20)
(-0.00309608 -0.0250364 -7.09759e-20)
(-0.00450428 -0.0232642 -4.42798e-19)
(-0.00401812 -0.020265 4.32947e-19)
(-0.00352792 -0.0176469 -6.20173e-19)
(-0.00270922 -0.0148537 5.55914e-19)
(-0.00170725 -0.0129052 -4.58334e-20)
(-0.00265778 -0.0102964 7.28047e-20)
(-0.0026709 -0.00817231 -1.32041e-20)
(-0.00254169 -0.00618198 -1.80695e-22)
(-0.00245446 -0.00437502 0)
(-0.00224207 -0.00307544 0)
(-0.00202064 -0.00203506 0)
(-0.00179021 -0.0012891 0)
(-0.00155295 -0.000776758 0)
(-0.00129767 -0.000479597 0)
(-0.00119114 -0.000217582 0)
(-0.000971305 -0.000221674 0)
(-0.000916349 -5.02252e-05 0)
(-0.000898301 -4.81328e-05 0)
(0.000823453 0.000225265 0)
(0.00101736 0.000131947 0)
(0.0014778 9.37934e-05 0)
(0.00208405 -0.00011217 0)
(0.00273012 -0.000632082 0)
(0.00357322 -0.00129388 0)
(0.00465529 -0.00218904 0)
(0.00588297 -0.00334339 0)
(0.00749939 -0.004531 0)
(0.00917308 -0.00595907 -3.2961e-21)
(0.0097186 -0.00831836 -1.29411e-20)
(0.0102627 -0.0104911 -3.95196e-20)
(0.011277 -0.0126364 1.79533e-19)
(0.0131215 -0.0147658 -5.34974e-19)
(0.0120477 -0.0179436 1.07708e-18)
(0.0100975 -0.0200229 -9.84808e-19)
(0.00740939 -0.0232783 7.58259e-19)
(0.00330026 -0.0255527 -8.41024e-19)
(0.00115492 -0.0258719 1.69036e-19)
(-0.000369014 -0.0272429 -1.00333e-18)
(-0.00216263 -0.026279 1.57256e-18)
(-0.00540203 -0.0265927 -8.16841e-19)
(-0.00752089 -0.024931 9.8922e-19)
(-0.00942772 -0.0216202 -5.41606e-19)
(-0.0100029 -0.0186853 7.01988e-19)
(-0.00827361 -0.0148588 -1.0618e-18)
(-0.00792418 -0.01077 5.66362e-19)
(-0.00669517 -0.00779482 -2.89997e-19)
(-0.00567526 -0.00516859 1.06503e-19)
(-0.00546347 -0.00228826 2.0032e-20)
(-0.004842 -0.000312678 -5.15335e-21)
(-0.0040382 0.000917276 0)
(-0.00345064 0.00181998 0)
(-0.00296544 0.00233463 0)
(-0.00247371 0.00259003 0)
(-0.00209698 0.00269732 0)
(-0.00172718 0.00251733 0)
(-0.00128622 0.00211051 0)
(-0.00089377 0.00117551 0)
(-0.00082276 0.000451666 0)
(0.00045875 -0.000462373 0)
(0.000637115 -0.000116145 0)
(0.00104391 -0.000260938 0)
(0.00169885 -0.000158557 0)
(0.00253254 4.00852e-05 0)
(0.00364897 7.44568e-05 0)
(0.00509559 -0.000174228 0)
(0.00680002 -0.0004678 0)
(0.00858848 -0.00136263 6.10851e-21)
(0.0103605 -0.00251025 3.78131e-21)
(0.0132525 -0.00306629 -5.79013e-20)
(0.015718 -0.00486031 8.19154e-20)
(0.0183294 -0.00637159 -1.62161e-19)
(0.0169349 -0.0102125 -2.0416e-19)
(0.0181559 -0.0137209 1.43685e-19)
(0.0168695 -0.01648 7.80621e-19)
(0.0121395 -0.0206342 -5.164e-19)
(0.00786935 -0.0244863 5.17555e-19)
(0.00460262 -0.0243045 -3.85405e-19)
(0.000500528 -0.0236234 5.93605e-19)
(-0.00334957 -0.0255751 -1.27449e-18)
(-0.00767289 -0.025061 1.06896e-18)
(-0.00868596 -0.0205876 -5.7843e-19)
(-0.01155 -0.0190886 -7.69236e-19)
(-0.0132816 -0.0164658 5.50375e-19)
(-0.0151294 -0.0120833 -1.98324e-19)
(-0.0129796 -0.00848112 3.9942e-19)
(-0.0112339 -0.00351871 2.51587e-20)
(-0.00981111 0.000606328 -7.16074e-20)
(-0.00759252 0.00267251 1.12576e-19)
(-0.00629137 0.00459899 -7.60924e-20)
(-0.00514746 0.00576673 7.09175e-21)
(-0.00387113 0.00585512 0)
(-0.00300334 0.00565788 0)
(-0.00212176 0.00495723 0)
(-0.00140013 0.00398897 0)
(-0.000744317 0.00281875 0)
(-0.000151207 0.00185987 0)
(0.000153541 0.000943246 0)
(0.000238573 0.000225182 0)
(-0.000161332 0.00101593 0)
(-3.54612e-06 0.00106258 0)
(0.000381802 0.00161817 0)
(0.000954442 0.00192313 0)
(0.00184418 0.0023881 0)
(0.00303666 0.00266785 0)
(0.00459751 0.00292863 0)
(0.00636217 0.00297447 -1.56103e-22)
(0.00842964 0.00322736 -1.9832e-20)
(0.0111017 0.00315129 -2.94738e-20)
(0.0142279 0.00187842 4.53167e-20)
(0.0178285 0.00157702 6.71453e-20)
(0.0196361 -0.00132073 -3.15639e-19)
(0.0237132 -0.0030745 1.68525e-19)
(0.0199893 -0.00631501 -8.36258e-20)
(0.0158937 -0.0118932 3.28973e-19)
(0.013523 -0.0177897 4.06361e-19)
(0.0119234 -0.021729 -2.39526e-19)
(0.00832622 -0.0232462 -9.21575e-19)
(0.00278727 -0.0230531 -1.97288e-18)
(-0.00354736 -0.02452 -1.6958e-18)
(-0.00824166 -0.022965 9.92359e-19)
(-0.011009 -0.017816 -1.21083e-19)
(-0.0139541 -0.0140433 -2.44593e-19)
(-0.0207201 -0.0121962 -6.88505e-19)
(-0.0218502 -0.00793727 3.31672e-19)
(-0.0196878 -0.00113751 -2.55268e-19)
(-0.018832 0.00268725 4.65655e-19)
(-0.0140343 0.00647361 -9.13755e-20)
(-0.010454 0.0093433 -4.79669e-20)
(-0.00727433 0.00989018 -9.30522e-21)
(-0.00513984 0.00941321 -5.58702e-20)
(-0.00345106 0.00860625 -1.33939e-22)
(-0.00213806 0.00759156 0)
(-0.00104069 0.00655234 0)
(-0.000158081 0.00541455 0)
(0.00053701 0.0044292 0)
(0.00113777 0.00297689 0)
(0.00150272 0.00222995 0)
(0.00159429 0.000665497 0)
(-0.00170868 -1.84625e-05 0)
(-0.0014383 0.000932798 0)
(-0.00110706 0.00210271 0)
(-0.000662007 0.00358905 0)
(0.000135827 0.0048427 0)
(0.00137282 0.00601979 0)
(0.00298243 0.00728734 0)
(0.00494268 0.00828682 -3.5324e-21)
(0.0074536 0.00883679 -3.97175e-20)
(0.0110652 0.00944303 3.03185e-20)
(0.0152831 0.00881327 2.10907e-19)
(0.0187264 0.00514525 -8.05013e-20)
(0.0207514 0.00417119 -2.51576e-19)
(0.0233373 0.00172716 7.60862e-20)
(0.0188344 -0.00470223 -2.98316e-19)
(0.0208745 -0.00527381 8.51342e-19)
(0.0218702 -0.00903978 3.82561e-19)
(0.0183866 -0.0166861 3.28841e-19)
(0.0145488 -0.0220108 -2.11001e-19)
(0.00952376 -0.0242203 1.05533e-18)
(0.000202735 -0.0243564 2.73451e-19)
(-0.00824799 -0.0195681 7.21012e-19)
(-0.0171692 -0.0146533 -8.09572e-19)
(-0.019736 -0.0109717 1.00018e-18)
(-0.0286809 -0.00794835 1.01076e-18)
(-0.0278977 -0.00128956 -1.70743e-19)
(-0.0266775 0.00204921 -5.8266e-20)
(-0.0239581 0.00833143 -8.28016e-20)
(-0.0189534 0.0132758 -1.93018e-19)
(-0.01373 0.0140629 2.24452e-19)
(-0.00827475 0.0140819 -4.44437e-20)
(-0.00460553 0.0133191 8.7462e-21)
(-0.00249795 0.0118857 1.1467e-21)
(-0.000916185 0.00993411 0)
(0.000424075 0.00880697 0)
(0.00139929 0.00787278 0)
(0.00223607 0.00662181 0)
(0.00265994 0.0053798 0)
(0.00285134 0.00279807 0)
(0.00298711 0.00118017 0)
(-0.00378787 -0.000576106 0)
(-0.00374778 0.000578425 0)
(-0.00368953 0.00106955 0)
(-0.00333329 0.00237696 0)
(-0.00259947 0.00421992 0)
(-0.00148161 0.00655132 0)
(-1.56469e-05 0.00876373 4.12019e-21)
(0.00199119 0.0115345 -6.56636e-21)
(0.00543956 0.0136729 4.43288e-20)
(0.010286 0.0138195 3.89372e-20)
(0.0160077 0.0138263 -1.4107e-19)
(0.0214885 0.0147291 6.80483e-20)
(0.0255991 0.0164829 -5.61553e-20)
(0.0283903 0.00708229 1.90699e-19)
(0.0291903 0.00623204 1.38504e-19)
(0.0340197 0.00347713 -1.23256e-19)
(0.0286975 -0.00602685 -3.03973e-19)
(0.0274607 -0.0122288 6.54856e-19)
(0.0222159 -0.0220484 -8.96788e-19)
(0.0142647 -0.0266403 -9.71555e-21)
(7.11458e-06 -0.0302886 2.91539e-19)
(-0.0137087 -0.0252889 -8.56168e-19)
(-0.0227561 -0.0158615 -1.17632e-20)
(-0.0351858 -0.00844038 1.28095e-18)
(-0.0348264 0.000903706 6.01577e-20)
(-0.0371997 0.00945204 -1.45771e-19)
(-0.0337312 0.01222 1.09292e-19)
(-0.0282269 0.0130094 -7.32464e-20)
(-0.0215258 0.0165314 -1.49798e-20)
(-0.0151397 0.0162749 1.24196e-19)
(-0.00873091 0.0168205 -1.51805e-19)
(-0.00374902 0.0149358 5.30648e-20)
(-0.000551688 0.0125308 8.33065e-21)
(0.00087621 0.0101158 1.10771e-21)
(0.00156649 0.00706136 0)
(0.00216272 0.0046003 0)
(0.00281064 0.00243718 0)
(0.00345967 0.00135775 0)
(0.00408146 0.00113467 0)
(0.00438628 0.000100981 0)
(-0.00597641 0.00282711 0)
(-0.00662261 0.00310805 0)
(-0.00708659 0.00457031 0)
(-0.00711372 0.00565914 0)
(-0.00672677 0.00708374 0)
(-0.00606809 0.0088905 0)
(-0.00505744 0.0116695 -3.9873e-22)
(-0.00223234 0.0137311 1.67779e-20)
(0.00272288 0.0154097 -7.37031e-21)
(0.00851277 0.0169313 -4.26828e-22)
(0.0157242 0.015929 -1.83292e-20)
(0.0231432 0.0151752 4.18206e-20)
(0.0271745 0.0209115 -7.98405e-22)
(0.030649 0.016186 -1.90748e-20)
(0.0341878 0.0105002 5.86211e-20)
(0.0399989 0.0103458 -1.3637e-19)
(0.0422505 -0.000766962 -6.82507e-20)
(0.0466107 -0.0117361 4.27883e-20)
(0.0381947 -0.026847 -6.73754e-19)
(0.0235532 -0.0414776 -4.39148e-19)
(-0.00129437 -0.0464739 -1.92315e-19)
(-0.0267482 -0.0383285 -1.33037e-19)
(-0.0425055 -0.0220571 1.61568e-19)
(-0.0479475 -0.00365592 -1.16794e-19)
(-0.0475819 0.0121261 -2.5578e-19)
(-0.0461704 0.017164 -1.13478e-19)
(-0.0401656 0.0277144 1.46107e-20)
(-0.0300235 0.022874 -1.93416e-20)
(-0.0215618 0.0203153 -4.02697e-21)
(-0.0144151 0.0186828 6.34828e-20)
(-0.00831097 0.0163498 -3.25736e-20)
(-0.00263097 0.0145752 2.20913e-20)
(0.00181075 0.0125991 -2.29231e-20)
(0.00393948 0.0104451 3.23041e-21)
(0.00455418 0.00864935 0)
(0.00482553 0.00720938 0)
(0.00498332 0.00626918 0)
(0.00460888 0.00441954 0)
(0.00449509 0.00288446 0)
(0.00475271 0.0016935 0)
(-0.00927217 -0.00214119 0)
(-0.00894232 -0.00217114 0)
(-0.00894191 -7.2211e-05 0)
(-0.00952816 0.00230176 0)
(-0.0100829 0.00487047 0)
(-0.0104005 0.00751644 0)
(-0.0103101 0.0110985 7.46991e-22)
(-0.00732196 0.013886 3.22808e-21)
(0.000250015 0.0132374 -1.87955e-23)
(0.00619796 0.0145877 -5.39042e-21)
(0.0104771 0.0196016 -1.91885e-20)
(0.0202476 0.0189808 2.93655e-20)
(0.0296957 0.0203191 2.76432e-21)
(0.030027 0.0254801 -9.0204e-20)
(0.0448244 0.0262926 -3.31389e-20)
(0.0499242 0.0218029 4.02786e-20)
(0.0601632 0.0139671 7.2952e-21)
(0.0745867 -0.00528898 2.00369e-20)
(0.0751557 -0.0376848 -6.01992e-21)
(0.0503806 -0.0787547 1.0656e-19)
(-0.00203188 -0.0966135 -2.23887e-18)
(-0.0563173 -0.0754153 9.05081e-19)
(-0.0809516 -0.0311157 3.50466e-20)
(-0.0823286 0.00657372 5.59162e-21)
(-0.0681537 0.0289866 -3.0831e-20)
(-0.0493649 0.041818 -5.47353e-20)
(-0.0359627 0.0393325 -1.045e-20)
(-0.0219847 0.0396967 -2.82096e-21)
(-0.0163762 0.027438 1.76326e-20)
(-0.0142123 0.017795 -8.86336e-21)
(-0.00774875 0.0144726 6.13836e-21)
(-0.000587189 0.0135211 -9.15804e-21)
(0.00437174 0.0114799 4.02023e-21)
(0.00634504 0.008484 2.51543e-21)
(0.00644597 0.00630135 0)
(0.0061588 0.00506138 0)
(0.0055072 0.00410712 0)
(0.00468535 0.00355717 0)
(0.00408383 0.00247094 0)
(0.00397936 -0.00128592 0)
(-0.0106981 -0.00115057 0)
(-0.0115719 0.000838963 0)
(-0.0117177 -0.000115869 0)
(-0.0123441 0.000928826 0)
(-0.0131172 0.00241336 0)
(-0.01445 0.00473567 0)
(-0.0139654 0.00680902 4.15541e-22)
(-0.00939431 0.00851623 -4.38052e-22)
(-0.00228194 0.00989305 3.29426e-22)
(0.00500983 0.0108267 6.6532e-22)
(0.00747343 0.0199826 1.18073e-20)
(0.0130221 0.0282446 -7.41364e-21)
(0.0213419 0.0324782 -7.53445e-21)
(0.0288669 0.0422318 -5.82663e-20)
(0.0443558 0.0478909 8.97861e-20)
(0.0602438 0.0497081 -1.65115e-20)
(0.083227 0.0454595 4.41732e-20)
(0.115483 0.0280694 4.57809e-21)
(0.160756 -0.0406749 -4.59114e-19)
(-0.195019 -0.0456611 1.25985e-19)
(-0.129198 0.0467544 1.85952e-21)
(-0.082176 0.0737165 7.3931e-20)
(-0.0443238 0.0790232 4.2873e-20)
(-0.0256848 0.058853 -2.13959e-20)
(-0.00737843 0.0543847 -1.03946e-20)
(-0.00980591 0.0328144 1.62057e-20)
(-0.00733454 0.0207031 -3.97452e-22)
(-0.00450966 0.0137211 -4.70354e-21)
(-0.000679895 0.00954501 1.66599e-21)
(0.00476024 0.00745406 9.38798e-22)
(0.00881819 0.00594244 -1.59678e-22)
(0.00731582 0.00360067 0)
(0.00515599 0.00145025 0)
(0.00376774 0.000150181 0)
(0.00362512 0.000357571 0)
(0.00311363 0.000587472 0)
(0.00377761 0.00507364 0)
(-0.0131454 0.00370342 0)
(-0.0135802 0.00186185 0)
(-0.0149578 0.0022727 0)
(-0.0164667 0.00150141 0)
(-0.0180526 0.00105348 0)
(-0.0192452 0.0016288 0)
(-0.0177727 0.00210129 -1.94676e-22)
(-0.0109662 0.00244069 -2.22006e-21)
(-0.00763892 0.00673446 1.27994e-20)
(-0.00629256 0.0108569 6.53399e-21)
(-0.0087828 0.0200612 -3.2822e-20)
(-0.0131215 0.0367583 7.05462e-20)
(-0.0113205 0.0528585 -4.83517e-20)
(0.010745 0.0631141 4.03569e-20)
(0.022878 0.0779191 5.04202e-20)
(0.0477516 0.0867105 5.67118e-20)
(0.0774138 0.0971987 5.20406e-20)
(0.146492 0.102055 8.79165e-21)
(0.00485236 0.036241 8.37704e-18)
(-0.0482559 0.0436588 4.878e-19)
(-0.154554 0.14405 -7.05039e-21)
(-0.0758843 0.130199 -1.656e-20)
(-0.0314905 0.112792 3.63745e-20)
(-0.0107297 0.087703 -1.07432e-19)
(0.00158869 0.0672505 1.2943e-20)
(0.00574911 0.0412613 -1.3436e-20)
(0.00456921 0.0269 -1.74413e-20)
(0.00318934 0.0153467 9.33693e-21)
(0.00282892 0.00687696 -5.2402e-21)
(0.00710243 0.00356845 2.28799e-21)
(0.012141 0.00308422 7.868e-22)
(0.0135185 0.00212797 0)
(0.0109086 0.00172268 0)
(0.00819381 0.00198689 0)
(0.005094 0.001694 0)
(0.00329733 0.001301 0)
(0.000798776 -0.00393304 0)
(-0.0119151 -0.00356812 -6.12966e-23)
(-0.0109419 -0.00603544 0)
(-0.010163 -0.00611917 0)
(-0.0104316 -0.00661419 0)
(-0.0128303 -0.00673795 0)
(-0.0158585 -0.00642136 0)
(-0.0154898 -0.00596601 -1.68152e-22)
(-0.0117147 -0.00601776 5.52886e-21)
(-0.0117615 -0.000559856 -4.18561e-21)
(-0.016974 0.00843167 -1.56499e-20)
(-0.0213409 0.0207999 8.01086e-20)
(-0.0306392 0.0382731 -1.25656e-19)
(-0.0350625 0.0644058 1.15466e-19)
(-0.00990352 0.0866524 4.10969e-20)
(0.00261624 0.11276 4.04379e-19)
(0.0277665 0.132395 5.41879e-19)
(0.0572009 0.145817 1.24024e-19)
(0.287191 0.104229 1.9689e-20)
(0.135694 -0.062047 -9.00102e-19)
(-0.362627 0.130394 -4.02508e-19)
(-0.105061 0.246864 -2.00679e-20)
(-0.0240141 0.188726 2.33234e-19)
(0.0195251 0.142142 3.6423e-19)
(0.0316327 0.109778 -2.46761e-19)
(0.0486034 0.0707939 1.26231e-19)
(0.0374152 0.0532066 -7.50557e-20)
(0.0281413 0.0319081 -8.28509e-20)
(0.0200246 0.0142678 1.82263e-20)
(0.0122626 0.00417968 6.81769e-21)
(0.00971495 -0.000650181 5.77729e-21)
(0.0120531 -0.00325565 -8.57959e-21)
(0.0102869 -0.00283232 0)
(0.00744701 -0.00352286 0)
(0.00445184 -0.00384619 0)
(0.00236 -0.00386827 0)
(-0.000368444 -0.00261328 0)
(-0.00370175 -0.00125561 0)
(-0.00674438 0.000513063 -2.45336e-24)
(-0.00696009 -0.000460425 0)
(-0.00787514 -0.00518086 0)
(-0.00848216 -0.00771034 0)
(-0.00988438 -0.00952203 0)
(-0.012639 -0.0107501 0)
(-0.0112369 -0.0120657 -1.36155e-21)
(-0.00891959 -0.0104022 1.0822e-20)
(-0.0133022 -0.00567741 8.1205e-21)
(-0.0228814 0.00429177 -4.8372e-20)
(-0.032344 0.0179746 -1.34656e-19)
(-0.0420019 0.0397354 1.85823e-19)
(-0.0524743 0.0708267 -2.66326e-20)
(-0.0444619 0.111812 -2.12502e-19)
(-0.0376382 0.146055 6.76923e-19)
(-0.0104721 0.186732 -7.59812e-20)
(0.0493656 0.216032 -6.68176e-20)
(0.552368 0.127934 7.4162e-20)
(0.906409 -0.301502 2.73768e-19)
(-0.115815 -0.42521 7.2205e-19)
(-0.265665 -0.307706 2.30913e-20)
(-0.448581 0.146135 -2.82852e-19)
(-0.828975 0.378626 2.64281e-19)
(0.0109269 0.327341 -4.97628e-19)
(0.0618314 0.226919 -3.97143e-19)
(0.0838594 0.15823 5.75635e-19)
(0.0829733 0.109295 -4.33133e-19)
(0.0947383 0.061096 1.6658e-19)
(0.0834075 0.0402572 -1.59168e-19)
(0.0651278 0.0190774 -5.89608e-20)
(0.0426519 0.00604369 5.66056e-20)
(0.0253576 -0.00165718 -3.11407e-20)
(0.0158031 -0.00748441 -8.63065e-21)
(0.0116935 -0.00935556 1.66036e-21)
(0.0114938 -0.00876721 0)
(0.00693221 -0.0072531 0)
(0.00275288 -0.0053279 0)
(0.00102703 -0.00361465 0)
(0.00186306 -0.00394073 0)
(0.00244136 -0.000336926 0)
(-0.00666013 0.00155315 4.3e-22)
(-0.00723351 0.000163878 0)
(-0.00859673 -0.00331523 0)
(-0.00960553 -0.00672759 0)
(-0.010307 -0.0108166 0)
(-0.00967106 -0.0149377 0)
(-0.00996972 -0.0158608 -7.91462e-24)
(-0.0139443 -0.0154961 -2.66588e-21)
(-0.0272487 -0.00832494 -7.63687e-22)
(-0.0463723 0.00506872 2.37574e-20)
(-0.0637811 0.0163664 1.00719e-19)
(-0.0901575 0.0367421 -5.44677e-20)
(-0.11728 0.0746274 -7.16568e-20)
(-0.106314 0.108256 -2.4319e-19)
(-0.132229 0.163741 1.70082e-19)
(-0.124153 0.271664 -4.64459e-20)
(-0.00260303 0.357134 3.1547e-19)
(0.910493 0.294715 2.67622e-18)
(0.796794 0.569746 9.97408e-19)
(-0.147164 0.780199 -7.5291e-19)
(-0.663847 0.780799 1.49198e-18)
(-0.703919 0.657915 -3.89591e-19)
(-0.644623 0.602572 3.28213e-18)
(0.286463 0.330361 -5.26449e-20)
(0.16922 0.227842 -2.10884e-19)
(0.165123 0.140897 -2.12262e-19)
(0.140916 0.0886704 -1.87618e-19)
(0.133779 0.0409803 -1.62724e-19)
(0.110345 0.0146259 1.82183e-19)
(0.0861802 0.00217908 -1.27151e-19)
(0.0673451 -0.00402834 -1.62533e-20)
(0.0424613 -0.0117263 1.196e-20)
(0.0250397 -0.0144906 -3.14383e-21)
(0.0161156 -0.0135975 3.46764e-23)
(0.0132888 -0.00994567 0)
(0.00928866 -0.00741045 0)
(0.00718053 -0.00462387 0)
(0.00548912 -0.00256331 0)
(0.00471493 -0.00337153 0)
(0.00373491 -0.000368958 -1.11057e-21)
(0.00370785 -0.00213878 -2.48874e-21)
(0.00451146 -0.00512889 0)
(0.00375046 -0.00775908 0)
(0.00297628 -0.0108179 0)
(0.00132048 -0.0151302 0)
(-0.00267063 -0.0205344 0)
(-0.0115165 -0.0229016 0)
(-0.0276577 -0.0211817 -2.43699e-21)
(-0.0430904 -0.0194065 3.27782e-20)
(-0.0686856 -0.0082199 -3.88582e-20)
(-0.0930683 -0.000753615 7.36548e-20)
(-0.127968 0.0141567 -5.94944e-20)
(-0.164058 0.0319997 -1.37045e-19)
(-0.214545 0.0577476 7.75917e-20)
(-0.237965 0.137631 2.86088e-19)
(-0.29628 0.243763 4.26581e-20)
(-0.108422 0.393177 -1.23375e-19)
(0.761902 0.488679 5.24016e-18)
(-0.0648083 1.05706 -1.15757e-18)
(-0.45239 1.5538 -1.69486e-18)
(-0.398826 1.06931 -1.56469e-18)
(-0.237889 0.83892 1.01172e-18)
(-0.0814874 0.284594 -8.13404e-20)
(0.39641 0.267781 -3.08132e-18)
(0.310476 0.176274 -4.80029e-20)
(0.252872 0.087091 7.6708e-19)
(0.209297 0.0132826 -4.04538e-20)
(0.155689 -0.0117898 -2.59879e-19)
(0.12168 -0.0188009 2.01325e-19)
(0.0924369 -0.0223871 -2.72608e-20)
(0.0662679 -0.0260005 1.25834e-21)
(0.045495 -0.0255664 -2.56841e-21)
(0.0274926 -0.0242169 5.13297e-21)
(0.0145145 -0.0239708 0)
(0.00931018 -0.0164209 0)
(0.00672835 -0.0116974 0)
(0.00497742 -0.00842123 0)
(0.00379447 -0.00525575 0)
(0.00346642 -0.00210394 0)
(0.0048832 -0.000799287 9.53283e-22)
(0.0152363 -0.00317006 3.45301e-22)
(0.0161882 -0.00753904 0)
(0.0164554 -0.011037 0)
(0.0151144 -0.0150272 0)
(0.0130814 -0.0206454 0)
(0.00824651 -0.0283282 0)
(-0.00409934 -0.0362221 0)
(-0.0251797 -0.0375035 0)
(-0.0465936 -0.0405595 -2.94583e-21)
(-0.0725023 -0.0389475 6.6797e-21)
(-0.0987457 -0.0414044 -6.24158e-20)
(-0.138183 -0.0446184 -1.10522e-20)
(-0.184477 -0.0481166 8.61266e-20)
(-0.273753 -0.0463049 -1.0114e-19)
(-0.332852 0.0224793 1.3707e-19)
(-0.460589 0.0883771 -2.67505e-19)
(-0.0957886 0.147596 -4.53921e-19)
(-0.0331891 0.544291 1.43213e-20)
(-0.716762 0.82182 -9.90175e-19)
(-0.332952 0.745833 -2.00831e-18)
(0.134108 0.657316 9.80967e-19)
(0.237554 0.172607 -2.66035e-18)
(0.202588 0.0728185 -4.40381e-19)
(0.430467 0.184839 6.88682e-18)
(0.460749 0.0729235 6.83743e-19)
(0.344454 -0.0401847 -4.22975e-19)
(0.224838 -0.107575 7.38687e-20)
(0.163413 -0.0777244 -1.55615e-19)
(0.113967 -0.0653665 5.93461e-20)
(0.0853441 -0.0513157 3.63815e-20)
(0.0567243 -0.0428162 -2.32164e-21)
(0.037759 -0.036625 5.34856e-21)
(0.017892 -0.0326878 0)
(0.00714594 -0.0277606 0)
(0.000374673 -0.0199205 0)
(-0.00106459 -0.0146325 0)
(-0.00135642 -0.0104001 5.1463e-21)
(-0.00131773 -0.00704953 7.11699e-21)
(-0.00122935 -0.00240723 4.24393e-21)
(0.000255854 -0.000670365 0)
(0.0219895 -0.00354681 0)
(0.0215188 -0.00863808 0)
(0.0217762 -0.0132973 0)
(0.0211829 -0.0187885 0)
(0.0208095 -0.0245578 0)
(0.0176112 -0.0318447 0)
(0.00587504 -0.0427528 0)
(-0.0174423 -0.0490148 0)
(-0.0393825 -0.0585798 -6.86328e-24)
(-0.059343 -0.0717096 -3.0267e-21)
(-0.0871111 -0.0879511 1.31095e-20)
(-0.121053 -0.113198 2.14986e-20)
(-0.164904 -0.153813 6.51795e-20)
(-0.25273 -0.198123 -1.0182e-19)
(-0.363073 -0.175628 7.478e-19)
(-0.495977 -0.238668 3.19193e-20)
(-0.201882 -0.129265 2.3769e-19)
(-0.565999 0.214224 3.44472e-19)
(-0.465673 0.174349 1.45227e-19)
(0.0601771 -0.168589 -1.69867e-19)
(0.231126 -0.527305 -3.11825e-19)
(0.199357 -0.345619 -1.20913e-18)
(0.197298 -0.194505 6.4841e-19)
(0.266244 -0.148604 -5.08681e-19)
(0.683861 -0.21119 1.19388e-19)
(0.368634 -0.237357 2.4808e-20)
(0.171454 -0.229525 -4.06971e-20)
(0.117167 -0.138241 2.00459e-20)
(0.0768337 -0.103007 -2.48215e-21)
(0.0602615 -0.0699887 7.61297e-21)
(0.0412389 -0.050997 -1.16362e-21)
(0.0299928 -0.0388232 6.83187e-24)
(0.0130282 -0.0324648 0)
(0.00100804 -0.0255957 0)
(-0.00746776 -0.019713 0)
(-0.00670717 -0.0147202 0)
(-0.00476721 -0.0108143 0)
(-0.00357065 -0.00810647 0)
(-0.00342433 -0.00379157 0)
(-0.00226075 -0.00101642 -7.64338e-22)
(0.0258164 -0.00272395 0)
(0.0241356 -0.00713006 0)
(0.0243907 -0.0125175 0)
(0.0251604 -0.0180726 0)
(0.0266737 -0.0237657 0)
(0.025666 -0.0301917 0)
(0.0166327 -0.0416397 0)
(-0.00147071 -0.0550166 0)
(-0.0218496 -0.0708408 0)
(-0.0333715 -0.0957698 0)
(-0.0520219 -0.12605 2.30876e-21)
(-0.0685096 -0.17067 -4.67279e-21)
(-0.0973675 -0.235567 1.85756e-24)
(-0.143835 -0.333457 1.126e-20)
(-0.283093 -0.408095 1.90496e-18)
(-0.533034 -0.505245 -1.38264e-20)
(-0.606079 -0.293489 5.13358e-19)
(-0.213482 -0.525153 2.43999e-19)
(-0.150106 -0.877452 5.02168e-19)
(0.096647 -1.18869 -1.47433e-18)
(0.310434 -1.18583 1.1947e-18)
(0.238258 -1.0581 -9.50883e-19)
(-0.0945205 -0.829481 -1.24166e-19)
(0.0302673 -0.781285 2.67351e-19)
(0.819806 -0.574497 -8.09627e-19)
(0.247832 -0.46676 3.83996e-20)
(0.0209814 -0.283729 2.37734e-20)
(0.0112661 -0.16142 -1.94787e-20)
(0.0113291 -0.10752 -1.80748e-20)
(0.0200069 -0.0656999 8.82857e-22)
(0.0197382 -0.0470892 0)
(0.0179305 -0.033308 0)
(0.00666269 -0.0269717 0)
(-0.00693554 -0.0198794 0)
(-0.0144673 -0.0157214 0)
(-0.0113827 -0.0113985 0)
(-0.00748304 -0.0087922 0)
(-0.00495827 -0.00669732 0)
(-0.00378063 -0.00398435 0)
(-0.00299101 -0.00130692 0)
(0.0292052 -0.00129575 0)
(0.0285698 -0.00472288 0)
(0.0286102 -0.00935073 0)
(0.0302425 -0.013883 0)
(0.0331491 -0.0196703 0)
(0.0359602 -0.0263254 0)
(0.0318194 -0.0369202 0)
(0.0215213 -0.0539297 0)
(0.00832855 -0.074666 0)
(0.00613356 -0.10411 0)
(0.0054837 -0.140499 0)
(0.0161728 -0.197394 -2.88135e-22)
(0.022578 -0.274083 -1.93988e-21)
(0.0230254 -0.398388 1.06905e-20)
(-0.072679 -0.509873 5.37913e-19)
(-0.67985 -0.551583 3.1648e-19)
(-0.383091 -0.748338 8.51189e-19)
(0.263928 -0.983972 3.77056e-19)
(0.253722 -1.19594 3.02871e-19)
(0.196427 -1.26196 -5.30753e-19)
(0.150712 -1.13736 1.28214e-18)
(0.0102375 -1.10641 -1.79855e-19)
(-0.205466 -1.05196 -1.52103e-18)
(0.0633845 -1.06254 8.47254e-21)
(0.340864 -0.937549 1.31516e-20)
(-0.100961 -0.51541 -1.68682e-20)
(-0.173914 -0.208626 -6.86969e-20)
(-0.113166 -0.113063 -4.56164e-21)
(-0.0557763 -0.0646961 1.46467e-22)
(-0.0202865 -0.0339803 0)
(-0.00350049 -0.0241109 0)
(0.0027632 -0.0142775 0)
(-0.0036227 -0.0121176 0)
(-0.0158813 -0.00744617 0)
(-0.0203882 -0.00636086 0)
(-0.0160391 -0.0046495 0)
(-0.0113723 -0.00468563 0)
(-0.0079681 -0.00388834 0)
(-0.00650931 -0.00276357 0)
(-0.00529124 -0.0011196 0)
(0.0324131 0.000707561 0)
(0.0326045 -0.0019105 0)
(0.0340879 -0.00534326 0)
(0.0375596 -0.00952701 0)
(0.0423299 -0.015188 0)
(0.0489491 -0.0211046 0)
(0.0515595 -0.0294078 0)
(0.0495577 -0.0438847 0)
(0.0444965 -0.0636022 0)
(0.0496298 -0.085512 0)
(0.0701424 -0.1172 3.0742e-20)
(0.105522 -0.158559 0)
(0.159247 -0.220444 0)
(0.16099 -0.336779 4.80097e-21)
(-0.0156221 -0.399241 7.9263e-19)
(-0.343105 -0.589957 9.80183e-19)
(0.245515 -0.968127 2.04044e-20)
(0.168344 -0.928187 3.16728e-19)
(0.112958 -0.750377 1.06868e-18)
(0.0204809 -0.61401 5.42425e-18)
(0.0678707 -0.481578 7.57691e-20)
(0.0936484 -0.409239 -1.34595e-19)
(0.0379059 -0.5484 1.45547e-19)
(0.126513 -0.577373 2.02845e-19)
(0.0297012 -0.529891 -3.64302e-20)
(-0.706195 -0.118877 -1.59018e-19)
(-0.373412 0.00574343 -2.38262e-19)
(-0.206285 0.00761545 0)
(-0.0896498 0.0272436 0)
(-0.0381944 0.0220099 -5.05534e-22)
(-0.0108412 0.0152 0)
(-0.00329094 0.0136699 0)
(-0.00883636 0.00981117 0)
(-0.0187293 0.0103049 0)
(-0.0208701 0.00661938 0)
(-0.0171486 0.00401475 0)
(-0.0133258 0.00130078 0)
(-0.0107684 0.000392521 -8.46989e-22)
(-0.00988233 0.000104665 -6.0764e-22)
(-0.00879616 0.000280727 0)
(0.0359624 -0.000140569 0)
(0.0376704 -0.00275288 0)
(0.040438 -0.00466747 0)
(0.0444462 -0.00726197 0)
(0.0495861 -0.0105486 0)
(0.0582613 -0.0139728 0)
(0.0659524 -0.0176093 0)
(0.069579 -0.0235477 0)
(0.0709635 -0.0344979 0)
(0.078247 -0.0367172 0)
(0.111697 -0.0487738 -6.3615e-20)
(0.168363 -0.0605542 0)
(0.258205 -0.0793274 0)
(0.320596 -0.103555 -3.72566e-20)
(0.271827 -0.251628 -5.90655e-19)
(0.166827 -0.346091 4.47978e-21)
(0.00278964 -0.200016 0)
(-0.15425 0.0504366 -1.68347e-19)
(-0.0799034 0.157007 -4.66171e-19)
(-0.139436 0.453852 -1.90526e-19)
(-0.0762485 0.34641 4.18944e-18)
(0.0957969 0.440175 3.18249e-18)
(0.25642 0.349212 -8.8423e-20)
(0.274498 0.357689 0)
(-0.258998 0.4884 2.36546e-19)
(-0.731342 0.438682 1.78342e-21)
(-0.436967 0.312942 4.98982e-20)
(-0.181971 0.194202 0)
(-0.0597122 0.145469 0)
(-0.0159087 0.090215 2.19088e-20)
(0.00422698 0.0606594 0)
(0.00460525 0.0428694 0)
(-0.00320517 0.0313424 0)
(-0.0131815 0.0262111 0)
(-0.0150772 0.0183291 0)
(-0.0132252 0.0127275 1.53232e-21)
(-0.0107576 0.00856717 -1.99123e-21)
(-0.00907881 0.00590255 0)
(-0.00883725 0.00318236 0)
(-0.00880378 0.00136014 -4.67931e-21)
(0.0372128 -0.00151688 0)
(0.0393673 -0.00331955 0)
(0.0426233 -0.00455942 0)
(0.0464522 -0.00597254 0)
(0.0512335 -0.00658146 0)
(0.059158 -0.00636111 0)
(0.0679417 -0.0037599 -7.53455e-22)
(0.0708551 0.00241233 0)
(0.0712365 0.00631103 0)