/*--------------------------------*- C++ -*----------------------------------*\
| =========                 |                                                 |
| \\      /  F ield         | OpenFOAM: The Open Source CFD Toolbox           |
|  \\    /   O peration     | Version:  v2106                                 |
|   \\  /    A nd           | Website:  www.openfoam.com                      |
|    \\/     M anipulation  |                                                 |
\*---------------------------------------------------------------------------*/
FoamFile
{
    version     2.0;
    format      ascii;
    arch        "LSB;label=32;scalar=64";
    class       volScalarField;
    location    "0";
    object      p;
}
// * * * * * * * * * * * * * * * * * * * * * * * * * * * * * * * * * * * * * //

dimensions      [0 2 -2 0 0 0 0];

internalField   nonuniform List<scalar> 
11644
(
0.0613267
0.0617312
0.0625827
0.0638916
0.0656539
0.0678679
0.0705322
0.0736392
0.0771676
0.0810773
0.0853065
0.089763
0.0943202
0.0988127
0.10304
0.106819
0.109906
0.112075
0.113161
0.113095
0.111909
0.109612
0.10621
0.101824
0.0967389
0.0912435
0.0855527
0.0798491
0.0743208
0.0691063
0.0642975
0.0599604
0.0561309
0.0528188
0.0500215
0.0477272
0.0459211
0.0445905
0.0437292
0.0433192
0.0606169
0.0610176
0.0618474
0.0631239
0.0648547
0.0670458
0.0697016
0.0728207
0.0763903
0.0803822
0.0847479
0.0894008
0.0942174
0.0990407
0.103664
0.10782
0.111281
0.113791
0.115149
0.115206
0.113911
0.111341
0.107662
0.102983
0.0975112
0.0915609
0.0854591
0.0794361
0.0736545
0.0682676
0.0633661
0.0589903
0.0551588
0.0518712
0.0491138
0.0468683
0.0451134
0.0438291
0.0429969
0.0425944
0.0590719
0.0594847
0.0603058
0.0615484
0.0632352
0.065387
0.06802
0.0711482
0.0747813
0.0789186
0.0835336
0.08858
0.0939615
0.0994987
0.104953
0.110033
0.114396
0.117742
0.119736
0.1201
0.118627
0.115446
0.110875
0.105237
0.0988395
0.0919905
0.0850551
0.0783696
0.0721357
0.0664603
0.0613997
0.0569739
0.0531637
0.049942
0.0472736
0.0451225
0.0434536
0.0422337
0.0414325
0.0410331
0.0567225
0.0571293
0.0579329
0.0591362
0.0607653
0.0628552
0.0654417
0.0685633
0.0722608
0.0765729
0.0815364
0.0871472
0.0933168
0.0999111
0.106724
0.113337
0.119256
0.124164
0.127333
0.12824
0.126605
0.12253
0.116432
0.108914
0.100762
0.0923561
0.0841206
0.0764431
0.0695352
0.0634881
0.0582693
0.0538238
0.0500932
0.0470043
0.0444893
0.0424866
0.040944
0.039817
0.0390707
0.0386945
0.053622
0.0540021
0.0547543
0.0558846
0.0574212
0.0594068
0.0618966
0.0649589
0.0686748
0.0731368
0.0784263
0.0845872
0.0916751
0.0996586
0.108373
0.117342
0.125735
0.133434
0.138664
0.140606
0.138762
0.133242
0.124689
0.114182
0.103305
0.0924097
0.0822397
0.07322
0.0654912
0.0590392
0.0537407
0.0494038
0.0458746
0.0430312
0.0407649
0.0389887
0.0376342
0.0366485
0.0360001
0.0356742
0.0498371
0.0501666
0.0508259
0.0518313
0.0532119
0.0550164
0.0573143
0.0602013
0.063799
0.0682256
0.0736033
0.0801488
0.0881001
0.0976532
0.108993
0.121578
0.134027
0.146058
0.154997
0.159148
0.157062
0.148839
0.136053
0.120615
0.105564
0.0911151
0.0784011
0.0678935
0.0594355
0.052748
0.0475494
0.0435407
0.0404314
0.0380072
0.0361285
0.0346886
0.0336102
0.0328386
0.0323349
0.0320869
0.0454587
0.045713
0.046236
0.0470427
0.0481735
0.0496792
0.0516368
0.0541535
0.0573596
0.0613926
0.0665075
0.0730475
0.0814221
0.0923945
0.106733
0.123861
0.137088
0.154217
0.169168
0.178605
0.179009
0.169472
0.152553
0.132264
0.105711
0.0862937
0.0707049
0.0589561
0.0504491
0.0441167
0.0394806
0.0361362
0.0337376
0.0319763
0.0306692
0.0297044
0.0290016
0.0285108
0.0281969
0.028038
0.0405738
0.0407508
0.0410948
0.0416348
0.0424027
0.0434523
0.0448592
0.0467299
0.0491703
0.0523563
0.0566204
0.0624398
0.0703577
0.0812158
0.0963209
0.1154
0.141558
0.170216
0.198172
0.217359
0.21963
0.202934
0.173182
0.139823
0.107669
0.0824897
0.0645915
0.0449822
0.0375237
0.0325858
0.0293487
0.0272302
0.0259027
0.025082
0.024547
0.0241993
0.0239754
0.0238306
0.0237467
0.0237106
0.0353749
0.0354263
0.0355442
0.0357405
0.0360321
0.0364639
0.0370921
0.0379969
0.039246
0.041034
0.0436326
0.04741
0.0529878
0.0660179
0.0800711
0.102232
0.131444
0.17607
0.225062
0.268009
0.28089
0.253218
0.200759
0.144941
0.10012
0.0631723
0.0443982
0.0242629
0.0201956
0.0180512
0.0171621
0.0169798
0.0171725
0.0175742
0.0180091
0.0184098
0.0187524
0.0190192
0.0191938
0.0192742
0.0300189
0.0299485
0.0298099
0.0295877
0.0293059
0.0289715
0.0286124
0.0282391
0.0278475
0.0275431
0.0274726
0.0277738
0.02834
0.0385076
0.0465804
0.0673064
0.0992444
0.154297
0.242528
0.348339
0.39554
0.332411
0.217231
0.123636
0.0590514
0.0196372
0.00893789
-0.00321495
-0.00127151
0.000963604
0.00345209
0.00585093
0.00798451
0.00985179
0.0114036
0.0126408
0.0135923
0.0142856
0.0147331
0.014957
0.0247189
0.0245318
0.0241038
0.0234508
0.0225422
0.0213467
0.0198423
0.017945
0.0155489
0.0125304
0.00872153
0.00408237
-0.00181691
-0.000385338
-0.00409775
-0.00150505
0.00848261
0.0341213
0.133662
0.381321
0.590343
0.372508
0.11418
-0.00249657
-0.0417393
-0.050402
-0.0405174
-0.0358275
-0.0255722
-0.0172591
-0.0105757
-0.00522833
-0.000948142
0.00246379
0.00515611
0.00723807
0.00880619
0.00991981
0.0106358
0.01097
0.0198647
0.0194866
0.0187568
0.0176427
0.016091
0.0140294
0.011337
0.00783669
0.00331508
-0.00258012
-0.0104031
-0.0207369
-0.0343442
-0.0400203
-0.0640063
-0.0865002
-0.131991
-0.234534
-0.513604
-0.530821
-0.291132
-0.189618
-0.13427
-0.0940601
-0.0683035
-0.0484117
-0.0338865
-0.0231172
-0.0149621
-0.00871509
-0.00392268
-0.000227485
0.0025865
0.00468431
0.00616394
0.00710885
0.00756167
0.0155679
0.0150624
0.0140785
0.0125517
0.0104177
0.00756179
0.00379203
-0.00113627
-0.00753416
-0.0159094
-0.0270094
-0.041976
-0.0619257
-0.076191
-0.113026
-0.153603
-0.227375
-0.371404
-0.523878
-0.710974
-0.493357
-0.302202
-0.196064
-0.135054
-0.0893616
-0.0638212
-0.0454621
-0.0319373
-0.0218808
-0.0143301
-0.00862024
-0.00426013
-0.000959344
0.00147975
0.00321415
0.00433462
0.00494414
0.0119843
0.0113776
0.0101905
0.00837089
0.00581354
0.00238709
-0.00213931
-0.00804098
-0.0156434
-0.0255797
-0.0385907
-0.0559575
-0.078744
-0.0989651
-0.138625
-0.182085
-0.245179
-0.325007
-0.348835
-0.607193
-0.498239
-0.322289
-0.205275
-0.14415
-0.0921248
-0.0676097
-0.049078
-0.0351972
-0.0248365
-0.0170218
-0.0111031
-0.00658202
-0.00312811
-0.000569066
0.00126191
0.0024573
0.00299915
0.00906915
0.00849478
0.00724791
0.00530676
0.00257553
-0.00108325
-0.00587992
-0.0120908
-0.0200647
-0.0303851
-0.043832
-0.0614339
-0.0840392
-0.10648
-0.146078
-0.191357
-0.251707
-0.317073
-0.313571
-0.381447
-0.451658
-0.595053
-0.635529
-0.433414
-0.258995
-0.161848
-0.118887
-0.0775391
-0.0589716
-0.0441185
-0.0324754
-0.0235291
-0.0165654
-0.0112012
-0.00705232
-0.00384912
-0.00146194
0.000248131
0.00135982
0.00188666
0.0071843
0.00668825
0.0055225
0.0036573
0.00101584
-0.00250808
-0.00705574
-0.0128898
-0.0203486
-0.0299066
-0.0421359
-0.0579632
-0.0785039
-0.101622
-0.140034
-0.195423
-0.269719
-0.399257
-0.512235
-0.608258
-0.597482
-0.489503
-0.31133
-0.165582
-0.118456
-0.0818934
-0.0705083
-0.0485548
-0.0397889
-0.0319203
-0.0247793
-0.0185723
-0.0133692
-0.00914912
-0.00575065
-0.0030975
-0.00111892
0.000286874
0.00120255
0.00175731
0.00668072
0.00619234
0.00515543
0.00353836
0.00126253
-0.00174837
-0.00560306
-0.010532
-0.016736
-0.0244804
-0.0342487
-0.0469597
-0.0635605
-0.086282
-0.118314
-0.168816
-0.244518
-0.385909
-0.600575
-0.738197
-0.686118
-0.387593
-0.0481758
0.0637692
0.0296946
-0.00136611
-0.0121553
-0.0150784
-0.0166352
-0.015932
-0.0137825
-0.0109821
-0.00811169
-0.00536494
-0.00297533
-0.0010386
0.000476783
0.00158985
0.00230228
0.00248581
0.00736369
0.00692751
0.00610168
0.00486159
0.00313847
0.000886112
-0.00194352
-0.00548016
-0.00985252
-0.0151608
-0.0216973
-0.0301869
-0.0414197
-0.0564893
-0.0843682
-0.117543
-0.172492
-0.25516
-0.391028
-0.520339
-0.506345
-0.281019
-0.0111188
0.126524
0.0843625
0.04222
0.0180979
0.00741393
0.000903271
-0.00192064
-0.0029433
-0.00278673
-0.00187128
-0.000567122
0.000753506
0.00192411
0.00290998
0.00364014
0.00408143
0.00422631
0.00895554
0.00866841
0.00812385
0.00731412
0.00623038
0.00486427
0.00324178
0.00139151
-0.000773272
-0.00333127
-0.00637142
-0.0101697
-0.0156543
-0.0227968
-0.0427386
-0.0594019
-0.094657
-0.134961
-0.19336
-0.253416
-0.257037
-0.17251
-0.0375336
0.0555454
0.04508
0.0342908
0.0221126
0.0129962
0.00871696
0.00614637
0.00460026
0.00397898
0.0039614
0.00429246
0.00475375
0.00524106
0.00568429
0.00601741
0.0062615
0.00645607
0.0111384
0.0110166
0.0107585
0.0103777
0.00992028
0.00941622
0.00894537
0.00862912
0.008495
0.00852831
0.00876247
0.00920334
0.00939085
0.00869768
-0.00330479
-0.0125432
-0.0364883
-0.070545
-0.122433
-0.183067
-0.222354
-0.207137
-0.144534
-0.0798391
-0.0349112
-0.00321092
0.00797141
0.00828793
0.00934621
0.00931791
0.00900664
0.00878009
0.00860944
0.00848846
0.00847244
0.00854061
0.00864218
0.00875322
0.00888087
0.00900126
0.013574
0.0135365
0.0135038
0.0135087
0.013592
0.0138212
0.0142633
0.0150282
0.0163192
0.0183283
0.0211629
0.024815
0.0294526
0.0330062
0.0263494
0.0214669
0.00178138
-0.0396311
-0.119168
-0.230697
-0.322831
-0.344845
-0.296845
-0.203946
-0.0949436
-0.03396
-0.00631088
0.00296913
0.00861336
0.0110295
0.0119758
0.01229
0.0122272
0.0120458
0.0118915
0.0117901
0.0117309
0.0117076
0.0117119
0.0117196
0.0159633
0.0159965
0.0161432
0.0164335
0.01691
0.017663
0.0187678
0.0203111
0.0225162
0.0257185
0.0300735
0.035792
0.0434308
0.0505202
0.0532986
0.0436905
0.0174275
-0.0434307
-0.147943
-0.277351
-0.365522
-0.366526
-0.294409
-0.185394
-0.0909992
-0.0281797
-0.00816463
0.0043337
0.010705
0.0137838
0.0151377
0.0156243
0.0156379
0.0154591
0.0152109
0.0149679
0.0147687
0.0146172
0.0145154
0.0144623
0.0181111
0.0182479
0.0185296
0.0190028
0.0197121
0.0207496
0.0222235
0.0242372
0.0269426
0.0305774
0.035255
0.0411021
0.0487896
0.0569938
0.0534717
0.0345756
-0.00249888
-0.0577756
-0.121008
-0.170654
-0.185674
-0.167008
-0.124676
-0.0742211
-0.0369202
-0.0133756
0.00253156
0.0117022
0.0162034
0.0184253
0.0192699
0.0194237
0.0192274
0.0188618
0.0184194
0.0179855
0.0176131
0.017319
0.0171192
0.017041
0.0199127
0.0201028
0.0204624
0.0210231
0.0218222
0.0229245
0.0244096
0.0263886
0.0289338
0.0321706
0.0361388
0.0401626
0.0443662
0.0472275
0.0384519
0.0159399
-0.0226831
-0.0703919
-0.110165
-0.12631
-0.116478
-0.0934711
-0.0610291
-0.0289561
-0.00727297
0.00624647
0.0154505
0.020517
0.0230419
0.0239479
0.0238933
0.0233788
0.0226871
0.0219625
0.0212765
0.0206672
0.0201626
0.0197676
0.0194832
0.019339
0.0214042
0.0215929
0.0219495
0.0224886
0.0232252
0.0241907
0.0253899
0.0268425
0.0285924
0.0304832
0.0323933
0.0331273
0.0312925
0.0245416
0.00726173
-0.0206046
-0.0549115
-0.0910916
-0.116382
-0.120337
-0.104142
-0.0730225
-0.0389456
-0.0119167
0.00620432
0.0180019
0.0249298
0.0283299
0.0294218
0.029162
0.0282223
0.0270005
0.0257368
0.0246018
0.0236496
0.0228842
0.022288
0.0218527
0.0215525
0.0213374
0.022616
0.0227824
0.0230863
0.0235304
0.0241098
0.0248066
0.0255942
0.0263748
0.0270557
0.027315
0.0266422
0.024314
0.0168996
0.00300125
-0.0234137
-0.058202
-0.101506
-0.142763
-0.169057
-0.169464
-0.144283
-0.101024
-0.0553066
-0.0191824
0.00667019
0.0228685
0.0311763
0.0341392
0.034456
0.0333684
0.0317011
0.0299081
0.0282193
0.0267643
0.0255853
0.0246546
0.0239368
0.0234232
0.0230986
0.0229413
0.0235923
0.0237089
0.0239383
0.0242604
0.024662
0.0250931
0.0255007
0.0257936
0.0256372
0.0249235
0.0225234
0.017875
0.0079829
-0.00933966
-0.0405906
-0.0818045
-0.138058
-0.184336
-0.221725
-0.221189
-0.181546
-0.129131
-0.0728157
-0.0303584
0.00181692
0.0232302
0.0342789
0.0379121
0.0376979
0.0358949
0.0338198
0.0317382
0.029881
0.0283156
0.0270286
0.0259979
0.0252022
0.0246317
0.0242759
0.0242274
0.0244177
0.0244863
0.0246453
0.0248704
0.0251441
0.0254123
0.025609
0.0256236
0.0251992
0.0240081
0.0212058
0.0160248
0.00590204
-0.0112299
-0.0405054
-0.0782258
-0.124318
-0.167006
-0.20232
-0.206688
-0.16706
-0.12122
-0.0709497
-0.0311681
-0.00120518
0.0197174
0.0319372
0.0380482
0.0386703
0.0366079
0.034519
0.0324799
0.0307041
0.0292142
0.0279758
0.0269852
0.0262387
0.0257268
0.0254191
0.0253089
0.0250887
0.0251522
0.0253075
0.0255174
0.0257521
0.0259646
0.02609
0.0260408
0.025652
0.0246598
0.0225325
0.0184375
0.0110094
-0.00162657
-0.0233172
-0.0519218
-0.0827414
-0.113888
-0.137944
-0.145023
-0.127924
-0.101132
-0.0677333
-0.0341435
-0.00697315
0.0138849
0.0275856
0.0349956
0.0368661
0.0357359
0.0340181
0.0323272
0.030808
0.0295049
0.0284192
0.0275618
0.0269172
0.026462
0.02616
0.0259695
0.0256294
0.0257464
0.0259007
0.026105
0.0263329
0.0265594
0.0267335
0.0267865
0.0266303
0.0261011
0.024922
0.0227393
0.0185041
0.0112642
-0.00163292
-0.021724
-0.0444225
-0.0688506
-0.0870942
-0.0982327
-0.100829
-0.0909016
-0.0686181
-0.0412704
-0.0156369
0.00544222
0.0201611
0.0284902
0.0321198
0.0326566
0.0320462
0.0311122
0.0300423
0.0290436
0.0281887
0.0274914
0.0269412
0.026531
0.0262532
0.0260996
0.0260104
0.0261329
0.0262796
0.0264741
0.0267109
0.0269915
0.0272939
0.0275731
0.0277829
0.0277986
0.0273822
0.0262069
0.0235678
0.0186093
0.0106423
-0.00302501
-0.0221338
-0.0446172
-0.0651991
-0.0815222
-0.08919
-0.0860555
-0.0706315
-0.04966
-0.0283355
-0.00929664
0.00634492
0.0180167
0.0247731
0.0276234
0.0287003
0.0288072
0.0284363
0.0279326
0.0274192
0.0269462
0.0265439
0.0262365
0.0260372
0.0259618
0.026159
0.0261946
0.0263453
0.0265753
0.0268801
0.0272609
0.0277269
0.0282808
0.0288739
0.0294051
0.0295685
0.0289981
0.0269386
0.0222962
0.0140968
0.000870358
-0.0193679
-0.0441659
-0.070551
-0.0929839
-0.101073
-0.100923
-0.0897131
-0.0718942
-0.0504934
-0.0280049
-0.00824626
0.00725097
0.0171195
0.0223168
0.0249638
0.0261179
0.0265557
0.026635
0.0265294
0.0263372
0.0261255
0.0259403
0.0258036
0.025737
0.0262005
0.0261785
0.0263054
0.0265459
0.0269034
0.0273661
0.0279466
0.0286579
0.0294612
0.0304002
0.0310531
0.031069
0.0290872
0.0237113
0.0132483
-0.00281981
-0.0255143
-0.0533936
-0.0866528
-0.115991
-0.132571
-0.132739
-0.118584
-0.09891
-0.0717404
-0.0427687
-0.0184474
-0.00021356
0.0115426
0.0181465
0.0218837
0.0238342
0.0249066
0.0254491
0.0256694
0.0257208
0.0256874
0.0256141
0.0255324
0.0254347
0.0261741
0.0262024
0.02631
0.0265124
0.0268381
0.0272908
0.0278614
0.0285581
0.029373
0.0302309
0.0310415
0.0310153
0.0283044
0.0225431
0.0116959
-0.00472
-0.0273537
-0.0553112
-0.0893872
-0.12052
-0.143543
-0.141939
-0.124464
-0.101823
-0.071561
-0.0428856
-0.0198115
-0.00237592
0.00912387
0.0159979
0.0201249
0.0224286
0.0237787
0.0244958
0.0248672
0.0250514
0.0251322
0.0251354
0.0251095
0.0250319
0.025857
0.0259523
0.0260941
0.0262908
0.0265696
0.0269421
0.0274148
0.0279795
0.0286277
0.0293033
0.0296458
0.0286132
0.0249546
0.018139
0.00749768
-0.00782644
-0.0279788
-0.0524615
-0.078969
-0.100956
-0.117312
-0.113633
-0.0975794
-0.0768055
-0.0520884
-0.0306921
-0.0129403
0.00108845
0.0106247
0.0165644
0.0201374
0.0221634
0.0233348
0.0239929
0.0243612
0.0245516
0.0246305
0.0246406
0.0246286
0.0246239
0.025222
0.0253195
0.025446
0.0256157
0.0258359
0.0261108
0.0264464
0.0268037
0.0271123
0.0272801
0.0268202
0.0248613
0.0203381
0.0120075
-7.29723e-05
-0.0153248
-0.0330931
-0.0527405
-0.0695899
-0.079572
-0.0814218
-0.0756198
-0.0640129
-0.0474568
-0.030266
-0.0146409
-0.00103133
0.00903703
0.0152965
0.0190552
0.0212953
0.0226339
0.0234438
0.0239235
0.0241879
0.0243171
0.0243653
0.0243679
0.0243638
0.024366
0.0244559
0.0244769
0.0245307
0.0246235
0.0247457
0.0248764
0.0249912
0.0250208
0.0247886
0.0240801
0.0224194
0.0188831
0.0129274
0.00391751
-0.00801669
-0.0223537
-0.0379127
-0.0535037
-0.06501
-0.067588
-0.0626039
-0.0538494
-0.0416568
-0.026498
-0.0122901
0.000342028
0.00994406
0.0161352
0.0196713
0.0216617
0.0227876
0.0234419
0.0238325
0.0240616
0.024171
0.0242168
0.0242317
0.0242267
0.0242126
0.0241782
0.02367
0.0236339
0.0236388
0.0236552
0.0236569
0.0235903
0.0234037
0.0229948
0.0221499
0.0204835
0.0174412
0.0119609
0.00369595
-0.00707244
-0.0197513
-0.0336143
-0.0470097
-0.059556
-0.0675988
-0.068072
-0.0627394
-0.0501857
-0.0343543
-0.0175762
-0.00271132
0.00869343
0.0163341
0.0206438
0.0228433
0.0238545
0.0242632
0.0243169
0.0242634
0.0241748
0.0240881
0.0240104
0.0239511
0.0239059
0.0238718
0.0238576
0.0229273
0.0229263
0.0229152
0.0228655
0.0227418
0.0224845
0.0220117
0.0211989
0.0198342
0.0174933
0.0134155
0.00641805
-0.00411123
-0.0181558
-0.034854
-0.0515573
-0.0660962
-0.0776715
-0.0854121
-0.0846888
-0.075455
-0.0578092
-0.0367734
-0.0177595
-0.00159787
0.0103953
0.0185781
0.0230302
0.0250253
0.0255682
0.0253374
0.0249237
0.024498
0.0241398
0.0238665
0.0236627
0.0235151
0.0234231
0.0233862
0.023438
0.0222294
0.0222891
0.0222516
0.022135
0.0219229
0.0215467
0.0209154
0.019926
0.0182665
0.015511
0.0110106
0.0037654
-0.00742604
-0.0227235
-0.0419834
-0.0612366
-0.0795305
-0.0922497
-0.102026
-0.101736
-0.0852966
-0.0629186
-0.0390372
-0.0190288
-0.00241271
0.00991021
0.0185218
0.02321
0.0254664
0.0259254
0.0254254
0.0248932
0.0243255
0.0238799
0.0235365
0.0232818
0.0231084
0.0230166
0.0229918
0.0230367
0.0215115
0.0215536
0.0215054
0.0213886
0.0211676
0.0207944
0.0201921
0.0192548
0.017679
0.0151003
0.0108863
0.00432034
-0.00530073
-0.0180441
-0.0341528
-0.0523352
-0.0706607
-0.0843124
-0.0951429
-0.0956092
-0.0792693
-0.059741
-0.0382997
-0.0195058
-0.00376228
0.00809587
0.0162129
0.0208903
0.0235382
0.0245957
0.0244827
0.0241486
0.0237024
0.0233431
0.0230578
0.0228465
0.0227007
0.0226125
0.0225596
0.0225237
0.0209075
0.0208738
0.0208343
0.0207564
0.0206022
0.0203293
0.019878
0.0191691
0.0180139
0.0161247
0.0129908
0.00809619
0.000799369
-0.00871592
-0.0201255
-0.0335885
-0.0476869
-0.0597357
-0.0680804
-0.0708446
-0.0645706
-0.0530419
-0.038564
-0.0229179
-0.00931972
0.00188522
0.0103778
0.0164083
0.0201569
0.0220329
0.0226931
0.0227317
0.0225546
0.0223878
0.0222276
0.0220991
0.0219993
0.0219206
0.0218518
0.021789
0.020525
0.0205074
0.020475
0.0204192
0.0203205
0.0201525
0.01988
0.0194509
0.0187904
0.0177325
0.0159647
0.0130851
0.0083663
0.00151907
-0.00687045
-0.0169027
-0.0275238
-0.0378421
-0.0456997
-0.0508391
-0.0527289
-0.0488298
-0.0396662
-0.0277236
-0.0159975
-0.00534653
0.00371394
0.010797
0.0155619
0.018399
0.0199253
0.0205824
0.0208752
0.0209851
0.020989
0.0209755
0.020955
0.0209407
0.0209311
0.020911
0.0201973
0.0202154
0.0202106
0.0201877
0.020149
0.0200949
0.0200078
0.0198684
0.0196518
0.0192542
0.0184951
0.0171061
0.0145315
0.00999984
0.00321893
-0.00584918
-0.016375
-0.0275303
-0.0373678
-0.0445983
-0.0478096
-0.0475563
-0.0417128
-0.0323607
-0.0222904
-0.0123813
-0.00347651
0.0038632
0.00961045
0.0138511
0.0165514
0.0180783
0.0189587
0.0194152
0.0196498
0.0197783
0.0198482
0.0198985
0.0199438
0.0200008
0.0197535
0.0197397
0.0197516
0.0197787
0.0198272
0.0199048
0.0200152
0.0201652
0.0203481
0.0205033
0.0204751
0.0199055
0.0182343
0.014758
0.00841594
-0.000723649
-0.0124786
-0.0255693
-0.0383901
-0.0487919
-0.053437
-0.0550211
-0.0510345
-0.0431894
-0.0337174
-0.0233879
-0.013131
-0.00381246
0.00391476
0.00973816
0.0135476
0.0158459
0.0172093
0.0180041
0.018488
0.0187772
0.0189382
0.0190298
0.0190859
0.0191458
0.0192695
0.0192091
0.0192145
0.01927
0.0193816
0.019554
0.0198
0.0201441
0.0205836
0.0210609
0.0215056
0.02119
0.0195036
0.016231
0.0100844
0.00121676
-0.0108678
-0.0249893
-0.0413031
-0.0559101
-0.0670571
-0.0692976
-0.0647401
-0.0571769
-0.0462667
-0.034062
-0.0212531
-0.00929152
0.000151874
0.00700088
0.0114898
0.0141865
0.0158602
0.0168818
0.0175605
0.0179825
0.0182357
0.0183723
0.0184301
0.0184134
0.0187873
0.0187651
0.0187752
0.0188283
0.0189423
0.0191221
0.0193775
0.0197168
0.0201327
0.0205373
0.0210327
0.0204926
0.0187315
0.0156282
0.00985951
0.00133776
-0.0101012
-0.0240898
-0.0406138
-0.0565385
-0.0708571
-0.0736596
-0.0678783
-0.0596552
-0.0476024
-0.0339353
-0.0206669
-0.00898596
-0.000260343
0.00624659
0.0106444
0.0133535
0.0150371
0.0161452
0.0168523
0.0173004
0.0175721
0.017724
0.0177937
0.0177344
0.0181749
0.0182101
0.0182537
0.0183085
0.0183877
0.0185
0.0186572
0.018845
0.019066
0.0191079
0.0188066
0.0176776
0.0154396
0.011689
0.00583177
-0.00233701
-0.0126404
-0.0246931
-0.0377754
-0.0495011
-0.0585568
-0.0593894
-0.053912
-0.0458172
-0.0347148
-0.0233931
-0.0128086
-0.00411501
0.00253372
0.00772457
0.0112862
0.013524
0.0149351
0.0158062
0.0163594
0.0167056
0.0169149
0.0170257
0.0170782
0.0170823
0.0173946
0.01743
0.0174504
0.0174629
0.0174722
0.0174768
0.0174661
0.0174124
0.017267
0.016824
0.0157211
0.0136074
0.0101188
0.00514531
-0.00131468
-0.0091563
-0.0180625
-0.0273899
-0.0356489
-0.0413442
-0.0424058
-0.0398459
-0.0344043
-0.0271967
-0.0189419
-0.0108439
-0.00364896
0.00231957
0.0072276
0.0107838
0.0130064
0.0143934
0.0152464
0.0157846
0.0161251
0.0163369
0.016461
0.0165314
0.0165746
0.0166184
0.0165368
0.0165113
0.0164635
0.016403
0.0163235
0.0162033
0.0159978
0.0156245
0.01497
0.0138399
0.0118876
0.00887151
0.00461556
-0.00098635
-0.00782789
-0.0153822
-0.0231714
-0.0302146
-0.0347987
-0.035947
-0.033984
-0.0289647
-0.0224573
-0.0150953
-0.00772589
-0.00106208
0.00445298
0.00876274
0.0118382
0.0136853
0.0147817
0.0153862
0.0157475
0.0159795
0.0161279
0.0162227
0.0162846
0.0163228
0.0163435
0.0163453
0.0156958
0.0156144
0.0155347
0.0154332
0.0152839
0.0150395
0.0146367
0.0139485
0.0127905
0.0108775
0.00791486
0.00375975
-0.00148188
-0.00783767
-0.0151087
-0.0227293
-0.0299122
-0.0356783
-0.038229
-0.0366727
-0.0335024
-0.0270528
-0.0186849
-0.00976468
-0.00137996
0.00538909
0.0103767
0.0135743
0.0152647
0.0159597
0.01621
0.016227
0.0161945
0.0161483
0.0161124
0.0160844
0.0160702
0.0160604
0.016049
0.0160319
0.0149642
0.0149185
0.0148491
0.0147265
0.0145081
0.0141408
0.0135562
0.0126166
0.0110965
0.00861538
0.00471137
-0.000795835
-0.00793839
-0.0163458
-0.0252002
-0.0336931
-0.0410159
-0.0461477
-0.0480556
-0.0447515
-0.0373206
-0.0279389
-0.0170897
-0.00651003
0.00240698
0.00906937
0.0136064
0.0160775
0.0172729
0.01747
0.0171163
0.0167162
0.0163551
0.0160744
0.0158718
0.0157307
0.0156404
0.0155904
0.0155732
0.0156025
0.0143639
0.0144014
0.0143363
0.0141853
0.0139091
0.0134627
0.0127717
0.0117123
0.0100198
0.00736376
0.00319796
-0.00284794
-0.0109463
-0.0206788
-0.031022
-0.0406325
-0.0488457
-0.0542031
-0.0562728
-0.0519614
-0.0403942
-0.0278266
-0.0150363
-0.0039087
0.00453321
0.0106553
0.0146142
0.016557
0.0176257
0.017749
0.0171403
0.0166424
0.0161259
0.0157585
0.015482
0.0152922
0.0151736
0.0151192
0.0151145
0.0151644
0.0137959
0.0138423
0.0137827
0.0136493
0.0133956
0.0129893
0.012347
0.0113921
0.00983248
0.00743262
0.0037924
-0.00126479
-0.00797172
-0.016576
-0.0261941
-0.0355062
-0.0441288
-0.04964
-0.0518623
-0.0482261
-0.0381827
-0.0265297
-0.0149094
-0.00502178
0.00278563
0.00863311
0.012558
0.0147599
0.0159609
0.0163316
0.0161455
0.0158776
0.0155171
0.015234
0.0150106
0.0148593
0.0147631
0.0147141
0.0146929
0.0146909
0.0132946
0.013271
0.0132312
0.0131507
0.0129981
0.0127369
0.0123148
0.0116313
0.0105415
0.00882896
0.00618898
0.00251994
-0.00203725
-0.00795077
-0.0148761
-0.0220344
-0.0289809
-0.0340901
-0.0371088
-0.0367464
-0.0326677
-0.0254743
-0.0175818
-0.0101179
-0.00321483
0.00257729
0.00705127
0.0102112
0.0123008
0.0135873
0.0142082
0.014407
0.0143959
0.0143279
0.014261
0.0142128
0.0141734
0.0141398
0.0141043
0.0140681
0.0129941
0.0129641
0.0129361
0.0128965
0.0128249
0.0127029
0.0125011
0.0121795
0.011644
0.0107577
0.00926236
0.00693386
0.00391579
0.000126847
-0.00450708
-0.00969824
-0.0151617
-0.02008
-0.0242987
-0.0271264
-0.0274301
-0.0251894
-0.0211706
-0.0157351
-0.00974161
-0.00418024
0.000816239
0.00487114
0.00798623
0.0101949
0.0115752
0.012344
0.0127576
0.0129981
0.0131345
0.0132166
0.0132721
0.0133094
0.0133283
0.0133185
0.0128021
0.0128173
0.0128204
0.0128196
0.0128112
0.0128003
0.0127731
0.0127331
0.0126286
0.0123943
0.0118569
0.0108242
0.00899436
0.00624052
0.0024485
-0.00236805
-0.0080463
-0.0137471
-0.0191703
-0.0234863
-0.0254979
-0.0263958
-0.0248904
-0.02096
-0.015534
-0.0100381
-0.00469989
-4.52027e-05
0.00369693
0.00659318
0.00873082
0.0101592
0.011062
0.0116192
0.0119524
0.0121586
0.012297
0.0124004
0.0124811
0.012542
0.0125147
0.0125279
0.012554
0.0125954
0.0126566
0.0127504
0.0128833
0.0130682
0.0132915
0.0135389
0.0137131
0.0135383
0.0125496
0.0105544
0.00717312
0.00234908
-0.00390087
-0.0110093
-0.0180216
-0.0239799
-0.0286106
-0.0318688
-0.0318136
-0.0287573
-0.0236362
-0.0177132
-0.0114859
-0.00567086
-0.000658454
0.00335694
0.00634703
0.00840914
0.00973067
0.0105388
0.0110342
0.0113424
0.0115346
0.0116589
0.0117479
0.0118304
0.0121312
0.0120987
0.0121178
0.0121765
0.0122874
0.0124581
0.0127057
0.0130508
0.0134938
0.0140086
0.0145616
0.0147762
0.0143154
0.0131656
0.0106261
0.00645597
0.000542784
-0.00789654
-0.0171216
-0.0261709
-0.0342014
-0.0395663
-0.0400244
-0.0368878
-0.0318324
-0.0251673
-0.0178059
-0.010528
-0.00402109
0.00105371
0.0047248
0.00722179
0.00879833
0.00975981
0.0103836
0.010789
0.0110377
0.0111769
0.0112463
0.0112619
0.0117436
0.0117107
0.0117184
0.0117677
0.0118768
0.0120541
0.012312
0.0126574
0.0131183
0.0135885
0.0141552
0.0143615
0.0140626
0.0131783
0.0110526
0.0072692
0.00173444
-0.00632371
-0.0159737
-0.0258282
-0.0346225
-0.0410013
-0.0414791
-0.0378963
-0.0326588
-0.0255624
-0.0179737
-0.010561
-0.00413776
0.000738657
0.00431098
0.00674572
0.00825682
0.00928078
0.0099477
0.0103596
0.0106302
0.0107831
0.010846
0.0107971
0.0112898
0.011304
0.0113285
0.0113696
0.011439
0.011545
0.0116992
0.0118913
0.0121056
0.0122394
0.0122279
0.0118501
0.0109753
0.00939142
0.00678912
0.00295682
-0.00213232
-0.00838197
-0.0157471
-0.0232679
-0.0289462
-0.0325908
-0.0320003
-0.0283843
-0.023647
-0.0175912
-0.0114369
-0.0057107
-0.00105793
0.00252955
0.00526619
0.00713998
0.00837626
0.00918608
0.00969437
0.010019
0.0102184
0.0103262
0.0103722
0.0103537
0.0107016
0.0107283
0.0107452
0.0107496
0.0107449
0.0107309
0.010702
0.0106302
0.0104632
0.0100682
0.0092692
0.00789609
0.00596325
0.00337468
6.83301e-05
-0.00388086
-0.00842738
-0.0128406
-0.0168341
-0.0201335
-0.0217131
-0.0214013
-0.0190188
-0.0156676
-0.0116596
-0.00735541
-0.00329336
0.000241008
0.00307231
0.00540469
0.00712375
0.00821589
0.00894422
0.00938323
0.00965422
0.00982082
0.00991632
0.00996632
0.0099943
0.0100274
0.0100291
0.0100149
0.00997098
0.00990073
0.00979968
0.00965167
0.0094234
0.00904999
0.00846416
0.00750831
0.00604856
0.00398933
0.0012642
-0.00206855
-0.00590724
-0.00991521
-0.0138776
-0.0171352
-0.0184988
-0.0183451
-0.0173016
-0.0146939
-0.0112674
-0.00745727
-0.0035992
-2.92137e-05
0.00290747
0.00518817
0.00691347
0.00819084
0.00894737
0.00938352
0.00961694
0.0097274
0.00979209
0.00983376
0.00985633
0.00986568
0.00987277
0.00988171
0.00936881
0.00929906
0.00920981
0.00909142
0.00892737
0.00867995
0.00829052
0.00766158
0.00667241
0.00519372
0.00310875
0.000387935
-0.00309634
-0.00725879
-0.011849
-0.0162554
-0.0200215
-0.0222563
-0.0220248
-0.0194715
-0.0162682
-0.012327
-0.00800889
-0.00343714
0.000944893
0.00460219
0.00726697
0.00895374
0.00992269
0.0103147
0.0103291
0.0102551
0.0101286
0.0100129
0.00992268
0.00986408
0.00982672
0.00979597
0.00977151
0.00974376
0.00879868
0.00873832
0.00865755
0.00853261
0.00833369
0.00801652
0.00751446
0.00670371
0.00539554
0.00340859
0.000600552
-0.00317808
-0.00796524
-0.0133873
-0.0189746
-0.0239396
-0.0275739
-0.0291928
-0.0279361
-0.023215
-0.0173102
-0.0112348
-0.00491069
0.000859064
0.0053855
0.00859848
0.0106165
0.0115892
0.0118589
0.0115721
0.01112
0.0106822
0.0103065
0.0100245
0.00981582
0.00966706
0.00957234
0.00951352
0.00948262
0.00947824
0.00835803
0.00836681
0.00830917
0.00817949
0.00794788
0.00757644
0.00699791
0.00609528
0.00467128
0.0024243
-0.000782514
-0.0051732
-0.010735
-0.0168695
-0.0229861
-0.0283652
-0.0320862
-0.0337041
-0.0319464
-0.0258583
-0.0181668
-0.0102161
-0.00239699
0.00406999
0.00838755
0.011046
0.0123444
0.0126909
0.0124542
0.0117665
0.0111798
0.0106023
0.0101233
0.00976008
0.00949455
0.00930863
0.00919148
0.00913115
0.00911533
0.00915355
0.00798892
0.00802726
0.00798044
0.00786045
0.00764692
0.00729114
0.00675357
0.00592398
0.00464076
0.00267088
-7.35672e-05
-0.00381805
-0.00865631
-0.0141175
-0.0196747
-0.0247043
-0.0284226
-0.0300092
-0.0289339
-0.0236635
-0.0171531
-0.00994503
-0.00312008
0.0024748
0.00638546
0.00902125
0.010459
0.0110761
0.0111017
0.010759
0.0103986
0.00997908
0.00960877
0.00931241
0.00908776
0.00894423
0.00885539
0.00881468
0.00880508
0.00882207
0.00765213
0.00765265
0.00762019
0.00755256
0.0074232
0.0072042
0.00684384
0.00627078
0.00539481
0.00407438
0.00222126
-0.000205051
-0.0033168
-0.00699232
-0.0109226
-0.014691
-0.0177278
-0.019758
-0.0203874
-0.0185241
-0.0152351
-0.011028
-0.00687714
-0.00299534
0.000421412
0.00322632
0.00531508
0.00680825
0.00779457
0.00839249
0.00869631
0.00874468
0.00869975
0.00861999
0.00854891
0.00849991
0.00846601
0.00844343
0.00842302
0.00840299
0.00744204
0.0074183
0.00740444
0.00738873
0.00735351
0.0072858
0.00716037
0.00693566
0.00654984
0.00591993
0.00492845
0.00361491
0.00194847
-0.000144497
-0.00262296
-0.00537346
-0.00799177
-0.0105562
-0.0126053
-0.0134491
-0.0134418
-0.0125789
-0.0110316
-0.00860862
-0.00567992
-0.00280218
-0.000172472
0.00210397
0.00397393
0.00541601
0.00640457
0.00701288
0.00737255
0.00757672
0.00770737
0.00779
0.00784076
0.00786983
0.007877
0.00786574
0.00735224
0.00736362
0.00737802
0.00740048
0.00742777
0.00746671
0.00751685
0.00756167
0.00756297
0.00747427
0.00721492
0.00667799
0.00577703
0.00440951
0.00246925
-0.000129773
-0.00296818
-0.00594979
-0.00858062
-0.0109877
-0.0130629
-0.0146447
-0.0149303
-0.0135236
-0.0109621
-0.00783988
-0.00465778
-0.00173352
0.000750013
0.0026932
0.00416763
0.00523338
0.00596886
0.00644438
0.00675525
0.00695822
0.00709618
0.00719555
0.00726314
0.00729921
0.00721631
0.00724701
0.00728478
0.00733877
0.00741563
0.00752935
0.00768826
0.00790218
0.00817222
0.00847346
0.00874851
0.0088385
0.00855239
0.00771716
0.00618593
0.00379951
0.000699277
-0.00284198
-0.00655432
-0.0107061
-0.0148078