/*--------------------------------*- C++ -*----------------------------------*\
| =========                 |                                                 |
| \\      /  F ield         | OpenFOAM: The Open Source CFD Toolbox           |
|  \\    /   O peration     | Version:  v2106                                 |
|   \\  /    A nd           | Website:  www.openfoam.com                      |
|    \\/     M anipulation  |                                                 |
\*---------------------------------------------------------------------------*/
FoamFile
{
    version     2.0;
    format      ascii;
    arch        "LSB;label=32;scalar=64";
    class       volScalarField;
    location    "0";
    object      p;
}
// * * * * * * * * * * * * * * * * * * * * * * * * * * * * * * * * * * * * * //

dimensions      [0 2 -2 0 0 0 0];

internalField   nonuniform List<scalar> 
11644
(
0.00755781
0.00750131
0.00742834
0.00736066
0.00731079
0.00733276
0.00749726
0.00782506
0.00824396
0.00867055
0.00913564
0.00955028
0.0100574
0.0101907
0.0100632
0.00977994
0.00897819
0.00768396
0.00675029
0.00664527
0.00239957
0.000501116
0.00047525
-0.00179917
-0.00425146
-0.00633827
-0.00889446
-0.0114868
-0.0139531
-0.0165466
-0.0190252
-0.0212859
-0.0232101
-0.0248515
-0.0263022
-0.0275656
-0.0285538
-0.0292807
-0.0297753
-0.0300093
0.00770724
0.00762677
0.00751929
0.00740636
0.00731211
0.00725788
0.00725568
0.00732407
0.00753186
0.00793126
0.00847355
0.00907279
0.00947297
0.0100289
0.0104488
0.010079
0.0100353
0.00954984
0.00757584
0.00650144
0.00379621
0.0018841
0.00037907
-0.00171833
-0.00413424
-0.00713769
-0.00977281
-0.0125542
-0.0154486
-0.0179899
-0.0202539
-0.0222931
-0.0241905
-0.0258696
-0.0272632
-0.0283867
-0.0292712
-0.029932
-0.030341
-0.030488
0.00815942
0.00800742
0.00780318
0.00756943
0.00733183
0.00705221
0.00674958
0.00646431
0.00627702
0.00627849
0.00649964
0.00704816
0.0078931
0.00900544
0.0100879
0.0107982
0.0109166
0.0108222
0.00946764
0.00691488
0.00789894
0.00502775
-5.6149e-05
-0.0026579
-0.00546565
-0.00865515
-0.0120356
-0.0151517
-0.0178848
-0.0203034
-0.022469
-0.0243751
-0.0260477
-0.0274747
-0.0286325
-0.0295544
-0.0302804
-0.0307901
-0.0310709
-0.0311807
0.00890089
0.00878957
0.00854688
0.00815559
0.00766574
0.00708838
0.00644327
0.00577371
0.00515294
0.00469855
0.0046876
0.00517338
0.0060259
0.0071652
0.00859582
0.00960978
0.00952578
0.0113431
0.0126123
0.0109462
0.0119785
0.00705499
0.00373185
-0.00136421
-0.00594811
-0.01047
-0.014664
-0.0181861
-0.02096
-0.0230718
-0.0248874
-0.026488
-0.0278172
-0.0289278
-0.0298511
-0.0305947
-0.031173
-0.0316045
-0.0318955
-0.0320246
0.00984421
0.00977758
0.00951439
0.00909977
0.00845683
0.00767276
0.00678091
0.00582449
0.00489411
0.00416537
0.00361119
0.00323131
0.00319296
0.00393944
0.00583506
0.00764747
0.00788354
0.0124655
0.012671
0.0188229
0.0112315
0.0188896
0.00874019
4.55235e-05
-0.00622074
-0.0121259
-0.0167861
-0.0205548
-0.0234791
-0.0256071
-0.0270332
-0.0281821
-0.0292237
-0.0301299
-0.0309224
-0.0315938
-0.0321215
-0.0325733
-0.0328993
-0.033123
0.0110154
0.0108354
0.0106318
0.0101505
0.00950895
0.00870664
0.00775266
0.00672379
0.00563408
0.00430938
0.00267142
0.00105972
0.00013692
-5.90479e-05
0.00184132
0.0071801
0.00995688
0.0161666
0.0194705
0.0236745
0.0201391
0.0187904
0.00982693
0.00116584
-0.00838093
-0.0135757
-0.0185952
-0.0221208
-0.0246536
-0.0267545
-0.028391
-0.029438
-0.0302653
-0.0311003
-0.0319323
-0.0327219
-0.0334463
-0.0340055
-0.0345147
-0.0347276
0.0121583
0.012186
0.0119871
0.0116063
0.0110762
0.0103309
0.00942284
0.00832258
0.00697699
0.00510757
0.00296218
0.00133632
-0.000221337
-0.00148605
-9.18826e-08
0.00529732
0.0160684
0.0142637
0.0158711
0.0193294
0.02116
0.0182805
0.0101842
0.00223178
-0.0112443
-0.0173927
-0.0207216
-0.0221307
-0.0237567
-0.0258558
-0.0278356
-0.0294222
-0.0306025
-0.0316915
-0.0328137
-0.0338837
-0.0348869
-0.0357139
-0.0363175
-0.0367092
0.0143018
0.0141803
0.0137514
0.0134196
0.012847
0.012178
0.0113713
0.0103873
0.00894051
0.00725969
0.00571884
0.00399277
0.00281334
0.000955882
0.00331501
0.00205008
0.00685918
0.0150181
0.0208141
0.0243025
0.0238713
0.0193913
0.0133232
0.00651969
0.00100372
-0.0147452
-0.0163537
-0.0186427
-0.0214194
-0.0230755
-0.0252403
-0.0277834
-0.0300639
-0.0320132
-0.0338397
-0.0354328
-0.0366204
-0.0376192
-0.0380783
-0.038411
0.0172211
0.0166783
0.0164059
0.0157311
0.0150208
0.0143286
0.0134993
0.0125834
0.0114283
0.010354
0.00942275
0.00869782
0.00883921
0.00858276
0.00791332
0.011328
0.0088707
0.0151635
0.0263875
0.034942
0.0376066
0.0351404
0.0265127
0.0195315
0.00420302
0.00243518
-0.00626836
-0.0116861
-0.0154537
-0.0190763
-0.0222869
-0.0256488
-0.0291689
-0.0321908
-0.0347172
-0.0369311
-0.0386896
-0.0398325
-0.0408761
-0.0410188
0.0186807
0.018877
0.018866
0.0183222
0.0176819
0.0167426
0.0157741
0.0145606
0.0134263
0.0128594
0.0121517
0.00970697
0.00823733
0.00509645
0.0059612
0.00940964
0.0111488
0.0155469
0.0258449
0.0462396
0.0612518
0.0579815
0.0426777
0.0262821
0.0152373
0.00576707
-0.000125942
-0.00559087
-0.00980776
-0.0155293
-0.0202614
-0.0251006
-0.0297705
-0.0336368
-0.0367727
-0.0393682
-0.0415924
-0.0430238
-0.0441448
-0.044922
0.0221538
0.0222013
0.0209741
0.0203089
0.0192008
0.0178404
0.0164497
0.0149362
0.0130923
0.0109363
0.0085617
0.00443122
-0.0024906
0.00382953
-0.00233941
-0.0108454
-0.0102445
-0.00967044
0.00166609
0.0440866
0.0969505
0.080704
0.045009
0.0223446
0.010104
0.00148697
-0.00111007
-0.00185326
-0.00809667
-0.0143447
-0.021638
-0.0279426
-0.0329899
-0.0375082
-0.0412673
-0.0440607
-0.0459355
-0.0474873
-0.0477495
-0.048663
0.0276113
0.0252754
0.0243826
0.0227368
0.0208068
0.0186631
0.0159825
0.0128443
0.00906319
0.003525
-0.00312469
-0.0100755
-0.0167894
-0.0158839
-0.0209873
-0.0238608
-0.0306556
-0.0461116
-0.0976577
-0.0263128
-0.00621359
-0.0041236
-0.00625827
-0.00399284
-0.00927767
-0.0129455
-0.0210483
-0.0291141
-0.0349561
-0.0398647
-0.0443881
-0.0479449
-0.0506053
-0.0523629
-0.0534885
-0.0543864
-0.0530401
0.0271905
0.0275261
0.0267663
0.0245381
0.0219217
0.0184921
0.0137667
0.0076773
0.000271838
-0.00873518
-0.0195326
-0.0377197
-0.0468112
-0.0478555
-0.0542419
-0.050901
-0.0491142
-0.0374885
-0.0289803
-0.0133835
-0.0323208
-0.0339532
-0.0318363
-0.0279579
-0.0222936
-0.0280049
-0.0369171
-0.0424001
-0.0462647
-0.051041
-0.0551889
-0.0579455
-0.059833
-0.0614544
-0.0621406
-0.062538
-0.0629758
0.0267548
0.0295576
0.0278573
0.0248378
0.0211079
0.016788
0.0105151
0.000999968
-0.0128068
-0.0312071
-0.0216616
-0.0849003
-0.112878
-0.0917703
-0.0950643
-0.0901779
-0.084095
-0.0402189
-0.0202334
-0.00632747
-0.073364
-0.0727639
-0.0739567
-0.0588616
-0.0271458
-0.0568835
-0.066999
-0.0579833
-0.0595595
-0.0650565
-0.0687564
-0.0705481
-0.0720767
-0.0729074
-0.0740303
-0.0729455
-0.076789
0.0359568
0.0338466
0.0349919
0.0281087
0.0232824
0.0176738
0.00990439
-0.00197146
-0.010197
-0.0572705
-0.0889665
-0.108986
-0.124098
-0.128981
-0.150151
-0.155319
-0.166572
-0.208944
-0.234665
0.122464
0.323738
0.0243947
-0.0618004
-0.176779
-0.142872
-0.08469
-0.0874228
-0.0655758
-0.0655616
-0.0668944
-0.0541664
-0.08919
-0.0791021
-0.0856454
-0.0853139
-0.0870424
-0.086342
-0.0919812
-0.0881191
-0.0826361
0.0431372
0.0423993
0.042825
0.0389735
0.0349395
0.0238528
0.00228101
-0.0113018
-0.0205443
-0.036695
-0.0662769
-0.114358
-0.134186
-0.198149
-0.205679
-0.232293
-0.221052
-0.302451
0.267495
1.06878
0.187708
-0.930651
-0.416455
-0.114284
-0.189301
-0.144549
-0.122881
-0.054761
-0.0719715
-0.0948127
-0.093406
-0.0914183
-0.087752
-0.088722
-0.0992211
-0.0990789
-0.0964762
-0.0945651
-0.0940475
-0.091695
0.0528308
0.0514513
0.0514024
0.0460431
0.0393284
0.0285472
0.0174076
0.00261897
-0.0156678
-0.0294854
-0.0260456
-0.0475212
-0.0848206
-0.0752767
-0.131077
-0.1894
-0.339496
-0.349341
0.179983
-0.0201641
-0.665232
-0.378231
-0.165782
-0.0686935
-0.108521
-0.13122
-0.104517
-0.0836854
-0.0959243
-0.11199
-0.0969305
-0.0927181
-0.0985009
-0.102343
-0.106007
-0.107014
-0.103939
-0.102327
-0.0979457
-0.100615
0.0572448
0.0583098
0.0566269
0.0536508
0.0479868
0.0454482
0.0443319
0.0286887
0.0104406
-0.0101225
-0.0183575
0.0136103
-0.150871
0.207569
0.0106472
0.0224313
0.00972814
-0.0654796
-0.561434
-0.251845
0.378602
0.243827
0.514085
-0.0391813
-0.219101
-0.193486
-0.273202
0.0434742
-0.0838647
-0.0876455
-0.0918586
-0.107428
-0.110343
-0.115675
-0.110229
-0.111236
-0.115223
-0.115308
-0.1105
-0.110729
0.0719447
0.0689845
0.0706778
0.0709738
0.0694141
0.0750152
0.0948302
0.0904744
0.0649751
0.0414189
0.0425832
0.0287703
0.122889
0.15
0.162019
0.275429
-0.0647558
0.514902
0.373447
0.31434
0.157321
0.127195
0.0862778
0.0614413
-0.365833
-0.318055
-0.197828
-0.16206
-0.0771544
-0.0913979
-0.0987528
-0.112886
-0.123383
-0.130153
-0.114635
-0.113476
-0.118458
-0.121694
-0.120289
-0.122811
0.0894051
0.088014
0.0889034
0.0888854
0.089942
0.104772
0.119444
0.115271
0.128513
0.118954
0.111574
0.0578917
0.217387
0.238372
0.262386
0.364864
0.694814
0.0737806
0.630563
0.346233
0.519762
0.490814
0.176033
-0.267416
-0.461253
-0.238669
-0.199978
-0.183385
-0.0276313
-0.123324
-0.124554
-0.128699
-0.126848
-0.141333
-0.128473
-0.120523
-0.123379
-0.126477
-0.127516
-0.12925
0.101385
0.102093
0.102912
0.105894
0.111695
0.120275
0.127023
0.13514
0.152898
0.177456
0.199974
0.0372391
0.107598
0.248788
0.478957
0.308974
0.288818
0.878604
0.230225
0.00989449
0.111785
-0.099412
-0.389969
-0.479468
0.0652185
-0.228384
-0.137982
-0.0371777
0.016701
-0.160033
-0.149119
-0.141777
-0.133745
-0.138053
-0.137092
-0.135365
-0.13069
-0.129732
-0.13152
-0.134102
0.106097
0.109301
0.112323
0.117471
0.125541
0.13359
0.145551
0.159512
0.178527
0.1912
0.203752
0.0815858
0.0378323
0.245247
0.152526
0.158429
0.83472
-0.424521
-1.88476
-1.15144
0.460375
1.4264
1.33143
-0.483986
-0.526029
-0.248126
-0.0552864
0.0626925
0.00138548
-0.101439
-0.125948
-0.141949
-0.140753
-0.139772
-0.136824
-0.135468
-0.134224
-0.134534
-0.135422
-0.133447
0.114641
0.115903
0.119297
0.124745
0.131653
0.144962
0.162693
0.185244
0.214221
0.21967
0.232027
0.127102
0.090344
-0.140585
0.90048
1.17976
1.47731
2.58403
-5.61408
-3.28263
2.56698
4.4695
-1.81741
-1.38626
-1.36737
-0.932281
0.644011
0.215948
0.041076
-0.11265
-0.137383
-0.157202
-0.151256
-0.146506
-0.133897
-0.137012
-0.136696
-0.135237
-0.134866
-0.133726
0.121671
0.124355
0.126717
0.133611
0.14333
0.16569
0.182554
0.209738
0.223494
0.263636
0.300519
0.3401
0.528753
0.349399
0.634801
1.29382
1.79908
0.869994
-4.54209
-10.3613
9.0674
3.19035
-1.0141
-1.27034
-0.723865
-0.220421
-0.064139
-0.292262
-0.208074
-0.187557
-0.179637
-0.167907
-0.16468
-0.156169
-0.151546
-0.144727
-0.140417
-0.13588
-0.136406
-0.138206
0.118704
0.1268
0.132384
0.13999
0.150348
0.166016
0.186486
0.212495
0.248766
0.293027
0.360112
0.397704
0.440678
0.369206
0.378517
0.454074
0.638058
-0.294493
-1.78001
-2.75429
2.1471
1.45993
0.35453
-0.372873
-0.547749
-0.417759
-0.177932
-0.280708
-0.268246
-0.263416
-0.222451
-0.196296
-0.180988
-0.166285
-0.157394
-0.151821
-0.148197
-0.144624
-0.142099
-0.13678
0.117202
0.117212
0.122438
0.131501
0.143069
0.159543
0.182539
0.21129
0.25383
0.297149
0.362401
0.393338
0.470415
0.364491
0.283289
0.118434
0.357241
0.271293
-0.552067
-0.795534
0.089744
0.0352139
-0.734963
-0.538154
-0.0715129
-0.0588376
-0.258624
-0.362561
-0.261546
-0.315215
-0.254385
-0.220872
-0.191389
-0.173978
-0.162603
-0.153583
-0.148131
-0.142179
-0.139729
-0.139575
0.107174
0.109567
0.112824
0.120698
0.130108
0.143815
0.162514
0.184877
0.219171
0.223968
0.261169
0.309978
0.286934
0.322892
0.443796
0.596741
0.481611
0.853522
-0.641949
-0.192409
-0.767513
0.0340133
-0.946292
-0.128015
-0.875996
-0.679719
-0.450379
-0.268443
-0.246728
-0.241928
-0.214105
-0.206363
-0.183184
-0.171337
-0.160432
-0.152311
-0.146826
-0.14069
-0.138513
-0.13822
0.10082
0.101539
0.103399
0.106762
0.111592
0.118134
0.125105
0.138316
0.150605
0.163164
0.167674
0.22393
0.17101
0.0754559
-0.0115536
-0.0298025
0.136306
0.254691
0.163927
0.114023
-0.515042
-0.408238
-0.657387
-0.39097
-0.276295
-0.103948
-0.0653498
-0.214937
-0.217647
-0.20062
-0.187804
-0.171828
-0.162031
-0.153891
-0.149155
-0.145717
-0.142788
-0.141823
-0.141825
-0.141632
0.0850247
0.0870825
0.0881078
0.0879592
0.0886393
0.0917365
0.08966
0.0844996
0.0895124
0.114094
0.106067
0.147681
0.0796027
0.0348329
-0.00788137
-0.135077
-0.246389
-0.467481
-1.30682
-2.15833
1.88431
1.03802
0.27105
0.151441
0.0660767
-0.0824872
-0.147995
-0.184886
-0.187616
-0.161478
-0.187159
-0.1285
-0.13486
-0.141665
-0.139289
-0.135492
-0.135509
-0.135012
-0.133522
-0.136742
0.0641317
0.0680113
0.0679152
0.0675527
0.0667379
0.0640532
0.0583091
0.0553395
0.0299566
0.0132351
-0.130353
0.245283
0.0669965
-0.0689954
-0.26667
-0.426218
-0.171755
-0.101921
-1.54487
-1.44124
1.50829
1.53673
-0.142934
-0.282576
0.249401
0.0993045
-0.0295329
-0.136862
-0.272722
-0.0137769
-0.102505
-0.116489
-0.1364
-0.133301
-0.132737
-0.131433
-0.13012
-0.129101
-0.128613
-0.123086
0.053932
0.0519373
0.0505387
0.048982
0.047189
0.0442541
0.0398777
0.03382
0.0250197
0.0209687
0.0102697
0.0224482
-0.0834258
-0.265406
-0.351388
-0.460661
-0.64369
-0.584902
-0.969634
-0.91797
0.769074
0.665211
0.279111
0.333602
0.299867
0.216485
0.0899573
-0.109359
-0.150554
-0.124313
-0.13697
-0.133902
-0.134535
-0.131381
-0.130115
-0.128177
-0.126952
-0.126059
-0.126281
-0.126238
0.0418576
0.042138
0.0415683
0.0396288
0.0365807
0.0320917
0.0268827
0.0175213
0.00521201
-0.00759546
-0.0123096
-0.0205808
-0.0576465
-0.192677
-0.408238
-0.442781
-0.552536
-0.367522
-0.549621
-0.664693
0.481608
0.360933
-0.00193024
0.126692
0.0270137
0.03327
-0.0934576
-0.10614
-0.134819
-0.142556
-0.137374
-0.131512
-0.131144
-0.131033
-0.128928
-0.127353
-0.126206
-0.124495
-0.1227
-0.121744
0.0331951
0.0334456
0.0324194
0.0283827
0.0243058
0.0183879
0.0103008
0.000488353
-0.0151774
-0.00477204
-0.0195636
-0.0572065
-0.0985142
-0.0987084
-0.0899982
-0.151654
-0.346346
-0.114519
-0.518352
-0.514666
0.12538
0.083215
-0.103534
0.0142208
-0.0511461
-0.0862426
-0.0871911
-0.111518
-0.140232
-0.143174
-0.148138
-0.129212
-0.125049
-0.123395
-0.121008
-0.119246
-0.118041
-0.11802
-0.116868
-0.119046
0.0198371
0.0214013
0.0207564
0.018288
0.013825
0.00699331
-0.000126618
-0.010205
-0.0304592
-0.0397009
-0.0415469
-0.0772782
-0.038861
-0.141761
-0.167488
-0.123583
-0.0565817
0.00722609
0.0330964
0.176594
0.00527788
0.18887
0.185653
0.130252
0.0683749
-0.0496654
-0.113291
-0.168621
-0.141751
-0.135596
-0.113415
-0.114786
-0.122182
-0.119229
-0.113914
-0.1126
-0.112586
-0.1124
-0.111723
-0.110677
0.0102765
0.00637283
0.00729442
0.00852167
0.00737588
0.00217326
-0.00510944
-0.0164115
-0.0418846
-0.0728407
-0.0453129
-0.127089
-0.131473
-0.0396833
0.154238
0.190984
0.183246
0.240654
0.0348866
-0.121581
0.712325
0.406109
0.162677
0.0309507
-0.0622304
-0.201818
-0.0260346
-0.0300012
-0.0849248
-0.129829
-0.0773751
-0.102801
-0.111127
-0.113959
-0.111477
-0.108127
-0.105
-0.103054
-0.10018
-0.103557
0.00602228
8.64908e-05
-2.78998e-05
-0.000456777
0.00151758
-0.00140816
-0.0133337
-0.0254626
-0.0442958
-0.0714373
-0.0480409
-0.0496789
-0.0565429
-0.124177
-0.104885
0.158548
0.775456
0.911727
-0.372262
-0.592535
1.46356
0.830857
-0.36323
-0.245976
-0.218154
-0.1003
-0.0944953
-0.128739
-0.132469
-0.128341
-0.082169
-0.102634
-0.104711
-0.111101
-0.107108
-0.102863
-0.0993454
-0.0977094
-0.0964029
-0.097286
-0.00455981
-0.00551133
-0.0060849
-0.0079014
-0.00938348
-0.0148845
-0.0223275
-0.0323129
-0.040137
-0.0570421
-0.0409829
-0.0646494
-0.0272006
0.0713839
0.0762211
0.101711
0.228444
0.152092
-0.219077
-0.222337
0.919115
0.710228
-0.0766086
-0.154008
-0.141002
-0.176053
-0.158622
-0.0426075
-0.0844372
-0.117952
-0.118908
-0.109501
-0.100266
-0.0983266
-0.0946665
-0.0935376
-0.090806
-0.0887944
-0.0859975
-0.0857855
-0.0197471
-0.0195083
-0.0189363
-0.0182574
-0.018908
-0.0227503
-0.0261336
-0.0286551
-0.0239529
-0.0206835
-0.00714169
0.031585
-0.00220993
-0.00105658
0.131277
0.168947
0.0806295
0.0638777
-0.191896
-0.336395
0.582645
0.348331
0.00633617
-0.0800524
-0.217843
-0.221354
-0.102751
-0.115117
-0.158812
-0.125602
-0.101251
-0.0936877
-0.0861961
-0.0819459
-0.0780511
-0.0745604
-0.0740018
-0.0725429
-0.0716566
-0.0672257
-0.0282413
-0.0246762
-0.027077
-0.0291764
-0.0304783
-0.0313066
-0.0295314
-0.0253785
-0.008584
-0.00298922
0.0222775
0.0764794
0.0839829
0.0670278
0.132826
0.145036
0.0978111
0.19901
0.170619
-0.635792
0.962733
0.0753918
-0.228377
-0.191246
-0.161836
-0.145442
-0.0202959
-0.0591932
-0.0785393
-0.0860235
-0.0739633
-0.0698022
-0.0670781
-0.0606117
-0.0572323
-0.0541596
-0.0540742
-0.0536355
-0.05382
-0.0519268
-0.035068
-0.0339431
-0.03323
-0.0324689
-0.0302504
-0.029875
-0.0290995
-0.022515
-0.0162665
0.00187279
0.040082
0.0712607
0.185951
0.262414
0.348251
0.39751
0.358094
0.485479
0.363788
0.213944
0.205531
-0.00254723
-0.00305539
0.0380558
0.0400709
0.0771906
-0.0676427
-0.0814832
-0.0807861
-0.0345122
-0.0339379
-0.0368469
-0.0378959
-0.0398613
-0.0416872
-0.0363017
-0.0371449
-0.0363986
-0.0369082
-0.0371398
-0.0395186
-0.0386002
-0.0378949
-0.0379613
-0.0367031
-0.0345635
-0.0318875
-0.032535
-0.0267252
-0.0116194
0.025512
0.0620793
0.142092
0.277367
0.42537
0.515168
0.576398
0.595852
0.638512
0.579568
0.325456
0.273262
0.212584
0.17024
0.163049
0.11871
0.0826565
0.117373
0.0757291
0.0245676
0.0218632
-0.00268243
-0.0100873
-0.0207431
-0.0241672
-0.0252887
-0.0260733
-0.0265951
-0.0263535
-0.0283433
-0.0488413
-0.0463797
-0.0447271
-0.0442548
-0.0428184
-0.0398677
-0.0367133
-0.0317715
-0.0249014
-0.0216397
-0.00104624
0.0909826
0.158134
0.214928
0.317028
0.366027
0.407303
0.415439
-0.112874
-0.606199
1.62033
1.12066
0.360023
0.366241
0.339691
0.28547
0.214563
0.146804
0.0886456
0.0469914
0.0459754
0.00299174
0.010285
-0.00509191
-0.013767
-0.0159333
-0.0178891
-0.0174204
-0.0170331
-0.0142853
-0.0619367
-0.0579955
-0.0577217
-0.0545965
-0.0463481
-0.048628
-0.0449448
-0.0317733
-0.0598679
-0.0498965
-0.0131151
0.101132
0.141231
0.201846
0.328892
0.375422
0.234363
0.137307
-0.104589
-0.197879
0.822763
0.849176
0.339662
0.321143
0.0665297
0.0695237
0.100615
0.0792618
0.0918317
0.0762391
0.0823174
0.0552521
0.0324654
0.0264454
-0.0127197
-0.0059583
-0.00822764
-0.00410432
-0.00301489
0.00515086
-0.071389
-0.0683457
-0.0695355
-0.068784
-0.0672903
-0.0650924
-0.0602777
-0.0518129
-0.0539445
-0.046265
0.00602401
0.0362131
0.0790571
0.120351
0.124343
0.106244
0.0233026
-0.0329915
-0.258591
-0.335526
0.305402
0.260673
0.0841989
0.0891874
0.0308021
0.0364386
0.0776814
0.113085
0.0870826
0.0584064
0.0818908
0.0602618
0.0427128
0.0370253
0.024455
0.0193723
0.0155083
0.0153434
0.0144227
0.0179542
-0.0773865
-0.0762311
-0.0762729
-0.07608
-0.0753813
-0.0745989
-0.0733683
-0.0642626
-0.049053
-0.0184808
0.0044558
-0.00323031
-0.0203329
0.034828
0.0475687
0.0492484
-0.017294
-0.113144
-0.132788
-0.411386
-0.0255294
-0.138783
-0.149048
-0.0817858
-0.0960217
-0.0462267
0.00422182
0.0921287
0.0929606
0.0712571
0.0778744
0.0629516
0.0562023
0.0495579
0.0415245
0.0368293
0.0314541
0.0292933
0.0275107
0.0305345
-0.0865163
-0.0839015
-0.0830786
-0.0826499
-0.0827359
-0.082444
-0.0827731
-0.0756216
-0.0630308
-0.0478701
-0.0322547
-0.0200279
0.000283111
-0.0166839
-0.0449046
-0.0659464
-0.0889615
-0.0520362
-0.0160726
-0.333129
0.0322584
-0.144943
0.0272468
0.127162
0.0596299
0.109682
0.12941
0.145426
0.142379
0.118316
0.0949357
0.068672
0.0703077
0.0670667
0.0583412
0.0509717
0.0456691
0.0433298
0.042045
0.0414762
-0.0949127
-0.0933705
-0.0934901
-0.0949119
-0.0958355
-0.0953491
-0.0943852
-0.0950094
-0.0871039
-0.0672437
-0.0792582
-0.0678155
-0.0403117
-0.0092546
0.0241854
0.0409264
0.0995131
0.150613
0.278352
0.213324
0.122691
0.15673
0.252458
0.298659
0.297809
0.240978
0.225397
0.204908
0.177532
0.146149
0.110151
0.0969136
0.0955037
0.0813114
0.0703829
0.0621608
0.0561153
0.0512622
0.0476293
0.0481387
-0.109715
-0.109388
-0.109275
-0.108122
-0.107227
-0.105579
-0.101297
-0.117512
-0.114072
-0.114487
-0.135358
-0.066582
-0.0145489
0.0130642
0.0340679
0.0586909
0.0373862
0.15343
0.160903
0.113718
0.757419
0.564019
0.498684
0.528763
0.396015
0.324294
0.245969
0.198816
0.189343
0.17741
0.142037
0.110636
0.0979432
0.0833826
0.0713618
0.0641745
0.0601038
0.0580681
0.0561355
0.055774
-0.123461
-0.121592
-0.122936
-0.121438
-0.122372
-0.124641
-0.112508
-0.131187
-0.132154
-0.156243
-0.152413
-0.105979
-0.143933
-0.0870312
-0.0253518
0.0159315
-0.141253
-0.15364
-0.105632
-0.354154
0.989398
0.761876
0.759723
0.704794
0.20915
0.230092
0.237348
0.210022
0.140549
0.147929
0.127881
0.106341
0.0973011
0.0784758
0.0715918
0.0664857
0.0613403
0.0612958
0.0581698
0.0615935
-0.129749
-0.125983
-0.129638
-0.126394
-0.130714
-0.13468
-0.138084
-0.153714
-0.16022
-0.177167
-0.168349
-0.172657
-0.224566
-0.27086
-0.269621
-0.295942
-0.371806
-0.316741
-0.323275
-0.117903
0.454285
0.52189
0.456675
0.450284
0.298153
0.227928
0.217764
0.172134
0.135934
0.121925
0.0997887
0.0802613
0.0789042
0.074923
0.0701459
0.0622086
0.0593103
0.0585547
0.0581598
0.0640335
-0.135164
-0.132639
-0.133732
-0.134255
-0.137419
-0.143496
-0.151173
-0.162676
-0.175777
-0.193187
-0.215751
-0.262507
-0.284286
-0.328775
-0.385419
-0.437564
-0.503892
-0.519989
-0.474863
-0.286221
0.166744
0.341214
0.373267
0.325812
0.221192
0.156622
0.127386
0.121295
0.119791
0.0901273
0.0863649
0.0805665
0.0744013
0.0693303
0.0650915
0.0637885
0.0613288
0.0604635
0.0601048
0.0634048
-0.136059
-0.136794
-0.139854
-0.141558
-0.146926
-0.154006
-0.162562
-0.172984
-0.184958
-0.196535
-0.230081
-0.284004
-0.324588
-0.348658
-0.360558
-0.326734
-0.374463
-0.301703
-0.208787
-0.200458
0.157047
0.0887101
0.181883
0.225065
0.149438
0.149709
0.12486
0.131398
0.130148
0.109323
0.0841257
0.0776755
0.0730481
0.0714002
0.0680674
0.0664075
0.0640018
0.0637422
0.0622868
0.0609495
-0.136392
-0.137272
-0.139357
-0.140137
-0.145449
-0.151832
-0.159501
-0.165596
-0.181919
-0.186548
-0.20619
-0.221873
-0.23041
-0.231114
-0.277667
-0.237075
-0.137942
-0.0280718
0.135878
0.171538
0.219291
0.234202
0.294858
0.294263
0.282308
0.250248
0.191788
0.130477
0.101044
0.0778311
0.0729371
0.0722541
0.0672153
0.0639978
0.0638224
0.0644661
0.0655213
0.0643785
0.063016
0.0598031
-0.136016
-0.137745
-0.137846
-0.13823
-0.140988
-0.144464
-0.151776
-0.159321
-0.168011
-0.188635
-0.205413
-0.199862
-0.178779
-0.159513
-0.162504
-0.127889
0.0339562
0.18272
0.34468
0.441619
0.483165
0.445088
0.44305
0.456415
0.398925
0.331512
0.234925
0.154015
0.111984
0.101962
0.0910498
0.0705544
0.0602244
0.0532625
0.0562361
0.0592535
0.0610836
0.0605868
0.0610767
0.0583454
-0.134334
-0.133068
-0.134442
-0.136677
-0.140044
-0.139589
-0.152039
-0.15516
-0.159964
-0.158359
-0.17413
-0.186086
-0.197271
-0.15994
-0.120668
-0.0443785
-0.0189215
0.0897548
0.154645
0.312781
0.656422
0.732875
0.614617
0.488302
0.381181
0.323916
0.235204
0.170198
0.107958
0.0710421
0.0672026
0.0516184
0.0414429
0.045994
0.0494155
0.0565232
0.0563107
0.055151
0.0537609
0.0587195
-0.132522
-0.131358
-0.132731
-0.133524
-0.135306
-0.137301
-0.141336
-0.138954
-0.134059
-0.129688
-0.15247
-0.144833
-0.142093
-0.17198
-0.132762
-0.0420722
-0.101043
-0.0838506
0.23147
0.183342
0.349802
0.395383
0.34903
0.284285
0.23789
0.21564
0.0687859
0.040397
0.0340503
0.0290325
0.0371758
0.0256758
0.032571
0.0368464
0.0449245
0.0513288
0.0518763
0.0521736
0.0530774
0.0573428
-0.12715
-0.128827
-0.129795
-0.129608
-0.128969
-0.128797
-0.130255
-0.129212
-0.11599
-0.110896
-0.109212
-0.117564
-0.146329
-0.171499
-0.190662
-0.18649
-0.217531
-0.22046
-0.160075
-0.0794404
0.0795935
0.125841
0.113032
0.047684
0.0345245
0.0147245
-0.00877912
-0.000543875
0.00775792
0.00583228
0.00120508
0.0123142
0.029483
0.0373985
0.0447243
0.0490465
0.0522862
0.0543298
0.0553829
0.0566982
-0.117504
-0.119474
-0.119843
-0.120049
-0.119133
-0.117865
-0.115903
-0.110753
-0.100702
-0.0868309
-0.0948844
-0.0893306
-0.0928671
-0.11119
-0.125912
-0.133102
-0.158958
-0.167861
-0.156433
-0.157199
-0.20119
-0.0908733
-0.0404813
-0.145625
-0.123125
-0.11862
-0.103369
-0.0754903
-0.0356668
-0.00731884
4.52268e-05
0.0136088
0.0282075
0.0382217
0.0455341
0.0494495
0.0525151
0.0532989
0.0533717
0.0534029
-0.112628
-0.111147
-0.109699
-0.107806
-0.105774
-0.103242
-0.101125
-0.0859703
-0.0792324
-0.0646729
-0.0631036
-0.0530195
-0.0510787
-0.0843841
-0.0864067
-0.0794138
-0.074816
-0.00310011
-0.0250207
0.0697153
-0.111661
-0.102858
-0.0401981
-0.0379166
-0.03621
-0.0293081
-0.0302786
-0.0352275
-0.0100219
0.00642387
0.0107842
0.0230198
0.0308055
0.0398138
0.0472757
0.049528
0.0522431
0.0545074
0.0557147
0.0538439
-0.107389
-0.106491
-0.104848
-0.102758
-0.100544
-0.0979016
-0.0907193
-0.0797959
-0.0699102
-0.0544732
-0.0442783
-0.0199349
0.0180995
0.047593
0.0881567
0.160028
0.175003
0.293146
0.25258
0.200716
0.101781
0.0449556
0.0276681
0.038348
0.0211019
0.0222177
0.0159777
0.0176068
0.0230099
0.0262222
0.0342552
0.0430019
0.0452545
0.0499535
0.0545281
0.0554214
0.0560325
0.0554
0.0546246
0.0525898
-0.107587
-0.10572
-0.105518
-0.103768
-0.101221
-0.0962121
-0.0861908
-0.0706282
-0.0693285
-0.0464543
-0.0179578
0.0207239
0.0518142
0.0937866
0.145955
0.215152
0.262556
0.278087
0.284071
0.245393
0.243855
0.156982
0.137359
0.104893
0.117505
0.0800018
0.0637358
0.0462305
0.0289635
0.0401333
0.0494341
0.0479577
0.0527568
0.0546924
0.0572538
0.05791
0.0578908
0.0575327
0.0573583
0.0571138
-0.107176
-0.110606
-0.109246
-0.107235
-0.104637
-0.100102
-0.0942652
-0.0868063
-0.0608969
-0.0450017
-0.031539
0.00427592
0.0217717
0.0403501
0.0689463
0.190574
0.15753
0.053985
0.064946
0.0524967
0.137654
0.193384
0.12506
0.0865327
0.0843526
0.0726569
0.0696371
0.0391745
0.0393023
0.0601212
0.0372557
0.0363652
0.062635
0.0633537
0.0629614
0.062824
0.0616702
0.0598663
0.0596473
0.0597881
-0.103865
-0.107962
-0.109638
-0.110072
-0.110021
-0.119045
-0.0933392
-0.0945122
-0.0676121
-0.0612668
-0.055148
-0.064032
-0.050113
-0.0489861
-0.0457287
-0.0355904
0.0345982
-0.259586
-0.13296
-0.07422
-0.0590176
-0.0344103
-0.033091
-0.0257355
0.00244479
0.0209324
0.0452875
0.058716
0.0708278
0.0688418
0.054348
0.0513644
0.0535046
0.0567684
0.0673005
0.0664306
0.0634923
0.0607885
0.0599294
0.0568712
-0.102122
-0.103818
-0.104793
-0.105994
-0.106598
-0.108254
-0.105526
-0.095706
-0.0880144
-0.0901227
-0.0957457
-0.110957
-0.125826
-0.157639
-0.177571
-0.217682
-0.221371
-0.384758
-0.381681
-0.270625
-0.181031
-0.0642856
-0.00983871
-0.0311282
-0.00867231
0.00118523
0.0264223
0.0492765
0.0678992
0.065382
0.0644849
0.064191
0.0630264
0.065528
0.0662964
0.0648101
0.0633133
0.0609215
0.0606258
0.0578609
-0.104182
-0.104899
-0.104644
-0.104565
-0.105287
-0.106705
-0.108207
-0.108614
-0.112028
-0.121388
-0.138872
-0.167228
-0.198165
-0.233558
-0.259291
-0.271509
-0.295297
-0.298776
-0.325283
-0.211446
-0.233492
-0.090626
-0.0355257
0.00613312
0.0384188
0.0772532
0.0882627
0.0923975
0.0943856
0.0901699
0.100049
0.0892616
0.0772926
0.0717884
0.0681186
0.0665725
0.0647984
0.0639086
0.0631754
0.060872
-0.105526
-0.105032
-0.105483
-0.106792
-0.108332
-0.109952
-0.113103
-0.123915
-0.124276
-0.135036
-0.152
-0.180845
-0.206421
-0.233127
-0.252805
-0.252851
-0.257611
-0.215784
-0.188711
-0.100846
-0.0496582
0.0524433
0.141263
0.17328
0.193967
0.188272
0.168696
0.146935
0.129577
0.107596
0.100258
0.0915335
0.0844032
0.0773204
0.072143
0.0688996
0.0664184
0.0635848
0.0615388
0.0605682
-0.106484
-0.106829
-0.107311
-0.108353
-0.109696
-0.112652
-0.114906
-0.123314
-0.140466
-0.152077
-0.160691
-0.170812
-0.188757
-0.200653
-0.208353
-0.186697
-0.142362
-0.0638594
0.0196482
0.0600246
0.111168
0.146705
0.204264
0.250607
0.26757
0.256809
0.232816
0.195666
0.154224
0.133151
0.119788
0.102019
0.0839627
0.0740079
0.069901
0.0656763
0.0628758
0.0612216
0.0605462
0.0600304
-0.10244
-0.104465
-0.106605
-0.109543
-0.111223
-0.114842
-0.119776
-0.122859
-0.131822
-0.154688
-0.173426
-0.170095
-0.1824
-0.197057
-0.212798
-0.19663
-0.122512
-0.133055
-0.0910123
0.177767
0.19996
0.232147
0.249804
0.267215
0.255042
0.233809
0.215181
0.200559
0.186994
0.153679
0.104655
0.0839651
0.0767933
0.071084
0.0680709
0.0632403
0.0587164
0.0556901
0.0545659
0.0542864
-0.0992585
-0.101078
-0.101689
-0.103687
-0.105448
-0.111597
-0.1157
-0.122359
-0.129665
-0.14726
-0.161424
-0.178338
-0.202697
-0.230063
-0.251195
-0.260031
-0.223654
-0.203095
-0.118821
0.0667753
0.0118946
0.107582
0.152634
0.165492
0.155054
0.139472
0.125989
0.170357
0.14593
0.112206
0.0974246
0.0706209
0.0586388
0.0668705
0.0616184
0.0561847
0.0512097
0.048972
0.0478192
0.0471631
-0.0958516
-0.0975617
-0.0965907
-0.0973565
-0.0976923
-0.104451
-0.108753
-0.114524
-0.122038
-0.13782
-0.16225
-0.19709
-0.247225
-0.305419
-0.356918
-0.386879
-0.404533
-0.361585
-0.281835
-0.152151
-0.0683188
0.0090254
0.0653479
0.114902
0.104317
0.103513
0.0939809
0.101646
0.0953418
0.0760346
0.0627896
0.0523454
0.0516871
0.0512032
0.0492901
0.0484092
0.0467426
0.0473461
0.047167
0.044593
-0.0934913
-0.0916964
-0.0914131
-0.0919701
-0.0936343
-0.0976768
-0.101641
-0.109749
-0.118445
-0.13287
-0.150044
-0.173998
-0.203018
-0.226598
-0.273203
-0.281362
-0.307991
-0.299314
-0.2778
-0.193297
-0.124333
-0.0988788
-0.0361822
-0.012346
-0.0175059
-0.00965914
0.00500111
0.0196831
0.0312045
0.036282
0.0401274
0.0409151
0.0424166
0.0421697
0.0428968
0.0426362
0.0423185
0.0418847
0.04116
0.0391323
-0.0904095
-0.08919
-0.0886585
-0.088844
-0.0886363
-0.0912976
-0.0929161
-0.0952123
-0.0985815
-0.104722
-0.113395
-0.122356
-0.127602
-0.127268
-0.127037
-0.0978187
-0.148633
-0.0994609
-0.0913418
-0.0935534
-0.0878576
-0.0780479
-0.0786891
-0.060942
-0.0250121
-0.0317883
-0.00632858
-0.00349771
-0.00128038
0.010443
0.0173791
0.0237903
0.0285239
0.0276286
0.0302755
0.0298843
0.0311084
0.0314452
0.0314691
0.0313394
-0.0866708
-0.0866953
-0.0861385
-0.0851194
-0.0847274
-0.0842457
-0.0825156
-0.0834587
-0.0804074
-0.0771143
-0.0739237
-0.0659794
-0.0468135
-0.0247941
-0.013559
-0.00754662
0.0102765
0.0118728
0.0493342
0.030565
0.0359914