/*--------------------------------*- C++ -*----------------------------------*\
| =========                 |                                                 |
| \\      /  F ield         | OpenFOAM: The Open Source CFD Toolbox           |
|  \\    /   O peration     | Version:  v2106                                 |
|   \\  /    A nd           | Website:  www.openfoam.com                      |
|    \\/     M anipulation  |                                                 |
\*---------------------------------------------------------------------------*/
FoamFile
{
    version     2.0;
    format      ascii;
    arch        "LSB;label=32;scalar=64";
    class       volVectorField;
    location    "0";
    object      U;
}
// * * * * * * * * * * * * * * * * * * * * * * * * * * * * * * * * * * * * * //

dimensions      [0 1 -1 0 0 0 0];

internalField   nonuniform List<vector> 
11644
(
(-0.00121073 -0.000238387 -5.34855e-21)
(-0.00126079 -0.000654443 -1.47497e-20)
(-0.00129775 -0.00106109 -7.91359e-21)
(-0.00122762 -0.00143043 0)
(-0.00126199 -0.00189986 0)
(-0.00135575 -0.00242319 0)
(-0.00141826 -0.00287845 0)
(-0.00130883 -0.00325395 0)
(-0.00137337 -0.00351842 0)
(-0.00149115 -0.0036027 0)
(-0.00149865 -0.00336933 0)
(-0.00177772 -0.00290365 0)
(-0.00168571 -0.00203977 0)
(-0.0035752 -0.000901551 0)
(-0.00323377 1.48984e-05 0)
(-0.0014359 0.000786011 0)
(-0.00181905 0.000904546 0)
(-0.00202899 0.00032609 0)
(-0.00164689 -0.000988254 0)
(-0.00189717 -0.00207481 -3.65048e-30)
(-0.00238269 -0.00317239 3.63259e-30)
(-0.00247504 -0.00370416 0)
(-0.00244384 -0.00315368 0)
(-0.00225782 -0.00280216 0)
(-0.0018166 -0.00264553 0)
(-0.00238292 -0.00252707 0)
(-0.00262913 -0.00152727 0)
(-0.00140123 -0.000387888 0)
(-0.00200237 0.000567218 0)
(-0.00169366 0.0012107 0)
(-0.00134687 0.00152428 0)
(-0.00124056 0.00170717 0)
(-0.00130031 0.00174569 0)
(-0.00129622 0.00164824 0)
(-0.00121626 0.00144055 0)
(-0.00118987 0.0012143 0)
(-0.00116576 0.000926369 0)
(-0.0010911 0.000727217 0)
(-0.00107427 0.000484883 0)
(-0.00116079 0.000193697 -1.03703e-21)
(-0.000651729 -0.000357024 -6.87017e-21)
(-0.000508683 -0.00107854 -6.36398e-21)
(-0.00032538 -0.00189232 -3.41789e-21)
(-9.79555e-06 -0.0027548 0)
(6.47041e-05 -0.00383432 0)
(0.000232859 -0.00502884 0)
(0.000471602 -0.00632726 0)
(0.000681877 -0.007586 0)
(0.00101612 -0.00852206 0)
(0.00136556 -0.00910389 0)
(0.00106511 -0.00932282 0)
(0.0013345 -0.00849483 0)
(0.000499397 -0.00757326 0)
(0.00187336 -0.00545325 0)
(0.000954238 -0.00375583 0)
(-0.00247119 -0.00247392 -7.34036e-23)
(-0.00300356 -0.00186446 8.27495e-22)
(-0.00282329 -0.00283154 -8.70641e-21)
(-0.00401677 -0.00495214 1.0249e-20)
(-0.00445345 -0.00794227 2.19802e-20)
(-0.004393 -0.0109677 -3.94681e-20)
(-0.004285 -0.0115176 1.30559e-20)
(-0.00386234 -0.0108745 3.29312e-21)
(-0.00357312 -0.00974347 -1.41457e-21)
(-0.00327688 -0.00853522 3.26624e-22)
(-0.00111578 -0.00584998 0)
(0.000225329 -0.00325904 0)
(-0.000743395 -0.000806628 0)
(0.000623005 0.00110114 0)
(0.000723962 0.00250209 0)
(0.000216111 0.0035175 0)
(0.000134977 0.00393998 0)
(0.000126626 0.00392461 0)
(2.63651e-05 0.00364515 0)
(-0.000184562 0.00327233 0)
(-0.000183723 0.00274218 0)
(-0.000364863 0.00222716 0)
(-0.00026461 0.00163419 0)
(-0.000354955 0.00101279 0)
(-0.000561673 0.000387834 0)
(-0.000545101 -0.00039815 0)
(-0.000203536 -0.00130567 0)
(0.000403169 -0.00247308 0)
(0.00103259 -0.00379606 0)
(0.00152492 -0.00520058 -6.27578e-21)
(0.00229976 -0.00672255 0)
(0.0032628 -0.0085063 0)
(0.00443124 -0.0102978 0)
(0.00545458 -0.0120426 0)
(0.00631689 -0.0134506 0)
(0.00700669 -0.0140039 0)
(0.00564671 -0.0142014 0)
(0.00518808 -0.012702 -1.28776e-21)
(-4.22137e-05 -0.0106005 9.42797e-21)
(-0.00324719 -0.00748374 -2.07997e-20)
(-0.00205069 -0.00485736 8.27057e-20)
(-0.00454155 -0.00362897 -1.71153e-19)
(-0.00677688 -0.00431991 1.21796e-19)
(-0.00713918 -0.00815705 5.71862e-20)
(-0.00731183 -0.011933 -3.95859e-20)
(-0.00721445 -0.014114 9.05061e-20)
(-0.00642012 -0.0162211 9.22978e-21)
(-0.00573591 -0.0172315 -2.45195e-19)
(-0.00547357 -0.0164034 4.67241e-20)
(-0.00390189 -0.0130038 4.55901e-20)
(-0.00288385 -0.00877825 2.46772e-20)
(-0.00177619 -0.00442455 -1.10001e-20)
(0.00156439 2.49434e-06 1.34884e-21)
(0.00178483 0.00340785 0)
(0.00246603 0.00546645 0)
(0.00303901 0.00632579 0)
(0.00275853 0.0067565 0)
(0.0023762 0.00664502 0)
(0.00182506 0.00613978 0)
(0.00144886 0.0053665 0)
(0.00101541 0.00447039 0)
(0.000668007 0.00348721 0)
(0.000500582 0.00241388 0)
(0.000216229 0.00139154 0)
(-0.000115881 0.00031926 0)
(-0.000586785 -0.000113134 0)
(-0.000200271 -0.000788247 0)
(0.000503191 -0.00215944 0)
(0.0013874 -0.00360613 0)
(0.00247717 -0.00512825 0)
(0.00393544 -0.00682806 0)
(0.00586138 -0.00877007 0)
(0.00795742 -0.0108997 0)
(0.0102454 -0.0130806 0)
(0.0123318 -0.0151033 0)
(0.0130351 -0.0171236 -2.11e-22)
(0.0133583 -0.0174487 -1.5115e-20)
(0.0101013 -0.0181091 4.03924e-20)
(0.009903 -0.0151223 -1.94266e-20)
(0.0076206 -0.0101692 -1.44018e-20)
(-0.000600213 -0.00651605 -1.57177e-19)
(-0.00226305 -0.00529098 -1.02305e-19)
(-0.00552956 -0.00717855 2.07401e-19)
(-0.0103457 -0.00864473 2.44019e-19)
(-0.0118964 -0.0111938 -8.9616e-19)
(-0.0118099 -0.0163143 5.50862e-19)
(-0.0111982 -0.019184 2.03409e-19)
(-0.00906423 -0.0199717 -3.02439e-19)
(-0.00695417 -0.0179579 8.26261e-20)
(-0.0061445 -0.0144332 2.12336e-19)
(-0.00142838 -0.00740284 -7.12907e-20)
(0.00397944 -0.00136017 7.23957e-20)
(0.00415799 0.00349774 -1.90476e-20)
(0.00652999 0.00637062 -1.62633e-20)
(0.00656625 0.00863393 1.8642e-22)
(0.00586056 0.00990268 0)
(0.00548424 0.00982866 0)
(0.00478044 0.00916082 0)
(0.00381001 0.00811081 0)
(0.00299777 0.00685641 0)
(0.00209796 0.00562264 0)
(0.00143311 0.00431956 0)
(0.00113343 0.00290467 0)
(0.000875485 0.00140843 0)
(0.000489002 0.000507246 0)
(-0.000867431 -0.000183314 0)
(-0.000506742 -0.000716661 0)
(0.000224241 -0.00138935 0)
(0.00139849 -0.00221694 0)
(0.0028842 -0.00334882 0)
(0.00495588 -0.0048092 0)
(0.00753439 -0.00667644 0)
(0.0104256 -0.00897142 0)
(0.013476 -0.0117052 0)
(0.0160478 -0.0152301 -1.58003e-21)
(0.0178459 -0.019398 -7.46587e-20)
(0.0178787 -0.0234964 -6.39917e-21)
(0.019409 -0.0227567 5.01206e-21)
(0.0136732 -0.0209471 9.52228e-20)
(0.00599539 -0.015757 2.62466e-19)
(0.0081752 -0.00787911 -3.33963e-19)
(0.00279684 -0.00799781 -1.14407e-19)
(-0.0106684 -0.00981354 2.73637e-19)
(-0.0161136 -0.0105936 2.70333e-19)
(-0.01925 -0.0120192 6.51151e-20)
(-0.020705 -0.0144067 2.96262e-19)
(-0.0203671 -0.0183342 -5.49307e-19)
(-0.0167702 -0.0191918 -3.80827e-19)
(-0.0136713 -0.0189656 2.39889e-21)
(-0.010057 -0.0142297 5.23797e-19)
(-0.00740241 -0.00461129 -3.52896e-19)
(-0.00419761 0.00329631 -2.64419e-20)
(0.00494874 0.00809509 7.47193e-20)
(0.00798514 0.0110245 -9.39727e-20)
(0.00970687 0.0120486 6.82801e-20)
(0.0093406 0.0123727 -1.85879e-21)
(0.00805623 0.0119134 0)
(0.0067955 0.0106158 0)
(0.00522823 0.0091962 0)
(0.00398851 0.00768385 0)
(0.00293093 0.00620342 0)
(0.00222977 0.0047071 0)
(0.00187258 0.00324032 0)
(0.00157051 0.00166603 0)
(0.00138616 0.000356708 0)
(-0.00172745 4.55527e-05 0)
(-0.00134301 -0.000305866 0)
(-0.000772096 -0.000781428 0)
(0.000191503 -0.00134492 0)
(0.00185155 -0.00166318 0)
(0.00411004 -0.00253117 0)
(0.00701585 -0.0038393 0)
(0.0104501 -0.00594453 0)
(0.0139887 -0.00919678 -4.10656e-21)
(0.0184373 -0.0135164 -5.52653e-20)
(0.0245619 -0.0173199 2.22081e-20)
(0.0312697 -0.0189282 1.54666e-19)
(0.0331861 -0.0246303 -1.09415e-19)
(0.0330707 -0.0276529 3.39391e-19)
(0.0288472 -0.0202931 -3.18865e-19)
(0.0106761 -0.0125798 4.2952e-20)
(0.000406075 -0.0173304 -1.82167e-19)
(-0.00807379 -0.0216469 1.52047e-19)
(-0.0167432 -0.0137744 7.92193e-20)
(-0.0219828 -0.0102134 8.12694e-19)
(-0.0256404 -0.0178798 -5.94098e-19)
(-0.0251569 -0.0170218 3.72943e-20)
(-0.0198604 -0.0110797 -5.08861e-19)
(-0.0157077 -0.0093375 6.50851e-20)
(-0.00823353 -0.00897696 1.78603e-19)
(-0.00411926 -0.00102866 1.55727e-19)
(0.00316733 0.00770298 -2.07165e-19)
(0.00365709 0.0141389 2.59961e-20)
(0.00720912 0.0145 -9.525e-20)
(0.0104687 0.0140757 -4.32283e-21)
(0.0113359 0.0131026 2.15023e-20)
(0.00957643 0.0122313 -4.74364e-21)
(0.00743263 0.0108226 0)
(0.00568248 0.00910523 0)
(0.00429684 0.00752196 0)
(0.00331187 0.00591566 0)
(0.00268813 0.00455331 0)
(0.00232999 0.00306265 0)
(0.00217492 0.00188017 0)
(0.0021171 0.000456834 0)
(-0.00335942 3.9546e-05 0)
(-0.00311068 0.000100567 0)
(-0.00257737 -2.50598e-05 0)
(-0.00176579 0.000464621 0)
(-0.000484661 0.000462085 0)
(0.00157834 0.000297304 0)
(0.0043346 -0.000423667 0)
(0.00785781 -0.00223551 -1.23778e-21)
(0.0128959 -0.00484645 -3.66844e-21)
(0.0206798 -0.00784116 8.88521e-20)
(0.0291054 -0.0131497 -1.24257e-19)
(0.0356958 -0.0221291 3.34895e-21)
(0.0388264 -0.0283476 -2.88839e-19)
(0.0400548 -0.0305882 4.96698e-19)
(0.0318068 -0.0410862 -6.25229e-20)
(0.0224712 -0.0361536 -2.7919e-20)
(0.00021256 -0.0222221 -1.20611e-19)
(0.000464875 -0.022943 8.14126e-19)
(-0.00460561 -0.0212227 -2.232e-19)
(-0.0107438 -0.018595 -1.22293e-18)
(-0.0176547 -0.0157475 -5.3939e-19)
(-0.0187214 -0.0122016 -8.20689e-20)
(-0.0176258 -0.00799712 2.55793e-19)
(-0.0167369 -0.00583659 1.27485e-18)
(-0.00737783 -0.00336368 2.2576e-19)
(-0.00103149 0.00530881 -8.89113e-20)
(-0.00852253 0.0118908 -4.51876e-19)
(0.000375981 0.0138903 1.45343e-19)
(0.00149309 0.015454 3.07982e-19)
(0.00404045 0.0160541 -1.19518e-19)
(0.00707964 0.0137975 6.27978e-20)
(0.00798458 0.0112686 3.53732e-21)
(0.00641862 0.0100004 6.16848e-23)
(0.00463597 0.00881124 0)
(0.00360354 0.00746344 0)
(0.00280951 0.00625219 0)
(0.00256692 0.00493584 0)
(0.00237538 0.00383049 0)
(0.0022564 0.0021325 0)
(0.00226146 0.000919724 0)
(-0.00613525 -0.000242729 0)
(-0.00600334 0.000398015 0)
(-0.00579041 0.000894179 0)
(-0.00535616 0.00158762 0)
(-0.00444443 0.0021326 0)
(-0.00295832 0.0027156 0)
(-0.000632265 0.00282659 0)
(0.00295218 0.00221578 4.86943e-21)
(0.0100895 0.000701054 5.29405e-21)
(0.0196287 -0.00265456 -8.70585e-21)
(0.029112 -0.00841547 -4.55596e-20)
(0.0375524 -0.0154993 -1.62685e-20)
(0.0479932 -0.0228334 3.02105e-19)
(0.0374898 -0.0367749 -3.90401e-19)
(0.0394053 -0.0364533 9.37121e-20)
(0.0465231 -0.0364281 5.66152e-19)
(0.0289853 -0.0417184 -1.92894e-19)
(0.0127305 -0.0264693 7.41759e-19)
(0.000637136 -0.0272311 -3.00556e-20)
(-0.00380007 -0.0217897 -4.05195e-19)
(-0.00818001 -0.0155363 6.02411e-19)
(-0.012275 -0.0130085 -6.20075e-19)
(-0.0171657 -0.00712633 1.20308e-18)
(-0.0207446 -0.00333618 -1.30051e-19)
(-0.0158668 0.00862385 7.16192e-20)
(-0.00295791 0.00708245 5.52167e-20)
(-0.00397546 0.000356733 -5.92204e-20)
(-0.00614869 0.0100959 -5.03701e-20)
(-0.00893226 0.0119625 1.87184e-19)
(-0.00638597 0.0144954 -1.11878e-19)
(-0.00292043 0.0138442 8.55826e-21)
(0.000609933 0.0119818 5.70359e-20)
(0.00254996 0.0101112 -9.18062e-21)
(0.00204682 0.00926552 0)
(0.00158298 0.00801535 0)
(0.00141012 0.00658257 0)
(0.00139213 0.00515298 0)
(0.00145091 0.00398034 0)
(0.00149449 0.00230269 0)
(0.0017349 0.000830293 0)
(-0.00950991 0.00106479 0)
(-0.00969901 -0.000207772 0)
(-0.00985499 0.000643223 0)
(-0.00982847 0.000752365 0)
(-0.00951908 0.00207019 0)
(-0.00895805 0.00326634 0)
(-0.00785135 0.00445149 2.16616e-21)
(-0.00401842 0.00455791 -8.23974e-22)
(0.00453116 0.00386128 5.16327e-20)
(0.0135899 0.000117089 6.29104e-21)
(0.021727 -0.00749273 -8.14205e-20)
(0.0292696 -0.01359 -4.41873e-21)
(0.0356085 -0.0356855 -2.77504e-20)
(0.0288892 -0.0458157 -6.14065e-20)
(0.0358474 -0.0351913 1.18472e-19)
(0.0202277 -0.0379152 -4.25671e-19)
(0.0261247 -0.0497787 -2.54251e-19)
(0.00968237 -0.0475128 1.10116e-19)
(-0.002517 -0.0314867 4.06111e-19)
(-0.00654524 -0.0271852 -3.26265e-19)
(-0.012653 -0.0194679 6.05774e-19)
(-0.0218391 -0.0157603 6.06026e-19)
(-0.0269898 -0.00777842 -5.3926e-19)
(-0.0381302 0.0030599 -7.59329e-19)
(-0.0220091 0.00981376 -3.85156e-20)
(-0.0446284 0.012121 -1.23936e-19)
(-0.0299431 0.00365235 -4.98039e-21)
(-0.03251 0.0152425 -3.69984e-20)
(-0.0265766 0.00471253 -1.16643e-19)
(-0.0225435 0.0107505 7.20509e-20)
(-0.0170674 0.0125272 -1.41936e-20)
(-0.0105236 0.0125799 -3.66741e-22)
(-0.0042392 0.0112548 3.34421e-20)
(-0.00175944 0.0105076 3.13263e-21)
(-0.00130222 0.00941848 0)
(-0.000836144 0.00755833 0)
(-0.000346408 0.00607404 0)
(-6.41232e-07 0.00392179 0)
(0.000408121 0.00316773 0)
(0.000657888 -3.72595e-05 0)
(-0.012465 -0.00168589 0)
(-0.0131154 0.000161301 0)
(-0.0134781 -0.000273049 0)
(-0.0144842 0.00132979 0)
(-0.0153241 0.00256925 0)
(-0.016293 0.00396227 0)
(-0.0163483 0.00476515 2.89225e-21)
(-0.0117013 0.00454458 4.14213e-21)
(-0.00265832 0.00248067 1.34507e-21)
(0.00451039 -0.00244429 -3.69125e-20)
(0.0103151 -0.00727927 -1.19031e-20)
(0.0200695 -0.017313 9.91472e-20)
(0.0327219 -0.0476702 -6.37166e-20)
(0.0275495 -0.0411661 2.73336e-20)
(0.0296783 -0.0407154 -5.48271e-20)
(0.0139516 -0.0561078 2.79936e-20)
(0.00786929 -0.0448152 3.88907e-20)
(0.00294231 -0.0439645 2.91083e-19)
(-0.00042066 -0.0386217 1.20905e-19)
(-0.00731336 -0.0313053 6.87398e-20)
(-0.011379 -0.028943 1.92242e-20)
(-0.0291576 -0.0275799 4.61848e-19)
(-0.0452447 -0.0209124 1.99998e-19)
(-0.0596575 -0.0068069 2.56425e-19)
(-0.0648262 0.00579888 8.48227e-20)
(-0.0660841 0.022144 4.83429e-19)
(-0.0554183 0.014178 -4.33236e-20)
(-0.0585778 0.0300411 2.88391e-20)
(-0.0525089 0.0153025 -1.8274e-20)
(-0.0446213 0.0127328 9.00828e-21)
(-0.0341504 0.0123618 2.14685e-20)
(-0.023166 0.0145299 -1.35914e-20)
(-0.012482 0.0142283 -1.33742e-20)
(-0.00565743 0.0129088 4.71061e-21)
(-0.00354019 0.0119767 0)
(-0.00237376 0.010489 0)
(-0.00146359 0.00880552 0)
(-0.000914066 0.0075096 0)
(-0.000727014 0.00422365 0)
(-0.000312793 0.00365794 0)
(-0.0147805 4.67678e-06 0)
(-0.0155356 -0.00171895 0)
(-0.0165764 -0.00139873 0)
(-0.0184763 -0.000354982 0)
(-0.020186 0.000224709 0)
(-0.0220193 0.00101391 0)
(-0.0219731 0.000676855 1.2619e-21)
(-0.0166764 0.000178658 -3.5651e-21)
(-0.00771517 -0.00196708 -5.2876e-21)
(-5.69832e-05 -0.00844535 1.50537e-20)
(0.00369548 -0.0105279 3.36738e-21)
(0.0067025 -0.00790353 -1.8889e-20)
(0.0148664 -0.0213078 2.20997e-20)
(0.0310946 -0.031979 -5.90863e-20)
(0.0206957 -0.0379051 -6.26446e-20)
(0.0321842 -0.0377715 -5.08765e-20)
(0.0220341 -0.0446185 -2.18356e-20)
(0.00693928 -0.0406854 3.57602e-20)
(-0.00648103 -0.0380809 -6.41203e-20)
(-0.0120751 -0.0296519 1.20167e-19)
(-0.00459187 -0.030355 -1.08241e-19)
(-0.0240538 -0.0539421 5.75273e-20)
(-0.0726799 -0.0464165 -6.09985e-21)
(-0.0940958 -0.0136045 6.86221e-21)
(-0.09254 0.0224113 -3.92714e-21)
(-0.087612 0.0444054 -2.7012e-20)
(-0.084384 0.026145 2.78028e-20)
(-0.0762825 0.0357714 -2.23376e-21)
(-0.0738726 0.02287 -1.07419e-21)
(-0.0642294 0.0202807 -1.18296e-21)
(-0.0481699 0.0206442 -1.53948e-20)
(-0.0336002 0.020251 3.65385e-21)
(-0.0194625 0.0184425 6.74819e-22)
(-0.00833187 0.0166579 8.00344e-22)
(-0.00477859 0.0145958 0)
(-0.00383936 0.0116855 0)
(-0.0033326 0.00843617 0)
(-0.00237403 0.00626928 0)
(-0.00159546 0.00359925 0)
(-0.000462022 -0.00038259 0)
(-0.016478 0.000398574 0)
(-0.0167437 -0.00228776 0)
(-0.0179623 -0.00218882 0)
(-0.0183362 -0.00377973 0)
(-0.0202998 -0.00377036 0)
(-0.0229191 -0.00360742 0)
(-0.0224463 -0.00496103 -3.38937e-22)
(-0.0141684 -0.00677892 -7.01168e-22)
(-0.0065276 -0.00806476 1.12877e-21)
(-0.000657252 -0.0114192 -3.25717e-21)
(0.00682055 -0.015839 -1.11894e-21)
(0.00926752 -0.00892481 -1.72537e-21)
(0.0146814 -0.0134223 7.62953e-21)
(0.0234133 -0.025128 -2.59373e-20)
(0.0170332 -0.0218481 -1.92053e-20)
(0.0210787 -0.0363564 -2.88005e-20)
(0.0141358 -0.0371873 -3.65924e-20)
(0.0107791 -0.0406059 -5.83306e-21)
(0.0319622 -0.0871561 -3.3867e-19)
(-0.216382 -0.146861 -8.23471e-19)
(-0.1633 0.00654389 -1.64313e-20)
(-0.134655 0.0399312 1.96937e-20)
(-0.114748 0.0466906 3.93071e-20)
(-0.109655 0.0602579 1.81237e-20)
(-0.0907323 0.0398907 -8.09093e-22)
(-0.082235 0.0346462 -1.44181e-21)
(-0.0657783 0.0381702 3.84486e-21)
(-0.0501476 0.0336072 -7.90176e-22)
(-0.0361903 0.0278596 8.28058e-23)
(-0.0207621 0.0237689 6.54109e-22)
(-0.00638097 0.0210065 -8.13779e-23)
(-0.000720074 0.0183437 0)
(-0.000150363 0.0145534 0)
(-2.1138e-05 0.0114292 0)
(-0.000263152 0.00796608 0)
(0.000160944 0.00736594 0)
(-0.00103332 0.00185574 0)
(-0.0164302 -0.00353859 0)
(-0.0154764 -0.00368324 0)
(-0.0148137 -0.00517899 0)
(-0.0160409 -0.00602829 0)
(-0.0180322 -0.00704414 0)
(-0.0198689 -0.00805517 0)
(-0.0157439 -0.0102677 -5.96649e-22)
(-0.00515231 -0.0123728 -1.95164e-21)
(0.00804557 -0.0153095 -4.83106e-21)
(0.0159368 -0.0154108 -1.35534e-21)
(0.0280934 -0.0197831 1.25271e-20)
(0.0307092 -0.0122268 -5.31771e-20)
(0.0403545 -0.00398788 2.35753e-20)
(0.0481985 -0.0142323 1.1689e-20)
(0.0496884 -0.00540263 -5.38721e-20)
(0.0477827 -0.0180418 -4.02873e-20)
(0.0350293 -0.0307021 6.47309e-20)
(0.0365289 -0.0440221 -4.60517e-21)
(0.0103708 -0.0766312 -2.12121e-18)
(-0.0770451 -0.0681083 -2.42693e-19)
(-0.234298 0.117216 -5.42552e-21)
(-0.132811 0.116356 1.18123e-20)
(-0.0910654 0.0846557 -6.3597e-20)
(-0.082619 0.0919449 -5.87179e-20)
(-0.065507 0.0538657 1.11681e-20)
(-0.0587197 0.0530967 -2.74429e-20)
(-0.0485647 0.0528267 6.04024e-21)
(-0.0364903 0.0429847 -9.20492e-22)
(-0.0248433 0.0345764 4.61967e-21)
(-0.0114976 0.028908 -1.8274e-21)
(0.00167947 0.0237153 -1.02256e-21)
(0.00683469 0.0195465 0)
(0.00672806 0.0155738 0)
(0.00601764 0.0127781 0)
(0.00490574 0.0108906 0)
(0.00277802 0.0063311 0)
(0.00158152 0.00551189 0)
(-0.00895009 -0.000564105 1.44924e-23)
(-0.00952284 -0.00258025 0)
(-0.00906699 -0.00544192 0)
(-0.0078781 -0.00678705 0)
(-0.00648764 -0.00849243 0)
(-0.00602387 -0.00982775 0)
(0.00116643 -0.0128086 -2.57897e-21)
(0.0173267 -0.0135575 2.37066e-21)
(0.0359581 -0.0174237 -3.98887e-21)
(0.049341 -0.0157188 -4.09247e-22)
(0.0653553 -0.0190562 -6.11477e-20)
(0.0805578 -0.00588799 1.866e-19)
(0.0917144 0.0152921 -8.48141e-20)
(0.0978116 0.0133556 5.79359e-21)
(0.0990672 0.0122027 7.04281e-20)
(0.0889358 -0.0126126 -2.58374e-20)
(0.0673541 -0.0388284 -1.50285e-19)
(0.11536 -0.0906103 6.99175e-20)
(0.033558 -0.0845294 8.72028e-19)
(-0.447322 0.032227 -4.35954e-19)
(-0.291383 0.256241 -1.26964e-19)
(-0.0684297 0.209696 2.17189e-19)
(-0.0106232 0.137893 -1.5889e-19)
(-0.00736526 0.102727 -5.66368e-20)
(0.00546959 0.0552324 1.40761e-19)
(-0.00297077 0.0611873 -7.94482e-20)
(-0.00518531 0.05371 6.61092e-20)
(-0.00794013 0.0413186 4.71882e-20)
(-0.00172224 0.0350191 -9.00704e-21)
(0.00750169 0.0289941 -3.45474e-23)
(0.0172125 0.0225681 -5.75504e-22)
(0.0193068 0.0170907 0)
(0.0153177 0.011937 0)
(0.0119686 0.00767006 0)
(0.0102567 0.00471438 0)
(0.00917565 0.00129119 0)
(0.00973625 -0.00193805 0)
(-0.00412051 0.00241976 7.23989e-24)
(-0.00153514 0.00168063 0)
(0.00109025 -0.0010265 0)
(0.00287174 -0.00414283 0)
(0.00557179 -0.00734535 0)
(0.00967852 -0.00839234 0)
(0.0208946 -0.00822127 -2.99901e-21)
(0.0411657 -0.00538416 1.50334e-20)
(0.0631761 -0.00750686 -2.01986e-20)
(0.0845508 -0.000232455 9.78687e-21)
(0.107398 0.00402506 1.56247e-20)
(0.124689 0.0161216 -1.27869e-19)
(0.135285 0.0427338 1.02456e-19)
(0.120777 0.031738 -2.05287e-19)
(0.114716 0.0280463 -7.78503e-20)
(0.119409 0.00564211 -2.63631e-19)
(0.129123 -0.0242603 -5.88211e-19)
(0.271176 -0.127747 -3.34493e-20)
(0.138843 -0.219974 -1.52266e-19)
(0.151075 -0.243835 3.60648e-19)
(0.0837643 -0.340078 -4.84162e-22)
(-0.355198 -0.0977403 -4.13959e-19)
(-1.08571 0.296249 -9.44765e-20)
(-0.327863 0.372106 -1.50657e-19)
(0.0539335 0.284227 -2.07057e-19)
(0.0804122 0.187853 -1.68427e-19)
(0.0742919 0.107209 -3.43534e-19)
(0.0819551 0.0408337 1.62442e-20)
(0.06415 0.0377936 1.67917e-21)
(0.0423934 0.0313207 5.0744e-20)
(0.0305006 0.0261355 -1.01582e-19)
(0.0284198 0.0231169 3.91981e-20)
(0.0311771 0.019481 -4.30157e-21)
(0.0374605 0.0159121 -9.43495e-22)
(0.0369609 0.0124703 0)
(0.0311346 0.00893612 0)
(0.0271686 0.00578331 0)
(0.0239836 0.00289846 0)
(0.0207416 0.00164326 0)
(0.0175249 0.000258584 0)
(0.00900717 0.000502761 2.00837e-21)
(0.00895957 0.000940761 0)
(0.0112163 0.00163619 0)
(0.0143749 0.0011042 0)
(0.0183099 0.000292602 0)
(0.0218555 0.000901187 0)
(0.0311413 0.00138385 -5.53004e-23)
(0.0524033 0.00616571 4.65998e-21)
(0.0771141 0.00835278 -4.54261e-21)
(0.100842 0.0196127 2.80915e-21)
(0.118794 0.0228142 -1.68783e-20)
(0.130007 0.0332752 7.57299e-20)
(0.125707 0.0330532 -2.83817e-20)
(0.119808 0.0428819 -1.47097e-19)
(0.122886 0.0578103 5.00833e-19)
(0.133056 0.0659145 1.2469e-19)
(0.174712 0.066142 2.29283e-19)
(0.436213 0.0307506 3.19276e-21)
(0.119997 -0.0556516 -7.96049e-19)
(-0.0361945 0.104265 3.41021e-18)
(-0.240767 0.359376 -2.48154e-19)
(-0.762522 0.66275 -2.76524e-19)
(-1.06132 0.648573 -1.17647e-18)
(-0.104055 0.409566 -1.17201e-19)
(0.224346 0.29922 -2.84214e-19)
(0.183338 0.173018 5.58406e-19)
(0.129065 0.0913142 3.17577e-21)
(0.110184 0.0228872 1.11737e-19)
(0.0781394 0.00290257 1.27448e-19)
(0.0650062 -0.00189669 5.0208e-20)
(0.0567014 -0.000466558 1.35917e-20)
(0.0523758 0.00184 8.60618e-21)
(0.0525806 0.00315133 1.52969e-21)
(0.0556028 0.00360144 -1.59962e-22)
(0.0501341 0.00236973 0)
(0.0450137 0.00257601 0)
(0.0401532 0.00258268 0)
(0.035855 0.00171767 0)
(0.0333372 0.000823022 0)
(0.0322333 0.000498383 -6.78964e-23)
(0.0169331 0.000225525 3.06577e-21)
(0.0164137 0.0020717 0)
(0.0170357 0.0039586 0)
(0.0188239 0.00520176 0)
(0.022278 0.00565764 0)
(0.0266239 0.00645839 0)
(0.0343558 0.00805035 0)
(0.0527133 0.0137693 1.98191e-21)
(0.0752133 0.0154218 5.05774e-21)
(0.0953 0.0237278 3.75218e-20)
(0.109156 0.0236943 3.34506e-22)
(0.122748 0.0140194 -8.79937e-20)
(0.109355 0.0208677 -1.62422e-19)
(0.0973342 0.0643645 1.78826e-19)
(0.106852 0.0795113 -1.73096e-19)
(0.0893947 0.107152 6.28675e-20)
(0.125591 0.161686 9.6167e-19)
(0.385175 0.218747 3.74855e-19)
(0.0394342 0.311277 1.59329e-20)
(-0.202917 0.147376 -7.98259e-19)
(-0.711195 0.609383 -5.70753e-19)
(-0.956519 0.535998 -1.12451e-18)
(-0.567387 0.58118 4.35062e-19)
(0.214223 0.286811 6.19466e-18)
(0.41994 0.147749 6.89876e-20)
(0.279854 0.059127 -6.73958e-19)
(0.16361 -0.00907582 -1.23573e-19)
(0.107576 -0.0230916 1.73688e-19)
(0.065543 -0.0340049 7.81219e-21)
(0.0562907 -0.0309049 4.61246e-20)
(0.0484728 -0.0290128 -2.34323e-20)
(0.0528177 -0.0195162 -1.80092e-20)
(0.0577794 -0.0172406 -1.67879e-21)
(0.0601189 -0.0141093 0)
(0.0534856 -0.0114911 0)
(0.0466397 -0.00807405 0)
(0.0405896 -0.00616232 0)
(0.0367191 -0.00459898 0)
(0.0355646 -0.00279402 0)
(0.036333 -0.000903182 -3.32377e-21)
(0.0175396 -0.000407214 -4.81715e-24)
(0.0175158 0.00239535 0)
(0.0173344 0.00440715 0)
(0.01803 0.00668589 0)
(0.0197221 0.00902299 0)
(0.0230614 0.011195 0)
(0.0297141 0.0135182 0)
(0.0431485 0.0189952 0)
(0.0618923 0.018936 4.07067e-24)
(0.0806935 0.0223758 -1.16794e-20)
(0.088383 0.0247344 1.20086e-20)
(0.100365 0.0139688 -4.65744e-20)
(0.101097 0.00309403 8.82693e-20)
(0.0807276 0.0316904 -8.63921e-20)
(0.0638832 0.0683418 1.48863e-19)
(0.01335 0.0588614 -1.99087e-19)
(0.0230591 0.149247 1.51868e-20)
(0.24492 0.174505 4.28411e-19)
(-0.186065 0.385365 -1.06423e-18)
(-0.441668 0.606487 2.09198e-19)
(-0.687253 0.151719 -1.07836e-18)
(-0.963393 0.0401692 2.04734e-18)
(-0.494786 0.0638178 6.48637e-19)
(0.574305 -0.0127588 6.23015e-18)
(0.508342 -0.148092 4.02573e-20)
(0.294749 -0.104742 2.11432e-19)
(0.138722 -0.107945 1.81066e-19)
(0.0770753 -0.0847118 -9.01094e-20)
(0.0408415 -0.0676043 -5.38528e-20)
(0.0320043 -0.053906 -2.67723e-20)
(0.0332459 -0.0493459 1.49163e-20)
(0.0434829 -0.0393684 -3.7769e-21)
(0.0502726 -0.035697 0)
(0.054145 -0.0283898 0)
(0.0495145 -0.0234167 0)
(0.0444927 -0.0174474 0)
(0.0401266 -0.0137726 -9.90662e-21)
(0.0367944 -0.00993415 -1.37002e-20)
(0.0345576 -0.00470413 -8.16957e-21)
(0.0339014 -0.000661187 0)
(0.0139711 0.000504269 0)
(0.0133187 0.00316732 0)
(0.0121155 0.00472879 0)
(0.0112858 0.00738463 0)
(0.0102644 0.0104232 0)
(0.0111513 0.0134067 0)
(0.0156638 0.0144643 0)
(0.0261973 0.016691 0)
(0.0390037 0.0169987 -1.07004e-23)
(0.0538365 0.0201117 7.15201e-22)
(0.0622581 0.0232818 -7.7728e-22)
(0.0594044 0.0203611 6.83015e-21)
(0.0684209 0.00715245 3.9765e-20)
(0.0603667 -0.0204497 -4.20646e-20)
(0.00394803 -0.00367171 -1.46538e-18)
(-0.0309839 -0.00188961 -4.24934e-19)
(0.0197508 -0.0264475 -6.56006e-19)
(-0.130544 0.0245056 4.11643e-20)
(-0.217758 0.00399406 -7.60137e-19)
(-0.631236 -0.126784 -3.71625e-19)
(-0.632573 0.127274 -9.8463e-19)
(-0.459954 -0.120218 8.81118e-19)
(-0.248318 -0.521717 -9.67545e-19)
(0.512635 -0.532942 -4.37534e-19)
(0.588447 -0.37994 2.14763e-19)
(0.217806 -0.275756 9.00292e-20)
(0.085536 -0.192669 -1.40253e-19)
(0.0418574 -0.131831 9.72473e-20)
(0.0176005 -0.0948258 2.9578e-20)
(0.0110234 -0.0754394 3.78416e-21)
(0.0155296 -0.0675786 -1.81538e-22)
(0.0262876 -0.0526115 -7.29418e-24)
(0.0350736 -0.0465858 0)
(0.0416944 -0.0367459 0)
(0.0411904 -0.0311325 0)
(0.0389631 -0.0234646 0)
(0.036927 -0.0186265 0)
(0.0352813 -0.013331 0)
(0.0334341 -0.00750731 0)
(0.0319106 -0.00142322 1.47135e-21)
(0.00578169 0.0014281 0)
(0.00579237 0.0025232 0)
(0.00409046 0.00373107 0)
(0.00265055 0.0058685 0)
(0.000802961 0.00770672 0)
(0.00015897 0.00992794 0)
(0.00309998 0.0103218 0)
(0.0133193 0.010566 0)
(0.0240007 0.00884459 0)
(0.0335414 0.0125414 0)
(0.0406588 0.00896208 2.72911e-21)
(0.0318737 0.00926809 -1.78856e-20)
(0.0289516 0.00385606 1.88793e-20)
(0.0203908 -0.0585079 -4.16316e-20)
(0.0418546 -0.0419398 -3.43975e-18)
(0.0650709 -0.0772122 1.21702e-19)
(0.087398 -0.154878 -1.29456e-18)
(-0.169021 -0.223901 3.14539e-19)
(-0.276545 -0.230924 1.01344e-18)
(-0.403919 -0.191897 9.97819e-19)
(-0.510953 -0.263898 -1.71361e-19)
(-0.345666 -0.473391 1.21402e-18)
(0.0748157 -0.670022 6.3272e-19)
(0.573549 -0.626071 3.34898e-19)
(0.347765 -0.489685 3.76759e-19)
(0.0514289 -0.35063 4.36002e-20)
(-0.000199649 -0.216448 1.61782e-20)
(-0.00595138 -0.159365 -3.31443e-21)
(-0.00694854 -0.117587 9.18267e-21)
(-0.00867405 -0.0931633 -1.51322e-21)
(-0.000501209 -0.0763162 0)
(0.0107478 -0.0585894 0)
(0.0207988 -0.0515857 0)
(0.0285231 -0.0408762 0)
(0.0301567 -0.0343787 0)
(0.0292915 -0.0261047 0)
(0.0283334 -0.0212529 0)
(0.0278522 -0.015629 0)
(0.026871 -0.00946849 0)
(0.0260532 -0.00297221 0)
(0.000607643 0.000619648 0)
(0.00132184 0.000539541 0)
(0.000562319 0.000833647 0)
(-0.000952187 0.00144939 0)
(-0.0033203 0.00175902 0)
(-0.00430984 0.0024512 0)
(-0.00157963 0.00258395 0)
(0.00789004 0.003117 0)
(0.0164344 -0.000429184 0)
(0.0222109 0.00502619 0)
(0.0287605 -0.00338177 0)
(0.0234052 -0.00064085 2.76401e-22)
(0.0199774 0.00722809 -2.7712e-21)
(0.0329344 -0.00653918 -2.20429e-22)
(0.0306354 -0.0920025 -1.10152e-18)
(0.155898 -0.118942 3.09622e-19)
(0.142547 -0.113534 -1.14565e-18)
(-0.206887 -0.174536 -1.23162e-19)
(-0.227863 -0.219366 1.11142e-18)
(-0.268594 -0.319902 3.46198e-20)
(-0.292541 -0.433357 -2.2118e-19)
(-0.10813 -0.494085 -1.35247e-18)
(0.214608 -0.582106 -5.36838e-19)
(0.401907 -0.549493 4.58322e-19)
(0.216176 -0.386903 -1.2664e-19)
(-0.150547 -0.277684 1.10607e-19)
(-0.108229 -0.18099 1.46023e-19)
(-0.0706485 -0.156331 1.62969e-21)
(-0.0458266 -0.118787 -1.98758e-22)
(-0.0358496 -0.10031 0)
(-0.019709 -0.0791925 0)
(-0.00693048 -0.0637328 0)
(0.00515601 -0.054627 0)
(0.0138105 -0.0421846 0)
(0.0169707 -0.034415 0)
(0.016974 -0.0259344 0)
(0.0167482 -0.0202772 0)
(0.0172283 -0.0141516 0)
(0.0172926 -0.00822299 0)
(0.0170728 -0.00286773 0)
(0.00196083 -0.000389544 0)
(0.00182665 -0.0017404 0)
(0.00103954 -0.00253365 0)
(-0.000493175 -0.00355834 0)
(-0.00307847 -0.00492718 0)
(-0.00477204 -0.00583727 0)
(-0.00188561 -0.00672159 0)
(0.00649351 -0.00601831 0)
(0.0133546 -0.00818962 0)
(0.0180259 -0.000586124 0)
(0.0227352 -0.00341526 -1.68548e-21)
(0.0337517 -0.0121462 0)
(0.0268232 0.0244455 0)
(0.0816426 -0.00221352 -3.22625e-19)
(0.201106 -0.106863 9.6619e-19)
(0.136607 -0.1381 -1.93067e-18)
(-0.213636 0.051202 -3.23802e-20)
(-0.180348 0.153088 -9.47733e-21)
(-0.107211 0.194628 6.60952e-19)
(-0.0149413 0.0977595 9.65021e-18)
(-0.112868 -0.149076 -4.08681e-19)
(0.0447925 -0.34741 4.8438e-19)
(0.24489 -0.477753 2.43482e-19)
(0.305015 -0.474289 3.54843e-20)
(-0.0376589 -0.228225 2.8267e-20)
(-0.218937 -0.14733 1.92467e-19)
(-0.1882 -0.13112 6.24553e-19)
(-0.13 -0.105731 0)
(-0.094833 -0.0919504 0)
(-0.0721662 -0.0863451 1.34669e-21)
(-0.0464359 -0.0704981 0)
(-0.0302371 -0.06135 0)
(-0.0148043 -0.0520753 0)
(-0.00460217 -0.0400221 0)
(0.00115504 -0.0319918 0)
(0.00347113 -0.0237944 0)
(0.00509897 -0.0176907 0)
(0.00662816 -0.01203 1.63045e-21)
(0.00717542 -0.00698803 1.16971e-21)
(0.00704285 -0.00221628 0)
(0.00492252 -0.00128489 0)
(0.00356775 -0.00372196 0)
(0.00223856 -0.00572512 0)
(0.00038211 -0.00800161 0)
(-0.00196026 -0.010715 0)
(-0.00358119 -0.0130715 0)
(-0.000501072 -0.0149604 0)
(0.0068853 -0.0146739 0)
(0.0115232 -0.012749 0)
(0.016668 -0.000792756 0)
(0.0158871 0.013454 -2.70715e-20)
(0.0378885 0.00769225 0)
(0.0524539 0.0582931 0)
(0.150396 0.165487 -1.02798e-19)
(0.220877 0.0365293 1.03013e-18)
(-0.260632 0.200622 -2.38578e-21)
(-0.422458 0.346275 0)
(-0.147278 0.286917 -1.08665e-19)
(0.0908874 0.175914 -2.26967e-18)
(0.181986 0.0746076 5.90911e-19)
(0.151534 -0.0269059 -1.45817e-18)
(0.186985 -0.100187 2.74137e-19)
(0.132875 -0.104076 8.31728e-20)
(-0.0156925 -0.122968 0)
(-0.23111 -0.162093 3.28057e-20)
(-0.272339 -0.0949069 -5.51622e-20)
(-0.209679 -0.0896171 -1.41712e-20)
(-0.150998 -0.0596535 0)
(-0.123139 -0.0621472 0)
(-0.0948362 -0.0583688 -7.88592e-21)
(-0.066252 -0.0501152 0)
(-0.0503377 -0.0481457 0)
(-0.0338835 -0.0414815 0)
(-0.0217548 -0.0328273 0)
(-0.0137225 -0.0265575 0)
(-0.00936981 -0.0198987 -2.94972e-21)
(-0.00611779 -0.0143106 3.83311e-21)
(-0.00356212 -0.00904871 0)
(-0.00170118 -0.00521692 0)
(-0.000799083 -0.00153171 9.00768e-21)
(0.00784554 -0.00168383 0)
(0.00637215 -0.00534237 0)
(0.00540552 -0.00871446 0)
(0.00390679 -0.0123335 0)
(0.00182606 -0.0163395 0)
(0.000122596 -0.0197455 0)
(0.00164358 -0.0216833 1.4504e-21)
(0.00597852 -0.0213144 0)
(0.00622583 -0.0146594 0)
(0.00839763 -0.00287869 0)
(-0.00365473 0.0293471 0)