/*--------------------------------*- C++ -*----------------------------------*\
| =========                 |                                                 |
| \\      /  F ield         | OpenFOAM: The Open Source CFD Toolbox           |
|  \\    /   O peration     | Version:  2112                                  |
|   \\  /    A nd           | Website:  www.openfoam.com                      |
|    \\/     M anipulation  |                                                 |
\*---------------------------------------------------------------------------*/
FoamFile
{
    version     2.0;
    format      ascii;
    arch        "LSB;label=32;scalar=64";
    class       volVectorField;
    location    "0";
    object      Ulift0;
}
// * * * * * * * * * * * * * * * * * * * * * * * * * * * * * * * * * * * * * //

dimensions      [0 1 -1 0 0 0 0];

internalField   nonuniform List<vector> 
11644
(
(1.00019 -0.000141934 0)
(1.00019 -0.000425169 0)
(1.00019 -0.000709356 0)
(1.0002 -0.000997463 0)
(1.0002 -0.00129098 0)
(1.00021 -0.00159083 0)
(1.00021 -0.00189532 0)
(1.0002 -0.00219625 0)
(1.00018 -0.0024755 0)
(1.00012 -0.0026984 0)
(1.00004 -0.00281857 0)
(0.999989 -0.00283924 0)
(0.999753 -0.00264978 0)
(1.00015 -0.00257746 0)
(1.0004 -0.00298373 0)
(0.999885 -0.00319621 0)
(0.999632 -0.00284121 0)
(0.999384 -0.00211778 0)
(0.999261 -0.00112127 0)
(0.999127 6.45083e-05 4.07105e-34)
(0.999141 0.00133857 8.44759e-33)
(0.9993 0.00248481 0)
(0.99946 0.00339632 0)
(0.999694 0.00401845 0)
(0.999955 0.00427662 0)
(1.00045 0.00397803 0)
(1.00024 0.00346663 0)
(0.999859 0.0033907 0)
(1.00005 0.00345915 0)
(1.00011 0.00334485 0)
(1.00018 0.00313402 0)
(1.00022 0.00283719 0)
(1.00024 0.00249511 0)
(1.00024 0.00214024 0)
(1.00024 0.00178849 0)
(1.00023 0.0014458 0)
(1.00022 0.00111315 0)
(1.00022 0.00078919 0)
(1.00021 0.00047192 0)
(1.00021 0.000157338 0)
(1.00104 -0.000478581 0)
(1.00103 -0.00143533 0)
(1.00104 -0.00239589 0)
(1.00106 -0.00336541 0)
(1.00107 -0.00434326 0)
(1.00108 -0.00532506 0)
(1.00108 -0.00630281 0)
(1.00105 -0.0072665 0)
(1.00099 -0.00820586 0)
(1.00086 -0.00911716 0)
(1.00066 -0.00999748 0)
(1.00045 -0.010775 0)
(1.00006 -0.0115307 0)
(0.99983 -0.0115966 0)
(0.999427 -0.0102376 0)
(0.998649 -0.00839788 0)
(0.997958 -0.00661269 0)
(0.997199 -0.00449826 0)
(0.996676 -0.00198732 0)
(0.996381 0.000746684 0)
(0.996429 0.00348549 0)
(0.99682 0.00615725 0)
(0.997428 0.0085638 0)
(0.998233 0.0105097 0)
(0.99903 0.0120058 0)
(0.99987 0.013412 0)
(1.00028 0.014322 0)
(1.00046 0.01393 0)
(1.00081 0.0128614 0)
(1.00101 0.0117517 0)
(1.00116 0.0105808 0)
(1.00125 0.00940422 0)
(1.00128 0.00822627 0)
(1.00128 0.00705583 0)
(1.00125 0.00590343 0)
(1.00122 0.0047768 0)
(1.00118 0.00367862 0)
(1.00116 0.0026072 0)
(1.00114 0.00155728 0)
(1.00113 0.000518437 0)
(1.00279 -0.00081091 0)
(1.00279 -0.00243435 0)
(1.00282 -0.00406649 0)
(1.00285 -0.00571473 0)
(1.00288 -0.00738041 0)
(1.00289 -0.00905893 0)
(1.00288 -0.0107365 0)
(1.0028 -0.012385 0)
(1.00264 -0.013952 0)
(1.00234 -0.0153456 0)
(1.00186 -0.0164317 0)
(1.00121 -0.0170956 0)
(1.00022 -0.0170172 0)
(0.999348 -0.0167115 0)
(0.998074 -0.016721 0)
(0.9962 -0.0157652 0)
(0.994453 -0.0131738 0)
(0.992719 -0.0094188 0)
(0.991476 -0.0048148 0)
(0.990797 0.000376811 1.90241e-32)
(0.990924 0.00578797 2.92218e-31)
(0.991853 0.0108129 0)
(0.993318 0.0150782 0)
(0.99524 0.0183537 0)
(0.997127 0.0204566 0)
(0.999097 0.0210178 0)
(1.00038 0.0206042 0)
(1.0012 0.0203783 0)
(1.00214 0.0199222 0)
(1.00271 0.018801 0)
(1.0031 0.0172914 0)
(1.00331 0.0155243 0)
(1.00338 0.0136423 0)
(1.00337 0.011727 0)
(1.00331 0.00982297 0)
(1.00323 0.00795332 0)
(1.00315 0.00612686 0)
(1.00308 0.0043425 0)
(1.00302 0.00259239 0)
(1.00301 0.000862278 0)
(1.00546 -0.00114916 0)
(1.00547 -0.00345392 0)
(1.00552 -0.0057809 0)
(1.0056 -0.00814486 0)
(1.00567 -0.010553 0)
(1.00572 -0.0130035 0)
(1.0057 -0.0154817 0)
(1.00559 -0.0179583 0)
(1.0053 -0.0203913 0)
(1.00476 -0.0227323 0)
(1.0039 -0.0249267 0)
(1.0027 -0.0268564 0)
(1.00111 -0.0286831 0)
(0.998876 -0.0292969 0)
(0.995929 -0.0273659 0)
(0.992586 -0.024091 0)
(0.989109 -0.0201006 0)
(0.985626 -0.0147184 0)
(0.983048 -0.00791848 0)
(0.981713 -0.000243729 0)
(0.981963 0.00760287 0)
(0.983765 0.0151034 0)
(0.986751 0.0216053 0)
(0.990579 0.0265793 0)
(0.994285 0.0299887 0)
(0.997786 0.0324776 0)
(1.00075 0.0335792 0)
(1.00285 0.0323177 0)
(1.00434 0.0299418 0)
(1.00542 0.0274526 0)
(1.00611 0.0247566 0)
(1.00647 0.0219846 0)
(1.00659 0.0191859 0)
(1.00655 0.0164099 0)
(1.00642 0.0136924 0)
(1.00625 0.0110526 0)
(1.00609 0.00849431 0)
(1.00594 0.00600973 0)
(1.00584 0.00358281 0)
(1.0058 0.00119066 0)
(1.00904 -0.00148892 0)
(1.00908 -0.00447995 0)
(1.0092 -0.00751254 0)
(1.00935 -0.0106133 0)
(1.00952 -0.0138015 0)
(1.00966 -0.0170872 0)
(1.00973 -0.0204678 0)
(1.00963 -0.0239193 0)
(1.00927 -0.0273815 0)
(1.00853 -0.030737 0)
(1.00724 -0.0337749 0)
(1.0053 -0.0362176 0)
(1.00265 -0.03744 0)
(0.999026 -0.0380738 0)
(0.993963 -0.038674 0)
(0.98799 -0.0371332 0)
(0.981574 -0.0322176 0)
(0.975275 -0.0244649 0)
(0.970372 -0.0143534 0)
(0.967715 -0.00243729 2.04922e-22)
(0.968117 0.0101665 2.05007e-22)
(0.971539 0.0218153 0)
(0.977033 0.0314295 0)
(0.983913 0.0384859 0)
(0.990651 0.0426373 0)
(0.996923 0.0434472 0)
(1.00189 0.0421388 0)
(1.00532 0.0407419 0)
(1.00782 0.0387395 0)
(1.00948 0.0356868 0)
(1.01048 0.0321889 0)
(1.01094 0.0284642 0)
(1.01103 0.0247096 0)
(1.01089 0.0210275 0)
(1.01062 0.0174681 0)
(1.0103 0.0140488 0)
(1.00999 0.0107656 0)
(1.00973 0.00759987 0)
(1.00954 0.00452365 0)
(1.00946 0.00150197 0)
(1.01353 -0.00180769 0)
(1.01361 -0.0054453 0)
(1.01383 -0.00915094 0)
(1.01413 -0.0129694 0)
(1.01448 -0.016939 0)
(1.01482 -0.0210887 0)
(1.01507 -0.025432 0)
(1.01513 -0.0299622 0)
(1.01485 -0.0346483 0)
(1.01403 -0.0394379 0)
(1.01245 -0.0442725 0)
(1.00986 -0.049012 0)
(1.00627 -0.0538091 0)
(1.00088 -0.0572097 0)
(0.992331 -0.0567884 0)
(0.982807 -0.0533363 0)
(0.971627 -0.0471497 0)
(0.960716 -0.0369125 0)
(0.951725 -0.0226427 0)
(0.946694 -0.00542858 2.0047e-22)
(0.947303 0.0126895 1.75524e-22)
(0.953493 0.0295774 0)
(0.963431 0.0432007 0)
(0.975129 0.0525781 0)
(0.986679 0.0577856 0)
(0.996309 0.0603318 0)
(1.0048 0.0599374 0)
(1.01003 0.0557254 0)
(1.0132 0.0503118 0)
(1.01535 0.0450904 0)
(1.0165 0.0398366 0)
(1.0169 0.0347467 0)
(1.01681 0.0298669 0)
(1.01643 0.0252256 0)
(1.01589 0.0208341 0)
(1.01532 0.0166818 0)
(1.01479 0.0127412 0)
(1.01435 0.00897355 0)
(1.01405 0.00533314 0)
(1.01391 0.00176933 0)
(1.01882 -0.00208622 0)
(1.01898 -0.00629226 0)
(1.01936 -0.0105998 0)
(1.01989 -0.0150759 0)
(1.02053 -0.0197839 0)
(1.02121 -0.0247809 0)
(1.02184 -0.0301161 0)
(1.02229 -0.0358222 0)
(1.02235 -0.0419128 0)
(1.0218 -0.0483535 0)
(1.02031 -0.0550166 0)
(1.01742 -0.0616189 0)
(1.01254 -0.0669934 0)
(1.00624 -0.0721523 0)
(0.993132 -0.0771163 0)
(0.978364 -0.0779153 0)
(0.966674 -0.0692045 0)
(0.951056 -0.0580799 0)
(0.935832 -0.0404607 0)
(0.925988 -0.0166218 0)
(0.924438 0.0105515 -2.44697e-23)
(0.931915 0.0362239 0)
(0.945832 0.0563676 0)
(0.962868 0.0698938 0)
(0.983854 0.0815371 0)
(0.998631 0.0793395 0)
(1.01139 0.0731715 0)
(1.01714 0.0673052 0)
(1.02146 0.0614091 0)
(1.02374 0.0543869 0)
(1.02463 0.0474999 0)
(1.02463 0.0409305 0)
(1.02407 0.034787 0)
(1.02321 0.0291016 0)
(1.02223 0.0238476 0)
(1.02126 0.0189752 0)
(1.0204 0.0144225 0)
(1.01971 0.0101217 0)
(1.01924 0.00600141 0)
(1.01902 0.00198867 0)
(1.0248 -0.00230898 0)
(1.02507 -0.00697347 0)
(1.02566 -0.011778 0)
(1.02652 -0.0168179 0)
(1.0276 -0.0221911 0)
(1.02883 -0.0279977 0)
(1.0301 -0.0343381 0)
(1.03127 -0.0413122 0)
(1.0321 -0.0489943 0)
(1.03229 -0.0574331 0)
(1.03141 -0.0666438 0)
(1.02893 -0.0766732 0)
(1.02369 -0.0879746 0)
(1.01304 -0.0971929 0)
(1.00076 -0.0991862 0)
(0.98401 -0.102638 0)
(0.959941 -0.102828 0)
(0.930282 -0.0916806 -3.94006e-22)
(0.900729 -0.067685 1.90742e-22)
(0.879623 -0.0300147 9.31343e-23)
(0.875719 0.0155133 2.31801e-23)
(0.891359 0.0576766 0)
(0.919194 0.0874098 -1.03724e-28)
(0.950765 0.103384 0)
(0.978019 0.106268 0)
(1.00004 0.101846 0)
(1.01451 0.0978269 0)
(1.02927 0.0857098 0)
(1.03355 0.073789 0)
(1.03508 0.0635749 0)
(1.03515 0.0543818 0)
(1.03426 0.0461357 0)
(1.03284 0.0387535 0)
(1.03119 0.0321229 0)
(1.02953 0.0261379 0)
(1.028 0.0206867 0)
(1.02669 0.015662 0)
(1.02567 0.0109612 0)
(1.02497 0.00648736 0)
(1.02465 0.00214771 0)
(1.03127 -0.00244549 0)
(1.03168 -0.00739459 0)
(1.03256 -0.0125177 0)
(1.03385 -0.0179342 0)
(1.03552 -0.0237714 0)
(1.0375 -0.0301654 0)
(1.03971 -0.0372638 0)
(1.04198 -0.0452276 0)
(1.04411 -0.0542522 0)
(1.04577 -0.0645551 0)
(1.04657 -0.0764033 0)
(1.04594 -0.0900257 0)
(1.04354 -0.105824 0)
(1.02916 -0.120146 0)
(1.01681 -0.130079 0)
(0.995113 -0.14409 0)
(0.961319 -0.147733 0)
(0.916286 -0.144824 9.70228e-23)
(0.862291 -0.119636 3.95875e-25)
(0.816758 -0.0634605 0)
(0.802926 0.0155731 -2.63089e-24)
(0.830951 0.0899656 2.97704e-25)
(0.883618 0.135702 -4.67815e-23)
(0.938012 0.151793 0)
(0.978984 0.148173 0)
(1.01537 0.135727 0)
(1.03169 0.122118 0)
(1.04987 0.10155 0)
(1.05095 0.0855303 0)
(1.05027 0.0717815 0)
(1.04835 0.0600997 0)
(1.0458 0.0501536 0)
(1.043 0.0415807 0)
(1.0402 0.0341184 0)
(1.0376 0.0275428 0)
(1.03533 0.0216677 0)
(1.03345 0.0163313 0)
(1.03202 0.0113936 0)
(1.03105 0.00672978 0)
(1.0306 0.00222571 0)
(1.03796 -0.00247365 0)
(1.03854 -0.00748874 0)
(1.03976 -0.0127066 0)
(1.04158 -0.0182682 0)
(1.04397 -0.0243297 0)
(1.04691 -0.0310671 0)
(1.05032 -0.0386874 0)
(1.0541 -0.0474347 0)
(1.05809 -0.0575965 0)
(1.06207 -0.0695567 0)
(1.06574 -0.0837867 0)
(1.06849 -0.100845 0)
(1.06988 -0.121004 0)
(1.05671 -0.14096 0)
(1.04768 -0.161798 0)
(1.02243 -0.188661 0)
(0.984271 -0.211682 0)
(0.918796 -0.234589 0)
(0.815729 -0.228599 -2.15946e-23)
(0.696705 -0.146812 1.94542e-24)
(0.645198 0.0194902 9.84005e-31)
(0.716843 0.17661 0)
(0.841788 0.242276 1.60377e-24)
(0.942451 0.237277 1.24746e-23)
(1.00983 0.208522 0)
(1.05194 0.173014 0)
(1.06281 0.144147 0)
(1.07643 0.112681 0)
(1.0734 0.09266 0)
(1.06884 0.0762485 0)
(1.06384 0.0628888 0)
(1.0589 0.0518197 0)
(1.05419 0.0425362 0)
(1.0499 0.0346355 0)
(1.04614 0.0278002 0)
(1.04297 0.0217752 0)
(1.04043 0.016359 0)
(1.03852 0.0113863 0)
(1.03725 0.00671487 0)
(1.03664 0.00221896 0)
(1.04455 -0.00237707 0)
(1.04533 -0.00720325 0)
(1.04692 -0.0122442 0)
(1.04933 -0.0176504 0)
(1.05254 -0.0235912 0)
(1.05657 -0.0302611 0)
(1.0614 -0.0378896 0)
(1.06698 -0.0467595 0)
(1.07325 -0.0572185 0)
(1.08012 -0.0696734 0)
(1.08747 -0.0846876 0)
(1.09506 -0.10314 0)
(1.10188 -0.126038 0)
(1.09531 -0.151515 0)
(1.09684 -0.182414 0)
(1.08181 -0.225979 0)
(1.0547 -0.281522 -4.6578e-25)
(0.993182 -0.370671 -1.54606e-28)
(0.829853 -0.470975 -6.24208e-24)
(0.463062 -0.447112 -4.63684e-27)
(0.182942 0.0342037 0)
(0.504797 0.485618 -1.30182e-22)
(0.867886 0.480796 -1.14957e-23)
(1.02724 0.361647 -1.1203e-23)
(1.08745 0.265131 0)
(1.11056 0.195906 0)
(1.10792 0.154819 0)
(1.10843 0.114149 0)
(1.09889 0.0919209 0)
(1.0891 0.0747113 0)
(1.08035 0.061048 0)
(1.07253 0.0499565 0)
(1.06563 0.0408015 0)
(1.05967 0.0331054 0)
(1.05464 0.0265052 0)
(1.05052 0.020727 0)
(1.04727 0.0155574 0)
(1.04487 0.0108231 0)
(1.04329 0.00638102 0)
(1.04253 0.00210828 0)
(1.0507 -0.00214212 0)
(1.05167 -0.00649572 0)
(1.05364 -0.0110553 0)
(1.05664 -0.0159653 0)
(1.06069 -0.0213919 0)
(1.06584 -0.0275273 0)
(1.07212 -0.0346021 0)
(1.0796 -0.0428946 0)
(1.08829 -0.0527613 0)
(1.09819 -0.0646403 0)
(1.10946 -0.0790729 0)
(1.12228 -0.096784 0)
(1.13611 -0.119049 0)
(1.1391 -0.146012 0)
(1.15487 -0.17817 0)
(1.16236 -0.228069 0)
(1.17731 -0.297037 0)
(1.2058 -0.422474 0)
(0.874683 -0.473526 9.296e-23)
(1.05439 0.552889 -5.60144e-23)
(1.24596 0.401099 -5.31141e-24)
(1.20701 0.265484 -6.39042e-23)
(1.18233 0.184983 0)
(1.15891 0.143282 0)
(1.1411 0.102068 0)
(1.12366 0.0820907 0)
(1.10862 0.0667618 0)
(1.09603 0.05456 0)
(1.08537 0.044697 0)
(1.07632 0.0365638 0)
(1.06877 0.0297152 0)
(1.06254 0.0238224 0)
(1.05752 0.0186493 0)
(1.05362 0.0140084 0)
(1.05076 0.00975033 0)
(1.04888 0.00574994 0)
(1.04798 0.00189988 0)
(1.05604 -0.00178167 0)
(1.05718 -0.00540605 0)
(1.0595 -0.00921043 0)
(1.06305 -0.0133203 0)
(1.06787 -0.0178806 0)
(1.07405 -0.0230616 0)
(1.08169 -0.0290624 0)
(1.09092 -0.0361266 0)
(1.10185 -0.0445494 0)
(1.11462 -0.0547146 0)
(1.12947 -0.0670556 0)
(1.14688 -0.0821182 0)
(1.16666 -0.100376 0)
(1.17775 -0.12353 0)
(1.20481 -0.14845 0)
(1.22963 -0.186274 0)
(1.27402 -0.22851 -1.68624e-23)
(1.33728 -0.264098 0)
(0.00508831 0.00088904 -4.74142e-25)
(0.0399729 -0.00420811 -5.37401e-25)
(1.38883 0.2449 0)
(1.29819 0.190208 0)
(1.24025 0.137472 0)
(1.20121 0.108956 0)
(1.16714 0.0769086 0)
(1.14364 0.0630853 0)
(1.12442 0.0521295 0)
(1.10887 0.0432926 0)
(1.09593 0.0359681 0)
(1.08522 0.0297996 0)
(1.07642 0.0244755 0)
(1.06926 0.0197985 0)
(1.06353 0.0156104 0)
(1.05911 0.0117903 0)
(1.05588 0.00823845 0)
(1.05378 0.00487003 0)
(1.05275 0.00161083 0)
(1.06024 -0.00131042 0)
(1.06153 -0.00397532 0)
(1.06413 -0.00676837 0)
(1.0681 -0.00977824 0)
(1.07354 -0.0131093 0)
(1.08056 -0.0168841 0)
(1.08929 -0.0212522 0)
(1.09991 -0.0263868 0)
(1.11265 -0.0325093 0)
(1.12772 -0.0398965 0)
(1.14532 -0.0488212 0)
(1.16613 -0.0595414 0)
(1.19013 -0.072653 0)
(1.20631 -0.0908959 0)
(1.23801 -0.107692 0)
(1.26761 -0.132024 0)
(1.30901 -0.152029 0)
(1.16859 -0.120836 7.98718e-25)
(0.0378053 -0.0188077 -9.89081e-25)
(0.11332 0.0257937 2.99691e-24)
(1.32878 0.109506 0)
(1.33598 0.103782 0)
(1.27194 0.0753571 0)
(1.22609 0.0619521 0)
(1.18168 0.0440137 0)
(1.15549 0.038481 0)
(1.13421 0.0335593 0)
(1.11717 0.0291149 0)
(1.10306 0.0251004 0)
(1.09151 0.0214088 0)
(1.08203 0.0179925 0)
(1.07433 0.014816 0)
(1.0682 0.0118427 0)
(1.06346 0.00903632 0)
(1.06001 0.0063603 0)
(1.05775 0.003777 0)
(1.05665 0.0012519 0)
(1.06306 -0.000759099 0)
(1.06443 -0.00230066 0)
(1.06721 -0.00390866 0)
(1.07146 -0.00562925 0)
(1.07729 -0.00752296 0)
(1.08485 -0.00966503 0)
(1.09432 -0.0121521 0)
(1.1059 -0.0151124 0)
(1.11985 -0.0186805 0)
(1.13653 -0.0230568 0)
(1.15603 -0.028459 0)
(1.17912 -0.0351277 0)
(1.20587 -0.043109 0)
(1.22587 -0.0561632 0)
(1.25815 -0.0662119 0)
(1.28677 -0.0825903 0)
(1.31918 -0.0940185 0)
(0.997269 -0.0536099 -1.31989e-23)
(0.0481253 -0.00847813 0)
(-0.0792093 -0.000604758 -1.8346e-24)
(-0.0888062 0.0781328 7.34631e-26)
(-0.0301539 0.1346 8.01623e-25)
(0.275901 0.0733982 3.65116e-24)
(1.27293 0.029633 0)
(1.35246 0.0185208 0)
(1.27928 0.0077708 0)
(1.23151 0.0104718 0)
(1.18293 0.00877527 0)
(1.15725 0.0121477 0)
(1.13683 0.0138956 0)
(1.12014 0.0142631 0)
(1.10627 0.0137486 0)
(1.09481 0.0126564 0)
(1.08533 0.0112193 0)
(1.07757 0.00958977 0)
(1.07134 0.00786757 0)
(1.06652 0.00611182 0)
(1.06298 0.00435258 0)
(1.06067 0.00260239 0)
(1.05953 0.000865107 0)
(1.06433 -0.000176912 0)
(1.06574 -0.000529112 0)
(1.06856 -0.000872538 0)
(1.07289 -0.00119983 0)
(1.07886 -0.00150839 0)
(1.08661 -0.00180416 0)
(1.09635 -0.00210265 0)
(1.10836 -0.00244255 0)
(1.12288 -0.00289543 0)
(1.14042 -0.00358668 0)
(1.16108 -0.00473349 0)
(1.18589 -0.00672209 0)
(1.21397 -0.00962642 0)
(1.23785 -0.0198162 0)
(1.27071 -0.0253573 0)
(1.30512 -0.0356602 0)
(1.31622 -0.0475342 0)
(0.827894 -0.0197675 0)
(0.0753067 -0.0375597 1.99357e-24)
(-0.144763 -0.0592668 -1.91566e-24)
(-0.210864 0.0039563 -2.11927e-24)
(-0.024428 0.0529326 0)
(0.504522 -0.0249959 -8.27241e-26)
(1.30695 -0.113907 0)
(1.33618 -0.0891149 0)
(1.25696 -0.0634767 0)
(1.21434 -0.0384829 0)
(1.17082 -0.0220154 0)
(1.14949 -0.0107219 0)
(1.13252 -0.0035647 0)
(1.11809 0.000763058 0)
(1.10576 0.00317505 0)
(1.09527 0.00431192 0)
(1.08639 0.00463175 0)
(1.079 0.00442955 0)
(1.07298 0.00390221 0)
(1.06826 0.00317441 0)
(1.06478 0.00232798 0)
(1.06249 0.0014156 0)
(1.06135 0.000474049 0)
(1.06403 0.00039712 0)
(1.06539 0.00122102 0)
(1.06812 0.00213724 0)
(1.07231 0.00321115 0)
(1.07809 0.00450804 0)
(1.08562 0.00609235 0)
(1.09512 0.00802416 0)
(1.10689 0.0103494 0)
(1.12124 0.0130887 0)
(1.13874 0.0162389 0)
(1.1597 0.0196624 0)
(1.18512 0.0232683 0)
(1.21499 0.0260398 0)
(1.25127 0.0270004 0)
(1.28252 0.0231801 0)
(1.32283 0.0088206 0)
(1.32738 -0.0164532 0)
(0.827421 -0.0452866 0)
(0.214112 -0.161727 0)
(-0.149149 -0.257088 0)
(-0.301655 -0.241582 -1.5246e-30)
(-0.00534192 -0.216859 -1.42604e-25)
(0.670222 -0.280372 3.54765e-23)
(1.2515 -0.281646 0)
(1.23343 -0.181368 0)
(1.20129 -0.119512 0)
(1.16152 -0.0664933 0)
(1.14799 -0.0407633 0)
(1.13514 -0.0246794 0)
(1.1236 -0.0146975 0)
(1.1126 -0.00841098 0)
(1.10261 -0.00446313 0)
(1.09363 -0.00207542 0)
(1.08572 -0.000690868 0)
(1.07893 5.51515e-05 0)
(1.07329 0.000395816 0)
(1.06881 0.000488889 0)
(1.06546 0.00043166 0)
(1.06325 0.000286893 0)
(1.06213 9.93492e-05 0)
(1.06226 0.000906519 0)
(1.06351 0.00277388 0)
(1.066 0.00480753 0)
(1.06982 0.00712826 0)
(1.07509 0.00986771 0)
(1.08197 0.0131754 0)
(1.09065 0.0172197 0)
(1.10143 0.0221985 0)
(1.11467 0.0283048 0)
(1.13091 0.0357449 0)
(1.15071 0.044708 0)
(1.17523 0.05502 0)
(1.20534 0.066663 0)
(1.24259 0.0792385 0)
(1.28396 0.0820628 0)
(1.341 0.0751699 0)
(1.37296 0.0464249 0)
(0.968355 -0.0424951 0)
(0.468397 -0.242828 0)
(-0.010062 -0.449577 0)
(-0.318221 -0.560538 -1.26365e-23)
(-0.0218057 -0.536329 0)
(0.667903 -0.468006 0)
(1.07583 -0.338802 0)
(1.1092 -0.195363 0)
(1.12376 -0.124885 0)
(1.12204 -0.0641645 0)
(1.12228 -0.04192 0)
(1.11936 -0.027462 0)
(1.11356 -0.0184452 0)
(1.10622 -0.0126509 0)
(1.09857 -0.00892431 0)
(1.09104 -0.00643167 0)
(1.08408 -0.00470598 0)
(1.07788 -0.00347477 0)
(1.07263 -0.00255289 0)
(1.06837 -0.00183416 0)
(1.06517 -0.00124058 0)
(1.06303 -0.000721291 0)
(1.06194 -0.000237469 0)
(1.05925 0.00130259 0)
(1.06033 0.00398429 0)
(1.06245 0.00689945 0)
(1.0657 0.0102205 0)
(1.07015 0.0141456 0)
(1.07593 0.0189069 0)
(1.08319 0.0247808 0)
(1.09218 0.0320835 0)
(1.10319 0.0412185 0)
(1.11683 0.0525731 0)
(1.13346 0.0666581 0)
(1.15454 0.0842684 0)
(1.18113 0.105686 0)
(1.21331 0.13252 0)
(1.26428 0.152709 0)
(1.32861 0.174264 0)
(1.40234 0.180437 0)
(1.1914 0.110546 0)
(0.758318 -0.0760775 0)
(0.295496 -0.293812 0)
(-0.153634 -0.533221 0)
(-0.148965 -0.619415 0)
(0.45087 -0.428722 0)
(0.872833 -0.244687 0)
(1.00263 -0.122629 0)
(1.05879 -0.0775044 0)
(1.09642 -0.0337849 0)
(1.10551 -0.0248565 0)
(1.10904 -0.0193959 0)
(1.10661 -0.0157088 0)
(1.1016 -0.0129925 0)
(1.09531 -0.0109337 0)
(1.08861 -0.00924914 0)
(1.08216 -0.00777831 0)
(1.07629 -0.0064255 0)
(1.07125 -0.00515941 0)
(1.06713 -0.00395223 0)
(1.06402 -0.00279117 0)
(1.06194 -0.00166371 0)
(1.06086 -0.000553267 0)
(1.05537 0.00155258 0)
(1.05622 0.00474711 0)
(1.05788 0.00821424 0)
(1.06039 0.0121563 0)
(1.06379 0.0168141 0)
(1.06811 0.0224809 0)
(1.07344 0.0295293 0)
(1.07988 0.0384454 0)
(1.08757 0.0498452 0)
(1.09688 0.064655 0)
(1.10826 0.0837726 0)
(1.12159 0.10893 0)
(1.14069 0.141508 0)
(1.16261 0.181747 0)
(1.20775 0.218048 0)
(1.25777 0.270076 0)
(1.33815 0.335365 0)
(1.32677 0.391988 0)
(0.981284 0.290302 0)
(0.58059 0.141195 0)
(0.148669 -0.0511298 -2.21196e-30)
(-0.0716464 -0.250628 0)
(0.129746 -0.279651 0)
(0.687813 -0.0736326 0)
(0.955509 0.0117664 0)
(1.03751 0.00627774 0)
(1.09638 0.0133842 0)
(1.10741 0.00306755 0)
(1.11005 -0.00454345 0)
(1.10656 -0.00894255 0)
(1.1009 -0.0111111 0)
(1.09407 -0.0117393 0)
(1.08706 -0.0113643 0)
(1.0804 -0.0103963 0)
(1.07442 -0.00908329 0)
(1.06933 -0.00756599 0)
(1.0652 -0.00594025 0)
(1.06209 -0.00426306 0)
(1.06002 -0.00256448 0)
(1.05895 -0.000856126 0)
(1.05105 0.00162332 0)
(1.05166 0.0049566 0)
(1.05282 0.00855573 0)
(1.05455 0.0126257 0)
(1.05678 0.0174206 0)
(1.05946 0.0232718 0)
(1.06252 0.03061 0)
(1.06588 0.0400129 0)
(1.06947 0.0522167 0)
(1.07308 0.0682162 0)
(1.07748 0.0892357 0)
(1.08087 0.116656 0)
(1.08752 0.153121 0)
(1.09389 0.202529 0)
(1.1294 0.248095 0)
(1.14499 0.318442 0)
(1.18677 0.4097 0)
(1.19819 0.542869 0)
(1.06559 0.661228 0)
(0.751837 0.649454 0)
(0.407621 0.52277 5.39519e-24)
(0.196997 0.321018 0)
(0.149706 0.119275 0)
(0.491492 0.0958303 0)
(0.985621 0.149261 0)
(1.07928 0.0914746 0)
(1.12688 0.0476723 0)
(1.12901 0.019662 0)
(1.12234 0.00234328 0)
(1.11343 -0.0073495 0)
(1.10397 -0.012489 0)
(1.09472 -0.0145935 0)
(1.08619 -0.0148052 0)
(1.07864 -0.0138454 0)
(1.07217 -0.0122093 0)
(1.0668 -0.0102091 0)
(1.06255 -0.0080247 0)
(1.05939 -0.0057584 0)
(1.0573 -0.00346163 0)
(1.05621 -0.00115487 0)
(1.04677 0.00152225 0)
(1.04717 0.00463614 0)
(1.04789 0.00796374 0)
(1.04889 0.0116738 0)
(1.05005 0.0159804 0)
(1.05119 0.021159 0)
(1.05209 0.0275781 0)
(1.05245 0.0357238 0)
(1.05203 0.0462167 0)
(1.05016 0.0598904 0)
(1.04726 0.0779427 0)
(1.04194 0.101367 0)
(1.03421 0.132728 0)
(1.02145 0.175786 0)
(1.01693 0.236414 0)
(1.03338 0.320844 0)
(1.01101 0.41338 0)
(0.96952 0.532295 0)
(0.881191 0.66159 0)
(0.728754 0.721718 0)
(0.560511 0.681263 3.7092e-24)
(0.475036 0.593219 0)
(0.386454 0.474044 0)
(0.625165 0.310503 0)
(1.0718 0.209216 0)
(1.20691 0.114425 0)
(1.18255 0.051096 0)
(1.16215 0.0138117 0)
(1.14013 -0.00631301 0)
(1.12258 -0.0164306 0)
(1.10774 -0.0207924 0)
(1.0952 -0.021811 0)
(1.08474 -0.0208867 0)
(1.07607 -0.0188875 0)
(1.06899 -0.0162924 0)
(1.06333 -0.0134062 0)
(1.05897 -0.0104141 0)
(1.05579 -0.00740989 0)
(1.05371 -0.00442899 0)
(1.05264 -0.00147321 0)
(1.04296 0.00128355 0)
(1.04321 0.00388393 0)
(1.04365 0.00658838 0)
(1.04416 0.00948631 0)
(1.04456 0.0127015 0)
(1.04457 0.0164269 0)
(1.04381 0.020958 0)
(1.04173 0.0267788 0)
(1.0377 0.0347052 0)
(1.03075 0.0458428 0)
(1.01981 0.0622461 0)
(1.00495 0.0862043 0)
(0.98288 0.119786 0)
(0.956146 0.162489 0)
(0.9337 0.211076 0)
(0.889132 0.270233 0)
(0.840902 0.34666 0)
(0.787364 0.436185 0)
(0.684079 0.542585 0)
(0.54569 0.664068 0)
(0.495937 0.735807 0)
(0.591101 0.674484 0)
(0.786384 0.476392 0)
(1.09904 0.237226 0)
(1.31069 0.0765658 0)
(1.28462 0.0102313 0)
(1.22755 -0.0166708 0)
(1.18583 -0.0298899 0)
(1.1519 -0.0358299 0)
(1.12693 -0.0375658 0)
(1.10763 -0.0363225 0)
(1.09255 -0.0332795 0)
(1.08082 -0.0293752 0)
(1.07152 -0.0251496 0)
(1.06421 -0.0208916 0)
(1.05856 -0.0167542 0)
(1.05429 -0.0127891 0)
(1.05123 -0.00899106 0)
(1.04925 -0.00533364 0)
(1.04823 -0.00176714 0)
(1.03989 0.000969074 0)
(1.04012 0.00289158 0)
(1.0405 0.00477141 0)
(1.04089 0.00659059 0)
(1.04105 0.00835622 0)
(1.04063 0.0101021 0)
(1.03904 0.0119704 0)
(1.03555 0.0141988 0)
(1.0288 0.0173572 0)
(1.0175 0.0225014 0)
(0.998558 0.0314644 0)
(0.971163 0.0479741 0)
(0.932558 0.0762348 0)
(0.88878 0.120067 0)
(0.852446 0.180759 0)
(0.79286 0.252136 0)
(0.732948 0.325874 0)
(0.699989 0.379973 0)
(0.614672 0.388855 0)
(0.513408 0.342143 2.63577e-34)
(0.571282 0.23874 1.83919e-34)
(0.795158 0.0946201 0)
(1.05009 -0.051229 0)
(1.29053 -0.146768 0)
(1.36067 -0.163665 0)
(1.28825 -0.136754 0)
(1.22456 -0.110324 0)
(1.18126 -0.0915495 0)
(1.1458 -0.0777648 0)
(1.11941 -0.0660111 0)
(1.09964 -0.0558493 0)
(1.08438 -0.0470097 0)
(1.07292 -0.0390987 0)
(1.06404 -0.0320128 0)
(1.0573 -0.0256876 0)
(1.05218 -0.0200545 0)
(1.04838 -0.0149881 0)
(1.0457 -0.0103794 0)
(1.04398 -0.00609474 0)
(1.0431 -0.00200887 0)
(1.03766 0.000674763 0)
(1.03801 0.00195404 0)
(1.03861 0.00302293 0)
(1.03935 0.00372417 0)
(1.04 0.00386066 0)
(1.04022 0.00319045 0)
(1.03941 0.00135548 0)
(1.03676 -0.00203252 0)
(1.03082 -0.00756531 0)
(1.01966 -0.0157802 0)
(0.999651 -0.0271331 0)
(0.9659 -0.0405767 0)
(0.911135 -0.0492156 0)
(0.837431 -0.0395394 0)
(0.765727 0.00128861 0)
(0.698264 0.0632314 0)
(0.670311 0.105106 0)
(0.7092 0.0902915 0)
(0.697041 0.0140717 0)
(0.658071 -0.106152 0)
(0.749816 -0.240394 0)
(0.958176 -0.347414 0)
(1.1483 -0.393648 0)
(1.28959 -0.369632 0)
(1.29045 -0.300409 0)
(1.22979 -0.232702 0)
(1.1804 -0.183672 0)
(1.14798 -0.145502 0)
(1.11959 -0.115547 0)
(1.09823 -0.0924525 0)
(1.082 -0.0740695 0)
(1.06971 -0.0591535 0)
(1.06049 -0.0471381 0)
(1.05345 -0.0373014 0)
(1.0482 -0.0291461 0)
(1.04426 -0.0222654 0)
(1.04139 -0.0163742 0)
(1.03938 -0.0112022 0)
(1.0381 -0.00652508 0)
(1.03745 -0.00214168 0)
(1.03605 0.000509995 0)
(1.03665 0.00141438 0)
(1.03776 0.00196631 0)
(1.03935 0.00189037 0)
(1.04129 0.000811178 0)
(1.04338 -0.00178781 0)
(1.04534 -0.00663698 0)
(1.0466 -0.0148425 0)
(1.04644 -0.0280243 0)
(1.04341 -0.0487578 0)
(1.03504 -0.0808955 0)
(1.01425 -0.129028 0)
(0.96345 -0.194408 0)
(0.865458 -0.263159 0)
(0.738164 -0.304328 0)
(0.63946 -0.302765 0)
(0.65243 -0.288254 0)
(0.753761 -0.293057 0)
(0.792528 -0.319813 0)
(0.797747 -0.372504 0)
(0.881438 -0.437746 0)
(1.02277 -0.475004 0)
(1.13566 -0.466974 0)
(1.19478 -0.411988 0)
(1.1819 -0.331688 0)
(1.15154 -0.262039 0)
(1.12121 -0.210009 0)
(1.09936 -0.168912 0)
(1.08101 -0.134751 0)
(1.06738 -0.106793 0)
(1.05689 -0.0840245 0)
(1.04966 -0.0657304 0)
(1.04427 -0.0510765 0)
(1.04036 -0.0393605 0)
(1.03748 -0.0300081 0)
(1.03536 -0.0224624 0)
(1.03382 -0.0162429 0)
(1.03275 -0.0109737 0)
(1.03207 -0.00633795 0)
(1.03172 -0.00207075 0)
(1.0346 0.000554338 0)
(1.03553 0.00153439 0)
(1.03732 0.00212414 0)
(1.04004 0.00201506 0)
(1.04371 0.000808535 0)
(1.04839 -0.00205344 0)
(1.05413 -0.00734568 0)
(1.06108 -0.0162453 0)
(1.0693 -0.0305187 0)
(1.079 -0.052763 0)
(1.09003 -0.0872231 0)
(1.09861 -0.141549 0)
(1.08449 -0.227199 0)
(1.00407 -0.349368 0)
(0.839561 -0.484675 0)
(0.676496 -0.588027 0)
(0.652604 -0.629898 0)
(0.743577 -0.617734 0)
(0.787257 -0.579614 0)
(0.826343 -0.544073 -8.38277e-34)
(0.90708 -0.518711 -7.99201e-34)
(0.990957 -0.476914 0)
(1.07591 -0.417616 0)
(1.09816 -0.357621 0)
(1.09064 -0.29977 0)
(1.07631 -0.247 0)
(1.06332 -0.201154 0)
(1.05134 -0.164373 0)
(1.03936 -0.132602 0)
(1.03319 -0.104804 0)
(1.02907 -0.0819834 0)
(1.02722 -0.0633262 0)
(1.02642 -0.0483589 0)
(1.02625 -0.0365769 0)
(1.02631 -0.0273445 0)
(1.02639 -0.0200792 0)
(1.02645 -0.0142815 0)
(1.02649 -0.00952321 0)
(1.02649 -0.00544789 0)
(1.0265 -0.00177114 0)
(1.03267 0.000859874 0)
(1.03392 0.00247965 0)
(1.03634 0.00379677 0)
(1.0401 0.00458003 0)
(1.04537 0.00451774 0)
(1.0524 0.00321027 0)
(1.06158 7.63411e-05 0)
(1.07345 -0.00559838 0)
(1.08882 -0.0147759 0)
(1.10914 -0.0290484 0)
(1.13608 -0.0506075 0)
(1.17086 -0.0832661 0)
(1.19994 -0.135631 0)
(1.17665 -0.225244 0)
(1.04153 -0.365341 0)
(0.847803 -0.53646 0)
(0.731945 -0.67889 0)
(0.729165 -0.738797 0)
(0.725689 -0.72105 0)
(0.763188 -0.664883 0)
(0.849433 -0.601421 0)
(0.899991 -0.533943 0)
(0.978609 -0.454809 0)
(1.01159 -0.379603 0)
(1.01956 -0.321536 0)
(1.01 -0.273284 0)
(1.00265 -0.225765 0)
(0.999175 -0.179579 0)
(0.993199 -0.139048 0)
(0.99505 -0.104852 0)
(0.998573 -0.077202 0)
(1.00367 -0.0561184 0)
(1.0085 -0.0405939 0)
(1.01272 -0.0292474 0)
(1.01603 -0.0209687 0)
(1.01851 -0.0148837 0)
(1.02024 -0.0103155 0)
(1.02138 -0.00674669 0)
(1.02206 -0.00381231 0)
(1.02241 -0.0012315 0)
(1.02965 0.00136429 0)
(1.0311 0.00404217 0)
(1.03394 0.00656738 0)
(1.03838 0.00881757 0)
(1.04469 0.0106439 0)
(1.05324 0.0118317 0)
(1.06454 0.0121686 0)
(1.0793 0.0113597 0)
(1.09869 0.00897194 0)
(1.1241 0.00498336 0)
(1.15799 -0.00056919 0)
(1.20217 -0.00703997 0)
(1.25175 -0.0157901 0)
(1.27919 -0.0396696 0)
(1.21894 -0.105412 0)
(1.0706 -0.228559 0)
(0.913241 -0.383258 0)
(0.7984 -0.507565 0)
(0.709354 -0.564209 0)
(0.707942 -0.567742 0)
(0.784259 -0.542659 0)
(0.833509 -0.51333 0)
(0.897616 -0.484026 0)
(0.937695 -0.445341 0)
(0.951223 -0.398827 0)
(0.941738 -0.346639 0)
(0.925796 -0.287448 0)
(0.923801 -0.221698 0)
(0.92777 -0.158697 0)
(0.943132 -0.106608 0)
(0.960972 -0.0684345 0)
(0.97775 -0.0428106 0)
(0.991123 -0.0264959 0)
(1.00109 -0.0165171 0)
(1.00814 -0.0104509 0)
(1.013 -0.00668251 0)
(1.01624 -0.0042549 0)
(1.0183 -0.00262062 0)
(1.01952 -0.00142281 0)
(1.02013 -0.000450603 0)
(1.02515 0.00194338 0)
(1.02665 0.00584651 0)
(1.02959 0.00979233 0)
(1.03421 0.0138025 0)
(1.04082 0.0178882 0)
(1.0498 0.0220814 0)
(1.06172 0.0263516 0)
(1.07725 0.0307489 0)
(1.09758 0.035465 0)
(1.12316 0.0409621 0)
(1.15632 0.0484333 0)
(1.19768 0.0594309 0)
(1.24643 0.0753897 0)
(1.29222 0.0935934 0)
(1.28742 0.0993965 0)
(1.20577 0.0728028 0)
(1.08092 0.00482278 0)
(0.921155 -0.0844251 0)
(0.776926 -0.167728 0)
(0.73715 -0.235357 0)
(0.776739 -0.276387 0)
(0.832152 -0.299189 0)
(0.891244 -0.322811 0)
(0.917416 -0.341899 0)
(0.907185 -0.341121 0)
(0.873867 -0.311023 0)
(0.83547 -0.253893 0)
(0.826097 -0.181386 0)
(0.844427 -0.111264 0)
(0.882814 -0.0577216 0)
(0.923364 -0.023891 0)
(0.956332 -0.00611321 0)
(0.979629 0.00177294 0)
(0.995113 0.00464295 0)
(1.00518 0.00515384 0)
(1.01161 0.00458244 0)
(1.01566 0.00359429 0)
(1.01811 0.00252464 0)
(1.0195 0.00148333 0)
(1.02018 0.000488113 0)
(1.0191 0.00250494 0)
(1.02046 0.00760296 0)
(1.02314 0.0129508 0)
(1.02738 0.0187077 0)
(1.03347 0.0250475 0)
(1.04177 0.0321548 0)
(1.05285 0.0403043 0)
(1.06718 0.0498301 0)
(1.08538 0.0614915 0)
(1.10843 0.0757944 0)
(1.13648 0.0937376 0)
(1.17044 0.117353 0)
(1.20825 0.149499 0)
(1.24664 0.192886 0)
(1.25941 0.241192 0)
(1.21934 0.278403 0)
(1.14928 0.286135 0)
(1.0181 0.253834 0)
(0.886053 0.185614 0)
(0.833205 0.102374 0)
(0.835254 0.0297501 0)
(0.871133 -0.0191357 0)
(0.917864 -0.0437507 0)
(0.930875 -0.0541322 0)
(0.899327 -0.059029 0)
(0.825809 -0.0480123 0)
(0.753752 -0.00971919 0)
(0.74011 0.0410857 0)
(0.784975 0.0779044 0)
(0.85431 0.0890352 0)
(0.917885 0.0801922 0)
(0.960702 0.06323 0)
(0.986319 0.0472112 0)
(1.00167 0.0346038 0)
(1.01095 0.025033 0)
(1.01647 0.0177889 0)
(1.01965 0.0122674 0)
(1.02143 0.00796087 0)
(1.02235 0.00446431 0)
(1.02279 0.00143686 0)
(1.01172 0.00292462 0)
(1.01274 0.00892673 0)
(1.01481 0.015373 0)
(1.01813 0.022544 0)
(1.02292 0.0307644 0)
(1.02959 0.0403679 0)
(1.03841 0.0517951 0)
(1.05001 0.0655166 0)
(1.06447 0.0818554 0)
(1.08285 0.101741 0)
(1.10401 0.12649 0)
(1.1274 0.158399 0)
(1.15376 0.197961 0)
(1.17781 0.245247 0)
(1.19167 0.297358 0)
(1.17274 0.344219 0)
(1.14441 0.374334 0)
(1.07009 0.371986 0)
(0.97734 0.334853 0)
(0.920829 0.286541 0)
(0.904286 0.243976 0)
(0.902471 0.219061 0)
(0.908965 0.227177 0)
(0.911867 0.258079 0)
(0.882227 0.289526 0)
(0.787969 0.318906 0)
(0.70358 0.345328 0)