/*--------------------------------*- C++ -*----------------------------------*\
| =========                 |                                                 |
| \\      /  F ield         | OpenFOAM: The Open Source CFD Toolbox           |
|  \\    /   O peration     | Version:  v2106                                 |
|   \\  /    A nd           | Website:  www.openfoam.com                      |
|    \\/     M anipulation  |                                                 |
\*---------------------------------------------------------------------------*/
FoamFile
{
    version     2.0;
    format      ascii;
    arch        "LSB;label=32;scalar=64";
    class       volScalarField;
    location    "0";
    object      p;
}
// * * * * * * * * * * * * * * * * * * * * * * * * * * * * * * * * * * * * * //

dimensions      [0 2 -2 0 0 0 0];

internalField   nonuniform List<scalar> 
11644
(
0.0792839
0.0796737
0.0804959
0.0817587
0.083451
0.0855657
0.0880943
0.0910209
0.0943169
0.0979345
0.101802
0.10582
0.109854
0.113725
0.117225
0.120162
0.122262
0.123306
0.123208
0.121943
0.11945
0.115695
0.110808
0.105079
0.0987976
0.0922182
0.0855687
0.0790474
0.0728434
0.067078
0.0618274
0.057145
0.0530491
0.0495349
0.0465875
0.0441841
0.0423002
0.040918
0.0400283
0.0396075
0.0786236
0.0790126
0.0798166
0.0810498
0.0827177
0.0848208
0.0873553
0.0903112
0.093667
0.0973867
0.10141
0.10564
0.109943
0.114138
0.11802
0.121303
0.123754
0.125133
0.125259
0.124004
0.121351
0.117394
0.112255
0.106115
0.0993244
0.0922548
0.0851977
0.0783791
0.0719484
0.0660422
0.0607319
0.05604
0.0519697
0.0485046
0.0456196
0.0432847
0.0414709
0.0401505
0.0392982
0.0388863
0.0771103
0.0775217
0.0783343
0.0795563
0.0812077
0.0833032
0.0858529
0.0888625
0.0923316
0.096245
0.100565
0.105226
0.110107
0.115025
0.119713
0.123883
0.127205
0.129377
0.130047
0.128932
0.125946
0.121317
0.115311
0.108202
0.100373
0.0922854
0.0843529
0.0768695
0.0700181
0.0638743
0.0584647
0.0537801
0.0497822
0.0464277
0.0436682
0.0414559
0.0397476
0.0385018
0.0376822
0.0372703
0.0747848
0.0752008
0.0760173
0.0772351
0.0788748
0.0809643
0.0835326
0.0866089
0.0902219
0.0943954
0.0991414
0.104417
0.11012
0.116058
0.122052
0.127707
0.132502
0.136139
0.137877
0.137211
0.133906
0.128173
0.120464
0.111413
0.101847
0.0921589
0.0828466
0.0743694
0.0668787
0.0604259
0.0549341
0.0503091
0.04646
0.0432944
0.0407298
0.0386964
0.0371332
0.0359909
0.0352319
0.0348487
0.0716853
0.0720863
0.072878
0.074064
0.0756691
0.0777288
0.0802898
0.0834099
0.087154
0.0915922
0.0967633
0.102663
0.109286
0.116625
0.124466
0.132401
0.139636
0.145891
0.149505
0.14975
0.146063
0.138718
0.128364
0.116143
0.103817
0.0916207
0.0803554
0.0704963
0.0622148
0.0554226
0.0499355
0.0455086
0.0419401
0.039082
0.0368133
0.0350397
0.0336875
0.0327031
0.0320551
0.0317287
0.0678499
0.0682151
0.0689433
0.0700497
0.0715617
0.0735241
0.0760001
0.0790749
0.082849
0.0873952
0.0927693
0.0991188
0.106673
0.115515
0.125886
0.137281
0.148534
0.158976
0.166163
0.168447
0.16433
0.154038
0.13927
0.122049
0.105527
0.0896179
0.0757988
0.0645517
0.0555355
0.0485482
0.0432344
0.0392197
0.036154
0.0337861
0.0319584
0.0305588
0.0295116
0.028762
0.0282749
0.0280351
0.0633339
0.0636381
0.0642601
0.0652172
0.0665455
0.0682976
0.0705484
0.0733987
0.076945
0.0812442
0.0864646
0.092933
0.100995
0.111472
0.124929
0.140577
0.152064
0.168222
0.181489
0.188879
0.187
0.175155
0.156046
0.133953
0.105026
0.0841601
0.0675031
0.054985
0.0459981
0.0393831
0.0346564
0.0313687
0.0290913
0.0274582
0.0262598
0.0253813
0.0247467
0.0243077
0.0240272
0.0238859
0.0581992
0.0584345
0.058906
0.0596345
0.0606638
0.0620449
0.0638585
0.0662017
0.0691291
0.0727261
0.0772662
0.0831995
0.0911757
0.101257
0.115675
0.134172
0.159064
0.185804
0.211768
0.228497
0.228065
0.20861
0.176153
0.140422
0.105831
0.0800118
0.0610076
0.0403991
0.0324248
0.0273132
0.024033
0.0220161
0.0208758
0.0202562
0.0198963
0.0196896
0.0195728
0.0195087
0.0194761
0.0194649
0.0525867
0.0527227
0.0529889
0.0534127
0.0540125
0.0548405
0.0559638
0.0574475
0.0593105
0.0616824
0.0648194
0.069074
0.0751298
0.0874825
0.101717
0.123178
0.151072
0.194339
0.240414
0.280504
0.290012
0.258821
0.203318
0.143664
0.0978891
0.0588641
0.0392713
0.0184274
0.0143047
0.0121635
0.0113387
0.0113281
0.0117813
0.0124594
0.0131418
0.0137423
0.0142366
0.014608
0.0148531
0.0149675
0.0467011
0.0467013
0.0467162
0.0467339
0.0467766
0.0468762
0.0470623
0.0473382
0.0476738
0.0481516
0.048928
0.0500623
0.0515358
0.0620662
0.0708316
0.0911058
0.122452
0.176062
0.261401
0.363098
0.405686
0.33752
0.217492
0.120277
0.0532572
0.0124954
0.001648
-0.0107297
-0.00838913
-0.00581405
-0.00299289
-0.000235806
0.00227241
0.00450081
0.00637593
0.00787131
0.00902114
0.00985565
0.0103926
0.0106534
0.0407101
0.040593
0.0403147
0.039879
0.0392835
0.0385091
0.0375544
0.0363399
0.0347491
0.0326858
0.0300579
0.0267628
0.0223246
0.0255249
0.0232508
0.0274975
0.038189
0.0642654
0.160925
0.401416
0.601717
0.373767
0.106682
-0.0139794
-0.053846
-0.0619642
-0.0510099
-0.0454904
-0.0342777
-0.0251242
-0.0177032
-0.0117212
-0.00689618
-0.00300815
8.25934e-05
0.0024693
0.0042597
0.00554031
0.00635966
0.0067599
0.0349846
0.0346828
0.0340719
0.0331564
0.0318831
0.0301887
0.0280042
0.0251633
0.0214788
0.0166503
0.0102246
0.00171984
-0.00937158
-0.0136107
-0.0334295
-0.052563
-0.0926136
-0.185892
-0.445043
-0.581349
-0.321863
-0.211661
-0.151869
-0.10849
-0.0801514
-0.058622
-0.0426643
-0.0307506
-0.0216845
-0.0147031
-0.00932851
-0.00518602
-0.00203636
0.000305812
0.00196021
0.00302351
0.00351809
0.0297617
0.0292691
0.0283522
0.0269744
0.025064
0.0225131
0.0191588
0.0147985
0.00919574
0.00192285
-0.00767924
-0.0205851
-0.0375889
-0.0482907
-0.0802412
-0.114813
-0.17934
-0.305447
-0.432084
-0.796249
-0.541944
-0.332541
-0.218398
-0.152554
-0.102556
-0.0748529
-0.0545391
-0.0395624
-0.0284077
-0.0200157
-0.0136856
-0.00888519
-0.00526321
-0.00257777
-0.000668543
0.000569738
0.00122753
0.0251637
0.0245159
0.023387
0.0216642
0.0192584
0.016037
0.0117749
0.00628022
-0.000693457
-0.00963392
-0.021183
-0.0365183
-0.0563377
-0.0724367
-0.106052
-0.141634
-0.193786
-0.260027
-0.28659
-0.660015
-0.540959
-0.356954
-0.231131
-0.163349
-0.105507
-0.0782621
-0.0575205
-0.0420864
-0.030591
-0.0219727
-0.0155007
-0.0106099
-0.00689593
-0.00413799
-0.00215906
-0.000867694
-0.000195114
0.0210011
0.0205422
0.0193474
0.0174541
0.0147866
0.0112192
0.00651814
0.000465765
-0.0071259
-0.0167945
-0.0289817
-0.0449638
-0.0651093
-0.0833933
-0.117174
-0.15289
-0.197799
-0.232745
-0.229273
-0.317892
-0.485216
-0.718002
-0.720576
-0.494884
-0.303255
-0.190555
-0.137879
-0.0886076
-0.0671681
-0.0505372
-0.0376717
-0.0278877
-0.0203367
-0.0146238
-0.0102537
-0.00686806
-0.00432709
-0.00249944
-0.0013073
-0.000793812
0.0180185
0.0175777
0.016444
0.0146037
0.0119718
0.00843134
0.0038358
-0.00206066
-0.00946994
-0.0188135
-0.0305818
-0.0457129
-0.0650928
-0.0852785
-0.120318
-0.170814
-0.229023
-0.316838
-0.355763
-0.423684
-0.527121
-0.596584
-0.448224
-0.263174
-0.17235
-0.108985
-0.0866848
-0.0553486
-0.0443517
-0.0350967
-0.0273425
-0.0208578
-0.0155025
-0.0113027
-0.00794258
-0.00527653
-0.00325496
-0.00180203
-0.000867516
-0.000372788
0.0165809
0.0160606
0.014985
0.0133157
0.0109584
0.00782171
0.00377302
-0.00142682
-0.00793437
-0.0160453
-0.0262409
-0.039437
-0.0567872
-0.0801611
-0.110724
-0.162978
-0.239079
-0.386553
-0.54294
-0.609947
-0.547156
-0.333657
-0.0938537
-0.0142505
-0.00339972
-0.0169924
-0.0148103
-0.0167152
-0.0166317
-0.0153372
-0.0133487
-0.0108631
-0.00843357
-0.00610429
-0.0040056
-0.00226081
-0.00091253
6.38938e-05
0.00070601
0.00102338
0.0163398
0.0158646
0.0149525
0.0135947
0.0117091
0.00921488
0.00601821
0.00194744
-0.00311688
-0.00933735
-0.0171025
-0.0272045
-0.0407198
-0.0592893
-0.088142
-0.129968
-0.193719
-0.307957
-0.484445
-0.600786
-0.541336
-0.278145
0.00448192
0.113601
0.0892254
0.0510209
0.0262926
0.0158843
0.00763582
0.00326482
0.00100445
-3.38878e-05
-0.000287971
0.000150518
0.000908765
0.00170277
0.00241559
0.00298549
0.00336046
0.00342212
0.0170542
0.0167165
0.0160736
0.0151172
0.013803
0.0120939
0.00995999
0.00733964
0.00414383
0.000282682
-0.00442553
-0.0105679
-0.0189988
-0.0305244
-0.0537086
-0.078227
-0.121019
-0.175359
-0.260217
-0.34121
-0.327796
-0.180806
-0.00134664
0.1069
0.102799
0.0724297
0.0473949
0.0323492
0.0218824
0.0155357
0.011354
0.00871696
0.00710636
0.00629886
0.00600211
0.00599015
0.00610948
0.00623856
0.00632968
0.00638243
0.0184553
0.0182839
0.0179355
0.0173926
0.0166702
0.0157833
0.0147794
0.013699
0.0125221
0.0111441
0.00955625
0.00743304
0.00416452
-0.000754009
-0.0172925
-0.0311996
-0.0610039
-0.0964541
-0.136193
-0.172379
-0.17516
-0.126042
-0.0409307
0.030979
0.0497472
0.0509034
0.0415837
0.0317579
0.0251245
0.0202185
0.0166168
0.0141406
0.0124614
0.0113301
0.0105276
0.0100178
0.00970505
0.00950822
0.00941823
0.00944594
0.0202194
0.0201631
0.0200364
0.0198575
0.0196778
0.0195449
0.0195351
0.0197335
0.0202017
0.0209455
0.0220188
0.0233779
0.0244293
0.0243458
0.0135546
0.00425465
-0.0177002
-0.0522955
-0.104864
-0.165431
-0.208319
-0.206259
-0.157582
-0.0893628
-0.0319246
0.0087198
0.0221561
0.0218416
0.0221998
0.0201552
0.0186306
0.017266
0.0160814
0.0150485
0.0141887
0.0135469
0.0130792
0.0127631
0.0125923
0.0125395
0.0219908
0.0219691
0.0220116
0.0221402
0.0224011
0.0228482
0.0235466
0.0246047
0.0261272
0.0283678
0.0313183
0.0350491
0.0388958
0.0424122
0.0426733
0.0290308
0.0073561
-0.0431152
-0.129637
-0.239603
-0.325188
-0.335123
-0.277838
-0.183606
-0.0909577
-0.0167755
0.0028049
0.0127073
0.0182202
0.0195551
0.0198576
0.0194716
0.0187631
0.0179775
0.0172652
0.0166769
0.0162069
0.0158634
0.015642
0.0155247
0.023614
0.0236492
0.0238276
0.0241642
0.024698
0.0255022
0.0266349
0.0282015
0.0303639
0.0334194
0.0373388
0.0422016
0.0474683
0.052967
0.0488549
0.0333184
-0.00605925
-0.0717327
-0.161897
-0.256406
-0.312715
-0.301203
-0.227931
-0.145001
-0.0713923
-0.0259974
-0.00261001
0.0109397
0.017498
0.0204549
0.0215419
0.0216374
0.0212513
0.0206874
0.0200839
0.0195105
0.0190228
0.0186482
0.0183962
0.0182731
0.0250237
0.0251516
0.0254104
0.025842
0.0264939
0.0274502
0.0287782
0.0305752
0.0329492
0.0361317
0.0401689
0.0448571
0.04992
0.05372
0.0455492
0.0249243
-0.0120537
-0.064811
-0.121298
-0.165568
-0.183621
-0.171348
-0.132583
-0.0853813
-0.0403527
-0.0127742
0.00516982
0.0154694
0.0206555
0.023232
0.0241287
0.0241879
0.0238408
0.0233058
0.0226806
0.0220595
0.0215166
0.0210865
0.0207871
0.0206585
0.0260714
0.0262316
0.0265347
0.0270058
0.0276815
0.0286103
0.0298446
0.0314755
0.0334831
0.0359895
0.0389097
0.0415567
0.0428023
0.0402894
0.0287594
0.00685266
-0.0283843
-0.0698006
-0.105068
-0.119981
-0.112017
-0.0935927
-0.0647724
-0.0339316
-0.00802318
0.00782946
0.0176301
0.0231494
0.0260889
0.0272957
0.0274101
0.0270109
0.0263596
0.0256305
0.0248894
0.02421
0.02363
0.0231717
0.0228372
0.0226516
0.0267973
0.0269394
0.0272322
0.0276669
0.0282533
0.0289895
0.0298819
0.0309377
0.0320788
0.0331799
0.0338706
0.0331471
0.0292205
0.0193681
0.000572699
-0.0261916
-0.0582191
-0.0917407
-0.115172
-0.119283
-0.105194
-0.0773285
-0.0433779
-0.0144609
0.00667112
0.0191728
0.0262676
0.0298087
0.0313875
0.0313768
0.0307242
0.029716
0.028605
0.0275617
0.0266493
0.0258938
0.0252894
0.0248314
0.0245129
0.0242895
0.027326
0.0274669
0.0276935
0.0280097
0.0284178
0.0288701
0.0293225
0.0297245
0.0298249
0.0295379
0.0280379
0.0243111
0.0161783
3.66918e-05
-0.0263335
-0.0599134
-0.100927
-0.13585
-0.159901
-0.159444
-0.13612
-0.097437
-0.0531074
-0.0189725
0.00551855
0.0213436
0.0303506
0.0344109
0.0352902
0.0346371
0.0333456
0.0318564
0.0303706
0.0290825
0.028013
0.0271565
0.0264876
0.0260006
0.0256858
0.0255518
0.0276852
0.0277901
0.0279495
0.0281529
0.0283849
0.0285938
0.0287189
0.0286499
0.0281003
0.0267687
0.0239032
0.0184659
0.00784759
-0.0102841
-0.042125
-0.0825104
-0.131468
-0.172536
-0.200724
-0.201752
-0.164269
-0.117675
-0.0679959
-0.0295815
-0.000263722
0.020786
0.0326353
0.0373442
0.037771
0.0363283
0.0347252
0.0330045
0.0314282
0.0300787
0.0289632
0.0280559
0.027349
0.0268433
0.0265369
0.0264985
0.0279206
0.0279685
0.0280695
0.028199
0.0283343
0.0284193
0.0283806
0.0281159
0.0273499
0.0257956
0.0225777
0.016917
0.00634536
-0.0111474
-0.0399153
-0.0764216
-0.120747
-0.158869
-0.189249
-0.19435
-0.157752
-0.115822
-0.0698043
-0.0317274
-0.00189356
0.0190691
0.0312352
0.0371392
0.0382864
0.0364618
0.0348708
0.0332129
0.0317474
0.0305049
0.0294756
0.0286451
0.0280143
0.027579
0.0273191
0.0272233
0.0281219
0.0281527
0.0282424
0.0283561
0.0284678
0.0285219
0.0284485
0.0281706
0.0274931
0.0261523
0.0235416
0.0190492
0.0107722
-0.00246096
-0.0236793
-0.0500526
-0.080278
-0.109318
-0.132671
-0.139253
-0.123478
-0.0970305
-0.0641898
-0.0324423
-0.00620813
0.0130376
0.02618
0.033674
0.0360768
0.0353
0.0340514
0.0326991
0.0314799
0.0304212
0.0295554
0.0288683
0.0283527
0.0279899
0.0277478
0.0275806
0.0283093
0.0283927
0.028482
0.0285893
0.0286929
0.0287687
0.0287594
0.0286008
0.0281924
0.0273967
0.0258936
0.023094
0.0180921
0.0097601
-0.00380634
-0.0225548
-0.0436385
-0.0655706
-0.0820397
-0.0913506
-0.0931732
-0.0832894
-0.0627166
-0.0378727
-0.0147202
0.00438604
0.0186945
0.0272995
0.0313326
0.0322946
0.0320293
0.0313588
0.0305533
0.0297772
0.0291162
0.0285728
0.0281429
0.0278186
0.0275975
0.0274753
0.0283701
0.0284573
0.0285495
0.0286641
0.0287908
0.0289324
0.0290656
0.0291515
0.0291277
0.0289182
0.0282608
0.026785
0.0239129
0.0184855
0.00946248
-0.00493569
-0.0235359
-0.0440702
-0.0626078
-0.0762165
-0.0826993
-0.0801468
-0.0659258
-0.0468595
-0.0268886
-0.008653
0.00648241
0.0175912
0.0244023
0.0275087
0.0287669
0.0290855
0.0289363
0.0286019
0.0282467
0.027896
0.0275922
0.027352
0.0272018
0.027156
0.0282203
0.0282339
0.0283241
0.0284714
0.0286727
0.0289306
0.0292458
0.0296223
0.0300055
0.0303497
0.0302948
0.0295987
0.0274934
0.0229477
0.0148908
0.00149492
-0.0182163
-0.0413754
-0.0666605
-0.0863791
-0.0945698
-0.0937503
-0.0829302
-0.0665005
-0.0466342
-0.0257044
-0.00715868
0.00733242
0.0170991
0.0223611
0.0251786
0.0264791
0.0270673
0.027282
0.0272962
0.0271996
0.0270736
0.026952
0.0268643
0.0268183
0.0280084
0.0279529
0.0280254
0.0281878
0.028444
0.0288007
0.0292452
0.0298126
0.0304839
0.0311446
0.0317289
0.0316025
0.0292714
0.0240826
0.0144058
-0.000135925
-0.0211857
-0.0470697
-0.0781385
-0.104737
-0.120576
-0.120643
-0.108226
-0.0902254
-0.0655969
-0.0395305
-0.0171257
0.000138998
0.0118045
0.0184398
0.0222822
0.0243084
0.0254909
0.0261236
0.0264297
0.0265544
0.0265903
0.0265581
0.0265047
0.0264307
0.0277519
0.0277537
0.02782
0.0279603
0.0282023
0.028546
0.0289862
0.0295491
0.0302273
0.0309392
0.0318948
0.0315847
0.0289703
0.023152
0.0124211
-0.00294727
-0.0242476
-0.0499348
-0.0816979
-0.109694
-0.133187
-0.131199
-0.115249
-0.0954744
-0.0669011
-0.0409989
-0.0182795
-0.00143632
0.00988287
0.0167178
0.020798
0.0231128
0.0244938
0.0252589
0.0256889
0.0259127
0.0260198
0.026044
0.0260332
0.0259606
0.0272659
0.0273546
0.027452
0.0275836
0.0277751
0.0280414
0.0283875
0.0288206
0.0293315
0.0298498
0.0301708
0.0291101
0.0256291
0.0193706
0.00899942
-0.00595432
-0.0255368
-0.048694
-0.0744089
-0.095442
-0.111312
-0.107708
-0.0917072
-0.0729689
-0.0496179
-0.028862
-0.0113547
0.0020967
0.0114017
0.0173154
0.0208554
0.0228998
0.02411
0.0247942
0.0251873
0.0253971
0.0254966
0.0255257
0.0255275
0.0255147
0.026525
0.0266028
0.0266917
0.0268036
0.0269456
0.0271281
0.0273461
0.0275809
0.0277652
0.0277909
0.027183
0.0251719
0.0206896
0.0129715
0.00195553
-0.0119591
-0.0289298
-0.0475226
-0.0640276
-0.0738654
-0.0763887
-0.0706621
-0.0593129
-0.0437104
-0.0275574
-0.0127587
-0.000233169
0.00932732
0.0157696
0.01974
0.0220424
0.023413
0.0242267
0.0247335
0.0250075
0.0251464
0.0252041
0.0252172
0.0252156
0.0252214
0.0256726
0.025671
0.0256989
0.0257545
0.0258215
0.0258864
0.0259175
0.0258605
0.0255291
0.0247588
0.0230507
0.0195695
0.0137582
0.00510542
-0.00626101
-0.0194335
-0.0338858
-0.0482293
-0.0588897
-0.0616181
-0.0562463
-0.0488905
-0.0379023
-0.0240814
-0.0107399
0.000861389
0.0102418
0.0166042
0.0203856
0.0224643
0.0235939
0.0242356
0.0246157
0.0248577
0.024983
0.0250376
0.0250588
0.0250564
0.0250405
0.0250143
0.0248533
0.0248067
0.0247854
0.0247689
0.024728
0.0246219
0.0243904
0.0239374
0.0230283
0.0213684
0.0183595
0.0131025
0.00521005
-0.00505484
-0.0172954
-0.0302106
-0.0428133
-0.0541781
-0.0618939
-0.0619542
-0.057798
-0.0462538
-0.0310932
-0.0156841
-0.00176799
0.00950438
0.0172683
0.021658
0.023775
0.0246757
0.0250057
0.025041
0.0250058
0.0249508
0.0248831
0.024824
0.0247796
0.0247451
0.0247206
0.0247073
0.0240985
0.0240964
0.0240699
0.0239963
0.0238437
0.0235608
0.0230612
0.0222502
0.0208682
0.0184617
0.0143487
0.00760942
-0.00236783
-0.0152756
-0.030811
-0.0459841
-0.0597623
-0.0705981
-0.0777818
-0.0769223
-0.0682947
-0.051925
-0.0319987
-0.0140543
0.00134958
0.0127158
0.0203627
0.0241439
0.025849
0.0262708
0.0260012
0.0256078
0.0251982
0.0248668
0.0246199
0.0244412
0.024317
0.024247
0.0242242
0.0242756
0.0233828
0.0234395
0.0234022
0.0232881
0.0230596
0.0226658
0.022019
0.0210431
0.0194026
0.0167409
0.0122377
0.00488968
-0.00600742
-0.0205232
-0.0381901
-0.0560634
-0.072371
-0.0843593
-0.0935429
-0.0929636
-0.0763696
-0.0554694
-0.0330459
-0.0142611
0.00118935
0.0124639
0.0202006
0.024219
0.0263027
0.0268171
0.0261227
0.0255565
0.0250155
0.0245795
0.0242628
0.024035
0.0238808
0.0238018
0.023785
0.023845
0.0226847
0.0227199
0.0226681
0.0225551
0.0223277
0.0219526
0.0213661
0.0204113
0.0188393
0.0163284
0.0121904
0.00567245
-0.00381212
-0.0163993
-0.0322654
-0.0492508
-0.0660186
-0.0781138
-0.0896033
-0.0904209
-0.0723011
-0.0540747
-0.0330099
-0.0156291
-0.00078503
0.0101803
0.0178592
0.0223712
0.0247386
0.025537
0.0252728
0.024844
0.0243945
0.0240595
0.0238004
0.023614
0.0234896
0.0234179
0.0233797
0.0233568
0.0220854
0.0220601
0.0220193
0.0219405
0.0217862
0.0215117
0.0210724
0.0203583
0.0191923
0.0172947
0.0141385
0.0092854
0.00217999
-0.0069048
-0.0181441
-0.0311162
-0.0448083
-0.0560248
-0.0646444
-0.0669066
-0.0601585
-0.0483097
-0.0335848
-0.0188734
-0.00575066
0.00471063
0.0125637
0.0179041
0.0212062
0.0229006
0.0234451
0.0234582
0.0232951
0.0231426
0.0230148
0.0229159
0.022846
0.0227913
0.0227407
0.0226808
0.0216865
0.0216684
0.0216436
0.021595
0.021502
0.0213383
0.0210738
0.0206508
0.0199883
0.0188695
0.0170686
0.0140773
0.00935385
0.00297989
-0.00494122
-0.0144298
-0.0247216
-0.034471
-0.0420252
-0.0463575
-0.0477368
-0.0435077
-0.034501
-0.0232076
-0.0121106
-0.00229866
0.00595316
0.0123184
0.0167116
0.0193492
0.0208083
0.0214335
0.0217034
0.0218217
0.021856
0.0218612
0.0218581
0.0218515
0.0218488
0.0218382
0.0213627
0.0213775
0.021374
0.0213529
0.0213146
0.0212582
0.0211669
0.0210287
0.0207889
0.0204003
0.0196585
0.0182116
0.0154349
0.010837
0.00426231
-0.00425812
-0.0141455
-0.0243655
-0.033593
-0.0401008
-0.042805
-0.0423309
-0.0365881
-0.0280579
-0.0186991
-0.00958148
-0.00115877
0.00572755
0.0111802
0.0151418
0.0176585
0.0191057
0.0199258
0.0203645
0.0205994
0.0207326
0.0208063
0.0208603
0.0209108
0.0209758
0.0209299
0.0209222
0.0209249
0.0209403
0.0209759
0.0210391
0.0211304
0.0212682
0.0214095
0.0215651
0.0215887
0.0211041
0.0195315
0.0161532
0.0100526
0.00135363
-0.00995799
-0.0220656
-0.0340905
-0.0432065
-0.0481665
-0.0494975
-0.045343
-0.0381664
-0.0292333
-0.0196517
-0.0100413
-0.00140986
0.00581199
0.0112308
0.0148062
0.0170137
0.0183153
0.0190798
0.0195473
0.0198275
0.0199887
0.0200852
0.020149
0.0202045
0.0204262
0.0203641
0.0203628
0.0204049
0.0205013
0.020656
0.0208828
0.0212046
0.0216054
0.022075
0.0226383
0.0223615
0.0209998
0.0183025
0.0127147
0.00437867
-0.00693943
-0.0203515
-0.0353479
-0.0489702
-0.0599401
-0.0624485
-0.058054
-0.0509724
-0.0411035
-0.0295128
-0.0176379
-0.00667286
0.00203565
0.00849187
0.0128681
0.0155088
0.0170883
0.0181088
0.0187537
0.0191522
0.0193843
0.0195067
0.0195575
0.0195392
0.0199414
0.0199055
0.0199082
0.0199493
0.0200474
0.0202093
0.020451
0.0207771
0.0212348
0.0217102
0.022225
0.0218957
0.0203566
0.0175611
0.0124082
0.00470722
-0.00591692
-0.0190578
-0.0347933
-0.0498627
-0.06455
-0.0672908
-0.0618357
-0.0544031
-0.0430926
-0.0307369
-0.0180965
-0.00698469
0.00162133
0.0079087
0.0121242
0.0147691
0.0164027
0.0174587
0.018113
0.0185282
0.0187834
0.0189281
0.0189831
0.0189232
0.0193808
0.0194121
0.0194403
0.0194758
0.0195311
0.019619
0.0197602
0.0199429
0.0201744
0.020284
0.020087
0.0192301
0.0172416
0.0137843
0.00833839
0.000817781
-0.00887172
-0.0202082
-0.0330343
-0.0442535
-0.0541305
-0.054977
-0.0499008
-0.042412
-0.0315086
-0.0209053
-0.0106982
-0.00221533
0.00438492
0.00944042
0.0128082
0.014966
0.016314
0.0171547
0.0176788
0.0180049
0.0182029
0.018307
0.0183562
0.0183491
0.0186567
0.0186926
0.0187022
0.0187012
0.0186914
0.0186787
0.0186506
0.0185905
0.0184486
0.0180391
0.0170457
0.0151945
0.0121583
0.00775718
0.00177348
-0.00555607
-0.0141011
-0.0229499
-0.0311157
-0.036666
-0.0382344
-0.0361429
-0.0310799
-0.0241544
-0.0160267
-0.00822304
-0.00125864
0.00433553
0.00893009
0.0123064
0.0144668
0.0158542
0.0166859
0.0171942
0.0175068
0.0177019
0.017808
0.0178623
0.0178943
0.0179297
0.017829
0.0177975
0.0177504
0.0176917
0.0176106
0.0174885
0.017286
0.0169338
0.0163287
0.0152738
0.0134786
0.0107021
0.0067723
0.00163591
-0.00466871
-0.0116846
-0.0190847
-0.0256494
-0.0299698
-0.0313079
-0.0295098
-0.0250117
-0.0189129
-0.0120531
-0.00508581
0.00114266
0.00632821
0.0103416
0.0133451
0.0151881
0.0162751
0.0168729
0.0172024
0.017404
0.0175299
0.0176106
0.0176536
0.0176744
0.017681
0.0176823
0.0170471
0.0169628
0.0168796
0.0167776
0.0166323
0.0163998
0.0160199
0.0153782
0.0143137
0.0125344
0.0098156
0.00593625
0.000958613
-0.00497301
-0.0117778
-0.0188074
-0.0255107
-0.0307804
-0.0332238
-0.0319826
-0.0291477
-0.0230079
-0.0151507
-0.00690513
0.00098823
0.00727079
0.0119912
0.0150743
0.0168085
0.0175014
0.0176993
0.0176816
0.0176072
0.0175515
0.0175125
0.0174813
0.0174628
0.0174506
0.0174386
0.0174169
0.0163882
0.0163487
0.0162797
0.0161581
0.0159512
0.0156063
0.0150589
0.0141817
0.0127319
0.0103875
0.0067697
0.00168802
-0.0049504
-0.0127073
-0.0210757
-0.0290698
-0.036052
-0.0408326
-0.0424574
-0.0391818
-0.0321933
-0.0234134
-0.0131821
-0.00316818
0.00529826
0.0115622
0.0158312
0.0180307
0.0189804
0.0190038
0.0185288
0.0181311
0.0177522
0.0174782
0.0172766
0.0171385
0.0170527
0.017009
0.016996
0.0170177
0.0158334
0.0158684
0.0158185
0.0156895
0.0154372
0.0150237
0.0143652
0.0133993
0.0117802
0.00922319
0.00523514
-0.000437113
-0.00808978
-0.0172006
-0.0269569
-0.0360376
-0.043993
-0.0489613
-0.0505591
-0.0460427
-0.0347745
-0.0228624
-0.0105781
0.000116981
0.0081066
0.0136801
0.0171523
0.0187032
0.0194166
0.0193134
0.0186595
0.0180907
0.0175586
0.0171805
0.0168916
0.016704
0.0165871
0.0165355
0.0165289
0.0165883
0.0153097
0.015358
0.0153106
0.0151877
0.0149555
0.014588
0.0139887
0.0130795
0.0116066
0.00927631
0.00581158
0.000940812
-0.00570006
-0.0139766
-0.0230372
-0.0319928
-0.0399352
-0.0452391
-0.0470765
-0.043169
-0.0334686
-0.0223364
-0.0107239
-0.00106263
0.00624438
0.0115676
0.0149924
0.0168606
0.0179014
0.0180547
0.0177518
0.0173927
0.016977
0.0166696
0.0164465
0.0162984
0.0162088
0.0161646
0.0161482
0.0161538
0.0148442
0.0148375
0.0148034
0.0147318
0.0145922
0.0143555
0.0139656
0.0133284
0.0122986
0.0106766
0.00817018
0.00471026
0.000267421
-0.00544394
-0.0121094
-0.0190628
-0.0256119
-0.0306078
-0.0334683
-0.0328552
-0.0286382
-0.0216329
-0.0136676
-0.00636152
0.000229466
0.00563674
0.0097188
0.0125463
0.0143459
0.0153596
0.0158394
0.0159728
0.0159091
0.0158304
0.0157671
0.0157242
0.0156976
0.0156755
0.0156483
0.01561
0.0145514
0.014528
0.0145148
0.0144926
0.014443
0.0143468
0.0141793
0.0138919
0.0133896
0.0125585
0.0111631
0.00901287
0.00620872
0.00262762
-0.00180886
-0.0068725
-0.012161
-0.0167611
-0.0207495
-0.0233165
-0.0231874
-0.0210543
-0.0170689
-0.0118837
-0.00609688
-0.000820972
0.00376145
0.00744685
0.0101823
0.0121198
0.013363
0.0140394
0.0143951
0.0146083
0.0147391
0.0148175
0.0148704
0.0149043
0.0149211
0.0149094
0.0143654
0.0143803
0.0143936
0.014406
0.0144125
0.0144174
0.0144198
0.014411
0.0143364
0.0141372
0.0136504
0.0126142
0.0108204
0.00824272
0.00469917
0.000202507
-0.00507041
-0.0103425
-0.0154052
-0.0195255
-0.0212458
-0.0221208
-0.0205195
-0.0165492
-0.011581
-0.00646964
-0.00161307
0.0026758
0.00611984
0.00878247
0.0107363
0.012024
0.0128246
0.0133254
0.0136307
0.013817
0.0139404
0.0140325
0.0141067
0.0141711
0.0140965
0.0141135
0.0141361
0.0141735
0.0142333
0.0143274
0.014469
0.0146742
0.0149253
0.0151954
0.0154487
0.0153278
0.0143946
0.0125505
0.00941183
0.00493835
-0.0008505
-0.00753278
-0.0139508
-0.0196879
-0.0239734
-0.0272126
-0.0270482
-0.0239656
-0.0192492
-0.0137313
-0.00797742
-0.00259417
0.00205746
0.00576747
0.00850625
0.0103864
0.0115892
0.0123317
0.0127815
0.0130625
0.0132416
0.0133616
0.0134499
0.0135263
0.0137044
0.0136727
0.0136863
0.0137385
0.0138455
0.0140181
0.0142713
0.0146112
0.0150772
0.015629
0.0162995
0.0167218
0.0165259
0.0156123
0.0133349
0.00945871
0.00385994
-0.00396418
-0.0126027
-0.0209698
-0.0287812
-0.034504
-0.03511
-0.032042
-0.0272605
-0.0208979
-0.0139827
-0.00718145
-0.00113671
0.00355823
0.00696791
0.00929897
0.0107524
0.0116699
0.0122425
0.0125982
0.0128207
0.012943
0.0129995
0.0130094
0.0133032
0.0132603
0.0132671
0.013315
0.0134237
0.0136052
0.0138819
0.0142434
0.0147615
0.0153271
0.0159321
0.0163537
0.0163475
0.0157646
0.0140036
0.0106407
0.00554392
-0.0021475
-0.0114407
-0.0209496
-0.0295296
-0.036222
-0.0370023
-0.0330264
-0.0284707
-0.0217625
-0.0146623
-0.00764792
-0.00153687
0.0031638
0.00654847
0.00886179
0.0103193
0.0112548
0.0118354
0.0122166
0.0124485
0.0125689
0.0126099
0.0125633
0.012881
0.0128904
0.0129099
0.0129449
0.0130108
0.0131196
0.0132805
0.0134963
0.0137711
0.0139778
0.0140713
0.0138774
0.0132059
0.0119176
0.00975337
0.00627127
0.00163922
-0.00441678
-0.0116204
-0.0189212
-0.0246046
-0.0283286
-0.0277924
-0.0245217
-0.0200655
-0.0144176
-0.00862533
-0.00311775
0.00139502
0.00485802
0.00745142
0.00923171
0.0103654
0.0111127
0.0115813
0.0118711
0.0120373
0.0121321
0.0121699
0.0121432
0.0123365
0.0123687
0.0123795
0.0123788
0.0123692
0.012358
0.0123426
0.0122956
0.0121798
0.0118663
0.0112188
0.0100839
0.00845195
0.00618681
0.00323385
-0.000437031
-0.004648
-0.00900758
-0.0128291
-0.0159599
-0.0176737
-0.0175742
-0.0154043
-0.0122825
-0.00851694
-0.00436655
-0.000480181
0.00292243
0.0055736
0.00766852
0.00924671
0.0102477
0.0109068
0.0113036
0.0115396
0.0116763
0.011744
0.0117768
0.011794
0.011814
0.0116695
0.0116518
0.0116147
0.011558
0.0114736
0.0113461
0.0111434
0.0108234
0.0103138
0.00948113
0.0082154
0.00637866
0.0039755
0.000978431
-0.00249697
-0.00618782
-0.00982561
-0.0129071
-0.0142438
-0.0140542
-0.0132458
-0.010866
-0.00769229
-0.00418633
-0.000641375
0.00272193
0.00545216
0.00758799
0.00915462
0.0103038
0.0109972
0.0113635
0.0115552
0.0116308
0.0116562
0.0116649
0.0116596
0.0116464
0.0116356
0.0116405
0.0110213
0.0109503
0.0108673
0.0107621
0.0106199
0.0104036
0.0100616
0.00950979
0.0086423
0.00732568
0.0054377
0.00297393
-0.000179826
-0.0039691
-0.00808507
-0.0121198
-0.015444
-0.0175823
-0.0174339
-0.0148996
-0.0119689
-0.0084775
-0.00442256
-0.000152277
0.00380847
0.00712849
0.00950578
0.0110247
0.011909
0.0122746
0.0122504
0.012139
0.0119848
0.0118406
0.0117283
0.0116495
0.0115971
0.0115559
0.0115237
0.0114933
0.0104914
0.0104387
0.0103619
0.0102463
0.0100686
0.00978589
0.00933933
0.00861724
0.00743987
0.00565471
0.00309803
-0.000350543
-0.00474401
-0.00978718
-0.0149242
-0.0195844
-0.0228339
-0.0243056
-0.0229556
-0.0182868
-0.0127466
-0.00700923
-0.00115942
0.00423813
0.00831975
0.0112508
0.013008
0.0137983
0.0139204
0.0134989
0.0129654
0.0124778
0.0120769
0.0117804
0.0115633
0.0114091
0.0113101
0.011251
0.0112214
0.0112141
0.0100584
0.0100725
0.0100299
0.00992399
0.00972929
0.00940049
0.00889445
0.00807862
0.00675254
0.00469147
0.00173683
-0.00237829
-0.0075925
-0.0134034
-0.0191632
-0.0242661
-0.0277786
-0.0289979
-0.027103
-0.0207325
-0.0133985
-0.00577111
0.00176463
0.00783329
0.0117124
0.0140328
0.0150159
0.0150846
0.0145757
0.0137497
0.0130376
0.0123855
0.0118657
0.0114823
0.0111954
0.0110038
0.0108801
0.0108161
0.0107994
0.010837
0.00966393
0.00971131
0.0096818
0.00958822
0.00940962
0.00910219
0.00862622
0.00787574
0.00667392
0.00482692
0.00224534
-0.00133253
-0.00589305
-0.0110756
-0.0163118
-0.0209285
-0.0242807
-0.0255775
-0.0242404
-0.0190521
-0.0126994
-0.00584622
0.000981881
0.00635246
0.00985159
0.0120362
0.0130919
0.0134043
0.0131868
0.0127149
0.0122581
0.0117558
0.0113284
0.0110003
0.0107608
0.0106044
0.0105071
0.0104603
0.0104483
0.0104733
0.00930314
0.00931451
0.00929237
0.00924019
0.00913507
0.00894867
0.00863699
0.0081367
0.0073469
0.00614541
0.00442406
0.00220259
-0.000684778
-0.00412468
-0.00777786
-0.01125
-0.014003
-0.0158822
-0.0163123
-0.0143194
-0.0110028
-0.00699691
-0.00290834
0.000776618
0.0037968
0.00624382
0.00797226
0.00916543
0.00992658
0.0103465
0.0105066
0.0104812
0.0103896
0.0102847
0.0101981
0.0101444
0.0101133
0.0100956
0.0100802
0.0100567
0.00903312
0.00901792
0.0090194
0.00902302
0.00901392
0.00897917
0.0088963
0.00872455
0.00841376
0.00790172
0.00706043
0.00597514
0.00448913
0.00254183
0.000255491
-0.00233059
-0.004487
-0.00684352
-0.00865387
-0.00938555
-0.00917703
-0.00840981
-0.00696945
-0.00483104
-0.00226944
0.000323205
0.00262274
0.00460771
0.0062315
0.00744881
0.00828779
0.00879257
0.00909548
0.00926527
0.00937027
0.00943838
0.00948104
0.00950456
0.00950714
0.00949232
0.00886801
0.00888173
0.00891207
0.00895484
0.00900791
0.00907851
0.00916396
0.00925374
0.00930781
0.00930029
0.009112
0.00870553
0.00797129
0.00682361
0.00517098
0.00291171
0.000469856
-0.00213901
-0.00451584
-0.00680466
-0.00868516
-0.010232
-0.0105478
-0.0093496
-0.00717705
-0.00444206
-0.00170465
0.000887415
0.00308472
0.00481713
0.00613083
0.00707533
0.00771706
0.00813913
0.00840775
0.00858232
0.00869825
0.00878035
0.00883926
0.00887844