/*--------------------------------*- C++ -*----------------------------------*\
| =========                 |                                                 |
| \\      /  F ield         | OpenFOAM: The Open Source CFD Toolbox           |
|  \\    /   O peration     | Version:  v2106                                 |
|   \\  /    A nd           | Website:  www.openfoam.com                      |
|    \\/     M anipulation  |                                                 |
\*---------------------------------------------------------------------------*/
FoamFile
{
    version     2.0;
    format      ascii;
    arch        "LSB;label=32;scalar=64";
    class       volVectorField;
    location    "0";
    object      U;
}
// * * * * * * * * * * * * * * * * * * * * * * * * * * * * * * * * * * * * * //

dimensions      [0 1 -1 0 0 0 0];

internalField   nonuniform List<vector> 
11644
(
(0.99556 -0.000221488 -8.80737e-25)
(0.995451 -0.000577888 -2.42881e-24)
(0.995388 -0.000841929 -1.30312e-24)
(0.995372 -0.00111204 0)
(0.995365 -0.00139296 0)
(0.995361 -0.00168027 0)
(0.995358 -0.0019641 0)
(0.995354 -0.00223347 0)
(0.99535 -0.00247539 0)
(0.995337 -0.00267844 0)
(0.995344 -0.00281819 0)
(0.995315 -0.00288327 0)
(0.995317 -0.00284452 0)
(0.995463 -0.0026998 0)
(0.995299 -0.0023995 0)
(0.995294 -0.00200913 0)
(0.995245 -0.00150695 0)
(0.995005 -0.000833189 0)
(0.994761 0.000106907 0)
(0.99476 0.00126636 3.3694e-30)
(0.995029 0.00236199 -3.3867e-30)
(0.995376 0.00317596 0)
(0.995519 0.0036393 0)
(0.995436 0.00391548 0)
(0.995344 0.00412613 0)
(0.995371 0.00427412 0)
(0.995562 0.00430102 0)
(0.995397 0.00419998 0)
(0.995329 0.00401077 0)
(0.995355 0.0037276 0)
(0.99538 0.00339065 0)
(0.995373 0.00303156 0)
(0.995376 0.00265322 0)
(0.995375 0.00227793 0)
(0.995375 0.00191181 0)
(0.995376 0.00156174 0)
(0.995379 0.00123046 0)
(0.995398 0.000920548 0)
(0.995466 0.000617683 0)
(0.995572 0.000231753 -1.70766e-25)
(0.996318 -0.000456593 -1.1313e-24)
(0.996232 -0.00137511 -1.04795e-24)
(0.996169 -0.00229159 -5.62819e-25)
(0.996155 -0.0031913 0)
(0.996163 -0.00408726 0)
(0.996168 -0.00498676 0)
(0.996158 -0.00588031 0)
(0.996126 -0.00674568 0)
(0.99606 -0.00755062 0)
(0.995963 -0.00825055 0)
(0.995792 -0.00879917 0)
(0.995583 -0.00911332 0)
(0.995256 -0.00914335 0)
(0.99465 -0.00881228 0)
(0.994457 -0.00803789 0)
(0.993962 -0.00681248 -5.46005e-26)
(0.99346 -0.00510921 -3.03945e-24)
(0.993036 -0.0030754 -9.01973e-23)
(0.992628 -0.000815891 3.59065e-23)
(0.992381 0.00166166 4.32658e-22)
(0.992453 0.00432217 -3.49365e-22)
(0.992934 0.00700293 -7.19006e-23)
(0.993737 0.00935062 4.05069e-23)
(0.994447 0.0109345 1.13497e-24)
(0.994912 0.0118453 1.37903e-25)
(0.995269 0.0122656 0)
(0.995465 0.0123513 0)
(0.996002 0.0120495 0)
(0.99629 0.0114361 0)
(0.9964 0.0106131 0)
(0.996451 0.00964474 0)
(0.996479 0.00858049 0)
(0.996456 0.00749073 0)
(0.996416 0.00640199 0)
(0.996365 0.00533862 0)
(0.996313 0.00431098 0)
(0.996272 0.00332006 0)
(0.99626 0.00235372 0)
(0.996297 0.00139693 0)
(0.996362 0.000459773 0)
(0.997866 -0.0007202 0)
(0.997807 -0.00221764 0)
(0.997773 -0.00376549 0)
(0.99778 -0.00532495 0)
(0.997812 -0.00689659 -1.03342e-24)
(0.99784 -0.00848583 0)
(0.997842 -0.0100875 0)
(0.997791 -0.0116783 0)
(0.997654 -0.0132126 0)
(0.997382 -0.014631 0)
(0.996939 -0.0158328 0)
(0.996287 -0.0167046 0)
(0.995477 -0.0170825 2.10653e-24)
(0.994688 -0.0168352 -1.53664e-22)
(0.993026 -0.0158576 2.55056e-22)
(0.991704 -0.014063 3.30523e-22)
(0.990382 -0.0114266 -5.08708e-23)
(0.98909 -0.00797102 -4.00766e-22)
(0.988084 -0.00391133 5.52832e-23)
(0.987539 0.000524989 -4.24598e-22)
(0.9876 0.00506164 3.69863e-22)
(0.988356 0.00949333 -1.45353e-22)
(0.989855 0.0135525 5.19251e-22)
(0.991846 0.0168451 -5.69049e-22)
(0.993594 0.0188926 2.57628e-22)
(0.995036 0.0198721 -1.70564e-22)
(0.996416 0.0200319 1.26195e-22)
(0.997124 0.0195311 -1.54341e-24)
(0.997804 0.018525 0)
(0.998278 0.0171205 0)
(0.998496 0.0154988 0)
(0.998553 0.0137621 0)
(0.998513 0.0119783 0)
(0.998404 0.0102105 0)
(0.998266 0.00848759 0)
(0.998123 0.00682562 0)
(0.997998 0.00522457 0)
(0.997915 0.00366791 0)
(0.997888 0.00215691 0)
(0.99791 0.00070349 0)
(1.00025 -0.00103012 0)
(1.00022 -0.00311498 0)
(1.00023 -0.00526928 0)
(1.0003 -0.00748204 0)
(1.0004 -0.00975955 0)
(1.0005 -0.0121078 0)
(1.00056 -0.014526 0)
(1.00053 -0.0169917 0)
(1.00035 -0.0194627 0)
(0.999947 -0.0218556 0)
(0.999238 -0.0240393 -1.17473e-24)
(0.998086 -0.0258316 -6.6833e-23)
(0.996324 -0.0270456 -1.10151e-22)
(0.99357 -0.0275102 1.51532e-22)
(0.991331 -0.0265781 -1.09791e-23)
(0.98817 -0.024405 1.29117e-21)
(0.98504 -0.0207899 -8.9316e-22)
(0.982191 -0.0157377 -1.54379e-21)
(0.980163 -0.00948604 4.89551e-22)
(0.9793 -0.00256862 -1.15761e-22)
(0.979527 0.00461403 7.3614e-22)
(0.980962 0.0115001 -7.39254e-22)
(0.983593 0.0176144 1.2187e-21)
(0.987238 0.0224978 -7.40302e-22)
(0.99111 0.0259747 1.65985e-22)
(0.994354 0.0276934 1.88899e-22)
(0.996628 0.0280125 -2.26517e-22)
(0.998873 0.0271085 1.78395e-22)
(1.00021 0.0254961 2.96342e-23)
(1.00099 0.0234268 1.41318e-25)
(1.00143 0.0210718 0)
(1.00154 0.0186091 0)
(1.00145 0.0161319 0)
(1.00124 0.0137036 0)
(1.00097 0.0113613 0)
(1.0007 0.00911664 0)
(1.00047 0.00696275 0)
(1.00029 0.00489434 0)
(1.0002 0.00287909 0)
(1.00019 0.00095245 0)
(1.00345 -0.00130747 0)
(1.00346 -0.00398102 0)
(1.00356 -0.00674642 0)
(1.00374 -0.0096046 0)
(1.00398 -0.0125971 0)
(1.00423 -0.0157482 0)
(1.00445 -0.0190666 0)
(1.00455 -0.0225504 0)
(1.00444 -0.0261652 0)
(1.00397 -0.0298366 1.91078e-23)
(1.0029 -0.0334292 2.506e-23)
(1.00103 -0.0367202 -6.39319e-22)
(0.998377 -0.0392892 1.60209e-22)
(0.995448 -0.0406121 -2.01989e-22)
(0.990013 -0.0408682 2.34919e-21)
(0.984541 -0.0388147 -1.86369e-21)
(0.97897 -0.0347006 2.32174e-22)
(0.973489 -0.0283757 -4.33759e-23)
(0.969076 -0.0194094 8.48547e-22)
(0.966523 -0.00844142 -9.90056e-22)
(0.966623 0.00338233 1.11511e-21)
(0.969481 0.0145523 -1.16676e-22)
(0.974519 0.0237674 -9.51155e-22)
(0.98131 0.0304823 1.77793e-22)
(0.987427 0.0347104 8.28425e-22)
(0.99329 0.0369558 -1.64629e-21)
(0.998493 0.0369339 5.96305e-22)
(1.00139 0.0354716 6.25088e-22)
(1.00357 0.0329094 -5.25641e-22)
(1.00478 0.0298064 -1.30035e-23)
(1.00531 0.0265361 1.55566e-23)
(1.00544 0.0232208 0)
(1.00524 0.0199989 0)
(1.00487 0.0169011 0)
(1.00444 0.0139553 0)
(1.004 0.011161 0)
(1.00362 0.0085089 0)
(1.00333 0.00597352 0)
(1.00315 0.00354778 0)
(1.0031 0.00115508 0)
(1.00738 -0.0015704 0)
(1.00747 -0.00477587 0)
(1.00772 -0.00805681 0)
(1.00809 -0.0115152 0)
(1.00858 -0.0151916 0)
(1.00912 -0.0191429 0)
(1.00964 -0.0234074 0)
(1.01006 -0.0280136 0)
(1.0102 -0.032951 -4.11095e-23)
(1.0098 -0.0381561 -2.13425e-23)
(1.00863 -0.0434794 2.41698e-22)
(1.00659 -0.0486307 5.353e-22)
(1.00321 -0.053469 -7.70571e-22)
(0.996908 -0.0581802 9.70063e-22)
(0.990527 -0.0594282 -3.74129e-21)
(0.981375 -0.0583039 1.51623e-21)
(0.970982 -0.0547146 1.62936e-22)
(0.960058 -0.0461825 1.84604e-21)
(0.951302 -0.0323092 -2.11229e-21)
(0.946232 -0.0154392 9.08794e-22)
(0.946253 0.00242235 -1.52379e-21)
(0.951236 0.019361 2.5509e-21)
(0.960362 0.0335904 -1.37534e-21)
(0.971413 0.042588 1.33874e-21)
(0.982992 0.0471599 -2.85387e-21)
(0.992824 0.0492243 3.22879e-21)
(0.999673 0.0485655 -1.07264e-21)
(1.00551 0.0450514 -4.91243e-22)
(1.00851 0.0409928 4.77385e-22)
(1.01001 0.0364869 2.6662e-22)
(1.01046 0.0319631 2.32191e-24)
(1.01033 0.0276711 -3.40174e-23)
(1.00991 0.0236159 0)
(1.00929 0.0198414 0)
(1.0086 0.0163195 0)
(1.00794 0.0130298 0)
(1.00737 0.00994177 0)
(1.00693 0.00700048 0)
(1.00665 0.0041437 0)
(1.00654 0.00139562 0)
(1.01192 -0.0018059 0)
(1.01211 -0.00538374 0)
(1.01256 -0.00914786 0)
(1.01324 -0.0130879 0)
(1.0141 -0.0173408 0)
(1.0151 -0.021991 0)
(1.01617 -0.0271391 0)
(1.01716 -0.0328565 -7.61784e-24)
(1.0178 -0.0391448 -6.76532e-23)
(1.01787 -0.0459751 2.06757e-22)
(1.01718 -0.0533876 -2.62235e-22)
(1.01516 -0.0615364 1.56273e-22)
(1.01118 -0.0700158 2.42143e-22)
(1.0064 -0.0767573 -6.19779e-22)
(0.994368 -0.0840048 -2.30251e-21)
(0.979902 -0.0860422 2.46372e-21)
(0.96806 -0.074817 4.72164e-22)
(0.9519 -0.0665112 -1.17293e-21)
(0.936589 -0.0494673 -3.32856e-21)
(0.926218 -0.0259286 -9.70017e-22)
(0.924499 0.000767434 -2.95706e-21)
(0.931585 0.0251828 -5.60787e-21)
(0.944768 0.043628 -2.19748e-21)
(0.960232 0.0545958 -4.33057e-22)
(0.980357 0.0677966 -1.90669e-21)
(0.994645 0.0672846 1.22157e-21)
(1.00634 0.06187 1.09292e-21)
(1.01159 0.056757 -3.94906e-22)
(1.0153 0.0499383 -1.68016e-22)
(1.01694 0.0434564 4.6715e-23)
(1.0171 0.037377 3.94653e-23)
(1.01648 0.0318212 1.0087e-23)
(1.01551 0.026864 4.55462e-24)
(1.01448 0.0224048 0)
(1.01344 0.0183361 0)
(1.01247 0.0145797 0)
(1.01165 0.0110698 0)
(1.01102 0.00777164 0)
(1.01061 0.00460102 0)
(1.01045 0.00148976 0)
(1.01688 -0.00184834 0)
(1.01721 -0.00573366 0)
(1.01792 -0.00973302 0)
(1.01898 -0.0140184 0)
(1.02037 -0.0187032 0)
(1.02204 -0.0239077 0)
(1.02391 -0.0297713 0)
(1.02577 -0.0363998 7.19375e-23)
(1.02731 -0.0438702 -3.19382e-23)
(1.02851 -0.0523975 -1.7019e-22)
(1.02904 -0.0622915 -4.92017e-22)
(1.02827 -0.0734276 1.21103e-21)
(1.02527 -0.0854819 -3.59707e-22)
(1.01451 -0.0945245 -2.40384e-22)
(1.0049 -0.102159 -8.04926e-22)
(0.9884 -0.110448 2.26343e-22)
(0.962805 -0.112244 -3.23806e-22)
(0.934472 -0.103084 1.08066e-21)
(0.904698 -0.0809866 -4.3113e-22)
(0.882903 -0.0439527 -3.07463e-21)
(0.878108 0.0014826 5.2163e-21)
(0.892517 0.043167 -4.27641e-21)
(0.919431 0.0715111 -1.10579e-21)
(0.948793 0.0852787 -3.00075e-22)
(0.975271 0.088851 -7.22474e-22)
(0.995931 0.0838112 1.81103e-21)
(1.00898 0.0762764 -1.65292e-21)
(1.02263 0.0675015 -2.93096e-22)
(1.02515 0.0585438 2.75264e-22)
(1.02593 0.0500568 7.22136e-23)
(1.02537 0.0423483 -3.88269e-23)
(1.02395 0.0355278 -9.0969e-23)
(1.02212 0.0296185 8.07754e-23)
(1.02041 0.0244848 0)
(1.01887 0.0199361 0)
(1.0175 0.0158064 0)
(1.01637 0.012 0)
(1.01551 0.0084194 0)
(1.01495 0.00501384 0)
(1.01471 0.00170112 0)
(1.02201 -0.00193764 0)
(1.0225 -0.00582744 0)
(1.02352 -0.00985985 0)
(1.02506 -0.0142573 0)
(1.02711 -0.0190828 0)
(1.02964 -0.0245395 0)
(1.03257 -0.0307929 2.09852e-24)
(1.03557 -0.0379915 3.06114e-23)
(1.03861 -0.0463809 -2.54881e-22)
(1.04179 -0.0565146 1.22463e-22)
(1.04458 -0.0688898 -7.96329e-23)
(1.04622 -0.0837411 -2.45563e-22)
(1.04527 -0.102028 -2.63637e-23)
(1.03343 -0.116805 1.92884e-21)
(1.02255 -0.131859 2.06419e-21)
(1.00262 -0.149681 -1.38888e-21)
(0.970998 -0.155925 9.18949e-22)
(0.92288 -0.155765 1.81567e-21)
(0.868962 -0.132458 -2.15308e-21)
(0.821528 -0.0772002 4.76604e-21)
(0.806251 0.00201577 1.76453e-21)
(0.832642 0.0738599 -2.65774e-21)
(0.882782 0.116218 2.07129e-21)
(0.937151 0.130952 -3.68211e-22)
(0.977275 0.12519 -1.67183e-22)
(1.00908 0.113352 -3.44368e-22)
(1.02371 0.0960168 1.17269e-21)
(1.03749 0.0804868 -9.64769e-23)
(1.0383 0.065751 1.12034e-22)
(1.03723 0.0549623 2.85365e-23)
(1.0352 0.0460079 -2.77691e-22)
(1.03259 0.0382993 8.71897e-23)
(1.0297 0.0316381 1.75272e-23)
(1.02699 0.0259746 5.81177e-24)
(1.02479 0.0210542 0)
(1.02293 0.0166365 0)
(1.02142 0.0125975 0)
(1.02029 0.00880915 0)
(1.01955 0.00519154 0)
(1.01923 0.00165323 0)
(1.02704 -0.00187277 0)
(1.0277 -0.00549813 0)
(1.02909 -0.00946637 0)
(1.03116 -0.0136161 0)
(1.03395 -0.0182727 0)
(1.03746 -0.0235962 0)
(1.0416 -0.0297976 -2.8884e-23)
(1.04611 -0.0370662 4.40339e-23)
(1.05143 -0.0460157 1.04212e-22)
(1.05751 -0.0573437 -5.05075e-23)
(1.06378 -0.0713955 -4.81577e-22)
(1.06954 -0.0889173 7.16824e-22)
(1.07396 -0.11207 -2.79242e-22)
(1.06518 -0.133515 -7.36276e-23)
(1.05746 -0.158749 6.38773e-22)
(1.03263 -0.189734 5.31579e-22)
(0.995229 -0.215887 2.09962e-23)
(0.930164 -0.243567 -9.42349e-22)
(0.826661 -0.242068 -1.56328e-22)
(0.705071 -0.164283 8.9773e-22)
(0.650259 0.000383376 -5.55345e-22)
(0.718665 0.157183 1.71486e-21)
(0.843498 0.221947 -7.57416e-22)
(0.942744 0.213461 -9.71528e-22)
(1.00716 0.181311 1.06301e-22)
(1.04285 0.145445 2.40077e-22)
(1.05188 0.111782 2.23217e-22)
(1.05913 0.0864554 6.21799e-24)
(1.05482 0.0689896 1.36233e-22)
(1.05045 0.0569396 -1.72198e-22)
(1.04618 0.0473381 4.2165e-24)
(1.04199 0.0393545 2.84956e-23)
(1.03793 0.0324863 7.49969e-25)
(1.03411 0.0265638 -4.10672e-24)
(1.03106 0.021459 0)
(1.02861 0.0169265 0)
(1.02668 0.0127905 0)
(1.02525 0.00897884 0)
(1.02432 0.0053361 0)
(1.02389 0.00186108 0)
(1.03165 -0.00147482 0)
(1.03248 -0.00485367 0)
(1.03414 -0.00816695 0)
(1.03674 -0.0118693 0)
(1.04032 -0.016045 0)
(1.0449 -0.0208536 0)
(1.05033 -0.0264683 1.40214e-23)
(1.05681 -0.0332787 -4.74737e-23)
(1.06508 -0.0420863 4.15252e-23)
(1.07483 -0.0535524 7.34961e-23)
(1.0857 -0.0681144 3.04988e-23)
(1.09704 -0.0861975 -9.93007e-23)
(1.10828 -0.108695 -1.38988e-24)
(1.10787 -0.13799 1.10142e-22)
(1.10911 -0.172598 -3.61407e-22)
(1.09934 -0.219634 -1.30028e-23)
(1.07306 -0.280424 9.0073e-23)
(1.01302 -0.375355 -1.30018e-22)
(0.847994 -0.483807 -1.03359e-21)
(0.476912 -0.468976 -3.86712e-20)
(0.187058 0.0111524 -1.96775e-20)
(0.502325 0.471095 -1.13268e-20)
(0.871726 0.465166 8.3595e-22)
(1.03533 0.337201 -1.70485e-23)
(1.08885 0.233188 -8.0584e-23)
(1.10126 0.158357 -9.84729e-23)
(1.09189 0.118272 -4.06692e-23)
(1.08458 0.0809569 -8.37441e-23)
(1.07365 0.0661171 -3.64869e-23)
(1.06452 0.0544809 8.35075e-23)
(1.05736 0.0454336 1.55868e-23)
(1.05145 0.0381993 -5.01473e-23)
(1.04626 0.0318519 1.49826e-23)
(1.04145 0.0261347 -8.66959e-24)
(1.03749 0.021121 0)
(1.0344 0.0166641 0)
(1.03199 0.0125862 0)
(1.03023 0.00879619 0)
(1.0291 0.00519934 0)
(1.02858 0.00164138 0)
(1.03554 -0.00138437 0)
(1.03654 -0.00387224 0)
(1.0386 -0.0065493 0)
(1.04174 -0.0094676 0)
(1.04597 -0.0126872 0)
(1.05145 -0.0164234 0)
(1.05816 -0.0208702 2.13926e-23)
(1.06692 -0.0265621 2.30601e-23)
(1.07835 -0.0342086 2.19339e-23)
(1.09198 -0.044271 -7.03062e-24)
(1.10784 -0.0572624 -2.27079e-23)
(1.12567 -0.0736187 -5.00849e-23)
(1.14485 -0.0928286 1.04199e-23)
(1.15218 -0.124106 8.35737e-24)
(1.17112 -0.15837 -3.06894e-23)
(1.18352 -0.210922 1.00686e-22)
(1.20163 -0.28525 -5.99821e-23)
(1.23603 -0.417715 9.3996e-22)
(0.907541 -0.482951 -7.7516e-20)
(1.11534 0.585554 1.39921e-20)
(1.27655 0.365592 8.85309e-23)
(1.21562 0.213822 2.80089e-22)
(1.17121 0.132395 4.09078e-23)
(1.1351 0.0988783 7.32565e-23)
(1.1096 0.0649859 -3.37687e-22)
(1.09074 0.0545652 9.14373e-23)
(1.07702 0.0464178 1.15031e-22)
(1.06733 0.0399532 5.03417e-23)
(1.05994 0.0345031 4.26427e-23)
(1.05394 0.0294361 2.90165e-23)
(1.04852 0.024515 1.51158e-23)
(1.0438 0.0199336 0)
(1.04009 0.015758 0)
(1.03721 0.0119236 0)
(1.03511 0.00831197 0)
(1.03376 0.0049484 0)
(1.03312 0.00161301 0)
(1.03829 -0.000832386 0)
(1.03949 -0.00253386 0)
(1.04182 -0.00431237 0)
(1.04527 -0.0061474 0)
(1.05001 -0.00816066 0)
(1.05624 -0.0104503 0)
(1.06425 -0.013245 1.09809e-24)
(1.07527 -0.0171308 -1.48873e-23)
(1.08963 -0.022573 1.98244e-23)
(1.10667 -0.0296812 4.22062e-24)
(1.12667 -0.0387313 -1.76541e-23)
(1.14985 -0.0502548 8.51137e-23)
(1.17623 -0.0634223 -1.75886e-22)
(1.19147 -0.0910318 -3.11108e-22)
(1.22536 -0.115739 -1.46837e-21)
(1.25611 -0.1565 1.29122e-22)
(1.30593 -0.203464 1.54354e-22)
(1.38006 -0.246813 1.4803e-21)
(0.00654619 0.015675 2.09289e-19)
(0.0780096 0.00353742 -2.28878e-19)
(1.44958 0.168192 -3.79128e-22)
(1.30649 0.109733 4.62137e-23)
(1.21836 0.0683705 -1.58457e-21)
(1.16549 0.0566612 -2.93421e-21)
(1.12313 0.0388017 -2.62441e-22)
(1.10085 0.0369162 -7.01326e-23)
(1.08529 0.0343504 1.2579e-23)
(1.07434 0.0315801 1.03215e-23)
(1.06632 0.0286517 3.55518e-23)
(1.06019 0.025422 -1.92053e-24)
(1.05476 0.0217528 6.5085e-24)
(1.04962 0.0178808 0)
(1.04543 0.0142186 0)
(1.04217 0.0108418 0)
(1.03978 0.00769428 0)
(1.03819 0.00457613 0)
(1.03741 0.00169978 0)
(1.04048 -0.000330988 -1.2512e-25)
(1.04153 -0.00100406 0)
(1.04376 -0.00167491 0)
(1.04729 -0.00230003 0)
(1.05228 -0.00292476 0)
(1.0589 -0.00350948 0)
(1.06799 -0.00428584 -2.89757e-24)
(1.08083 -0.00575112 -1.53119e-23)
(1.09718 -0.00800372 7.42645e-23)
(1.11632 -0.0109212 -9.68461e-23)
(1.13864 -0.0144376 3.11021e-22)
(1.16511 -0.0190291 3.90791e-22)
(1.19539 -0.0237151 -6.36295e-22)
(1.21891 -0.0446254 3.74082e-22)
(1.25944 -0.0586213 -1.56818e-22)
(1.29755 -0.0860457 -7.1228e-22)
(1.34761 -0.110754 -7.35887e-23)
(1.2719 -0.103451 -1.58969e-22)
(-0.00306965 -0.030081 -1.90587e-22)
(0.312936 -0.029328 8.89643e-21)
(1.41321 -0.039772 -1.65625e-21)
(1.31081 -0.01914 3.77487e-22)
(1.21752 -0.00768423 -9.12502e-22)
(1.16763 0.0073804 1.36538e-21)
(1.12376 0.0110261 4.04474e-22)
(1.10321 0.0187519 -2.07177e-22)
(1.08817 0.0215628 -2.65817e-22)
(1.07757 0.0223495 1.38694e-22)
(1.07004 0.0218555 -9.16508e-23)
(1.06454 0.0204619 1.3264e-24)
(1.05976 0.0181586 1.86015e-23)
(1.05473 0.0151663 0)
(1.05017 0.0120792 0)
(1.04655 0.00916022 0)
(1.0439 0.00640861 0)
(1.04219 0.00376526 0)
(1.04141 0.0010234 0)
(1.04085 0.000339963 4.8426e-27)
(1.04207 0.000698423 0)
(1.04427 0.00108815 0)
(1.0477 0.00163153 0)
(1.05254 0.00241762 0)
(1.0591 0.00361874 0)
(1.06873 0.00515515 -1.22305e-24)
(1.08234 0.00655538 2.12344e-23)
(1.09917 0.00803636 3.52065e-23)
(1.11871 0.0100464 -3.9074e-23)
(1.14144 0.0129524 -2.0963e-23)
(1.16854 0.0161536 -7.04817e-23)
(1.20011 0.0209816 2.81414e-23)
(1.22956 0.00889314 -7.22171e-22)
(1.27399 0.0061206 3.29658e-22)
(1.3196 -0.0111764 -4.03377e-22)
(1.37303 -0.031525 6.89419e-22)
(1.20882 -0.051836 -1.67959e-22)
(0.186267 -0.189835 2.97286e-23)
(-0.0535646 -0.360189 -9.45915e-23)
(-0.246103 -0.222905 -1.237e-22)
(-0.00760203 -0.079852 9.60116e-22)
(0.680201 -0.20001 1.08516e-22)
(1.32865 -0.222531 1.75192e-21)
(1.243 -0.13103 -3.06333e-21)
(1.17018 -0.0657342 7.9353e-22)
(1.13996 -0.0286252 -1.17123e-21)
(1.10741 -0.00529514 -1.57081e-22)
(1.09564 0.00569889 -2.08482e-22)
(1.08567 0.0115724 -9.64788e-23)
(1.07764 0.0144704 2.39341e-22)
(1.07146 0.0155368 -1.71896e-23)
(1.067 0.0153342 -3.04588e-23)
(1.06334 0.0140965 -2.46246e-23)
(1.05895 0.0120173 0)
(1.05427 0.00962093 0)
(1.05044 0.00731534 0)
(1.04757 0.00506306 0)
(1.04566 0.0029892 0)
(1.04468 0.000985415 0)
(1.04013 0.000521451 3.8543e-23)
(1.04113 0.00175719 0)
(1.04312 0.00321267 0)
(1.04623 0.00490165 0)
(1.05056 0.00703728 0)
(1.05646 0.00987513 0)
(1.06554 0.0135671 -1.47365e-25)
(1.07871 0.0178938 -1.6727e-23)
(1.09452 0.0232446 -9.41531e-23)
(1.11255 0.0302765 1.46304e-22)
(1.13343 0.0396131 -5.51184e-23)
(1.15813 0.051013 -2.92775e-22)
(1.18777 0.0666218 2.75414e-22)
(1.2223 0.0669165 7.47293e-22)
(1.26874 0.0793349 2.3809e-21)
(1.3334 0.0919899 -1.82766e-21)
(1.40657 0.0794488 -1.73251e-21)
(1.29383 0.0270099 -6.46319e-21)
(0.613341 -0.252297 3.49918e-22)
(0.0842298 -0.54581 1.73912e-20)
(-0.359586 -0.719416 -1.34306e-21)
(-0.051777 -0.708996 -8.48186e-21)
(0.757856 -0.559445 6.94696e-22)
(1.08926 -0.338682 -2.51077e-22)
(1.10383 -0.178838 -6.22948e-22)
(1.09155 -0.0766522 2.01652e-22)
(1.09612 -0.0314988 7.52492e-22)
(1.08701 -0.00180138 -4.46711e-22)
(1.08411 0.00495839 4.99967e-22)
(1.07987 0.00821899 4.57931e-24)
(1.07539 0.00986851 -8.41078e-23)
(1.07153 0.0107286 6.20228e-23)
(1.06825 0.0106298 2.92519e-23)
(1.06574 0.00989449 -1.96458e-25)
(1.06203 0.00850283 0)
(1.05747 0.00687108 0)
(1.05362 0.0053354 0)
(1.05068 0.00384017 0)
(1.04865 0.00237404 0)
(1.04767 0.00105683 -3.33939e-23)
(1.03836 0.000746251 2.05272e-24)
(1.03911 0.00256438 0)
(1.04073 0.00468718 0)
(1.04319 0.00720297 0)
(1.04658 0.0103247 0)
(1.05122 0.0143051 0)
(1.0588 0.019483 0)
(1.07026 0.0260555 2.78728e-24)
(1.08351 0.0346388 2.15108e-23)
(1.09807 0.0459388 1.08356e-22)
(1.11457 0.0609807 -3.42575e-23)
(1.13384 0.0799498 -4.59396e-22)
(1.1571 0.10589 1.10289e-21)
(1.18978 0.139496 -1.22272e-22)
(1.23452 0.157221 -1.50387e-21)
(1.29379 0.199265 -7.19845e-22)
(1.38102 0.232018 -5.32886e-21)
(1.43491 0.272504 4.41181e-21)
(1.00958 0.0833999 -3.71903e-21)
(0.503147 -0.185115 -1.20537e-20)
(-0.0789878 -0.498026 2.3087e-21)
(-0.171834 -0.669282 -1.26617e-20)
(0.378918 -0.50178 -3.21037e-21)
(0.821692 -0.230785 6.77106e-21)
(0.951471 -0.0739529 -3.19674e-22)
(1.01965 -0.0234524 1.6737e-21)
(1.05855 0.0187078 4.37949e-22)
(1.07625 0.0159419 -6.0724e-22)
(1.07982 0.0137189 2.24788e-22)
(1.0786 0.0114729 5.987e-23)
(1.07539 0.00920638 -5.84207e-23)
(1.07175 0.00748024 -2.85623e-23)
(1.06913 0.00650983 2.2594e-24)
(1.06736 0.00561678 0)
(1.06391 0.00461067 0)
(1.05935 0.003683 0)
(1.0554 0.00284913 0)
(1.0525 0.00201663 0)
(1.05068 0.00115043 0)
(1.04976 0.000201763 -2.80444e-23)
(1.03595 0.000985245 9.02875e-24)
(1.03637 0.00303081 0)
(1.03743 0.00543581 0)
(1.03908 0.00824882 0)
(1.04134 0.0117517 0)
(1.04447 0.0161487 0)
(1.04996 0.0219462 0)
(1.05865 0.0296883 0)
(1.06812 0.0401893 -8.19802e-24)
(1.07756 0.0542561 5.26037e-23)
(1.08748 0.0731945 -1.46714e-22)
(1.09822 0.0975397 2.05506e-22)
(1.11064 0.129777 8.48076e-23)
(1.12657 0.175346 -4.64452e-22)
(1.16575 0.214304 -2.60789e-23)
(1.20282 0.282195 -1.74527e-21)
(1.25951 0.356452 -1.62348e-22)
(1.34492 0.487875 -4.0816e-21)
(1.23561 0.573827 -1.04824e-20)
(0.834255 0.488247 4.4789e-21)
(0.345273 0.252312 2.70836e-21)
(0.0242519 -0.044023 3.67942e-21)
(0.120427 -0.185533 4.75408e-21)
(0.551783 -0.0383604 6.3101e-20)
(0.897904 0.096942 -2.26969e-22)
(1.00365 0.0743584 9.72913e-22)
(1.0723 0.062539 8.57072e-23)
(1.08549 0.0365736 1.88993e-22)
(1.08706 0.0242509 1.51841e-23)
(1.08375 0.0150527 6.78121e-24)
(1.07882 0.00885561 -4.11664e-23)
(1.07414 0.00488634 9.21445e-24)
(1.07088 0.00245034 0)
(1.06863 0.00101586 0)
(1.06483 0.000352387 0)
(1.06011 8.61918e-05 0)
(1.05606 -8.84543e-05 -1.63131e-24)
(1.05308 -0.000226541 -2.25599e-24)
(1.05107 -0.000213023 -1.34527e-24)
(1.04983 -0.00016501 0)
(1.03313 0.00100207 0)
(1.03333 0.00308021 0)
(1.03387 0.00532879 0)
(1.03473 0.00794424 0)
(1.03584 0.011207 0)
(1.03737 0.0152603 0)
(1.04041 0.0207377 0)
(1.04543 0.0286164 0)
(1.05017 0.0395907 -3.08564e-26)
(1.05357 0.0543162 -3.71945e-24)
(1.05565 0.0740925 -1.40998e-23)
(1.05596 0.100032 -6.66989e-23)
(1.05583 0.133196 1.38358e-22)
(1.05332 0.181177 9.48925e-23)
(1.07462 0.232267 -2.10359e-21)
(1.08122 0.304851 -8.9988e-22)
(1.10856 0.393061 2.30252e-21)
(1.09481 0.528569 4.246e-21)
(1.05329 0.724899 -1.32772e-21)
(0.904345 0.843275 4.23997e-21)
(0.655674 0.793231 7.31339e-21)
(0.419157 0.588554 7.29876e-21)
(0.320554 0.342485 -1.08354e-21)
(0.393876 0.207002 -4.12955e-22)
(0.941278 0.244703 -2.17608e-22)
(1.07589 0.155517 1.63131e-21)
(1.12138 0.0790693 -4.25857e-22)
(1.11671 0.0459856 6.07944e-23)
(1.10644 0.0264739 2.98568e-23)
(1.09555 0.0131345 -4.31582e-23)
(1.08608 0.00510299 2.35365e-24)
(1.07852 5.93944e-05 -2.95296e-26)
(1.07337 -0.00299979 0)
(1.06954 -0.00440301 0)
(1.06479 -0.00437554 0)
(1.05978 -0.00381582 0)
(1.05562 -0.00312854 0)
(1.05252 -0.00231909 0)
(1.05036 -0.00133631 0)
(1.0491 -0.000376842 2.42285e-25)
(1.03037 0.000840044 0)
(1.03039 0.00254918 0)
(1.03059 0.00430556 0)
(1.03084 0.00629999 0)
(1.031 0.00873422 0)
(1.03102 0.0117531 0)
(1.03137 0.0159432 0)
(1.03223 0.0225407 0)
(1.03196 0.0321692 0)
(1.02959 0.0450979 0)
(1.02423 0.0622734 -3.24898e-24)
(1.01471 0.0851369 -2.80235e-23)
(1.0012 0.114111 4.28457e-23)
(0.982365 0.157997 -1.60108e-24)
(0.98181 0.209438 -5.49871e-22)
(0.961474 0.274724 3.70212e-22)
(0.959403 0.375208 -1.54519e-21)
(0.912768 0.470191 -2.59344e-21)
(0.857664 0.56233 -1.91607e-22)
(0.793777 0.665706 -5.36032e-21)
(0.702636 0.738194 -7.75886e-21)
(0.612057 0.73413 -1.09172e-20)
(0.552693 0.646639 3.01057e-21)
(0.591733 0.472103 1.41599e-21)
(1.05881 0.263951 -7.06421e-22)
(1.20597 0.15217 7.10625e-22)
(1.18657 0.0507461 4.87382e-23)
(1.15625 0.0281662 2.19085e-23)
(1.12992 0.0107858 1.67712e-24)
(1.11008 0.000326863 6.52881e-24)
(1.09492 -0.00562099 0)
(1.08369 -0.00925321 0)
(1.07571 -0.0110395 0)
(1.0695 -0.0109941 0)
(1.06348 -0.0095443 0)
(1.05809 -0.0077759 0)
(1.05385 -0.00598711 0)
(1.05074 -0.0041811 0)
(1.04866 -0.00240834 0)
(1.04753 -0.000730081 0)
(1.02819 0.000469952 0)
(1.0282 0.00142881 0)
(1.02826 0.00242056 0)
(1.02821 0.00350855 0)
(1.02784 0.00473709 0)
(1.02684 0.00620534 0)
(1.02497 0.00827809 0)
(1.02229 0.0120453 0)
(1.01791 0.0180762 0)
(1.01092 0.0263662 0)
(0.999645 0.0374915 0)
(0.982224 0.0523774 -1.2488e-25)
(0.956607 0.0721279 2.67592e-23)
(0.923812 0.102881 -7.78953e-23)
(0.903743 0.153384 -2.37341e-22)
(0.853339 0.205823 1.58672e-21)
(0.82077 0.292911 2.45782e-23)
(0.786733 0.400837 1.75708e-23)
(0.709828 0.532431 -1.67264e-21)
(0.647493 0.660926 2.37273e-21)
(0.628002 0.741499 1.09588e-21)
(0.655245 0.733279 -3.09499e-21)
(0.735369 0.618179 -6.70664e-23)
(0.911757 0.403944 -1.3298e-21)
(1.27372 0.131194 6.5481e-22)
(1.31399 0.0495159 7.79992e-22)
(1.22979 -0.019332 5.18129e-23)
(1.18 -0.0189506 6.31784e-24)
(1.14381 -0.0234019 -1.83411e-24)
(1.11837 -0.0241282 0)
(1.09949 -0.0238214 0)
(1.08563 -0.023019 0)
(1.07528 -0.0212644 0)
(1.06707 -0.0183963 0)
(1.06019 -0.0149039 0)
(1.05472 -0.0116488 0)
(1.05063 -0.00870277 0)
(1.04771 -0.00600588 0)
(1.04584 -0.00350545 0)
(1.04492 -0.00113892 0)
(1.02739 5.63634e-05 0)
(1.02742 0.000223702 0)
(1.02746 0.00033357 0)
(1.02739 0.000367407 0)
(1.02696 0.000256375 0)
(1.02571 -4.6468e-05 0)
(1.02286 -0.000457805 0)
(1.0183 -0.000403625 0)
(1.01175 0.00042533 0)
(1.0024 0.00172545 0)
(0.988164 0.00357404 1.54697e-23)
(0.966208 0.00591122 0)
(0.933097 0.0113229 0)
(0.890415 0.0204908 4.34862e-22)
(0.836521 0.0449297 7.98081e-21)
(0.776478 0.0974654 -3.45817e-22)
(0.656667 0.161831 -1.26847e-22)
(0.55245 0.266223 1.35641e-22)
(0.498599 0.353686 2.65555e-22)
(0.530863 0.395599 -8.60387e-22)
(0.672292 0.376984 3.76639e-21)
(0.854224 0.278944 -8.78769e-21)
(1.06531 0.121354 -1.14517e-21)
(1.26654 -0.0368406 3.67905e-22)
(1.39634 -0.118403 6.80756e-23)
(1.3071 -0.135815 -5.24853e-22)
(1.22137 -0.101306 4.74127e-22)
(1.17121 -0.0781214 0)
(1.1376 -0.0643829 0)
(1.11295 -0.052855 4.64171e-23)
(1.09458 -0.0443132 0)
(1.08065 -0.037524 0)
(1.06973 -0.0313001 0)
(1.06102 -0.0253195 0)
(1.05437 -0.0197679 0)
(1.04953 -0.0150388 0)
(1.046 -0.0109977 0)
(1.04352 -0.00749911 2.68484e-25)
(1.04196 -0.00435525 1.92614e-25)
(1.04121 -0.00142029 0)
(1.02767 -0.000149703 0)
(1.0278 -0.00059188 0)
(1.028 -0.00123322 0)
(1.02821 -0.00214953 0)
(1.02827 -0.00351531 0)
(1.02762 -0.00549298 0)
(1.02519 -0.00824938 0)
(1.02082 -0.0117757 0)
(1.01481 -0.0163034 0)
(1.0065 -0.0225567 0)
(0.993705 -0.0315035 1.43308e-22)
(0.973063 -0.0450433 0)
(0.937393 -0.0603397 0)
(0.88015 -0.0753804 -3.41594e-21)
(0.793922 -0.0850121 -2.11786e-20)
(0.688323 -0.0675197 -3.64649e-21)
(0.60097 -0.117079 0)
(0.572779 -0.210962 -1.66746e-22)
(0.595211 -0.321335 2.93881e-21)
(0.697424 -0.417733 -1.76174e-22)
(0.872062 -0.49021 -4.51629e-21)
(1.05411 -0.512981 1.98777e-20)
(1.20957 -0.502339 -1.26073e-21)
(1.29634 -0.432615 0)
(1.28519 -0.325137 6.49235e-22)
(1.21609 -0.226447 8.58353e-22)
(1.16552 -0.164019 -7.08819e-23)
(1.13294 -0.125191 0)
(1.11078 -0.0966364 0)
(1.09322 -0.0755342 -9.22991e-23)
(1.07956 -0.0599641 0)
(1.06845 -0.048116 0)
(1.05912 -0.0383797 0)
(1.05156 -0.0301734 0)
(1.04622 -0.0231741 0)
(1.04268 -0.0173759 -4.85725e-25)
(1.0402 -0.0125266 6.31192e-25)
(1.03848 -0.0084025 0)
(1.03741 -0.00480548 0)
(1.03689 -0.00148756 1.48328e-24)
(1.02836 -0.000234818 0)
(1.02882 -0.000990208 0)
(1.02946 -0.00204532 0)
(1.03033 -0.00354624 0)
(1.03135 -0.00570912 0)
(1.032 -0.00881236 0)
(1.0312 -0.0132501 2.38835e-25)
(1.02895 -0.0194317 0)
(1.02631 -0.0281306 0)
(1.0231 -0.040612 0)
(1.0175 -0.0586892 0)
(1.00684 -0.0868399 0)
(0.97911 -0.123963 0)
(0.908921 -0.171002 9.02517e-21)
(0.817163 -0.218307 1.63777e-22)
(0.759256 -0.261235 -6.76788e-23)
(0.75247 -0.36158 0)
(0.741562 -0.460659 0)
(0.745015 -0.546108 -1.46602e-21)
(0.788223 -0.60981 -3.66868e-20)
(0.89461 -0.636322 -5.85138e-21)
(1.00459 -0.615648 2.51467e-21)
(1.08969 -0.553936 0)
(1.12665 -0.45368 0)
(1.11766 -0.340754 0)
(1.09847 -0.25285 -4.30358e-24)
(1.08918 -0.191255 -8.88618e-23)
(1.079 -0.146215 1.03611e-23)
(1.07129 -0.111464 0)
(1.0642 -0.0858929 0)
(1.05774 -0.0665825 0)
(1.05156 -0.0520421 0)
(1.04551 -0.0406249 -2.13152e-24)
(1.04023 -0.0315257 -8.73496e-25)
(1.03681 -0.0240774 -4.40057e-26)
(1.03491 -0.0180205 0)
(1.03367 -0.013001 0)
(1.03287 -0.00872339 0)
(1.03248 -0.00499461 0)
(1.03243 -0.00159739 0)
(1.02927 -0.000316362 0)
(1.03011 -0.00106607 0)
(1.03132 -0.00208529 0)
(1.03302 -0.00358592 0)
(1.03527 -0.00581423 0)
(1.03771 -0.0091082 0)
(1.03945 -0.0140327 0)
(1.04074 -0.021277 0)
(1.04347 -0.0317512 5.24044e-24)
(1.04837 -0.0469442 0)
(1.05484 -0.0686631 0)
(1.06132 -0.102328 0)
(1.05474 -0.149145 -5.27188e-22)
(0.999376 -0.216258 -1.0599e-22)
(0.911679 -0.302364 0)
(0.868539 -0.388039 0)
(0.858758 -0.473613 0)
(0.822682 -0.533474 0)
(0.809281 -0.572557 -5.51058e-21)
(0.812871 -0.599445 -6.70219e-21)
(0.858616 -0.589922 1.70568e-20)
(0.913199 -0.538537 -6.22528e-21)
(0.960898 -0.46425 0)
(0.983998 -0.377776 0)
(0.995 -0.297066 0)
(1.00807 -0.235558 0)
(1.01722 -0.184429 -1.51149e-21)
(1.02344 -0.141635 -3.61459e-22)
(1.02941 -0.108511 0)
(1.0326 -0.0829857 6.10855e-26)
(1.03376 -0.0634863 -3.27415e-24)
(1.03326 -0.0487189 -6.27499e-25)
(1.03128 -0.0373513 0)
(1.02892 -0.028607 0)
(1.0277 -0.0217899 0)
(1.02746 -0.0164071 0)
(1.0274 -0.0119823 0)
(1.0274 -0.00821445 0)
(1.02756 -0.00482728 0)
(1.02783 -0.00172581 0)
(1.0302 -0.000204152 0)
(1.03119 -0.000671178 0)
(1.03285 -0.00126298 0)
(1.03533 -0.00223586 0)
(1.03879 -0.00378982 0)
(1.0431 -0.00622634 0)
(1.04771 -0.0101081 0)
(1.05303 -0.0162552 0)
(1.06137 -0.0253286 0)
(1.07443 -0.03833 0)
(1.0934 -0.0564371 7.40054e-23)
(1.11814 -0.083563 -4.68639e-23)
(1.13984 -0.122586 1.7323e-21)
(1.11917 -0.186074 -3.25948e-22)
(1.04931 -0.284483 0)
(0.984058 -0.382744 0)
(0.930417 -0.465319 0)
(0.864349 -0.521463 0)
(0.828129 -0.557088 -2.22412e-20)
(0.803344 -0.570332 3.85918e-20)
(0.802343 -0.553094 -1.08862e-21)
(0.818722 -0.486836 7.21956e-21)
(0.849878 -0.413814 0)
(0.879916 -0.333867 0)
(0.909822 -0.263539 0)
(0.93972 -0.206364 0)
(0.958334 -0.157599 2.14162e-21)
(0.974941 -0.120119 3.75352e-22)