/*--------------------------------*- C++ -*----------------------------------*\
| =========                 |                                                 |
| \\      /  F ield         | OpenFOAM: The Open Source CFD Toolbox           |
|  \\    /   O peration     | Version:  v2106                                 |
|   \\  /    A nd           | Website:  www.openfoam.com                      |
|    \\/     M anipulation  |                                                 |
\*---------------------------------------------------------------------------*/
FoamFile
{
    version     2.0;
    format      ascii;
    arch        "LSB;label=32;scalar=64";
    class       volVectorField;
    location    "0";
    object      U;
}
// * * * * * * * * * * * * * * * * * * * * * * * * * * * * * * * * * * * * * //

dimensions      [0 1 -1 0 0 0 0];

internalField   nonuniform List<vector> 
11644
(
(0.996967 -0.000234618 -1.83976e-23)
(0.99686 -0.000626552 -5.0735e-23)
(0.996791 -0.000935066 -2.72206e-23)
(0.996772 -0.00125109 0)
(0.996768 -0.00159027 0)
(0.996767 -0.00194994 0)
(0.996767 -0.00232798 0)
(0.996767 -0.00271787 0)
(0.996764 -0.0031127 0)
(0.996771 -0.00349201 0)
(0.99675 -0.00384992 0)
(0.996718 -0.00416113 0)
(0.996782 -0.00437519 0)
(0.996947 -0.00449945 0)
(0.996769 -0.00450699 0)
(0.996727 -0.0043738 0)
(0.996792 -0.00416089 0)
(0.996913 -0.00389831 0)
(0.996871 -0.00352377 0)
(0.996553 -0.00282828 3.38298e-30)
(0.996197 -0.00179131 -3.3653e-30)
(0.996089 -0.000579553 0)
(0.9963 0.00046758 0)
(0.996576 0.00121418 0)
(0.99667 0.00175229 0)
(0.996686 0.00217437 0)
(0.996861 0.00251457 0)
(0.99672 0.00268968 0)
(0.996703 0.00276002 0)
(0.996732 0.00272209 0)
(0.996732 0.00260472 0)
(0.996744 0.0024213 0)
(0.996746 0.00219487 0)
(0.99675 0.00193746 0)
(0.996753 0.00166272 0)
(0.996757 0.00138223 0)
(0.996764 0.00110592 0)
(0.996781 0.000838512 0)
(0.996843 0.000575771 0)
(0.996952 0.000221052 -3.5671e-24)
(0.997767 -0.000464727 -2.36315e-23)
(0.997703 -0.00141222 -2.18904e-23)
(0.997668 -0.00238317 -1.17566e-23)
(0.997683 -0.00336671 0)
(0.997728 -0.00437939 0)
(0.997786 -0.00543496 0)
(0.997844 -0.00653418 0)
(0.997893 -0.00766759 0)
(0.997924 -0.00881366 0)
(0.997907 -0.00994404 0)
(0.997858 -0.010993 0)
(0.997768 -0.0118993 0)
(0.997487 -0.0126153 0)
(0.996954 -0.0130299 0)
(0.996722 -0.0130384 0)
(0.996335 -0.0127123 6.8271e-24)
(0.995918 -0.0119378 -6.77416e-25)
(0.995306 -0.0105541 -9.32117e-25)
(0.994483 -0.0083467 -3.46045e-23)
(0.993883 -0.00565982 2.52994e-22)
(0.9937 -0.00289733 -1.54317e-22)
(0.993895 -0.000317855 -1.00725e-23)
(0.994307 0.00201327 -4.70085e-23)
(0.994753 0.0041278 2.00389e-24)
(0.99525 0.00594916 -7.59368e-24)
(0.995748 0.00730716 0)
(0.995936 0.00819837 0)
(0.996539 0.00865235 0)
(0.996902 0.00872201 0)
(0.99712 0.00849447 0)
(0.997294 0.00802355 0)
(0.997406 0.0073833 0)
(0.997484 0.0066258 0)
(0.997526 0.00579743 0)
(0.997543 0.00493168 0)
(0.997545 0.00405129 0)
(0.997541 0.0031687 0)
(0.997559 0.00227846 0)
(0.997623 0.00136928 0)
(0.997708 0.000454599 0)
(0.999326 -0.000708485 0)
(0.99931 -0.00217407 0)
(0.999345 -0.00370207 0)
(0.999439 -0.00528136 0)
(0.999579 -0.00691293 -2.1587e-23)
(0.999741 -0.00861577 0)
(0.999904 -0.0103924 0)
(1.00004 -0.0122314 0)
(1.00012 -0.0141044 0)
(1.00009 -0.0159557 0)
(0.999921 -0.0177091 0)
(0.999462 -0.0192813 0)
(0.998795 -0.0204683 3.23087e-24)
(0.99808 -0.0211554 -9.49971e-23)
(0.996697 -0.0212318 4.24521e-23)
(0.995299 -0.0205096 1.0115e-21)
(0.993623 -0.0187535 -1.38199e-21)
(0.991563 -0.0156628 4.49285e-22)
(0.98988 -0.0116587 5.99683e-22)
(0.988922 -0.00720203 -3.51897e-21)
(0.98873 -0.00260443 3.78005e-21)
(0.989229 0.00192242 -1.58977e-21)
(0.990231 0.00608229 1.99751e-22)
(0.991483 0.00968383 -2.9467e-22)
(0.992779 0.012536 7.53219e-22)
(0.994088 0.0145603 -1.01585e-22)
(0.995765 0.0157821 1.45105e-22)
(0.996593 0.0162314 -4.50035e-24)
(0.997406 0.0160445 0)
(0.998103 0.0153293 0)
(0.998599 0.0142512 0)
(0.998906 0.0129383 0)
(0.999076 0.0114846 0)
(0.999156 0.0099541 0)
(0.999178 0.00839701 0)
(0.999167 0.00683978 0)
(0.999148 0.00529088 0)
(0.99915 0.00374674 0)
(0.999189 0.00220916 0)
(0.99925 0.000718731 0)
(1.00162 -0.000952122 0)
(1.00164 -0.00288537 0)
(1.00175 -0.00490871 0)
(1.00194 -0.00699653 0)
(1.00221 -0.00917979 0)
(1.00252 -0.011469 0)
(1.00283 -0.013875 0)
(1.0031 -0.0163897 0)
(1.00326 -0.0189854 0)
(1.00323 -0.0215959 0)
(1.00285 -0.024151 -1.77033e-25)
(1.00215 -0.0264494 7.01232e-23)
(1.00086 -0.0283496 -3.31218e-22)
(0.998697 -0.029594 -7.1388e-23)
(0.996491 -0.0296123 5.7686e-22)
(0.993273 -0.028276 5.68829e-22)
(0.989321 -0.0251092 -6.94241e-22)
(0.985463 -0.020399 -5.72404e-22)
(0.982578 -0.0143936 5.4165e-22)
(0.980867 -0.00761243 2.70889e-21)
(0.980414 -0.000463173 -2.50836e-21)
(0.98114 0.00654616 2.12153e-22)
(0.983103 0.0129824 -3.90244e-22)
(0.985854 0.018297 1.05301e-21)
(0.988881 0.0222196 -6.31666e-22)
(0.992012 0.0247392 -8.92644e-22)
(0.994293 0.0259982 1.69183e-22)
(0.997113 0.0258818 1.68021e-22)
(0.99897 0.024949 1.55145e-23)
(1.00019 0.0233964 1.64229e-24)
(1.00097 0.0213977 0)
(1.00146 0.0191377 0)
(1.00171 0.0167695 0)
(1.00179 0.0143806 0)
(1.00178 0.0120187 0)
(1.00171 0.00971022 0)
(1.00164 0.00745835 0)
(1.00159 0.00526075 0)
(1.00159 0.00311192 0)
(1.00163 0.00102799 0)
(1.00452 -0.00115545 0)
(1.00459 -0.00353113 0)
(1.0048 -0.00595827 0)
(1.00512 -0.00849456 0)
(1.00555 -0.0111616 0)
(1.00605 -0.0139872 0)
(1.00657 -0.0169883 0)
(1.00703 -0.0201715 0)
(1.00734 -0.0235159 0)
(1.00733 -0.0270115 2.02892e-23)
(1.00695 -0.0305289 1.88865e-22)
(1.00592 -0.0339643 -9.57501e-23)
(1.00392 -0.0369149 -9.09615e-23)
(1.00118 -0.0387992 -3.63211e-22)
(0.996027 -0.0393089 1.73797e-21)
(0.990177 -0.0375025 -2.04683e-21)
(0.983881 -0.0336265 1.9199e-22)
(0.976698 -0.0271587 -2.04148e-21)
(0.971334 -0.0181673 4.79237e-21)
(0.968096 -0.00718253 1.00288e-21)
(0.967593 0.00458108 -2.97359e-21)
(0.969782 0.0156083 -5.38827e-21)
(0.973952 0.0248074 4.66821e-21)
(0.979173 0.0315073 -2.55518e-22)
(0.98463 0.0360619 2.47503e-21)
(0.990098 0.0385781 -2.63183e-21)
(0.995553 0.0388174 3.93536e-22)
(0.998646 0.0379107 -1.86252e-22)
(1.00148 0.035731 9.17821e-22)
(1.00356 0.0327516 -3.17501e-22)
(1.00479 0.0293969 5.54478e-24)
(1.00537 0.0258906 0)
(1.00559 0.0223852 0)
(1.00558 0.0189799 0)
(1.00544 0.0157132 0)
(1.00525 0.0125945 0)
(1.00506 0.00961735 0)
(1.00491 0.00676266 0)
(1.00483 0.00399383 0)
(1.00483 0.00131358 0)
(1.00794 -0.00136234 0)
(1.00807 -0.00409028 0)
(1.00838 -0.00690829 0)
(1.00887 -0.00983036 0)
(1.00951 -0.0129088 0)
(1.01026 -0.0162063 0)
(1.01106 -0.0197564 0)
(1.01182 -0.0235893 0)
(1.01241 -0.0277543 1.25945e-23)
(1.01276 -0.0322514 1.83874e-22)
(1.01262 -0.0370671 1.43863e-22)
(1.01149 -0.0419656 4.34507e-22)
(1.00879 -0.0465245 -8.62728e-22)
(1.00316 -0.0506696 7.56434e-22)
(0.996319 -0.0518216 8.11903e-22)
(0.986245 -0.050221 -5.81535e-22)
(0.974389 -0.0461146 2.17031e-21)
(0.962882 -0.0374682 -2.17793e-21)
(0.953344 -0.0234415 2.63474e-22)
(0.947905 -0.00669136 -2.16455e-21)
(0.947291 0.0110807 2.49242e-21)
(0.951819 0.0280539 -6.78041e-21)
(0.960123 0.0421401 9.00047e-21)
(0.970614 0.0510653 -4.35208e-21)
(0.98088 0.0551846 2.20157e-21)
(0.989893 0.056863 -8.58375e-22)
(0.996308 0.0561448 -4.19834e-22)
(1.00282 0.0520308 -3.71651e-22)
(1.00646 0.0476783 1.38322e-22)
(1.00884 0.0429265 -1.85819e-22)
(1.01035 0.0378812 1.50946e-22)
(1.01097 0.0328463 -1.36703e-23)
(1.01097 0.0280172 0)
(1.0107 0.0234714 0)
(1.01028 0.019237 0)
(1.00983 0.015292 0)
(1.00941 0.0116077 0)
(1.00908 0.00813037 0)
(1.00886 0.00482123 0)
(1.00879 0.0015843 0)
(1.01178 -0.00147833 0)
(1.01197 -0.00450074 0)
(1.01242 -0.00761149 0)
(1.01312 -0.0108486 0)
(1.01402 -0.0143048 0)
(1.01509 -0.018022 0)
(1.01628 -0.022071 0)
(1.0175 -0.0265395 8.91093e-24)
(1.01875 -0.0315884 -2.64864e-23)
(1.01981 -0.0373435 2.34641e-22)
(1.02009 -0.0437737 -4.43097e-22)
(1.01897 -0.0507397 5.47275e-22)
(1.01564 -0.0582002 -3.59833e-22)
(1.01067 -0.0638456 -1.24098e-22)
(0.99891 -0.0700188 2.05937e-21)
(0.984443 -0.0710859 -1.86094e-21)
(0.972008 -0.0611991 -2.89076e-21)
(0.955282 -0.0523535 8.14342e-22)
(0.939289 -0.0357095 -3.80526e-22)
(0.928721 -0.0123159 6.40489e-21)
(0.92647 0.0140862 7.66277e-21)
(0.932904 0.0383436 2.57021e-21)
(0.94498 0.0572017 2.55109e-21)
(0.96023 0.0688565 -1.62474e-21)
(0.978555 0.0827749 2.03022e-21)
(0.992981 0.0813398 -2.88278e-21)
(1.00499 0.0748717 7.61408e-22)
(1.01003 0.068672 -4.39843e-22)
(1.01435 0.0607834 1.39659e-21)
(1.01681 0.0531236 -1.3184e-21)
(1.01806 0.0460307 3.14501e-22)
(1.01839 0.0393733 4.17773e-23)
(1.01801 0.0331596 8.94402e-24)
(1.01719 0.027456 0)
(1.01627 0.0222868 0)
(1.01537 0.0175974 0)
(1.01459 0.0132957 0)
(1.01397 0.00929766 0)
(1.01356 0.00547979 0)
(1.01339 0.00183539 0)
(1.01594 -0.00162141 0)
(1.0162 -0.00484533 0)
(1.01681 -0.00814922 0)
(1.01773 -0.0116198 0)
(1.01896 -0.0153265 0)
(1.02045 -0.0193575 0)
(1.02216 -0.0238176 0)
(1.02412 -0.0288996 -1.08438e-22)
(1.02646 -0.0348567 1.7374e-22)
(1.02851 -0.0418968 -1.18265e-24)
(1.02971 -0.0500024 5.60964e-22)
(1.02953 -0.059025 -1.35383e-21)
(1.02755 -0.0685675 1.24606e-21)
(1.01738 -0.0781347 8.35783e-22)
(1.00864 -0.0831583 2.1575e-22)
(0.993107 -0.0895266 -8.43978e-23)
(0.966896 -0.0919322 -3.82022e-22)
(0.937782 -0.0830104 2.56138e-21)
(0.907332 -0.0615223 7.81032e-21)
(0.885302 -0.0248775 -7.41981e-23)
(0.880002 0.0200793 -1.1522e-21)
(0.893527 0.0615003 -4.62938e-21)
(0.918859 0.0907421 1.51882e-21)
(0.948282 0.105016 5.37965e-21)
(0.974237 0.109334 -2.5322e-21)
(0.995552 0.103254 -3.04036e-22)
(1.00938 0.0936342 2.01632e-21)
(1.02328 0.0845311 -1.07766e-21)
(1.02677 0.0730179 1.68057e-21)
(1.02811 0.0623591 -6.35694e-22)
(1.02828 0.0528434 -2.45676e-22)
(1.02768 0.0445242 1.95937e-22)
(1.0266 0.0371011 7.20171e-23)
(1.025 0.0304165 0)
(1.02329 0.0244557 0)
(1.02174 0.019151 0)
(1.02044 0.0143632 0)
(1.01944 0.00998455 0)
(1.01877 0.00587301 0)
(1.01846 0.00190749 0)
(1.02029 -0.00159804 0)
(1.02064 -0.00496725 0)
(1.02142 -0.00841169 0)
(1.02261 -0.0120483 0)
(1.02421 -0.0159231 0)
(1.0262 -0.0201726 0)
(1.02858 -0.0249263 -6.58041e-24)
(1.03167 -0.0304787 -3.00303e-24)
(1.03533 -0.0371764 1.33984e-22)
(1.03874 -0.045109 2.671e-23)
(1.04158 -0.0544194 1.8423e-23)
(1.04342 -0.0656951 -2.85362e-23)
(1.04325 -0.0811106 2.08061e-23)
(1.0331 -0.0943713 -1.61104e-21)
(1.0237 -0.106956 1.21669e-22)
(1.00482 -0.12386 -5.714e-22)
(0.97482 -0.13124 1.27404e-21)
(0.928525 -0.133578 -4.63056e-21)
(0.872569 -0.11095 2.5879e-21)
(0.824174 -0.0567782 -7.23676e-23)
(0.8081 0.0217555 9.27509e-22)
(0.83303 0.0938705 -8.31988e-21)
(0.882479 0.138579 -8.84988e-22)
(0.934957 0.154753 -4.73701e-21)
(0.977798 0.149992 -2.72611e-21)
(1.01044 0.138369 1.58559e-22)
(1.0262 0.119965 -2.10594e-21)
(1.04247 0.101555 -5.63944e-24)
(1.04404 0.083811 8.57286e-22)
(1.04309 0.0694016 -4.82941e-22)
(1.04116 0.0573866 -1.90461e-22)
(1.0388 0.0474761 6.1555e-23)
(1.03642 0.0391107 -1.36645e-22)
(1.03383 0.0317909 9.10421e-24)
(1.03107 0.0253604 0)
(1.02866 0.0197279 0)
(1.0267 0.0147391 0)
(1.02521 0.0101845 0)
(1.02423 0.00603103 0)
(1.02375 0.00198195 0)
(1.02475 -0.00174524 0)
(1.02519 -0.00504493 0)
(1.02615 -0.00850545 0)
(1.02763 -0.0121079 0)
(1.02964 -0.0160082 0)
(1.03219 -0.0202897 0)
(1.03544 -0.0251452 -1.68131e-23)
(1.03985 -0.0308988 1.11288e-22)
(1.04487 -0.0377621 -3.52862e-25)
(1.05 -0.0458912 3.62384e-24)
(1.05525 -0.0557271 -7.69436e-23)
(1.06062 -0.0681952 7.51028e-23)
(1.06559 -0.0862724 -6.84161e-23)
(1.06122 -0.105923 -9.72129e-23)
(1.05559 -0.128266 1.09342e-22)
(1.03477 -0.1611 -3.78779e-22)
(1.00096 -0.18946 3.69443e-22)
(0.938077 -0.220963 -1.46166e-21)
(0.83274 -0.223958 1.10727e-22)
(0.7075 -0.147581 -3.75398e-21)
(0.65121 0.0172136 1.31864e-21)
(0.717982 0.174408 -1.35467e-21)
(0.839735 0.241212 1.30002e-21)
(0.93775 0.237488 1.3636e-22)
(1.00457 0.209715 -3.70956e-22)
(1.04545 0.175555 1.2379e-21)
(1.05788 0.141568 -5.69874e-22)
(1.07042 0.11259 8.53754e-24)
(1.06684 0.0897445 -5.8238e-22)
(1.0618 0.0724148 2.88781e-22)
(1.05653 0.0586376 1.87256e-22)
(1.05146 0.047504 -3.47394e-23)
(1.04704 0.0385612 5.74414e-23)
(1.04314 0.0311149 -6.99069e-23)
(1.03919 0.0246587 0)
(1.03578 0.019097 0)
(1.03305 0.0142328 0)
(1.03102 0.00988452 0)
(1.02964 0.00573485 0)
(1.029 0.00196598 0)
(1.02919 -0.00156174 0)
(1.02971 -0.00486565 0)
(1.03085 -0.00823192 0)
(1.03263 -0.011758 0)
(1.03507 -0.0155561 0)
(1.03821 -0.0196872 0)
(1.04244 -0.0243815 -1.79855e-23)
(1.04805 -0.0298788 3.49955e-23)
(1.0543 -0.0361372 7.16806e-24)
(1.06131 -0.0433699 1.27137e-22)
(1.06963 -0.0525114 -2.36642e-22)
(1.07978 -0.0642753 6.77162e-23)
(1.09139 -0.0794209 -1.15219e-22)
(1.09734 -0.104458 5.85962e-22)
(1.10456 -0.135836 1.20133e-22)
(1.10428 -0.184157 -4.84283e-22)
(1.08681 -0.251107 -1.89505e-22)
(1.0323 -0.357125 4.32049e-23)
(0.861702 -0.478911 -1.52285e-21)
(0.476716 -0.466315 -6.13472e-20)
(0.187569 0.0205203 1.65326e-20)
(0.503337 0.474731 -4.32871e-20)
(0.859921 0.472077 2.23286e-21)
(1.01945 0.358265 -1.77239e-22)
(1.08007 0.265516 4.5547e-23)
(1.10442 0.196908 4.62001e-23)
(1.10287 0.152958 -8.32517e-23)
(1.10439 0.110355 1.69925e-22)
(1.09396 0.0877898 -1.38595e-22)
(1.08349 0.0698014 -9.97286e-24)
(1.07366 0.0553235 -9.57736e-23)
(1.06502 0.0439037 1.37022e-22)
(1.05788 0.0350383 -4.73951e-23)
(1.05222 0.0280057 1.3522e-23)
(1.04703 0.0220814 0)
(1.0425 0.0169842 0)
(1.03895 0.0125564 0)
(1.03636 0.00864913 0)
(1.0347 0.00511885 0)
(1.03387 0.00157726 0)
(1.03345 -0.00145929 0)
(1.03408 -0.00458767 0)
(1.0354 -0.00768667 0)
(1.03748 -0.0110369 0)
(1.04033 -0.0145654 0)
(1.04404 -0.0183693 0)
(1.04909 -0.0225714 1.91019e-23)
(1.05549 -0.0272132 3.95907e-23)
(1.06259 -0.0320651 5.83792e-23)
(1.07118 -0.0373181 4.73238e-23)
(1.08219 -0.043666 1.58873e-22)
(1.09685 -0.0515732 2.31491e-22)
(1.11662 -0.0617908 -6.0241e-22)
(1.13037 -0.0846012 -2.14885e-22)
(1.16048 -0.111505 6.6231e-23)
(1.18925 -0.162242 -4.49091e-22)
(1.22854 -0.241899 -9.58185e-23)
(1.28683 -0.394647 1.70299e-21)
(1.00006 -0.547416 -1.09964e-19)
(1.0263 0.531739 4.45831e-20)
(1.23078 0.394874 -8.82302e-23)
(1.19661 0.262085 -2.37272e-22)
(1.17685 0.182161 1.14393e-22)
(1.15526 0.142879 1.27962e-22)
(1.14084 0.0956644 6.06888e-23)
(1.12257 0.0762406 -3.7679e-23)
(1.10583 0.0597315 -3.96828e-23)
(1.09091 0.0465103 -2.6279e-24)
(1.07839 0.0362756 -4.22452e-24)
(1.06824 0.028477 1.42293e-23)
(1.06047 0.0225115 2.31804e-23)
(1.05404 0.0177197 0)
(1.04854 0.0136579 0)
(1.04428 0.0101573 0)
(1.04113 0.0069998 0)
(1.03907 0.00414263 0)
(1.03807 0.00142422 0)
(1.03744 -0.00158935 0)
(1.0382 -0.00424397 0)
(1.03975 -0.00713033 0)
(1.04207 -0.0100272 0)
(1.04524 -0.0130887 0)
(1.04934 -0.0163573 0)
(1.05484 -0.0198121 -8.74256e-24)
(1.06136 -0.0231275 2.59965e-24)
(1.06859 -0.0259887 6.87751e-25)
(1.07785 -0.0284866 9.31119e-23)
(1.08999 -0.0307865 -1.54858e-22)
(1.10639 -0.0327121 1.9575e-22)
(1.12954 -0.0337812 3.67025e-22)
(1.15386 -0.0473985 6.35172e-23)
(1.19809 -0.0562552 4.58239e-21)
(1.25111 -0.0836517 -4.04346e-22)
(1.33561 -0.121579 -3.46564e-23)
(1.47478 -0.165949 2.85254e-21)
(0.0247583 -0.0143972 6.4155e-19)
(0.0264436 -0.0212388 -1.112e-19)
(1.36699 0.249992 -2.04114e-22)
(1.28929 0.19271 -1.12451e-22)
(1.23968 0.137135 9.18961e-22)
(1.20231 0.10736 1.70379e-21)
(1.17306 0.0678948 -4.34358e-24)
(1.14741 0.0540254 1.73264e-22)
(1.12521 0.041921 -1.02276e-22)
(1.10602 0.0322865 1.64586e-23)
(1.09 0.0247655 -5.21181e-24)
(1.07698 0.019029 4.78965e-24)
(1.06703 0.014819 6.08583e-24)
(1.05936 0.0116747 0)
(1.05305 0.0090709 0)
(1.04823 0.00680604 0)
(1.04469 0.00474366 0)
(1.0423 0.00277224 0)
(1.04108 0.000935846 0)
(1.04118 -0.00101795 -1.14195e-24)
(1.04192 -0.00351803 0)
(1.04355 -0.0059669 0)
(1.04606 -0.00846554 0)
(1.0495 -0.011105 0)
(1.05389 -0.0138358 0)
(1.05931 -0.0164378 -1.20007e-23)
(1.06517 -0.018295 -4.92004e-23)
(1.07168 -0.0191686 9.14665e-23)
(1.08028 -0.0189662 -4.34917e-24)
(1.09195 -0.0172907 2.65695e-22)
(1.10749 -0.0133135 1.04274e-22)
(1.12906 -0.00392332 -4.90304e-22)
(1.15601 -0.00359192 7.91162e-22)
(1.19809 0.00824742 -4.75469e-23)
(1.25684 0.0140733 -9.40436e-22)
(1.34349 0.0243791 2.8515e-21)
(1.4215 0.0542983 -4.50665e-22)
(0.257827 0.0182348 -3.59009e-21)
(0.0278893 0.0205142 1.09203e-20)
(1.31284 0.118782 -6.29648e-23)
(1.33066 0.111252 -4.45411e-22)
(1.27797 0.0773289 5.78186e-22)
(1.23472 0.058443 -8.46801e-22)
(1.19396 0.0296784 4.48568e-22)
(1.16405 0.0237016 -2.43318e-22)
(1.13845 0.0180811 2.92425e-22)
(1.11659 0.0136912 -7.19965e-23)
(1.09822 0.0101572 -7.4438e-23)
(1.08304 0.00744411 2.56766e-23)
(1.07126 0.00560332 -2.11731e-23)
(1.06246 0.00450038 0)
(1.05569 0.00364955 0)
(1.05057 0.00282703 0)
(1.04694 0.00204642 0)
(1.04465 0.00124077 0)
(1.04362 0.000442516 0)
(1.0443 -0.000824269 2.24326e-27)
(1.04518 -0.00278662 0)
(1.04692 -0.00471564 0)
(1.0496 -0.00681191 0)
(1.05321 -0.00893931 0)
(1.05767 -0.0110883 0)
(1.06232 -0.0128205 1.06314e-23)
(1.06696 -0.0135639 4.14842e-23)
(1.07217 -0.0130892 -8.76132e-23)
(1.07915 -0.0110459 4.31536e-22)
(1.08787 -0.00677658 -4.80663e-22)
(1.09783 0.000832636 -1.20789e-21)
(1.11021 0.0141834 1.48198e-21)
(1.13143 0.0303699 -2.77573e-21)
(1.1596 0.0576379 -1.83056e-21)
(1.20504 0.0976392 -2.06728e-21)
(1.27713 0.153836 -1.58419e-21)
(1.34693 0.242483 -5.4733e-22)
(0.617503 0.161071 -1.9669e-21)
(-0.00112631 0.0183888 5.26756e-22)
(-0.248973 0.139624 2.14351e-22)
(-0.067743 0.301492 2.78793e-22)
(0.189165 0.143501 -2.99047e-23)
(1.25244 0.0626573 -3.14434e-21)
(1.35755 0.0381997 1.05069e-21)
(1.29904 0.0103454 1.80642e-22)
(1.24946 0.00226805 -3.03057e-21)
(1.20115 -0.0141012 2.28817e-22)
(1.16945 -0.0111573 -6.22531e-22)
(1.14277 -0.00932919 4.00226e-22)
(1.12017 -0.00746806 2.89908e-23)
(1.1011 -0.00625415 5.38591e-23)
(1.08523 -0.00533363 5.34967e-23)
(1.0725 -0.00434648 -1.90359e-24)
(1.06303 -0.00308507 0)
(1.05622 -0.00205356 0)
(1.05116 -0.00138497 0)
(1.04759 -0.000931488 0)
(1.0453 -0.000624508 0)
(1.04398 -0.000355945 0)
(1.04697 -0.0010719 -2.13265e-23)
(1.04794 -0.00232906 0)
(1.04988 -0.00375233 0)
(1.05263 -0.00520936 0)
(1.0562 -0.00667747 0)
(1.06044 -0.00818957 0)
(1.06414 -0.00932648 -1.23849e-24)
(1.06733 -0.00959435 -6.46273e-23)
(1.07098 -0.00897552 -1.52816e-22)
(1.07505 -0.00705122 6.38669e-22)
(1.07938 -0.00388186 -8.23244e-22)
(1.08303 0.00143587 1.0695e-21)
(1.08558 0.0116162 -7.49822e-22)
(1.09569 0.0337031 6.48234e-22)
(1.09604 0.0680186 4.83987e-22)
(1.0929 0.137376 1.7982e-21)
(1.11764 0.232856 -2.43446e-21)
(1.10655 0.414627 5.37926e-21)
(0.689504 0.61112 -4.28196e-21)
(-0.102622 0.711713 -2.76124e-21)
(-0.342479 0.691319 2.55206e-21)
(0.118024 0.507451 5.84147e-21)
(0.632092 0.21812 -2.10528e-21)
(1.36809 -0.0168732 6.75158e-21)
(1.38506 -0.0573302 4.87232e-21)
(1.30367 -0.071722 1.22304e-21)
(1.24624 -0.0596237 1.54518e-21)
(1.19205 -0.0603904 1.25757e-21)
(1.16142 -0.0468414 -1.22749e-21)
(1.13642 -0.0368499 9.95582e-22)
(1.1153 -0.0285215 -7.26324e-22)
(1.09741 -0.0222994 2.55776e-22)
(1.08229 -0.0175121 -1.57707e-23)
(1.06969 -0.013493 -1.14661e-24)
(1.06057 -0.00992153 0)
(1.05433 -0.00711484 0)
(1.04972 -0.00499156 0)
(1.04641 -0.00329514 0)
(1.04428 -0.00179916 0)
(1.04318 -0.000534135 3.00292e-23)
(1.04914 -0.000327095 -3.26656e-23)
(1.04997 -0.00135289 0)
(1.05168 -0.00229797 0)
(1.05437 -0.00318122 0)
(1.05798 -0.00406731 0)
(1.06211 -0.00504926 0)
(1.06529 -0.00600068 0)
(1.06721 -0.00655522 -2.00963e-23)
(1.06985 -0.00699243 -3.44882e-23)
(1.07315 -0.00793604 8.05405e-23)
(1.07536 -0.00880336 1.42777e-22)
(1.07498 -0.00907496 -4.04046e-22)
(1.06952 -0.00826507 6.7576e-24)
(1.04922 -0.00482092 3.0315e-22)
(1.03362 0.0324205 -5.80429e-22)
(0.986583 0.0749537 -8.65993e-22)
(0.933472 0.171922 -2.6016e-22)
(0.80805 0.318924 -2.59404e-21)
(0.349983 0.601536 9.92896e-21)
(-0.171368 0.743927 -1.16786e-20)
(-0.0321088 0.561489 1.91506e-22)
(0.548675 0.234298 2.97661e-20)
(1.04923 -0.0618026 5.33483e-21)
(1.46494 -0.224212 2.61053e-20)
(1.3522 -0.205563 -1.42696e-21)
(1.27532 -0.163097 3.53578e-22)
(1.20028 -0.133031 -9.31786e-22)
(1.16472 -0.102223 1.30955e-22)
(1.13935 -0.0778833 -2.14022e-23)
(1.11903 -0.0600311 9.52127e-24)
(1.10191 -0.0457759 -1.10924e-22)
(1.08719 -0.0350928 4.0375e-23)
(1.07422 -0.02684 1.37742e-23)
(1.06301 -0.0203027 0)
(1.05526 -0.0150112 0)
(1.05025 -0.0108743 0)
(1.04657 -0.00762253 0)
(1.04389 -0.00497532 0)
(1.04213 -0.00273452 0)
(1.04128 -0.000794929 -7.71425e-24)
(1.04945 0.000112987 2.56394e-24)
(1.05057 -0.000101841 0)
(1.05239 -0.000348165 0)
(1.05513 -0.000705811 0)
(1.05885 -0.00109802 0)
(1.06311 -0.00162308 0)
(1.06647 -0.00251783 0)
(1.0685 -0.00395112 0)
(1.0715 -0.00622567 9.5565e-25)
(1.07541 -0.00989717 -5.57929e-24)
(1.0787 -0.0153896 -7.23422e-23)
(1.07934 -0.0235113 1.824e-22)
(1.07359 -0.0339792 -8.05126e-23)
(1.05372 -0.0570314 -3.97962e-22)
(1.01285 -0.0465834 -1.41026e-22)
(0.934806 -0.0540837 -1.31735e-22)
(0.82105 -0.0135315 1.99912e-21)
(0.498213 0.145003 3.41486e-21)
(0.108435 0.285281 -2.20457e-22)
(0.0294339 0.148723 -1.55517e-21)
(0.391814 -0.148112 2.61051e-21)
(0.908314 -0.395078 -3.91722e-22)
(1.30621 -0.505556 -3.94305e-21)
(1.36919 -0.439319 -6.41353e-21)
(1.25426 -0.315777 1.05001e-21)
(1.2043 -0.240462 -2.66593e-21)
(1.14057 -0.174804 -1.09495e-23)
(1.1203 -0.130395 -2.68089e-22)
(1.10531 -0.0986025 2.97683e-22)
(1.09289 -0.0747086 2.57301e-22)
(1.0821 -0.0560034 -1.06763e-22)
(1.07219 -0.0421638 5.38223e-24)
(1.0626 -0.0316524 0)
(1.05389 -0.0236913 0)
(1.04815 -0.0175494 0)
(1.04469 -0.0128019 0)
(1.04216 -0.00902112 -3.40761e-23)
(1.04031 -0.00595221 -4.7125e-23)
(1.03912 -0.00331802 -2.81011e-23)
(1.03864 -0.00106357 0)
(1.04897 0.000275069 0)
(1.05019 0.000949069 0)
(1.05222 0.00159181 0)
(1.05512 0.00201502 0)
(1.05899 0.00228493 0)
(1.06359 0.0023514 0)
(1.06781 0.00179407 0)
(1.07119 -7.36057e-05 0)
(1.07592 -0.00352875 4.30559e-26)
(1.08252 -0.00906548 1.09396e-23)
(1.09004 -0.0176426 -2.99912e-23)
(1.09783 -0.0317938 4.77798e-23)
(1.10265 -0.0519387 2.99974e-23)
(1.0981 -0.0875965 1.67454e-22)
(1.05478 -0.121969 -2.94136e-21)
(0.991246 -0.190096 -8.30262e-22)
(0.734081 -0.205449 -2.72681e-21)
(0.349139 -0.137233 1.77469e-22)
(0.3163 -0.284836 -4.5603e-21)
(0.435611 -0.558756 4.65106e-21)
(0.713811 -0.780214 2.60045e-21)
(0.987443 -0.833939 1.14932e-20)
(1.13198 -0.699851 -1.0992e-21)
(1.14679 -0.495345 -1.07181e-21)
(1.11799 -0.356803 1.11071e-21)
(1.10104 -0.270599 4.90421e-22)
(1.0671 -0.186843 -3.01751e-22)
(1.06585 -0.138669 1.82837e-22)
(1.06342 -0.104746 -3.04149e-22)
(1.06119 -0.0783468 -2.04614e-23)
(1.05829 -0.0580445 7.24031e-24)
(1.05433 -0.0430113 4.20375e-26)
(1.04913 -0.031689 0)
(1.04384 -0.023317 0)
(1.04048 -0.0172853 0)
(1.03866 -0.0127159 0)
(1.03734 -0.00903021 0)
(1.03635 -0.00604677 0)
(1.03573 -0.00347901 0)
(1.03551 -0.00113406 5.06105e-24)
(1.04779 0.000565898 0)
(1.04893 0.00192354 0)
(1.05098 0.00333525 0)
(1.05399 0.00468677 0)
(1.05806 0.00592229 0)
(1.06319 0.00700584 0)
(1.06878 0.00754662 0)
(1.0745 0.00656497 0)
(1.08216 0.00365481 0)
(1.0927 -0.00142915 0)
(1.10645 -0.00943738 6.2848e-24)
(1.12421 -0.022934 8.85493e-23)
(1.14618 -0.0444031 -3.12605e-22)
(1.16815 -0.0743324 4.93752e-22)
(1.15755 -0.138069 -1.27613e-20)
(1.1244 -0.23568 5.11448e-22)
(0.751086 -0.328563 -4.19819e-21)
(0.523478 -0.497646 3.27648e-21)
(0.570563 -0.644698 -9.85764e-22)
(0.662255 -0.734429 1.19567e-20)
(0.774098 -0.742033 4.65109e-22)
(0.86368 -0.668898 2.61757e-22)
(0.909199 -0.560771 3.27229e-21)
(0.952783 -0.462895 -2.15511e-21)
(0.979006 -0.342601 3.18093e-21)
(0.993697 -0.251908 -4.13427e-22)
(0.994262 -0.170885 -4.33068e-23)
(1.00987 -0.124761 4.55621e-23)
(1.02078 -0.093967 1.59625e-23)
(1.02862 -0.0695154 -7.7721e-24)
(1.03342 -0.0510208 0)
(1.03543 -0.0370982 0)
(1.0352 -0.0265987 0)
(1.03397 -0.0191744 0)
(1.0333 -0.0142421 0)
(1.03311 -0.0105977 0)
(1.03286 -0.00764725 0)
(1.03258 -0.00521807 0)
(1.03238 -0.00308244 0)
(1.03238 -0.00101357 0)
(1.04567 0.000957992 0)
(1.04663 0.00298542 0)
(1.04854 0.00511402 0)
(1.0515 0.0073582 0)
(1.05563 0.00971718 0)
(1.06112 0.0122183 0)
(1.06793 0.0146761 0)
(1.07601 0.0161741 0)
(1.08648 0.0162266 0)
(1.10044 0.0148449 0)
(1.11925 0.0120522 0)
(1.14465 0.00696797 2.59668e-24)
(1.18038 -0.00395146 2.6446e-23)
(1.22714 -0.0126347 -1.55459e-23)
(1.26382 -0.0703647 -4.00255e-21)
(1.2874 -0.148628 1.51993e-21)
(1.02071 -0.310435 -2.32873e-21)
(0.784054 -0.543654 -2.99033e-23)
(0.691117 -0.705717 -2.04355e-21)
(0.666592 -0.760496 2.58924e-21)
(0.676103 -0.72214 -1.26656e-21)
(0.717422 -0.618218 2.13251e-21)
(0.781071 -0.497129 -3.0898e-22)
(0.8445 -0.390548 1.97456e-22)
(0.845997 -0.276976 -7.65067e-23)
(0.899932 -0.198837 2.78343e-22)
(0.931314 -0.123846 5.5927e-22)
(0.961469 -0.0881565 -3.02513e-23)
(0.984958 -0.0652093 -4.34911e-24)
(1.00122 -0.0474227 0)
(1.01241 -0.0340862 0)
(1.0195 -0.0240367 0)
(1.02373 -0.0165967 0)
(1.02632 -0.0117222 0)
(1.02809 -0.0088002 0)
(1.02912 -0.00668083 0)
(1.02955 -0.00492749 0)
(1.02966 -0.003399 0)
(1.02966 -0.00201339 0)
(1.0297 -0.000672893 0)
(1.04244 0.00128992 0)
(1.04325 0.00392212 0)
(1.04493 0.00672845 0)
(1.0476 0.00981285 0)
(1.05138 0.0133213 0)
(1.05656 0.0173723 0)
(1.06358 0.0220277 0)
(1.07273 0.0267725 0)
(1.08447 0.0313197 0)
(1.09953 0.0359227 0)
(1.11941 0.0413846 5.25023e-23)
(1.14644 0.0488344 0)
(1.18355 0.0564145 0)
(1.23854 0.0724345 -2.64013e-22)
(1.33198 0.0912178 -2.28076e-22)
(1.39061 0.0484897 -6.50068e-21)
(1.28871 -0.0277033 -1.34962e-22)
(1.09329 -0.202766 1.21646e-21)
(0.898092 -0.383341 1.90054e-21)
(0.737521 -0.505315 3.65415e-20)
(0.597201 -0.543787 2.85452e-21)
(0.541149 -0.497775 -2.325e-21)
(0.569754 -0.393245 9.35601e-22)
(0.646481 -0.261846 -3.88536e-22)
(0.739216 -0.156248 -1.40901e-23)
(0.840943 -0.0770601 5.89333e-21)
(0.891465 -0.0474706 1.85407e-22)
(0.931347 -0.0310741 0)
(0.963444 -0.0209317 0)
(0.985489 -0.0144764 3.2452e-23)
(1.00054 -0.00973707 0)
(1.01073 -0.00623468 0)
(1.01778 -0.00379542 0)
(1.02276 -0.00259349 0)
(1.02592 -0.0021923 0)
(1.02745 -0.00190107 0)
(1.0281 -0.00154126 0)
(1.0283 -0.00111682 5.60832e-24)
(1.02832 -0.000672964 4.02347e-24)
(1.02833 -0.000197571 0)
(1.03847 0.00139547 0)
(1.03911 0.00449133 0)
(1.04037 0.00783646 0)
(1.0424 0.0116587 0)
(1.0453 0.016146 0)
(1.0494 0.0214971 0)
(1.05542 0.0279347 0)
(1.06389 0.0353651 0)
(1.07467 0.0440005 0)
(1.08777 0.0543817 0)
(1.10411 0.0678977 9.47517e-24)
(1.12573 0.0864866 0)
(1.15326 0.11154 0)
(1.1942 0.147171 -5.80781e-22)
(1.26123 0.205951 -7.76959e-22)
(1.34134 0.295721 -1.25088e-23)
(1.33347 0.37519 0)
(1.22543 0.408271 -2.08513e-21)
(1.05237 0.387181 2.90105e-20)
(0.854888 0.357813 5.0601e-20)
(0.66814 0.28105 5.98829e-21)
(0.562095 0.197998 -5.72791e-21)
(0.54215 0.109583 2.02162e-22)
(0.581887 0.0436387 0)
(0.683205 0.0176997 -3.7732e-21)
(0.79095 0.0439487 -1.0048e-20)
(0.872003 0.0464939 -1.20258e-21)
(0.925763 0.0403879 0)
(0.962993 0.0312183 0)
(0.985988 0.0222899 1.42335e-22)
(1.001 0.0161544 0)
(1.01117 0.0119443 0)
(1.01849 0.00877681 0)
(1.02383 0.00615709 0)
(1.02694 0.00401914 0)
(1.0281 0.00247487 -1.01462e-23)
(1.0284 0.0014481 1.31849e-23)
(1.02842 0.000804634 0)
(1.02837 0.000372151 0)
(1.02834 0.000107434 3.0984e-23)
(1.03425 0.00149624 0)
(1.03446 0.00479529 0)
(1.03508 0.00841523 0)
(1.0362 0.0126025 0)
(1.0379 0.017532 0)
(1.04045 0.0234831 0)
(1.0447 0.0307885 4.98899e-24)
(1.05115 0.0396061 0)
(1.05902 0.0506173 0)
(1.06762 0.0645954 0)
(1.07718 0.0832074 0)
(1.08865 0.108 0)
(1.10157 0.142337 0)
(1.11897 0.187499 -2.85768e-22)
(1.14043 0.252861 -2.0081e-23)
(1.1747 0.349694 -1.18428e-23)
(1.1826 0.466212 0)
(1.13203 0.560296 0)
(1.02802 0.607628 1.22019e-21)
(0.898019 0.617096 -2.85895e-20)
(0.773448 0.57697 2.03457e-20)
(0.71643 0.503777 -3.22771e-21)
(0.707994 0.407974 0)
(0.718294 0.306137 0)
(0.73551 0.211867 0)
(0.794713 0.182956 7.21243e-23)
(0.883125 0.151223 9.41291e-21)
(0.95564 0.111683 2.06492e-22)
(0.989679 0.0792274 0)
(1.00533 0.0540182 0)
(1.01468 0.037513 0)
(1.02074 0.0262313 0)
(1.02538 0.0182727 -4.45248e-23)
(1.02903 0.0125423 -1.82463e-23)
(1.03079 0.00837701 -9.19226e-25)
(1.03078 0.00542333 0)
(1.03021 0.00336661 0)
(1.02965 0.00193977 0)
(1.02922 0.000928626 0)
(1.02892 0.000211813 0)
(1.0298 0.00170245 0)
(1.02959 0.004847 0)
(1.02959 0.00832043 0)
(1.02986 0.0122337 0)
(1.03035 0.0168421 0)
(1.03122 0.0224518 0)
(1.03334 0.0295213 0)
(1.03702 0.0384038 0)
(1.04087 0.0499261 -4.93708e-24)
(1.0438 0.06484 0)
(1.04567 0.0846524 0)
(1.04624 0.110471 0)
(1.0446 0.144656 -3.56854e-22)
(1.04213 0.188679 -2.00127e-21)
(1.03655 0.242809 0)
(1.03234 0.311756 0)
(1.02726 0.401076 0)
(1.00327 0.48942 0)
(0.946748 0.560291 -1.12988e-20)
(0.877827 0.600836 -2.35942e-20)
(0.815617 0.603573 -3.9197e-22)
(0.802283 0.568011 -2.8106e-21)
(0.809244 0.520276 0)
(0.836069 0.455752 0)
(0.837332 0.369834 0)
(0.870965 0.292602 0)
(0.957962 0.217146 -1.79003e-21)
(1.02406 0.151746 -5.93323e-22)
(1.04129 0.104827 0)
(1.04114 0.0705807 1.276e-24)
(1.03905 0.0483139 5.32941e-24)
(1.03729 0.0329268 -3.37429e-24)
(1.0368 0.0222974 0)
(1.03711 0.0148886 0)
(1.03646 0.00977844 0)
(1.03473 0.0062915 0)
(1.03294 0.00390854 0)
(1.03154 0.00227462 0)
(1.03052 0.00114293 0)
(1.02979 0.000317988 0)
(1.02534 0.00148628 0)
(1.02512 0.00416237 0)
(1.02482 0.00698266 0)
(1.02445 0.010053 0)
(1.02386 0.0136846 0)
(1.02313 0.0181285 0)
(1.02294 0.0239356 0)
(1.02345 0.0317099 0)
(1.02305 0.042189 0)
(1.02043 0.0559165 0)
(1.01514 0.0740234 4.70792e-23)
(1.0065 0.0978542 -1.03295e-22)
(0.993753 0.128053 -6.56687e-22)
(0.981254 0.167046 3.40035e-21)
(0.96604 0.214777 0)
(0.941199 0.269588 0)
(0.916199 0.341312 0)
(0.889032 0.422648 0)
(0.853003 0.497608 2.36089e-21)
(0.823649 0.56175 2.33061e-21)
(0.808904 0.580394 6.2869e-21)
(0.824418 0.565821 -3.14463e-20)
(0.849371 0.535695 0)
(0.903891 0.484559 0)
(0.946416 0.407401 0)
(0.999295 0.311095 0)
(1.07567 0.211512 5.4862e-23)
(1.11281 0.140458 1.68137e-21)
(1.1019 0.0960573 1.75944e-22)