/*--------------------------------*- C++ -*----------------------------------*\
| =========                 |                                                 |
| \\      /  F ield         | OpenFOAM: The Open Source CFD Toolbox           |
|  \\    /   O peration     | Version:  v2106                                 |
|   \\  /    A nd           | Website:  www.openfoam.com                      |
|    \\/     M anipulation  |                                                 |
\*---------------------------------------------------------------------------*/
FoamFile
{
    version     2.0;
    format      ascii;
    arch        "LSB;label=32;scalar=64";
    class       volScalarField;
    location    "0";
    object      p;
}
// * * * * * * * * * * * * * * * * * * * * * * * * * * * * * * * * * * * * * //

dimensions      [0 2 -2 0 0 0 0];

internalField   nonuniform List<scalar> 
11644
(
0.0541831
0.0545708
0.0553814
0.056626
0.0583086
0.0604334
0.0630053
0.0660229
0.069473
0.0733281
0.077532
0.0820057
0.086643
0.0912785
0.0957424
0.0998557
0.103368
0.106029
0.107712
0.108367
0.107949
0.106421
0.103791
0.10021
0.0958884
0.0910467
0.0858989
0.0806284
0.075429
0.0704436
0.0657867
0.0615385
0.0577452
0.054435
0.0516178
0.0492918
0.0474506
0.0460872
0.0452016
0.0447802
0.0534814
0.0538627
0.0546525
0.0558685
0.057521
0.0596206
0.0621785
0.0652009
0.0686848
0.0726103
0.0769419
0.0816135
0.0865058
0.0914803
0.0963293
0.100808
0.104641
0.107593
0.109568
0.110433
0.110018
0.108305
0.105386
0.101453
0.0967165
0.0914495
0.0858998
0.0803054
0.0748461
0.0696826
0.0649159
0.0606109
0.056802
0.053503
0.0507135
0.0484252
0.0466247
0.0453005
0.0444401
0.0440243
0.0520218
0.0524017
0.0531673
0.0543346
0.0559267
0.0579685
0.0604822
0.0634904
0.0670092
0.0710489
0.0755988
0.0806083
0.0860013
0.0916193
0.0972521
0.10258
0.107307
0.11118
0.113909
0.115151
0.114704
0.112552
0.108892
0.104062
0.0984001
0.0922047
0.0858111
0.0795239
0.0735566
0.0680514
0.0630899
0.0586977
0.0548785
0.051618
0.0488918
0.0466766
0.0449467
0.0436767
0.0428403
0.0424226
0.0498345
0.0502005
0.0509277
0.0520254
0.0535237
0.0554614
0.0578806
0.0608277
0.0643536
0.0685026
0.0733045
0.0787869
0.0849041
0.0915608
0.0984867
0.105328
0.111709
0.117216
0.121165
0.123032
0.122508
0.119624
0.114651
0.108115
0.100819
0.0930735
0.0853518
0.0780525
0.0713665
0.0654023
0.0601951
0.0557214
0.0519241
0.0487443
0.046129
0.0440282
0.0423995
0.0412027
0.0404077
0.040007
0.046995
0.0473218
0.0479751
0.0489652
0.0503208
0.0520914
0.054338
0.057135
0.0605718
0.064748
0.0697875
0.0757896
0.0828107
0.0907784
0.0995573
0.108745
0.11766
0.125868
0.131982
0.135033
0.13442
0.130243
0.123016
0.113571
0.103771
0.0936081
0.0839432
0.075296
0.0677844
0.0613993
0.0560279
0.0515481
0.047855
0.0448406
0.0424102
0.0404859
0.0390069
0.0379255
0.0372085
0.0368462
0.0435813
0.04385
0.0443891
0.045211
0.0463531
0.0478657
0.049822
0.0523207
0.0554928
0.0595158
0.0645894
0.0709106
0.0786848
0.0882505
0.0996071
0.112137
0.124996
0.137895
0.147877
0.153151
0.152349
0.145629
0.134491
0.120606
0.106669
0.0928519
0.0806582
0.0705023
0.0622199
0.0555605
0.0502461
0.0459864
0.0425793
0.0398739
0.0377449
0.0360914
0.0348374
0.0339308
0.0333383
0.0330451
0.0396931
0.0398841
0.0402664
0.0408612
0.0417017
0.0428368
0.0443442
0.0463353
0.0489788
0.0524906
0.0571245
0.0632258
0.0713019
0.0820882
0.0963253
0.113891
0.127502
0.145494
0.161454
0.171826
0.173311
0.16527
0.150076
0.131767
0.107046
0.0887643
0.0737447
0.062399
0.0539355
0.0474439
0.0425424
0.0388401
0.0360172
0.0338468
0.0321882
0.0309334
0.0300034
0.0293462
0.0289228
0.0287153
0.0354692
0.0355599
0.0357478
0.0360511
0.0364907
0.0371165
0.0379902
0.0392182
0.040965
0.0434179
0.0468837
0.0519283
0.0591346
0.0702069
0.08498
0.104939
0.132134
0.161132
0.189791
0.209593
0.21269
0.197564
0.169739
0.138678
0.108539
0.0855895
0.0687831
0.0497356
0.0420728
0.0365998
0.032776
0.0300811
0.0281952
0.0268421
0.025863
0.0251594
0.0246615
0.024318
0.0241054
0.0239957
0.0310492
0.0310325
0.030998
0.030948
0.0309045
0.0308896
0.0309349
0.0311186
0.031541
0.0323241
0.0337892
0.036467
0.0410456
0.0541331
0.068293
0.0906266
0.120922
0.16724
0.21686
0.259782
0.272187
0.245272
0.195594
0.142883
0.101954
0.067525
0.0499957
0.0306027
0.0258178
0.0227905
0.020942
0.0198711
0.0193224
0.0190712
0.0189701
0.0189571
0.0189877
0.0190322
0.0190691
0.0190985
0.0266079
0.0264671
0.0261907
0.0257649
0.0251856
0.024434
0.0235053
0.0224037
0.0211277
0.019707
0.0183037
0.017226
0.0165448
0.0259264
0.0334028
0.0549771
0.088625
0.146947
0.23796
0.342031
0.383528
0.317843
0.207245
0.120943
0.062729
0.0270488
0.0171862
0.00469453
0.00536481
0.00620271
0.00732159
0.00855659
0.00976816
0.0108838
0.0118341
0.0126256
0.0132513
0.0137212
0.0140248
0.0141711
0.022313
0.0220807
0.0215634
0.0207574
0.0196166
0.0181021
0.016154
0.0136788
0.0105165
0.00652797
0.0014703
-0.00488238
-0.0129383
-0.0133997
-0.0188857
-0.0159815
-0.00260536
0.0316328
0.14456
0.394773
0.572421
0.335405
0.093356
-0.00364914
-0.0319149
-0.0371142
-0.0288121
-0.0261156
-0.0184571
-0.0123401
-0.00727954
-0.00319526
7.88996e-05
0.00273856
0.00484262
0.00648405
0.00773568
0.00863058
0.00922281
0.00949854
0.0184261
0.01805
0.0173127
0.0161576
0.0145235
0.0123242
0.00944015
0.00569924
0.000757466
-0.00577144
-0.0145292
-0.026433
-0.0431422
-0.0512527
-0.0799084
-0.106085
-0.151955
-0.242111
-0.466547
-0.555861
-0.27429
-0.165036
-0.112741
-0.0788715
-0.0585712
-0.0425639
-0.0304981
-0.0213458
-0.0143712
-0.00899546
-0.0047884
-0.00154755
0.000915189
0.00277478
0.00410388
0.00495424
0.00539462
0.015014
0.0145515
0.0136476
0.0122358
0.0102452
0.00753096
0.00395236
-0.000723129
-0.00695062
-0.0152917
-0.0266171
-0.0420619
-0.0639172
-0.0834721
-0.126316
-0.177885
-0.267015
-0.429441
-0.593281
-0.617853
-0.421456
-0.255476
-0.170406
-0.120525
-0.084179
-0.0619626
-0.04533
-0.0329929
-0.0236645
-0.0165337
-0.0110431
-0.00685023
-0.00367454
-0.00130446
0.00037594
0.00144021
0.00196531
0.0121185
0.0117039
0.0106999
0.00915695
0.00698225
0.0040279
0.000138233
-0.00494124
-0.0116257
-0.0204275
-0.0322504
-0.0480248
-0.0693028
-0.0935685
-0.13645
-0.194419
-0.289909
-0.44319
-0.515321
-0.41911
-0.3752
-0.273595
-0.192911
-0.141619
-0.0975622
-0.0731523
-0.0543971
-0.0404247
-0.0297798
-0.0216507
-0.0154067
-0.0106432
-0.00701449
-0.00431723
-0.00241186
-0.00117385
-0.000602845
0.0100676
0.00951461
0.00853016
0.00702014
0.00489419
0.00201909
-0.00176961
-0.00664227
-0.0128891
-0.0208279
-0.0310103
-0.0439601
-0.0598518
-0.0804928
-0.108868
-0.153852
-0.227744
-0.367565
-0.510686
-0.486075
-0.481136
-0.450147
-0.396863
-0.366122
-0.272048
-0.192196
-0.142536
-0.0979916
-0.0746194
-0.0564443
-0.0425671
-0.0318739
-0.0236805
-0.0173921
-0.0125493
-0.00883919
-0.00607757
-0.00411969
-0.00285821
-0.00222163
0.00878415
0.00834049
0.00743533
0.0060486
0.00410944
0.00152484
-0.0018304
-0.00599184
-0.011048
-0.0170541
-0.0239571
-0.0314473
-0.0391065
-0.0515305
-0.0587028
-0.0622321
-0.0769039
-0.100399
-0.27473
-0.530245
-0.715637
-0.687253
-0.560733
-0.37808
-0.257502
-0.173214
-0.12835
-0.0863621
-0.066475
-0.0510504
-0.0390825
-0.0297179
-0.0224149
-0.0167444
-0.012342
-0.0089398
-0.006384
-0.00455972
-0.00340303
-0.00289117
0.00832195
0.0081313
0.00738818
0.00618401
0.00452218
0.00240319
-0.000260528
-0.00344306
-0.00694465
-0.0105945
-0.0140148
-0.0165388
-0.0167274
-0.0155324
-0.0127278
0.00938902
0.0445987
0.0877994
-0.111936
-0.496434
-0.735641
-0.698274
-0.497506
-0.309725
-0.189615
-0.135449
-0.0844766
-0.06532
-0.0505618
-0.0392776
-0.0305327
-0.0235853
-0.017999
-0.0135611
-0.0100391
-0.00728401
-0.00519117
-0.00368766
-0.00271666
-0.00223744
0.0087808
0.00850827
0.00796065
0.00707474
0.00582729
0.0042621
0.00237156
0.000191005
-0.00208189
-0.00415411
-0.00570512
-0.00646186
-0.00523489
-0.000916495
0.00358153
0.0210753
0.0522626
0.0715497
-0.0694966
-0.293222
-0.422678
-0.383143
-0.269186
-0.184293
-0.113842
-0.0832749
-0.0477346
-0.0374853
-0.0292893
-0.0231502
-0.01834
-0.014419
-0.01113
-0.00838241
-0.0060545
-0.00416585
-0.00269677
-0.00162484
-0.00091636
-0.000528588
0.00987689
0.00958161
0.00914205
0.00852556
0.00768693
0.00663042
0.00537481
0.00393102
0.00234633
0.000714791
-0.000905323
-0.00276856
-0.00507657
-0.00590591
-0.00763488
-0.0193321
-0.0315871
-0.0628606
-0.133385
-0.209708
-0.23048
-0.191763
-0.137243
-0.0898449
-0.0440698
-0.0289071
-0.0109547
-0.00861717
-0.00710024
-0.00605574
-0.0051044
-0.00412549
-0.00313767
-0.00212243
-0.00106339
-0.000129022
0.00065127
0.00124946
0.00164519
0.00185758
0.011484
0.011296
0.010965
0.0105192
0.00994978
0.00924726
0.00840199
0.00740422
0.00612546
0.00445157
0.00210728
-0.00142095
-0.00760381
-0.0160086
-0.0263618
-0.0598661
-0.112059
-0.202882
-0.283364
-0.319583
-0.284728
-0.191077
-0.0931103
-0.0285012
0.00624003
0.013267
0.0192631
0.016274
0.0117385
0.00887151
0.00671168
0.00533165
0.00453089
0.00418243
0.00410051
0.00415791
0.00431047
0.00448117
0.0046179
0.0046762
0.0134139
0.0133314
0.0131598
0.0129088
0.0125765
0.0121604
0.0116348
0.0109513
0.00995227
0.00842975
0.00598189
0.00186007
-0.0054135
-0.0171995
-0.0312284
-0.0677703
-0.130854
-0.237893
-0.340787
-0.386916
-0.345389
-0.221455
-0.086095
-0.0022078
0.0374757
0.0414392
0.0412067
0.0340538
0.0260253
0.0203527
0.0161297
0.0131407
0.0110977
0.00973694
0.00879279
0.00818759
0.00784347
0.00766556
0.00759773
0.00757417
0.015496
0.0154735
0.0154621
0.015441
0.0153941
0.0153168
0.015172
0.0148872
0.0143772
0.0134673
0.0118545
0.00871975
0.00358641
-0.00696322
-0.021939
-0.045145
-0.0923951
-0.165181
-0.238981
-0.279232
-0.257673
-0.171965
-0.0741532
-0.00102956
0.0394703
0.0555292
0.0527866
0.0433566
0.0342975
0.0278242
0.0227662
0.0189555
0.0161799
0.0141648
0.012713
0.0117063
0.0110384
0.0106086
0.0103583
0.0102484
0.0175548
0.0176163
0.0177441
0.0179136
0.0181269
0.0183836
0.0186799
0.0189577
0.0191777
0.0191643
0.018715
0.0171993
0.0141846
0.00787082
-0.00361274
-0.0170357
-0.0371175
-0.064762
-0.0918145
-0.11357
-0.118238
-0.0992135
-0.0604459
-0.00976068
0.0281247
0.046642
0.0524915
0.0434642
0.0360059
0.0306693
0.0259724
0.0222785
0.019449
0.0173123
0.0157238
0.0145746
0.0137566
0.0131886
0.012826
0.0126373
0.0194263
0.0195714
0.0197836
0.0200879
0.0205039
0.0210505
0.0217661
0.0226338
0.0236468
0.0245978
0.0253131
0.0253923
0.0242533
0.0205697
0.0142629
0.00405076
-0.0116598
-0.0368962
-0.0687393
-0.0991496
-0.116388
-0.115944
-0.0903973
-0.0474583
-0.00830746
0.0200819
0.0334715
0.0331977
0.0315108
0.0288875
0.0258215
0.0231956
0.0209778
0.0192136
0.0178164
0.0167337
0.0159237
0.0153386
0.0149608
0.0147574
0.0209899
0.0211309
0.0213912
0.0218109
0.0224069
0.0232022
0.0242543
0.025578
0.0271754
0.0288887
0.0305342
0.0317627
0.031794
0.02944
0.0232214
0.00867559
-0.0144105
-0.0507577
-0.0974431
-0.142847
-0.172536
-0.170742
-0.139826
-0.0927069
-0.0503134
-0.0153831
0.0079122
0.0182486
0.0232469
0.0242349
0.0236533
0.0226172
0.0213556
0.0202152
0.0191873
0.0183208
0.0176359
0.0171162
0.0167748
0.0166018
0.0222789
0.0223547
0.0226549
0.0231596
0.0238795
0.0248279
0.0260588
0.0275937
0.0294662
0.0316178
0.0338663
0.0356425
0.0365493
0.0334262
0.0242303
0.00470313
-0.0263743
-0.0705088
-0.127228
-0.182825
-0.224144
-0.222854
-0.185022
-0.133582
-0.0812039
-0.0399675
-0.00869593
0.00711866
0.0162615
0.0197879
0.0214641
0.0217646
0.0214191
0.0208225
0.0201614
0.019544
0.0190185
0.0186139
0.0183426
0.018208
0.0233556
0.0234289
0.0237343
0.0242366
0.0249704
0.0259497
0.0271919
0.0287233
0.0305717
0.0327906
0.0352378
0.0374148
0.0379543
0.03302
0.0203095
-0.00157433
-0.0331294
-0.075955
-0.127908
-0.178454
-0.219764
-0.217436
-0.178363
-0.133913
-0.0818094
-0.0417575
-0.0118932
0.00445557
0.0138334
0.0184697
0.0208298
0.0216365
0.0217742
0.0215075
0.0210981
0.0206528
0.0202448
0.0199201
0.0196971
0.0196006
0.0240911
0.0242385
0.0245271
0.0249821
0.0256411
0.0265246
0.0276534
0.0290301
0.0306582
0.0325129
0.0345345
0.0363498
0.0354665
0.0293524
0.0163448
-0.00553102
-0.0353284
-0.0726329
-0.112088
-0.144033
-0.165079
-0.157272
-0.129041
-0.0934344
-0.056947
-0.0257129
-0.00365529
0.00866959
0.0160148
0.0198552
0.0217692
0.0225086
0.0226503
0.0224772
0.0221482
0.0217677
0.0213985
0.0210924
0.0208711
0.0207752
0.0243841
0.0245376
0.0248037
0.0252047
0.0257521
0.0264613
0.0273531
0.0284122
0.0295918
0.0307182
0.0316764
0.0317883
0.0288437
0.0210704
0.00738005
-0.0128733
-0.0385165
-0.0683846
-0.0936484
-0.107718
-0.107664
-0.0963365
-0.0760116
-0.0500261
-0.0263985
-0.00545377
0.00811681
0.0158677
0.0203906
0.0227205
0.0236855
0.0239624
0.023856
0.0235728
0.0231912
0.0227957
0.0224317
0.0221321
0.0219114
0.02176
0.0243332
0.0244334
0.0246413
0.024957
0.0253637
0.0258541
0.0264062
0.026964
0.0274589
0.0276016
0.0270184
0.0248059
0.0190743
0.00821367
-0.00770498
-0.0279371
-0.0500626
-0.0729721
-0.0879847
-0.0920379
-0.0849992
-0.0695249
-0.0493849
-0.0256765
-0.00603252
0.00863733
0.017042
0.021849
0.0243752
0.0256441
0.025781
0.0255104
0.0250506
0.0245415
0.0240351
0.0235829
0.0232026
0.0228988
0.0226765
0.0225142
0.0241124
0.0241808
0.0243321
0.0245434
0.0247861
0.0250215
0.0251926
0.0251949
0.0248995
0.0239575
0.0217273
0.01728
0.00843709
-0.00625932
-0.0261224
-0.0501784
-0.0741463
-0.0943712
-0.107006
-0.107852
-0.0968916
-0.0743074
-0.0472699
-0.0213556
-0.000630336
0.0131231
0.0210857
0.0254986
0.0273978
0.02786
0.0274485
0.0267448
0.0259533
0.0252154
0.0245743
0.0240437
0.0236172
0.0232974
0.0230835
0.0230061
0.0238441
0.0239322
0.0240173
0.0241124
0.0241829
0.0241835
0.0240557
0.0236318
0.0227158
0.0209136
0.0174034
0.0112327
1.2146e-05
-0.0177709
-0.0415883
-0.070631
-0.100451
-0.122534
-0.137768
-0.139556
-0.120635
-0.0905947
-0.0558
-0.0269319
-0.00402308
0.0122511
0.0222411
0.0274356
0.0291811
0.0291535
0.0283782
0.0274049
0.0264163
0.0255487
0.0248275
0.0242523
0.0237959
0.0234822
0.0232992
0.0232857
0.0235427
0.0236146
0.0236619
0.0236887
0.0236531
0.0235164
0.0232011
0.0225484
0.0213247
0.0191164
0.0151408
0.00831233
-0.00347535
-0.0213953
-0.0454718
-0.0748298
-0.106461
-0.130448
-0.150208
-0.153011
-0.129827
-0.0975837
-0.0615398
-0.0316753
-0.00796693
0.00918208
0.0202084
0.0265703
0.0292401
0.0292704
0.0283652
0.0273242
0.0263561
0.0255325
0.0248399
0.0242937
0.0238756
0.0236015
0.0234418
0.0233999
0.0232308
0.0232624
0.0232908
0.0233021
0.0232529
0.023095
0.0227616
0.0221248
0.0209566
0.0189111
0.015371
0.00944523
-0.000299629
-0.0152366
-0.0353023
-0.0594379
-0.0867418
-0.109581
-0.127158
-0.132023
-0.115315
-0.0904898
-0.061519
-0.0349914
-0.0128204
0.00428585
0.016454
0.02385
0.0273559
0.0280181
0.027432
0.026593
0.0258164
0.0251377
0.0245642
0.0241099
0.0237664
0.0235288
0.0233717
0.0232704
0.0229981
0.0230168
0.0230371
0.023051
0.0230265
0.0229207
0.0226863
0.0222251
0.0214129
0.0199872
0.0175356
0.0133838
0.00665494
-0.00403737
-0.0185231
-0.0359424
-0.0554695
-0.0742381
-0.0880216
-0.0947245
-0.0910788
-0.0784843
-0.0587868
-0.0369788
-0.0173816
-0.00121983
0.0108438
0.0189314
0.0233146
0.0251047
0.0253992
0.0251073
0.0246951
0.0242573
0.0238512
0.0235193
0.0232559
0.0230554
0.0229137
0.0228103
0.0227877
0.0228213
0.0228543
0.0228851
0.0229059
0.0228934
0.0228179
0.0226136
0.0222362
0.0215354
0.0202337
0.0179722
0.0140865
0.00714963
-0.00296178
-0.0159569
-0.0310796
-0.0474645
-0.0596164
-0.0685767
-0.0727107
-0.0688246
-0.0568565
-0.03998
-0.0239466
-0.00944645
0.00243029
0.0115735
0.0174826
0.0208331
0.0222933
0.0228543
0.0229783
0.0228814
0.0227143
0.0225405
0.0223834
0.0222587
0.0221803
0.0221453
0.0224752
0.0224917
0.0225396
0.0226057
0.0226929
0.0227946
0.0229057
0.0230048
0.02307
0.0230125
0.0225953
0.021494
0.0192805
0.0146474
0.00664356
-0.00527188
-0.0202515
-0.0375825
-0.0533968
-0.0657767
-0.0720141
-0.0718626
-0.0635097
-0.0504118
-0.0364854
-0.021853
-0.00840077
0.00275607
0.0108761
0.0159755
0.0187834
0.0202763
0.0210155
0.0213467
0.0214833
0.0215058
0.0214766
0.0214346
0.0214097
0.0214297
0.0220762
0.0220443
0.0220834
0.0221714
0.0223203
0.0225241
0.022796
0.0231325
0.0235548
0.0239061
0.0241393
0.0236055
0.0216657
0.0172041
0.00920138
-0.00290715
-0.0192818
-0.0387429
-0.0601282
-0.078188
-0.0893059
-0.0891062
-0.080836
-0.0686184
-0.0532209
-0.0357502
-0.0189589
-0.00510101
0.00514533
0.0118421
0.0157521
0.0179839
0.0192653
0.0199989
0.0204046
0.0206142
0.0207166
0.0207531
0.0207628
0.0207594
0.0216114
0.0215674
0.0216036
0.0216987
0.021871
0.0221129
0.0224554
0.0228893
0.0234278
0.0238876
0.0243011
0.0237243
0.021595
0.016944
0.00852065
-0.00405823
-0.0211812
-0.0419027
-0.0671083
-0.0880778
-0.107072
-0.10553
-0.0942492
-0.0810768
-0.0630197
-0.043067
-0.024164
-0.00913991
0.00201167
0.00939519
0.0138624
0.0164167
0.0179998
0.0189662
0.0195452
0.0198786
0.0200694
0.0201504
0.0201769
0.0201255
0.0210307
0.0210406
0.0210864
0.0211729
0.0213208
0.0215286
0.0218123
0.0221725
0.0226404
0.0229981
0.0231701
0.0221411
0.0191435
0.0137399
0.00509227
-0.00720666
-0.0233749
-0.0429948
-0.0654459
-0.0858841
-0.102253
-0.100905
-0.089926
-0.0759095
-0.0570999
-0.0384624
-0.0211372
-0.00762127
0.00251728
0.00915857
0.0133557
0.0158921
0.0174305
0.0183597
0.0189263
0.0192475
0.0194396
0.0195203
0.0195464
0.0195071
0.0202845
0.0203414
0.0203902
0.0204514
0.0205407
0.0206614
0.0208221
0.0209934
0.0211788
0.0211886
0.0206783
0.0189351
0.0151745
0.00883954
-0.000144401
-0.0120452
-0.026544
-0.0430745
-0.0596661
-0.0725045
-0.0806284
-0.0777413
-0.068191
-0.0554346
-0.0399015
-0.0250092
-0.0121383
-0.00169179
0.00602836
0.0110804
0.0142926
0.0162371
0.0174098
0.0181097
0.018531
0.018773
0.0189048
0.0189618
0.0189853
0.0189844
0.0193944
0.0194155
0.0194283
0.0194435
0.0194585
0.0194643
0.0194503
0.0193512
0.0190852
0.018449
0.0169584
0.0142024
0.00960036
0.00268327
-0.00620219
-0.0172673
-0.0296401
-0.0428119
-0.0533581
-0.0587823
-0.0578617
-0.0528551
-0.0448827
-0.0334974
-0.0216605
-0.0105712
-0.0015798
0.0056713
0.0107731
0.0139369
0.0158967
0.0170502
0.0177228
0.0181224
0.0183588
0.0184903
0.0185602
0.0185915
0.0186025
0.0186052
0.0184492
0.0184024
0.0183624
0.0183167
0.0182446
0.0181142
0.0178797
0.0174522
0.0166328
0.0152116
0.0125992
0.00843768
0.00257059
-0.00520356
-0.0143796
-0.0246445
-0.0349806
-0.0450986
-0.0514272
-0.0522129
-0.0486871
-0.041789
-0.0321943
-0.0204018
-0.0095312
0.000109573
0.00734145
0.0123032
0.015159
0.0166905
0.0175226
0.0179243
0.0181316
0.0182311
0.0182772
0.0182886
0.0182862
0.0182772
0.0182622
0.0182501
0.0175649
0.0175029
0.0174419
0.0173491
0.0171903
0.0169149
0.0164488
0.0156854
0.0143713
0.0122031
0.00854825
0.00283379
-0.00491755
-0.0147176
-0.0257064
-0.036669
-0.0466203
-0.0551657
-0.0598934
-0.0590328
-0.0530532
-0.0423445
-0.0292426
-0.0157815
-0.00399879
0.00555061
0.0122439
0.0160716
0.0179432
0.0186634
0.018714
0.0185672
0.0183707
0.018195
0.0180557
0.0179521
0.0178814
0.0178392
0.0178171
0.0178292
0.0168013
0.0168069
0.0167433
0.0166073
0.016368
0.0159734
0.0153355
0.0143472
0.0127109
0.0100191
0.00565507
-0.00103676
-0.0103144
-0.0221451
-0.035761
-0.0485857
-0.0601096
-0.0687008
-0.0744078
-0.0728873
-0.0617055
-0.0469322
-0.0301288
-0.0151298
-0.00253098
0.0071484
0.0136854
0.0173471
0.019058
0.0194786
0.0191477
0.018691
0.0182735
0.017929
0.017671
0.0174899
0.0173733
0.0173144
0.0173015
0.0173454
0.0161083
0.0161574
0.0161047
0.0159664
0.0157051
0.0152765
0.0146089
0.0135657
0.0118974
0.00913965
0.00468051
-0.00201386
-0.0111664
-0.0231615
-0.037106
-0.0509017
-0.0642643
-0.0733453
-0.0799174
-0.0789603
-0.0641507
-0.0482252
-0.0306463
-0.0155432
-0.00316491
0.00625683
0.0125967
0.0162321
0.0181154
0.018751
0.0185483
0.0181788
0.0177517
0.0174105
0.0171499
0.016966
0.0168431
0.0167784
0.0167573
0.0167867
0.0154697
0.0154859
0.015443
0.0153467
0.0151455
0.0148076
0.0142627
0.013384
0.0119643
0.00967313
0.00595415
0.000398134
-0.007139
-0.0169772
-0.028693
-0.0411595
-0.053352
-0.0622953
-0.0686405
-0.0687175
-0.0582578
-0.0456127
-0.0311614
-0.0180319
-0.00691257
0.00193627
0.00839773
0.0127436
0.0154442
0.0167535
0.0170444
0.016983
0.0167524
0.0165557
0.0164013
0.0162908
0.0162147
0.0161708
0.0161423
0.0161189
0.0149674
0.014951
0.0149177
0.014857
0.0147377
0.0145302
0.0141849
0.0136204
0.0126826
0.0111387
0.00861904
0.00471936
-0.000715103
-0.0076049
-0.0159274
-0.0252984
-0.0348596
-0.0428833
-0.0488515
-0.0513304
-0.0485533
-0.0417623
-0.0322009
-0.0218908
-0.0123326
-0.00386402
0.00285393
0.00801883
0.0114508
0.0135379
0.0146459
0.015109
0.0152783
0.0153447
0.0153603
0.0153636
0.0153643
0.0153631
0.0153537
0.0153179
0.0145928
0.0145868
0.0145763
0.0145525
0.014509
0.0144313
0.0142886
0.0140418
0.0136227
0.0128929
0.0116267
0.00946091
0.00604609
0.00140546
-0.00456174
-0.0119292
-0.0198959
-0.0278771
-0.0343647
-0.0389968
-0.0405745
-0.0389114
-0.0338544
-0.0262078
-0.0180769
-0.0101592
-0.00331778
0.00233814
0.00652865
0.00960416
0.0116455
0.0128186
0.0134951
0.0138781
0.0140902
0.014221
0.0143058
0.014365
0.0144087
0.0144348
0.0142062
0.014212
0.0142305
0.014249
0.0142757
0.0143105
0.0143519
0.0143835
0.0143844
0.0142921
0.0139252
0.0130444
0.0110948
0.00766431
0.00256281
-0.00434877
-0.0126693
-0.0216619
-0.0298803
-0.0364375
-0.0401617
-0.0415732
-0.0389785
-0.0331929
-0.0259615
-0.0182463
-0.0108326
-0.00412411
0.00135764
0.00565686
0.00869016
0.0106067
0.0117688
0.0124612
0.0128772
0.0131363
0.0132971
0.0134039
0.0134845
0.0135609
0.0137617
0.0137446
0.013755
0.0137902
0.013866
0.013988
0.0141664
0.0144051
0.0147021
0.0150236
0.0152181
0.0148556
0.0134925
0.0108232
0.00619787
-0.000592898
-0.00954029
-0.0200763
-0.030938
-0.0403668
-0.0478475
-0.0509076
-0.0489608
-0.0437203
-0.0362804
-0.0276393
-0.0187286
-0.0102001
-0.00304887
0.00248169
0.00637844
0.00886355
0.0104019
0.011346
0.0119428
0.0123116
0.0125406
0.0126774
0.0127602
0.0128083
0.0132507
0.0132111
0.0132159
0.0132592
0.0133574
0.0135164
0.0137516
0.0140706
0.0144545
0.0148574
0.0152631
0.0150723
0.0139388
0.0115959
0.00732474
0.000758079
-0.00806227
-0.0193067
-0.0318793
-0.043722
-0.0550111
-0.0588805
-0.0567961
-0.0512731
-0.0426495
-0.0329858
-0.0228205
-0.0130767
-0.00515916
0.00086412
0.00511081
0.00783766
0.00951794
0.0105947
0.0112894
0.0117279
0.0119925
0.0121428
0.0122106
0.0121841
0.0126705
0.0126499
0.0126622
0.0127018
0.0127799
0.0129036
0.0130873
0.0133351
0.0136385
0.0138307
0.0138907
0.0132864
0.0118608
0.0093884
0.0052465
-0.000891745
-0.00895278
-0.0192257
-0.031139
-0.0426395
-0.0524937
-0.0559386
-0.053559
-0.0478274
-0.0393022
-0.0297298
-0.0199532
-0.0110102
-0.00392928
0.00141882
0.00519228
0.00766283
0.00924904
0.0102399
0.0108651
0.011256
0.0114908
0.0116157
0.0116633
0.0116186
0.0120039
0.0120257
0.0120335
0.0120387
0.0120501
0.0120706
0.0121057
0.0121433
0.0121489
0.0119186
0.0113025
0.00995413
0.00774369
0.00445298
-4.03167e-05
-0.00594021
-0.0129818
-0.0210682
-0.0296416
-0.0373893
-0.0424443
-0.0431138
-0.0400726
-0.0346872
-0.0274716
-0.0196912
-0.0121494
-0.0055593
-0.000343179
0.00369822
0.00649046
0.00833027
0.00947925
0.0101793
0.0106155
0.0108771
0.0110292
0.0111024
0.0111378
0.0111368
0.0112425
0.0112476
0.0112216
0.011175
0.0111016
0.0109941
0.0108286
0.0105687
0.0101273
0.0093315
0.00789311
0.00574344
0.00277445
-0.00132909
-0.00631103
-0.0121621
-0.0184741
-0.0244186
-0.0290915
-0.0318995
-0.0321887
-0.0295372
-0.0254357
-0.0203123
-0.0143461
-0.00854244
-0.00338391
0.000847895
0.00414537
0.00670125
0.00837085
0.00938708
0.00998341
0.0103349
0.0105431
0.0106638
0.0107288
0.0107627
0.0107842
0.0107985
0.0104417
0.0103849
0.0103055
0.0101994
0.010049
0.0098248
0.00947125
0.00890489
0.00798681
0.00654427
0.00431162
0.00123861
-0.00258318
-0.00740729
-0.0129072
-0.0186978
-0.0244207
-0.0286949
-0.0303291
-0.0294412
-0.02736
-0.0229451
-0.017605
-0.0117382
-0.00576923
-0.000686759
0.00334223
0.00631258
0.00830911
0.00951071
0.0101236
0.0103899
0.0105153
0.0105583
0.0105724
0.0105679
0.0105549
0.0105418
0.0105308
0.0105252
0.00969962
0.00961802
0.00952009
0.00938393
0.00917869
0.00885801
0.00835058
0.00753887
0.0062217
0.00417158
0.00114127
-0.00298893
-0.00816842
-0.0142305
-0.0206923
-0.0269348
-0.0323701
-0.0360795
-0.0364533
-0.0330594
-0.0284678
-0.0219873
-0.0147068
-0.0073551
-0.000962823
0.00399335
0.00752109
0.0096892
0.0109123
0.0112633
0.0111713
0.0109815
0.0107709
0.0105902
0.0104487
0.0103492
0.0102819
0.0102391
0.0102124
0.010212
0.0091046
0.00907623
0.0089934
0.00884383
0.00859578
0.00820008
0.00757883
0.0066076
0.00504324
0.00258407
-0.00104721
-0.00601899
-0.0125049
-0.019939
-0.0275662
-0.0348775
-0.0404659
-0.0445707
-0.0445852
-0.0391434
-0.031222
-0.022538
-0.0133025
-0.00460502
0.00191993
0.00663355
0.00967885
0.0111938
0.0119643
0.0119355
0.011473
0.0110559
0.0106389
0.0103402
0.0101073
0.00995066
0.00985705
0.00981269
0.00980218
0.00982201
0.00862315
0.0086582
0.00860303
0.00846375
0.00820492
0.00779948
0.00715329
0.0061661
0.00460184
0.00211355
-0.00157276
-0.0065175
-0.0130725
-0.020838
-0.0288086
-0.0365453
-0.0423613
-0.0467699
-0.0469918
-0.0409369
-0.032299
-0.02238
-0.0123379
-0.00384565
0.00228803
0.00667981
0.00941116
0.0107381
0.0113588
0.0112982
0.0109172
0.0105593
0.0101573
0.00986371
0.00964105
0.00948531
0.00938665
0.00934145
0.00933265
0.00936873
0.00819433
0.00822594
0.00819318
0.00809663
0.00790374
0.00758581
0.00706719
0.00624635
0.00495118
0.00294441
-5.84888e-05
-0.00409272
-0.00935803
-0.0157716
-0.0226272
-0.0293936
-0.0348183
-0.0389049
-0.0399181
-0.0361093
-0.0297355
-0.0218325
-0.0137046
-0.00683565
-0.00132291
0.00285531
0.00576055
0.00760055
0.00874298
0.0093465
0.00948869
0.00945152
0.00927151
0.00912357
0.00900681
0.00892867
0.00887876
0.00885623
0.00884839
0.00884875
0.00786006
0.00785545
0.00783136
0.00777999
0.00767679
0.00749541
0.00719303
0.00669363
0.0058665
0.00460119
0.00262176
-0.000113226
-0.0035327
-0.00777754
-0.0125696
-0.0175632
-0.0221425
-0.025817
-0.028195
-0.0281147
-0.025875
-0.021924
-0.0171498
-0.0121845
-0.00732451
-0.00317244
0.000269749
0.0029928
0.00499928
0.00641617
0.00727722
0.007747
0.0079635
0.00808026
0.0081517
0.0082059
0.00824521
0.00827088
0.00827759
0.00825543
0.00763945
0.00763145
0.00762651
0.00761937
0.00759722
0.00755019
0.00746267
0.00730577
0.00698499
0.00646414
0.00554346
0.00408121
0.00214634
-0.000465518
-0.00384274
-0.00778352
-0.012086
-0.0159821
-0.019378
-0.021874
-0.0227542
-0.0226334
-0.0210903
-0.0178655
-0.0136275
-0.00938838
-0.0053473
-0.00186089
0.000943103
0.00312495
0.00469893
0.0057453
0.00641792
0.00684344
0.00711744
0.00730346
0.00743248
0.00751576
0.00756587
0.00758757
0.00744155
0.00744897
0.00747512
0.00751049
0.00755379
0.00760972
0.00767997
0.00776863
0.00782549
0.00783291
0.00770675
0.00719148
0.00607363
0.00427839
0.00153892
-0.00207317
-0.00648405
-0.0110086
-0.0155521
-0.019829
-0.0230255
-0.0257674
-0.0261249
-0.0239132
-0.0201245
-0.0157152
-0.0110222
-0.00670496
-0.0029687
6.5312e-05
0.00233296
0.00394344
0.00501822
0.00570394
0.00614451
0.00643007
0.00662346
0.00675787
0.00685681
0.00693157
0.00719941
0.00720334
0.00722438
0.0072637
0.00733585
0.00745094
0.00761805
0.0078464
0.00813635
0.0084563
0.00872834
0.00885241
0.00837968
0.00727961
0.00513069
0.00185429
-0.00273962
-0.00845614
-0.0145517
-0.0207377
-0.0263097
-0.0313797
-0.0327519
-0.0309954
-0.027324
-0.0223173
-0.0166955
-0.0112013
-0.0062804
-0.00233832
0.000583206
0.00267545
0.00404776
0.00491587
0.00547267
0.00583297
0.0060647
0.00621343
0.00631284
0.00637759
0.00687052
0.00684627
0.00685322
0.00688818
0.0069696
0.00710294
0.00730046
0.00757155
0.00793535
0.00837698
0.00883774
0.00930339
0.00920781
0.0085626
0.00691034
0.00402735
-0.000428313
-0.00675615
-0.0140352
-0.0216645
-0.0286613
-0.0353106
-0.0368311
-0.0353485
-0.0315242
-0.0260272
-0.0198061
-0.0135624
-0.00796485
-0.00350265
-0.000281052
0.00203875
0.00350983
0.00448106
0.00509819
0.0054931
0.00574439
0.00588869
0.00596071
0.00595976
0.00647473
0.00644559
0.00644629
0.0064721
0.00653354
0.00663474
0.00678778
0.00699935
0.00726173
0.00757162
0.00778073
0.00793593
0.0076903
0.00690527
0.00528995
0.00260924
-0.00148143
-0.00710241
-0.0140441
-0.0212098
-0.0276965
-0.0326375
-0.0337989
-0.0323206
-0.02848
-0.0233071
-0.0175452
-0.0118603
-0.00682512
-0.0028502
4.48945e-05
0.00212121
0.00348879
0.00436425
0.00492547
0.00528703
0.00551005
0.0056238
0.00566694
0.00563185
0.00604787
0.00604579
0.00603961
0.00603141
0.00602836
0.0060345
0.00605615
0.00607527
0.00605222
0.00593232
0.00557074
0.00492559
0.00389091
0.00241289
0.000330372
-0.00241037
-0.00597015
-0.0101478
-0.0148447
-0.0194291
-0.02314
-0.0252208
-0.0248165
-0.0228097
-0.0194833
-0.0154129
-0.0110672
-0.00695016
-0.00341658
-0.000632603
0.00144251
0.00291525
0.00388725
0.00450467
0.00489611
0.00513661
0.00527623
0.00534887
0.00537679
0.00536369
0.00556798
0.00556806
0.00553956
0.00548236
0.00539755
0.00527827
0.0051075
0.00484795
0.0044406
0.00377211
0.00276459
0.00129506
-0.000636382
-0.00298498
-0.00577319
-0.00884058
-0.0120348
-0.0147756
-0.0167249
-0.0178195
-0.0182091
-0.0173382
-0.0154802
-0.0128411
-0.00981897
-0.00665494
-0.00374308
-0.00128505
0.000673159
0.00219456
0.00335152
0.00410148
0.00456797
0.00484254
0.00500383
0.00509414
0.00514289
0.00516858
0.00518269
0.00519421
0.00505861
0.00501504
0.00494219
0.0048306
0.00467053
0.00443815
0.00409073
0.00356316
0.00277894
0.00161291
-2.88517e-06
-0.00217278
-0.00489421
-0.00804908
-0.0115138
-0.0149153
-0.0177632
-0.0193184
-0.0191286
-0.0175343
-0.0155397
-0.012858
-0.0100172
-0.00682512
-0.00364325
-0.000755012
0.00147776
0.0030785
0.00412724
0.00475765
0.00510705
0.00523449
0.00525606
0.00524205
0.0052083
0.00517364
0.00514344
0.00511835
0.00510078
0.00510208
0.00460614
0.00453687
0.00443182
0.0042854
0.00407782
0.0037694
0.00330349
0.00258576
0.00150192
-9.05133e-05
-0.00227488
-0.00519075
-0.00880822
-0.0129321
-0.0172253
-0.0210661
-0.0239987
-0.02489
-0.0234772
-0.0196886
-0.0155536
-0.0110074
-0.00689529
-0.00292931
0.000573158
0.00315831
0.00487154
0.00585052
0.00626785
0.00629545
0.00610674
0.00585916
0.00561944
0.00543225
0.00528585
0.00517897
0.00510806
0.00506003
0.00503142