/*--------------------------------*- C++ -*----------------------------------*\
| =========                 |                                                 |
| \\      /  F ield         | OpenFOAM: The Open Source CFD Toolbox           |
|  \\    /   O peration     | Version:  v2106                                 |
|   \\  /    A nd           | Website:  www.openfoam.com                      |
|    \\/     M anipulation  |                                                 |
\*---------------------------------------------------------------------------*/
FoamFile
{
    version     2.0;
    format      ascii;
    arch        "LSB;label=32;scalar=64";
    class       pointVectorField;
    location    "0";
    object      pointDisplacement;
}
// * * * * * * * * * * * * * * * * * * * * * * * * * * * * * * * * * * * * * //

dimensions      [0 1 0 0 0 0 0];

internalField   nonuniform List<vector> 
24440
(
(0 0 0)
(0 0 0)
(0 0 0)
(0 0 0)
(0 0 0)
(0 0 0)
(0 0 0)
(0 0 0)
(0 0 0)
(0 0 0)
(0 0 0)
(0 0 0)
(0 0 0)
(0 0 0)
(0 0 0)
(0 0 0)
(0 0 0)
(0 0 0)
(0 0 0)
(0 0 0)
(0 0 0)
(0 0 0)
(0 0 0)
(0 0 0)
(0 0 0)
(0 0 0)
(0 0 0)
(0 0 0)
(0 0 0)
(0 0 0)
(0 0 0)
(0 0 0)
(0 0 0)
(0 0 0)
(0 0 0)
(0 0 0)
(0 0 0)
(0 0 0)
(0 0 0)
(0 0 0)
(0 0 0)
(0 0 0)
(0 0 0)
(0 0 0)
(0 0 0)
(0 0 0)
(0 0 0)
(0 0 0)
(0 0 0)
(0 0 0)
(0 0 0)
(0 0 0)
(0 0 0)
(0 0 0)
(0 0 0)
(0 0 0)
(0 0 0)
(0 0 0)
(0 0 0)
(0 0 0)
(0 0 0)
(0 0 0)
(0 0 0)
(0 0 0)
(0 0 0)
(0 0 0)
(0 0 0)
(0 0 0)
(0 0 0)
(0 0 0)
(0 0 0)
(0 0 0)
(0 0 0)
(0 0 0)
(0 0 0)
(0 0 0)
(0 0 0)
(0 0 0)
(0 0 0)
(0 0 0)
(0 0 0)
(0 0 0)
(0 0 0)
(0 0 0)
(0 0 0)
(0 0 0)
(0 0 0)
(0 0 0)
(0 0 0)
(0 0 0)
(0 0 0)
(0 0 0)
(0 0 0)
(0 0 0)
(0 0 0)
(0 0 0)
(0 0 0)
(0 0 0)
(0 9.35436e-07 0)
(0 5.89891e-06 0)
(0 1.62208e-05 0)
(0 2.49954e-05 0)
(0 2.83629e-05 0)
(0 2.49954e-05 0)
(0 1.62208e-05 0)
(0 5.89891e-06 0)
(0 9.35436e-07 0)
(0 0 0)
(0 0 0)
(0 0 0)
(0 0 0)
(0 0 0)
(0 0 0)
(0 0 0)
(0 0 0)
(0 0 0)
(0 0 0)
(0 0 0)
(0 0 0)
(0 0 0)
(0 0 0)
(0 0 0)
(0 0 0)
(0 0 0)
(0 0 0)
(0 0 0)
(0 0 0)
(0 0 0)
(0 0 0)
(0 0 0)
(0 0 0)
(0 0 0)
(0 0 0)
(0 0 0)
(0 0 0)
(0 0 0)
(0 1.5666e-06 0)
(0 2.07235e-05 0)
(0 6.09878e-05 0)
(0 0.000109866 0)
(0 0.000156713 0)
(0 0.000189372 0)
(0 0.000219732 0)
(0 0.000230415 0)
(0 0.000219732 0)
(0 0.000189372 0)
(0 0.000156713 0)
(0 0.000109866 0)
(0 6.09878e-05 0)
(0 2.07235e-05 0)
(0 1.5666e-06 0)
(0 0 0)
(0 0 0)
(0 0 0)
(0 0 0)
(0 0 0)
(0 0 0)
(0 0 0)
(0 0 0)
(0 0 0)
(0 0 0)
(0 0 0)
(0 0 0)
(0 0 0)
(0 0 0)
(0 0 0)
(0 0 0)
(0 0 0)
(0 0 0)
(0 0 0)
(0 0 0)
(0 0 0)
(0 0 0)
(0 0 0)
(0 0 0)
(0 6.5775e-07 0)
(0 2.72534e-05 0)
(0 9.29427e-05 0)
(0 0.000183282 0)
(0 0.000276331 0)
(0 0.000380139 0)
(0 0.000470046 0)
(0 0.000525727 0)
(0 0.00057897 0)
(0 0.000597371 0)
(0 0.00057897 0)
(0 0.000525727 0)
(0 0.000470046 0)
(0 0.000380139 0)
(0 0.000276331 0)
(0 0.000183282 0)
(0 9.29427e-05 0)
(0 2.72534e-05 0)
(0 6.5775e-07 0)
(0 0 0)
(0 0 0)
(0 0 0)
(0 0 0)
(0 0 0)
(0 0 0)
(0 0 0)
(0 0 0)
(0 0 0)
(0 0 0)
(0 0 0)
(0 0 0)
(0 0 0)
(0 0 0)
(0 0 0)
(0 0 0)
(0 0 0)
(0 0 0)
(0 0 0)
(0 0 0)
(0 0 0)
(0 6.21934e-06 0)
(0 6.46777e-05 0)
(0 0.000171884 0)
(0 0.000301573 0)
(0 0.000462596 0)
(0 0.000625002 0)
(0 0.000765696 0)
(0 0.000897493 0)
(0 0.000991017 0)
(0 0.0010469 0)
(0 0.00107255 0)
(0 0.0010469 0)
(0 0.000991017 0)
(0 0.000897493 0)
(0 0.000765696 0)
(0 0.000625002 0)
(0 0.000462596 0)
(0 0.000301573 0)
(0 0.000171884 0)
(0 6.46777e-05 0)
(0 6.58422e-06 0)
(0 0 0)
(0 0 0)
(0 0 0)
(0 0 0)
(0 0 0)
(0 0 0)
(0 0 0)
(0 0 0)
(0 0 0)
(0 0 0)
(0 0 0)
(0 0 0)
(0 0 0)
(0 0 0)
(0 0 0)
(0 0 0)
(0 0 0)
(0 0 0)
(0 0 0)
(0 1.22321e-05 0)
(0 8.57711e-05 0)
(0 0.000214074 0)
(0 0.000393006 0)
(0 0.000605662 0)
(0 0.000826642 0)
(0 0.00102943 0)
(0 0.00122168 0)
(0 0.00129392 0)
(0 0.00137204 0)
(0 0.00143738 0)
(0 0.00148887 0)
(0 0.00152568 0)
(0 0.00155114 0)
(0 0.00157466 0)
(0 0.00158254 0)
(0 0.00157466 0)
(0 0.00155114 0)
(0 0.00152568 0)
(0 0.00148887 0)
(0 0.00143738 0)
(0 0.00137204 0)
(0 0.00129392 0)
(0 0.00122168 0)
(0 0.00102943 0)
(0 0.000826642 0)
(0 0.000605662 0)
(0 0.000393006 0)
(0 0.00020963 0)
(0 7.75028e-05 0)
(0 9.77421e-06 0)
(0 0 0)
(0 0 0)
(0 0 0)
(0 0 0)
(0 0 0)
(0 0 0)
(0 0 0)
(0 0 0)
(0 0 0)
(0 0 0)
(0 0 0)
(0 0 0)
(0 0 0)
(0 0 0)
(0 0 0)
(0 0 0)
(0 0 0)
(0 7.19469e-06 0)
(0 8.23356e-05 0)
(0 0.000229402 0)
(0 0.000431666 0)
(0 0.000668587 0)
(0 0.000947341 0)
(0 0.00108063 0)
(0 0.00119877 0)
(0 0.00132953 0)
(0 0.00145209 0)
(0 0.00156422 0)
(0 0.00165948 0)
(0 0.00144627 0)
(0 0.00153457 0)
(0 0.00160426 0)
(0 0.00167455 0)
(0 0.00172969 0)
(0 0.00176899 0)
(0 0.00179254 0)
(0 0.00181751 0)
(0 0.00182586 0)
(0 0.00181751 0)
(0 0.00179254 0)
(0 0.00176899 0)
(0 0.00172969 0)
(0 0.00167455 0)
(0 0.00160426 0)
(0 0.00153457 0)
(0 0.00144627 0)
(0 0.00165948 0)
(0 0.00156422 0)
(0 0.00145209 0)
(0 0.00132953 0)
(0 0.00119877 0)
(0 0.00108063 0)
(0 0.000947341 0)
(0 0.000668587 0)
(0 0.000431666 0)
(0 0.000221034 0)
(0 7.87534e-05 0)
(0 6.53382e-06 0)
(0 0 0)
(0 0 0)
(0 0 0)
(0 0 0)
(0 0 0)
(0 0 0)
(0 0 0)
(0 0 0)
(0 0 0)
(0 0 0)
(0 0 0)
(0 0 0)
(0 0 0)
(0 0 0)
(0 0 0)
(0 0 0)
(0 4.55221e-05 0)
(0 0.000186033 0)
(0 0.000397713 0)
(0 0.000663606 0)
(0 0.000959751 0)
(0 0.00126067 0)
(0 0.00110962 0)
(0 0.00125456 0)
(0 0.00139403 0)
(0 0.00152536 0)
(0 0.00164203 0)
(0 0.00176036 0)
(0 0.00186492 0)
(0 0.00195131 0)
(0 0.00175331 0)
(0 0.00183234 0)
(0 0.00203277 0)
(0 0.00209142 0)
(0 0.00189522 0)
(0 0.00195275 0)
(0 0.00214975 0)
(0 0.00219081 0)
(0 0.00199356 0)
(0 0.00201424 0)
(0 0.00221461 0)
(0 0.0022335 0)
(0 0.00203998 0)
(0 0.00204857 0)
(0 0.00224203 0)
(0 0.0022335 0)
(0 0.00203998 0)
(0 0.00201424 0)
(0 0.00221461 0)
(0 0.00219081 0)
(0 0.00199356 0)
(0 0.00195275 0)
(0 0.00214975 0)
(0 0.00209142 0)
(0 0.00189522 0)
(0 0.00183234 0)
(0 0.00203277 0)
(0 0.00195131 0)
(0 0.00175331 0)
(0 0.00186492 0)
(0 0.00176036 0)
(0 0.00164203 0)
(0 0.00152536 0)
(0 0.00139403 0)
(0 0.00125456 0)
(0 0.00110962 0)
(0 0.00126067 0)
(0 0.000959751 0)
(0 0.000655618 0)
(0 0.000394573 0)
(0 0.000185834 0)
(0 4.94898e-05 0)
(0 0 0)
(0 0 0)
(0 0 0)
(0 0 0)
(0 0 0)
(0 0 0)
(0 0 0)
(0 0 0)
(0 0 0)
(0 0 0)
(0 0 0)
(0 0 0)
(0 0 0)
(0 0 0)
(0 0 0)
(0 9.9306e-06 0)
(0 0.000102024 0)
(0 0.000294082 0)
(0 0.000550993 0)
(0 0.000856413 0)
(0 0.00120633 0)
(0 0.00154339 0)
(0 0.00141222 0)
(0 0.00156491 0)
(0 0.00140516 0)
(0 0.00156231 0)
(0 0.00170843 0)
(0 0.00185241 0)
(0 0.00170062 0)
(0 0.00182693 0)
(0 0.00198222 0)
(0 0.00204142 0)
(0 0.00209651 0)
(0 0.0020216 0)
(0 0.00193355 0)
(0 0.00204085 0)
(0 0.0021178 0)
(0 0.00216533 0)
(0 0.00208836 0)
(0 0.00220393 0)
(0 0.00227692 0)
(0 0.00231069 0)
(0 0.00223822 0)
(0 0.00231378 0)
(0 0.00238519 0)
(0 0.00240299 0)
(0 0.00233577 0)
(0 0.00237619 0)
(0 0.00244163 0)
(0 0.00245094 0)
(0 0.00238702 0)
(0 0.00239866 0)
(0 0.0024612 0)
(0 0.00245931 0)
(0 0.00239665 0)
(0 0.00237619 0)
(0 0.00244163 0)
(0 0.0024328 0)
(0 0.00236691 0)
(0 0.00231378 0)
(0 0.00238519 0)
(0 0.00236475 0)
(0 0.00229351 0)
(0 0.00220393 0)
(0 0.00227692 0)
(0 0.0022471 0)
(0 0.00216521 0)
(0 0.00204085 0)
(0 0.0021178 0)
(0 0.00206595 0)
(0 0.0019892 0)
(0 0.00182693 0)
(0 0.00198222 0)
(0 0.00185241 0)
(0 0.00170062 0)
(0 0.00156231 0)
(0 0.00170843 0)
(0 0.00156491 0)
(0 0.00140516 0)
(0 0.00141222 0)
(0 0.00153643 0)
(0 0.0012055 0)
(0 0.000870217 0)
(0 0.000546365 0)
(0 0.000291219 0)
(0 0.000107137 0)
(0 1.13562e-05 0)
(0 0 0)
(0 0 0)
(0 0 0)
(0 0 0)
(0 0 0)
(0 0 0)
(0 0 0)
(0 0 0)
(0 0 0)
(0 0 0)
(0 0 0)
(0 0 0)
(0 0 0)
(0 0 0)
(0 3.24906e-05 0)
(0 0.000164437 0)
(0 0.000386353 0)
(0 0.000678873 0)
(0 0.00101692 0)
(0 0.00138874 0)
(0 0.00173576 0)
(0 0.00165014 0)
(0 0.00181344 0)
(0 0.0017023 0)
(0 0.00185068 0)
(0 0.00196489 0)
(0 0.00210167 0)
(0 0.00198583 0)
(0 0.00210556 0)
(0 0.00216757 0)
(0 0.00222091 0)
(0 0.0021675 0)
(0 0.0023182 0)
(0 0.00234386 0)
(0 0.00236456 0)
(0 0.00233914 0)
(0 0.00245405 0)
(0 0.00247457 0)
(0 0.00248789 0)
(0 0.00246779 0)
(0 0.00253446 0)
(0 0.00254942 0)
(0 0.0025562 0)
(0 0.00254114 0)
(0 0.0025697 0)
(0 0.00258067 0)
(0 0.00258224 0)
(0 0.00257159 0)
(0 0.00257871 0)
(0 0.00258755 0)
(0 0.0025874 0)
(0 0.0025785 0)
(0 0.0025697 0)
(0 0.00258067 0)
(0 0.00257851 0)
(0 0.00256714 0)
(0 0.00253446 0)
(0 0.00254942 0)
(0 0.00254373 0)
(0 0.00252643 0)
(0 0.00245405 0)
(0 0.00247457 0)
(0 0.00246297 0)
(0 0.00243909 0)
(0 0.0023182 0)
(0 0.00234386 0)
(0 0.00236733 0)
(0 0.00232266 0)
(0 0.0022727 0)
(0 0.00210556 0)
(0 0.00216757 0)
(0 0.00222144 0)
(0 0.00210167 0)
(0 0.00198583 0)
(0 0.00185068 0)
(0 0.0019604 0)
(0 0.00181227 0)
(0 0.0017023 0)
(0 0.00165212 0)
(0 0.00174091 0)
(0 0.00138525 0)
(0 0.00102705 0)
(0 0.000685992 0)
(0 0.000390829 0)
(0 0.000166783 0)
(0 3.32921e-05 0)
(0 0 0)
(0 0 0)
(0 0 0)
(0 0 0)
(0 0 0)
(0 0 0)
(0 0 0)
(0 0 0)
(0 0 0)
(0 0 0)
(0 0 0)
(0 0 0)
(0 0 0)
(0 0 0)
(0 5.00997e-05 0)
(0 0.000204276 0)
(0 0.000449533 0)
(0 0.00076516 0)
(0 0.00112457 0)
(0 0.00149758 0)
(0 0.00185295 0)
(0 0.00180892 0)
(0 0.00197093 0)
(0 0.00189571 0)
(0 0.00204238 0)
(0 0.00211852 0)
(0 0.00224881 0)
(0 0.00218588 0)
(0 0.00230448 0)
(0 0.00233378 0)
(0 0.00238482 0)
(0 0.0023562 0)
(0 0.00247911 0)
(0 0.00249264 0)
(0 0.00250791 0)
(0 0.0024948 0)
(0 0.0025733 0)
(0 0.00257983 0)
(0 0.00258529 0)
(0 0.00257953 0)
(0 0.00259586 0)
(0 0.00259586 0)
(0 0.00259586 0)
(0 0.00259586 0)
(0 0.00259586 0)
(0 0.00259586 0)
(0 0.00259586 0)
(0 0.00259586 0)
(0 0.00259586 0)
(0 0.00259586 0)
(0 0.00259586 0)
(0 0.00259586 0)
(0 0.00259586 0)
(0 0.00259586 0)
(0 0.00259586 0)
(0 0.00259586 0)
(0 0.00259586 0)
(0 0.00259586 0)
(0 0.00259586 0)
(0 0.00259586 0)
(0 0.0025733 0)
(0 0.00257983 0)
(0 0.00257264 0)
(0 0.00256582 0)
(0 0.00247911 0)
(0 0.00249264 0)
(0 0.00250421 0)
(0 0.0024689 0)
(0 0.0024436 0)
(0 0.00230314 0)
(0 0.00233718 0)
(0 0.00236317 0)
(0 0.00224569 0)
(0 0.00218782 0)
(0 0.00205402 0)
(0 0.00211589 0)
(0 0.00196883 0)
(0 0.00190409 0)
(0 0.00180738 0)
(0 0.00185387 0)
(0 0.00149696 0)
(0 0.00112279 0)
(0 0.000762706 0)
(0 0.000446973 0)
(0 0.000202158 0)
(0 4.88969e-05 0)
(0 0 0)
(0 0 0)
(0 0 0)
(0 0 0)
(0 0 0)
(0 0 0)
(0 0 0)
(0 0 0)
(0 0 0)
(0 0 0)
(0 0 0)
(0 0 0)
(0 0 0)
(0 0 0)
(0 5.31169e-05 0)
(0 0.000210806 0)
(0 0.000459827 0)
(0 0.000779254 0)
(0 0.00114225 0)
(0 0.00151831 0)
(0 0.00187585 0)
(0 0.00187651 0)
(0 0.00203868 0)
(0 0.00201465 0)
(0 0.00216115 0)
(0 0.00218521 0)
(0 0.00231301 0)
(0 0.00228947 0)
(0 0.00240117 0)
(0 0.00241196 0)
(0 0.00245674 0)
(0 0.00244701 0)
(0 0.0025481 0)
(0 0.00255226 0)
(0 0.00256331 0)
(0 0.00255947 0)
(0 0.00259586 0)
(0 0.00259586 0)
(0 0.00259586 0)
(0 0.00259586 0)
(0 0.00259586 0)
(0 0.00259586 0)
(0 0.00259586 0)
(0 0.00259586 0)
(0 0.00259586 0)
(0 0.00259586 0)
(0 0.00259586 0)
(0 0.00259586 0)
(0 0.00259586 0)
(0 0.00259586 0)
(0 0.00259586 0)
(0 0.00259586 0)
(0 0.00259586 0)
(0 0.00259575 0)
(0 0.00259538 0)
(0 0.0025481 0)
(0 0.00255226 0)
(0 0.00255501 0)
(0 0.00252905 0)
(0 0.00251989 0)
(0 0.00240102 0)
(0 0.00241211 0)
(0 0.00241938 0)
(0 0.00231301 0)
(0 0.0022928 0)
(0 0.00216372 0)
(0 0.0021797 0)
(0 0.00203236 0)
(0 0.0020164 0)
(0 0.00186951 0)
(0 0.00187165 0)
(0 0.00151364 0)
(0 0.00113751 0)
(0 0.000774851 0)
(0 0.000456144 0)
(0 0.000208164 0)
(0 5.17481e-05 0)
(0 0 0)
(0 0 0)
(0 0 0)
(0 0 0)
(0 0 0)
(0 0 0)
(0 0 0)
(0 0 0)
(0 0 0)
(0 0 0)
(0 0 0)
(0 0 0)
(0 0 0)
(0 0 0)
(0 4.34088e-05 0)
(0 0.000189714 0)
(0 0.000426813 0)
(0 0.000734481 0)
(0 0.00108667 0)
(0 0.00145377 0)
(0 0.00180521 0)
(0 0.00185593 0)
(0 0.00201784 0)
(0 0.00203815 0)
(0 0.00218482 0)
(0 0.00216449 0)
(0 0.00229288 0)
(0 0.00231276 0)
(0 0.00241928 0)
(0 0.00241358 0)
(0 0.00245835 0)
(0 0.00246378 0)
(0 0.00255956 0)
(0 0.00255821 0)
(0 0.00256857 0)
(0 0.0025698 0)
(0 0.00259586 0)
(0 0.00259586 0)
(0 0.00259586 0)
(0 0.00259586 0)
(0 0.00259586 0)
(0 0.00259586 0)
(0 0.00259586 0)
(0 0.00259586 0)
(0 0.00259586 0)
(0 0.00259586 0)
(0 0.00259586 0)
(0 0.00259586 0)
(0 0.00259586 0)
(0 0.00259586 0)
(0 0.00259586 0)
(0 0.00259586 0)
(0 0.00255956 0)
(0 0.0025571 0)
(0 0.00255575 0)
(0 0.00252985 0)
(0 0.0025328 0)
(0 0.00241703 0)
(0 0.0024134 0)
(0 0.00240239 0)
(0 0.00229445 0)
(0 0.00230993 0)
(0 0.00218146 0)
(0 0.00216563 0)
(0 0.00201852 0)
(0 0.00203433 0)
(0 0.00185616 0)
(0 0.0018098 0)
(0 0.00145714 0)
(0 0.00108887 0)
(0 0.000735693 0)
(0 0.000427295 0)
(0 0.000189761 0)
(0 4.3314e-05 0)
(0 0 0)
(0 0 0)
(0 0 0)
(0 0 0)
(0 0 0)
(0 0 0)
(0 0 0)
(0 0 0)
(0 0 0)
(0 0 0)
(0 0 0)
(0 0 0)
(0 0 0)
(0 0 0)
(0 2.19555e-05 0)
(0 0.000137907 0)
(0 0.000343015 0)
(0 0.000618861 0)
(0 0.000962154 0)
(0 0.00131319 0)
(0 0.0016556 0)
(0 0.0017464 0)
(0 0.00190872 0)
(0 0.00196594 0)
(0 0.0021219 0)
(0 0.00205766 0)
(0 0.00219041 0)
(0 0.00225421 0)
(0 0.00236657 0)
(0 0.00233964 0)
(0 0.00238848 0)
(0 0.00241463 0)
(0 0.00252428 0)
(0 0.00251662 0)
(0 0.00253055 0)
(0 0.00253873 0)
(0 0.00259272 0)
(0 0.00259005 0)
(0 0.00259323 0)
(0 0.00259488 0)
(0 0.00259586 0)
(0 0.00259586 0)
(0 0.00259586 0)
(0 0.00259586 0)
(0 0.00259586 0)
(0 0.00259586 0)
(0 0.00259586 0)
(0 0.00259586 0)
(0 0.00259272 0)
(0 0.00258966 0)
(0 0.00258544 0)
(0 0.00258922 0)
(0 0.00252428 0)
(0 0.00251662 0)
(0 0.00250621 0)
(0 0.0024732 0)
(0 0.00249358 0)
(0 0.00236657 0)
(0 0.00233964 0)
(0 0.00230906 0)
(0 0.00219041 0)
(0 0.00225421 0)
(0 0.00211795 0)
(0 0.00205766 0)
(0 0.00190872 0)
(0 0.00197109 0)
(0 0.0017464 0)
(0 0.0016556 0)
(0 0.00131319 0)
(0 0.000949754 0)
(0 0.000624944 0)
(0 0.000347005 0)
(0 0.000140091 0)
(0 2.26934e-05 0)
(0 0 0)
(0 0 0)
(0 0 0)
(0 0 0)
(0 0 0)
(0 0 0)
(0 0 0)
(0 0 0)
(0 0 0)
(0 0 0)
(0 0 0)
(0 0 0)
(0 0 0)
(0 0 0)
(0 2.71667e-06 0)
(0 8.06437e-05 0)
(0 0.000245569 0)
(0 0.00048289 0)
(0 0.000770908 0)
(0 0.00108435 0)
(0 0.00141326 0)
(0 0.00153797 0)
(0 0.0017052 0)
(0 0.00181486 0)
(0 0.00196978 0)
(0 0.00185162 0)
(0 0.00199825 0)
(0 0.0021045 0)
(0 0.00222829 0)
(0 0.00217865 0)
(0 0.00223333 0)
(0 0.00228254 0)
(0 0.00241539 0)
(0 0.00239329 0)
(0 0.00241339 0)
(0 0.00243175 0)
(0 0.0025328 0)
(0 0.00251826 0)
(0 0.00252887 0)
(0 0.00254285 0)
(0 0.0025853 0)
(0 0.00257717 0)
(0 0.00258074 0)
(0 0.00258817 0)
(0 0.00259586 0)
(0 0.00259441 0)
(0 0.00259498 0)
(0 0.00259586 0)
(0 0.00259586 0)
(0 0.00259586 0)
(0 0.00259586 0)
(0 0.00259586 0)
(0 0.00259586 0)
(0 0.00259586 0)
(0 0.00259441 0)
(0 0.00259362 0)
(0 0.00259577 0)
(0 0.00259583 0)
(0 0.0025853 0)
(0 0.00257717 0)
(0 0.00257276 0)
(0 0.00258161 0)
(0 0.0025328 0)
(0 0.00251826 0)
(0 0.00250644 0)
(0 0.0025215 0)
(0 0.00241717 0)
(0 0.00239688 0)
(0 0.0023725 0)
(0 0.00233218 0)
(0 0.00237601 0)
(0 0.00222217 0)
(0 0.00217613 0)
(0 0.00212235 0)
(0 0.0019955 0)
(0 0.0021045 0)
(0 0.00196978 0)
(0 0.00185162 0)
(0 0.0017052 0)
(0 0.00181486 0)
(0 0.00153797 0)
(0 0.00141326 0)
(0 0.00108435 0)
(0 0.000770908 0)
(0 0.00048289 0)
(0 0.000245569 0)
(0 7.52245e-05 0)
(0 3.26321e-06 0)
(0 0 0)
(0 0 0)
(0 0 0)
(0 0 0)
(0 0 0)
(0 0 0)
(0 0 0)
(0 0 0)
(0 0 0)
(0 0 0)
(0 0 0)
(0 0 0)
(0 0 0)
(0 0 0)
(0 0 0)
(0 2.47876e-05 0)
(0 0.000130621 0)
(0 0.000307322 0)
(0 0.00053646 0)
(0 0.000822753 0)
(0 0.00111876 0)
(0 0.0012584 0)
(0 0.00142318 0)
(0 0.00156408 0)
(0 0.00171684 0)
(0 0.00157152 0)
(0 0.00171022 0)
(0 0.00186042 0)
(0 0.00199043 0)
(0 0.00183683 0)
(0 0.00194282 0)
(0 0.00203083 0)
(0 0.00210481 0)
(0 0.00204968 0)
(0 0.00220318 0)
(0 0.00212627 0)
(0 0.00217381 0)
(0 0.00224668 0)
(0 0.00235557 0)
(0 0.00228963 0)
(0 0.002316 0)
(0 0.00238435 0)
(0 0.00245206 0)
(0 0.00239362 0)
(0 0.00241079 0)
(0 0.00246825 0)
(0 0.00250211 0)
(0 0.00244818 0)
(0 0.0024577 0)
(0 0.00250874 0)
(0 0.00251761 0)
(0 0.00246781 0)
(0 0.00246523 0)
(0 0.00251557 0)
(0 0.00250211 0)
(0 0.00244818 0)
(0 0.00243468 0)
(0 0.00249171 0)
(0 0.00245206 0)
(0 0.00239362 0)
(0 0.00237217 0)
(0 0.00243165 0)
(0 0.00235557 0)
(0 0.00228963 0)
(0 0.00225553 0)
(0 0.0023222 0)
(0 0.00220318 0)
(0 0.00212627 0)
(0 0.00208162 0)
(0 0.00215566 0)
(0 0.00199043 0)
(0 0.00183683 0)
(0 0.00171022 0)
(0 0.00186042 0)
(0 0.00171684 0)
(0 0.00157152 0)
(0 0.00142318 0)
(0 0.00156408 0)
(0 0.0012584 0)
(0 0.00111876 0)
(0 0.000822753 0)
(0 0.00053646 0)
(0 0.000307322 0)
(0 0.000130621 0)
(0 2.47876e-05 0)
(0 0 0)
(0 0 0)
(0 0 0)
(0 0 0)
(0 0 0)
(0 0 0)
(0 0 0)
(0 0 0)
(0 0 0)
(0 0 0)
(0 0 0)
(0 0 0)
(0 0 0)
(0 0 0)
(0 0 0)
(0 0 0)
(0 0 0)
(0 3.73538e-05 0)
(0 0.000154243 0)
(0 0.000330653 0)
(0 0.000549436 0)
(0 0.000789076 0)
(0 0.00102564 0)
(0 0.00120921 0)
(0 0.00140442 0)
(0 0.00126436 0)
(0 0.00134059 0)
(0 0.00153625 0)
(0 0.00165253 0)
(0 0.00146368 0)
(0 0.00157627 0)
(0 0.00177119 0)
(0 0.00187601 0)
(0 0.00177902 0)
(0 0.00181645 0)
(0 0.00192276 0)
(0 0.00204205 0)
(0 0.00194668 0)
(0 0.00198207 0)
(0 0.00207771 0)
(0 0.00215898 0)
(0 0.00206306 0)
(0 0.00207888 0)
(0 0.00217744 0)
(0 0.0022291 0)
(0 0.00213699 0)
(0 0.00214775 0)
(0 0.00223977 0)
(0 0.00225232 0)
(0 0.00216079 0)
(0 0.00215636 0)
(0 0.0022483 0)
(0 0.0022291 0)
(0 0.00213699 0)
(0 0.00212193 0)
(0 0.00221413 0)
(0 0.00215898 0)
(0 0.00206306 0)
(0 0.00204031 0)
(0 0.00213621 0)
(0 0.00204205 0)
(0 0.00194668 0)
(0 0.00190721 0)
(0 0.00200218 0)
(0 0.00187601 0)
(0 0.00177902 0)
(0 0.00166691 0)
(0 0.00157627 0)
(0 0.00177119 0)
(0 0.00165253 0)
(0 0.00146368 0)
(0 0.00134059 0)
(0 0.00153625 0)
(0 0.00140442 0)
(0 0.00120921 0)
(0 0.00102564 0)
(0 0.000789076 0)
(0 0.00126436 0)
(0 0.000549436 0)
(0 0.000330653 0)
(0 0.000154243 0)
(0 3.73538e-05 0)
(0 0 0)
(0 0 0)
(0 0 0)
(0 0 0)
(0 0 0)
(0 0 0)
(0 0 0)
(0 0 0)
(0 0 0)
(0 0 0)
(0 0 0)
(0 0 0)
(0 0 0)
(0 0 0)
(0 0 0)
(0 0 0)
(0 0 0)
(0 0 0)
(0 4.73694e-07 0)
(0 4.24352e-05 0)
(0 0.000143799 0)
(0 0.000281795 0)
(0 0.000461237 0)
(0 0.000652611 0)
(0 0.000837643 0)
(0 0.00094566 0)
(0 0.00114616 0)
(0 0.00125983 0)
(0 0.00103671 0)
(0 0.00113944 0)
(0 0.00135349 0)
(0 0.00145618 0)
(0 0.00134583 0)
(0 0.001391 0)
(0 0.00150314 0)
(0 0.0016242 0)
(0 0.00150775 0)
(0 0.00153988 0)
(0 0.00165743 0)
(0 0.00173272 0)
(0 0.00161612 0)
(0 0.00164208 0)
(0 0.00175944 0)
(0 0.00181542 0)
(0 0.00169656 0)
(0 0.00170674 0)
(0 0.00182586 0)
(0 0.0018396 0)
(0 0.00172049 0)
(0 0.00171489 0)
(0 0.00183422 0)
(0 0.00181542 0)
(0 0.00169656 0)
(0 0.00168236 0)
(0 0.00180084 0)
(0 0.00173272 0)
(0 0.00161612 0)
(0 0.00158639 0)
(0 0.00171249 0)
(0 0.0016242 0)
(0 0.00150775 0)
(0 0.00147213 0)
(0 0.00158731 0)
(0 0.00145618 0)
(0 0.00134583 0)
(0 0.00123348 0)
(0 0.00113944 0)
(0 0.00135349 0)
(0 0.00125983 0)
(0 0.00103671 0)
(0 0.00094566 0)
(0 0.00114616 0)
(0 0.000837643 0)
(0 0.000652611 0)
(0 0.000461237 0)
(0 0.000281795 0)
(0 0.000143799 0)
(0 4.24352e-05 0)
(0 4.73694e-07 0)
(0 0 0)
(0 0 0)
(0 0 0)
(0 0 0)
(0 0 0)
(0 0 0)
(0 0 0)
(0 0 0)
(0 0 0)
(0 0 0)
(0 0 0)
(0 0 0)
(0 0 0)
(0 0 0)
(0 0 0)
(0 0 0)
(0 0 0)
(0 0 0)
(0 0 0)
(0 0 0)
(0 2.22855e-05 0)
(0 9.28183e-05 0)
(0 0.000188032 0)
(0 0.00031661 0)
(0 0.000468156 0)
(0 0.000552033 0)
(0 0.000735581 0)
(0 0.00083191 0)
(0 0.00063423 0)
(0 0.000712681 0)
(0 0.000923058 0)
(0 0.00100703 0)
(0 0.000895094 0)
(0 0.000931387 0)
(0 0.00104576 0)
(0 0.00114661 0)
(0 0.00102612 0)
(0 0.00104341 0)
(0 0.00116218 0)
(0 0.00124987 0)
(0 0.00112621 0)
(0 0.00114787 0)
(0 0.00127277 0)
(0 0.00132102 0)
(0 0.00119357 0)
(0 0.00120214 0)
(0 0.00133006 0)
(0 0.00134323 0)
(0 0.00121492 0)
(0 0.00120902 0)
(0 0.00133731 0)
(0 0.00132102 0)
(0 0.00119357 0)
(0 0.00118163 0)
(0 0.00130842 0)
(0 0.00124987 0)
(0 0.00112621 0)
(0 0.0011015 0)
(0 0.00122373 0)
(0 0.00114661 0)
(0 0.00102612 0)
(0 0.000997073 0)
(0 0.00111572 0)
(0 0.00100703 0)
(0 0.000895094 0)
(0 0.000785482 0)
(0 0.000712681 0)
(0 0.000923058 0)
(0 0.00083191 0)
(0 0.00063423 0)
(0 0.000552033 0)
(0 0.000735581 0)
(0 0.000468156 0)
(0 0.00031661 0)
(0 0.000188032 0)
(0 9.28183e-05 0)
(0 2.22855e-05 0)
(0 0 0)
(0 0 0)
(0 0 0)
(0 0 0)
(0 0 0)
(0 0 0)
(0 0 0)
(0 0 0)
(0 0 0)
(0 0 0)
(0 0 0)
(0 0 0)
(0 0 0)
(0 0 0)
(0 0 0)
(0 0 0)
(0 0 0)
(0 0 0)
(0 0 0)
(0 0 0)
(0 0 0)
(0 0 0)
(0 0 0)
(0 1.89779e-06 0)
(0 3.2191e-05 0)
(0 8.98404e-05 0)
(0 0.000188466 0)
(0 0.000239776 0)
(0 0.00038435 0)
(0 0.000451677 0)
(0 0.000291877 0)
(0 0.000343007 0)
(0 0.000516667 0)
(0 0.000577535 0)
(0 0.000481289 0)
(0 0.000506892 0)
(0 0.00060591 0)
(0 0.000674254 0)
(0 0.000570641 0)
(0 0.000594663 0)
(0 0.00070065 0)
(0 0.000767166 0)
(0 0.000655367 0)
(0 0.00067138 0)
(0 0.00078467 0)
(0 0.000821743 0)
(0 0.000705344 0)
(0 0.000711739 0)
(0 0.000828715 0)
(0 0.00083985 0)
(0 0.000722177 0)
(0 0.00071688 0)
(0 0.000834318 0)
(0 0.000821743 0)
(0 0.000705344 0)
(0 0.000696446 0)
(0 0.000812038 0)
(0 0.000767166 0)
(0 0.000655367 0)
(0 0.000637163 0)
(0 0.000747246 0)
(0 0.000674254 0)
(0 0.000570641 0)
(0 0.000544977 0)
(0 0.000646004 0)
(0 0.000577535 0)
(0 0.000481289 0)
(0 0.000391517 0)
(0 0.000343007 0)
(0 0.000516667 0)
(0 0.000451677 0)
(0 0.000291877 0)
(0 0.000239776 0)
(0 0.00038435 0)
(0 0.000188466 0)
(0 8.98404e-05 0)
(0 3.2191e-05 0)
(0 1.89779e-06 0)
(0 0 0)
(0 0 0)
(0 0 0)
(0 0 0)
(0 0 0)
(0 0 0)
(0 0 0)
(0 0 0)
(0 0 0)
(0 0 0)
(0 0 0)
(0 0 0)
(0 0 0)
(0 0 0)
(0 0 0)
(0 0 0)
(0 0 0)
(0 0 0)
(0 0 0)
(0 0 0)
(0 0 0)
(0 0 0)
(0 0 0)
(0 0 0)
(0 0 0)
(0 0 0)
(0 3.44012e-07 0)
(0 2.58454e-05 0)
(0 4.50181e-05 0)
(0 0.000124831 0)
(0 0.000161735 0)
(0 6.71272e-05 0)
(0 9.07706e-05 0)
(0 0.000198966 0)
(0 0.00023503 0)
(0 0.000161785 0)
(0 0.000178347 0)
(0 0.00024391 0)
(0 0.00029948 0)
(0 0.000225384 0)
(0 0.000239662 0)
(0 0.000316198 0)
(0 0.000358948 0)
(0 0.000276399 0)
(0 0.000286237 0)
(0 0.000370338 0)
(0 0.000394643 0)
(0 0.000307291 0)
(0 0.000311282 0)
(0 0.00039924 0)
(0 0.000407236 0)
(0 0.000318369 0)
(0 0.000314498 0)
(0 0.000402941 0)
(0 0.000394643 0)
(0 0.000307291 0)
(0 0.000301751 0)
(0 0.000388257 0)
(0 0.000358948 0)
(0 0.000276399 0)
(0 0.000265289 0)
(0 0.000346056 0)
(0 0.00029948 0)
(0 0.000225384 0)
(0 0.000210307 0)
(0 0.000281756 0)
(0 0.00023503 0)
(0 0.000161785 0)
(0 0.000108793 0)
(0 9.07706e-05 0)
(0 0.000198966 0)
(0 0.000161735 0)
(0 6.71272e-05 0)
(0 4.50181e-05 0)
(0 0.000124831 0)
(0 2.58454e-05 0)
(0 3.44012e-07 0)
(0 0 0)
(0 0 0)
(0 0 0)
(0 0 0)
(0 0 0)
(0 0 0)
(0 0 0)
(0 0 0)
(0 0 0)
(0 0 0)
(0 0 0)
(0 0 0)
(0 0 0)
(0 0 0)
(0 0 0)
(0 0 0)
(0 0 0)
(0 0 0)
(0 0 0)
(0 0 0)
(0 0 0)
(0 0 0)
(0 0 0)
(0 0 0)
(0 0 0)
(0 0 0)
(0 0 0)
(0 0 0)
(0 0 0)
(0 0 0)
(0 0 0)
(0 1.26342e-05 0)
(0 4.56965e-06 0)
(0 0 0)
(0 1.98673e-05 0)
(0 3.31908e-05 0)
(0 1.01613e-06 0)
(0 4.44147e-06 0)
(0 4.78306e-05 0)
(0 6.26651e-05 0)
(0 9.36543e-06 0)
(0 1.49125e-05 0)
(0 7.66821e-05 0)
(0 8.90026e-05 0)
(0 2.03182e-05 0)
(0 2.4948e-05 0)
(0 9.88998e-05 0)
(0 0.000105815 0)
(0 2.83127e-05 0)
(0 3.00794e-05 0)
(0 0.000109368 0)
(0 0.000112212 0)
(0 3.15886e-05 0)
(0 3.00794e-05 0)
(0 0.000109368 0)
(0 0.000105815 0)
(0 2.83127e-05 0)
(0 2.4948e-05 0)
(0 9.88998e-05 0)
(0 8.90026e-05 0)
(0 2.03182e-05 0)
(0 1.49125e-05 0)
(0 7.66821e-05 0)
(0 6.26651e-05 0)
(0 9.36543e-06 0)
(0 4.44147e-06 0)
(0 4.78306e-05 0)
(0 3.31908e-05 0)
(0 1.01613e-06 0)
(0 0 0)
(0 1.98673e-05 0)
(0 1.26342e-05 0)
(0 0 0)
(0 0 0)
(0 0 0)
(0 4.56965e-06 0)
(0 0 0)
(0 0 0)
(0 0 0)
(0 0 0)
(0 0 0)
(0 0 0)
(0 0 0)
(0 0 0)
(0 0 0)
(0 0 0)
(0 0 0)
(0 0 0)
(0 0 0)
(0 0 0)
(0 0 0)
(0 0 0)
(0 0 0)
(0 0 0)
(0 0 0)
(0 0 0)
(0 0 0)
(0 0 0)
(0 0 0)
(0 0 0)
(0 0 0)
(0 0 0)
(0 0 0)
(0 0 0)
(0 0 0)
(0 0 0)
(0 0 0)
(0 0 0)
(0 0 0)
(0 0 0)
(0 0 0)
(0 0 0)
(0 0 0)
(0 0 0)
(0 0 0)
(0 0 0)
(0 9.1319e-08 0)
(0 0 0)
(0 0 0)
(0 3.51426e-07 0)
(0 2.09093e-07 0)
(0 0 0)
(0 9.1319e-08 0)
(0 2.09093e-07 0)
(0 0 0)
(0 0 0)
(0 0 0)
(0 0 0)
(0 0 0)
(0 0 0)
(0 0 0)
(0 0 0)
(0 0 0)
(0 0 0)
(0 0 0)
(0 0 0)
(0 0 0)
(0 0 0)
(0 0 0)
(0 0 0)
(0 0 0)
(0 0 0)
(0 0 0)
(0 0 0)
(0 0 0)
(0 0 0)
(0 0 0)
(0 0 0)
(0 0 0)
(0 0 0)
(0 0 0)
(0 0 0)
(0 0 0)
(0 0 0)
(0 0 0)
(0 0 0)
(0 0 0)
(0 0 0)
(0 0 0)
(0 0 0)
(0 0 0)
(0 0 0)
(0 0 0)
(0 0 0)
(0 0 0)
(0 0 0)
(0 0 0)
(0 0 0)
(0 0 0)
(0 0 0)
(0 0 0)
(0 0 0)
(0 0 0)
(0 0 0)
(0 0 0)
(0 0 0)
(0 0 0)
(0 0 0)
(0 0 0)
(0 0 0)
(0 0 0)
(0 0 0)
(0 0 0)
(0 0 0)
(0 0 0)
(0 0 0)
(0 0 0)
(0 0 0)
(0 0 0)
(0 0 0)
(0 0 0)
(0 0 0)
(0 0 0)
(0 0 0)
(0 0 0)
(0 0 0)
(0 0 0)
(0 0 0)
(0 0 0)
(0 0 0)
(0 0 0)
(0 0 0)
(0 0 0)
(0 0 0)
(0 0 0)
(0 0 0)
(0 0 0)
(0 0 0)
(0 0 0)
(0 0 0)
(0 0 0)
(0 0 0)
(0 0 0)
(0 0 0)
(0 0 0)
(0 0 0)
(0 0 0)
(0 0 0)
(0 0 0)
(0 0 0)
(0 0 0)
(0 0 0)
(0 0 0)
(0 0 0)
(0 0 0)
(0 0 0)
(0 0 0)
(0 0 0)
(0 0 0)
(0 0 0)
(0 0 0)
(0 0 0)
(0 0 0)
(0 0 0)
(0 0 0)
(0 0 0)
(0 0 0)
(0 0 0)
(0 0 0)
(0 0 0)
(0 0 0)
(0 0 0)
(0 0 0)
(0 0 0)
(0 0 0)
(0 0 0)
(0 0 0)
(0 0 0)
(0 0 0)
(0 0 0)
(0 0 0)
(0 0 0)
(0 0 0)
(0 0 0)
(0 0 0)
(0 0 0)
(0 0 0)
(0 0 0)
(0 0 0)
(0 0 0)
(0 0 0)
(0 0 0)
(0 0 0)
(0 0 0)
(0 0 0)
(0 0 0)
(0 0 0)
(0 0 0)
(0 0 0)
(0 0 0)
(0 0 0)
(0 0 0)
(0 0 0)
(0 0 0)
(0 0 0)
(0 0 0)
(0 0 0)
(0 0 0)
(0 0 0)
(0 0 0)
(0 0 0)
(0 0 0)
(0 0 0)
(0 0 0)
(0 0 0)
(0 0 0)
(0 0 0)
(0 0 0)
(0 0 0)
(0 0 0)
(0 0 0)
(0 0 0)
(0 0 0)
(0 0 0)
(0 0 0)
(0 0 0)
(0 0 0)
(0 0 0)
(0 0 0)
(0 0 0)
(0 0 0)
(0 0 0)
(0 0 0)
(0 0 0)
(0 0 0)
(0 0 0)
(0 0 0)
(0 0 0)
(0 0 0)
(0 0 0)
(0 0 0)
(0 0 0)
(0 0 0)
(0 0 0)
(0 0 0)
(0 0 0)
(0 0 0)
(0 0 0)
(0 0 0)
(0 0 0)
(0 0 0)
(0 0 0)
(0 0 0)
(0 0 0)
(0 0 0)
(0 0 0)
(0 0 0)
(0 0 0)
(0 0 0)
(0 0 0)
(0 0 0)
(0 0 0)
(0 0 0)
(0 0 0)
(0 0 0)
(0 0 0)
(0 0 0)
(0 0 0)
(0 0 0)
(0 0 0)
(0 0 0)
(0 0 0)
(0 0 0)
(0 0 0)
(0 0 0)
(0 0 0)
(0 0 0)
(0 0 0)
(0 0 0)
(0 0 0)
(0 0 0)
(0 0 0)
(0 0 0)
(0 0 0)
(0 0 0)
(0 0 0)
(0 0 0)
(0 0 0)
(0 0 0)
(0 0 0)
(0 0 0)
(0 0 0)
(0 0 0)
(0 0 0)
(0 0 0)
(0 0 0)
(0 0 0)
(0 0 0)
(0 0 0)
(0 0 0)
(0 0 0)
(0 0 0)
(0 0 0)
(0 0 0)
(0 0 0)
(0 0 0)
(0 0 0)
(0 0 0)
(0 0 0)
(0 0 0)
(0 0 0)
(0 0 0)
(0 0 0)
(0 0 0)
(0 0 0)
(0 0 0)
(0 0 0)
(0 0 0)
(0 0 0)
(0 0 0)
(0 0 0)
(0 0 0)
(0 0 0)
(0 0 0)
(0 0 0)
(0 0 0)
(0 0 0)
(0 0 0)
(0 0 0)
(0 0 0)
(0 0 0)
(0 0 0)
(0 0 0)
(0 0 0)
(0 0 0)
(0 0 0)
(0 0 0)
(0 0 0)
(0 0 0)
(0 0 0)
(0 0 0)
(0 0 0)
(0 0 0)
(0 0 0)
(0 0 0)
(0 0 0)
(0 0 0)
(0 0 0)
(0 0 0)
(0 0 0)
(0 0 0)
(0 0 0)
(0 0 0)
(0 0 0)
(0 0 0)
(0 0 0)
(0 0 0)
(0 0 0)
(0 0 0)
(0 0 0)
(0 0 0)
(0 0 0)
(0 0 0)
(0 0 0)
(0 0 0)
(0 0 0)
(0 0 0)
(0 0 0)
(0 0 0)
(0 0 0)
(0 0 0)
(0 0 0)
(0 0 0)
(0 0 0)
(0 0 0)
(0 0 0)
(0 0 0)
(0 0 0)
(0 0 0)
(0 0 0)
(0 0 0)
(0 0 0)
(0 0 0)
(0 0 0)
(0 0 0)
(0 0 0)
(0 0 0)
(0 0 0)
(0 0 0)
(0 0 0)
(0 0 0)
(0 0 0)
(0 0 0)
(0 0 0)
(0 0 0)
(0 0 0)
(0 0 0)
(0 0 0)
(0 0 0)
(0 0 0)
(0 0 0)
(0 0 0)
(0 0 0)
(0 0 0)
(0 0 0)
(0 0 0)
(0 0 0)
(0 0 0)
(0 0 0)
(0 0 0)
(0 0 0)
(0 0 0)
(0 0 0)
(0 0 0)
(0 0 0)
(0 0 0)
(0 0 0)
(0 0 0)
(0 0 0)
(0 0 0)
(0 0 0)
(0 0 0)
(0 0 0)
(0 0 0)
(0 0 0)
(0 0 0)
(0 0 0)
(0 0 0)
(0 0 0)
(0 0 0)
(0 0 0)
(0 0 0)
(0 0 0)
(0 0 0)
(0 0 0)
(0 0 0)
(0 0 0)
(0 0 0)
(0 0 0)
(0 0 0)
(0 0 0)
(0 0 0)
(0 0 0)
(0 0 0)
(0 0 0)
(0 0 0)
(0 0 0)
(0 0 0)
(0 0 0)
(0 0 0)
(0 0 0)
(0 0 0)
(0 0 0)
(0 0 0)
(0 0 0)
(0 0 0)
(0 0 0)
(0 0 0)
(0 0 0)
(0 0 0)
(0 0 0)
(0 0 0)
(0 0 0)
(0 0 0)
(0 0 0)
(0 0 0)
(0 0 0)
(0 0 0)
(0 0 0)
(0 0 0)
(0 0 0)
(0 0 0)
(0 0 0)
(0 0 0)
(0 0 0)
(0 0 0)
(0 0 0)
(0 0 0)
(0 0 0)
(0 0 0)
(0 0 0)
(0 0 0)
(0 0 0)
(0 0 0)
(0 0 0)
(0 0 0)
(0 0 0)
(0 0 0)
(0 0 0)
(0 0 0)
(0 0 0)
(0 0 0)
(0 0 0)
(0 0 0)
(0 0 0)
(0 0 0)
(0 0 0)
(0 0 0)
(0 0 0)
(0 0 0)
(0 0 0)
(0 0 0)
(0 0 0)
(0 0 0)
(0 0 0)
(0 0 0)
(0 0 0)
(0 0 0)
(0 0 0)
(0 0 0)
(0 0 0)
(0 0 0)
(0 0 0)
(0 0 0)
(0 0 0)
(0 0 0)
(0 0 0)
(0 0 0)
(0 0 0)
(0 0 0)
(0 0 0)
(0 0 0)
(0 0 0)
(0 0 0)
(0 0 0)
(0 0 0)
(0 0 0)
(0 0 0)
(0 0 0)
(0 0 0)
(0 0 0)
(0 0 0)
(0 0 0)
(0 0 0)
(0 0 0)
(0 0 0)
(0 0 0)
(0 0 0)
(0 0 0)
(0 0 0)
(0 0 0)
(0 0 0)
(0 0 0)
(0 0 0)
(0 0 0)
(0 0 0)
(0 0 0)
(0 0 0)
(0 0 0)
(0 0 0)
(0 0 0)
(0 0 0)
(0 0 0)
(0 0 0)
(0 0 0)
(0 0 0)
(0 0 0)
(0 0 0)
(0 0 0)
(0 0 0)
(0 0 0)
(0 0 0)
(0 0 0)
(0 0 0)
(0 0 0)
(0 0 0)
(0 0 0)
(0 0 0)
(0 0 0)
(0 0 0)
(0 0 0)
(0 0 0)
(0 0 0)
(0 0 0)
(0 0 0)
(0 0 0)
(0 0 0)
(0 0 0)
(0 0 0)
(0 0 0)
(0 0 0)
(0 0 0)
(0 0 0)
(0 0 0)
(0 0 0)
(0 0 0)
(0 0 0)
(0 0 0)
(0 0 0)
(0 0 0)
(0 0 0)
(0 0 0)
(0 0 0)
(0 0 0)
(0 0 0)
(0 0 0)
(0 0 0)
(0 0 0)
(0 0 0)
(0 0 0)
(0 0 0)
(0 0 0)
(0 0 0)
(0 0 0)
(0 0 0)
(0 0 0)
(0 0 0)
(0 0 0)
(0 0 0)
(0 0 0)
(0 0 0)
(0 0 0)
(0 0 0)
(0 0 0)
(0 0 0)
(0 0 0)
(0 0 0)
(0 0 0)
(0 0 0)
(0 0 0)
(0 0 0)
(0 0 0)
(0 0 0)
(0 0 0)
(0 0 0)
(0 0 0)
(0 0 0)
(0 0 0)
(0 0 0)
(0 0 0)
(0 0 0)
(0 0 0)
(0 0 0)
(0 0 0)
(0 0 0)
(0 0 0)
(0 0 0)
(0 0 0)
(0 0 0)
(0 0 0)
(0 0 0)
(0 0 0)
(0 0 0)
(0 0 0)
(0 0 0)
(0 0 0)
(0 0 0)
(0 0 0)
(0 0 0)
(0 0 0)
(0 0 0)
(0 0 0)
(0 0 0)
(0 0 0)
(0 0 0)
(0 0 0)
(0 0 0)
(0 0 0)
(0 0 0)
(0 0 0)
(0 0 0)
(0 0 0)
(0 0 0)
(0 0 0)
(0 0 0)
(0 0 0)
(0 0 0)
(0 0 0)
(0 0 0)
(0 0 0)
(0 0 0)
(0 0 0)
(0 0 0)
(0 0 0)
(0 0 0)
(0 0 0)
(0 0 0)
(0 0 0)
(0 0 0)
(0 0 0)
(0 0 0)
(0 0 0)
(0 0 0)
(0 0 0)
(0 0 0)
(0 0 0)
(0 0 0)
(0 0 0)
(0 0 0)
(0 0 0)
(0 0 0)
(0 0 0)
(0 0 0)
(0 0 0)
(0 0 0)
(0 0 0)
(0 0 0)
(0 0 0)
(0 0 0)
(0 0 0)
(0 0 0)
(0 0 0)
(0 0 0)
(0 0 0)
(0 0 0)
(0 0 0)
(0 0 0)
(0 0 0)
(0 0 0)
(0 0 0)
(0 0 0)
(0 0 0)
(0 0 0)
(0 0 0)
(0 0 0)
(0 0 0)
(0 0 0)
(0 0 0)
(0 0 0)
(0 0 0)
(0 0 0)
(0 0 0)
(0 0 0)
(0 0 0)
(0 0 0)
(0 0 0)
(0 0 0)
(0 0 0)
(0 0 0)
(0 0 0)
(0 0 0)
(0 0 0)
(0 0 0)
(0 0 0)
(0 0 0)
(0 0 0)
(0 0 0)
(0 0 0)
(0 0 0)
(0 0 0)
(0 0 0)
(0 0 0)
(0 0 0)
(0 0 0)
(0 0 0)
(0 0 0)
(0 0 0)
(0 0 0)
(0 0 0)
(0 0 0)
(0 0 0)
(0 0 0)
(0 0 0)
(0 0 0)
(0 0 0)
(0 0 0)
(0 0 0)
(0 0 0)
(0 0 0)
(0 0 0)
(0 0 0)
(0 0 0)
(0 0 0)
(0 0 0)
(0 0 0)
(0 0 0)
(0 0 0)
(0 0 0)
(0 0 0)
(0 0 0)
(0 0 0)
(0 0 0)
(0 0 0)
(0 0 0)
(0 0 0)
(0 0 0)
(0 0 0)
(0 0 0)
(0 0 0)
(0 0 0)
(0 0 0)
(0 0 0)
(0 0 0)
(0 0 0)
(0 0 0)
(0 0 0)
(0 0 0)
(0 0 0)
(0 0 0)
(0 0 0)
(0 0 0)
(0 0 0)
(0 0 0)
(0 0 0)
(0 0 0)
(0 0 0)
(0 0 0)
(0 0 0)
(0 0 0)
(0 0 0)
(0 0 0)
(0 0 0)
(0 0 0)
(0 0 0)
(0 0 0)
(0 0 0)
(0 0 0)
(0 0 0)
(0 0 0)
(0 0 0)
(0 0 0)
(0 0 0)
(0 0 0)
(0 0 0)
(0 0 0)
(0 0 0)
(0 0 0)
(0 0 0)
(0 0 0)
(0 0 0)
(0 0 0)
(0 0 0)
(0 0 0)
(0 0 0)
(0 0 0)
(0 0 0)
(0 0 0)
(0 0 0)
(0 0 0)
(0 0 0)
(0 0 0)
(0 0 0)
(0 0 0)
(0 0 0)
(0 0 0)
(0 0 0)
(0 0 0)
(0 0 0)
(0 0 0)
(0 0 0)
(0 0 0)
(0 0 0)
(0 0 0)
(0 0 0)
(0 0 0)
(0 0 0)
(0 0 0)
(0 0 0)
(0 0 0)
(0 0 0)
(0 0 0)
(0 0 0)
(0 0 0)
(0 0 0)
(0 0 0)
(0 0 0)
(0 0 0)
(0 0 0)
(0 0 0)
(0 0 0)
(0 0 0)
(0 0 0)
(0 0 0)
(0 0 0)
(0 0 0)