/*--------------------------------*- C++ -*----------------------------------*\
| =========                 |                                                 |
| \\      /  F ield         | OpenFOAM: The Open Source CFD Toolbox           |
|  \\    /   O peration     | Version:  v2106                                 |
|   \\  /    A nd           | Website:  www.openfoam.com                      |
|    \\/     M anipulation  |                                                 |
\*---------------------------------------------------------------------------*/
FoamFile
{
    version     2.0;
    format      ascii;
    arch        "LSB;label=32;scalar=64";
    class       pointVectorField;
    location    "0";
    object      pointDisplacement;
}
// * * * * * * * * * * * * * * * * * * * * * * * * * * * * * * * * * * * * * //

dimensions      [0 1 0 0 0 0 0];

internalField   nonuniform List<vector> 
24440
(
(0 0 0)
(0 0 0)
(0 0 0)
(0 0 0)
(0 0 0)
(0 0 0)
(0 0 0)
(0 0 0)
(0 0 0)
(0 0 0)
(0 0 0)
(0 0 0)
(0 0 0)
(0 0 0)
(0 0 0)
(0 0 0)
(0 0 0)
(0 0 0)
(0 0 0)
(0 0 0)
(0 0 0)
(0 0 0)
(0 0 0)
(0 0 0)
(0 0 0)
(0 0 0)
(0 0 0)
(0 0 0)
(0 0 0)
(0 0 0)
(0 0 0)
(0 0 0)
(0 0 0)
(0 0 0)
(0 0 0)
(0 0 0)
(0 0 0)
(0 0 0)
(0 0 0)
(0 0 0)
(0 0 0)
(0 0 0)
(0 0 0)
(0 0 0)
(0 0 0)
(0 0 0)
(0 0 0)
(0 0 0)
(0 0 0)
(0 0 0)
(0 0 0)
(0 0 0)
(0 0 0)
(0 0 0)
(0 0 0)
(0 0 0)
(0 0 0)
(0 0 0)
(0 0 0)
(0 0 0)
(0 0 0)
(0 0 0)
(0 0 0)
(0 0 0)
(0 0 0)
(0 0 0)
(0 0 0)
(0 0 0)
(0 0 0)
(0 0 0)
(0 0 0)
(0 0 0)
(0 0 0)
(0 0 0)
(0 0 0)
(0 0 0)
(0 0 0)
(0 0 0)
(0 0 0)
(0 0 0)
(0 0 0)
(0 0 0)
(0 0 0)
(0 0 0)
(0 0 0)
(0 0 0)
(0 0 0)
(0 0 0)
(0 0 0)
(0 0 0)
(0 0 0)
(0 0 0)
(0 0 0)
(0 0 0)
(0 0 0)
(0 0 0)
(0 0 0)
(0 0 0)
(0 -4.83316e-06 0)
(0 -3.04782e-05 0)
(0 -8.38085e-05 0)
(0 -0.000129145 0)
(0 -0.000146544 0)
(0 -0.000129145 0)
(0 -8.38085e-05 0)
(0 -3.04782e-05 0)
(0 -4.83316e-06 0)
(0 0 0)
(0 0 0)
(0 0 0)
(0 0 0)
(0 0 0)
(0 0 0)
(0 0 0)
(0 0 0)
(0 0 0)
(0 0 0)
(0 0 0)
(0 0 0)
(0 0 0)
(0 0 0)
(0 0 0)
(0 0 0)
(0 0 0)
(0 0 0)
(0 0 0)
(0 0 0)
(0 0 0)
(0 0 0)
(0 0 0)
(0 0 0)
(0 0 0)
(0 0 0)
(0 0 0)
(0 0 0)
(0 0 0)
(0 -8.09423e-06 0)
(0 -0.000107073 0)
(0 -0.000315108 0)
(0 -0.000567647 0)
(0 -0.000809695 0)
(0 -0.000978437 0)
(0 -0.0011353 0)
(0 -0.00119049 0)
(0 -0.0011353 0)
(0 -0.000978437 0)
(0 -0.000809695 0)
(0 -0.000567647 0)
(0 -0.000315108 0)
(0 -0.000107073 0)
(0 -8.09423e-06 0)
(0 0 0)
(0 0 0)
(0 0 0)
(0 0 0)
(0 0 0)
(0 0 0)
(0 0 0)
(0 0 0)
(0 0 0)
(0 0 0)
(0 0 0)
(0 0 0)
(0 0 0)
(0 0 0)
(0 0 0)
(0 0 0)
(0 0 0)
(0 0 0)
(0 0 0)
(0 0 0)
(0 0 0)
(0 0 0)
(0 0 0)
(0 0 0)
(0 -3.39842e-06 0)
(0 -0.000140811 0)
(0 -0.000480211 0)
(0 -0.00094697 0)
(0 -0.00142773 0)
(0 -0.00196408 0)
(0 -0.00242861 0)
(0 -0.0027163 0)
(0 -0.00299139 0)
(0 -0.00308646 0)
(0 -0.00299139 0)
(0 -0.0027163 0)
(0 -0.00242861 0)
(0 -0.00196408 0)
(0 -0.00142773 0)
(0 -0.00094697 0)
(0 -0.000480211 0)
(0 -0.000140811 0)
(0 -3.39842e-06 0)
(0 0 0)
(0 0 0)
(0 0 0)
(0 0 0)
(0 0 0)
(0 0 0)
(0 0 0)
(0 0 0)
(0 0 0)
(0 0 0)
(0 0 0)
(0 0 0)
(0 0 0)
(0 0 0)
(0 0 0)
(0 0 0)
(0 0 0)
(0 0 0)
(0 0 0)
(0 0 0)
(0 0 0)
(0 -3.21337e-05 0)
(0 -0.000334173 0)
(0 -0.000888082 0)
(0 -0.00155815 0)
(0 -0.00239011 0)
(0 -0.00322922 0)
(0 -0.00395615 0)
(0 -0.00463711 0)
(0 -0.00512033 0)
(0 -0.00540904 0)
(0 -0.00554157 0)
(0 -0.00540904 0)
(0 -0.00512033 0)
(0 -0.00463711 0)
(0 -0.00395615 0)
(0 -0.00322922 0)
(0 -0.00239011 0)
(0 -0.00155815 0)
(0 -0.000888082 0)
(0 -0.000334173 0)
(0 -3.4019e-05 0)
(0 0 0)
(0 0 0)
(0 0 0)
(0 0 0)
(0 0 0)
(0 0 0)
(0 0 0)
(0 0 0)
(0 0 0)
(0 0 0)
(0 0 0)
(0 0 0)
(0 0 0)
(0 0 0)
(0 0 0)
(0 0 0)
(0 0 0)
(0 0 0)
(0 0 0)
(0 -6.31999e-05 0)
(0 -0.000443157 0)
(0 -0.00110606 0)
(0 -0.00203056 0)
(0 -0.0031293 0)
(0 -0.00427105 0)
(0 -0.00531881 0)
(0 -0.0063121 0)
(0 -0.00668534 0)
(0 -0.00708897 0)
(0 -0.00742659 0)
(0 -0.0076926 0)
(0 -0.00788282 0)
(0 -0.00801435 0)
(0 -0.00813587 0)
(0 -0.00817656 0)
(0 -0.00813587 0)
(0 -0.00801435 0)
(0 -0.00788282 0)
(0 -0.0076926 0)
(0 -0.00742659 0)
(0 -0.00708897 0)
(0 -0.00668534 0)
(0 -0.0063121 0)
(0 -0.00531881 0)
(0 -0.00427105 0)
(0 -0.0031293 0)
(0 -0.00203056 0)
(0 -0.00108311 0)
(0 -0.000400437 0)
(0 -5.05008e-05 0)
(0 0 0)
(0 0 0)
(0 0 0)
(0 0 0)
(0 0 0)
(0 0 0)
(0 0 0)
(0 0 0)
(0 0 0)
(0 0 0)
(0 0 0)
(0 0 0)
(0 0 0)
(0 0 0)
(0 0 0)
(0 0 0)
(0 0 0)
(0 -3.71731e-05 0)
(0 -0.000425407 0)
(0 -0.00118526 0)
(0 -0.00223031 0)
(0 -0.00345442 0)
(0 -0.00489467 0)
(0 -0.00558332 0)
(0 -0.00619373 0)
(0 -0.00686932 0)
(0 -0.00750256 0)
(0 -0.00808193 0)
(0 -0.00857413 0)
(0 -0.00747248 0)
(0 -0.00792872 0)
(0 -0.00828879 0)
(0 -0.00865196 0)
(0 -0.00893687 0)
(0 -0.00913989 0)
(0 -0.0092616 0)
(0 -0.0093906 0)
(0 -0.00943373 0)
(0 -0.0093906 0)
(0 -0.0092616 0)
(0 -0.00913989 0)
(0 -0.00893687 0)
(0 -0.00865196 0)
(0 -0.00828879 0)
(0 -0.00792872 0)
(0 -0.00747248 0)
(0 -0.00857413 0)
(0 -0.00808193 0)
(0 -0.00750256 0)
(0 -0.00686932 0)
(0 -0.00619373 0)
(0 -0.00558332 0)
(0 -0.00489467 0)
(0 -0.00345442 0)
(0 -0.00223031 0)
(0 -0.00114202 0)
(0 -0.000406898 0)
(0 -3.37586e-05 0)
(0 0 0)
(0 0 0)
(0 0 0)
(0 0 0)
(0 0 0)
(0 0 0)
(0 0 0)
(0 0 0)
(0 0 0)
(0 0 0)
(0 0 0)
(0 0 0)
(0 0 0)
(0 0 0)
(0 0 0)
(0 0 0)
(0 -0.000235201 0)
(0 -0.000961184 0)
(0 -0.00205488 0)
(0 -0.00342868 0)
(0 -0.00495879 0)
(0 -0.00651354 0)
(0 -0.0057331 0)
(0 -0.00648198 0)
(0 -0.0072026 0)
(0 -0.00788112 0)
(0 -0.00848396 0)
(0 -0.00909533 0)
(0 -0.00963558 0)
(0 -0.0100819 0)
(0 -0.00905891 0)
(0 -0.00946725 0)
(0 -0.0105028 0)
(0 -0.0108058 0)
(0 -0.00979211 0)
(0 -0.0100893 0)
(0 -0.0111072 0)
(0 -0.0113194 0)
(0 -0.0103002 0)
(0 -0.010407 0)
(0 -0.0114423 0)
(0 -0.0115399 0)
(0 -0.0105401 0)
(0 -0.0105845 0)
(0 -0.011584 0)
(0 -0.0115399 0)
(0 -0.0105401 0)
(0 -0.010407 0)
(0 -0.0114423 0)
(0 -0.0113194 0)
(0 -0.0103002 0)
(0 -0.0100893 0)
(0 -0.0111072 0)
(0 -0.0108058 0)
(0 -0.00979211 0)
(0 -0.00946725 0)
(0 -0.0105028 0)
(0 -0.0100819 0)
(0 -0.00905891 0)
(0 -0.00963558 0)
(0 -0.00909533 0)
(0 -0.00848396 0)
(0 -0.00788112 0)
(0 -0.0072026 0)
(0 -0.00648198 0)
(0 -0.0057331 0)
(0 -0.00651354 0)
(0 -0.00495879 0)
(0 -0.00338741 0)
(0 -0.00203866 0)
(0 -0.000960158 0)
(0 -0.000255701 0)
(0 0 0)
(0 0 0)
(0 0 0)
(0 0 0)
(0 0 0)
(0 0 0)
(0 0 0)
(0 0 0)
(0 0 0)
(0 0 0)
(0 0 0)
(0 0 0)
(0 0 0)
(0 0 0)
(0 0 0)
(0 -5.13089e-05 0)
(0 -0.000527132 0)
(0 -0.00151945 0)
(0 -0.00284684 0)
(0 -0.00442487 0)
(0 -0.00623281 0)
(0 -0.00797428 0)
(0 -0.00729655 0)
(0 -0.00808547 0)
(0 -0.00726008 0)
(0 -0.00807206 0)
(0 -0.00882703 0)
(0 -0.00957093 0)
(0 -0.00878666 0)
(0 -0.00943928 0)
(0 -0.0102416 0)
(0 -0.0105475 0)
(0 -0.0108321 0)
(0 -0.0104451 0)
(0 -0.00999017 0)
(0 -0.0105445 0)
(0 -0.0109421 0)
(0 -0.0111877 0)
(0 -0.01079 0)
(0 -0.0113871 0)
(0 -0.0117642 0)
(0 -0.0119387 0)
(0 -0.0115643 0)
(0 -0.0119547 0)
(0 -0.0123237 0)
(0 -0.0124156 0)
(0 -0.0120683 0)
(0 -0.0122772 0)
(0 -0.0126153 0)
(0 -0.0126634 0)
(0 -0.0123331 0)
(0 -0.0123932 0)
(0 -0.0127164 0)
(0 -0.0127066 0)
(0 -0.0123829 0)
(0 -0.0122772 0)
(0 -0.0126153 0)
(0 -0.0125696 0)
(0 -0.0122292 0)
(0 -0.0119547 0)
(0 -0.0123237 0)
(0 -0.012218 0)
(0 -0.01185 0)
(0 -0.0113871 0)
(0 -0.0117642 0)
(0 -0.0116102 0)
(0 -0.0111871 0)
(0 -0.0105445 0)
(0 -0.0109421 0)
(0 -0.0106742 0)
(0 -0.0102777 0)
(0 -0.00943928 0)
(0 -0.0102416 0)
(0 -0.00957093 0)
(0 -0.00878666 0)
(0 -0.00807206 0)
(0 -0.00882703 0)
(0 -0.00808547 0)
(0 -0.00726008 0)
(0 -0.00729655 0)
(0 -0.00793836 0)
(0 -0.00622851 0)
(0 -0.00449618 0)
(0 -0.00282293 0)
(0 -0.00150465 0)
(0 -0.000553551 0)
(0 -5.86743e-05 0)
(0 0 0)
(0 0 0)
(0 0 0)
(0 0 0)
(0 0 0)
(0 0 0)
(0 0 0)
(0 0 0)
(0 0 0)
(0 0 0)
(0 0 0)
(0 0 0)
(0 0 0)
(0 0 0)
(0 -0.000167871 0)
(0 -0.000849603 0)
(0 -0.00199619 0)
(0 -0.00350756 0)
(0 -0.00525418 0)
(0 -0.00717528 0)
(0 -0.00896824 0)
(0 -0.00852586 0)
(0 -0.00936959 0)
(0 -0.00879537 0)
(0 -0.00956198 0)
(0 -0.0101521 0)
(0 -0.0108588 0)
(0 -0.0102603 0)
(0 -0.0108789 0)
(0 -0.0111993 0)
(0 -0.0114749 0)
(0 -0.0111989 0)
(0 -0.0119775 0)
(0 -0.0121101 0)
(0 -0.0122171 0)
(0 -0.0120857 0)
(0 -0.0126794 0)
(0 -0.0127855 0)
(0 -0.0128543 0)
(0 -0.0127504 0)
(0 -0.0130949 0)
(0 -0.0131722 0)
(0 -0.0132072 0)
(0 -0.0131294 0)
(0 -0.013277 0)
(0 -0.0133337 0)
(0 -0.0133418 0)
(0 -0.0132867 0)
(0 -0.0133236 0)
(0 -0.0133692 0)
(0 -0.0133684 0)
(0 -0.0133225 0)
(0 -0.013277 0)
(0 -0.0133337 0)
(0 -0.0133225 0)
(0 -0.0132637 0)
(0 -0.0130949 0)
(0 -0.0131722 0)
(0 -0.0131428 0)
(0 -0.0130534 0)
(0 -0.0126794 0)
(0 -0.0127855 0)
(0 -0.0127255 0)
(0 -0.0126022 0)
(0 -0.0119775 0)
(0 -0.0121101 0)
(0 -0.0122314 0)
(0 -0.0120006 0)
(0 -0.0117425 0)
(0 -0.0108789 0)
(0 -0.0111993 0)
(0 -0.0114776 0)
(0 -0.0108588 0)
(0 -0.0102603 0)
(0 -0.00956198 0)
(0 -0.0101289 0)
(0 -0.00936355 0)
(0 -0.00879537 0)
(0 -0.00853606 0)
(0 -0.00899481 0)
(0 -0.00715725 0)
(0 -0.00530652 0)
(0 -0.00354434 0)
(0 -0.00201931 0)
(0 -0.000861726 0)
(0 -0.000172012 0)
(0 0 0)
(0 0 0)
(0 0 0)
(0 0 0)
(0 0 0)
(0 0 0)
(0 0 0)
(0 0 0)
(0 0 0)
(0 0 0)
(0 0 0)
(0 0 0)
(0 0 0)
(0 0 0)
(0 -0.000258852 0)
(0 -0.00105544 0)
(0 -0.00232262 0)
(0 -0.00395339 0)
(0 -0.00581039 0)
(0 -0.0077376 0)
(0 -0.00957369 0)
(0 -0.00934621 0)
(0 -0.0101833 0)
(0 -0.00979466 0)
(0 -0.0105524 0)
(0 -0.0109458 0)
(0 -0.011619 0)
(0 -0.0112939 0)
(0 -0.0119067 0)
(0 -0.012058 0)
(0 -0.0123218 0)
(0 -0.0121739 0)
(0 -0.0128089 0)
(0 -0.0128788 0)
(0 -0.0129577 0)
(0 -0.01289 0)
(0 -0.0132956 0)
(0 -0.0133293 0)
(0 -0.0133575 0)
(0 -0.0133277 0)
(0 -0.0134121 0)
(0 -0.0134121 0)
(0 -0.0134121 0)
(0 -0.0134121 0)
(0 -0.0134121 0)
(0 -0.0134121 0)
(0 -0.0134121 0)
(0 -0.0134121 0)
(0 -0.0134121 0)
(0 -0.0134121 0)
(0 -0.0134121 0)
(0 -0.0134121 0)
(0 -0.0134121 0)
(0 -0.0134121 0)
(0 -0.0134121 0)
(0 -0.0134121 0)
(0 -0.0134121 0)
(0 -0.0134121 0)
(0 -0.0134121 0)
(0 -0.0134121 0)
(0 -0.0132956 0)
(0 -0.0133293 0)
(0 -0.0132922 0)
(0 -0.0132569 0)
(0 -0.0128089 0)
(0 -0.0128788 0)
(0 -0.0129386 0)
(0 -0.0127562 0)
(0 -0.0126255 0)
(0 -0.0118997 0)
(0 -0.0120756 0)
(0 -0.0122099 0)
(0 -0.0116029 0)
(0 -0.0113039 0)
(0 -0.0106126 0)
(0 -0.0109322 0)
(0 -0.0101724 0)
(0 -0.00983796 0)
(0 -0.00933827 0)
(0 -0.00957845 0)
(0 -0.00773442 0)
(0 -0.00580115 0)
(0 -0.00394071 0)
(0 -0.0023094 0)
(0 -0.0010445 0)
(0 -0.000252638 0)
(0 0 0)
(0 0 0)
(0 0 0)
(0 0 0)
(0 0 0)
(0 0 0)
(0 0 0)
(0 0 0)
(0 0 0)
(0 0 0)
(0 0 0)
(0 0 0)
(0 0 0)
(0 0 0)
(0 -0.000274441 0)
(0 -0.00108918 0)
(0 -0.00237581 0)
(0 -0.0040262 0)
(0 -0.0059017 0)
(0 -0.00784472 0)
(0 -0.00969202 0)
(0 -0.00969543 0)
(0 -0.0105333 0)
(0 -0.0104092 0)
(0 -0.0111661 0)
(0 -0.0112904 0)
(0 -0.0119507 0)
(0 -0.0118291 0)
(0 -0.0124062 0)
(0 -0.012462 0)
(0 -0.0126934 0)
(0 -0.0126431 0)
(0 -0.0131654 0)
(0 -0.0131869 0)
(0 -0.013244 0)
(0 -0.0132241 0)
(0 -0.0134121 0)
(0 -0.0134121 0)
(0 -0.0134121 0)
(0 -0.0134121 0)
(0 -0.0134121 0)
(0 -0.0134121 0)
(0 -0.0134121 0)
(0 -0.0134121 0)
(0 -0.0134121 0)
(0 -0.0134121 0)
(0 -0.0134121 0)
(0 -0.0134121 0)
(0 -0.0134121 0)
(0 -0.0134121 0)
(0 -0.0134121 0)
(0 -0.0134121 0)
(0 -0.0134121 0)
(0 -0.0134116 0)
(0 -0.0134096 0)
(0 -0.0131654 0)
(0 -0.0131869 0)
(0 -0.0132011 0)
(0 -0.0130669 0)
(0 -0.0130196 0)
(0 -0.0124054 0)
(0 -0.0124628 0)
(0 -0.0125003 0)
(0 -0.0119507 0)
(0 -0.0118463 0)
(0 -0.0111794 0)
(0 -0.011262 0)
(0 -0.0105007 0)
(0 -0.0104182 0)
(0 -0.00965926 0)
(0 -0.00967035 0)
(0 -0.0078206 0)
(0 -0.00587721 0)
(0 -0.00400345 0)
(0 -0.00235678 0)
(0 -0.00107553 0)
(0 -0.000267369 0)
(0 0 0)
(0 0 0)
(0 0 0)
(0 0 0)
(0 0 0)
(0 0 0)
(0 0 0)
(0 0 0)
(0 0 0)
(0 0 0)
(0 0 0)
(0 0 0)
(0 0 0)
(0 0 0)
(0 -0.000224282 0)
(0 -0.000980205 0)
(0 -0.00220523 0)
(0 -0.00379487 0)
(0 -0.00561454 0)
(0 -0.00751123 0)
(0 -0.00932705 0)
(0 -0.00958912 0)
(0 -0.0104256 0)
(0 -0.0105306 0)
(0 -0.0112884 0)
(0 -0.0111833 0)
(0 -0.0118467 0)
(0 -0.0119494 0)
(0 -0.0124998 0)
(0 -0.0124704 0)
(0 -0.0127017 0)
(0 -0.0127297 0)
(0 -0.0132246 0)
(0 -0.0132176 0)
(0 -0.0132711 0)
(0 -0.0132775 0)
(0 -0.0134121 0)
(0 -0.0134121 0)
(0 -0.0134121 0)
(0 -0.0134121 0)
(0 -0.0134121 0)
(0 -0.0134121 0)
(0 -0.0134121 0)
(0 -0.0134121 0)
(0 -0.0134121 0)
(0 -0.0134121 0)
(0 -0.0134121 0)
(0 -0.0134121 0)
(0 -0.0134121 0)
(0 -0.0134121 0)
(0 -0.0134121 0)
(0 -0.0134121 0)
(0 -0.0132246 0)
(0 -0.0132119 0)
(0 -0.0132049 0)
(0 -0.0130711 0)
(0 -0.0130863 0)
(0 -0.0124882 0)
(0 -0.0124694 0)
(0 -0.0124125 0)
(0 -0.0118548 0)
(0 -0.0119348 0)
(0 -0.011271 0)
(0 -0.0111893 0)
(0 -0.0104292 0)
(0 -0.0105109 0)
(0 -0.00959028 0)
(0 -0.00935076 0)
(0 -0.00752865 0)
(0 -0.00562591 0)
(0 -0.00380113 0)
(0 -0.00220772 0)
(0 -0.000980447 0)
(0 -0.000223792 0)
(0 0 0)
(0 0 0)
(0 0 0)
(0 0 0)
(0 0 0)
(0 0 0)
(0 0 0)
(0 0 0)
(0 0 0)
(0 0 0)
(0 0 0)
(0 0 0)
(0 0 0)
(0 0 0)
(0 -0.000113439 0)
(0 -0.000712529 0)
(0 -0.00177227 0)
(0 -0.00319749 0)
(0 -0.0049712 0)
(0 -0.00678492 0)
(0 -0.00855405 0)
(0 -0.0090232 0)
(0 -0.00986186 0)
(0 -0.0101575 0)
(0 -0.0109633 0)
(0 -0.0106314 0)
(0 -0.0113173 0)
(0 -0.0116469 0)
(0 -0.0122275 0)
(0 -0.0120883 0)
(0 -0.0123407 0)
(0 -0.0124758 0)
(0 -0.0130423 0)
(0 -0.0130027 0)
(0 -0.0130747 0)
(0 -0.013117 0)
(0 -0.0133959 0)
(0 -0.0133821 0)
(0 -0.0133986 0)
(0 -0.0134071 0)
(0 -0.0134121 0)
(0 -0.0134121 0)
(0 -0.0134121 0)
(0 -0.0134121 0)
(0 -0.0134121 0)
(0 -0.0134121 0)
(0 -0.0134121 0)
(0 -0.0134121 0)
(0 -0.0133959 0)
(0 -0.0133801 0)
(0 -0.0133583 0)
(0 -0.0133778 0)
(0 -0.0130423 0)
(0 -0.0130027 0)
(0 -0.0129489 0)
(0 -0.0127784 0)
(0 -0.0128837 0)
(0 -0.0122275 0)
(0 -0.0120883 0)
(0 -0.0119303 0)
(0 -0.0113173 0)
(0 -0.0116469 0)
(0 -0.0109429 0)
(0 -0.0106314 0)
(0 -0.00986186 0)
(0 -0.0101841 0)
(0 -0.0090232 0)
(0 -0.00855405 0)
(0 -0.00678492 0)
(0 -0.00490714 0)
(0 -0.00322892 0)
(0 -0.00179288 0)
(0 -0.000723812 0)
(0 -0.000117251 0)
(0 0 0)
(0 0 0)
(0 0 0)
(0 0 0)
(0 0 0)
(0 0 0)
(0 0 0)
(0 0 0)
(0 0 0)
(0 0 0)
(0 0 0)
(0 0 0)
(0 0 0)
(0 0 0)
(0 -1.40363e-05 0)
(0 -0.000416665 0)
(0 -0.00126879 0)
(0 -0.00249497 0)
(0 -0.00398308 0)
(0 -0.00560255 0)
(0 -0.00730192 0)
(0 -0.00794628 0)
(0 -0.00881035 0)
(0 -0.00937693 0)
(0 -0.0101774 0)
(0 -0.00956684 0)
(0 -0.0103244 0)
(0 -0.0108734 0)
(0 -0.011513 0)
(0 -0.0112565 0)
(0 -0.011539 0)
(0 -0.0117933 0)
(0 -0.0124797 0)
(0 -0.0123655 0)
(0 -0.0124694 0)
(0 -0.0125642 0)
(0 -0.0130863 0)
(0 -0.0130112 0)
(0 -0.013066 0)
(0 -0.0131382 0)
(0 -0.0133576 0)
(0 -0.0133156 0)
(0 -0.013334 0)
(0 -0.0133724 0)
(0 -0.0134121 0)
(0 -0.0134047 0)
(0 -0.0134076 0)
(0 -0.0134121 0)
(0 -0.0134121 0)
(0 -0.0134121 0)
(0 -0.0134121 0)
(0 -0.0134121 0)
(0 -0.0134121 0)
(0 -0.0134121 0)
(0 -0.0134047 0)
(0 -0.0134006 0)
(0 -0.0134117 0)
(0 -0.013412 0)
(0 -0.0133576 0)
(0 -0.0133156 0)
(0 -0.0132928 0)
(0 -0.0133385 0)
(0 -0.0130863 0)
(0 -0.0130112 0)
(0 -0.0129501 0)
(0 -0.013028 0)
(0 -0.0124889 0)
(0 -0.0123841 0)
(0 -0.0122581 0)
(0 -0.0120497 0)
(0 -0.0122762 0)
(0 -0.0114814 0)
(0 -0.0112435 0)
(0 -0.0109656 0)
(0 -0.0103103 0)
(0 -0.0108734 0)
(0 -0.0101774 0)
(0 -0.00956684 0)
(0 -0.00881035 0)
(0 -0.00937693 0)
(0 -0.00794628 0)
(0 -0.00730192 0)
(0 -0.00560255 0)
(0 -0.00398308 0)
(0 -0.00249497 0)
(0 -0.00126879 0)
(0 -0.000388666 0)
(0 -1.68602e-05 0)
(0 0 0)
(0 0 0)
(0 0 0)
(0 0 0)
(0 0 0)
(0 0 0)
(0 0 0)
(0 0 0)
(0 0 0)
(0 0 0)
(0 0 0)
(0 0 0)
(0 0 0)
(0 0 0)
(0 0 0)
(0 -0.000128071 0)
(0 -0.000674886 0)
(0 -0.00158786 0)
(0 -0.00277175 0)
(0 -0.00425095 0)
(0 -0.00578037 0)
(0 -0.00650184 0)
(0 -0.0073532 0)
(0 -0.00808122 0)
(0 -0.00887049 0)
(0 -0.00811964 0)
(0 -0.00883624 0)
(0 -0.00961233 0)
(0 -0.010284 0)
(0 -0.00949042 0)
(0 -0.0100381 0)
(0 -0.0104928 0)
(0 -0.010875 0)
(0 -0.0105902 0)
(0 -0.0113833 0)
(0 -0.0109859 0)
(0 -0.0112315 0)
(0 -0.011608 0)
(0 -0.0121706 0)
(0 -0.0118299 0)
(0 -0.0119662 0)
(0 -0.0123193 0)
(0 -0.0126692 0)
(0 -0.0123672 0)
(0 -0.0124559 0)
(0 -0.0127528 0)
(0 -0.0129277 0)
(0 -0.0126491 0)
(0 -0.0126983 0)
(0 -0.012962 0)
(0 -0.0130078 0)
(0 -0.0127505 0)
(0 -0.0127372 0)
(0 -0.0129973 0)
(0 -0.0129277 0)
(0 -0.0126491 0)
(0 -0.0125794 0)
(0 -0.012874 0)
(0 -0.0126692 0)
(0 -0.0123672 0)
(0 -0.0122564 0)
(0 -0.0125637 0)
(0 -0.0121706 0)
(0 -0.0118299 0)
(0 -0.0116537 0)
(0 -0.0119982 0)
(0 -0.0113833 0)
(0 -0.0109859 0)
(0 -0.0107552 0)
(0 -0.0111378 0)
(0 -0.010284 0)
(0 -0.00949042 0)
(0 -0.00883624 0)
(0 -0.00961233 0)
(0 -0.00887049 0)
(0 -0.00811964 0)
(0 -0.0073532 0)
(0 -0.00808122 0)
(0 -0.00650184 0)
(0 -0.00578037 0)
(0 -0.00425095 0)
(0 -0.00277175 0)
(0 -0.00158786 0)
(0 -0.000674886 0)
(0 -0.000128071 0)
(0 0 0)
(0 0 0)
(0 0 0)
(0 0 0)
(0 0 0)
(0 0 0)
(0 0 0)
(0 0 0)
(0 0 0)
(0 0 0)
(0 0 0)
(0 0 0)
(0 0 0)
(0 0 0)
(0 0 0)
(0 0 0)
(0 0 0)
(0 -0.000192997 0)
(0 -0.000796934 0)
(0 -0.0017084 0)
(0 -0.0028388 0)
(0 -0.00407695 0)
(0 -0.0052992 0)
(0 -0.00624769 0)
(0 -0.00725627 0)
(0 -0.00653264 0)
(0 -0.00692646 0)
(0 -0.00793739 0)
(0 -0.00853817 0)
(0 -0.00756248 0)
(0 -0.00814418 0)
(0 -0.00915129 0)
(0 -0.00969286 0)
(0 -0.00919171 0)
(0 -0.00938514 0)
(0 -0.00993441 0)
(0 -0.0105507 0)
(0 -0.010058 0)
(0 -0.0102408 0)
(0 -0.010735 0)
(0 -0.0111549 0)
(0 -0.0106593 0)
(0 -0.010741 0)
(0 -0.0112503 0)
(0 -0.0115172 0)
(0 -0.0110413 0)
(0 -0.0110969 0)
(0 -0.0115723 0)
(0 -0.0116371 0)
(0 -0.0111642 0)
(0 -0.0111413 0)
(0 -0.0116164 0)
(0 -0.0115172 0)
(0 -0.0110413 0)
(0 -0.0109634 0)
(0 -0.0114398 0)
(0 -0.0111549 0)
(0 -0.0106593 0)
(0 -0.0105417 0)
(0 -0.0110372 0)
(0 -0.0105507 0)
(0 -0.010058 0)
(0 -0.00985407 0)
(0 -0.0103447 0)
(0 -0.00969286 0)
(0 -0.00919171 0)
(0 -0.0086125 0)
(0 -0.00814418 0)
(0 -0.00915129 0)
(0 -0.00853817 0)
(0 -0.00756248 0)
(0 -0.00692646 0)
(0 -0.00793739 0)
(0 -0.00725627 0)
(0 -0.00624769 0)
(0 -0.0052992 0)
(0 -0.00407695 0)
(0 -0.00653264 0)
(0 -0.0028388 0)
(0 -0.0017084 0)
(0 -0.000796934 0)
(0 -0.000192997 0)
(0 0 0)
(0 0 0)
(0 0 0)
(0 0 0)
(0 0 0)
(0 0 0)
(0 0 0)
(0 0 0)
(0 0 0)
(0 0 0)
(0 0 0)
(0 0 0)
(0 0 0)
(0 0 0)
(0 0 0)
(0 0 0)
(0 0 0)
(0 0 0)
(0 -2.44745e-06 0)
(0 -0.000219252 0)
(0 -0.000742972 0)
(0 -0.00145596 0)
(0 -0.00238309 0)
(0 -0.00337187 0)
(0 -0.00432789 0)
(0 -0.00488598 0)
(0 -0.00592189 0)
(0 -0.0065092 0)
(0 -0.00535643 0)
(0 -0.0058872 0)
(0 -0.00699313 0)
(0 -0.00752373 0)
(0 -0.00695356 0)
(0 -0.00718694 0)
(0 -0.00776635 0)
(0 -0.00839181 0)
(0 -0.00779015 0)
(0 -0.00795617 0)
(0 -0.0085635 0)
(0 -0.00895253 0)
(0 -0.00835006 0)
(0 -0.00848419 0)
(0 -0.00909057 0)
(0 -0.0093798 0)
(0 -0.0087657 0)
(0 -0.00881826 0)
(0 -0.00943372 0)
(0 -0.00950476 0)
(0 -0.00888934 0)
(0 -0.00886041 0)
(0 -0.00947695 0)
(0 -0.0093798 0)
(0 -0.0087657 0)
(0 -0.00869235 0)
(0 -0.0093045 0)
(0 -0.00895253 0)
(0 -0.00835006 0)
(0 -0.00819647 0)
(0 -0.00884798 0)
(0 -0.00839181 0)
(0 -0.00779015 0)
(0 -0.00760611 0)
(0 -0.00820124 0)
(0 -0.00752373 0)
(0 -0.00695356 0)
(0 -0.00637308 0)
(0 -0.0058872 0)
(0 -0.00699313 0)
(0 -0.0065092 0)
(0 -0.00535643 0)
(0 -0.00488598 0)
(0 -0.00592189 0)
(0 -0.00432789 0)
(0 -0.00337187 0)
(0 -0.00238309 0)
(0 -0.00145596 0)
(0 -0.000742972 0)
(0 -0.000219252 0)
(0 -2.44745e-06 0)
(0 0 0)
(0 0 0)
(0 0 0)
(0 0 0)
(0 0 0)
(0 0 0)
(0 0 0)
(0 0 0)
(0 0 0)
(0 0 0)
(0 0 0)
(0 0 0)
(0 0 0)
(0 0 0)
(0 0 0)
(0 0 0)
(0 0 0)
(0 0 0)
(0 0 0)
(0 0 0)
(0 -0.000115144 0)
(0 -0.000479568 0)
(0 -0.000971512 0)
(0 -0.00163584 0)
(0 -0.00241884 0)
(0 -0.00285221 0)
(0 -0.00380056 0)
(0 -0.00429826 0)
(0 -0.0032769 0)
(0 -0.00368224 0)
(0 -0.0047692 0)
(0 -0.00520305 0)
(0 -0.00462472 0)
(0 -0.00481223 0)
(0 -0.00540317 0)
(0 -0.00592421 0)
(0 -0.0053017 0)
(0 -0.00539102 0)
(0 -0.0060047 0)
(0 -0.00645778 0)
(0 -0.00581884 0)
(0 -0.00593075 0)
(0 -0.00657607 0)
(0 -0.00682536 0)
(0 -0.00616687 0)
(0 -0.00621114 0)
(0 -0.00687206 0)
(0 -0.0069401 0)
(0 -0.0062772 0)
(0 -0.00624669 0)
(0 -0.00690954 0)
(0 -0.00682536 0)
(0 -0.00616687 0)
(0 -0.00610518 0)
(0 -0.00676026 0)
(0 -0.00645778 0)
(0 -0.00581884 0)
(0 -0.00569116 0)
(0 -0.00632269 0)
(0 -0.00592421 0)
(0 -0.0053017 0)
(0 -0.00515162 0)
(0 -0.00576465 0)
(0 -0.00520305 0)
(0 -0.00462472 0)
(0 -0.00405838 0)
(0 -0.00368224 0)
(0 -0.0047692 0)
(0 -0.00429826 0)
(0 -0.0032769 0)
(0 -0.00285221 0)
(0 -0.00380056 0)
(0 -0.00241884 0)
(0 -0.00163584 0)
(0 -0.000971512 0)
(0 -0.000479568 0)
(0 -0.000115144 0)
(0 0 0)
(0 0 0)
(0 0 0)
(0 0 0)
(0 0 0)
(0 0 0)
(0 0 0)
(0 0 0)
(0 0 0)
(0 0 0)
(0 0 0)
(0 0 0)
(0 0 0)
(0 0 0)
(0 0 0)
(0 0 0)
(0 0 0)
(0 0 0)
(0 0 0)
(0 0 0)
(0 0 0)
(0 0 0)
(0 0 0)
(0 -9.80537e-06 0)
(0 -0.000166322 0)
(0 -0.000464182 0)
(0 -0.000973754 0)
(0 -0.00123886 0)
(0 -0.00198584 0)
(0 -0.0023337 0)
(0 -0.00150805 0)
(0 -0.00177223 0)
(0 -0.00266949 0)
(0 -0.00298397 0)
(0 -0.00248669 0)
(0 -0.00261898 0)
(0 -0.00313058 0)
(0 -0.00348369 0)
(0 -0.00294836 0)
(0 -0.00307247 0)
(0 -0.00362008 0)
(0 -0.00396375 0)
(0 -0.00338611 0)
(0 -0.00346885 0)
(0 -0.00405419 0)
(0 -0.00424573 0)
(0 -0.00364433 0)
(0 -0.00367737 0)
(0 -0.00428176 0)
(0 -0.00433929 0)
(0 -0.0037313 0)
(0 -0.00370393 0)
(0 -0.00431071 0)
(0 -0.00424573 0)
(0 -0.00364433 0)
(0 -0.00359836 0)
(0 -0.00419559 0)
(0 -0.00396375 0)
(0 -0.00338611 0)
(0 -0.00329206 0)
(0 -0.00386083 0)
(0 -0.00348369 0)
(0 -0.00294836 0)
(0 -0.00281576 0)
(0 -0.00333774 0)
(0 -0.00298397 0)
(0 -0.00248669 0)
(0 -0.00202287 0)
(0 -0.00177223 0)
(0 -0.00266949 0)
(0 -0.0023337 0)
(0 -0.00150805 0)
(0 -0.00123886 0)
(0 -0.00198584 0)
(0 -0.000973754 0)
(0 -0.000464182 0)
(0 -0.000166322 0)
(0 -9.80537e-06 0)
(0 0 0)
(0 0 0)
(0 0 0)
(0 0 0)
(0 0 0)
(0 0 0)
(0 0 0)
(0 0 0)
(0 0 0)
(0 0 0)
(0 0 0)
(0 0 0)
(0 0 0)
(0 0 0)
(0 0 0)
(0 0 0)
(0 0 0)
(0 0 0)
(0 0 0)
(0 0 0)
(0 0 0)
(0 0 0)
(0 0 0)
(0 0 0)
(0 0 0)
(0 0 0)
(0 -1.77742e-06 0)
(0 -0.000133537 0)
(0 -0.000232597 0)
(0 -0.000644967 0)
(0 -0.000835642 0)
(0 -0.000346829 0)
(0 -0.000468988 0)
(0 -0.00102801 0)
(0 -0.00121434 0)
(0 -0.0008359 0)
(0 -0.000921472 0)
(0 -0.00126022 0)
(0 -0.00154734 0)
(0 -0.0011645 0)
(0 -0.00123827 0)
(0 -0.00163371 0)
(0 -0.00185459 0)
(0 -0.00142808 0)
(0 -0.00147891 0)
(0 -0.00191344 0)
(0 -0.00203902 0)
(0 -0.00158769 0)
(0 -0.00160832 0)
(0 -0.00206277 0)
(0 -0.00210408 0)
(0 -0.00164493 0)
(0 -0.00162493 0)
(0 -0.00208189 0)
(0 -0.00203902 0)
(0 -0.00158769 0)
(0 -0.00155907 0)
(0 -0.00200603 0)
(0 -0.00185459 0)
(0 -0.00142808 0)
(0 -0.00137068 0)
(0 -0.00178798 0)
(0 -0.00154734 0)
(0 -0.0011645 0)
(0 -0.0010866 0)
(0 -0.00145576 0)
(0 -0.00121434 0)
(0 -0.0008359 0)
(0 -0.000562107 0)
(0 -0.000468988 0)
(0 -0.00102801 0)
(0 -0.000835642 0)
(0 -0.000346829 0)
(0 -0.000232597 0)
(0 -0.000644967 0)
(0 -0.000133537 0)
(0 -1.77742e-06 0)
(0 0 0)
(0 0 0)
(0 0 0)
(0 0 0)
(0 0 0)
(0 0 0)
(0 0 0)
(0 0 0)
(0 0 0)
(0 0 0)
(0 0 0)
(0 0 0)
(0 0 0)
(0 0 0)
(0 0 0)
(0 0 0)
(0 0 0)
(0 0 0)
(0 0 0)
(0 0 0)
(0 0 0)
(0 0 0)
(0 0 0)
(0 0 0)
(0 0 0)
(0 0 0)
(0 0 0)
(0 0 0)
(0 0 0)
(0 0 0)
(0 0 0)
(0 -6.52778e-05 0)
(0 -2.36102e-05 0)
(0 0 0)
(0 -0.000102649 0)
(0 -0.000171488 0)
(0 -5.2501e-06 0)
(0 -2.29479e-05 0)
(0 -0.000247129 0)
(0 -0.000323774 0)
(0 -4.83888e-05 0)
(0 -7.70489e-05 0)
(0 -0.000396197 0)
(0 -0.000459854 0)
(0 -0.000104979 0)
(0 -0.0001289 0)
(0 -0.00051099 0)
(0 -0.000546718 0)
(0 -0.000146284 0)
(0 -0.000155412 0)
(0 -0.000565079 0)
(0 -0.000579769 0)
(0 -0.00016321 0)
(0 -0.000155412 0)
(0 -0.000565079 0)
(0 -0.000546718 0)
(0 -0.000146284 0)
(0 -0.0001289 0)
(0 -0.00051099 0)
(0 -0.000459854 0)
(0 -0.000104979 0)
(0 -7.70489e-05 0)
(0 -0.000396197 0)
(0 -0.000323774 0)
(0 -4.83888e-05 0)
(0 -2.29479e-05 0)
(0 -0.000247129 0)
(0 -0.000171488 0)
(0 -5.2501e-06 0)
(0 0 0)
(0 -0.000102649 0)
(0 -6.52778e-05 0)
(0 0 0)
(0 0 0)
(0 0 0)
(0 -2.36102e-05 0)
(0 0 0)
(0 0 0)
(0 0 0)
(0 0 0)
(0 0 0)
(0 0 0)
(0 0 0)
(0 0 0)
(0 0 0)
(0 0 0)
(0 0 0)
(0 0 0)
(0 0 0)
(0 0 0)
(0 0 0)
(0 0 0)
(0 0 0)
(0 0 0)
(0 0 0)
(0 0 0)
(0 0 0)
(0 0 0)
(0 0 0)
(0 0 0)
(0 0 0)
(0 0 0)
(0 0 0)
(0 0 0)
(0 0 0)
(0 0 0)
(0 0 0)
(0 0 0)
(0 0 0)
(0 0 0)
(0 0 0)
(0 0 0)
(0 0 0)
(0 0 0)
(0 0 0)
(0 0 0)
(0 -4.71822e-07 0)
(0 0 0)
(0 0 0)
(0 -1.81573e-06 0)
(0 -1.08033e-06 0)
(0 0 0)
(0 -4.71822e-07 0)
(0 -1.08033e-06 0)
(0 0 0)
(0 0 0)
(0 0 0)
(0 0 0)
(0 0 0)
(0 0 0)
(0 0 0)
(0 0 0)
(0 0 0)
(0 0 0)
(0 0 0)
(0 0 0)
(0 0 0)
(0 0 0)
(0 0 0)
(0 0 0)
(0 0 0)
(0 0 0)
(0 0 0)
(0 0 0)
(0 0 0)
(0 0 0)
(0 0 0)
(0 0 0)
(0 0 0)
(0 0 0)
(0 0 0)
(0 0 0)
(0 0 0)
(0 0 0)
(0 0 0)
(0 0 0)
(0 0 0)
(0 0 0)
(0 0 0)
(0 0 0)
(0 0 0)
(0 0 0)
(0 0 0)
(0 0 0)
(0 0 0)
(0 0 0)
(0 0 0)
(0 0 0)
(0 0 0)
(0 0 0)
(0 0 0)
(0 0 0)
(0 0 0)
(0 0 0)
(0 0 0)
(0 0 0)
(0 0 0)
(0 0 0)
(0 0 0)
(0 0 0)
(0 0 0)
(0 0 0)
(0 0 0)
(0 0 0)
(0 0 0)
(0 0 0)
(0 0 0)
(0 0 0)
(0 0 0)
(0 0 0)
(0 0 0)
(0 0 0)
(0 0 0)
(0 0 0)
(0 0 0)
(0 0 0)
(0 0 0)
(0 0 0)
(0 0 0)
(0 0 0)
(0 0 0)
(0 0 0)
(0 0 0)
(0 0 0)
(0 0 0)
(0 0 0)
(0 0 0)
(0 0 0)
(0 0 0)
(0 0 0)
(0 0 0)
(0 0 0)
(0 0 0)
(0 0 0)
(0 0 0)
(0 0 0)
(0 0 0)
(0 0 0)
(0 0 0)
(0 0 0)
(0 0 0)
(0 0 0)
(0 0 0)
(0 0 0)
(0 0 0)
(0 0 0)
(0 0 0)
(0 0 0)
(0 0 0)
(0 0 0)
(0 0 0)
(0 0 0)
(0 0 0)
(0 0 0)
(0 0 0)
(0 0 0)
(0 0 0)
(0 0 0)
(0 0 0)
(0 0 0)
(0 0 0)
(0 0 0)
(0 0 0)
(0 0 0)
(0 0 0)
(0 0 0)
(0 0 0)
(0 0 0)
(0 0 0)
(0 0 0)
(0 0 0)
(0 0 0)
(0 0 0)
(0 0 0)
(0 0 0)
(0 0 0)
(0 0 0)
(0 0 0)
(0 0 0)
(0 0 0)
(0 0 0)
(0 0 0)
(0 0 0)
(0 0 0)
(0 0 0)
(0 0 0)
(0 0 0)
(0 0 0)
(0 0 0)
(0 0 0)
(0 0 0)
(0 0 0)
(0 0 0)
(0 0 0)
(0 0 0)
(0 0 0)
(0 0 0)
(0 0 0)
(0 0 0)
(0 0 0)
(0 0 0)
(0 0 0)
(0 0 0)
(0 0 0)
(0 0 0)
(0 0 0)
(0 0 0)
(0 0 0)
(0 0 0)
(0 0 0)
(0 0 0)
(0 0 0)
(0 0 0)
(0 0 0)
(0 0 0)
(0 0 0)
(0 0 0)
(0 0 0)
(0 0 0)
(0 0 0)
(0 0 0)
(0 0 0)
(0 0 0)
(0 0 0)
(0 0 0)
(0 0 0)
(0 0 0)
(0 0 0)
(0 0 0)
(0 0 0)
(0 0 0)
(0 0 0)
(0 0 0)
(0 0 0)
(0 0 0)
(0 0 0)
(0 0 0)
(0 0 0)
(0 0 0)
(0 0 0)
(0 0 0)
(0 0 0)
(0 0 0)
(0 0 0)
(0 0 0)
(0 0 0)
(0 0 0)
(0 0 0)
(0 0 0)
(0 0 0)
(0 0 0)
(0 0 0)
(0 0 0)
(0 0 0)
(0 0 0)
(0 0 0)
(0 0 0)
(0 0 0)
(0 0 0)
(0 0 0)
(0 0 0)
(0 0 0)
(0 0 0)
(0 0 0)
(0 0 0)
(0 0 0)
(0 0 0)
(0 0 0)
(0 0 0)
(0 0 0)
(0 0 0)
(0 0 0)
(0 0 0)
(0 0 0)
(0 0 0)
(0 0 0)
(0 0 0)
(0 0 0)
(0 0 0)
(0 0 0)
(0 0 0)
(0 0 0)
(0 0 0)
(0 0 0)
(0 0 0)
(0 0 0)
(0 0 0)
(0 0 0)
(0 0 0)
(0 0 0)
(0 0 0)
(0 0 0)
(0 0 0)
(0 0 0)
(0 0 0)
(0 0 0)
(0 0 0)
(0 0 0)
(0 0 0)
(0 0 0)
(0 0 0)
(0 0 0)
(0 0 0)
(0 0 0)
(0 0 0)
(0 0 0)
(0 0 0)
(0 0 0)
(0 0 0)
(0 0 0)
(0 0 0)
(0 0 0)
(0 0 0)
(0 0 0)
(0 0 0)
(0 0 0)
(0 0 0)
(0 0 0)
(0 0 0)
(0 0 0)
(0 0 0)
(0 0 0)
(0 0 0)
(0 0 0)
(0 0 0)
(0 0 0)
(0 0 0)
(0 0 0)
(0 0 0)
(0 0 0)
(0 0 0)
(0 0 0)
(0 0 0)
(0 0 0)
(0 0 0)
(0 0 0)
(0 0 0)
(0 0 0)
(0 0 0)
(0 0 0)
(0 0 0)
(0 0 0)
(0 0 0)
(0 0 0)
(0 0 0)
(0 0 0)
(0 0 0)
(0 0 0)
(0 0 0)
(0 0 0)
(0 0 0)
(0 0 0)
(0 0 0)
(0 0 0)
(0 0 0)
(0 0 0)
(0 0 0)
(0 0 0)
(0 0 0)
(0 0 0)
(0 0 0)
(0 0 0)
(0 0 0)
(0 0 0)
(0 0 0)
(0 0 0)
(0 0 0)
(0 0 0)
(0 0 0)
(0 0 0)
(0 0 0)
(0 0 0)
(0 0 0)
(0 0 0)
(0 0 0)
(0 0 0)
(0 0 0)
(0 0 0)
(0 0 0)
(0 0 0)
(0 0 0)
(0 0 0)
(0 0 0)
(0 0 0)
(0 0 0)
(0 0 0)
(0 0 0)
(0 0 0)
(0 0 0)
(0 0 0)
(0 0 0)
(0 0 0)
(0 0 0)
(0 0 0)
(0 0 0)
(0 0 0)
(0 0 0)
(0 0 0)
(0 0 0)
(0 0 0)
(0 0 0)
(0 0 0)
(0 0 0)
(0 0 0)
(0 0 0)
(0 0 0)
(0 0 0)
(0 0 0)
(0 0 0)
(0 0 0)
(0 0 0)
(0 0 0)
(0 0 0)
(0 0 0)
(0 0 0)
(0 0 0)
(0 0 0)
(0 0 0)
(0 0 0)
(0 0 0)
(0 0 0)
(0 0 0)
(0 0 0)
(0 0 0)
(0 0 0)
(0 0 0)
(0 0 0)
(0 0 0)
(0 0 0)
(0 0 0)
(0 0 0)
(0 0 0)
(0 0 0)
(0 0 0)
(0 0 0)
(0 0 0)
(0 0 0)
(0 0 0)
(0 0 0)
(0 0 0)
(0 0 0)
(0 0 0)
(0 0 0)
(0 0 0)
(0 0 0)
(0 0 0)
(0 0 0)
(0 0 0)
(0 0 0)
(0 0 0)
(0 0 0)
(0 0 0)
(0 0 0)
(0 0 0)
(0 0 0)
(0 0 0)
(0 0 0)
(0 0 0)
(0 0 0)
(0 0 0)
(0 0 0)
(0 0 0)
(0 0 0)
(0 0 0)
(0 0 0)
(0 0 0)
(0 0 0)
(0 0 0)
(0 0 0)
(0 0 0)
(0 0 0)
(0 0 0)
(0 0 0)
(0 0 0)
(0 0 0)
(0 0 0)
(0 0 0)
(0 0 0)
(0 0 0)
(0 0 0)
(0 0 0)
(0 0 0)
(0 0 0)
(0 0 0)
(0 0 0)
(0 0 0)
(0 0 0)
(0 0 0)
(0 0 0)
(0 0 0)
(0 0 0)
(0 0 0)
(0 0 0)
(0 0 0)
(0 0 0)
(0 0 0)
(0 0 0)
(0 0 0)
(0 0 0)
(0 0 0)
(0 0 0)
(0 0 0)
(0 0 0)
(0 0 0)
(0 0 0)
(0 0 0)
(0 0 0)
(0 0 0)
(0 0 0)
(0 0 0)
(0 0 0)
(0 0 0)
(0 0 0)
(0 0 0)
(0 0 0)
(0 0 0)
(0 0 0)
(0 0 0)
(0 0 0)
(0 0 0)
(0 0 0)
(0 0 0)
(0 0 0)
(0 0 0)
(0 0 0)
(0 0 0)
(0 0 0)
(0 0 0)
(0 0 0)
(0 0 0)
(0 0 0)
(0 0 0)
(0 0 0)
(0 0 0)
(0 0 0)
(0 0 0)
(0 0 0)
(0 0 0)
(0 0 0)
(0 0 0)
(0 0 0)
(0 0 0)
(0 0 0)
(0 0 0)
(0 0 0)
(0 0 0)
(0 0 0)
(0 0 0)
(0 0 0)
(0 0 0)
(0 0 0)
(0 0 0)
(0 0 0)
(0 0 0)
(0 0 0)
(0 0 0)
(0 0 0)
(0 0 0)
(0 0 0)
(0 0 0)
(0 0 0)
(0 0 0)
(0 0 0)
(0 0 0)
(0 0 0)
(0 0 0)
(0 0 0)
(0 0 0)
(0 0 0)
(0 0 0)
(0 0 0)
(0 0 0)
(0 0 0)
(0 0 0)
(0 0 0)
(0 0 0)
(0 0 0)
(0 0 0)
(0 0 0)
(0 0 0)
(0 0 0)
(0 0 0)
(0 0 0)
(0 0 0)
(0 0 0)
(0 0 0)
(0 0 0)
(0 0 0)
(0 0 0)
(0 0 0)
(0 0 0)
(0 0 0)
(0 0 0)
(0 0 0)
(0 0 0)
(0 0 0)
(0 0 0)
(0 0 0)
(0 0 0)
(0 0 0)
(0 0 0)
(0 0 0)
(0 0 0)
(0 0 0)
(0 0 0)
(0 0 0)
(0 0 0)
(0 0 0)
(0 0 0)
(0 0 0)
(0 0 0)
(0 0 0)
(0 0 0)
(0 0 0)
(0 0 0)
(0 0 0)
(0 0 0)
(0 0 0)
(0 0 0)
(0 0 0)
(0 0 0)
(0 0 0)
(0 0 0)
(0 0 0)
(0 0 0)
(0 0 0)
(0 0 0)
(0 0 0)
(0 0 0)
(0 0 0)
(0 0 0)
(0 0 0)
(0 0 0)
(0 0 0)
(0 0 0)
(0 0 0)
(0 0 0)
(0 0 0)
(0 0 0)
(0 0 0)
(0 0 0)
(0 0 0)
(0 0 0)
(0 0 0)
(0 0 0)
(0 0 0)
(0 0 0)
(0 0 0)
(0 0 0)
(0 0 0)
(0 0 0)
(0 0 0)
(0 0 0)
(0 0 0)
(0 0 0)
(0 0 0)
(0 0 0)
(0 0 0)
(0 0 0)
(0 0 0)
(0 0 0)
(0 0 0)
(0 0 0)
(0 0 0)
(0 0 0)
(0 0 0)
(0 0 0)
(0 0 0)
(0 0 0)
(0 0 0)
(0 0 0)
(0 0 0)
(0 0 0)
(0 0 0)
(0 0 0)
(0 0 0)
(0 0 0)
(0 0 0)
(0 0 0)
(0 0 0)
(0 0 0)
(0 0 0)
(0 0 0)
(0 0 0)
(0 0 0)
(0 0 0)
(0 0 0)
(0 0 0)
(0 0 0)
(0 0 0)
(0 0 0)
(0 0 0)
(0 0 0)
(0 0 0)
(0 0 0)
(0 0 0)
(0 0 0)
(0 0 0)
(0 0 0)
(0 0 0)
(0 0 0)
(0 0 0)
(0 0 0)
(0 0 0)
(0 0 0)
(0 0 0)
(0 0 0)
(0 0 0)
(0 0 0)
(0 0 0)
(0 0 0)
(0 0 0)
(0 0 0)
(0 0 0)
(0 0 0)
(0 0 0)
(0 0 0)
(0 0 0)
(0 0 0)
(0 0 0)
(0 0 0)
(0 0 0)
(0 0 0)
(0 0 0)
(0 0 0)
(0 0 0)
(0 0 0)
(0 0 0)
(0 0 0)
(0 0 0)
(0 0 0)
(0 0 0)
(0 0 0)
(0 0 0)
(0 0 0)
(0 0 0)
(0 0 0)
(0 0 0)
(0 0 0)
(0 0 0)
(0 0 0)
(0 0 0)
(0 0 0)
(0 0 0)
(0 0 0)
(0 0 0)
(0 0 0)
(0 0 0)
(0 0 0)
(0 0 0)
(0 0 0)
(0 0 0)
(0 0 0)
(0 0 0)
(0 0 0)
(0 0 0)
(0 0 0)
(0 0 0)
(0 0 0)
(0 0 0)
(0 0 0)
(0 0 0)
(0 0 0)
(0 0 0)
(0 0 0)
(0 0 0)
(0 0 0)
(0 0 0)
(0 0 0)
(0 0 0)
(0 0 0)
(0 0 0)
(0 0 0)
(0 0 0)
(0 0 0)
(0 0 0)
(0 0 0)
(0 0 0)
(0 0 0)
(0 0 0)
(0 0 0)
(0 0 0)
(0 0 0)
(0 0 0)
(0 0 0)
(0 0 0)
(0 0 0)
(0 0 0)
(0 0 0)
(0 0 0)
(0 0 0)
(0 0 0)
(0 0 0)
(0 0 0)
(0 0 0)
(0 0 0)
(0 0 0)
(0 0 0)
(0 0 0)
(0 0 0)