/*--------------------------------*- C++ -*----------------------------------*\
| =========                 |                                                 |
| \\      /  F ield         | OpenFOAM: The Open Source CFD Toolbox           |
|  \\    /   O peration     | Version:  v2106                                 |
|   \\  /    A nd           | Website:  www.openfoam.com                      |
|    \\/     M anipulation  |                                                 |
\*---------------------------------------------------------------------------*/
FoamFile
{
    version     2.0;
    format      ascii;
    arch        "LSB;label=32;scalar=64";
    class       volScalarField;
    location    "0";
    object      p;
}
// * * * * * * * * * * * * * * * * * * * * * * * * * * * * * * * * * * * * * //

dimensions      [0 2 -2 0 0 0 0];

internalField   nonuniform List<scalar> 
11644
(
0.0156496
0.0161983
0.017483
0.0194488
0.0223226
0.0261834
0.0310215
0.0371759
0.0448038
0.0531118
0.0617704
0.0710935
0.0810393
0.0914316
0.101843
0.112759
0.124215
0.137274
0.153307
0.172277
0.195103
0.210561
0.227739
0.243285
0.255022
0.262585
0.267053
0.267236
0.264073
0.25857
0.251418
0.243178
0.234489
0.226238
0.21865
0.211926
0.206512
0.202305
0.199306
0.197902
0.0129686
0.0135342
0.0150528
0.0174677
0.0206416
0.02445
0.0293611
0.0350092
0.0413842
0.0489813
0.0577572
0.0672297
0.07692
0.0875332
0.0984524
0.110385
0.123665
0.139523
0.15599
0.176826
0.201542
0.223922
0.237788
0.25153
0.2641
0.271044
0.272825
0.271409
0.266712
0.259763
0.251257
0.242177
0.233221
0.22442
0.216372
0.209489
0.203595
0.19889
0.195781
0.194363
0.012669
0.0126735
0.0133242
0.0149399
0.017339
0.0205957
0.0245308
0.0293086
0.0348253
0.0412194
0.0488877
0.057648
0.0679852
0.078741
0.0913604
0.106289
0.122796
0.138621
0.156375
0.187576
0.208894
0.221068
0.240123
0.261346
0.274966
0.282365
0.283186
0.279406
0.272016
0.2623
0.252003
0.241533
0.231368
0.221933
0.213281
0.205821
0.199584
0.19489
0.191969
0.190664
0.0116139
0.0117121
0.0119262
0.0123664
0.0132188
0.0147879
0.0169651
0.0198914
0.0237471
0.0288078
0.0349203
0.0436696
0.0557467
0.0740803
0.0940748
0.113538
0.134496
0.15312
0.172801
0.195411
0.214845
0.231451
0.252024
0.26889
0.279885
0.286478
0.289003
0.284775
0.275592
0.263289
0.250027
0.237592
0.225994
0.215418
0.20626
0.198544
0.192472
0.188151
0.18531
0.183903
0.0100829
0.00988732
0.00968276
0.00911925
0.00856295
0.00803863
0.00781983
0.00804351
0.00893691
0.0109028
0.0166009
0.028272
0.0485831
0.0711954
0.0975006
0.12428
0.149221
0.171295
0.19423
0.234758
0.244815
0.255132
0.260802
0.267062
0.275932
0.279411
0.278553
0.275792
0.268145
0.256969
0.242969
0.228381
0.215389
0.204216
0.194977
0.187489
0.181681
0.177501
0.174838
0.173454
0.0100183
0.00982735
0.00898816
0.00775585
0.00582051
0.00333251
0.000471416
-0.00268448
-0.00529927
-0.00511931
0.00101023
0.0151845
0.0342101
0.0667301
0.105523
0.140065
0.172511
0.214407
0.250849
0.27408
0.286249
0.266648
0.267632
0.250364
0.252751
0.253337
0.253712
0.248721
0.244952
0.238937
0.228719
0.215296
0.201862
0.19062
0.181581
0.174708
0.169712
0.166118
0.163865
0.162808
0.0136574
0.0126443
0.0111675
0.00926153
0.00654413
0.00282022
-0.00200489
-0.00770406
-0.0129542
-0.0124206
-0.00425896
0.00886983
0.0320547
0.0530607
0.0814791
0.127277
0.175685
0.219242
0.263698
0.287046
0.289285
0.269814
0.254642
0.22619
0.201567
0.188669
0.192887
0.204201
0.209359
0.210554
0.206412
0.197665
0.186173
0.175541
0.167446
0.161475
0.157198
0.154188
0.152189
0.15125
0.0186604
0.0179818
0.0168616
0.0143289
0.011175
0.0070298
0.00158254
-0.00504641
-0.00949163
-0.00725355
0.0044144
0.0195034
0.0396401
0.0293987
0.0868816
0.130632
0.208752
0.270717
0.322593
0.362079
0.355856
0.289612
0.232
0.206424
0.141771
0.141367
0.15648
0.159745
0.174255
0.178974
0.17908
0.175583
0.168241
0.159594
0.152855
0.147673
0.143588
0.140637
0.138709
0.137959
0.0234613
0.0239651
0.023205
0.0222506
0.0201536
0.0167766
0.0120975
0.00677982
0.00637543
0.0135114
0.0319486
0.0614781
0.088794
0.0870384
0.12395
0.190651
0.228633
0.313239
0.40598
0.428095
0.409249
0.303216
0.20622
0.114844
0.0931053
0.115022
0.122165
0.136133
0.147016
0.149795
0.15201
0.151514
0.148463
0.142757
0.136989
0.132904
0.129969
0.127864
0.126303
0.125433
0.0340908
0.0328852
0.0319951
0.0316366
0.0306267
0.0289315
0.0263019
0.0255534
0.030147
0.0379527
0.0550571
0.0888508
0.102928
0.0907003
0.168645
0.219804
0.312778
0.439563
0.531936
0.599796
0.493761
0.294748
0.124362
0.0837116
0.057055
0.0704867
0.0606126
0.0969687
0.118271
0.122626
0.125298
0.127826
0.128697
0.126115
0.121862
0.11898
0.116905
0.114979
0.114054
0.112478
0.0423109
0.043084
0.0450121
0.0449222
0.0452236
0.0458381
0.0461339
0.0492582
0.0567961
0.0655944
0.0713592
0.0864993
0.102385
0.129554
0.208655
0.209951
0.267844
0.460613
0.730039
1.00227
0.705827
0.0513251
-0.139738
-0.0958648
-0.0384652
0.026985
0.0942232
0.0525313
0.0798221
0.0909769
0.101347
0.107529
0.109142
0.109368
0.10745
0.105334
0.103802
0.102434
0.10104
0.102357
0.0461288
0.0497206
0.0518632
0.054741
0.0582404
0.0621076
0.0665968
0.0725119
0.0798282
0.0916606
0.100455
0.103602
0.123916
0.173149
0.14514
0.175209
0.181169
0.177738
0.423646
-0.866209
-0.232365
0.000769557
0.0697341
0.0687963
0.0739319
0.0597613
0.0715695
0.0841508
0.0886543
0.0898293
0.09228
0.0930243
0.0924894
0.0920132
0.091938
0.090982
0.0899952
0.0556066
0.0578755
0.0591184
0.0636646
0.0685106
0.0742212
0.0823699
0.0883135
0.0968868
0.108852
0.119024
0.112873
0.112164
0.0691204
0.00419705
-0.0406426
-0.15033
-0.454117
-0.806465
-0.135474
-0.0162968
0.0405701
0.0309922
0.0623316
0.0422479
0.041732
0.0512513
0.0637746
0.0668669
0.070656
0.0748616
0.0782652
0.0795799
0.0800253
0.0798564
0.081139
0.0793871
0.0628965
0.0657931
0.0686837
0.0733069
0.0800319
0.0867472
0.0975791
0.0951615
0.103555
0.123272
0.136157
0.123271
0.194075
0.169729
0.00307011
-0.0615094
-0.246101
-0.579134
-0.866534
0.0693461
0.15158
0.114899
0.063918
0.103611
0.0740247
0.0249042
0.0259618
0.0544685
0.04379
0.0516858
0.0583425
0.0627278
0.0633897
0.0635038
0.0637996
0.0656808
0.0794879
0.0694209
0.0694775
0.0674127
0.0727152
0.0832659
0.0911218
0.105348
0.103996
0.103808
0.126276
0.135958
0.148351
0.12702
0.0700832
0.0892319
0.0564305
-0.075068
-0.15504
-0.33656
-0.283266
-0.0340464
-0.768413
-0.162075
0.179459
0.0763454
-0.0313266
0.0718843
0.0455595
0.0513004
0.0228661
0.0496777
0.0244798
0.0411774
0.0506848
0.0567608
0.0550296
0.053563
0.052668
0.0503212
0.0510402
0.0423123
0.0460356
0.0417298
0.0469612
0.0733549
0.0907401
0.0841314
0.0826048
0.0814426
0.0808559
0.105828
0.0940402
-0.0670322
-0.010616
0.212486
0.181876
0.157048
0.4827
0.069538
0.551032
-1.08395
-0.230128
-0.0223725
-0.130113
-0.120859
-0.174306
-0.213084
-0.144397
0.0466373
0.0748234
0.0532081
0.0295392
0.0255479
0.036141
0.0491843
0.0422976
0.0365369
0.0384038
0.040695
0.0348278
0.0219028
0.0290659
0.0359916
0.0348619
0.0542722
0.0672662
0.0587168
0.0476562
0.0494322
0.0485884
0.00711446
0.0177879
-0.00373528
0.00605065
0.11334
0.273944
0.220188
0.397435
0.395254
0.505385
-0.0996769
-0.378982
-0.8705
-0.708194
-0.411752
0.221037
0.043118
-0.0469958
0.0490256
0.0843387
0.0320211
0.010866
0.00846574
0.0121258
0.0164269
0.0114431
0.0109591
0.0186303
0.0135881
0.0221706
0.0395074
0.0243572
0.0378414
0.0454599
0.0432951
0.0418093
0.0343916
0.0239797
0.0313281
0.0222915
0.0028815
-0.00868312
0.0366263
0.00515647
0.486517
0.436245
0.372842
-0.0680672
0.643838
-0.240824
-0.524857
-0.13976
-0.0768703
-0.370581
0.503117
0.291425
0.171532
0.295735
0.0292262
0.0246413
0.00484937
0.000569894
-0.00454868
0.00543676
-0.00869754
-0.0146413
-0.014277
-0.0181221
-0.0275306
-0.0200788
0.0265226
0.0220043
0.0245178
0.0193187
-0.00322176
-0.0129392
0.0217122
0.0403757
0.0343677
0.00695063
-0.010667
-0.158918
-0.00378003
0.074852
0.536855
0.597518
0.63669
0.0708149
-0.656456
-0.14146
-0.507229
-0.12753
0.735103
0.491268
0.705296
0.542795
0.221735
0.519098
0.0056666
0.0256088
0.00910033
0.023531
0.0116512
-0.0189248
-0.0443718
-0.045083
-0.0449836
-0.0465418
-0.0456571
-0.0460895
-0.00816655
-0.015459
-0.0131639
-0.0110586
-0.0166879
-0.027423
-0.0270484
-0.014724
-0.00447093
-0.00945229
-0.0219034
-0.109134
0.0101876
0.336179
0.247781
0.187122
0.398936
1.06777
0.649153
1.57845
1.69465
0.634948
-0.219457
-0.66218
0.926086
0.332655
0.372339
0.263398
0.120259
0.0383805
0.0137637
8.23187e-05
-0.019985
-0.0619423
-0.0673219
-0.06404
-0.0642834
-0.0664021
-0.0686851
-0.0659186
-0.02304
-0.0239034
-0.0296523
-0.0367284
-0.0283744
-0.023688
-0.03318
-0.0448066
-0.0541669
-0.0446802
-0.039085
0.139155
0.174102
0.0955074
0.234411
0.540077
0.206946
0.123002
-0.0395815
0.021514
-0.060436
-0.754472
-0.725699
1.22001
-0.347663
0.307385
0.1855
0.129398
0.0138933
-0.0421158
-0.0485886
-0.0539191
-0.0592416
-0.0895773
-0.0873894
-0.0911126
-0.093331
-0.089942
-0.0881159
-0.0870828
-0.0223071
-0.0245101
-0.0246593
-0.030741
-0.0366537
-0.0379935
-0.031488
-0.0259663
-0.0425538
-0.0390622
-0.0378914
-0.00724649
0.0610706
0.363896
1.00791
0.736691
0.269608
1.04907
-1.47802
-1.1934
-1.91988
-1.54064
-1.99452
0.7157
0.202508
0.256947
0.163796
0.00173808
-0.16364
-0.0901485
-0.105791
-0.106373
-0.0965429
-0.114185
-0.122682
-0.120049
-0.114669
-0.112659
-0.108611
-0.101648
-0.0333023
-0.0375788
-0.0417657
-0.0412883
-0.0408645
-0.0480963
-0.0393331
-0.0274038
-0.0293209
-0.0381245
0.0127161
-0.163315
-0.254219
-0.715021
1.18307
1.54793
1.98512
1.74726
1.01899
1.38802
-0.821741
-0.0124851
2.69199
2.74426
2.06476
1.22421
-0.339282
-0.286992
-0.343251
-0.154855
-0.172439
-0.159573
-0.15499
-0.155707
-0.149791
-0.142789
-0.137173
-0.133946
-0.131522
-0.129824
-0.0534646
-0.0500419
-0.0514849
-0.0552949
-0.0588029
-0.0652276
-0.0565427
-0.0499961
-0.0725857
-0.0674657
-0.0922248
0.0238712
0.0219267
0.371987
0.960046
-0.438574
-0.0281687
1.90043
1.23242
-2.07662
0.794314
1.93711
2.18571
1.05149
-0.184185
-0.00915982
0.116775
-0.283865
-0.370366
-0.33458
-0.277101
-0.226688
-0.204206
-0.187212
-0.188743
-0.171157
-0.156283
-0.145767
-0.144752
-0.15115
-0.0593805
-0.0687878
-0.066949
-0.0671739
-0.0703542
-0.0717982
-0.0760782
-0.0883102
-0.0707908
-0.0674876
-0.0511719
0.00507132
0.239716
0.262754
1.26748
1.79173
2.51935
0.704254
-0.193904
0.297467
-0.708639
-0.391382
-0.0293025
-0.000186212
0.311516
0.487449
0.134814
-0.211398
-0.337012
-0.328024
-0.305175
-0.264758
-0.216473
-0.19838
-0.187939
-0.183641
-0.166061
-0.162308
-0.161365
-0.15277
-0.0665886
-0.0588244
-0.0623756
-0.0669259
-0.0719782
-0.0786793
-0.0878512
-0.0916946
-0.113164
-0.0939544
-0.108215
-0.115681
-0.145848
0.832589
0.717241
0.758467
0.278512
-0.266201
0.883819
2.2189
-0.209031
0.503561
-0.187927
0.292664
0.0540983
0.134861
0.403027
-0.455013
-0.290774
-0.350783
-0.296107
-0.262259
-0.227911
-0.210783
-0.190667
-0.182752
-0.180237
-0.17668
-0.174796
-0.159938
-0.0768647
-0.0722318
-0.0764956
-0.0762994
-0.0771783
-0.0882973
-0.103746
-0.0976002
-0.12957
-0.0590119
-0.074497
-0.153638
-0.111702
-0.418782
-0.559193
-0.776359
1.16017
-0.397164
2.35643
1.24626
1.78347
2.44118
1.14418
2.83375
-1.42656
-0.371718
-0.149045
-0.371372
-0.235085
-0.262881
-0.256033
-0.222724
-0.197103
-0.209002
-0.190313
-0.183481
-0.172911
-0.172267
-0.164147
-0.16697
-0.0923328
-0.0860411
-0.0885693
-0.0888167
-0.088593
-0.0907983
-0.0939622
-0.0916278
-0.0952237
-0.10471
-0.117888
0.000223585
-0.00441928
-0.234876
0.134255
-0.115607
-0.110445
0.288948
-0.206344
-0.0656616
2.93353
2.49962
2.574
1.6506
0.793831
0.297782
-0.0622251
0.0123653
-0.0796709
-0.162969
-0.186056
-0.180704
-0.180047
-0.179546
-0.174014
-0.166198
-0.161096
-0.156171
-0.153003
-0.161906
-0.0900363
-0.0843763
-0.0855617
-0.0875324
-0.0833914
-0.0863164
-0.0920036
-0.102875
-0.101759
-0.138197
-0.133158
-0.0286517
0.0675193
-0.15499
-0.3364
-0.216811
0.108352
0.311215
0.0488766
0.0807354
2.76247
1.83697
1.33107
1.04761
0.433846
0.362179
0.510966
0.223425
0.0471696
-0.071873
-0.137267
-0.134705
-0.151968
-0.153663
-0.155069
-0.159427
-0.160776
-0.163399
-0.16574
-0.167818
-0.076417
-0.0710266
-0.077866
-0.0827172
-0.0868164
-0.0902335
-0.0971613
-0.139856
-0.166343
-0.210684
-0.357487
0.185922
-0.028279
-0.237193
-0.00485776
-0.200485
-0.045426
-0.0431449
-1.53045
-1.13801
0.691306
0.82398
0.934914
0.764886
0.806071
0.728463
0.210168
0.193436
0.178549
-0.0567493
-0.1408
-0.16763
-0.190255
-0.143103
-0.153276
-0.160436
-0.165226
-0.168311
-0.16936
-0.16583
-0.082142
-0.0764432
-0.0757445
-0.0785491
-0.0834269
-0.0884726
-0.0978309
-0.107409
-0.112547
-0.105013
-0.111364
-0.0490596
-0.0500237
-0.241282
-0.46595
-0.552892
-0.687015
-1.08263
0.338895
0.461091
2.5836
1.87866
0.321471
0.050324
0.0736316
0.338013
0.620946
0.0856452
0.047459
-0.0297206
-0.198919
-0.230898
-0.205362
-0.179269
-0.16831
-0.164377
-0.161524
-0.159618
-0.157444
-0.156612
-0.0659326
-0.0765232
-0.079303
-0.0790428
-0.0786378
-0.080625
-0.0929365
-0.0746049
-0.0725972
-0.0689119
-0.0459913
-0.0509927
-0.0402756
-0.0811223
-0.144657
-0.0958847
-0.373446
-0.926082
1.11455
0.354464
2.92949
1.77757
-0.377964
-0.266345
0.0270311
0.122957
0.02484
-0.016149
-0.0742106
-0.122553
-0.158345
-0.168992
-0.164508
-0.165358
-0.162172
-0.159135
-0.155061
-0.151364
-0.150138
-0.159896
-0.0439892
-0.0573589
-0.0627128
-0.0627982
-0.0700322
-0.0763272
-0.0810701
-0.0841656
-0.0624531
-0.131075
-0.0469469
0.0235948
0.024018
-0.0519882
-0.110817
-0.00425363
0.244413
0.804882
1.87234
1.05124
-0.361381
0.0891535
-0.709881
-0.849609
-0.346894
-0.00501047
-0.0248655
-0.115744
-0.104136
-0.173244
-0.14681
-0.133354
-0.15517
-0.159451
-0.162209
-0.161452
-0.160554
-0.162472
-0.165123
-0.151333
-0.0549067
-0.0464625
-0.0469873
-0.0514433
-0.0606788
-0.0678718
-0.0824698
-0.091068
-0.118459
-0.144133
-0.124031
0.0753473
0.0869247
0.167688
0.215632
0.403324
0.571509
1.00049
2.01682
2.13781
0.785127
0.433139
-0.370738
-0.26434
-0.444197
-0.369389
-0.0753574
0.0285691
-0.00746162
-0.0672542
-0.130813
-0.153788
-0.15379
-0.173227
-0.175404
-0.175224
-0.165627
-0.159491
-0.15258
-0.163984
-0.0493926
-0.0482588
-0.0482618
-0.0489242
-0.0549052
-0.0605625
-0.0706977
-0.0818013
-0.0814597
-0.0964859
-0.0604397
-0.0424212
-0.0870951
0.025055
0.121369
0.200724
0.57087
0.648172
1.80197
3.14421
0.62312
0.599551
-0.28448
0.180238
-0.537439
-0.234746
-0.0250918
-0.136964
-0.0775779
0.0114554
-0.127904
-0.134205
-0.147008
-0.155683
-0.155301
-0.153882
-0.152335
-0.151829
-0.151763
-0.15055
-0.0356762
-0.0304312
-0.0338924
-0.0402649
-0.0481772
-0.0525478
-0.0611106
-0.0544509
-0.0657427
-0.0880763
-0.118405
-0.170378
-0.194996
-0.304924
-0.465287
-0.502547
-0.282507
-0.056813
0.166188
0.396662
0.649532
0.476125
0.435526
0.227339
-0.168542
-0.0545806
0.0643529
0.0867053
-0.00674777
-0.0304551
-0.0751168
-0.106754
-0.142433
-0.154499
-0.145448
-0.14139
-0.140399
-0.137496
-0.135516
-0.141602
-0.00873132
-0.017418
-0.0142902
-0.0152516
-0.0120555
-0.0267984
-0.0277158
-0.0312312
-0.0455513
-0.0827256
-0.2156
-0.33746
-0.385607
-0.359758
-0.19957
-0.261215
-0.0938063
-0.184171
-0.642096
-0.332202
0.305909
0.523546
0.889073
0.891555
0.300709
0.294029
0.0877668
-0.00951939
-0.142504
-0.0780869
-0.0604855
-0.0755504
-0.109443
-0.117399
-0.125013
-0.128178
-0.132002
-0.126678
-0.129047
-0.120481
0.00506343
0.00658103
0.00702578
0.0105456
0.017922
-0.00930082
-0.00942121
-0.00769224
-0.0300484
-0.0261053
-0.0635175
-0.18413
-0.276542
-0.513873
-0.554012
-0.474105
-0.616705
-0.196608
-1.46342
-2.04181
-0.253298
0.140674
0.927313
0.691044
0.604479
0.354533
0.25267
0.132236
-0.0345438
-0.114305
-0.0377572
-0.0691069
-0.0853954
-0.0975925
-0.104742
-0.10913
-0.11945
-0.127463
-0.132786
-0.120725
0.0079154
0.0281164
0.0302729
0.0313865
0.0283523
0.0190854
0.0151644
0.00813013
-0.0274128
-0.00880246
0.0787881
0.0824694
-0.0018255
-0.344452
-0.606143
-0.758445
-0.774471
-0.640152
-1.93343
-1.96502
0.281009
-0.0962619
0.404661
0.596787
0.561988
0.385259
0.0819945
-0.00567356
-0.0306599
-0.0726469
-0.0982438
-0.110366
-0.0889347
-0.0970056
-0.103428
-0.106405
-0.110481
-0.109617
-0.11006
-0.118228
0.0351483
0.0310082
0.0350415
0.0407662
0.0366839
0.0400996
0.0486193
0.0439323
0.0657565
0.07262
0.0392606
-0.0805653
-0.172573
0.0122099
0.347595
0.111972
0.158746
-0.126445
-0.383689
-0.160575
-0.152987
-0.101908
0.286597
0.549324
0.650106
0.590144
-0.203879
-0.0929872
0.0429428
-0.204504
-0.159931
-0.117409
-0.102534
-0.0936381
-0.0986898
-0.0880388
-0.0989804
-0.0963064
-0.103162
-0.107503
0.0338693
0.035324
0.0374381
0.0427848
0.0475276
0.0575491
0.06309
0.0973189
0.106607
0.144391
0.098141
0.161863
0.155576
0.16709
0.262141
0.423013
0.592657
0.716855
0.230098
0.0529146
-0.0963522
-0.32762
0.0492823
-0.0734359
0.0434094
0.0202461
-0.0922739
-0.151618
-0.168845
-0.163698
-0.144266
-0.116944
-0.0885583
-0.0866866
-0.0948745
-0.101198
-0.109552
-0.117781
-0.124705
-0.123664
0.0457558
0.0453856
0.0488115
0.0537494
0.0601247
0.0697014
0.0892279
0.106933
0.133422
0.164359
0.218262
0.273863
0.284861
0.343106
0.439647
0.466814
0.523748
0.611798
0.0918372
0.0847078
-1.00593
-1.032
-0.270651
-0.471617
-0.477851
-0.493449
-0.487991
-0.326984
-0.119104
-0.114928
-0.132345
-0.10997
-0.112013
-0.122853
-0.131331
-0.134266
-0.133882
-0.135261
-0.132662
-0.129296
0.0519398
0.0612245
0.0609849
0.0611797
0.0598712
0.0750865
0.0801263
0.0847042
0.0935069
0.116703
0.194614
0.324014
0.399066
0.499265
0.442625
0.319423
0.199201
-0.055343
-0.747887
-1.02175
-0.501025
-0.5091
-0.464278
-0.497755
-0.387936
-0.298664
-0.248425
-0.219885
-0.20905
-0.123607
-0.124614
-0.149548
-0.132402
-0.136396
-0.160769
-0.147885
-0.144982
-0.138284
-0.134202
-0.135788
0.0471182
0.0621998
0.0615128
0.0606586
0.0606217
0.066006
0.0681816
0.062638
0.0862816
0.0879649
0.25604
0.261213
0.242974
0.285011
0.290562
0.235737
0.181934
-0.0591189
-0.0128113
-0.197991
0.0535729
-0.0687441
-0.728908
-0.617414
-0.566826
-0.422548
-0.248163
-0.230736
-0.159723
-0.102097
-0.141468
-0.156024
-0.172172
-0.178451
-0.163218
-0.148273
-0.140635
-0.140762
-0.139597
-0.141999
0.0584024
0.0503966
0.0511209
0.0544578
0.0575774
0.0620836
0.067748
0.0708759
0.0905124
0.103104
0.1452
0.229474
0.236626
0.236064
0.0172242
0.0453399
0.0423422
-0.0719941
0.409671
0.563701
0.722919
0.358125
-0.818603
-0.620539
-0.529965
-0.385304
-0.275587
-0.171942
-0.194025
-0.169021
-0.141592
-0.183882
-0.174336
-0.168961
-0.159767
-0.147221
-0.138125
-0.13814
-0.132025
-0.123208
0.0631953
0.0682259
0.0641013
0.0608881
0.0547046
0.0445488
0.0602708
0.0615819
0.050129
0.0682035
0.0616903
0.096237
0.086069
0.124547
0.00538852
0.141111
0.118431
0.486095
0.661992
0.725808
-0.0178636
0.0522454
-0.0641992
-0.129992
-0.180924
-0.102314
-0.0433974
-0.0247903
-0.0760267
-0.152933
-0.166644
-0.144384
-0.158696
-0.160078
-0.153688
-0.141521
-0.134653
-0.13384
-0.133236
-0.136966
0.0687735
0.0690891
0.0668869
0.0755253
0.0736992
0.0699544
0.0688176
0.0540435
0.0369758
-0.014613
0.080619
0.0487087
0.0277268
0.0547885
-0.0639147
-0.16191
-0.0558669
0.108342
0.649063
0.598629
1.00337
0.591547
0.522864
0.499643
0.382637
0.416016
0.262362
0.0541173
-0.0389395
-0.0132943
-0.142417
-0.152598
-0.176051
-0.159936
-0.149611
-0.142759
-0.13696
-0.13637
-0.133437
-0.136397
0.0751107
0.064131
0.0670267
0.0731819
0.0765624
0.0824501
0.0872783
0.0514949
0.0438525
0.00943243
-0.0327714
-0.0541265
-0.0844684
-0.190652
-0.322869
-0.437419
-0.0934008
-0.0559645
0.507806
1.06518
0.0966049
0.299574
0.041251
0.126901
0.116535
0.0472466
0.0210966
0.0415639
-0.0236712
-0.0754774
-0.134693
-0.128414
-0.137092
-0.13762
-0.131364
-0.129735
-0.126102
-0.129612
-0.131666
-0.124149
0.0892484
0.0885088
0.0851157
0.0831998
0.0836878
0.0871793
0.0822155
0.0624381
0.0428833
-0.0361773
-0.0566719
-0.123405
-0.261638
-0.388653
-0.434852
-0.486042
-0.35748
-0.333926
-0.196364
-0.103124
-0.333825
-0.24025
-0.288262
-0.245103
-0.166275
-0.143116
-0.133303
-0.0587851
-0.0326919
-0.0809675
-0.125501
-0.105691
-0.113834
-0.112724
-0.115286
-0.115114
-0.11563
-0.114236
-0.114942
-0.115038
0.0911541
0.0902855
0.0935323
0.10435
0.108184
0.112723
0.121849
0.108338
0.117765
0.00819824
-0.0542769
-0.0803867
-0.0505076
-0.122307
-0.104415
-0.219945
-0.434567
-0.507481
-0.516066
-0.424249
-0.146048
-0.0371799
-0.147529
-0.213802
-0.131999
-0.0809529
-0.106118
-0.0896489
-0.164884
-0.161063
-0.128728
-0.0827313
-0.0807806
-0.0927939
-0.1033
-0.106034
-0.107088
-0.107899
-0.109377
-0.104072
0.0704432
0.0825348
0.0893239
0.0982978
0.102969
0.109429
0.113055
0.116138
0.109674
0.0739839
0.0278602
-0.0374391
-0.0941883
-0.135662
-0.167731
-0.136688
-0.713754
-0.556802
-0.849023
-1.11705
-0.205873
-0.200309
-0.0150466
-0.0270479
-0.074501
-0.124823
-0.166789
-0.178016
-0.124026
-0.115877
-0.0958757
-0.094886
-0.0811464
-0.0875134
-0.096541
-0.098754
-0.105883
-0.112722
-0.116817
-0.124676
0.0875945
0.0968262
0.0940476
0.0939258
0.0952648
0.0974382
0.0979091
0.0983733
0.109303
0.0984665
0.0865331
-0.0505119
-0.151418
-0.138215
-0.227101
-0.274545
-0.41235
-0.546647
-0.706419
-0.83978
-0.412397
-0.292201
-0.20951
-0.198169
-0.296414
-0.264887
-0.263134
-0.23643
-0.195954
-0.152181
-0.113042
-0.122026
-0.0957048
-0.0995012
-0.102238
-0.107408
-0.110405
-0.114198
-0.116396
-0.117828
0.0967951
0.0890723
0.0921524
0.0907349
0.0974959
0.10286
0.104877
0.0885258
0.0976896
0.00418943
-0.0420256
0.0453549
0.1185
0.0569536
0.199284
0.0865103
-0.157315
-0.311961
-0.232516
-0.151412
-0.584149
-0.612505
-0.589756
-0.532559
-0.353681
-0.262316
-0.269217
-0.278604
-0.280253
-0.242962
-0.104919
-0.122566
-0.0992012
-0.106674
-0.108109
-0.113078
-0.11174
-0.112508
-0.11229
-0.113914
0.0790226
0.0821602
0.0811835
0.0831008
0.0850217
0.0842933
0.0827235
0.0955546
0.0851956
0.0779435
0.0283027
-0.0239031
-0.049638
-0.0115647
0.0779854
0.127996
-0.222623
-0.280795
-0.483991
-0.605698
-0.537725
-0.734823
-0.842882
-0.736513
-0.541217
-0.469241
-0.389223
-0.309668
-0.288477
-0.20048
-0.157174
-0.116443
-0.109622
-0.112095
-0.117486
-0.119476
-0.122134
-0.128627
-0.130937
-0.135009
0.0873236
0.0813783
0.082104
0.0806853
0.0813731
0.0840201
0.0862523
0.0720008
0.0855508
0.0778922
0.0699458
-0.0074463
-0.08295
-0.15396
-0.22135
-0.199826
-0.52537
-0.515224
-0.631998
-0.952041
-0.816457
-0.734119
-0.739062
-0.617547
-0.493868
-0.519531
-0.49356
-0.459015
-0.362234
-0.214965
-0.158283
-0.136821
-0.130854
-0.136245
-0.139828
-0.141359
-0.140844
-0.139901
-0.137484
-0.12664
0.0857431
0.0898219
0.0873568
0.0833233
0.0874804
0.0813854
0.0775893
0.0702006
0.0789572
0.0623521
0.0570141
0.0638191
0.0552826
0.0513984
-0.0765157
-0.274704
-0.433681
-0.618691
-0.979336
-0.73388
-0.442049
-0.344418
-0.325071
-0.2425
-0.251604
-0.281539
-0.231632
-0.232308
-0.238725
-0.219882
-0.193168
-0.163201
-0.160758
-0.152084
-0.150815
-0.138952
-0.130226
-0.121261
-0.115365
-0.117478
0.0944073
0.0924408
0.0906096
0.0853405
0.08465
0.0792905
0.0865438
0.0794167
0.0997641
0.0959719
0.092671
0.0823833
0.163286
0.240888
0.271095
0.273917
0.256306
0.19744
0.225133
0.239248
0.0279486
-0.399937
-0.569614
-0.222174
-0.378606
-0.257582
-0.239359
-0.189421
-0.20122
-0.211258
-0.179663
-0.162028
-0.167266
-0.151674
-0.133209
-0.12427
-0.121958
-0.118948
-0.125899
-0.121739
0.0873023
0.0866146
0.0891432
0.0928549
0.0964018
0.098155
0.0964447
0.0980054
0.10077
0.108162
0.127839
0.127854
0.155787
0.18886
0.240342
0.383693
0.45862
0.398154
0.561868
0.40347
0.337558
0.682229
0.425293
-0.352224
-0.292608
-0.333759
-0.339971
-0.304797
-0.274749
-0.271501
-0.228753
-0.179822
-0.188553
-0.174572
-0.158765
-0.142037
-0.133424
-0.130041
-0.128643
-0.128102
0.0887365
0.0935301
0.0950244
0.0930681
0.0908348
0.0910334
0.0784288
0.0501734
0.099645
0.0840169
0.10557
0.0976876
0.121743
0.207077
0.320194
0.187071
0.396932
-0.0483175
0.232352
0.120246
0.353858
0.389932
0.285761
0.156316
0.0248127
-0.0355013
-0.119653
-0.195931
-0.240006
-0.216636
-0.198763
-0.176961
-0.18447
-0.193187
-0.170898
-0.149682
-0.135194
-0.127031
-0.121577
-0.131498
0.0914326
0.0926527
0.0924566
0.0913818
0.0927167
0.0869877
0.0822668
0.0679307
0.0562034
0.0570057
0.0887103
0.156794
0.149961
0.101974
0.0212058
0.015035
-0.134308
0.0984558
0.172827
0.318991
0.0936963
0.0460463
0.00430279
-0.0958825
-0.0592568
-0.0946564
-0.0828593
-0.0939373
-0.137977
-0.143852
-0.191718
-0.182104
-0.191482
-0.173869
-0.163666
-0.140593
-0.136408
-0.134363
-0.133425
-0.119226
0.0770798
0.0714384
0.0745856
0.0813633
0.0884035
0.093224
0.100242
0.111006
0.0725299
0.0753542
0.105227
0.124616
0.125602
0.122328
0.0993182
0.168854
0.0997019
0.104578
-0.0254789
-0.177644
-0.541886
-0.557973
-0.616837
-0.621689
-0.603083
-0.550081
-0.448729
-0.3563
-0.232468
-0.169648
-0.187185
-0.168221
-0.155665
-0.147615
-0.143457
-0.136538
-0.13286
-0.128516
-0.126487
-0.119515
0.0893521
0.0877298
0.0816785
0.0778546
0.0798252
0.0830551
0.0933081
0.110244
0.11612
0.113856
0.0993746
0.0884343
0.0739796
0.119448
0.195405
0.367646
0.434809
0.00383037
-0.245245
-0.681331
-0.782887
-0.980626
-0.980926
-0.790697
-0.690922
-0.549981
-0.436872
-0.345371
-0.226728
-0.175588
-0.150277
-0.132873
-0.123487
-0.120126
-0.117583
-0.115576
-0.110027
-0.104072
-0.102052
-0.103063
0.0924817
0.100922
0.103998
0.10501
0.106202
0.106368
0.13285
0.134239
0.155707
0.172411
0.204573
0.225857
0.263552
0.228053
0.199055
0.147975
0.149944
-0.513309
-0.314187
-0.564197
-0.356551
-0.115507
-0.147902
-0.242518
-0.182634
-0.147691
-0.115561
-0.111919
-0.142117
-0.123534
-0.104053
-0.0921294
-0.0862163
-0.0888455
-0.0916311
-0.0941877
-0.0923416
-0.0942796
-0.0958227
-0.0975335
0.077579
0.0839551
0.0953163
0.104368
0.110266
0.115025
0.12462
0.13477
0.158885
0.17357
0.181028
0.150848
0.139498
0.0801041
0.0467763
0.00305344
0.0176874
-0.163667
-0.100995
-0.196973
-0.0291098
0.14053
0.327448
0.286744
0.250998
0.219332
0.148944
0.0684543
-0.00853742
-0.00839604
-0.0117402
-0.0357646
-0.0512664
-0.0624717
-0.0748355
-0.0799342
-0.0806628
-0.0822195
-0.0826374
-0.0919117
0.0785377
0.0829524
0.080145
0.0754092
0.0709264
0.0708721
0.0760017
0.0842072
0.0925909
0.100074
0.0782259
0.0657944
0.123057
0.206661
0.318253
0.378607
0.348381
0.186682
0.127284
0.0491203
-0.0346202
0.0626014
0.09483
0.129395
0.1099
0.0719954
0.0396488
0.0218237
0.0165602
0.0265691
0.00393065
-0.0178873
-0.0344129
-0.0469273
-0.0542595
-0.0654948
-0.068448
-0.0743295
-0.0776081
-0.076836
0.0624094
0.06104
0.0581709
0.0558117
0.0539038
0.0490983
0.0491896
0.0591963
0.0208182
0.0396416
0.0859314
0.192762
0.247984
0.260758
0.231161
0.115541
0.0343033
-0.00977488
0.123392
0.0842569
0.0494524
-0.0606935
-0.236283
-0.259894
-0.180511
-0.0873349
-0.0242694
-0.0106029
-0.0380935
0.0141915
-0.0235705
-0.0330844
-0.0446337
-0.056902
-0.061009
-0.0664088
-0.068705
-0.0737803
-0.0737013
-0.0801593
0.0515972
0.0388078
0.0379672
0.0390074
0.0398148
0.0366861
0.025477
0.0233672
0.0326886
0.0288902
-0.00514336
-0.0517878
-0.127486
-0.246326
-0.391418
-0.583672
-0.769386
-0.732227
-0.745596
-0.225006
-0.11161
-0.106936
-0.0890584
0.0646782
-0.162729
-0.0204733
0.0210886
0.024954
0.00902503
-0.0216033
-0.0266755
-0.0324898
-0.04716
-0.0556647
-0.065862
-0.0717045
-0.0770642
-0.0777939
-0.0775297
-0.0736712
0.0595432
0.0568652
0.0511176
0.0458614
0.0378546
0.0301581
0.00307302
-0.0127845
-0.0440597
-0.0651995
-0.139255
-0.260979
-0.44393
-0.600817
-0.783057
-0.880995
-0.97383
-0.915098
-0.953853
-0.39267
-0.39598
-0.2678
0.0596505
0.177411
0.125221
0.0937633
0.0438045
0.0156761
-0.0148984
-0.031407
-0.0271794
-0.025719
-0.0439354
-0.0571112
-0.0716658
-0.0756201
-0.0769375
-0.0746217
-0.0713615
-0.0595772
0.0644007
0.0664879
0.0623491
0.0537969
0.0431578
0.02768
0.00709208
-0.0167413
-0.0573997
-0.101311
-0.152613
-0.214237
-0.293011
-0.362388
-0.433792
-0.434604
-0.516142
-0.466711
-0.422946
-0.297609
-0.258179
-0.0970045
0.0438936
0.083128
0.0872356
0.066085
0.0656315
0.0438702
-0.00587308
-0.00247504
-0.0127956
-0.0158857
-0.0311201
-0.044771
-0.0513473
-0.0531165
-0.05402
-0.051177
-0.0488977
-0.0499205
0.0598739
0.0527221
0.0510737
0.0467546
0.0421765
0.0345421
0.0114427
-0.00763656
-0.011408
-0.0433944
-0.0736364
-0.105668
-0.0326288
0.0451652
0.104081
0.190426
0.326918
0.33453
0.352961
0.196147
0.0586501
-0.107695
-0.267261
-0.209247
-0.139055
-0.148145
-0.124733
-0.0757017
-0.0157846
0.0130447
0.0119119
0.0111849
-0.0301723
-0.0216973
-0.019243
-0.0186701
-0.0263844
-0.0385349
-0.0460583
-0.050756
0.0592125
0.0633924
0.0609888
0.0580526
0.0515462
0.0431932
0.0299687
0.0264324
0.00534883
-0.00813581
-0.0254326
-0.0731224
-0.0849169
-0.0851175
-0.0660019
-0.027817
0.0814253
0.013615
0.0746699
0.10977
0.123464
0.42957
0.38851
0.27235
0.217112
0.0953021
-0.0056721
-0.0691098
-0.0649519
-0.0724888
-0.0784824
-0.0612681
-0.0468656
-0.0438207
-0.0434664
-0.0362945
-0.0315677
-0.0315099
-0.0345038
-0.0519334
0.0762183
0.0758226
0.0763137
0.0743702
0.0665674
0.0581736
0.0440304
0.0232395
-0.00582894
-0.0446645
-0.0684165
-0.14173
-0.251715
-0.354141
-0.464401
-0.593342
-0.656033
-0.737216
-0.449432
-0.160688
-0.0334572
0.233432
0.357959
0.468435
0.391384
0.387362
0.244864
0.0988298
-0.0099127
-0.0710293
-0.0554395
-0.0459615
-0.0525741
-0.0624363
-0.0610505
-0.0551415
-0.0512954
-0.04838
-0.0469827
-0.0484948
0.0751922
0.0767974
0.0731652
0.0683132
0.0608376
0.0500115
0.0361284
0.010598
-0.0169073
-0.0596227
-0.110441
-0.154337
-0.247117
-0.335305
-0.407573
-0.468225
-0.578063
-0.553815
-0.308271
-0.372078
-0.435236
-0.501728
-0.37982
-0.202113
-0.366667
-0.166072
-0.0724778
0.00490987
0.0273685
0.0016417
-0.00810028
-0.0322624
-0.0422333
-0.0474567
-0.0523299
-0.0516511
-0.0623889
-0.0723505
-0.0747849
-0.0558708
0.0824159
0.0711248
0.0655538
0.0607025
0.0583356
0.0552235
0.0450037
0.0172511
-0.00463055
-0.0210775
-0.0406523
-0.042249
-0.0305746
-0.0435147
0.0116804
-0.0272376
-0.147875
-0.278187
-0.45237
-0.58779
-0.757104
-0.849356
-0.98826
-1.00271
-0.906375
-0.729466
-0.542174
-0.363857
-0.21273
-0.117523
-0.0757762
-0.0552837
-0.0443231
-0.0459089
-0.0449573
-0.0462286
-0.0449081
-0.0409144
-0.0357135
-0.033361
0.0969213
0.0867545
0.0836867