/*--------------------------------*- C++ -*----------------------------------*\
| =========                 |                                                 |
| \\      /  F ield         | OpenFOAM: The Open Source CFD Toolbox           |
|  \\    /   O peration     | Version:  v2106                                 |
|   \\  /    A nd           | Website:  www.openfoam.com                      |
|    \\/     M anipulation  |                                                 |
\*---------------------------------------------------------------------------*/
FoamFile
{
    version     2.0;
    format      ascii;
    arch        "LSB;label=32;scalar=64";
    class       volVectorField;
    location    "0";
    object      U;
}
// * * * * * * * * * * * * * * * * * * * * * * * * * * * * * * * * * * * * * //

dimensions      [0 1 -1 0 0 0 0];

internalField   nonuniform List<vector> 
11644
(
(0.000225169 -0.000110616 -2.07543e-20)
(0.000162295 -0.000160877 -5.72342e-20)
(0.000186306 -0.000202019 -3.07075e-20)
(0.000277482 -0.000197619 0)
(0.000237144 -0.000244052 0)
(0.000168314 -9.91782e-05 0)
(0.000118908 1.55764e-05 0)
(1.86789e-05 0.000263366 0)
(-0.000154868 0.000783889 0)
(-0.00032492 0.00158327 0)
(-0.000576065 0.00260082 0)
(-0.000823172 0.00389849 0)
(-0.000949162 0.00545214 0)
(-0.00122941 0.00730676 0)
(-0.0012491 0.00908342 0)
(-0.00159091 0.0104293 0)
(-0.00137927 0.0121744 0)
(0.00168939 0.0129944 0)
(0.000190878 0.0102709 0)
(-0.0030209 0.010583 -1.25952e-30)
(-0.000696336 0.0106282 8.81956e-31)
(-0.0010694 0.00893171 0)
(-0.000162724 0.00815901 0)
(0.000663079 0.00772755 0)
(0.000407042 0.00647701 0)
(0.00018875 0.005707 0)
(-3.563e-06 0.00542517 0)
(0.000159834 0.00497411 0)
(0.000337061 0.00470721 0)
(0.000442681 0.00437466 0)
(0.000540092 0.00398578 0)
(0.000641256 0.00346492 0)
(0.000650264 0.00291719 0)
(0.00061533 0.00241645 0)
(0.00059934 0.00199496 0)
(0.00060108 0.00157591 0)
(0.000551187 0.00115295 0)
(0.000577771 0.000826828 0)
(0.000585642 0.000555711 0)
(0.00046998 0.000202614 -4.02404e-21)
(0.000240554 -1.10786e-05 -2.66587e-20)
(0.000299814 -0.000146868 -2.46945e-20)
(0.000225322 -0.000163163 -1.32626e-20)
(6.77641e-05 -0.000164648 0)
(-8.9496e-05 -1.9061e-05 0)
(-0.00019601 8.28521e-05 0)
(-0.000347792 0.000363829 0)
(-0.000625135 0.000790958 0)
(-0.000985978 0.00124451 0)
(-0.00136947 0.00185133 0)
(-0.00170037 0.00272138 0)
(-0.0021783 0.00393172 0)
(-0.00260761 0.00518061 0)
(-0.00288054 0.00653651 0)
(-0.00280915 0.00858341 0)
(-0.0023294 0.0101855 -6.22745e-21)
(-0.00161201 0.0111262 1.27937e-20)
(-0.00184069 0.0130626 -4.34259e-20)
(2.57566e-06 0.0154735 -6.25489e-20)
(0.00351053 0.0138054 -2.94946e-19)
(0.00153596 0.0107763 3.99576e-19)
(0.00160824 0.00879515 -1.30186e-20)
(0.000518729 0.00838561 1.50715e-20)
(0.00035949 0.00845863 -1.54715e-20)
(0.00131277 0.00774347 7.32263e-21)
(0.00169851 0.00693747 0)
(0.00189451 0.00581217 0)
(0.00183105 0.00505041 0)
(0.00164585 0.00410372 0)
(0.00160451 0.00325487 0)
(0.00156481 0.00247111 0)
(0.00141752 0.00195355 0)
(0.00129865 0.00157448 0)
(0.00113264 0.00124635 0)
(0.000987019 0.000910616 0)
(0.00089141 0.000679891 0)
(0.000803534 0.000521502 0)
(0.00076128 0.000344779 0)
(0.000722475 0.000215075 0)
(0.000765172 7.70868e-05 0)
(-7.26532e-05 -1.60386e-05 0)
(-6.54857e-06 -8.32899e-05 0)
(7.79907e-05 -0.000192478 0)
(-4.29943e-05 -0.000307228 0)
(-0.000160387 -0.000329745 -2.43522e-20)
(-0.000369088 -0.000439942 0)
(-0.000614403 -0.000409506 0)
(-0.000903258 -0.000321803 0)
(-0.00124647 -0.000118815 0)
(-0.00171961 0.000206842 0)
(-0.00237838 0.000662192 0)
(-0.00304393 0.00130875 0)
(-0.00361719 0.00252505 -2.487e-21)
(-0.00438173 0.00405448 -2.39209e-20)
(-0.00494458 0.00574948 1.68644e-19)
(-0.00488528 0.0078776 2.95513e-19)
(-0.00442448 0.00976096 -8.23807e-19)
(-0.00369212 0.0108254 8.19881e-19)
(-0.00273934 0.0124027 -4.28417e-19)
(0.00130396 0.0127788 -5.15023e-19)
(0.00362292 0.0127586 4.88856e-19)
(0.00292928 0.0127508 8.6254e-19)
(0.00364961 0.0107398 -1.2496e-18)
(0.00279165 0.00736464 3.71031e-19)
(0.00282917 0.00650127 2.15922e-19)
(0.00302998 0.00579058 -2.0305e-19)
(0.00313315 0.00506053 2.04559e-20)
(0.00321918 0.00409974 1.63706e-21)
(0.00326927 0.00332333 0)
(0.00301967 0.0026717 0)
(0.00256095 0.00212318 0)
(0.00217366 0.00159053 0)
(0.00178181 0.00115719 0)
(0.00144174 0.000790071 0)
(0.00120913 0.000525958 0)
(0.000933096 0.000280438 0)
(0.000820165 0.000169869 0)
(0.00062991 5.12113e-05 0)
(0.000528683 -6.89676e-05 0)
(0.000428503 -2.18104e-05 0)
(0.000287735 -0.000128712 0)
(0.000208134 -0.000215991 0)
(4.0355e-05 -0.000542419 0)
(4.18052e-05 -0.00065665 0)
(3.79293e-06 -0.000967822 0)
(-0.000104236 -0.00116156 0)
(-0.000339158 -0.0013492 0)
(-0.000699771 -0.0014768 0)
(-0.00110925 -0.00149917 0)
(-0.00172157 -0.00130683 0)
(-0.00237042 -0.000819285 1.82712e-22)
(-0.00344026 0.000247014 -3.31392e-20)
(-0.004671 0.00166906 -4.8424e-20)
(-0.00584028 0.00405993 -2.54287e-20)
(-0.00694859 0.00707657 -3.2467e-19)
(-0.00668623 0.00979855 -5.80563e-20)
(-0.005964 0.0118135 3.54291e-19)
(-0.00520802 0.0127595 3.97557e-19)
(-0.00523733 0.015649 -2.64669e-19)
(-0.00132471 0.016313 -7.21291e-19)
(0.000767783 0.0119859 2.56493e-19)
(0.00201804 0.0131047 -9.4924e-20)
(0.00439811 0.0132503 5.07601e-19)
(0.00546142 0.0102372 2.88451e-19)
(0.00539949 0.00892355 -5.57592e-19)
(0.00582174 0.00745835 1.05352e-19)
(0.00617117 0.00658255 1.98475e-19)
(0.00595792 0.0052742 5.5529e-20)
(0.00545471 0.00394264 -3.49263e-20)
(0.00474885 0.00297342 3.50707e-22)
(0.00417723 0.00219893 0)
(0.00347319 0.00158409 0)
(0.00285579 0.00101455 0)
(0.00231437 0.000581438 0)
(0.00183224 0.00023457 0)
(0.00142648 5.99961e-05 0)
(0.00105745 -0.000131908 0)
(0.000829379 -0.000129712 0)
(0.000609241 -0.000122257 0)
(0.000537888 -7.44413e-05 0)
(0.000480455 -6.3839e-05 0)
(0.000453373 -0.000591233 0)
(0.000333199 -0.000691392 0)
(0.000217771 -0.00111924 0)
(4.93053e-05 -0.00136775 0)
(-5.69377e-05 -0.0015946 0)
(-0.000297721 -0.00186107 0)
(-0.000527531 -0.00214395 0)
(-0.00110158 -0.0023444 0)
(-0.00173835 -0.00236384 -5.4448e-22)
(-0.00300602 -0.0017338 8.83902e-20)
(-0.0045085 -8.7261e-05 1.64261e-20)
(-0.0064178 0.00206737 8.08848e-20)
(-0.00888619 0.00530607 -1.27952e-18)
(-0.00931432 0.00918301 1.4339e-18)
(-0.00915497 0.0121371 -3.24483e-18)
(-0.00860752 0.0148708 3.59967e-18)
(-0.00721283 0.0154885 -5.34052e-19)
(-0.00605365 0.0170074 -2.7782e-18)
(-0.00479258 0.0168485 5.1514e-19)
(-0.00230283 0.0126409 2.87559e-18)
(0.00143717 0.011499 -1.89389e-18)
(0.00301647 0.011818 2.12398e-18)
(0.0065909 0.0115541 -3.20622e-18)
(0.00873923 0.0107503 2.70679e-18)
(0.00892364 0.00992352 -1.53728e-18)
(0.00948731 0.00833793 1.20125e-18)
(0.00960961 0.00609157 -1.1642e-19)
(0.00852615 0.0039907 -9.72379e-20)
(0.00709112 0.00170753 3.98243e-20)
(0.00566245 0.000375521 1.01179e-20)
(0.00463092 -0.000322316 0)
(0.00360426 -0.000739961 0)
(0.00269144 -0.000940167 0)
(0.00189365 -0.000986364 0)
(0.00129983 -0.000913997 0)
(0.000849426 -0.00067891 0)
(0.000543183 -0.000588714 0)
(0.000352228 -0.000260007 0)
(0.000279799 -0.000149443 0)
(0.000695353 -0.000204913 0)
(0.00068039 -0.000425472 0)
(0.000742993 -0.00093008 0)
(0.000570541 -0.00142787 0)
(0.00043192 -0.00176559 0)
(0.00011514 -0.00226244 0)
(-0.000171912 -0.00266448 0)
(-0.000560826 -0.00319536 0)
(-0.00118022 -0.00363617 -6.75503e-21)
(-0.00242974 -0.00344914 1.62082e-19)
(-0.00465744 -0.002673 -6.12748e-19)
(-0.0070939 -0.00136902 1.09023e-19)
(-0.00850402 0.000465336 -9.15136e-19)
(-0.00997388 0.00103458 9.31594e-19)
(-0.0110743 0.00608631 7.11492e-19)
(-0.0129671 0.0117627 -8.23176e-19)
(-0.0123168 0.0137161 -3.2615e-19)
(-0.00999457 0.0154084 7.52328e-19)
(-0.00551305 0.0173535 2.15826e-18)
(-0.00540006 0.0175376 -2.63326e-18)
(-0.00288652 0.011419 2.18223e-18)
(0.00214706 0.00993179 -1.08043e-18)
(0.00518742 0.0100335 -1.30751e-18)
(0.00905455 0.0107791 8.38252e-19)
(0.0113941 0.0107546 7.26942e-19)
(0.0145232 0.00886047 -9.2725e-19)
(0.0142455 0.00867499 -1.32768e-18)
(0.014291 0.00645501 1.49564e-18)
(0.0127126 0.0027097 4.07282e-20)
(0.0101128 0.00030883 6.41873e-20)
(0.00700669 -0.00186725 -1.76434e-19)
(0.00477844 -0.00274867 -2.58139e-20)
(0.00328688 -0.00270835 0)
(0.00217922 -0.00239739 0)
(0.00134654 -0.00197186 0)
(0.000727322 -0.00156814 0)
(0.000338601 -0.00119797 0)
(-4.80715e-05 -0.000685335 0)
(-0.000228934 -0.000667374 0)
(-0.000327627 -9.90162e-06 0)
(0.00115996 -0.000368504 0)
(0.000978065 -0.000884097 0)
(0.00080491 -0.00153552 0)
(0.000712755 -0.00181843 0)
(0.00050182 -0.00257579 0)
(0.000367101 -0.00324748 0)
(0.00022792 -0.00405296 0)
(-0.000210162 -0.00501501 -6.62326e-21)
(-0.00160789 -0.00533188 -2.72805e-21)
(-0.00405451 -0.0049535 8.41576e-20)
(-0.00634727 -0.00373022 -5.42231e-19)
(-0.00849284 -0.00405245 3.29434e-19)
(-0.00896033 -0.00378692 3.63595e-19)
(-0.0147149 -0.000327063 -8.55108e-19)
(-0.0122828 -0.00274644 1.21892e-18)
(-0.0123382 0.00188246 6.31258e-20)
(-0.009188 0.0173591 1.26431e-18)
(-0.0119137 0.0171989 -5.20589e-18)
(-0.00728776 0.0179612 9.86956e-21)
(-0.00489135 0.0182034 -1.34403e-18)
(-0.000999295 0.01148 -5.11651e-18)
(0.0028112 0.0123019 -1.41685e-18)
(0.00828783 0.0102606 -1.77169e-18)
(0.0115066 0.00718012 -4.66789e-19)
(0.0173926 0.0077749 7.88931e-19)
(0.0198505 0.00796688 -1.5103e-18)
(0.0175552 0.00563121 3.14093e-19)
(0.0196774 0.00374278 7.21073e-19)
(0.0157578 0.000983082 -9.19802e-19)
(0.0128054 -0.00120061 7.79928e-19)
(0.00848308 -0.00307411 -2.16339e-19)
(0.00476364 -0.00409824 -2.65042e-20)
(0.00228539 -0.00406334 -1.05311e-20)
(0.00104188 -0.00336126 0)
(0.000220458 -0.00277001 0)
(-0.000429023 -0.00225209 0)
(-0.000907447 -0.00185303 0)
(-0.000997246 -0.00138467 0)
(-0.00111862 -0.00052707 0)
(-0.00112034 -0.000526636 0)
(0.00169414 -0.000237763 0)
(0.00172087 -0.00108405 0)
(0.00158283 -0.00169873 0)
(0.00147034 -0.00259227 0)
(0.00134628 -0.003411 0)
(0.00107055 -0.00413359 0)
(0.000837845 -0.00528159 0)
(-0.000243948 -0.00625877 4.35192e-21)
(-0.00336555 -0.00607085 -1.30079e-19)
(-0.00636194 -0.00548385 3.82861e-19)
(-0.00833542 -0.0062773 -5.76278e-19)
(-0.00983711 -0.00329296 8.25765e-19)
(-0.00989068 -0.0127497 -1.48777e-19)
(-0.00790636 -0.0128691 2.01398e-19)
(-0.0142505 0.00100631 -4.4626e-19)
(-0.0161899 0.00162837 -1.63647e-18)
(-0.0205607 -0.00356219 4.69616e-19)
(-0.0142419 0.0126654 1.47794e-18)
(-0.0106528 0.0154339 3.81354e-19)
(-0.00780552 0.0191674 -4.26539e-19)
(-0.000254075 0.014641 -2.44922e-18)
(0.00320094 0.0145393 1.35637e-17)
(0.0100084 0.0122584 -5.30878e-18)
(0.0129871 0.0101289 2.75408e-18)
(0.0162588 0.0111926 -1.14358e-20)
(0.0198688 0.00477983 -2.00304e-18)
(0.0231501 -0.00387034 5.24017e-19)
(0.0211053 0.00369408 -5.94572e-19)
(0.017248 -0.00281637 5.78764e-19)
(0.0135141 -0.00212785 -5.45129e-19)
(0.00892825 -0.00349952 2.33396e-19)
(0.00459338 -0.00431757 8.16332e-21)
(0.00082846 -0.00466089 -3.7468e-20)
(-0.00083511 -0.00380723 0)
(-0.00133566 -0.00277288 0)
(-0.00148374 -0.00199791 0)
(-0.00163025 -0.00109407 0)
(-0.00189173 -0.000868812 0)
(-0.00190484 -0.000525358 0)
(-0.00193665 3.1703e-05 0)
(0.00219817 -0.000322785 0)
(0.0021707 -0.000640754 0)
(0.00220613 -0.00148501 0)
(0.0021752 -0.00225203 0)
(0.00218162 -0.00296471 0)
(0.00209024 -0.00407278 0)
(0.00165572 -0.00544058 9.18445e-21)
(-0.00110066 -0.00606813 -8.3299e-20)
(-0.00540921 -0.00616929 -6.4067e-20)
(-0.00899863 -0.00561492 6.04248e-20)
(-0.0120323 -0.00548243 -9.85804e-20)
(-0.0146403 -0.00509132 3.9797e-19)
(-0.0194127 -0.0146699 -4.65288e-19)
(-0.0229125 -0.0142003 3.36476e-19)
(-0.0164423 -0.000540912 -7.77291e-19)
(-0.0254801 -0.00457445 3.49631e-19)
(-0.0163041 0.00508434 -2.76043e-19)
(-0.0196227 -0.00226616 1.90689e-18)
(-0.0187612 0.0219946 -1.47018e-18)
(-0.0123555 0.0260587 1.53313e-18)
(-0.00150723 0.0252501 1.26202e-18)
(0.0111683 0.0262959 -5.90061e-18)
(0.016433 0.0160465 5.12719e-18)
(0.0185817 0.0152946 1.42733e-19)
(0.0275877 -0.00199928 1.09835e-19)
(0.0246324 0.000811041 3.03251e-19)
(0.0183798 -0.00321843 -2.52009e-19)
(0.0175792 0.000895303 -3.26989e-19)
(0.0150688 -0.00387341 3.19394e-19)
(0.0111695 -0.00389821 3.21526e-19)
(0.00762513 -0.00427006 -1.26073e-19)
(0.004009 -0.00417958 -4.32397e-20)
(0.000101227 -0.00443524 -4.0074e-20)
(-0.00261333 -0.00410095 -2.38164e-20)
(-0.00284325 -0.00301158 0)
(-0.00296779 -0.00214891 0)
(-0.00300689 -0.00159803 0)
(-0.00288419 -0.00043968 0)
(-0.00295696 -0.000812224 0)
(-0.00292671 3.83251e-05 0)
(0.00303961 -0.000445921 0)
(0.00290873 -0.0017079 0)
(0.00290058 -0.00206202 0)
(0.00272565 -0.00284945 0)
(0.00250192 -0.00370422 0)
(0.00263777 -0.00488318 0)
(0.00201634 -0.00606607 -2.36653e-20)
(-0.00187392 -0.00652152 1.90086e-20)
(-0.00661489 -0.00646586 2.27101e-20)
(-0.0108788 -0.00685707 3.94187e-20)
(-0.0152554 -0.00681422 8.54244e-20)
(-0.0204577 -0.00792528 -3.5702e-19)
(-0.0235865 -0.0113528 2.63902e-19)
(-0.0130253 -0.0143327 -3.79857e-20)
(-0.0211626 -0.00123939 1.4799e-19)
(-0.0212978 -0.0225588 -4.55525e-19)
(-0.0253949 0.00195857 -3.01928e-20)
(-0.0368987 0.00838217 -1.34169e-18)
(-0.0297363 0.0178718 8.0768e-19)
(-0.0221451 0.0396854 -1.30606e-18)
(0.000869165 0.0437827 3.95073e-19)
(0.0215064 0.0332382 -3.70466e-19)
(0.0343728 0.0201608 5.05684e-19)
(0.0253324 0.00583465 -1.52859e-18)
(0.0278167 -0.00246021 1.1139e-19)
(0.0248661 0.00567433 1.6051e-18)
(0.0259359 -0.0111752 1.56629e-19)
(0.00928872 -0.00129608 1.59868e-19)
(0.00885123 -0.00348142 -3.90389e-19)
(0.00794003 -0.00344714 2.79094e-19)
(0.00560799 -0.00360701 -1.40973e-19)
(0.00252317 -0.00384906 1.15129e-19)
(-0.00108468 -0.00382124 -4.6935e-20)
(-0.00452473 -0.00342909 1.54448e-20)
(-0.00520663 -0.00273309 0)
(-0.00498235 -0.00213999 0)
(-0.00466862 -0.00199011 0)
(-0.0040912 -0.00183792 0)
(-0.00348106 -0.000311106 0)
(-0.00356936 -0.000714224 0)
(0.00266724 0.000509561 0)
(0.00325313 -0.000905907 0)
(0.00354953 -0.00156799 0)
(0.0042803 -0.00249673 0)
(0.00470231 -0.00331607 0)
(0.00485145 -0.00444365 0)
(0.00303993 -0.00555025 4.18235e-21)
(-0.00166031 -0.00632575 7.71669e-21)
(-0.0072034 -0.00617438 -1.36264e-20)
(-0.0120745 -0.00683031 2.5975e-20)
(-0.0153786 -0.00962574 -6.61017e-20)
(-0.0195764 -0.0108793 7.55052e-20)
(-0.0195767 -0.00608578 -8.31184e-20)
(-0.0204298 -0.014053 8.29761e-21)
(-0.0345871 -0.0201059 -3.40555e-19)
(-0.0202037 -0.0173622 4.80954e-20)
(-0.0209224 -0.0226928 1.40419e-19)
(-0.0501649 -0.00839816 -4.22399e-20)
(-0.0724664 0.0135178 -8.75545e-20)
(-0.0606401 0.070053 -1.59191e-18)
(0.00412445 0.108159 -3.27587e-18)
(0.0646288 0.0605979 -6.65323e-20)
(0.0535063 0.00714397 1.30049e-19)
(0.0438698 -0.0107298 5.75853e-20)
(0.030256 -0.00299758 -3.24177e-20)
(0.00703886 -0.0144996 1.7756e-19)
(0.0088706 0.00204021 -2.23269e-20)
(0.00531361 -0.0157329 -4.44064e-21)
(0.00576466 -0.00256256 5.12976e-20)
(0.00651078 -0.00138363 1.91629e-20)
(0.00492907 -0.00135198 -3.11707e-20)
(0.00148078 -0.00189937 -6.647e-21)
(-0.00207468 -0.00226037 -1.53059e-20)
(-0.00529987 -0.00181866 4.64975e-21)
(-0.00555466 -0.000889633 0)
(-0.00448979 -0.000182131 0)
(-0.00384423 0.000670724 0)
(-0.00433439 0.000267941 0)
(-0.00502054 0.000319747 0)
(-0.00460677 0.00023648 0)
(0.00412124 -0.00351812 0)
(0.00364291 -0.000608025 0)
(0.00401168 -0.00282029 0)
(0.00400898 -0.00250738 0)
(0.00477068 -0.00293087 0)
(0.00541002 -0.00337946 0)
(0.00393628 -0.00424099 -1.36724e-21)
(-0.00115759 -0.00465034 1.19029e-21)
(-0.00566578 -0.00595018 -3.86931e-23)
(-0.0101461 -0.00645929 4.9779e-21)
(-0.0111994 -0.00992205 -4.71499e-21)
(-0.0132933 -0.0119457 -1.69644e-20)
(-0.00569326 -0.0141391 6.0468e-21)
(-0.0254877 -0.018365 5.37238e-20)
(-0.0163224 -0.0290498 -1.59441e-19)
(-0.0409293 -0.0310107 -3.20749e-19)
(-0.047034 -0.0406053 -8.11869e-20)
(-0.0626242 -0.0505566 -2.86165e-20)
(-0.19501 -0.00413169 2.84379e-18)
(0.148256 -0.0219273 4.31331e-19)
(0.0356847 -0.0521313 -9.44536e-21)
(0.0126887 -0.0515955 -1.9894e-20)
(0.00708832 -0.0361569 -1.28295e-20)
(-0.00215392 -0.0175066 1.52884e-19)
(0.00779872 -0.0167618 2.0686e-20)
(0.00602478 -0.00831281 1.70603e-20)
(0.00522262 -0.00258151 -2.28498e-20)
(0.0040664 -0.00054944 7.45862e-21)
(0.00236036 0.000496985 3.63404e-21)
(-0.00186781 0.00051702 9.83587e-22)
(-0.00665456 9.77439e-05 2.04524e-22)
(-0.00822024 0.000460741 0)
(-0.00733894 0.00112467 0)
(-0.00663407 0.00171443 0)
(-0.00522219 0.00249743 0)
(-0.00439869 0.000760342 0)
(-0.00475337 0.000360692 0)
(0.00588183 0.00419333 0)
(0.0058177 -0.00124923 0)
(0.00594798 0.000288743 0)
(0.00617311 3.35799e-05 0)
(0.00638698 -0.00094914 0)
(0.00720364 -0.00150787 0)
(0.00607528 -0.0028848 2.73936e-21)
(0.0014241 -0.00313689 6.38323e-21)
(-0.00135376 -0.005413 -3.06999e-20)
(-0.00300155 -0.00692644 4.8067e-20)
(-0.00163857 -0.00932116 -7.58094e-20)
(-0.00113432 -0.00860431 9.11509e-20)
(0.00268346 -0.0179254 -1.11961e-20)
(0.00400556 -0.0300168 -3.55688e-20)
(0.000868966 -0.0351772 7.23615e-20)
(0.00160819 -0.0534127 2.2301e-19)
(-0.00888246 -0.072234 -6.40132e-22)
(-0.0228971 -0.0959034 -3.67701e-20)
(0.0161329 -0.0943899 -3.89588e-17)
(-0.0250095 -0.0998823 -3.28382e-18)
(0.00209225 -0.0679268 -2.72656e-20)
(-0.00465189 -0.037875 2.01338e-20)
(-0.00268717 -0.0277103 1.92259e-19)
(-0.00120801 -0.0205811 -3.26484e-21)
(0.000266311 -0.0129134 -7.90563e-20)
(0.00263554 -0.00858546 6.01436e-20)
(0.00200255 -0.00366572 -5.68474e-20)
(0.00262365 -0.000549849 3.5718e-20)
(0.00105372 0.00233584 -2.52342e-21)
(-0.00119388 0.00351919 -1.54955e-21)
(-0.00551353 0.00278037 2.41499e-21)
(-0.00760705 0.00135896 0)
(-0.00678619 0.00015353 0)
(-0.00529386 -0.00150498 0)
(-0.00389321 -0.00145182 0)
(-0.00299786 -0.000328561 0)
(-0.00416701 -6.65788e-05 0)
(0.0043491 0.00165065 3.76886e-22)
(0.00492347 0.000230718 0)
(0.00444882 0.00251754 0)
(0.00596949 0.00145989 0)
(0.00751159 0.0011506 0)
(0.00959097 -4.05104e-06 0)
(0.0090816 -0.00105379 -6.58724e-21)
(0.00637673 -0.00269427 8.23119e-20)
(0.00499358 -0.00570734 4.05552e-20)
(0.00546245 -0.00893566 -1.53687e-19)
(0.00600232 -0.0183345 3.74941e-20)
(0.0156572 -0.0117127 -1.59689e-19)
(0.0177642 -0.00968513 2.53803e-19)
(0.0280736 -0.042048 3.79335e-19)
(0.0309806 -0.0463118 9.3265e-19)
(0.0127427 -0.0715705 -1.60973e-19)
(0.0141805 -0.0821273 -1.35506e-18)
(-0.0800924 -0.0630848 6.67538e-20)
(-0.0647905 0.0575481 -1.00838e-18)
(0.03908 -0.0207297 1.17097e-18)
(-0.00824065 -0.0311442 -8.78601e-20)
(-0.0290352 -0.0311994 -1.56742e-18)
(-0.014183 -0.0263628 1.41331e-18)
(-0.00298412 -0.0185204 -2.0984e-19)
(-0.000954571 0.0017875 2.23009e-20)
(-0.00274376 -0.000725034 3.98242e-19)
(-9.07027e-05 -0.00542223 2.79954e-19)
(-0.000391732 0.000165703 -1.94396e-19)
(-0.000524866 0.00319166 6.00516e-20)
(-0.000116276 0.00510263 2.10226e-20)
(-0.00338562 0.00569836 -1.09091e-20)
(-0.00370703 0.00524612 0)
(-0.00331368 0.00381462 0)
(-0.00317222 0.00207129 0)
(-0.00393822 -4.59122e-05 0)
(-0.00333065 -0.000711861 0)
(0.00382421 0.00234959 0)
(0.0043688 -0.00664068 -1.32294e-23)
(0.00367232 0.00320541 0)
(0.00628593 0.000531817 0)
(0.00842533 -0.000151391 0)
(0.0107468 0.000334083 0)
(0.0115185 0.000118963 0)
(0.0127417 -0.000291848 2.24235e-21)
(0.0121772 -0.000701171 -1.76685e-20)
(0.0116157 -0.0043324 3.83502e-23)
(0.0132703 -0.00787693 -2.65253e-20)
(0.018822 -0.00858373 -1.58626e-19)
(0.0248895 -0.00846509 7.55621e-19)
(0.0364453 -0.0278554 -9.07171e-19)
(0.0126184 0.000596448 4.66749e-19)
(0.0290345 -0.0453428 1.24193e-18)
(0.0535751 -0.0482422 -9.2391e-19)
(0.0413487 -0.102151 1.26159e-18)
(-0.175544 -0.111286 -2.25721e-18)
(0.111698 -0.14479 2.77967e-18)
(-0.401852 0.098429 1.34161e-18)
(0.159286 0.073987 3.07473e-20)
(-0.0166491 -0.048506 1.66857e-18)
(0.291632 0.0718627 -4.36136e-19)
(-0.00981209 -0.00756013 8.60733e-19)
(-0.0134778 -0.0229255 -1.80336e-18)
(0.00151344 -0.0342899 1.38981e-18)
(-0.0240234 0.0149812 1.06504e-18)
(-0.00646877 -0.0212789 -1.44649e-19)
(0.00289028 0.00132065 -1.63014e-20)
(0.00108637 0.00284063 -1.70031e-20)
(0.000983733 0.00160668 1.08734e-19)
(0.00131033 0.00475386 -6.87002e-20)
(-0.000789938 0.00679728 7.16182e-20)
(1.85187e-05 0.00739095 -9.71529e-21)
(-0.00416115 0.00798683 0)
(-0.000778944 0.0055721 0)
(0.000597406 0.00522768 0)
(-0.000418602 0.00311775 0)
(-0.00334051 -9.99426e-05 0)
(-0.00787659 -0.00202181 0)
(0.00148969 0.00435698 3.75992e-21)
(0.00590426 0.0016702 0)
(0.00767864 0.000921587 0)
(0.00766258 0.00403106 0)
(0.00803641 0.00429646 0)
(0.01086 0.00526309 0)
(0.0145294 0.00465485 1.95132e-22)
(0.0199241 0.00833094 -2.25608e-20)
(0.0245367 0.00635382 -6.25574e-20)
(0.0397696 0.00874447 1.1974e-19)
(0.041193 0.0153712 3.4176e-19)
(0.0341404 -0.000473535 -7.62848e-19)
(0.0516489 0.0168825 6.70446e-19)
(0.00731097 -0.0368594 -1.79824e-18)
(0.0448564 -0.0158449 -6.94173e-19)
(0.164495 -0.0214062 7.42174e-19)
(0.0594846 -0.102952 -6.39703e-19)
(-0.1157 -0.10182 -9.08014e-18)
(0.230568 -0.503124 -2.28652e-18)
(-0.103931 0.0703747 -2.17035e-17)
(-0.9309 -0.110342 -1.42345e-18)
(-1.23183 -0.908536 -4.49535e-19)
(0.0502403 0.0411313 -2.83885e-18)
(0.021262 -0.153683 1.30575e-18)
(0.00243192 -0.00640615 -3.01461e-18)
(-0.0199127 0.00201173 -1.09373e-18)
(0.0486508 -0.0117291 -1.57898e-18)
(-0.0195445 0.0125866 8.13994e-19)
(0.00381963 -0.0154396 4.79641e-19)
(-0.0106013 0.00870097 -1.66134e-19)
(-0.00785638 0.00563814 -2.77118e-19)
(-0.000506527 0.00968992 1.87278e-19)
(-0.00294886 0.0100842 2.16192e-20)
(-0.00106188 0.0054813 4.75428e-22)
(0.00238363 0.00255486 0)
(-3.68613e-05 0.00363868 0)
(-0.00321461 0.00350903 0)
(-0.00214778 0.00380064 0)
(-0.00129758 0.00368262 0)
(-0.00347017 -0.00374611 -2.35703e-20)
(0.0115537 0.00124378 1.54164e-20)
(0.00859119 0.00057348 0)
(0.0071822 0.00531161 0)
(0.00742991 0.00711096 0)
(0.00686184 0.00660602 0)
(0.00842776 0.00587756 0)
(0.013096 0.00940446 0)
(0.0206511 0.00935535 -2.59206e-21)
(0.0154328 0.0158154 -2.82856e-20)
(0.0247611 0.0237244 1.99406e-20)
(0.0284123 0.0311915 1.66026e-19)
(0.0352839 0.0378602 -3.68773e-20)
(0.0151483 0.0086454 4.67125e-20)
(0.0982224 0.0649492 1.74358e-19)
(0.12479 0.033939 -2.76668e-19)
(0.0567788 -0.0299496 1.0141e-18)
(0.209734 -0.019175 -2.01887e-19)
(1.11234 -0.0406404 5.49965e-18)
(-0.368178 -0.557901 -6.65669e-19)
(0.602729 -0.575099 -1.07579e-17)
(0.480241 0.211849 -3.4982e-18)
(0.756903 0.791361 -5.94507e-18)
(-0.601074 -0.440911 -2.31376e-18)
(0.1577 -0.196273 2.66543e-18)
(-0.0488527 -0.0206942 1.58804e-18)
(-0.0425407 -0.0357847 9.86901e-19)
(-0.0141366 0.0603907 3.72964e-19)
(0.00921002 -0.0257194 7.72434e-20)
(-0.0104775 0.0337456 -2.50596e-19)
(-0.00635824 0.0158667 -1.14796e-19)
(0.00287986 0.0143433 -6.19908e-21)
(0.00699872 0.00727277 6.36649e-20)
(0.00159639 0.0102072 4.90071e-22)
(0.00373138 0.0113378 0)
(0.00382811 0.00475069 0)
(0.00261415 0.0022783 0)
(0.00551173 0.000390911 0)
(0.00700982 -0.00184392 0)
(0.00801614 -5.41736e-05 0)
(0.000179684 0.00551256 4.24387e-20)
(0.00417516 -0.00178315 2.20893e-21)
(0.00488354 -0.000358006 0)
(0.00566171 0.00207293 0)
(0.00607765 0.0048997 0)
(0.00769034 0.00892002 0)
(0.00709444 0.0104272 0)
(0.00794413 0.0168488 0)
(0.0107721 0.017885 0)
(0.0195314 0.0139332 8.67439e-21)
(0.00662111 0.00851035 -9.4167e-21)
(0.00752868 0.0132683 -6.89798e-20)
(0.0303582 0.0144604 -1.09765e-19)
(0.0381417 0.0190806 3.64405e-20)
(0.065307 0.0657128 8.88326e-20)
(0.0878045 0.0767537 -1.99584e-19)
(0.109819 0.0339267 -1.39467e-18)
(0.100732 0.0418682 9.4206e-19)
(0.358365 0.789394 3.20989e-19)
(1.49206 -0.908137 -6.61639e-18)
(-0.833667 0.0944901 5.33383e-18)
(-0.989458 -2.6047 -7.08069e-18)
(0.648108 1.14605 4.16063e-18)
(-0.302049 -0.744816 -3.04432e-19)
(-0.725297 0.345202 1.81427e-17)
(-0.125172 0.0806245 1.75635e-18)
(-0.0240154 0.00142035 3.25875e-19)
(-0.00816756 0.0269405 2.24159e-19)
(-0.00898192 0.00997263 -1.76039e-19)
(-0.0113034 0.0214015 -2.70891e-19)
(0.0104495 0.00817777 1.1066e-19)
(0.00699516 -0.00120647 1.63309e-20)
(-0.000920906 0.00883799 -1.38187e-21)
(0.00362147 0.0115082 0)
(0.00801239 0.0072036 0)
(0.00928694 0.000426511 0)
(0.00975968 -0.00146355 0)
(0.0095504 -0.00366627 -3.84412e-20)
(0.00771351 -0.00205654 -5.31617e-20)
(0.00622293 0.00106054 -3.17008e-20)
(0.0104286 0.00369061 0)
(0.00873293 -0.00318509 0)
(0.00499917 0.00189045 0)
(0.00439575 0.00418287 0)
(0.00395886 0.00536919 0)
(0.0033262 0.00957947 0)
(0.00357832 0.0145493 0)
(0.00421863 0.0121033 0)
(0.000446483 0.0170685 0)
(0.0125457 0.025275 5.18651e-24)
(0.0160573 0.0248597 4.00113e-21)
(0.0257204 0.0211906 -2.7139e-21)
(0.0375339 0.0306224 -1.24797e-19)
(0.046795 0.04637 1.38263e-19)
(0.0352478 0.0875544 4.61054e-20)
(0.0974317 0.0717534 -5.67281e-18)
(0.0379055 0.0367441 6.2513e-19)
(-0.0337122 -0.0766451 -9.41722e-19)
(-0.543369 -0.28643 6.87353e-19)
(0.724823 0.920443 -7.44814e-20)
(-0.360374 1.30005 9.21985e-19)
(-0.312746 -0.22795 -1.51287e-18)
(0.656523 0.590193 -5.49738e-18)
(-0.93665 0.342591 -3.90205e-18)
(-0.0747203 -0.00514149 4.91259e-18)
(0.309558 0.00111344 -1.19268e-18)
(0.0256751 -0.00067034 8.19474e-19)
(-0.0356955 0.0676362 2.14705e-19)
(-0.00426871 0.029264 -6.46825e-20)
(-0.00708319 0.0256472 5.61229e-20)
(0.000746291 0.0127198 5.58952e-21)
(0.00176542 0.0216462 6.74338e-21)
(0.00265141 0.0171895 -7.30873e-23)
(0.0125162 0.00631894 0)
(0.0080955 0.00111847 0)
(0.00806045 0.00587581 0)
(0.0067524 0.00625093 0)
(0.00477465 0.00641973 0)
(0.00442169 0.00498411 0)
(0.00494977 0.00242462 0)
(0.00807635 -0.00112117 5.70936e-21)
(0.00773176 0.00582503 0)
(0.000649604 0.00516301 0)
(-0.00303684 0.00519019 0)
(-0.00421497 0.00585859 0)
(-0.00354508 0.00752991 0)
(-0.00184744 0.0121907 0)
(0.00198406 0.0156196 0)
(0.00495659 0.0160818 0)
(0.00460346 0.020004 0)
(0.00236101 0.0335896 0)
(-0.000509963 0.0332177 9.75562e-21)
(-0.0082986 0.0569888 3.65909e-20)
(0.00272341 0.0933983 -1.93687e-20)
(0.0421239 0.148964 -6.84519e-20)
(0.0415095 0.168454 -1.34835e-17)
(0.436983 -0.010993 -1.65925e-21)
(0.109248 0.0064175 -5.2057e-18)
(-0.456271 -0.0711871 6.75458e-19)
(-1.30493 -0.792213 1.99146e-19)
(0.917206 2.20491 -1.9618e-17)
(0.188922 1.82666 3.37457e-18)
(-0.44114 1.68468 -1.1187e-17)
(0.317184 -0.595168 -1.40605e-18)
(0.425021 0.470276 7.01693e-19)
(0.176856 -0.106675 2.87136e-18)
(-0.196999 0.107229 5.18506e-19)
(0.0033086 0.109506 2.31371e-20)
(0.0217313 0.0539402 1.6097e-20)
(0.0259069 0.0255641 -7.0949e-20)
(0.0185073 0.0225187 -4.85816e-21)
(0.0147277 0.0153422 0)
(0.0137194 0.00208736 0)
(0.0141731 -0.0017358 0)
(0.00792041 0.00266252 0)
(0.00927478 0.00485586 0)
(0.00935598 0.00393306 0)
(0.00840655 0.00345234 0)
(0.00756959 0.00150721 0)
(0.00583221 -0.0001527 0)
(0.00448951 -0.000483285 0)
(-0.0119899 0.00505181 0)
(-0.00513412 0.00298212 0)
(-0.00288038 0.00246258 0)
(-0.00320287 0.000917687 0)
(-0.00547881 0.00111442 0)
(-0.00776305 0.00285731 0)
(-0.00836995 0.00793369 0)
(-0.00551127 0.0157757 0)
(-0.0109814 0.0224831 0)
(-0.0154484 0.0307172 0)
(-0.0239788 0.0511437 0)
(-0.0308727 0.0744467 1.10436e-21)
(-0.072601 0.08067 3.38863e-21)
(-0.0866925 0.135737 5.708e-21)
(0.0853538 0.234112 -4.41862e-18)
(0.600287 0.521954 3.8535e-19)
(-0.721662 0.322354 -4.52835e-18)
(0.443627 0.287307 -6.96491e-19)
(0.0583499 -0.154627 -1.17939e-18)
(0.154113 -0.50836 -6.43329e-19)
(-0.282802 -1.39826 -6.85912e-18)
(-0.431005 0.593348 4.54552e-18)
(0.0224354 -0.0307021 -2.16685e-19)
(-0.127443 -0.48431 5.93751e-19)
(-0.205075 -0.351677 -1.46494e-19)
(-0.136063 0.210626 -1.42217e-18)
(0.0717236 0.0358726 4.74448e-19)
(0.0466423 0.0319662 2.329e-20)
(0.0400412 0.0229871 -1.34854e-21)
(0.0308917 0.0113263 0)
(0.0247142 -0.0015471 0)
(0.0151026 -0.00325805 0)
(0.00460454 -0.000236277 0)
(0.00631137 0.00141013 0)
(0.00765542 -0.00124643 0)
(0.00621625 -0.000916575 0)
(0.00395344 0.000441629 0)
(0.00317168 0.00296447 0)
(0.00610493 0.00383107 0)
(0.00712959 0.00200012 0)
(-0.00550134 -0.00716966 0)
(-0.0018374 -0.00564798 0)
(-0.00112099 -0.00507929 0)
(-0.00222672 -0.00591269 0)
(-0.00589189 -0.00683029 0)
(-0.0114818 -0.00753722 0)
(-0.0180801 -0.00772392 0)
(-0.0211759 -0.00268607 0)
(-0.0259219 0.00665623 0)
(-0.0317664 0.00908928 0)
(-0.0492375 0.0244367 -5.96773e-20)
(-0.0571192 0.011941 0)
(-0.114889 0.057236 0)
(-0.184003 -0.0231328 -5.69738e-20)
(-0.229778 0.15827 5.24578e-19)
(0.452768 0.408111 -7.39644e-18)
(1.1717 0.584786 8.68747e-20)
(-0.309895 -0.10334 1.40011e-18)
(-1.54588 0.895046 3.76708e-18)
(-1.09578 2.05763 1.34957e-17)
(-0.156904 1.52967 -1.04662e-18)
(1.26319 1.17582 3.0729e-18)
(1.23675 -0.353759 1.69946e-18)
(-0.870819 0.563172 -3.24553e-19)
(-0.517128 0.954356 -1.85363e-19)
(0.335468 0.129942 -8.55235e-19)
(0.1995 0.0659924 -8.48506e-19)
(0.0965847 -0.00116063 0)
(0.0491121 -0.00854025 0)
(0.0356066 -0.00597048 -3.10422e-20)
(0.0216856 -0.00221447 0)
(0.0140786 0.00065483 0)
(0.0113627 -0.000779864 0)
(0.0132944 -0.00411985 0)
(0.00859292 -0.00459185 0)
(0.00621305 -0.00465641 0)
(0.00554971 -0.00527697 0)
(0.00661638 -0.00661723 6.32674e-21)
(0.00736223 -0.00689756 4.53888e-21)
(0.00830998 -0.00609438 0)
(0.00597814 -0.00241466 0)
(0.00326625 -0.00477561 0)
(0.00106019 -0.0087054 0)
(-0.00138275 -0.00850364 0)
(-0.00338462 -0.00840606 0)
(-0.00647435 -0.0096245 0)
(-0.0127358 -0.0124055 0)
(-0.020608 -0.0168321 0)
(-0.0261457 -0.0179313 0)
(-0.0323889 -0.0180644 0)
(-0.0430294 -0.0104147 2.44904e-20)
(-0.0563329 -0.0181963 0)
(-0.0407145 -0.0121918 0)
(-0.105717 0.0138462 -1.90018e-19)
(-0.629033 -0.163889 1.59459e-18)
(-0.380578 0.0276057 -1.16986e-18)
(0.374037 0.454631 0)
(-0.623012 0.179658 -9.99003e-19)
(-0.692113 0.222591 -1.0772e-18)
(-0.477845 -0.986416 -5.6681e-18)
(1.0559 -0.385585 7.20879e-18)
(0.633273 -0.399531 -6.34634e-18)
(0.0270669 -0.26604 1.23665e-19)
(-1.12655 -0.041427 0)
(0.404575 0.0512777 1.31943e-18)
(0.612023 -0.14257 -2.17422e-18)
(0.159655 -0.0959323 1.06686e-19)
(0.0797145 -0.0694538 0)
(0.0504555 -0.0417997 0)
(0.0318623 -0.0257487 -3.34259e-20)
(0.0190521 -0.0214477 0)
(0.0151535 -0.016294 0)
(0.0140587 -0.0138991 0)
(0.0117829 -0.0122887 0)
(0.00917825 -0.00758531 0)