/*--------------------------------*- C++ -*----------------------------------*\
| =========                 |                                                 |
| \\      /  F ield         | OpenFOAM: The Open Source CFD Toolbox           |
|  \\    /   O peration     | Version:  v2106                                 |
|   \\  /    A nd           | Website:  www.openfoam.com                      |
|    \\/     M anipulation  |                                                 |
\*---------------------------------------------------------------------------*/
FoamFile
{
    version     2.0;
    format      ascii;
    arch        "LSB;label=32;scalar=64";
    class       volScalarField;
    location    "0";
    object      p;
}
// * * * * * * * * * * * * * * * * * * * * * * * * * * * * * * * * * * * * * //

dimensions      [0 2 -2 0 0 0 0];

internalField   nonuniform List<scalar> 
11644
(
0.0566048
0.057013
0.0578712
0.05919
0.0609677
0.0632043
0.0659001
0.0690492
0.0726319
0.0766103
0.080925
0.0854861
0.0901691
0.0948118
0.0992182
0.103205
0.106541
0.109007
0.110425
0.110696
0.109855
0.107938
0.104946
0.100957
0.0962243
0.091037
0.085616
0.0801423
0.0748015
0.0697367
0.0650457
0.0607981
0.0570349
0.053771
0.0510076
0.0487365
0.0469459
0.0456246
0.0447675
0.0443586
0.0558794
0.056283
0.0571192
0.0584059
0.0601515
0.0623629
0.0650468
0.068204
0.0718239
0.07588
0.0803267
0.0850804
0.0900193
0.0949955
0.0998003
0.104175
0.107896
0.110699
0.112384
0.112802
0.111893
0.109711
0.106421
0.102148
0.0970564
0.0914337
0.0856066
0.0798071
0.0742044
0.0689579
0.0641635
0.0598673
0.0560933
0.0528458
0.0501149
0.047886
0.0461401
0.04486
0.0440292
0.043627
0.0543285
0.0547409
0.0555632
0.0568099
0.0585043
0.0606685
0.0633202
0.0664756
0.0701466
0.0743361
0.0790204
0.0841574
0.0896578
0.0953425
0.100984
0.10629
0.110917
0.114562
0.116903
0.117657
0.116618
0.113864
0.109701
0.104471
0.0984712
0.0919778
0.0853314
0.0788735
0.0728098
0.067258
0.0622852
0.0579204
0.0541511
0.0509549
0.048301
0.0461573
0.0444911
0.043272
0.0424716
0.0420737
0.0519785
0.0523817
0.05318
0.0543771
0.0560008
0.0580877
0.0606755
0.0638048
0.0675196
0.0718616
0.0768735
0.0825627
0.0888428
0.0955993
0.102612
0.109456
0.115656
0.120881
0.124416
0.125732
0.124562
0.120967
0.115348
0.108284
0.100538
0.0924962
0.0845681
0.0771164
0.0703675
0.0644235
0.0592676
0.054858
0.0511459
0.0480645
0.0455506
0.0435456
0.0419999
0.0408707
0.0401239
0.0397476
0.0488872
0.0492599
0.0499988
0.0511107
0.0526249
0.0545863
0.0570523
0.0600936
0.0637957
0.0682564
0.0735701
0.0797932
0.0869976
0.095138
0.104063
0.113278
0.121954
0.129995
0.13563
0.138017
0.136682
0.131675
0.123656
0.113668
0.103232
0.092718
0.0828593
0.0740756
0.0664958
0.0601277
0.0548662
0.0505365
0.0470008
0.0441453
0.0418657
0.0400772
0.0387132
0.0377209
0.0370683
0.0367408
0.0451285
0.0454467
0.0460841
0.0470577
0.0483975
0.050153
0.0523959
0.0552244
0.0587665
0.0631541
0.0685284
0.0751234
0.0831739
0.0929176
0.104499
0.117356
0.13007
0.142493
0.151868
0.156489
0.154952
0.147316
0.135119
0.120228
0.105619
0.0916049
0.0792132
0.0689091
0.0606014
0.0539859
0.0488036
0.0447769
0.0416356
0.0391782
0.0372708
0.0358083
0.0347126
0.033929
0.033417
0.033165
0.0408042
0.0410431
0.0415356
0.0422964
0.0433669
0.0447978
0.0466663
0.049082
0.0521864
0.0561406
0.061223
0.0677784
0.0762414
0.0873435
0.101902
0.119422
0.13306
0.150388
0.165746
0.175679
0.176668
0.167772
0.151499
0.13176
0.105887
0.0869267
0.0716512
0.060126
0.0517445
0.0454774
0.0408503
0.0374712
0.0350196
0.0332052
0.0318542
0.0308548
0.0301254
0.0296148
0.0292883
0.0291231
0.0360086
0.0361674
0.0364729
0.0369563
0.0376462
0.0385974
0.039883
0.0416135
0.0439101
0.0469748
0.0511578
0.0569453
0.0648312
0.0759219
0.0911845
0.110421
0.136882
0.16599
0.194373
0.214129
0.217069
0.201117
0.172154
0.139538
0.108157
0.0831933
0.0656339
0.0462962
0.0389776
0.0340671
0.0308216
0.028656
0.0272597
0.0263677
0.0257714
0.0253751
0.0251145
0.0249428
0.024842
0.0247979
0.030946
0.0309725
0.0310471
0.0311774
0.0313802
0.0316975
0.0321823
0.0329194
0.0339908
0.03561
0.0380523
0.0416942
0.0471524
0.0603836
0.0744015
0.0967156
0.126285
0.171071
0.220803
0.264345
0.277984
0.251225
0.199692
0.145023
0.100635
0.0643237
0.04584
0.0259096
0.0218452
0.0196772
0.018747
0.018496
0.0185998
0.0189111
0.0192649
0.019601
0.0198947
0.0201281
0.0202809
0.0203512
0.0257585
0.0256684
0.0254864
0.0251984
0.0248276
0.0243738
0.0238641
0.0233118
0.0227204
0.0222032
0.0219059
0.0219843
0.0223202
0.0324444
0.0403209
0.0611876
0.0932734
0.148661
0.23751
0.343997
0.392004
0.330125
0.216514
0.124201
0.0605306
0.0216184
0.0110149
-0.0010584
0.000737009
0.00283768
0.00519684
0.00746608
0.00947479
0.0112264
0.0126752
0.0138308
0.0147202
0.0153694
0.01579
0.0160031
0.0206726
0.0204644
0.0199979
0.0192899
0.0183024
0.0170011
0.0153569
0.0132869
0.0106873
0.00742802
0.0033264
-0.00163518
-0.00791788
-0.00695136
-0.0110096
-0.00879033
0.00112957
0.0268108
0.127191
0.37611
0.585856
0.370427
0.115298
0.000406712
-0.0382838
-0.0469573
-0.0374106
-0.0329386
-0.0230553
-0.0150636
-0.00864452
-0.00351481
0.000584147
0.00384455
0.00641152
0.00839701
0.00989541
0.0109577
0.0116423
0.0119587
0.0160677
0.0156738
0.0149212
0.0137652
0.0121544
0.0100138
0.00720935
0.00356298
-0.00114909
-0.00728967
-0.0154429
-0.0262069
-0.0404535
-0.0465636
-0.0715811
-0.0949508
-0.141741
-0.246231
-0.528823
-0.517175
-0.282185
-0.182862
-0.128763
-0.0896031
-0.0647047
-0.0454372
-0.0314238
-0.0210495
-0.0132022
-0.0071971
-0.00258858
0.000966999
0.00367473
0.00569475
0.00711867
0.00802583
0.00846473
0.0120196
0.0115265
0.0105424
0.00899841
0.00683299
0.00392973
9.26404e-05
-0.00493659
-0.0114929
-0.0200987
-0.0315345
-0.0469704
-0.0676317
-0.0828626
-0.120939
-0.163204
-0.23958
-0.388627
-0.54851
-0.686158
-0.478101
-0.292308
-0.188862
-0.129521
-0.0853408
-0.0606097
-0.0429161
-0.0298934
-0.0202085
-0.0129305
-0.00741388
-0.00318987
1.03501e-05
0.00237185
0.00404855
0.00512783
0.00571293
0.00871288
0.00813459
0.00695782
0.00514809
0.00259101
-0.000843412
-0.00538221
-0.0113254
-0.01903
-0.0291492
-0.0424652
-0.0602722
-0.0836971
-0.10498
-0.146161
-0.191802
-0.258155
-0.342776
-0.367665
-0.588171
-0.482595
-0.31054
-0.197088
-0.138188
-0.0882644
-0.0645836
-0.0467807
-0.0334337
-0.0234412
-0.0158752
-0.0101212
-0.0057098
-0.00233717
0.000158751
0.00194114
0.00310133
0.00359709
0.00617938
0.00558569
0.00434504
0.00242137
-0.000286639
-0.00391552
-0.00867756
-0.014859
-0.0228549
-0.0332679
-0.0469024
-0.0647838
-0.0878772
-0.1113
-0.152166
-0.199728
-0.263885
-0.337279
-0.339237
-0.406176
-0.456956
-0.56233
-0.601904
-0.411337
-0.245107
-0.153676
-0.113622
-0.0745542
-0.0568345
-0.0425519
-0.0313116
-0.0226111
-0.0158043
-0.010528
-0.00643577
-0.00328441
-0.000944615
0.000723884
0.0018038
0.00233926
0.00461664
0.00410894
0.00294952
0.0011026
-0.0015037
-0.00497139
-0.00944609
-0.0151985
-0.0225898
-0.0321011
-0.0443161
-0.060163
-0.0808258
-0.104554
-0.143399
-0.199449
-0.276267
-0.411977
-0.54536
-0.650376
-0.629042
-0.479013
-0.279017
-0.139337
-0.104769
-0.0760017
-0.0671621
-0.0473763
-0.0391497
-0.0315117
-0.024458
-0.0182913
-0.0131021
-0.00886143
-0.00544133
-0.00278718
-0.000813352
0.000588054
0.00150698
0.00205662
0.00433976
0.0038562
0.00284386
0.00126618
-0.000952169
-0.00388707
-0.0076414
-0.0124357
-0.0184786
-0.0260276
-0.0355642
-0.0480059
-0.0642162
-0.0864826
-0.118728
-0.168043
-0.242745
-0.378709
-0.595374
-0.749451
-0.707546
-0.400606
-0.0426694
0.0789516
0.0334853
-0.000710695
-0.0134949
-0.0165292
-0.0179362
-0.0169294
-0.0144721
-0.0114532
-0.00839736
-0.00550592
-0.00301683
-0.0010147
0.000558325
0.00171765
0.00245427
0.00263248
0.00522648
0.00480589
0.00401079
0.00281024
0.00114655
-0.00101855
-0.00372089
-0.00706194
-0.0111696
-0.0161459
-0.0222736
-0.0302362
-0.0407702
-0.0546248
-0.0821576
-0.112755
-0.165828
-0.241353
-0.363222
-0.487801
-0.481094
-0.27184
-0.0130556
0.119711
0.0737587
0.0345033
0.0125888
0.00303612
-0.00232557
-0.00431449
-0.00469551
-0.00402979
-0.00271115
-0.00113756
0.000356723
0.00164534
0.0027146
0.00349333
0.00396278
0.0041425
0.00697692
0.00670532
0.00619156
0.00542089
0.00439701
0.00312038
0.00162763
-1.93041e-05
-0.00189484
-0.00407511
-0.00662605
-0.00974482
-0.0142867
-0.0200607
-0.0385402
-0.0531838
-0.0864396
-0.12599
-0.180896
-0.236379
-0.245146
-0.175544
-0.0552955
0.0273569
0.0225992
0.0199678
0.0130896
0.00667661
0.00426627
0.00291278
0.00222446
0.00223319
0.00268516
0.00334
0.00402246
0.00466207
0.00520943
0.00561355
0.0059093
0.00613177
0.00928292
0.00917019
0.00893086
0.00858687
0.00818752
0.00777154
0.00741113
0.00723821
0.00731182
0.00767723
0.00838192
0.00950946
0.0108205
0.0113109
0.00121668
-0.00632256
-0.0278654
-0.0608975
-0.118955
-0.191928
-0.245926
-0.242198
-0.185278
-0.116451
-0.0563932
-0.0172598
-0.00105709
0.00210192
0.00495089
0.0060949
0.00658035
0.0069079
0.00712735
0.00729259
0.00750238
0.00773834
0.00796286
0.00816333
0.00834746
0.00848431
0.0118138
0.0117836
0.0117672
0.0118053
0.0119382
0.012241
0.0127797
0.0136633
0.0151106
0.0173715
0.0205749
0.0248308
0.0303923
0.035087
0.0299514
0.0269091
0.00889761
-0.0332758
-0.119666
-0.244222
-0.346792
-0.371847
-0.320046
-0.219401
-0.102703
-0.0416318
-0.012048
-0.00112723
0.00529039
0.00847782
0.0098971
0.0105639
0.0107699
0.010809
0.0108345
0.01087
0.0109157
0.0109675
0.0110173
0.0110432
0.0142784
0.0143311
0.0144994
0.014819
0.0153347
0.016144
0.0173329
0.0189925
0.0213507
0.0247321
0.0293308
0.0353528
0.0437119
0.0513625
0.0547282
0.0464614
0.0191899
-0.0416511
-0.144406
-0.269702
-0.350804
-0.347881
-0.276357
-0.172554
-0.0857195
-0.0286663
-0.00936608
0.00272531
0.00891286
0.0121204
0.0135808
0.0142015
0.0143569
0.0143097
0.0141659
0.0140025
0.0138656
0.0137588
0.0136878
0.0136586
0.0164937
0.0166508
0.0169543
0.0174533
0.0181956
0.0192707
0.0207961
0.0228781
0.0256629
0.0293555
0.0341146
0.0399064
0.0478784
0.056477
0.0525353
0.0342374
-0.00288405
-0.0561723
-0.111694
-0.150458
-0.158216
-0.138516
-0.102757
-0.0606915
-0.0308175
-0.0106798
0.00342174
0.011511
0.0155699
0.0175094
0.0182329
0.0183415
0.0181455
0.0178051
0.0173971
0.0170032
0.0166674
0.0163996
0.0162146
0.0161448
0.0183657
0.0185631
0.018939
0.0195211
0.0203417
0.0214568
0.0229449
0.0249019
0.0274102
0.0305407
0.0343511
0.0380263
0.0416597
0.0438382
0.0341598
0.010581
-0.0282378
-0.0741288
-0.108824
-0.119478
-0.108166
-0.0830681
-0.0511376
-0.0217288
-0.00337964
0.00863191
0.0165889
0.0209333
0.0229593
0.0234948
0.0232245
0.0225564
0.0217557
0.0209694
0.0202625
0.0196642
0.019182
0.0188102
0.0185432
0.0183928
0.0199486
0.0201391
0.0205004
0.021046
0.0217831
0.0227391
0.023914
0.0252922
0.0269446
0.028618
0.0302005
0.0304455
0.0276996
0.0196793
0.000406163
-0.0298592
-0.0655373
-0.103475
-0.128598
-0.131378
-0.113995
-0.0786257
-0.0410986
-0.012129
0.00675196
0.0189099
0.0255238
0.0285978
0.029383
0.0288337
0.0276801
0.0262764
0.0248821
0.0236558
0.0226561
0.0218701
0.0212692
0.0208375
0.0205486
0.0203449
0.021265
0.0214314
0.0217287
0.0221656
0.0227341
0.0234159
0.0241819
0.0249149
0.0255065
0.0255812
0.0245739
0.0218797
0.0137383
-0.00116274
-0.0293599
-0.0665582
-0.113856
-0.159
-0.188791
-0.188952
-0.158959
-0.111034
-0.0616542
-0.0227862
0.00488505
0.022514
0.0313336
0.0342436
0.0342309
0.032944
0.0310697
0.0291282
0.0273457
0.025828
0.024607
0.0236442
0.0229029
0.0223772
0.0220505
0.0219215
0.022335
0.0224403
0.0226661
0.0229876
0.0233901
0.0238233
0.024232
0.0245191
0.024353
0.0235654
0.0210526
0.0162675
0.0061985
-0.0112501
-0.0430802
-0.0851922
-0.142212
-0.190183
-0.229597
-0.229679
-0.187652
-0.133589
-0.0765559
-0.033045
-4.80647e-05
0.0221234
0.0337548
0.037636
0.0372942
0.035289
0.0330425
0.0308646
0.0289671
0.0273721
0.0260616
0.0250117
0.0242061
0.0236337
0.0232792
0.023229
0.023239
0.0233019
0.0234712
0.0237127
0.0240074
0.0243002
0.024522
0.0245634
0.0241905
0.0230821
0.0204326
0.015522
0.00600579
-0.0101369
-0.0378366
-0.0742315
-0.117778
-0.159123
-0.193753
-0.199072
-0.163895
-0.12091
-0.0728278
-0.0331258
-0.00284897
0.0181932
0.0306222
0.0369918
0.0378269
0.0357795
0.0336266
0.0315656
0.0297689
0.028261
0.0270093
0.0260154
0.0252708
0.0247613
0.0244506
0.024314
0.0239921
0.0240749
0.0242455
0.0244753
0.0247342
0.0249798
0.0251503
0.0251563
0.0248671
0.0240343
0.022232
0.0186487
0.0121621
0.00105944
-0.018168
-0.0445199
-0.0725021
-0.101988
-0.124378
-0.132453
-0.122137
-0.0995817
-0.0690956
-0.0366108
-0.00982044
0.0112
0.0252983
0.033048
0.0353259
0.0345249
0.0329273
0.0313047
0.0297984
0.0284933
0.027403
0.0265436
0.025894
0.0254319
0.0251224
0.0249273
0.0245871
0.0247277
0.0248937
0.0251134
0.0253637
0.0256301
0.0258702
0.0260143
0.0259987
0.0256741
0.0248272
0.0230018
0.019525
0.013334
0.00220812
-0.016179
-0.0377348
-0.061713
-0.0798316
-0.0924276
-0.0976501
-0.0906491
-0.0707846
-0.044601
-0.0197754
0.00150973
0.0166717
0.0256325
0.0299017
0.0309452
0.030637
0.0298648
0.0288801
0.0279353
0.0271029
0.0264127
0.0258597
0.0254441
0.0251653
0.0250267
0.0249688
0.0250791
0.0252414
0.0254638
0.0257413
0.0260765
0.02646
0.0268539
0.0272186
0.0274126
0.0272114
0.026305
0.0240665
0.0195592
0.0120996
-0.00114707
-0.0206712
-0.0442278
-0.0668996
-0.0852768
-0.0930429
-0.0909216
-0.0767985
-0.0563663
-0.034875
-0.014816
0.00186945
0.0146399
0.0222431
0.0256585
0.0270728
0.0273888
0.0271669
0.0267672
0.0263118
0.0258699
0.0254836
0.0251854
0.0249897
0.0249129
0.0251331
0.025148
0.0253053
0.0255601
0.0259085
0.0263458
0.0268847
0.0275372
0.0282591
0.0289343
0.0292804
0.0289407
0.0270349
0.0223864
0.0138883
0.000169655
-0.0209147
-0.0472715
-0.0765116
-0.101861
-0.112405
-0.112365
-0.10085
-0.0821199
-0.05869
-0.0338767
-0.01242
0.00421664
0.0147313
0.0204274
0.0233716
0.0247291
0.0253098
0.0254864
0.025437
0.0252852
0.0250989
0.0249296
0.0247948
0.0247095
0.025228
0.025214
0.0253468
0.0255981
0.0259772
0.0264713
0.027092
0.0278497
0.02872
0.0297483
0.0305172
0.0306307
0.0285629
0.0229424
0.0120926
-0.0044338
-0.027585
-0.0564915
-0.0912706
-0.123076
-0.142826
-0.143007
-0.127116
-0.105845
-0.0765066
-0.0461788
-0.0211302
-0.00237526
0.0097074
0.0166018
0.0205129
0.0226016
0.0237517
0.0243385
0.0245856
0.0246598
0.0246397
0.0245739
0.0244937
0.0243932
0.0252072
0.0252679
0.0253936
0.0256083
0.0259445
0.0264056
0.0269887
0.0276922
0.0285115
0.0293935
0.0301746
0.0300281
0.0271606
0.0210971
0.00995927
-0.00683905
-0.0296388
-0.0576502
-0.0910558
-0.121775
-0.144738
-0.142585
-0.124508
-0.101254
-0.0709311
-0.0428815
-0.0201873
-0.00303618
0.00823697
0.0150306
0.0191088
0.0214124
0.0227453
0.0234523
0.02382
0.0240009
0.0240747
0.0240757
0.0240532
0.0239921
0.0248417
0.0249531
0.0251088
0.0253193
0.0256086
0.0259876
0.0264665
0.0270254
0.0276448
0.0282608
0.0283979
0.0271373
0.0232354
0.0160008
0.00502123
-0.0105814
-0.0307428
-0.0547743
-0.0793867
-0.0989487
-0.111547
-0.107296
-0.0918904
-0.0715162
-0.0484834
-0.0282507
-0.0115401
0.00165702
0.0105458
0.0160805
0.0194075
0.0213144
0.0224147
0.023041
0.0233882
0.0235652
0.023634
0.0236394
0.0236277
0.0236309
0.0241713
0.0242535
0.0243775
0.0245518
0.0247795
0.0250564
0.0253831
0.0257096
0.0259399
0.0259422
0.0252151
0.0228928
0.0180245
0.00925225
-0.00302627
-0.0182108
-0.0356715
-0.0546216
-0.0698133
-0.0776543
-0.0768084
-0.0703148
-0.0592598
-0.0429686
-0.0267961
-0.011975
0.000688055
0.00988802
0.0154573
0.0187505
0.020714
0.0218866
0.0226015
0.0230319
0.0232677
0.023382
0.0234246
0.0234259
0.0234194
0.0234109
0.0234063
0.0234107
0.0234593
0.0235484
0.0236646
0.0237759
0.0238506
0.0238078
0.0234581
0.0225321
0.0205513
0.0164998
0.0099579
0.000450454
-0.0117918
-0.0262468
-0.0413938
-0.056416
-0.0670181
-0.0687291
-0.0636088
-0.0540517
-0.0409748
-0.025312
-0.0107979
0.00171142
0.0108842
0.0165769
0.019646
0.0213042
0.0222402
0.0227388
0.0230288
0.0231786
0.0232449
0.0232653
0.0232663
0.0232528
0.0232328
0.0231954
0.0226414
0.0226152
0.0226201
0.0226259
0.0226061
0.0225042
0.0222569
0.0217512
0.0207852
0.0189223
0.0155569
0.00957974
0.000540282
-0.0112333
-0.0250116
-0.0397644
-0.0535324
-0.0660055
-0.0739081
-0.0742287
-0.0688016
-0.0544262
-0.0367574
-0.0188493
-0.00326899
0.00853829
0.0162611
0.0205034
0.0225445
0.0234025
0.023652
0.0235883
0.0234392
0.023266
0.0231241
0.0230097
0.0229247
0.0228665
0.0228326
0.0228356
0.0218941
0.0219155
0.0219057
0.0218455
0.0217009
0.0214122
0.0208919
0.0200059
0.0185424
0.0160554
0.0117578
0.00442855
-0.00659169
-0.0214752
-0.0394057
-0.0576222
-0.0735051
-0.0858265
-0.0945257
-0.0939737
-0.0817205
-0.0622711
-0.0396001
-0.0196658
-0.00291847
0.00929539
0.017657
0.0222315
0.024327
0.0248791
0.0245571
0.024091
0.0236033
0.0231922
0.0228834
0.0226536
0.0224888
0.022391
0.0223559
0.0224167
0.0211651
0.0212226
0.0211826
0.0210639
0.0208485
0.0204661
0.0198289
0.0188278
0.017144
0.014365
0.00983287
0.00253971
-0.0086648
-0.0240118
-0.04337
-0.0632324
-0.082538
-0.0960591
-0.106637
-0.106637
-0.0888304
-0.0657563
-0.0415887
-0.0212798
-0.00450981
0.00800316
0.0167772
0.0217538
0.0242398
0.0248526
0.0244167
0.0239074
0.0233421
0.0228991
0.0225545
0.0222967
0.0221198
0.0220223
0.0219877
0.0220131
0.0204447
0.0204663
0.0204153
0.0203037
0.020095
0.0197399
0.0191674
0.0182618
0.0167475
0.0142699
0.010242
0.00398002
-0.00522845
-0.0174168
-0.0327038
-0.0502891
-0.0683182
-0.0820813
-0.0928433
-0.0939103
-0.0797521
-0.0616736
-0.041253
-0.0227163
-0.00697167
0.00517863
0.0136938
0.0188921
0.021864
0.023143
0.0232507
0.0230083
0.0226116
0.0222858
0.0220176
0.0218149
0.0216725
0.0215796
0.0215143
0.0214537
0.0198794
0.0198419
0.0198038
0.0197301
0.0195877
0.0193351
0.0189158
0.0182629
0.0172114
0.0154916
0.0126524
0.00821846
0.00151078
-0.00736082
-0.0178611
-0.0304983
-0.0438156
-0.0557377
-0.0635768
-0.0669891
-0.0640396
-0.0544392
-0.0413555
-0.0262183
-0.0127973
-0.00138975
0.00743634
0.0139206
0.0180692
0.0202636
0.0212035
0.0214017
0.0213227
0.0212011
0.0210646
0.0209487
0.0208553
0.0207804
0.0207152
0.0206552
0.0195112
0.0195055
0.0194774
0.0194249
0.0193333
0.0191856
0.0189469
0.0185787
0.0180165
0.0171292
0.0156359
0.0131619
0.00899379
0.0026073
-0.00539016
-0.0151528
-0.0255973
-0.0361312
-0.0442593
-0.0500351
-0.0527999
-0.0503739
-0.0421581
-0.0306866
-0.0192985
-0.00860107
0.00062945
0.00801103
0.0131531
0.0163682
0.0182202
0.0190944
0.0195228
0.0197022
0.0197452
0.0197498
0.0197372
0.0197296
0.0197303
0.0197327
0.0191426
0.0191555
0.0191534
0.0191394
0.0191169
0.019092
0.0190493
0.0189791
0.0188566
0.0186187
0.0180573
0.0169375
0.0146883
0.0103651
0.00355434
-0.00574331
-0.0167508
-0.0286247
-0.0393994
-0.0476058
-0.0508429
-0.051111
-0.0457604
-0.0366894
-0.0267917
-0.0166756
-0.00733163
0.000599437
0.0069533
0.011725
0.0147798
0.0165416
0.0175648
0.0181089
0.0184006
0.018562
0.0186481
0.0187063
0.0187541
0.0188181
0.0186619
0.0186308
0.0186385
0.0186729
0.0187408
0.0188489
0.0190049
0.0192149
0.0194869
0.0197542
0.0198605
0.0193905
0.0178126
0.0144384
0.0080552
-0.00128781
-0.0134956
-0.0273702
-0.0414736
-0.0533581
-0.0598809
-0.0617263
-0.057623
-0.0496433
-0.039703
-0.0285933
-0.0173571
-0.00700107
0.00146511
0.00775444
0.0118669
0.0143404
0.0158318
0.0167182
0.0172652
0.0175926
0.0177797
0.017882
0.0179363
0.0179733
0.0181723
0.0181107
0.0181184
0.0181792
0.0183006
0.0184874
0.0187536
0.0191194
0.0195957
0.0200863
0.0205353
0.0201714
0.0184167
0.0151359
0.00901355
0.000123056
-0.0120529
-0.0266267
-0.0438933
-0.0598281
-0.0728096
-0.0753572
-0.0704799
-0.0624459
-0.0506143
-0.0375403
-0.0239524
-0.0114157
-0.00170852
0.00535097
0.0100109
0.0128015
0.014553
0.0156241
0.0163365
0.0167812
0.0170507
0.0171947
0.0172517
0.0172188
0.0176669
0.0176671
0.0176894
0.0177482
0.0178611
0.0180351
0.0182785
0.0185977
0.018986
0.0193177
0.0196272
0.0189218
0.0169303
0.0134903
0.00752482
-0.00114319
-0.0125853
-0.0265331
-0.0428631
-0.058558
-0.0723502
-0.074924
-0.0689636
-0.0604465
-0.0480701
-0.0343616
-0.0212237
-0.00980441
-0.00124451
0.00517017
0.00948013
0.0121596
0.0138333
0.0149227
0.0156168
0.0160575
0.0163249
0.0164763
0.0165498
0.0165046
0.0169953
0.0170452
0.0170927
0.0171455
0.0172149
0.0173095
0.017435
0.0175755
0.0177065
0.0176063
0.0170323
0.0156035
0.0129825
0.00874222
0.00249513
-0.00592281
-0.0162004
-0.0278758
-0.0399887
-0.0503524
-0.0570277
-0.057012
-0.0515729
-0.0434664
-0.0328308
-0.0220443
-0.0121876
-0.00407342
0.00219385
0.00708201
0.0104093
0.0125043
0.0138273
0.0146401
0.0151592
0.0154841
0.0156798
0.0157839
0.0158386
0.015861
0.0161497
0.0161714
0.01618
0.0161814
0.0161791
0.016165
0.0161176
0.0159932
0.0157228
0.0150936
0.0137353
0.0112905
0.00746842
0.00218626
-0.00452103
-0.0125153
-0.0213121
-0.0302535
-0.037493
-0.0419365
-0.041571
-0.0383049
-0.0327083
-0.0254404
-0.0175675
-0.00981099
-0.00309333
0.00250462
0.0070272
0.0102201
0.0122096
0.0134353
0.0141913
0.0146691
0.0149756
0.0151689
0.0152843
0.0153505
0.0153911
0.0154305
0.0152535
0.0152065
0.0151502
0.0150816
0.014992
0.0148485
0.0146025
0.0141486
0.0133547
0.0119927
0.00973656
0.00635666
0.00175244
-0.0041488
-0.0111682
-0.0188277
-0.02648
-0.0332472
-0.037174
-0.0376182
-0.035591
-0.0301735
-0.0232149
-0.0154466
-0.00779513
-0.00101208
0.00446796
0.0086669
0.011451
0.013025
0.0139357
0.0143996
0.0146768
0.0148551
0.0149719
0.0150469
0.0151009
0.0151345
0.0151503
0.0151421
0.014418
0.0143413
0.0142617
0.0141519
0.013984
0.0137048
0.0132482
0.012476
0.0111843
0.00904601
0.00571942
0.00106651
-0.00479881
-0.0117964
-0.019556
-0.0275125
-0.0347762
-0.0404813
-0.0428708
-0.0408155
-0.0368949
-0.0296675
-0.0205072
-0.0108956
-0.00207178
0.00493655
0.00998442
0.0130891
0.0146251
0.0151725
0.0152627
0.0151712
0.0150635
0.0149636
0.0148902
0.0148354
0.0148068
0.0147914
0.0147822
0.0147762
0.0136883
0.013669
0.0136031
0.0134716
0.0132294
0.0128253
0.0121861
0.0111678
0.00953662
0.00690294
0.00271903
-0.003171
-0.0108775
-0.0200775
-0.0296744
-0.0388033
-0.0466285
-0.0519579
-0.0539041
-0.0501
-0.0408624
-0.0303417
-0.0185954
-0.00745842
0.00159771
0.00831848
0.0127735
0.0151214
0.0162611
0.0164179
0.0159976
0.0155509
0.0151504
0.0148325
0.0146002
0.0144397
0.0143382
0.0142861
0.0142741
0.0143189
0.0130548
0.0130993
0.0130333
0.0128785
0.012593
0.0121335
0.011422
0.0103313
0.00859786
0.00589061
0.00167097
-0.00443972
-0.012586
-0.0225386
-0.0331871
-0.0431851
-0.0518119
-0.0574415
-0.0596343
-0.0551582
-0.0430902
-0.0300141
-0.0169182
-0.00572842
0.00269877
0.0088645
0.0128464
0.0148786
0.0160578
0.0162931
0.015792
0.0153351
0.0148402
0.0144776
0.0142042
0.0140156
0.0138962
0.0138389
0.0138295
0.013872
0.012463
0.0124907
0.0124258
0.0122942
0.0120501
0.0116589
0.0110427
0.0101108
0.00860507
0.00628085
0.00278886
-0.00207389
-0.00841356
-0.0165963
-0.0258026
-0.0348712
-0.0433091
-0.0489299
-0.0513911
-0.0484128
-0.0397894
-0.0289496
-0.0179522
-0.00843892
-0.000665405
0.00539311
0.00962989
0.0122477
0.0137978
0.0144534
0.0145008
0.014369
0.0140984
0.0138633
0.0136786
0.0135491
0.0134644
0.0134155
0.0133865
0.0133631
0.0119862
0.0119499
0.0119083
0.0118333
0.0116934
0.0114523
0.0110673
0.0104446
0.00945166
0.00789042
0.00545476
0.00204901
-0.00211384
-0.00750703
-0.0138646
-0.0205692
-0.0271568
-0.032278
-0.0356907
-0.0362472
-0.033614
-0.0276779
-0.0208157
-0.0138111
-0.00695102
-0.000994203
0.00379859
0.00735305
0.00979617
0.011422
0.012309
0.0126888
0.0128025
0.0128168
0.0128026
0.0127852
0.0127663
0.0127458
0.0127179
0.01268
0.0117133
0.0116912
0.0116658
0.0116286
0.0115627
0.0114547
0.0112784
0.011008
0.0105546
0.00979992
0.00848672
0.00639408
0.00361268
3.64667e-05
-0.00438133
-0.0094604
-0.0149481
-0.0200089
-0.0245035
-0.0277739
-0.0286115
-0.0273194
-0.0241027
-0.0189783
-0.0130461
-0.00739821
-0.00222726
0.00208115
0.00545937
0.0079421
0.00956256
0.0105213
0.0110754
0.0114044
0.0115923
0.0117036
0.0117765
0.0118292
0.0118648
0.0118766
0.011495
0.0115135
0.0115182
0.0115197
0.0115169
0.0115188
0.0115133
0.0115121
0.0114708
0.0113373
0.0109441
0.0100955
0.00840697
0.00571527
0.0019018
-0.00303564
-0.00898466
-0.0151697
-0.0210079
-0.0256277
-0.0282188
-0.0296661
-0.0285535
-0.0247848
-0.0194059
-0.0137673
-0.00815688
-0.00314719
0.000998465
0.00426478
0.00669141
0.00834348
0.00939583
0.010039
0.0104216
0.0106582
0.0108131
0.0109265
0.0110146
0.0110914
0.0111647
0.0111635
0.0111828
0.0112238
0.0112929
0.0114023
0.0115565
0.011773
0.0120535
0.0123687
0.0126493
0.012605
0.0117538
0.00991252
0.00662372
0.00177925
-0.0046406
-0.0123331
-0.0200936
-0.02684
-0.0326556
-0.0366958
-0.0369085
-0.0337803
-0.0285303
-0.0222328
-0.0154652
-0.00905082
-0.00341556
0.00106752
0.00436556
0.00664631
0.00810606
0.00899943
0.00955057
0.00989848
0.0101146
0.0102497
0.0103373
0.0104031
0.0107704
0.0107281
0.0107423
0.0107993
0.0109133
0.0110902
0.0113454
0.0116983
0.0121536
0.0126715
0.0132167
0.0134386
0.0130383
0.0120009
0.00957472
0.0054494
-0.000476622
-0.00919629
-0.0190587
-0.0289167
-0.0378218
-0.0437888
-0.0444017
-0.0410769
-0.0357619
-0.0286695
-0.0208355
-0.0130868
-0.00621994
-0.000922917
0.00292995
0.00556041
0.00722641
0.00824884
0.00891977
0.00935894
0.00962809
0.00977578
0.00984296
0.00983782
0.0103812
0.0103604
0.010374
0.0104236
0.0105247
0.0106861
0.0109204
0.0112331
0.0116366
0.0120107
0.0124181
0.0124188
0.0119037
0.0107851
0.00847535
0.00457318
-0.000990624
-0.00882633
-0.0183181
-0.0280388
-0.0363863
-0.04245
-0.0427167
-0.0390638
-0.0337348
-0.0266155
-0.0190478
-0.0117252
-0.00546065
-0.000684604
0.00285186
0.00526418
0.00678013
0.00781034
0.00848289
0.00889929
0.00917213
0.00932853
0.00939662
0.00935315
0.00989988
0.00992936
0.00995575
0.00998861
0.0100369
0.0101075
0.0102066
0.0103214
0.0104162
0.0103732
0.0100982
0.00937309
0.00809436
0.0060846
0.00312677
-0.000912709
-0.00602321
-0.0118802
-0.0184801
-0.0250432
-0.0296124
-0.0321494
-0.0310253
-0.0275476
-0.0228398
-0.0171154
-0.0113473
-0.00605244
-0.00179037
0.0015455
0.0041093
0.00585884
0.00702615
0.0077875
0.00826916
0.00857581
0.00876512
0.00887151
0.00892339
0.00892396
0.00926693
0.00928634
0.00928914
0.00927424
0.0092427
0.00918786
0.00909685
0.00893139
0.00862632
0.00805098
0.00700536
0.00535309
0.00311213
0.000192814
-0.00342547
-0.00753022
-0.0121087
-0.0162429
-0.0194631
-0.0218046
-0.0226028
-0.0215044
-0.0188029
-0.0154185
-0.0114101
-0.00726719
-0.00345297
-0.000214029
0.00237159
0.00451557
0.00605968
0.00702979
0.00767867
0.00806003
0.00829818
0.00844922
0.00853885
0.00858405
0.00861075
0.00864719
0.00857049
0.00853294
0.00847377
0.00838755
0.00826666
0.00808504
0.00779873
0.00733616
0.0066097
0.00547334
0.00378631
0.00147776
-0.00153581
-0.00517632
-0.00929501
-0.0134549
-0.0174367
-0.0204071
-0.0213525
-0.0206372
-0.0191208
-0.0161886
-0.0125516
-0.00850544
-0.0044347
-0.000781436
0.00216949
0.00438044
0.00602657
0.00719328
0.00781519
0.00816828
0.00834098
0.008415
0.00846049
0.00849412
0.00851668
0.00852542
0.00853017
0.00852955
0.0079372
0.00786319
0.00776746
0.00763622
0.00745053
0.0071682
0.00672519
0.00600954
0.00487627
0.00318294
0.00079351
-0.00232011
-0.00627173
-0.0108979
-0.0158945
-0.0205784
-0.0244354
-0.0265
-0.0259782
-0.0228689
-0.0188839
-0.0144177
-0.00956806
-0.00453361
9.45279e-05
0.00381657
0.00648054
0.00808553
0.00894876
0.00920238
0.00911175
0.00896852
0.00879582
0.00865462
0.00855165
0.00848501
0.00844592
0.00841706
0.00839627
0.00837313
0.00740676
0.00736534
0.00728715
0.00715168
0.00692666
0.00657025
0.00601017
0.00511635
0.00367953
0.00148858
-0.00159327
-0.00577621
-0.0110859
-0.0170297
-0.0231093
-0.0284426
-0.0322978
-0.0338866
-0.0323324
-0.0269743
-0.0202004
-0.0132415
-0.00621517
5.20361e-06
0.00466952
0.00785617
0.00975533
0.0105893
0.0107178
0.0103085
0.00981165
0.00933152
0.00892427
0.00862448
0.00840504
0.00825087
0.00815497
0.00810118
0.0080801
0.00809236
0.00697714
0.00699724
0.00693952
0.0068019
0.00655262
0.00615433
0.0055359
0.00457805
0.00309262
0.000758583
-0.00254563
-0.00705527
-0.0127859
-0.0191097
-0.0254469
-0.0310182
-0.0349349
-0.0366306
-0.0348902
-0.0287104
-0.0207984
-0.0125116
-0.00446501
0.00208746
0.00651607
0.00924562
0.0105983
0.0110095
0.0108302
0.0102208
0.00970382
0.00916657
0.00871117
0.0083601
0.0081024
0.00792401
0.007813
0.00775777
0.00774543
0.00778691
0.00662006
0.00664529
0.00659061
0.00646633
0.00625071
0.00589574
0.00535808
0.00453229
0.00326893
0.00135545
-0.00129713
-0.00486062
-0.00945676
-0.0146706
-0.0200399
-0.0249258
-0.0286396
-0.0304065
-0.0297918
-0.0253102
-0.019469
-0.0127784
-0.00642625
-0.00109806
0.00290648
0.00574669
0.00749728
0.00847098
0.00884987
0.00882547
0.00867237
0.0083961
0.00812134
0.00788553
0.00770425
0.00758868
0.00751768
0.00748392
0.00747141
0.00747453
0.00633507
0.00631869
0.00628051
0.00621341
0.00609126
0.00588908
0.00555722
0.00502786
0.00422158
0.00301148
0.00130549
-0.000901325
-0.00372037
-0.00707499
-0.0107417
-0.0143593
-0.0173997
-0.0196533
-0.0207902
-0.0197823
-0.0173385
-0.01391
-0.0104344
-0.00684501
-0.00334637
-0.000324122
0.00209862
0.00394807
0.00529712
0.00622089
0.00676614
0.00700623
0.00709786
0.00711261
0.0071062
0.00709945
0.00709346
0.00708671
0.00707194
0.00704594
0.00619749
0.00617462
0.00616213
0.0061476
0.00611583
0.00605934
0.00595641
0.00576875
0.00544097
0.00488676
0.00400592
0.00277511
0.00119738
-0.000801449
-0.00324309
-0.00605586
-0.00883697
-0.0115298
-0.0137729
-0.0151124
-0.0156777
-0.0154425
-0.0143403
-0.012059
-0.00904856
-0.00596575
-0.00304491
-0.000483724
0.00163978
0.00329411
0.00447871
0.00524858
0.00573179
0.00602998
0.00622258
0.00634457
0.006421
0.00646913
0.00649187
0.0064977
0.00615448
0.00617308
0.00618716
0.00620696
0.00623159
0.00627096
0.00632547
0.00638511
0.00641936
0.00637051
0.00617926
0.0056786
0.00480044
0.00343559
0.00143614
-0.00127763
-0.00445171
-0.00767676
-0.0105797
-0.0133954
-0.015981
-0.018032
-0.0185802
-0.0172311
-0.0145629
-0.0111964
-0.00767625
-0.00439091
-0.0015839
0.00062653
0.00231513
0.00354597
0.00439878
0.00495741
0.00531943
0.00555553
0.00571551
0.00583153
0.00591479
0.00596745
0.00603227
0.00605487
0.00608501
0.00613353
0.0062075
0.00631954
0.00647892
0.00669687
0.00698793
0.00732056
0.00765719