/*--------------------------------*- C++ -*----------------------------------*\
| =========                 |                                                 |
| \\      /  F ield         | OpenFOAM: The Open Source CFD Toolbox           |
|  \\    /   O peration     | Version:  v2106                                 |
|   \\  /    A nd           | Website:  www.openfoam.com                      |
|    \\/     M anipulation  |                                                 |
\*---------------------------------------------------------------------------*/
FoamFile
{
    version     2.0;
    format      ascii;
    arch        "LSB;label=32;scalar=64";
    class       volScalarField;
    location    "0";
    object      p;
}
// * * * * * * * * * * * * * * * * * * * * * * * * * * * * * * * * * * * * * //

dimensions      [0 2 -2 0 0 0 0];

internalField   nonuniform List<scalar> 
11644
(
0.0483219
0.0487355
0.0496052
0.0509436
0.0527519
0.0550342
0.057796
0.0610371
0.0647447
0.0688889
0.0734203
0.0782574
0.0832848
0.0883515
0.0932675
0.0978529
0.101883
0.105138
0.107421
0.108575
0.108589
0.107528
0.105426
0.102324
0.0983796
0.0938663
0.0890375
0.0840756
0.0791601
0.0744462
0.0700398
0.0660172
0.0624286
0.0592978
0.0566337
0.0544346
0.0526943
0.0514063
0.0505687
0.0501681
0.0475835
0.0479918
0.0488369
0.050139
0.0519091
0.0541578
0.0568969
0.0601335
0.0638646
0.068072
0.0727193
0.0777351
0.0830093
0.0884038
0.0937214
0.0987152
0.103153
0.106752
0.109302
0.110637
0.110668
0.109392
0.106968
0.103567
0.0993033
0.0944091
0.089193
0.0838998
0.0787156
0.0738052
0.0692755
0.0651853
0.0615678
0.0584368
0.0557905
0.053621
0.0519151
0.0506606
0.0498445
0.0494489
0.0460133
0.0464267
0.0472518
0.0485042
0.0502095
0.052394
0.0550801
0.0582901
0.0620435
0.0663527
0.0712059
0.0765742
0.0823839
0.088473
0.0946295
0.100565
0.105932
0.110411
0.113671
0.115395
0.1154
0.113678
0.110461
0.10612
0.100959
0.0952279
0.0892268
0.083285
0.0776202
0.0723721
0.0676262
0.0634275
0.059778
0.0566654
0.0540679
0.0519608
0.0503176
0.0491124
0.0483197
0.0479258
0.0436417
0.0440403
0.0448309
0.0460182
0.0476324
0.0497133
0.0523032
0.0554485
0.0592008
0.0636119
0.0687381
0.0746097
0.0811655
0.0883168
0.0958472
0.103333
0.11032
0.116442
0.120959
0.123331
0.123304
0.120856
0.116342
0.110296
0.10344
0.0961809
0.0889193
0.0819829
0.0756081
0.0699177
0.0649306
0.0606289
0.056982
0.0539372
0.0514409
0.0494417
0.0478958
0.0467638
0.0460148
0.0456369
0.0405385
0.0408993
0.041616
0.0426974
0.0441743
0.0460941
0.0485177
0.0515206
0.0551958
0.0596531
0.0650109
0.0713649
0.0788212
0.0873509
0.0968139
0.106698
0.116186
0.125161
0.131857
0.135407
0.135349
0.13159
0.124839
0.116035
0.106575
0.096913
0.0877546
0.0794953
0.072265
0.0660973
0.0609279
0.0566276
0.0530874
0.0502087
0.0478979
0.046077
0.044684
0.043669
0.0430007
0.042666
0.0367914
0.0370888
0.0376875
0.0386053
0.0398737
0.0415433
0.0436876
0.0464075
0.0498382
0.0541393
0.0594992
0.0661904
0.0744676
0.0845927
0.096713
0.110269
0.123763
0.13718
0.14771
0.153618
0.153514
0.14732
0.136556
0.12299
0.109427
0.0963741
0.0847055
0.074902
0.0669241
0.0604691
0.0553103
0.0512241
0.0479919
0.0454394
0.0434437
0.0419052
0.0407476
0.0399177
0.0393749
0.0391068
0.0325136
0.0327256
0.0331625
0.0338405
0.034801
0.0360947
0.0377988
0.0400237
0.0429275
0.0467236
0.0517356
0.058322
0.066937
0.0783617
0.0934022
0.111696
0.126236
0.144355
0.160901
0.172212
0.174742
0.167497
0.152838
0.134476
0.110291
0.0923914
0.077814
0.0667546
0.0586114
0.0524442
0.0477847
0.0442697
0.0416357
0.0396462
0.0381449
0.037022
0.0361953
0.0356118
0.0352386
0.0350507
0.0278194
0.0279414
0.0281745
0.0285503
0.0290933
0.0298575
0.0309125
0.0323708
0.0343862
0.037215
0.0412256
0.0469166
0.0547968
0.0662535
0.0818319
0.101506
0.128693
0.159041
0.188744
0.210146
0.214941
0.200961
0.17397
0.143092
0.113506
0.089183
0.0722895
0.0536426
0.0464447
0.0414906
0.0381122
0.0357376
0.0340826
0.0329368
0.0321277
0.0315602
0.031168
0.0309014
0.0307387
0.0306644
0.0229254
0.0229059
0.022896
0.022896
0.022924
0.0230143
0.0232152
0.0236131
0.024327
0.0256015
0.0277143
0.0310476
0.0362209
0.0497449
0.0637232
0.0864216
0.116893
0.162208
0.213951
0.259335
0.275177
0.250924
0.201804
0.149709
0.106542
0.0716342
0.0536512
0.0341958
0.0299402
0.027536
0.0263241
0.0257605
0.0255331
0.0255244
0.0256083
0.0257307
0.0258603
0.0259769
0.0260543
0.0260889
0.0179664
0.017836
0.017563
0.0171398
0.0165821
0.0158792
0.0150522
0.0141158
0.0130982
0.0121137
0.0113022
0.0108442
0.0106231
0.0206256
0.0281187
0.0491462
0.0816939
0.138065
0.228751
0.337551
0.388242
0.329766
0.219929
0.130571
0.0689168
0.0310753
0.0204075
0.008329
0.00956453
0.0111486
0.0130058
0.0148082
0.0163975
0.01777
0.0189006
0.0198081
0.0205096
0.021023
0.0213593
0.0215327
0.013211
0.0129505
0.0123962
0.0115588
0.0103901
0.00884908
0.00688514
0.00441711
0.00135088
-0.00246852
-0.00724395
-0.0130009
-0.0201924
-0.0200759
-0.0251353
-0.0237288
-0.0140748
0.0118358
0.114557
0.367455
0.580553
0.371232
0.123232
0.0122346
-0.0253622
-0.034335
-0.0258316
-0.0222421
-0.0134531
-0.00637708
-0.000726382
0.00377094
0.00734874
0.0101734
0.0123897
0.014107
0.0154068
0.0163267
0.0169208
0.0171922
0.00899485
0.00856707
0.00775326
0.00648776
0.00472282
0.00237608
-0.000711998
-0.00472505
-0.00990079
-0.0166377
-0.0255619
-0.0373583
-0.0530588
-0.0601536
-0.0876161
-0.11298
-0.162816
-0.271736
-0.561726
-0.483302
-0.257395
-0.162935
-0.112068
-0.0755937
-0.0530322
-0.0353978
-0.0226587
-0.0132622
-0.00618091
-0.000779776
0.00336093
0.00655967
0.0089978
0.010815
0.0120963
0.0129106
0.0133149
0.0053747
0.00489272
0.00388173
0.00227504
6.4962e-06
-0.00304213
-0.0070741
-0.0123805
-0.0193326
-0.0284918
-0.0406945
-0.0571941
-0.0793766
-0.0966415
-0.137635
-0.183755
-0.266268
-0.427073
-0.605144
-0.627336
-0.439565
-0.265828
-0.169076
-0.113833
-0.0734298
-0.0506835
-0.0344969
-0.0226021
-0.0137572
-0.00709664
-0.00202727
0.00187129
0.00483079
0.00700797
0.00854987
0.00953849
0.0100573
0.00260893
0.00206131
0.000884939
-0.000933329
-0.00352278
-0.00701669
-0.0116238
-0.0176983
-0.0256647
-0.0361915
-0.0501369
-0.0688354
-0.0934609
-0.116895
-0.161334
-0.211751
-0.285644
-0.382003
-0.412011
-0.539696
-0.442166
-0.280859
-0.17637
-0.122508
-0.0774566
-0.0556094
-0.0393536
-0.0271374
-0.0179225
-0.0108808
-0.00547756
-0.00131182
0.00187059
0.00421891
0.00589014
0.00697265
0.0074035
0.000840875
0.000218387
-0.00101261
-0.00291578
-0.00559502
-0.00918722
-0.0138969
-0.0200376
-0.0280858
-0.0386771
-0.0525533
-0.0708349
-0.0946524
-0.119954
-0.163155
-0.215168
-0.287205
-0.377315
-0.395587
-0.459861
-0.482023
-0.504165
-0.522177
-0.359148
-0.213839
-0.135211
-0.100722
-0.0661213
-0.0500405
-0.0369482
-0.026565
-0.018365
-0.0118722
-0.00676511
-0.0027843
0.000258701
0.00250453
0.00409137
0.00511166
0.00567086
-2.8291e-05
-0.00054213
-0.00168211
-0.00347951
-0.00599643
-0.00933407
-0.0136412
-0.0192036
-0.0264028
-0.0357132
-0.0477174
-0.0633473
-0.0838198
-0.108587
-0.147696
-0.20437
-0.284576
-0.428785
-0.601775
-0.718642
-0.691285
-0.473043
-0.222433
-0.0909355
-0.0801531
-0.0653504
-0.060046
-0.0434699
-0.0360034
-0.0285871
-0.0216357
-0.015535
-0.0103624
-0.00606749
-0.00259993
5.93181e-05
0.00204107
0.00345326
0.00438265
0.00486956
0.000263502
-0.00021035
-0.00116215
-0.00263855
-0.00470523
-0.00743746
-0.0109273
-0.0153577
-0.0209428
-0.0279299
-0.0367802
-0.0483578
-0.0634333
-0.0837764
-0.115991
-0.161351
-0.232797
-0.356289
-0.568003
-0.746995
-0.721944
-0.413236
-0.0373351
0.094292
0.0319678
-0.00371653
-0.0170483
-0.0193613
-0.0195037
-0.0172904
-0.013968
-0.0103905
-0.0069183
-0.0037179
-0.00102981
0.00110407
0.00278238
0.00401348
0.00478159
0.00498695
0.00165845
0.00127424
0.0005621
-0.000524888
-0.00201582
-0.0039392
-0.00630809
-0.00913548
-0.0125391
-0.016649
-0.0217198
-0.0282818
-0.0370363
-0.0478434
-0.0738581
-0.0983236
-0.146344
-0.207327
-0.306729
-0.419716
-0.422788
-0.249418
-0.0195399
0.0874668
0.0408978
0.0138524
-0.000221802
-0.00567585
-0.00779671
-0.00760344
-0.00639277
-0.00456667
-0.0024332
-0.000335928
0.00149376
0.00301751
0.00424236
0.00511283
0.00564821
0.00589952
0.00379795
0.00356974
0.00314497
0.0024941
0.00164474
0.000613366
-0.000550936
-0.00171224
-0.00289354
-0.0041469
-0.00547739
-0.00697621
-0.00917714
-0.0118931
-0.0266187
-0.0368829
-0.0655459
-0.102805
-0.152853
-0.207562
-0.23415
-0.194121
-0.106293
-0.0448987
-0.0254727
-0.00968912
-0.00424661
-0.00438304
-0.00298106
-0.00175839
-0.000640672
0.000652197
0.00200524
0.00327621
0.00439319
0.00534574
0.00611189
0.00667226
0.00707504
0.00733975
0.00639804
0.00631537
0.00613872
0.00590499
0.00566519
0.00548249
0.00540693
0.00557119
0.00612481
0.00724383
0.00905392
0.0116523
0.0155843
0.018367
0.0125707
0.00920543
-0.00794544
-0.0409412
-0.112832
-0.213608
-0.298075
-0.31697
-0.268595
-0.183693
-0.0897556
-0.0397435
-0.0153073
-0.00708563
-0.00140947
0.00173907
0.00362853
0.00497258
0.00595118
0.0067091
0.0073689
0.0079358
0.00840383
0.00877583
0.00906013
0.00922548
0.0091272
0.00913007
0.00916425
0.00928798
0.00954873
0.0100379
0.0108298
0.0120208
0.0138347
0.0166085
0.0205627
0.0260741
0.0335623
0.0405301
0.0386074
0.040095
0.0257069
-0.0188453
-0.118447
-0.262949
-0.376127
-0.398349
-0.333906
-0.221099
-0.102814
-0.0487218
-0.0177853
-0.00547888
0.0015687
0.00554162
0.00766792
0.00893227
0.00965938
0.0101291
0.0104837
0.0107674
0.0110007
0.0111858
0.011319
0.0113838
0.0116975
0.0117968
0.0120199
0.0124103
0.0130204
0.0139521
0.015315
0.0172227
0.0198764
0.0235568
0.0285061
0.0348902
0.0440588
0.052681
0.0563912
0.05066
0.0233428
-0.033809
-0.125926
-0.232402
-0.293064
-0.281788
-0.217692
-0.135089
-0.0700853
-0.0242941
-0.00793349
0.00237491
0.00785682
0.0109098
0.0124113
0.0131807
0.0135392
0.0136936
0.0137238
0.0137022
0.0136742
0.0136461
0.013629
0.0136413
0.0140067
0.0141933
0.0145403
0.0150874
0.0158861
0.0170127
0.0185841
0.0207121
0.0235361
0.0272027
0.0319179
0.0372613
0.0449796
0.0538024
0.0482876
0.0310716
-0.0073909
-0.0585454
-0.100979
-0.122991
-0.121853
-0.100567
-0.0721975
-0.0418842
-0.0205009
-0.00505491
0.00646975
0.0127162
0.015985
0.0174147
0.0178342
0.0177783
0.0175129
0.0171827
0.0168325
0.0165188
0.01626
0.0160521
0.0158986
0.0158342
0.0160151
0.016221
0.0166093
0.0172047
0.0180298
0.0191254
0.0205539
0.0223644
0.024656
0.0273822
0.0306103
0.0333758
0.0353419
0.0354907
0.0227005
-0.00474022
-0.0440582
-0.086662
-0.112622
-0.114772
-0.102227
-0.0735129
-0.0416881
-0.0155123
0.00081466
0.0120008
0.0189273
0.0225175
0.0238139
0.023775
0.0231231
0.0221807
0.0211808
0.0202901
0.019551
0.0189803
0.0185479
0.018231
0.0180092
0.0178537
0.0177475
0.0179304
0.0182838
0.018818
0.0195264
0.0204241
0.0215071
0.0227021
0.0240804
0.025236
0.0260152
0.0252352
0.0205236
0.00993724
-0.013381
-0.0489323
-0.0907856
-0.136958
-0.166515
-0.167979
-0.144525
-0.0999528
-0.0535621
-0.0172898
0.00641301
0.0205714
0.0270984
0.0296497
0.029975
0.0289488
0.0274476
0.0257766
0.0242132
0.0228745
0.0218191
0.0210093
0.0204055
0.0199799
0.0197126
0.0195589
0.0192331
0.0193806
0.0196562
0.0200676
0.0206017
0.0212372
0.0219392
0.0225811
0.0229992
0.0227493
0.0211241
0.017697
0.00849577
-0.00792826
-0.0389493
-0.0807105
-0.135098
-0.188433
-0.227615
-0.228837
-0.188795
-0.13254
-0.0753872
-0.0305899
0.000928513
0.0213929
0.0315545
0.0346624
0.0341451
0.0325176
0.0303713
0.0282567
0.0263963
0.0248447
0.0236059
0.0226308
0.0218828
0.0213615
0.0210445
0.0209708
0.0204699
0.0205596
0.0207752
0.0210915
0.0214937
0.0219294
0.0223361
0.0226115
0.0224679
0.0215975
0.0190917
0.0142555
0.00442052
-0.0127993
-0.044149
-0.0859913
-0.139414
-0.187825
-0.228351
-0.230993
-0.189451
-0.136489
-0.0810541
-0.0370144
-0.00417584
0.0187197
0.0317279
0.0367362
0.0364877
0.0343229
0.03188
0.029649
0.0277665
0.0261974
0.0249149
0.023896
0.0231291
0.0225999
0.0222782
0.022201
0.0214795
0.0215542
0.0217565
0.0220395
0.02238
0.022725
0.0230031
0.0231127
0.0228703
0.0220006
0.0198722
0.0157908
0.00807607
-0.00512923
-0.0288543
-0.0620918
-0.0999476
-0.137328
-0.167755
-0.175183
-0.153102
-0.118756
-0.0774641
-0.0386784
-0.0076492
0.0145149
0.0278935
0.0345597
0.0358705
0.0341166
0.0320283
0.0300788
0.0283566
0.0268993
0.0256999
0.0247605
0.0240601
0.0235765
0.0232703
0.0231036
0.0223347
0.0224667
0.0226655
0.0229326
0.0232427
0.0235641
0.0238465
0.0240029
0.02395
0.0234803
0.0223273
0.0198384
0.0151602
0.00715947
-0.00697873
-0.0289162
-0.0536547
-0.0810744
-0.102121
-0.113107
-0.114148
-0.0991974
-0.0731696
-0.0426456
-0.0159413
0.00549122
0.0201574
0.0284843
0.031746
0.0317058
0.0306397
0.0293467
0.0280187
0.0268276
0.0258249
0.025028
0.0244141
0.0239712
0.0236763
0.0235048
0.0229919
0.0231537
0.0233407
0.0235924
0.0238972
0.0242567
0.0246469
0.0250054
0.0253019
0.0253966
0.0251186
0.0237571
0.0212342
0.016273
0.00781551
-0.00696433
-0.0269459
-0.0508849
-0.0709559
-0.0870456
-0.094949
-0.0917166
-0.0760221
-0.0523848
-0.029433
-0.0082851
0.00801412
0.0189969
0.0249316
0.0272003
0.0276881
0.0273795
0.0267229
0.0260162
0.0253372
0.0247435
0.0242519
0.0238772
0.023629
0.023522
0.023361
0.0234277
0.0236189
0.0239013
0.0242687
0.0247194
0.025263
0.0258839
0.0265476
0.0270936
0.0273117
0.0268426
0.0251403
0.0209638
0.013169
-0.000487895
-0.0213886
-0.0473455
-0.0746702
-0.0973875
-0.106761
-0.106491
-0.0944918
-0.0743654
-0.0507939
-0.0270163
-0.00706575
0.00799283
0.0172614
0.0218691
0.0239576
0.024752
0.0249221
0.0248074
0.0245396
0.0242208
0.0239146
0.0236647
0.0234892
0.0234023
0.0235637
0.0235548
0.0237162
0.0240064
0.0244243
0.0249556
0.0256119
0.026422
0.0273382
0.0282498
0.028937
0.0290533
0.0273806
0.0224723
0.0128598
-0.00289575
-0.0261841
-0.0554668
-0.0907108
-0.121506
-0.13954
-0.139052
-0.124774
-0.102915
-0.0737006
-0.0438487
-0.0191582
-0.000783652
0.0106707
0.0171671
0.0206209
0.0223722
0.0232438
0.0236092
0.0236899
0.0236372
0.0235229
0.023402
0.0232896
0.0231815
0.0237013
0.0237277
0.0238707
0.0241286
0.0245245
0.025051
0.0257149
0.0265234
0.0274708
0.0285868
0.0294607
0.0295871
0.0271864
0.0210877
0.0099138
-0.00714436
-0.0310402
-0.0613891
-0.0981066
-0.132748
-0.15711
-0.156129
-0.136498
-0.112087
-0.0796273
-0.0487717
-0.0238155
-0.00506944
0.00715538
0.0143355
0.0184423
0.0207121
0.0219566
0.0225949
0.0228883
0.0230035
0.0230141
0.0229717
0.0229091
0.0228266
0.0235973
0.023706
0.0238678
0.0241069
0.0244538
0.0249141
0.0254954
0.0261881
0.026984
0.0278678
0.0284957
0.0279409
0.0246334
0.0176932
0.00586501
-0.0113422
-0.0340243
-0.0613966
-0.0918048
-0.118775
-0.137949
-0.134465
-0.116497
-0.0932061
-0.0648795
-0.0396399
-0.0184683
-0.00251098
0.00789418
0.0141747
0.0179161
0.0200605
0.021281
0.0219396
0.022289
0.0224531
0.022506
0.0224968
0.0224749
0.0224531
0.0231244
0.0232423
0.0234008
0.0236205
0.0239135
0.0242851
0.0247422
0.0252502
0.0257487
0.0261431
0.0259034
0.0241914
0.0198572
0.0117095
-0.00045964
-0.0167921
-0.0370129
-0.0596653
-0.0803251
-0.0943948
-0.0993525
-0.0936532
-0.0796804
-0.0605691
-0.0404956
-0.0221622
-0.00693101
0.00442069
0.0116553
0.0160743
0.0187127
0.0202809
0.0211994
0.0217329
0.0220221
0.0221622
0.0222104
0.0222086
0.0221977
0.0221923
0.0224202
0.0224634
0.0225657
0.022725
0.0229365
0.0231787
0.0234303
0.0236272
0.0236227
0.0231807
0.0218286
0.0185976
0.012828
0.00345625
-0.00887843
-0.0237885
-0.0406913
-0.0582726
-0.0711922
-0.0758242
-0.0719046
-0.0636574
-0.0517917
-0.035249
-0.019741
-0.00601392
0.00466546
0.0119668
0.0162444
0.0187281
0.0201788
0.0210095
0.0215071
0.021801
0.0219537
0.0220219
0.0220457
0.022041
0.0220254
0.021993
0.0216709
0.0216541
0.0216959
0.0217688
0.0218498
0.0218913
0.0218404
0.0216011
0.0209779
0.0195916
0.0169001
0.0117473
0.00372626
-0.00723102
-0.0206036
-0.0355346
-0.0501253
-0.0640962
-0.0731496
-0.0738398
-0.0688196
-0.0569914
-0.041285
-0.0240203
-0.00850763
0.00381181
0.0123543
0.0174238
0.0199391
0.0211324
0.0217237
0.0219008
0.0219512
0.0219161
0.0218725
0.0218204
0.0217742
0.0217325
0.0216976
0.0216773
0.0209532
0.0209602
0.0209651
0.0209464
0.0208744
0.0207037
0.0203344
0.0196445
0.01845
0.0162629
0.0123481
0.0055452
-0.00495693
-0.019013
-0.0358702
-0.0532716
-0.0689675
-0.081775
-0.0902486
-0.0903003
-0.0824991
-0.0642156
-0.0425799
-0.0225689
-0.00562737
0.00718686
0.0156966
0.0203241
0.0223364
0.0229768
0.0228631
0.0225778
0.0222409
0.0219144
0.0216659
0.0214781
0.0213414
0.0212583
0.021227
0.0212652
0.0202127
0.0202701
0.0202542
0.0201733
0.0199952
0.0196687
0.0190927
0.0181208
0.0165206
0.0138434
0.00929527
0.00165593
-0.00983403
-0.0256068
-0.0452303
-0.0661295
-0.0850944
-0.0993214
-0.110969
-0.11142
-0.093223
-0.070778
-0.045011
-0.0236598
-0.00581523
0.00700777
0.0158066
0.0206619
0.0230169
0.023656
0.0232312
0.0227286
0.0221762
0.0217124
0.0213647
0.021108
0.0209297
0.020833
0.0208028
0.0208526
0.0194481
0.019483
0.0194461
0.0193422
0.0191421
0.0187827
0.0181828
0.0172262
0.0156074
0.0129408
0.00854155
0.00143932
-0.0092171
-0.0236335
-0.0417423
-0.0615852
-0.0818579
-0.0968365
-0.108794
-0.10975
-0.0919813
-0.0697369
-0.0460132
-0.0254989
-0.00852745
0.0042832
0.0132293
0.0187163
0.0216965
0.0227577
0.0225937
0.0221858
0.0216761
0.0212743
0.0209577
0.020719
0.0205508
0.0204465
0.0203881
0.020367
0.0187851
0.0187696
0.0187249
0.0186386
0.0184723
0.0181788
0.0176989
0.0169145
0.0156223
0.01352
0.0100828
0.00464607
-0.00360008
-0.0146511
-0.0281304
-0.0438441
-0.0603029
-0.0738212
-0.0839976
-0.0866643
-0.0783455
-0.0642176
-0.0465319
-0.0289828
-0.0135929
-0.00105946
0.00836154
0.0148238
0.0186287
0.020419
0.0209586
0.0209222
0.0206663
0.020431
0.0202184
0.0200485
0.0199233
0.0198306
0.0197555
0.0196765
0.0183212
0.0183024
0.018271
0.0182093
0.0180956
0.0178988
0.0175728
0.017063
0.0162536
0.0149391
0.0127883
0.00937972
0.00396091
-0.00371569
-0.0130388
-0.0244982
-0.0367634
-0.048484
-0.05664
-0.0614397
-0.0631578
-0.0572359
-0.0460921
-0.0322771
-0.0192171
-0.00757053
0.00187909
0.00912671
0.0139925
0.016831
0.0183276
0.0189045
0.0190831
0.0190921
0.019034
0.0189661
0.0189055
0.0188586
0.018823
0.018787
0.017932
0.0179433
0.0179322
0.0179005
0.0178421
0.0177575
0.0176174
0.0174071
0.0170578
0.0165128
0.0155124
0.0137485
0.0106473
0.00534951
-0.00207209
-0.0117579
-0.0227031
-0.0343428
-0.04395
-0.0510762
-0.0545022
-0.0540929
-0.0472328
-0.0366095
-0.0257798
-0.0150567
-0.00555973
0.00230985
0.00827775
0.0124206
0.0150159
0.0163937
0.0171337
0.0174879
0.0176516
0.0177186
0.0177403
0.0177526
0.0177725
0.0178168
0.0174634
0.0174461
0.0174508
0.0174651
0.0174924
0.0175424
0.0176093
0.0176994
0.0177841
0.0178614
0.0176879
0.016936
0.0150177
0.0109501
0.00400081
-0.00571326
-0.0177466
-0.0311798
-0.0442124
-0.0548161
-0.0594637
-0.0605737
-0.0557607
-0.0470637
-0.0370934
-0.0261678
-0.0153714
-0.00572244
0.00214397
0.00800272
0.011736
0.0139324
0.0152121
0.0159403
0.0163658
0.0166069
0.0167358
0.0168091
0.016856
0.0169139
0.0169442
0.0168887
0.0168873
0.0169317
0.0170314
0.01719
0.0174218
0.0177288
0.018144
0.0185951
0.0189122
0.0185211
0.016889
0.0134282
0.00681437
-0.00285819
-0.0156784
-0.0307539
-0.047613
-0.0624659
-0.0740012
-0.0758982
-0.0706288
-0.0621452
-0.0507528
-0.0378172
-0.0243475
-0.0120219
-0.00229649
0.00467388
0.00921838
0.011929
0.0136239
0.0146628
0.015314
0.0157036
0.0159407
0.0160663
0.0161223
0.0161091
0.0164259
0.0163887
0.0164044
0.0164671
0.01659
0.0167802
0.0170518
0.0174133
0.0178922
0.0183206
0.018635
0.0181013
0.0162202
0.0128228
0.00661534
-0.00246456
-0.014897
-0.0300689
-0.048468
-0.0656347
-0.0807529
-0.0833831
-0.0775547
-0.0684182
-0.0548207
-0.0404986
-0.026107
-0.0134162
-0.00384534
0.00320082
0.00794008
0.0107938
0.0126073
0.0137124
0.0144368
0.0148888
0.0151674
0.0153159
0.0153729
0.0153253
0.0158121
0.0158476
0.0158924
0.0159562
0.0160537
0.0161951
0.0163866
0.0166325
0.01692
0.0170501
0.0168377
0.0156946
0.0131416
0.00893011
0.00247614
-0.00647582
-0.0178426
-0.0313527
-0.0464085
-0.0602381
-0.0710853
-0.072398
-0.0662507
-0.057322
-0.0449419
-0.0320337
-0.0199203
-0.00965597
-0.0017176
0.00423751
0.00817565
0.0106464
0.0121869
0.0131552
0.0137691
0.0141565
0.0143885
0.0145176
0.0145838
0.0145814
0.0150223
0.0150746
0.015107
0.0151366
0.0151699
0.0152122
0.0152515
0.0152668
0.0151814
0.0147822
0.0136909
0.0116266
0.00811053
0.00286746
-0.00411457
-0.0128389
-0.0228863
-0.033611
-0.0436511
-0.0510441
-0.0534328
-0.0514669
-0.045793
-0.037749
-0.0281907
-0.0185816
-0.0100772
-0.0029328
0.00272257
0.00688429
0.00958147
0.0112745
0.0123354
0.012994
0.0134142
0.0136781
0.013837
0.0139251
0.0139784
0.0140153
0.0140967
0.0140813
0.0140555
0.0140229
0.0139819
0.0139109
0.0137663
0.0134663
0.0128965
0.0118275
0.00990533
0.00682896
0.00245986
-0.00331287
-0.0104425
-0.0186734
-0.0272772
-0.035474
-0.0410421
-0.0432571
-0.0414047
-0.0369868
-0.0306669
-0.0228413
-0.0149493
-0.00739365
-0.00118671
0.00380356
0.00745515
0.00984178
0.0113299
0.0122119
0.0127581
0.0130962
0.0133155
0.0134574
0.0135478
0.0136
0.0136287
0.0136414
0.0131647
0.0130875
0.0130235
0.0129417
0.0128239
0.0126188
0.0122722
0.0116427
0.0105562
0.00869529
0.00574824
0.00152153
-0.00394592
-0.0106153
-0.018147
-0.0261731
-0.0337681
-0.0401475
-0.0431019
-0.0422093
-0.0396544
-0.0333425
-0.025112
-0.0161038
-0.00750102
-0.00028689
0.00519041
0.00903641
0.0112487
0.0123398
0.0128752
0.0130741
0.0131654
0.0132079
0.0132351
0.0132509
0.0132689
0.0132791
0.0132804
0.013269
0.0123631
0.0123157
0.0122421
0.0121172
0.0119083
0.0115574
0.0109939
0.0100702
0.00854954
0.00603059
0.00203533
-0.00361403
-0.0109187
-0.0195154
-0.0285778
-0.0374394
-0.0451876
-0.0509035
-0.0532415
-0.0503309
-0.0438404
-0.0344584
-0.0234298
-0.0124937
-0.00304249
0.00424422
0.00931081
0.012251
0.0137032
0.014097
0.0139125
0.0136242
0.0133542
0.0131404
0.0129853
0.0128742
0.0128115
0.0127827
0.0127804
0.0128067
0.0116549
0.0116855
0.0116212
0.0114735
0.0111948
0.0107414
0.0100282
0.00890363
0.00713442
0.00433223
-0.000160632
-0.00649543
-0.0149096
-0.025261
-0.036131
-0.0464417
-0.0554672
-0.0613889
-0.0637592
-0.0594966
-0.0472059
-0.0346573
-0.0213791
-0.0094794
-0.000244396
0.00658569
0.0109719
0.0132531
0.0144112
0.0145821
0.014133
0.0136583
0.0132194
0.0128653
0.012603
0.0124247
0.0123155
0.0122681
0.0122667
0.012322
0.0109714
0.0110099
0.010948
0.010804
0.010532
0.0100915
0.00940114
0.00832903
0.00662544
0.00396346
-0.000106366
-0.00591633
-0.0135373
-0.023165
-0.0337771
-0.0441023
-0.0533296
-0.0594929
-0.0620713
-0.0579892
-0.0466419
-0.0338788
-0.0210269
-0.0100712
-0.00157951
0.00483824
0.00910502
0.0115297
0.01298
0.0135014
0.0133532
0.0130644
0.0126859
0.0123798
0.0121495
0.0119893
0.0118851
0.0118278
0.0118048
0.0118168
0.01038
0.0103661
0.0103048
0.0101946
0.00999507
0.0096693
0.00915501
0.00834338
0.00705344
0.00501359
0.00195557
-0.00241077
-0.0079508
-0.0149913
-0.0230194
-0.0312583
-0.0389653
-0.0447396
-0.0478776
-0.0467579
-0.041527
-0.0330554
-0.0237269
-0.0150826
-0.00747473
-0.00106582
0.00379055
0.00725584
0.00959511
0.01092
0.0114953
0.0116705
0.0116155
0.0115097
0.0114263
0.0113594
0.0113118
0.0112745
0.0112405
0.0111959
0.00998743
0.00995296
0.00991239
0.00985
0.00973798
0.00955034
0.00925463
0.00878959
0.00803944
0.00683973
0.00491137
0.00209667
-0.00146615
-0.00601959
-0.0114465
-0.0174838
-0.0235581
-0.0289389
-0.0332142
-0.0353975
-0.0350344
-0.0316365
-0.0266019
-0.0203248
-0.0136263
-0.00746465
-0.00217424
0.00207174
0.00521386
0.00745584
0.00885108
0.00961318
0.00999552
0.0102004
0.0103106
0.0103687
0.010407
0.0104316
0.0104402
0.0104191
0.0097284
0.00972837
0.00971572
0.00969115
0.00964684
0.00958037
0.00947213
0.00931626
0.00903806
0.00856506
0.00766212
0.00615588
0.00389098
0.000647853
-0.00358976
-0.00880726
-0.0147545
-0.0205151
-0.0257385
-0.0297133
-0.0314277
-0.0318736
-0.0299134
-0.0252705
-0.0193812
-0.013457
-0.0079265
-0.0030825
0.000801142
0.00382221
0.00597766
0.00736729
0.00823037
0.00875246
0.00905777
0.00923937
0.0093537
0.00943876
0.00950605
0.00956173
0.00941395
0.00942028
0.00942855
0.00944269
0.00946602
0.00950959
0.00957114
0.0096663
0.00976748
0.00984211
0.00974883
0.00923115
0.00783931
0.00538777
0.0016126
-0.00352815
-0.0100049
-0.0173161
-0.0242846
-0.0299718
-0.0343273
-0.0371491
-0.0366665
-0.0329585
-0.0275636
-0.0214106
-0.0150528
-0.00909816
-0.00392457
0.000218005
0.0032698
0.00536465
0.00669837
0.0075078
0.00799425
0.00829702
0.00848513
0.00861099
0.0087007
0.00878829
0.00901587
0.00898406
0.0089865
0.00902235
0.00910338
0.00923839
0.0094322
0.00970516
0.0100949
0.010502
0.010924
0.0110166
0.0103102
0.00876637
0.00575301
0.00100373
-0.00551716
-0.0142758
-0.0236256
-0.0322204
-0.0403774
-0.0460404
-0.0464175
-0.0426546
-0.037121
-0.0300114
-0.0221961
-0.0146141
-0.00782021
-0.00254337
0.00125208
0.00387704
0.00554595
0.00657975
0.00722613
0.00764513
0.00790617
0.00806207
0.00814476
0.00816389
0.00860681
0.00856506
0.00856967
0.00861394
0.00871579
0.00888023
0.0091192
0.00944607
0.00987483
0.0103182
0.0107481
0.0108805
0.0104362
0.00937003
0.00693128
0.0027245
-0.00326629
-0.0121441
-0.0225908
-0.0332653
-0.0428551
-0.0493946
-0.0499521
-0.0460808
-0.0402273
-0.0324583
-0.0240529
-0.0158648
-0.00883509
-0.00351326
0.000425488
0.00313679
0.00487308
0.00595442
0.0066677
0.00713738
0.00742697
0.00758435
0.0076502
0.00761454
0.00816393
0.0081699
0.0081942
0.00823684
0.00830699
0.008413
0.00856827
0.0087695
0.00899631
0.0091118
0.00908503
0.00858376
0.0075145
0.00574587
0.00288819
-0.00133521
-0.00694118
-0.0140398
-0.0225686
-0.0311712
-0.0377937
-0.0423291
-0.041798
-0.0380509
-0.0326695
-0.0258342
-0.0187235
-0.01203
-0.00647619
-0.00216595
0.00109141
0.00330177
0.00473468
0.00568408
0.0062965
0.00667728
0.00691922
0.00705706
0.00712207
0.00710658
0.00760511
0.00764152
0.00765544
0.00765608
0.00764821
0.00763259
0.0076032
0.00753585
0.0073749
0.00695636
0.0061283
0.00469591
0.00261323
-0.000193162
-0.00377561
-0.00813872
-0.0131818
-0.0183324
-0.0233096
-0.0276775
-0.03007
-0.030402
-0.0281478
-0.0246995
-0.0201238
-0.0150859
-0.0101639
-0.00575679
-0.00220879
0.000657327
0.00280819
0.00423495
0.00518895
0.00579309
0.0061795
0.00642369
0.00657394
0.00666326
0.0067153
0.00674401
0.0069198
0.00691105
0.00687074
0.00680444
0.00670854
0.0065627
0.0063351
0.00596746
0.00537154
0.00441292
0.00289472
0.000745743
-0.00206626
-0.00560124
-0.00976906
-0.0141762
-0.0187571
-0.022425
-0.0242961
-0.0248272
-0.0243328
-0.0220099
-0.0187259
-0.0149896
-0.0107614
-0.00667573
-0.003143
-0.000304763
0.0018895
0.00360134
0.00473542
0.0054372
0.00589241
0.00614605
0.00630822
0.00641831
0.00648807
0.00652182
0.00654176
0.00656221
0.00621811
0.00614185
0.00605801
0.00594447
0.00578408
0.0055331
0.00512848
0.00448625
0.00346349
0.00194085
-0.000242387
-0.00313539
-0.00681833
-0.0111988
-0.0160023
-0.0206259
-0.0247334
-0.0271665
-0.0273361
-0.0253604
-0.0226513
-0.0189342
-0.0146201
-0.00989757
-0.00528059
-0.00136569
0.00165809
0.00373297
0.00513022
0.00595789
0.00628026
0.0064281
0.00646642
0.00645669
0.00644945
0.00644964
0.00645561
0.00645312
0.0064482
0.00643505
0.0056533
0.00558756
0.00549159
0.00534458
0.00512059
0.00477227
0.00422753
0.00335554
0.00196182
-0.000148125
-0.00314659
-0.0071236
-0.0121192
-0.0177753
-0.0236244
-0.0289224
-0.032957
-0.034871
-0.0338678
-0.0294699
-0.0237499
-0.0178624
-0.0116086
-0.00551041
-0.000543276
0.00313354
0.00560802
0.00695325
0.0075666
0.00756188
0.00730102
0.0070154
0.00674654
0.00654067
0.00639911
0.00630447
0.00625167
0.00622227
0.00621016
0.00621349
0.00521346
0.005214
0.00514035
0.00498578
0.00471655
0.0042985
0.00364861
0.00263449
0.00102682
-0.00144617
-0.00490842
-0.00963599
-0.0156812
-0.0223979
-0.0292079
-0.0351945
-0.0394782
-0.0412289
-0.039412
-0.0330661
-0.0250801
-0.0167611
-0.00864388
-0.00172575
0.00312749
0.00631337
0.00802575
0.0086913
0.00867292
0.00815839
0.00765309
0.00714621
0.00670372
0.00638612
0.00615991
0.00600909
0.00592057
0.00588312
0.00588288
0.00592079
0.00481911
0.00484867
0.0047902
0.00464766
0.0043886
0.0039759
0.00333438
0.00234348
0.000842912
-0.00146752
-0.00469456
-0.00905043
-0.0146441
-0.0209355
-0.027344
-0.0330825
-0.0372667
-0.0391922
-0.0378724
-0.0322558
-0.0248073
-0.0166832
-0.00888899
-0.00255882
0.00201562
0.00502702
0.00671651
0.00750802
0.00765946
0.00738279
0.00708885
0.00670805
0.00635777
0.00607675
0.00586841
0.00572943
0.00564634
0.00560868
0.00560204
0.00563233
0.00450346
0.00449696
0.00443879
0.00432774
0.00413809
0.00382881
0.00334972
0.00260718
0.00147337
-0.000207033
-0.00255602
-0.00563149
-0.00954421
-0.0140624
-0.0188357
-0.023295
-0.0269009
-0.0291213
-0.0295986
-0.0270905
-0.0229921
-0.0178174
-0.0126261
-0.00793877
-0.00384516
-0.0006528
0.00171254
0.00341309
0.00453594
0.00520668
0.00553085
0.00559657
0.00555752
0.00548048
0.00541273
0.00536929
0.00534381
0.00532885
0.00531431
0.00529773
0.00434069
0.00430887
0.00426953
0.00421186
0.00411552
0.00396112
0.00371344
0.00331409
0.00268832
0.00173716
0.000354935
-0.00145074
-0.00375434
-0.0065611
-0.00978145
-0.0131966
-0.016352
-0.0190815
-0.02106
-0.0215436
-0.0207447
-0.0189801
-0.0166986
-0.0135819
-0.00999732
-0.00663629
-0.00365854
-0.00118834
0.00079817
0.00230243
0.00330829
0.00393499
0.00430695
0.00452475
0.00465894
0.00474768
0.00480853
0.00484635
0.00485895
0.0048413
0.00431688
0.00431025
0.00430568
0.00429689
0.0042761
0.00424583
0.00419278
0.0040903
0.00389746
0.00352893
0.00291973
0.00192296
0.000510212
-0.00139339
-0.00387669
-0.00695633
-0.0102039
-0.0132696
-0.0158992
-0.0181626
-0.0197918
-0.0208294
-0.0205527
-0.0185354
-0.0153938
-0.0118418
-0.00831116
-0.00514748
-0.00249793
-0.000431568
0.00112942
0.00222537
0.00296048
0.00345328
0.00376981
0.00397421
0.00410854
0.00420149
0.004263
0.00430557
0.00429878
0.00431967
0.00433536
0.00435704
0.00438853
0.00444153
0.00451627
0.00461688
0.00473619
0.00480416
0.00478172
0.00445841
0.00373707
0.00245888
0.000440359
-0.00242106
-0.00616522
-0.0100426
-0.0138279
-0.0177589
-0.0215529
-0.0247285
-0.0258265
-0.0246284
-0.0217166
-0.0178138
-0.0135482
-0.00941705
-0.00582414
-0.00296103
-0.000784854
0.000793862
0.00187567
0.00259257
0.00304858
0.00334531
0.00354183
0.003679