/*--------------------------------*- C++ -*----------------------------------*\
| =========                 |                                                 |
| \\      /  F ield         | OpenFOAM: The Open Source CFD Toolbox           |
|  \\    /   O peration     | Version:  v2106                                 |
|   \\  /    A nd           | Website:  www.openfoam.com                      |
|    \\/     M anipulation  |                                                 |
\*---------------------------------------------------------------------------*/
FoamFile
{
    version     2.0;
    format      ascii;
    arch        "LSB;label=32;scalar=64";
    class       volScalarField;
    location    "0";
    object      p;
}
// * * * * * * * * * * * * * * * * * * * * * * * * * * * * * * * * * * * * * //

dimensions      [0 2 -2 0 0 0 0];

internalField   nonuniform List<scalar> 
11644
(
0.0255582
0.026001
0.0269353
0.0283846
0.0303592
0.0328784
0.0359684
0.0396533
0.0439481
0.0488539
0.0543559
0.0603988
0.0668978
0.0737404
0.0807505
0.0877354
0.0944538
0.100645
0.106107
0.110633
0.113996
0.116049
0.116836
0.116585
0.115343
0.113166
0.110325
0.107045
0.103512
0.0999226
0.0964149
0.0930927
0.0900374
0.0873044
0.0849294
0.0829353
0.0813354
0.0801387
0.0793558
0.0789816
0.0247773
0.0252112
0.0261082
0.0274965
0.0294015
0.0318502
0.0348735
0.0385023
0.0427624
0.0476702
0.0532225
0.0593945
0.066123
0.0732765
0.0806951
0.0881477
0.0953725
0.102087
0.107969
0.112702
0.116086
0.118093
0.118751
0.118208
0.1166
0.114098
0.110911
0.107297
0.103491
0.0996724
0.0959879
0.0925447
0.0894107
0.0866321
0.0842361
0.0822393
0.0806493
0.0794691
0.0786977
0.0783243
0.0230903
0.0235194
0.0243766
0.0256818
0.0274707
0.029785
0.0326679
0.0361674
0.0403345
0.0452155
0.0508484
0.0572554
0.0644073
0.0722184
0.0805121
0.0890141
0.0973991
0.105213
0.111923
0.117192
0.120827
0.122796
0.123042
0.121796
0.11933
0.115963
0.11199
0.107688
0.103305
0.0990425
0.0950352
0.0913704
0.0880981
0.0852426
0.0828135
0.0808105
0.0792278
0.0780555
0.0772788
0.0768894
0.0205721
0.0209682
0.0217562
0.0229444
0.0245706
0.0266859
0.0293501
0.0326347
0.0366236
0.0414148
0.0471135
0.0538191
0.0615952
0.0704137
0.0801367
0.0903304
0.100486
0.110143
0.118421
0.124787
0.12886
0.130527
0.129834
0.127267
0.123396
0.118601
0.113357
0.108004
0.102785
0.0978854
0.09343
0.0894727
0.0860275
0.0830848
0.0806226
0.0786163
0.0770417
0.0758741
0.0750942
0.074698
0.0173275
0.0176642
0.0183331
0.0193473
0.0207428
0.0225738
0.0249152
0.0278625
0.0315394
0.0361041
0.0417612
0.0487581
0.0573063
0.0675072
0.0792527
0.0919579
0.104694
0.117464
0.128444
0.13654
0.141129
0.141953
0.139511
0.134513
0.128317
0.121353
0.114328
0.107625
0.101442
0.0958578
0.0909235
0.0866714
0.0830721
0.080066
0.0775967
0.0756118
0.0740675
0.0729281
0.0721689
0.0717871
0.0134947
0.0137397
0.0142375
0.015005
0.016076
0.0175072
0.0193783
0.0218019
0.0249392
0.0290457
0.0344826
0.0416472
0.0509082
0.0625336
0.0768121
0.0932634
0.110184
0.127848
0.143237
0.154348
0.1596
0.15858
0.15271
0.143486
0.133397
0.123237
0.113725
0.105443
0.0983771
0.0923213
0.0871156
0.0827039
0.0790465
0.0760648
0.0736644
0.0717658
0.0703055
0.0692389
0.0685351
0.0681807
0.00921755
0.00935785
0.00963835
0.0100784
0.0107149
0.0116003
0.0128101
0.0144617
0.0167593
0.0200949
0.0249365
0.031738
0.0409682
0.0536891
0.0706796
0.0919012
0.110365
0.132548
0.154073
0.171076
0.179544
0.178315
0.169229
0.155669
0.137201
0.122572
0.110037
0.100269
0.0926258
0.0864794
0.0814428
0.0772387
0.0737639
0.0709769
0.0687805
0.0670724
0.0657773
0.0648407
0.0642332
0.0639322
0.0046844
0.00469187
0.00471465
0.00476422
0.00486402
0.00505248
0.00539412
0.00599662
0.00711651
0.00918802
0.012623
0.0179629
0.0260932
0.0389161
0.0558081
0.0777612
0.108688
0.144344
0.179906
0.208071
0.219985
0.21338
0.193288
0.16824
0.14392
0.122112
0.107328
0.0909269
0.0834305
0.0777857
0.0734512
0.069958
0.0670663
0.0647387
0.0629347
0.0615587
0.0605346
0.0598105
0.0593406
0.0591133
0.000110287
-2.24667e-05
-0.000286498
-0.000683305
-0.00120657
-0.00184309
-0.00255575
-0.00326884
-0.0037311
-0.00361712
-0.00262736
-0.000320465
0.00398659
0.018649
0.0332285
0.0580916
0.092459
0.141732
0.201811
0.254713
0.279028
0.263943
0.223416
0.179664
0.141487
0.111561
0.0944761
0.0760544
0.0701041
0.0660476
0.0630815
0.06078
0.0589026
0.0573746
0.0562007
0.0553277
0.0546882
0.0542391
0.0539534
0.0538025
-0.00426576
-0.00452909
-0.00509136
-0.00595547
-0.00714545
-0.00868598
-0.0105956
-0.0128461
-0.0153155
-0.0179262
-0.0205316
-0.0229136
-0.0251337
-0.0152667
-0.00850039
0.0138771
0.0495647
0.111668
0.211384
0.330309
0.390654
0.343614
0.247063
0.168669
0.114535
0.0803458
0.0684066
0.0544702
0.0526839
0.0514492
0.0505583
0.0499429
0.0494631
0.0490428
0.0487249
0.0485142
0.048379
0.0482854
0.0482294
0.0482078
-0.00813009
-0.00856401
-0.00941625
-0.0107396
-0.0125758
-0.0150038
-0.018144
-0.0220548
-0.026799
-0.032644
-0.0398427
-0.0485675
-0.0593761
-0.060978
-0.0700779
-0.0705084
-0.0601683
-0.0291891
0.0882025
0.359904
0.580031
0.3855
0.164094
0.0700644
0.0376706
0.026816
0.0303299
0.0275995
0.0316363
0.0343022
0.0363539
0.0379728
0.039197
0.0400966
0.040808
0.0413874
0.0418406
0.0421721
0.0423778
0.0424682
-0.0113339
-0.0118557
-0.0129563
-0.0146716
-0.0170749
-0.0202846
-0.0245119
-0.0299534
-0.0368937
-0.0458746
-0.0576526
-0.0732585
-0.0941617
-0.105399
-0.141451
-0.173751
-0.232955
-0.35163
-0.64652
-0.364306
-0.152619
-0.0731021
-0.0364639
-0.0132448
-0.0013004
0.00882898
0.0161233
0.0216066
0.0256791
0.0287327
0.0310532
0.0328626
0.0342772
0.0353311
0.0360853
0.0365812
0.0368329
-0.0136028
-0.0142213
-0.0154964
-0.0174701
-0.0202677
-0.024019
-0.0289754
-0.0354744
-0.0439909
-0.0552301
-0.0702421
-0.0906394
-0.118191
-0.142812
-0.195405
-0.256512
-0.363334
-0.569427
-0.822205
-0.395541
-0.27339
-0.149919
-0.0859137
-0.0496262
-0.0263731
-0.0113771
-0.000306728
0.00797019
0.0141471
0.0188707
0.0225317
0.025372
0.027552
0.0291699
0.0303383
0.0311252
0.0315205
-0.0147536
-0.0154675
-0.0168251
-0.0189228
-0.0218628
-0.0258028
-0.0309769
-0.0377847
-0.0468086
-0.0587587
-0.0747322
-0.09624
-0.125207
-0.156479
-0.212184
-0.281619
-0.388332
-0.543699
-0.623293
-0.306656
-0.247856
-0.160509
-0.10338
-0.0697718
-0.0424387
-0.0257371
-0.0128874
-0.00306187
0.00450917
0.0104549
0.0151711
0.0188539
0.0216354
0.0236934
0.0251588
0.0261129
0.0266441
-0.0149932
-0.015576
-0.0168765
-0.0188888
-0.0216895
-0.0254471
-0.0302719
-0.0365371
-0.0448785
-0.0558
-0.0702555
-0.0891205
-0.113676
-0.144916
-0.192973
-0.259028
-0.359958
-0.518638
-0.667829
-0.711682
-0.607612
-0.374235
-0.222898
-0.166418
-0.133747
-0.0994428
-0.0741901
-0.0491307
-0.0334755
-0.0206884
-0.0105195
-0.00240122
0.00414423
0.00947343
0.0136723
0.0168223
0.019156
0.0207979
0.021849
0.0222983
-0.014201
-0.0146702
-0.0157883
-0.0174981
-0.0198782
-0.0230196
-0.0269056
-0.031827
-0.0382851
-0.0464787
-0.0568651
-0.0700623
-0.0864591
-0.113379
-0.1459
-0.194761
-0.278527
-0.425951
-0.674343
-0.823098
-0.686175
-0.334867
-0.123175
-0.105368
-0.114802
-0.093862
-0.073152
-0.049541
-0.0354705
-0.0236956
-0.0140748
-0.00612279
0.000434133
0.00585959
0.0101203
0.0133589
0.0157963
0.0175077
0.0185394
0.0188739
-0.0122211
-0.0126913
-0.0135304
-0.0147957
-0.0165107
-0.0186737
-0.0212588
-0.0242433
-0.0279222
-0.0323886
-0.0376441
-0.0440188
-0.051227
-0.0576414
-0.0825915
-0.102179
-0.151211
-0.214015
-0.328844
-0.454641
-0.446705
-0.292216
-0.186019
-0.176761
-0.134235
-0.0980711
-0.064797
-0.0467104
-0.0335594
-0.0227258
-0.0139239
-0.00658661
-0.000476987
0.00448716
0.00839139
0.0114282
0.0137086
0.0152971
0.0162889
0.0167598
-0.00921727
-0.00955727
-0.010047
-0.0107564
-0.011656
-0.0127199
-0.0139452
-0.0150368
-0.0160478
-0.0169895
-0.0174877
-0.0172744
-0.0155958
-0.0134869
-0.0191673
-0.0149544
-0.0286231
-0.0514693
-0.117104
-0.247677
-0.364452
-0.384662
-0.348508
-0.267039
-0.15569
-0.10194
-0.0596428
-0.0417047
-0.0288259
-0.0187172
-0.0108493
-0.00443185
0.000839695
0.00507038
0.00839655
0.0109893
0.0129548
0.0143692
0.0153222
0.0158448
-0.00551011
-0.00557925
-0.00574941
-0.00595967
-0.00614229
-0.00623385
-0.00617276
-0.00574587
-0.00478407
-0.00298586
8.10271e-05
0.00503394
0.0132177
0.0217028
0.0269215
0.0449921
0.0486471
0.0290783
-0.0756868
-0.268576
-0.42508
-0.459508
-0.382926
-0.249659
-0.135794
-0.0874537
-0.0480209
-0.0318684
-0.0204535
-0.0119424
-0.00546376
-0.000281625
0.00390824
0.00724455
0.00985745
0.0119043
0.0134752
0.0146278
0.0154167
0.0158362
-0.00161176
-0.00153344
-0.00143245
-0.00124978
-0.000918655
-0.000358009
0.000578302
0.00204445
0.00431242
0.00772906
0.0126767
0.0197736
0.0304512
0.0423108
0.0505786
0.068871
0.0717559
0.0338678
-0.0680573
-0.220991
-0.323697
-0.318403
-0.239031
-0.151887
-0.08692
-0.0573954
-0.027067
-0.0161697
-0.00827557
-0.00244984
0.00197782
0.00550813
0.00834009
0.0105965
0.0123922
0.0138227
0.0149253
0.0157301
0.0162673
0.0165431
0.00207364
0.00220707
0.00249605
0.00293752
0.00356902
0.00447733
0.00575651
0.00756959
0.0101555
0.013789
0.0186508
0.0247943
0.0331087
0.0419228
0.0488789
0.0527067
0.0433562
0.00272456
-0.063878
-0.131223
-0.16349
-0.150861
-0.115008
-0.0817005
-0.0460447
-0.0259149
-0.00485735
0.00127548
0.00558663
0.0085715
0.0105957
0.0121842
0.013466
0.0145594
0.0155039
0.0162909
0.0169128
0.0173609
0.01764
0.0177765
0.00556772
0.00572071
0.00605912
0.00658667
0.00731611
0.00829668
0.0095719
0.0111911
0.0132695
0.0159017
0.0190698
0.0226178
0.0257499
0.0291638
0.0150455
0.00436999
-0.0233795
-0.073245
-0.124015
-0.142439
-0.13234
-0.103525
-0.0687093
-0.0377935
-0.0155261
0.00675705
0.0135863
0.0169961
0.0185483
0.0188764
0.0188048
0.0186471
0.0185272
0.0185302
0.0186535
0.018834
0.0190246
0.0191849
0.01928
0.019299
0.00884169
0.00899843
0.00932198
0.00982952
0.0105155
0.0113923
0.0124821
0.0137433
0.0151062
0.0164064
0.0172458
0.0179256
0.0146117
0.00738206
-0.00899509
-0.0700156
-0.129193
-0.185614
-0.23741
-0.234124
-0.181047
-0.115418
-0.0552911
-0.0125632
0.0114898
0.0243087
0.0280344
0.0293874
0.0287439
0.0270417
0.0254329
0.0239854
0.0228486
0.0220119
0.021477
0.0211291
0.0209292
0.0208356
0.0208037
0.0207931
0.0118192
0.011957
0.0122629
0.012733
0.0133532
0.0141049
0.0149748
0.015901
0.0167229
0.0171334
0.0164622
0.0143351
0.00787396
-0.00607398
-0.0308488
-0.0827851
-0.144507
-0.212949
-0.277824
-0.289172
-0.223662
-0.149748
-0.0761222
-0.019349
0.0149956
0.0327254
0.0386916
0.0381402
0.0357393
0.0327808
0.0301024
0.0278221
0.026088
0.0247586
0.0238106
0.0230906
0.0225993
0.0222925
0.022134
0.0221331
0.0144736
0.0146061
0.0149058
0.0153575
0.0159464
0.016639
0.0173816
0.0180899
0.0185996
0.0186356
0.0175025
0.0144707
0.00802659
-0.00581575
-0.0303284
-0.0701259
-0.120811
-0.174456
-0.221735
-0.230492
-0.18682
-0.129799
-0.0714124
-0.0223956
0.0105899
0.0319797
0.0424086
0.0433186
0.0398686
0.0362867
0.0330117
0.0303489
0.028324
0.0267689
0.0255836
0.0247005
0.0240883
0.0236852
0.0234525
0.02339
0.0167314
0.0168988
0.017236
0.0177129
0.0183152
0.0190084
0.0197339
0.0204009
0.0209246
0.0211207
0.0205908
0.018494
0.0143407
0.00550785
-0.0101184
-0.0362548
-0.0704828
-0.105809
-0.133585
-0.14399
-0.131128
-0.102514
-0.0645766
-0.0254272
0.00553682
0.0261375
0.0380489
0.0418007
0.0400191
0.037016
0.0340055
0.031535
0.0295617
0.0279873
0.0267664
0.0258594
0.0252165
0.0247827
0.0245175
0.0243725
0.0186205
0.0188439
0.0192022
0.0196931
0.020308
0.0210331
0.0218398
0.022673
0.0234707
0.0241587
0.024415
0.0238544
0.0219389
0.0180049
0.00963254
-0.00679022
-0.031365
-0.0588024
-0.0816217
-0.0974467
-0.103118
-0.0929444
-0.0687129
-0.0373241
-0.00862395
0.0127861
0.0263449
0.0331845
0.0348044
0.033992
0.0325248
0.0309599
0.0294875
0.0282174
0.0271923
0.0263936
0.0257905
0.0253531
0.0250663
0.0249286
0.0202255
0.0204439
0.0207702
0.0212438
0.021871
0.0226567
0.0236025
0.0246883
0.025883
0.0270467
0.0279249
0.0280868
0.0267674
0.023046
0.0168172
0.00552638
-0.0148432
-0.0412972
-0.0704195
-0.0937342
-0.103529
-0.101411
-0.0839472
-0.058796
-0.0325049
-0.0096806
0.00845189
0.0207842
0.0265064
0.0286296
0.02918
0.0288825
0.0282727
0.0276025
0.0269624
0.0263942
0.0259314
0.0255833
0.0253507
0.0252284
0.0214792
0.0215821
0.0219034
0.0224029
0.0230792
0.0239376
0.0249912
0.0262499
0.0276994
0.0291656
0.0304203
0.0310739
0.0299804
0.025658
0.0166031
0.00216195
-0.0200979
-0.0497936
-0.0856196
-0.117436
-0.134682
-0.134893
-0.119527
-0.0939462
-0.0618765
-0.0319686
-0.00705473
0.0100479
0.0189868
0.0236067
0.025731
0.0264987
0.0267606
0.0267038
0.0264672
0.0261739
0.0258989
0.0256648
0.025485
0.0253678
0.0224304
0.0224716
0.0227622
0.0232506
0.0239348
0.0248083
0.0258772
0.0271535
0.0286171
0.0301593
0.0314234
0.0332521
0.0321558
0.0274521
0.0164571
-0.00269809
-0.0294556
-0.0634127
-0.105933
-0.144736
-0.170863
-0.171169
-0.148038
-0.118396
-0.0781165
-0.0428533
-0.0145191
0.00363967
0.0143447
0.0201802
0.023263
0.0248317
0.0256165
0.0258659
0.0259182
0.0258429
0.0257125
0.0255764
0.0254563
0.0253594
0.0231194
0.0232336
0.0234835
0.0238943
0.0244919
0.0252777
0.0262514
0.0274175
0.0287788
0.0303311
0.0316828
0.0329425
0.0312492
0.0251463
0.013978
-0.00424935
-0.0297021
-0.0623035
-0.102232
-0.137606
-0.163869
-0.159965
-0.13593
-0.105797
-0.0699218
-0.0393311
-0.0145984
0.00214911
0.012829
0.0188127
0.0221409
0.0239522
0.0249001
0.0253258
0.025493
0.0255227
0.0254762
0.0254086
0.0253457
0.025294
0.023406
0.0235717
0.0238239
0.0241887
0.0246952
0.0253579
0.0261838
0.0271634
0.0282984
0.0295635
0.0305311
0.0306447
0.0277917
0.0206738
0.00882781
-0.00806759
-0.0302872
-0.0574984
-0.084853
-0.106139
-0.119304
-0.11356
-0.0958086
-0.0717555
-0.0462763
-0.0243718
-0.00589868
0.00683372
0.0149942
0.0196842
0.0224079
0.0239274
0.024745
0.025167
0.025352
0.0254014
0.0253724
0.0253139
0.0252587
0.0252337
0.0233074
0.0234229
0.0236426
0.0239651
0.0243899
0.0249174
0.0255465
0.0262482
0.0269409
0.027467
0.0274991
0.026077
0.0218627
0.0135288
0.000547157
-0.0162638
-0.0358955
-0.0572171
-0.0744154
-0.0825575
-0.0814861
-0.0739473
-0.0608427
-0.0420364
-0.02386
-0.0072908
0.00580776
0.014305
0.0191908
0.0219494
0.0235627
0.0244833
0.0249986
0.0252768
0.0253872
0.0254006
0.025364
0.0253058
0.0252525
0.0252088
0.0230226
0.0230747
0.0232109
0.0234287
0.0237141
0.0240403
0.0243682
0.0246257
0.0246563
0.0241239
0.0226549
0.0192152
0.0126638
0.00261724
-0.0108963
-0.0270862
-0.0442121
-0.0609878
-0.0729447
-0.0755514
-0.0700508
-0.0581209
-0.0423526
-0.0241348
-0.00751834
0.00601053
0.0148721
0.0201046
0.0227918
0.0242255
0.0249911
0.0253132
0.0254371
0.0254515
0.0254035
0.0253386
0.0252762
0.0252182
0.0251715
0.0251156
0.0226606
0.0226877
0.0227756
0.0228913
0.0230089
0.0230845
0.023051
0.0227944
0.0221397
0.0206572
0.0176492
0.0120572
0.00245368
-0.0106801
-0.0266742
-0.044499
-0.0610453
-0.0754395
-0.0852445
-0.0858375
-0.0783478
-0.0608509
-0.0390919
-0.0182597
-0.000887481
0.0114349
0.0187695
0.0231586
0.0254084
0.0262731
0.0264203
0.0261974
0.025888
0.0255937
0.0253521
0.0251626
0.0250165
0.0249135
0.0248508
0.0248653
0.0222459
0.0223081
0.0223535
0.0223778
0.0223403
0.0222053
0.0218981
0.0212634
0.0200943
0.0179808
0.014078
0.00738063
-0.00386892
-0.0200358
-0.0406287
-0.0630712
-0.0833304
-0.0982412
-0.109338
-0.109764
-0.0952745
-0.0716241
-0.0449213
-0.0219811
-0.00319427
0.0105107
0.0199014
0.0251631
0.0273738
0.0277405
0.0272298
0.0266477
0.0260581
0.0255663
0.0251871
0.0248976
0.024685
0.0245568
0.0245064
0.0245508
0.0217847
0.0218578
0.0218623
0.0218277
0.0217107
0.0214861
0.0210508
0.020263
0.0188504
0.016446
0.012342
0.0054996
-0.0053069
-0.0210302
-0.0415625
-0.0648703
-0.0882126
-0.105441
-0.119179
-0.120756
-0.101496
-0.076209
-0.047468
-0.0241761
-0.00483463
0.00949069
0.0191721
0.0245316
0.0271019
0.0275767
0.0269643
0.0263843
0.0257605
0.02526
0.0248761
0.0245821
0.0243774
0.0242582
0.0242034
0.0241962
0.021319
0.0213419
0.021337
0.021299
0.0211881
0.0209681
0.0205609
0.0198488
0.0185884
0.0164704
0.0128733
0.00700459
-0.00199792
-0.0144318
-0.0300569
-0.0486429
-0.0691617
-0.0855467
-0.0982164
-0.101158
-0.0871874
-0.0677865
-0.0451408
-0.0242218
-0.00665649
0.00656759
0.0157125
0.0215108
0.0247469
0.0259217
0.0258125
0.0254404
0.024983
0.0246042
0.0243037
0.0240719
0.0239045
0.0237919
0.0237113
0.0236456
0.0209736
0.0209639
0.0209671
0.0209532
0.0208871
0.0207298
0.0204364
0.0199306
0.0190736
0.0176393
0.0151922
0.0111815
0.00479697
-0.00432802
-0.0156802
-0.0290806
-0.0437557
-0.0571828
-0.066361
-0.070213
-0.0678141
-0.0583935
-0.0439534
-0.0272641
-0.0123705
1.86586e-05
0.00976203
0.0167941
0.0210205
0.0230845
0.0237932
0.0238497
0.0237119
0.0235318
0.0233578
0.0232094
0.0230906
0.0229972
0.0229247
0.0228695
0.0207596
0.0207753
0.0207773
0.0207669
0.0207347
0.0206608
0.020516
0.0202578
0.0198202
0.0191071
0.0178918
0.0157989
0.0119214
0.00548922
-0.00331379
-0.0140273
-0.0257283
-0.0377428
-0.0470761
-0.053697
-0.0568131
-0.0538712
-0.0446769
-0.0320301
-0.0195078
-0.00785237
0.00229046
0.0102491
0.015682
0.018991
0.0207533
0.0215787
0.0219637
0.0220924
0.0221081
0.022082
0.0220458
0.0220188
0.0220106
0.0220185
0.0204746
0.020492
0.0205073
0.0205252
0.0205507
0.0205851
0.0206195
0.0206452
0.020623
0.0204771
0.0200421
0.0190769
0.0170737
0.0130234
0.00584332
-0.00435602
-0.0168929
-0.0305047
-0.0433184
-0.0528584
-0.057041
-0.0570915
-0.0505102
-0.0402824
-0.029025
-0.017553
-0.00684266
0.00213525
0.00918354
0.0142567
0.0173514
0.0190821
0.0200509
0.0205639
0.0208372
0.0209794
0.0210471
0.0210847
0.021116
0.0211589
0.0200784
0.0200359
0.0200592
0.0201204
0.0202272
0.0203836
0.0205902
0.0208723
0.0212282
0.0215568
0.021714
0.0212349
0.0194868
0.0158589
0.00902926
-0.00110826
-0.0145652
-0.0302475
-0.046443
-0.0606388
-0.069095
-0.0699564
-0.0644986
-0.0551121
-0.043532
-0.030487
-0.0171963
-0.00543987
0.00385303
0.0104972
0.0145739
0.0169444
0.0183751
0.0192218
0.0197401
0.0200451
0.0202089
0.0202909
0.0203268
0.0203459
0.0196823
0.019636
0.0196508
0.0197204
0.019857
0.0200638
0.0203469
0.0207254
0.0212976
0.021787
0.022294
0.0219854
0.0200007
0.0160118
0.00889741
-0.00136066
-0.015009
-0.0311982
-0.0502581
-0.0682576
-0.0820736
-0.0836155
-0.0767367
-0.0669512
-0.0529056
-0.0376533
-0.0221284
-0.00866079
0.00149842
0.00848025
0.0128619
0.0155391
0.0171715
0.0182055
0.0188194
0.0192301
0.0194714
0.0196049
0.0196582
0.0196098
0.0192187
0.0192329
0.0192683
0.0193355
0.0194534
0.0196319
0.0198818
0.0202112
0.0206333
0.0209507
0.0212002
0.0204251
0.0182772
0.0143958
0.00759039
-0.00229501
-0.0152316
-0.0306413
-0.0485195
-0.0650731
-0.0787543
-0.0793022
-0.0714432
-0.0611098
-0.0468206
-0.0319356
-0.0180167
-0.00654977
0.00213124
0.00832338
0.0124455
0.0150006
0.0165372
0.0175163
0.0181309
0.0185222
0.0187651
0.0188912
0.0189502
0.018915
0.0185672
0.0186159
0.0186646
0.0187205
0.0187951
0.0188993
0.019033
0.0191871
0.0193508
0.0193093
0.0187911
0.0173023
0.0144051
0.00975753
0.00297433
-0.00626612
-0.0177021
-0.0306313
-0.043338
-0.0534408
-0.0598174
-0.0585652
-0.0518621
-0.0424985
-0.0307751
-0.0193007
-0.00920525
-0.000927041
0.00557199
0.0102682
0.013387
0.0153296
0.0165005
0.0172316
0.0176917
0.0179796
0.0181477
0.0182339
0.0182773
0.0182988
0.01778
0.0177884
0.017797
0.0178064
0.0178138
0.0178125
0.0177856
0.0176767
0.0174209
0.0168307
0.0154714
0.0129699
0.00890823
0.00315137
-0.00414978
-0.0128095
-0.0223224
-0.0321568
-0.0399098
-0.0441944
-0.0436946
-0.0397716
-0.0333096
-0.0249667
-0.0161994
-0.00770223
-0.000466255
0.00556448
0.0101626
0.0131963
0.015026
0.016116
0.0167856
0.0172212
0.0174969
0.0176696
0.0177703
0.0178236
0.017853
0.0178803
0.0169728
0.0169266
0.0168758
0.0168196
0.016744
0.0166156
0.0163876
0.0159515
0.0151528
0.0137854
0.011484
0.00783297
0.00278923
-0.00364107
-0.0113284
-0.0197376
-0.0282201
-0.0359361
-0.0406902
-0.0410073
-0.0385281
-0.0326612
-0.024479
-0.0153175
-0.00647409
0.00128385
0.00729722
0.0116782
0.014367
0.0157986
0.0165545
0.0169412
0.0171712
0.0173259
0.0174227
0.0174844
0.0175282
0.0175582
0.0175747
0.0175609
0.0161977
0.0161403
0.016083
0.0159952
0.0158451
0.0155816
0.0151437
0.0144078
0.0131384
0.0109938
0.0075305
0.0024978
-0.00399553
-0.0118798
-0.0206839
-0.0296498
-0.0379133
-0.0445493
-0.0478666
-0.0461946
-0.0413781
-0.032789
-0.0219394
-0.0108456
-0.000772679
0.00709729
0.0126051
0.0157288
0.0171356
0.0176509
0.0177387
0.0176302
0.0174912
0.0173624
0.0172699
0.0172048
0.0171658
0.0171426
0.0171312
0.017142
0.015517
0.015518
0.0154657
0.0153486
0.0151275
0.0147515
0.014141
0.0132036
0.0116412
0.00910663
0.00496184
-0.0011815
-0.00942584
-0.0195768
-0.0303619
-0.0406521
-0.0498737
-0.0562449
-0.0597932
-0.0571006
-0.046804
-0.0345069
-0.0207609
-0.008481
0.00170847
0.00927862
0.0143584
0.017073
0.0185124
0.0187666
0.0183873
0.0179223
0.0174799
0.0171579
0.0169279
0.0167683
0.0166672
0.0166193
0.0166128
0.0166623
0.0149215
0.0149718
0.014916
0.0147796
0.0145233
0.0141147
0.0134612
0.0124631
0.0108123
0.00829099
0.00421014
-0.00178165
-0.00991418
-0.0203114
-0.0320078
-0.043191
-0.0532574
-0.059945
-0.0640585
-0.061195
-0.048601
-0.0344857
-0.0200152
-0.0078278
0.00185217
0.00905885
0.0139644
0.0166271
0.0180602
0.0183846
0.0180059
0.0175502
0.0170996
0.0167452
0.016496
0.0163256
0.0162223
0.0161755
0.0161678
0.0161947
0.0143625
0.0143817
0.0143331
0.0142233
0.0140195
0.0136881
0.0131582
0.0123122
0.0109368
0.00878765
0.00547686
0.00064561
-0.00559853
-0.0137242
-0.0232705
-0.0331236
-0.0427488
-0.0493887
-0.0533631
-0.0518825
-0.0432101
-0.0323067
-0.0205217
-0.009955
-0.00101574
0.00594143
0.010874
0.013921
0.0156598
0.0164598
0.0166173
0.0165102
0.0162697
0.0160613
0.0159033
0.0157938
0.0157227
0.0156796
0.0156494
0.0156244
0.0139207
0.013891
0.0138609
0.0138029
0.013688
0.0134869
0.0131576
0.0126248
0.0117371
0.0102888
0.00806792
0.00473561
0.000358042
-0.00517002
-0.0118221
-0.0191275
-0.0264069
-0.0323823
-0.0365099
-0.0376786
-0.0355635
-0.0299301
-0.0224865
-0.0144616
-0.00683431
-0.000230373
0.00508438
0.00903191
0.0117663
0.013482
0.0144139
0.0148147
0.0149295
0.0149619
0.0149639
0.0149574
0.0149501
0.0149388
0.0149205
0.0148918
0.0136576
0.0136459
0.0136289
0.013599
0.013545
0.0134563
0.0133105
0.0130824
0.0127032
0.0120526
0.0108752
0.00889825
0.00593834
0.00208887
-0.00269605
-0.00835639
-0.014526
-0.02053
-0.0258426
-0.0296067
-0.0306308
-0.0292407
-0.0253467
-0.019498
-0.013012
-0.00674292
-0.00112576
0.00358083
0.0072623
0.00992244
0.0116496
0.0126661
0.0132384
0.0135809
0.0137741
0.0138896
0.0139657
0.0140228
0.014066
0.0140939
0.0134074
0.0134268
0.0134304
0.0134349
0.0134413
0.0134567
0.013473
0.0134994
0.0134945
0.0134405
0.0131621
0.0124649
0.0108366
0.00797692
0.00375594
-0.00180332
-0.00869265
-0.0158925
-0.0226956
-0.0279576
-0.0307735
-0.0323408
-0.030724
-0.0262176
-0.0201767
-0.0137768
-0.00752504
-0.00195055
0.0026352
0.00623082
0.0088476
0.0105737
0.0116398
0.0122925
0.0126736
0.0129073
0.013056
0.0131622
0.0132445
0.0133119
0.013044
0.0130241
0.0130445
0.0130905
0.0131691
0.0132877
0.013468
0.0136991
0.0139901
0.014332
0.0146526
0.0145516
0.013669
0.0116841
0.00798891
0.00258958
-0.00465113
-0.0133203
-0.0223078
-0.0300583
-0.0363938
-0.0399992
-0.039355
-0.0354569
-0.0294466
-0.0223516
-0.0148471
-0.00776381
-0.00164959
0.00317836
0.00667152
0.00897315
0.0104109
0.01129
0.0118317
0.012169
0.0123725
0.0124906
0.0125591
0.0126096
0.0126461
0.0126035
0.0126097
0.0126587
0.0127641
0.0129338
0.0131886
0.0135341
0.0140027
0.0144794
0.0150821
0.0150907
0.0143341
0.0129073
0.00981683
0.00501641
-0.00173334
-0.0109716
-0.0216349
-0.0319815
-0.0415172
-0.0466045
-0.0462063
-0.0420073
-0.0357019
-0.0278988
-0.0191079
-0.0108959
-0.00375379
0.0016367
0.00544342
0.0079897
0.00956817
0.0105655
0.0111935
0.0115959
0.0118503
0.0119887
0.0120485
0.0120239
0.0122321
0.0122223
0.0122355
0.0122775
0.0123649
0.0125067
0.0127214
0.0130067
0.0133788
0.0136886
0.0140038
0.0138792
0.0130426
0.0114625
0.00852064
0.00393976
-0.00230422
-0.0106361
-0.0206576
-0.0307276
-0.0391915
-0.0437373
-0.0429383
-0.0382246
-0.0319713
-0.0242651
-0.0162395
-0.00873575
-0.00259263
0.00202083
0.00544834
0.00776947
0.0091962
0.0101438
0.0107504
0.0111322
0.0113698
0.0114985
0.011554
0.0115098
0.0117017
0.0117285
0.0117539
0.0117819
0.0118214
0.0118792
0.0119588
0.0120513
0.012122
0.0120366
0.0116849
0.0108488
0.00936605
0.00701487
0.00356038
-0.00107289
-0.00681309
-0.0130419
-0.0198952
-0.0263841
-0.0305901
-0.0322192
-0.0304288
-0.0262198
-0.0207726
-0.014622
-0.00858751
-0.00326022
0.000917702
0.00424661
0.00674017
0.00836997
0.00942764
0.0101039
0.010522
0.0107767
0.0109268
0.0110059
0.0110437
0.0110469
0.0110483
0.0110572
0.0110514
0.0110302
0.0109916
0.0109308
0.0108265
0.0106448
0.010319
0.00969529
0.00857636
0.0067983
0.00433587
0.00109642
-0.00284494
-0.00737374
-0.012338
-0.0168652
-0.0204068
-0.0226778
-0.0232835
-0.0214824
-0.0181932
-0.0142682
-0.00974468
-0.00528733
-0.00123327
0.00217327
0.00489012
0.00706181
0.00852122
0.00940042
0.00995128
0.0102847
0.0104856
0.0106012
0.0106626
0.0106922
0.0107088
0.0107353
0.0103688
0.0103239
0.0102567
0.0101681
0.0100481
0.00986972
0.00958148
0.0091118
0.0083601
0.00716129
0.00536008
0.00283359
-0.000439124
-0.00443296
-0.0089644
-0.0136517
-0.0181771
-0.0216441
-0.0227776
-0.0217882
-0.0200646
-0.0166237
-0.0122906
-0.00756713
-0.0028857
0.00119948
0.00442268
0.00680363
0.00851559
0.00958632
0.0101102
0.0103585
0.0104582
0.0105037
0.0105338
0.0105477
0.010555
0.0105589
0.0105608
0.0105512
0.00972669
0.00965878
0.0095746
0.00945977
0.00928885
0.00901951
0.00858731
0.00787835
0.00672414
0.00494467
0.0024036
-0.000999692
-0.00532677
-0.0104215
-0.015915
-0.0211474
-0.0255466
-0.0281873
-0.0279921
-0.0246969
-0.020441
-0.0152912
-0.00944192
-0.00350967
0.00172097
0.00582906
0.00871404
0.0104152
0.0112676
0.0113838
0.0112086
0.0110018
0.0107957
0.0106292
0.0105074
0.0104246
0.0103714
0.0103352
0.0103134
0.0102982
0.00918459
0.00915426
0.00909216
0.00897424
0.0087679
0.00842878
0.00790254
0.00703601
0.0056433
0.00343804
0.000246425
-0.00412569
-0.00970234
-0.0160109
-0.0224982
-0.0284895
-0.0328451
-0.0353666
-0.0345524
-0.0292573
-0.0220423
-0.0145155
-0.00662796
0.000384872
0.00557909
0.00916542
0.0113241
0.0122744
0.0125324
0.0122087
0.0117261
0.011238
0.0108122
0.0104905
0.0102571
0.0100954
0.00999454
0.00993634
0.00991506
0.00994339
0.00875093
0.00878528
0.00873604
0.00860877
0.00837718
0.00800745
0.0074566
0.006553
0.00514427
0.0028864
-0.000353424
-0.0047605
-0.0105469
-0.0171173
-0.023765
-0.0298248
-0.0340982
-0.0369564
-0.0362397
-0.0303913
-0.0224228
-0.013769
-0.00525453
0.00181892
0.00661775
0.00974115
0.0114342
0.0121147
0.0122335
0.0118804
0.0114053
0.010915
0.0104588
0.0101182
0.0098679
0.00970001
0.0095985
0.00955434
0.00954743
0.00957737
0.00837002
0.00840201
0.00836131
0.00826101
0.00807364
0.0077688
0.00729061
0.00654341
0.00539018
0.00360875
0.00104146
-0.00236834
-0.00677191
-0.0120372
-0.0175804
-0.0229071
-0.0269732
-0.0297246
-0.0297731
-0.0260531
-0.0203696
-0.0135717
-0.00697178
-0.00136785
0.00301377
0.00624477
0.00832218
0.00954214
0.010122
0.0102671
0.0101953
0.009988
0.00974349
0.0095425
0.00938862
0.009286
0.0092217
0.00918748
0.00917001
0.00916362
0.00804595
0.00803475
0.00801211
0.00796751
0.00787679
0.00771264
0.00744125
0.00699261
0.00626926
0.00518777
0.00357144
0.001394
-0.00135967
-0.00475793
-0.00856432
-0.0124379
-0.0158378
-0.0185183
-0.0201148
-0.0196534
-0.0175273
-0.0142275
-0.010552
-0.00672172
-0.00295035
0.000285069
0.00295871
0.00503031
0.00652659
0.00757187
0.00818317
0.00847733
0.00860163
0.00864722
0.00866008
0.00866524
0.00866673
0.00866197
0.00864812
0.00862506
0.00785657
0.00784393
0.00784111
0.00783854
0.00782125
0.00778402
0.00771442
0.00758365
0.00732028
0.00685483
0.00606366
0.00486704
0.00329948
0.00126123
-0.0013093
-0.00435066
-0.00753941
-0.0106702
-0.0133871
-0.0151202
-0.0158052
-0.0157885
-0.0146199
-0.0120421
-0.00880047
-0.00546926
-0.0022949
0.000462854
0.00274662
0.00452574
0.00579672
0.0066318
0.00715182
0.00747628
0.00768132
0.00781361
0.00790211
0.00795986
0.00799374
0.0080076
0.00773183
0.00775034
0.00776587
0.0077883
0.00781932
0.00786895
0.00794196
0.00803515
0.00812791
0.00816483
0.0081043
0.00775415
0.00692545
0.00555029
0.00344601
0.000517461
-0.00296853
-0.00664953
-0.0101394
-0.0134174
-0.016294
-0.0187604
-0.0194476
-0.0179352
-0.0150291
-0.0113052
-0.00739713
-0.00375119
-0.000638012
0.00178619
0.00362128
0.0049363
0.00582197
0.00639389
0.00675503
0.0069903
0.00714863
0.0072633
0.00734841
0.00740724
0.00751569
0.0075225
0.00755142
0.00760291
0.00768365
0.00780876
0.00798548
0.00822098
0.0085428
0.00892691
0.00933317
0.00964878
0.00952839
0.00883521
0.00731602
0.0047868
0.00119778
-0.00334262
-0.00839566
-0.0137832
-0.0189171
-0.0233581
-0.025171
-0.0245052
-0.0216716
-0.0174896
-0.0127401
-0.00802666
-0.00384613
-0.000510727
0.00195069
0.00371859
0.00491176
0.00565805
0.00612648
0.00642446
0.00661349
0.00673596
0.00681745
0.00687545
0.00722132
0.00719484
0.00721027
0.00726184
0.00736232
0.00752063
0.00775124
0.00806695
0.00849409
0.00903062
0.00961355
0.0102328
0.0106652
0.0106077
0.00976319
0.00789533
0.00455766
-0.000678913
-0.00706579
-0.0138816
-0.0208732
-0.0263107
-0.0286956
-0.0283853
-0.0253459
-0.0210742
-0.015928
-0.0105896
-0.00575233
-0.00181391
0.0010144
0.00303563
0.00438323
0.00518518
0.00572285
0.00606511
0.00627337
0.00639245
0.00644937
0.00645412
0.00692023
0.00689723
0.00690076
0.00693257
0.00700632
0.00713004
0.00733129
0.00759799
0.007951
0.00838252
0.00882028
0.00928646
0.00956982
0.00940176
0.00850607
0.00669292
0.00362246
-0.00107769
-0.00696375
-0.013205
-0.0192274
-0.023843
-0.0258116
-0.0252685
-0.0221814
-0.0183871
-0.0137276
-0.00905639
-0.00479048
-0.00135999
0.00112441
0.00297266
0.00418489
0.00496426
0.00547484
0.00579746
0.00600328
0.00611418
0.0061594
0.00612639
0.00656175
0.00656867
0.00657702
0.00658967
0.00661562
0.00666093
0.00673406
0.00682395
0.00691657
0.00697099
0.0068877
0.00662183
0.00605341
0.00505954
0.00356273
0.00146586
-0.00118088
-0.00439555
-0.00804716