/*--------------------------------*- C++ -*----------------------------------*\
| =========                 |                                                 |
| \\      /  F ield         | OpenFOAM: The Open Source CFD Toolbox           |
|  \\    /   O peration     | Version:  v2106                                 |
|   \\  /    A nd           | Website:  www.openfoam.com                      |
|    \\/     M anipulation  |                                                 |
\*---------------------------------------------------------------------------*/
FoamFile
{
    version     2.0;
    format      ascii;
    arch        "LSB;label=32;scalar=64";
    class       pointVectorField;
    location    "0";
    object      pointDisplacement;
}
// * * * * * * * * * * * * * * * * * * * * * * * * * * * * * * * * * * * * * //

dimensions      [0 1 0 0 0 0 0];

internalField   nonuniform List<vector> 
24440
(
(0 0 0)
(0 0 0)
(0 0 0)
(0 0 0)
(0 0 0)
(0 0 0)
(0 0 0)
(0 0 0)
(0 0 0)
(0 0 0)
(0 0 0)
(0 0 0)
(0 0 0)
(0 0 0)
(0 0 0)
(0 0 0)
(0 0 0)
(0 0 0)
(0 0 0)
(0 0 0)
(0 0 0)
(0 0 0)
(0 0 0)
(0 0 0)
(0 0 0)
(0 0 0)
(0 0 0)
(0 0 0)
(0 0 0)
(0 0 0)
(0 0 0)
(0 0 0)
(0 0 0)
(0 0 0)
(0 0 0)
(0 0 0)
(0 0 0)
(0 0 0)
(0 0 0)
(0 0 0)
(0 0 0)
(0 0 0)
(0 0 0)
(0 0 0)
(0 0 0)
(0 0 0)
(0 0 0)
(0 0 0)
(0 0 0)
(0 0 0)
(0 0 0)
(0 0 0)
(0 0 0)
(0 0 0)
(0 0 0)
(0 0 0)
(0 0 0)
(0 0 0)
(0 0 0)
(0 0 0)
(0 0 0)
(0 0 0)
(0 0 0)
(0 0 0)
(0 0 0)
(0 0 0)
(0 0 0)
(0 0 0)
(0 0 0)
(0 0 0)
(0 0 0)
(0 0 0)
(0 0 0)
(0 0 0)
(0 0 0)
(0 0 0)
(0 0 0)
(0 0 0)
(0 0 0)
(0 0 0)
(0 0 0)
(0 0 0)
(0 0 0)
(0 0 0)
(0 0 0)
(0 0 0)
(0 0 0)
(0 0 0)
(0 0 0)
(0 0 0)
(0 0 0)
(0 0 0)
(0 0 0)
(0 0 0)
(0 0 0)
(0 0 0)
(0 0 0)
(0 0 0)
(0 5.0283e-06 0)
(0 3.17088e-05 0)
(0 8.71924e-05 0)
(0 0.000134359 0)
(0 0.00015246 0)
(0 0.000134359 0)
(0 8.71924e-05 0)
(0 3.17088e-05 0)
(0 5.0283e-06 0)
(0 0 0)
(0 0 0)
(0 0 0)
(0 0 0)
(0 0 0)
(0 0 0)
(0 0 0)
(0 0 0)
(0 0 0)
(0 0 0)
(0 0 0)
(0 0 0)
(0 0 0)
(0 0 0)
(0 0 0)
(0 0 0)
(0 0 0)
(0 0 0)
(0 0 0)
(0 0 0)
(0 0 0)
(0 0 0)
(0 0 0)
(0 0 0)
(0 0 0)
(0 0 0)
(0 0 0)
(0 0 0)
(0 0 0)
(0 8.42105e-06 0)
(0 0.000111396 0)
(0 0.000327831 0)
(0 0.000590567 0)
(0 0.000842388 0)
(0 0.00101794 0)
(0 0.00118114 0)
(0 0.00123856 0)
(0 0.00118114 0)
(0 0.00101794 0)
(0 0.000842388 0)
(0 0.000590567 0)
(0 0.000327831 0)
(0 0.000111396 0)
(0 8.42105e-06 0)
(0 0 0)
(0 0 0)
(0 0 0)
(0 0 0)
(0 0 0)
(0 0 0)
(0 0 0)
(0 0 0)
(0 0 0)
(0 0 0)
(0 0 0)
(0 0 0)
(0 0 0)
(0 0 0)
(0 0 0)
(0 0 0)
(0 0 0)
(0 0 0)
(0 0 0)
(0 0 0)
(0 0 0)
(0 0 0)
(0 0 0)
(0 0 0)
(0 3.53564e-06 0)
(0 0.000146497 0)
(0 0.0004996 0)
(0 0.000985206 0)
(0 0.00148538 0)
(0 0.00204338 0)
(0 0.00252667 0)
(0 0.00282597 0)
(0 0.00311217 0)
(0 0.00321108 0)
(0 0.00311217 0)
(0 0.00282597 0)
(0 0.00252667 0)
(0 0.00204338 0)
(0 0.00148538 0)
(0 0.000985206 0)
(0 0.0004996 0)
(0 0.000146497 0)
(0 3.53564e-06 0)
(0 0 0)
(0 0 0)
(0 0 0)
(0 0 0)
(0 0 0)
(0 0 0)
(0 0 0)
(0 0 0)
(0 0 0)
(0 0 0)
(0 0 0)
(0 0 0)
(0 0 0)
(0 0 0)
(0 0 0)
(0 0 0)
(0 0 0)
(0 0 0)
(0 0 0)
(0 0 0)
(0 0 0)
(0 3.34312e-05 0)
(0 0.000347666 0)
(0 0.00092394 0)
(0 0.00162107 0)
(0 0.00248662 0)
(0 0.00335961 0)
(0 0.00411589 0)
(0 0.00482434 0)
(0 0.00532707 0)
(0 0.00562744 0)
(0 0.00576532 0)
(0 0.00562744 0)
(0 0.00532707 0)
(0 0.00482434 0)
(0 0.00411589 0)
(0 0.00335961 0)
(0 0.00248662 0)
(0 0.00162107 0)
(0 0.00092394 0)
(0 0.000347666 0)
(0 3.53926e-05 0)
(0 0 0)
(0 0 0)
(0 0 0)
(0 0 0)
(0 0 0)
(0 0 0)
(0 0 0)
(0 0 0)
(0 0 0)
(0 0 0)
(0 0 0)
(0 0 0)
(0 0 0)
(0 0 0)
(0 0 0)
(0 0 0)
(0 0 0)
(0 0 0)
(0 0 0)
(0 6.57517e-05 0)
(0 0.00046105 0)
(0 0.00115072 0)
(0 0.00211255 0)
(0 0.00325565 0)
(0 0.0044435 0)
(0 0.00553356 0)
(0 0.00656696 0)
(0 0.00695527 0)
(0 0.0073752 0)
(0 0.00772645 0)
(0 0.0080032 0)
(0 0.0082011 0)
(0 0.00833795 0)
(0 0.00846437 0)
(0 0.0085067 0)
(0 0.00846437 0)
(0 0.00833795 0)
(0 0.0082011 0)
(0 0.0080032 0)
(0 0.00772645 0)
(0 0.0073752 0)
(0 0.00695527 0)
(0 0.00656696 0)
(0 0.00553356 0)
(0 0.0044435 0)
(0 0.00325565 0)
(0 0.00211255 0)
(0 0.00112684 0)
(0 0.000416605 0)
(0 5.25399e-05 0)
(0 0 0)
(0 0 0)
(0 0 0)
(0 0 0)
(0 0 0)
(0 0 0)
(0 0 0)
(0 0 0)
(0 0 0)
(0 0 0)
(0 0 0)
(0 0 0)
(0 0 0)
(0 0 0)
(0 0 0)
(0 0 0)
(0 0 0)
(0 3.8674e-05 0)
(0 0.000442583 0)
(0 0.00123312 0)
(0 0.00232036 0)
(0 0.0035939 0)
(0 0.0050923 0)
(0 0.00580876 0)
(0 0.00644381 0)
(0 0.00714668 0)
(0 0.00780549 0)
(0 0.00840825 0)
(0 0.00892032 0)
(0 0.0077742 0)
(0 0.00824886 0)
(0 0.00862346 0)
(0 0.0090013 0)
(0 0.00929771 0)
(0 0.00950893 0)
(0 0.00963556 0)
(0 0.00976976 0)
(0 0.00981464 0)
(0 0.00976976 0)
(0 0.00963556 0)
(0 0.00950893 0)
(0 0.00929771 0)
(0 0.0090013 0)
(0 0.00862346 0)
(0 0.00824886 0)
(0 0.0077742 0)
(0 0.00892032 0)
(0 0.00840825 0)
(0 0.00780549 0)
(0 0.00714668 0)
(0 0.00644381 0)
(0 0.00580876 0)
(0 0.0050923 0)
(0 0.0035939 0)
(0 0.00232036 0)
(0 0.00118814 0)
(0 0.000423328 0)
(0 3.51216e-05 0)
(0 0 0)
(0 0 0)
(0 0 0)
(0 0 0)
(0 0 0)
(0 0 0)
(0 0 0)
(0 0 0)
(0 0 0)
(0 0 0)
(0 0 0)
(0 0 0)
(0 0 0)
(0 0 0)
(0 0 0)
(0 0 0)
(0 0.000244698 0)
(0 0.000999994 0)
(0 0.00213785 0)
(0 0.00356712 0)
(0 0.00515901 0)
(0 0.00677654 0)
(0 0.00596459 0)
(0 0.00674371 0)
(0 0.00749342 0)
(0 0.00819934 0)
(0 0.00882652 0)
(0 0.00946257 0)
(0 0.0100246 0)
(0 0.010489 0)
(0 0.00942468 0)
(0 0.00984951 0)
(0 0.0109269 0)
(0 0.0112421 0)
(0 0.0101875 0)
(0 0.0104967 0)
(0 0.0115557 0)
(0 0.0117764 0)
(0 0.0107161 0)
(0 0.0108272 0)
(0 0.0119043 0)
(0 0.0120059 0)
(0 0.0109656 0)
(0 0.0110118 0)
(0 0.0120517 0)
(0 0.0120059 0)
(0 0.0109656 0)
(0 0.0108272 0)
(0 0.0119043 0)
(0 0.0117764 0)
(0 0.0107161 0)
(0 0.0104967 0)
(0 0.0115557 0)
(0 0.0112421 0)
(0 0.0101875 0)
(0 0.00984951 0)
(0 0.0109269 0)
(0 0.010489 0)
(0 0.00942468 0)
(0 0.0100246 0)
(0 0.00946257 0)
(0 0.00882652 0)
(0 0.00819934 0)
(0 0.00749342 0)
(0 0.00674371 0)
(0 0.00596459 0)
(0 0.00677654 0)
(0 0.00515901 0)
(0 0.00352418 0)
(0 0.00212097 0)
(0 0.000998926 0)
(0 0.000266025 0)
(0 0 0)
(0 0 0)
(0 0 0)
(0 0 0)
(0 0 0)
(0 0 0)
(0 0 0)
(0 0 0)
(0 0 0)
(0 0 0)
(0 0 0)
(0 0 0)
(0 0 0)
(0 0 0)
(0 0 0)
(0 5.33805e-05 0)
(0 0.000548416 0)
(0 0.0015808 0)
(0 0.00296178 0)
(0 0.00460353 0)
(0 0.00648447 0)
(0 0.00829625 0)
(0 0.00759117 0)
(0 0.00841194 0)
(0 0.00755321 0)
(0 0.00839798 0)
(0 0.00918343 0)
(0 0.00995737 0)
(0 0.00914144 0)
(0 0.00982041 0)
(0 0.0106552 0)
(0 0.0109733 0)
(0 0.0112695 0)
(0 0.0108668 0)
(0 0.0103935 0)
(0 0.0109703 0)
(0 0.0113839 0)
(0 0.0116394 0)
(0 0.0112257 0)
(0 0.0118469 0)
(0 0.0122392 0)
(0 0.0124208 0)
(0 0.0120312 0)
(0 0.0124374 0)
(0 0.0128212 0)
(0 0.0129169 0)
(0 0.0125556 0)
(0 0.0127729 0)
(0 0.0131246 0)
(0 0.0131747 0)
(0 0.0128311 0)
(0 0.0128936 0)
(0 0.0132298 0)
(0 0.0132197 0)
(0 0.0128829 0)
(0 0.0127729 0)
(0 0.0131246 0)
(0 0.0130772 0)
(0 0.012723 0)
(0 0.0124374 0)
(0 0.0128212 0)
(0 0.0127114 0)
(0 0.0123285 0)
(0 0.0118469 0)
(0 0.0122392 0)
(0 0.012079 0)
(0 0.0116388 0)
(0 0.0109703 0)
(0 0.0113839 0)
(0 0.0111052 0)
(0 0.0106927 0)
(0 0.00982041 0)
(0 0.0106552 0)
(0 0.00995737 0)
(0 0.00914144 0)
(0 0.00839798 0)
(0 0.00918343 0)
(0 0.00841194 0)
(0 0.00755321 0)
(0 0.00759117 0)
(0 0.00825888 0)
(0 0.00647999 0)
(0 0.00467773 0)
(0 0.00293691 0)
(0 0.00156541 0)
(0 0.000575902 0)
(0 6.10434e-05 0)
(0 0 0)
(0 0 0)
(0 0 0)
(0 0 0)
(0 0 0)
(0 0 0)
(0 0 0)
(0 0 0)
(0 0 0)
(0 0 0)
(0 0 0)
(0 0 0)
(0 0 0)
(0 0 0)
(0 0.000174649 0)
(0 0.000883907 0)
(0 0.00207679 0)
(0 0.00364919 0)
(0 0.00546633 0)
(0 0.007465 0)
(0 0.00933035 0)
(0 0.00887011 0)
(0 0.0097479 0)
(0 0.0091505 0)
(0 0.00994806 0)
(0 0.010562 0)
(0 0.0112972 0)
(0 0.0106746 0)
(0 0.0113181 0)
(0 0.0116515 0)
(0 0.0119382 0)
(0 0.0116511 0)
(0 0.0124612 0)
(0 0.0125991 0)
(0 0.0127104 0)
(0 0.0125737 0)
(0 0.0131914 0)
(0 0.0133017 0)
(0 0.0133733 0)
(0 0.0132653 0)
(0 0.0136236 0)
(0 0.013704 0)
(0 0.0137405 0)
(0 0.0136595 0)
(0 0.0138131 0)
(0 0.013872 0)
(0 0.0138804 0)
(0 0.0138232 0)
(0 0.0138615 0)
(0 0.013909 0)
(0 0.0139082 0)
(0 0.0138604 0)
(0 0.0138131 0)
(0 0.013872 0)
(0 0.0138604 0)
(0 0.0137993 0)
(0 0.0136236 0)
(0 0.013704 0)
(0 0.0136734 0)
(0 0.0135804 0)
(0 0.0131914 0)
(0 0.0133017 0)
(0 0.0132394 0)
(0 0.013111 0)
(0 0.0124612 0)
(0 0.0125991 0)
(0 0.0127253 0)
(0 0.0124851 0)
(0 0.0122166 0)
(0 0.0113181 0)
(0 0.0116515 0)
(0 0.0119411 0)
(0 0.0112972 0)
(0 0.0106746 0)
(0 0.00994806 0)
(0 0.0105379 0)
(0 0.00974162 0)
(0 0.0091505 0)
(0 0.00888072 0)
(0 0.00935799 0)
(0 0.00744623 0)
(0 0.00552078 0)
(0 0.00368745 0)
(0 0.00210084 0)
(0 0.00089652 0)
(0 0.000178957 0)
(0 0 0)
(0 0 0)
(0 0 0)
(0 0 0)
(0 0 0)
(0 0 0)
(0 0 0)
(0 0 0)
(0 0 0)
(0 0 0)
(0 0 0)
(0 0 0)
(0 0 0)
(0 0 0)
(0 0.000269304 0)
(0 0.00109806 0)
(0 0.0024164 0)
(0 0.00411301 0)
(0 0.00604499 0)
(0 0.00805002 0)
(0 0.00996024 0)
(0 0.00972358 0)
(0 0.0105944 0)
(0 0.0101901 0)
(0 0.0109785 0)
(0 0.0113878 0)
(0 0.0120881 0)
(0 0.0117499 0)
(0 0.0123874 0)
(0 0.0125449 0)
(0 0.0128193 0)
(0 0.0126654 0)
(0 0.0133261 0)
(0 0.0133988 0)
(0 0.0134809 0)
(0 0.0134105 0)
(0 0.0138324 0)
(0 0.0138675 0)
(0 0.0138969 0)
(0 0.0138659 0)
(0 0.0139537 0)
(0 0.0139537 0)
(0 0.0139537 0)
(0 0.0139537 0)
(0 0.0139537 0)
(0 0.0139537 0)
(0 0.0139537 0)
(0 0.0139537 0)
(0 0.0139537 0)
(0 0.0139537 0)
(0 0.0139537 0)
(0 0.0139537 0)
(0 0.0139537 0)
(0 0.0139537 0)
(0 0.0139537 0)
(0 0.0139537 0)
(0 0.0139537 0)
(0 0.0139537 0)
(0 0.0139537 0)
(0 0.0139537 0)
(0 0.0138324 0)
(0 0.0138675 0)
(0 0.0138289 0)
(0 0.0137922 0)
(0 0.0133261 0)
(0 0.0133988 0)
(0 0.013461 0)
(0 0.0132712 0)
(0 0.0131352 0)
(0 0.0123802 0)
(0 0.0125632 0)
(0 0.0127029 0)
(0 0.0120714 0)
(0 0.0117603 0)
(0 0.0110411 0)
(0 0.0113736 0)
(0 0.0105832 0)
(0 0.0102352 0)
(0 0.00971532 0)
(0 0.0099652 0)
(0 0.00804671 0)
(0 0.00603538 0)
(0 0.00409982 0)
(0 0.00240264 0)
(0 0.00108667 0)
(0 0.000262838 0)
(0 0 0)
(0 0 0)
(0 0 0)
(0 0 0)
(0 0 0)
(0 0 0)
(0 0 0)
(0 0 0)
(0 0 0)
(0 0 0)
(0 0 0)
(0 0 0)
(0 0 0)
(0 0 0)
(0 0.000285522 0)
(0 0.00113316 0)
(0 0.00247173 0)
(0 0.00418877 0)
(0 0.00613999 0)
(0 0.00816147 0)
(0 0.0100834 0)
(0 0.0100869 0)
(0 0.0109586 0)
(0 0.0108294 0)
(0 0.0116169 0)
(0 0.0117463 0)
(0 0.0124332 0)
(0 0.0123067 0)
(0 0.0129071 0)
(0 0.0129652 0)
(0 0.0132059 0)
(0 0.0131536 0)
(0 0.0136969 0)
(0 0.0137193 0)
(0 0.0137787 0)
(0 0.0137581 0)
(0 0.0139537 0)
(0 0.0139537 0)
(0 0.0139537 0)
(0 0.0139537 0)
(0 0.0139537 0)
(0 0.0139537 0)
(0 0.0139537 0)
(0 0.0139537 0)
(0 0.0139537 0)
(0 0.0139537 0)
(0 0.0139537 0)
(0 0.0139537 0)
(0 0.0139537 0)
(0 0.0139537 0)
(0 0.0139537 0)
(0 0.0139537 0)
(0 0.0139537 0)
(0 0.0139531 0)
(0 0.0139511 0)
(0 0.0136969 0)
(0 0.0137193 0)
(0 0.0137341 0)
(0 0.0135945 0)
(0 0.0135453 0)
(0 0.0129063 0)
(0 0.012966 0)
(0 0.013005 0)
(0 0.0124332 0)
(0 0.0123246 0)
(0 0.0116308 0)
(0 0.0117167 0)
(0 0.0109247 0)
(0 0.0108389 0)
(0 0.0100493 0)
(0 0.0100608 0)
(0 0.00813637 0)
(0 0.00611451 0)
(0 0.0041651 0)
(0 0.00245194 0)
(0 0.00111896 0)
(0 0.000278165 0)
(0 0 0)
(0 0 0)
(0 0 0)
(0 0 0)
(0 0 0)
(0 0 0)
(0 0 0)
(0 0 0)
(0 0 0)
(0 0 0)
(0 0 0)
(0 0 0)
(0 0 0)
(0 0 0)
(0 0.000233338 0)
(0 0.00101978 0)
(0 0.00229427 0)
(0 0.0039481 0)
(0 0.00584123 0)
(0 0.00781451 0)
(0 0.00970364 0)
(0 0.0099763 0)
(0 0.0108466 0)
(0 0.0109558 0)
(0 0.0117442 0)
(0 0.0116349 0)
(0 0.0123251 0)
(0 0.0124319 0)
(0 0.0130045 0)
(0 0.0129739 0)
(0 0.0132145 0)
(0 0.0132437 0)
(0 0.0137586 0)
(0 0.0137513 0)
(0 0.013807 0)
(0 0.0138136 0)
(0 0.0139537 0)
(0 0.0139537 0)
(0 0.0139537 0)
(0 0.0139537 0)
(0 0.0139537 0)
(0 0.0139537 0)
(0 0.0139537 0)
(0 0.0139537 0)
(0 0.0139537 0)
(0 0.0139537 0)
(0 0.0139537 0)
(0 0.0139537 0)
(0 0.0139537 0)
(0 0.0139537 0)
(0 0.0139537 0)
(0 0.0139537 0)
(0 0.0137586 0)
(0 0.0137453 0)
(0 0.0137381 0)
(0 0.0135989 0)
(0 0.0136147 0)
(0 0.0129924 0)
(0 0.0129729 0)
(0 0.0129137 0)
(0 0.0123335 0)
(0 0.0124167 0)
(0 0.0117261 0)
(0 0.011641 0)
(0 0.0108503 0)
(0 0.0109353 0)
(0 0.00997751 0)
(0 0.00972831 0)
(0 0.00783263 0)
(0 0.00585307 0)
(0 0.00395461 0)
(0 0.00229686 0)
(0 0.00102003 0)
(0 0.000232828 0)
(0 0 0)
(0 0 0)
(0 0 0)
(0 0 0)
(0 0 0)
(0 0 0)
(0 0 0)
(0 0 0)
(0 0 0)
(0 0 0)
(0 0 0)
(0 0 0)
(0 0 0)
(0 0 0)
(0 0.000118019 0)
(0 0.000741298 0)
(0 0.00184383 0)
(0 0.0033266 0)
(0 0.00517192 0)
(0 0.00705887 0)
(0 0.00889943 0)
(0 0.00938753 0)
(0 0.0102601 0)
(0 0.0105676 0)
(0 0.011406 0)
(0 0.0110607 0)
(0 0.0117742 0)
(0 0.0121172 0)
(0 0.0127212 0)
(0 0.0125764 0)
(0 0.0128389 0)
(0 0.0129795 0)
(0 0.0135689 0)
(0 0.0135278 0)
(0 0.0136026 0)
(0 0.0136466 0)
(0 0.0139368 0)
(0 0.0139225 0)
(0 0.0139396 0)
(0 0.0139484 0)
(0 0.0139537 0)
(0 0.0139537 0)
(0 0.0139537 0)
(0 0.0139537 0)
(0 0.0139537 0)
(0 0.0139537 0)
(0 0.0139537 0)
(0 0.0139537 0)
(0 0.0139368 0)
(0 0.0139204 0)
(0 0.0138977 0)
(0 0.013918 0)
(0 0.0135689 0)
(0 0.0135278 0)
(0 0.0134718 0)
(0 0.0132943 0)
(0 0.0134039 0)
(0 0.0127212 0)
(0 0.0125764 0)
(0 0.012412 0)
(0 0.0117742 0)
(0 0.0121172 0)
(0 0.0113847 0)
(0 0.0110607 0)
(0 0.0102601 0)
(0 0.0105953 0)
(0 0.00938753 0)
(0 0.00889943 0)
(0 0.00705887 0)
(0 0.00510527 0)
(0 0.0033593 0)
(0 0.00186527 0)
(0 0.000753037 0)
(0 0.000121985 0)
(0 0 0)
(0 0 0)
(0 0 0)
(0 0 0)
(0 0 0)
(0 0 0)
(0 0 0)
(0 0 0)
(0 0 0)
(0 0 0)
(0 0 0)
(0 0 0)
(0 0 0)
(0 0 0)
(0 1.46031e-05 0)
(0 0.000433489 0)
(0 0.00132002 0)
(0 0.00259571 0)
(0 0.00414391 0)
(0 0.00582876 0)
(0 0.00759675 0)
(0 0.00826713 0)
(0 0.00916608 0)
(0 0.00975554 0)
(0 0.0105883 0)
(0 0.00995312 0)
(0 0.0107413 0)
(0 0.0113125 0)
(0 0.0119778 0)
(0 0.011711 0)
(0 0.0120049 0)
(0 0.0122695 0)
(0 0.0129836 0)
(0 0.0128648 0)
(0 0.0129728 0)
(0 0.0130715 0)
(0 0.0136147 0)
(0 0.0135366 0)
(0 0.0135936 0)
(0 0.0136687 0)
(0 0.0138969 0)
(0 0.0138532 0)
(0 0.0138724 0)
(0 0.0139123 0)
(0 0.0139537 0)
(0 0.0139459 0)
(0 0.0139489 0)
(0 0.0139537 0)
(0 0.0139537 0)
(0 0.0139537 0)
(0 0.0139537 0)
(0 0.0139537 0)
(0 0.0139537 0)
(0 0.0139537 0)
(0 0.0139459 0)
(0 0.0139416 0)
(0 0.0139532 0)
(0 0.0139535 0)
(0 0.0138969 0)
(0 0.0138532 0)
(0 0.0138295 0)
(0 0.0138771 0)
(0 0.0136147 0)
(0 0.0135366 0)
(0 0.013473 0)
(0 0.013554 0)
(0 0.0129932 0)
(0 0.0128841 0)
(0 0.012753 0)
(0 0.0125363 0)
(0 0.0127719 0)
(0 0.011945 0)
(0 0.0116975 0)
(0 0.0114084 0)
(0 0.0107266 0)
(0 0.0113125 0)
(0 0.0105883 0)
(0 0.00995312 0)
(0 0.00916608 0)
(0 0.00975554 0)
(0 0.00826713 0)
(0 0.00759675 0)
(0 0.00582876 0)
(0 0.00414391 0)
(0 0.00259571 0)
(0 0.00132002 0)
(0 0.000404359 0)
(0 1.75409e-05 0)
(0 0 0)
(0 0 0)
(0 0 0)
(0 0 0)
(0 0 0)
(0 0 0)
(0 0 0)
(0 0 0)
(0 0 0)
(0 0 0)
(0 0 0)
(0 0 0)
(0 0 0)
(0 0 0)
(0 0 0)
(0 0.000133242 0)
(0 0.000702136 0)
(0 0.00165197 0)
(0 0.00288366 0)
(0 0.00442259 0)
(0 0.00601376 0)
(0 0.00676437 0)
(0 0.0076501 0)
(0 0.00840752 0)
(0 0.00922865 0)
(0 0.00844749 0)
(0 0.00919302 0)
(0 0.0100004 0)
(0 0.0106993 0)
(0 0.00987361 0)
(0 0.0104434 0)
(0 0.0109165 0)
(0 0.0113141 0)
(0 0.0110177 0)
(0 0.0118429 0)
(0 0.0114294 0)
(0 0.011685 0)
(0 0.0120767 0)
(0 0.012662 0)
(0 0.0123076 0)
(0 0.0124493 0)
(0 0.0128168 0)
(0 0.0131807 0)
(0 0.0128666 0)
(0 0.0129589 0)
(0 0.0132677 0)
(0 0.0134497 0)
(0 0.0131599 0)
(0 0.013211 0)
(0 0.0134854 0)
(0 0.013533 0)
(0 0.0132654 0)
(0 0.0132515 0)
(0 0.0135221 0)
(0 0.0134497 0)
(0 0.0131599 0)
(0 0.0130873 0)
(0 0.0133938 0)
(0 0.0131807 0)
(0 0.0128666 0)
(0 0.0127513 0)
(0 0.013071 0)
(0 0.012662 0)
(0 0.0123076 0)
(0 0.0121243 0)
(0 0.0124826 0)
(0 0.0118429 0)
(0 0.0114294 0)
(0 0.0111895 0)
(0 0.0115875 0)
(0 0.0106993 0)
(0 0.00987361 0)
(0 0.00919302 0)
(0 0.0100004 0)
(0 0.00922865 0)
(0 0.00844749 0)
(0 0.0076501 0)
(0 0.00840752 0)
(0 0.00676437 0)
(0 0.00601376 0)
(0 0.00442259 0)
(0 0.00288366 0)
(0 0.00165197 0)
(0 0.000702136 0)
(0 0.000133242 0)
(0 0 0)
(0 0 0)
(0 0 0)
(0 0 0)
(0 0 0)
(0 0 0)
(0 0 0)
(0 0 0)
(0 0 0)
(0 0 0)
(0 0 0)
(0 0 0)
(0 0 0)
(0 0 0)
(0 0 0)
(0 0 0)
(0 0 0)
(0 0.00020079 0)
(0 0.000829111 0)
(0 0.00177738 0)
(0 0.00295342 0)
(0 0.00424156 0)
(0 0.00551316 0)
(0 0.00649995 0)
(0 0.00754925 0)
(0 0.0067964 0)
(0 0.00720613 0)
(0 0.00825788 0)
(0 0.00888291 0)
(0 0.00786783 0)
(0 0.00847302 0)
(0 0.00952079 0)
(0 0.0100842 0)
(0 0.00956285 0)
(0 0.00976409 0)
(0 0.0103355 0)
(0 0.0109768 0)
(0 0.0104641 0)
(0 0.0106543 0)
(0 0.0111684 0)
(0 0.0116053 0)
(0 0.0110897 0)
(0 0.0111747 0)
(0 0.0117045 0)
(0 0.0119822 0)
(0 0.0114871 0)
(0 0.0115449 0)
(0 0.0120396 0)
(0 0.012107 0)
(0 0.011615 0)
(0 0.0115912 0)
(0 0.0120854 0)
(0 0.0119822 0)
(0 0.0114871 0)
(0 0.0114061 0)
(0 0.0119017 0)
(0 0.0116053 0)
(0 0.0110897 0)
(0 0.0109674 0)
(0 0.0114829 0)
(0 0.0109768 0)
(0 0.0104641 0)
(0 0.0102519 0)
(0 0.0107624 0)
(0 0.0100842 0)
(0 0.00956285 0)
(0 0.00896025 0)
(0 0.00847302 0)
(0 0.00952079 0)
(0 0.00888291 0)
(0 0.00786783 0)
(0 0.00720613 0)
(0 0.00825788 0)
(0 0.00754925 0)
(0 0.00649995 0)
(0 0.00551316 0)
(0 0.00424156 0)
(0 0.0067964 0)
(0 0.00295342 0)
(0 0.00177738 0)
(0 0.000829111 0)
(0 0.00020079 0)
(0 0 0)
(0 0 0)
(0 0 0)
(0 0 0)
(0 0 0)
(0 0 0)
(0 0 0)
(0 0 0)
(0 0 0)
(0 0 0)
(0 0 0)
(0 0 0)
(0 0 0)
(0 0 0)
(0 0 0)
(0 0 0)
(0 0 0)
(0 0 0)
(0 2.54627e-06 0)
(0 0.000228104 0)
(0 0.000772971 0)
(0 0.00151475 0)
(0 0.00247931 0)
(0 0.00350802 0)
(0 0.00450263 0)
(0 0.00508326 0)
(0 0.006161 0)
(0 0.00677202 0)
(0 0.0055727 0)
(0 0.0061249 0)
(0 0.00727549 0)
(0 0.00782751 0)
(0 0.00723433 0)
(0 0.00747713 0)
(0 0.00807993 0)
(0 0.00873064 0)
(0 0.0081047 0)
(0 0.00827741 0)
(0 0.00890927 0)
(0 0.009314 0)
(0 0.0086872 0)
(0 0.00882675 0)
(0 0.00945762 0)
(0 0.00975853 0)
(0 0.00911964 0)
(0 0.00917432 0)
(0 0.00981463 0)
(0 0.00988853 0)
(0 0.00924826 0)
(0 0.00921817 0)
(0 0.0098596 0)
(0 0.00975853 0)
(0 0.00911964 0)
(0 0.00904331 0)
(0 0.00968019 0)
(0 0.009314 0)
(0 0.0086872 0)
(0 0.00852742 0)
(0 0.00920523 0)
(0 0.00873064 0)
(0 0.0081047 0)
(0 0.00791322 0)
(0 0.00853238 0)
(0 0.00782751 0)
(0 0.00723433 0)
(0 0.00663041 0)
(0 0.0061249 0)
(0 0.00727549 0)
(0 0.00677202 0)
(0 0.0055727 0)
(0 0.00508326 0)
(0 0.006161 0)
(0 0.00450263 0)
(0 0.00350802 0)
(0 0.00247931 0)
(0 0.00151475 0)
(0 0.000772971 0)
(0 0.000228104 0)
(0 2.54627e-06 0)
(0 0 0)
(0 0 0)
(0 0 0)
(0 0 0)
(0 0 0)
(0 0 0)
(0 0 0)
(0 0 0)
(0 0 0)
(0 0 0)
(0 0 0)
(0 0 0)
(0 0 0)
(0 0 0)
(0 0 0)
(0 0 0)
(0 0 0)
(0 0 0)
(0 0 0)
(0 0 0)
(0 0.000119793 0)
(0 0.000498932 0)
(0 0.00101074 0)
(0 0.00170189 0)
(0 0.00251651 0)
(0 0.00296738 0)
(0 0.00395401 0)
(0 0.00447181 0)
(0 0.00340921 0)
(0 0.00383091 0)
(0 0.00496177 0)
(0 0.00541314 0)
(0 0.00481145 0)
(0 0.00500654 0)
(0 0.00562133 0)
(0 0.00616342 0)
(0 0.00551576 0)
(0 0.00560869 0)
(0 0.00624715 0)
(0 0.00671852 0)
(0 0.00605379 0)
(0 0.00617022 0)
(0 0.00684159 0)
(0 0.00710095 0)
(0 0.00641587 0)
(0 0.00646193 0)
(0 0.00714953 0)
(0 0.00722032 0)
(0 0.00653065 0)
(0 0.00649891 0)
(0 0.00718853 0)
(0 0.00710095 0)
(0 0.00641587 0)
(0 0.00635168 0)
(0 0.00703322 0)
(0 0.00671852 0)
(0 0.00605379 0)
(0 0.00592095 0)
(0 0.00657798 0)
(0 0.00616342 0)
(0 0.00551576 0)
(0 0.00535962 0)
(0 0.00599741 0)
(0 0.00541314 0)
(0 0.00481145 0)
(0 0.00422225 0)
(0 0.00383091 0)
(0 0.00496177 0)
(0 0.00447181 0)
(0 0.00340921 0)
(0 0.00296738 0)
(0 0.00395401 0)
(0 0.00251651 0)
(0 0.00170189 0)
(0 0.00101074 0)
(0 0.000498932 0)
(0 0.000119793 0)
(0 0 0)
(0 0 0)
(0 0 0)
(0 0 0)
(0 0 0)
(0 0 0)
(0 0 0)
(0 0 0)
(0 0 0)
(0 0 0)
(0 0 0)
(0 0 0)
(0 0 0)
(0 0 0)
(0 0 0)
(0 0 0)
(0 0 0)
(0 0 0)
(0 0 0)
(0 0 0)
(0 0 0)
(0 0 0)
(0 0 0)
(0 1.02013e-05 0)
(0 0.000173038 0)
(0 0.000482924 0)
(0 0.00101307 0)
(0 0.00128888 0)
(0 0.00206602 0)
(0 0.00242793 0)
(0 0.00156894 0)
(0 0.00184378 0)
(0 0.00277727 0)
(0 0.00310446 0)
(0 0.0025871 0)
(0 0.00272472 0)
(0 0.00325699 0)
(0 0.00362436 0)
(0 0.0030674 0)
(0 0.00319653 0)
(0 0.00376624 0)
(0 0.00412379 0)
(0 0.00352283 0)
(0 0.00360891 0)
(0 0.00421788 0)
(0 0.00441716 0)
(0 0.00379148 0)
(0 0.00382585 0)
(0 0.00445464 0)
(0 0.00451449 0)
(0 0.00388196 0)
(0 0.00385349 0)
(0 0.00448476 0)
(0 0.00441716 0)
(0 0.00379148 0)
(0 0.00374365 0)
(0 0.004365 0)
(0 0.00412379 0)
(0 0.00352283 0)
(0 0.00342498 0)
(0 0.00401672 0)
(0 0.00362436 0)
(0 0.0030674 0)
(0 0.00292945 0)
(0 0.0034725 0)
(0 0.00310446 0)
(0 0.0025871 0)
(0 0.00210454 0)
(0 0.00184378 0)
(0 0.00277727 0)
(0 0.00242793 0)
(0 0.00156894 0)
(0 0.00128888 0)
(0 0.00206602 0)
(0 0.00101307 0)
(0 0.000482924 0)
(0 0.000173038 0)
(0 1.02013e-05 0)
(0 0 0)
(0 0 0)
(0 0 0)
(0 0 0)
(0 0 0)
(0 0 0)
(0 0 0)
(0 0 0)
(0 0 0)
(0 0 0)
(0 0 0)
(0 0 0)
(0 0 0)
(0 0 0)
(0 0 0)
(0 0 0)
(0 0 0)
(0 0 0)
(0 0 0)
(0 0 0)
(0 0 0)
(0 0 0)
(0 0 0)
(0 0 0)
(0 0 0)
(0 0 0)
(0 1.84919e-06 0)
(0 0.000138929 0)
(0 0.000241989 0)
(0 0.000671009 0)
(0 0.000869382 0)
(0 0.000360833 0)
(0 0.000487924 0)
(0 0.00106952 0)
(0 0.00126337 0)
(0 0.000869651 0)
(0 0.000958678 0)
(0 0.0013111 0)
(0 0.00160981 0)
(0 0.00121152 0)
(0 0.00128827 0)
(0 0.00169968 0)
(0 0.00192948 0)
(0 0.00148575 0)
(0 0.00153863 0)
(0 0.0019907 0)
(0 0.00212135 0)
(0 0.0016518 0)
(0 0.00167325 0)
(0 0.00214606 0)
(0 0.00218904 0)
(0 0.00171135 0)
(0 0.00169054 0)
(0 0.00216595 0)
(0 0.00212135 0)
(0 0.0016518 0)
(0 0.00162202 0)
(0 0.00208702 0)
(0 0.00192948 0)
(0 0.00148575 0)
(0 0.00142602 0)
(0 0.00186017 0)
(0 0.00160981 0)
(0 0.00121152 0)
(0 0.00113047 0)
(0 0.00151454 0)
(0 0.00126337 0)
(0 0.000869651 0)
(0 0.000584804 0)
(0 0.000487924 0)
(0 0.00106952 0)
(0 0.000869382 0)
(0 0.000360833 0)
(0 0.000241989 0)
(0 0.000671009 0)
(0 0.000138929 0)
(0 1.84919e-06 0)
(0 0 0)
(0 0 0)
(0 0 0)
(0 0 0)
(0 0 0)
(0 0 0)
(0 0 0)
(0 0 0)
(0 0 0)
(0 0 0)
(0 0 0)
(0 0 0)
(0 0 0)
(0 0 0)
(0 0 0)
(0 0 0)
(0 0 0)
(0 0 0)
(0 0 0)
(0 0 0)
(0 0 0)
(0 0 0)
(0 0 0)
(0 0 0)
(0 0 0)
(0 0 0)
(0 0 0)
(0 0 0)
(0 0 0)
(0 0 0)
(0 0 0)
(0 6.79135e-05 0)
(0 2.45635e-05 0)
(0 0 0)
(0 0.000106794 0)
(0 0.000178413 0)
(0 5.46208e-06 0)
(0 2.38745e-05 0)
(0 0.000257107 0)
(0 0.000336847 0)
(0 5.03425e-05 0)
(0 8.01599e-05 0)
(0 0.000412194 0)
(0 0.000478421 0)
(0 0.000109217 0)
(0 0.000134105 0)
(0 0.000531622 0)
(0 0.000568792 0)
(0 0.000152191 0)
(0 0.000161687 0)
(0 0.000587895 0)
(0 0.000603179 0)
(0 0.0001698 0)
(0 0.000161687 0)
(0 0.000587895 0)
(0 0.000568792 0)
(0 0.000152191 0)
(0 0.000134105 0)
(0 0.000531622 0)
(0 0.000478421 0)
(0 0.000109217 0)
(0 8.01599e-05 0)
(0 0.000412194 0)
(0 0.000336847 0)
(0 5.03425e-05 0)
(0 2.38745e-05 0)
(0 0.000257107 0)
(0 0.000178413 0)
(0 5.46208e-06 0)
(0 0 0)
(0 0.000106794 0)
(0 6.79135e-05 0)
(0 0 0)
(0 0 0)
(0 0 0)
(0 2.45635e-05 0)
(0 0 0)
(0 0 0)
(0 0 0)
(0 0 0)
(0 0 0)
(0 0 0)
(0 0 0)
(0 0 0)
(0 0 0)
(0 0 0)
(0 0 0)
(0 0 0)
(0 0 0)
(0 0 0)
(0 0 0)
(0 0 0)
(0 0 0)
(0 0 0)
(0 0 0)
(0 0 0)
(0 0 0)
(0 0 0)
(0 0 0)
(0 0 0)
(0 0 0)
(0 0 0)
(0 0 0)
(0 0 0)
(0 0 0)
(0 0 0)
(0 0 0)
(0 0 0)
(0 0 0)
(0 0 0)
(0 0 0)
(0 0 0)
(0 0 0)
(0 0 0)
(0 0 0)
(0 0 0)
(0 4.90872e-07 0)
(0 0 0)
(0 0 0)
(0 1.88904e-06 0)
(0 1.12395e-06 0)
(0 0 0)
(0 4.90872e-07 0)
(0 1.12395e-06 0)
(0 0 0)
(0 0 0)
(0 0 0)
(0 0 0)
(0 0 0)
(0 0 0)
(0 0 0)
(0 0 0)
(0 0 0)
(0 0 0)
(0 0 0)
(0 0 0)
(0 0 0)
(0 0 0)
(0 0 0)
(0 0 0)
(0 0 0)
(0 0 0)
(0 0 0)
(0 0 0)
(0 0 0)
(0 0 0)
(0 0 0)
(0 0 0)
(0 0 0)
(0 0 0)
(0 0 0)
(0 0 0)
(0 0 0)
(0 0 0)
(0 0 0)
(0 0 0)
(0 0 0)
(0 0 0)
(0 0 0)
(0 0 0)
(0 0 0)
(0 0 0)
(0 0 0)
(0 0 0)
(0 0 0)
(0 0 0)
(0 0 0)
(0 0 0)
(0 0 0)
(0 0 0)
(0 0 0)
(0 0 0)
(0 0 0)
(0 0 0)
(0 0 0)
(0 0 0)
(0 0 0)
(0 0 0)
(0 0 0)
(0 0 0)
(0 0 0)
(0 0 0)
(0 0 0)
(0 0 0)
(0 0 0)
(0 0 0)
(0 0 0)
(0 0 0)
(0 0 0)
(0 0 0)
(0 0 0)
(0 0 0)
(0 0 0)
(0 0 0)
(0 0 0)
(0 0 0)
(0 0 0)
(0 0 0)
(0 0 0)
(0 0 0)
(0 0 0)
(0 0 0)
(0 0 0)
(0 0 0)
(0 0 0)
(0 0 0)
(0 0 0)
(0 0 0)
(0 0 0)
(0 0 0)
(0 0 0)
(0 0 0)
(0 0 0)
(0 0 0)
(0 0 0)
(0 0 0)
(0 0 0)
(0 0 0)
(0 0 0)
(0 0 0)
(0 0 0)
(0 0 0)
(0 0 0)
(0 0 0)
(0 0 0)
(0 0 0)
(0 0 0)
(0 0 0)
(0 0 0)
(0 0 0)
(0 0 0)
(0 0 0)
(0 0 0)
(0 0 0)
(0 0 0)
(0 0 0)
(0 0 0)
(0 0 0)
(0 0 0)
(0 0 0)
(0 0 0)
(0 0 0)
(0 0 0)
(0 0 0)
(0 0 0)
(0 0 0)
(0 0 0)
(0 0 0)
(0 0 0)
(0 0 0)
(0 0 0)
(0 0 0)
(0 0 0)
(0 0 0)
(0 0 0)
(0 0 0)
(0 0 0)
(0 0 0)
(0 0 0)
(0 0 0)
(0 0 0)
(0 0 0)
(0 0 0)
(0 0 0)
(0 0 0)
(0 0 0)
(0 0 0)
(0 0 0)
(0 0 0)
(0 0 0)
(0 0 0)
(0 0 0)
(0 0 0)
(0 0 0)
(0 0 0)
(0 0 0)
(0 0 0)
(0 0 0)
(0 0 0)
(0 0 0)
(0 0 0)
(0 0 0)
(0 0 0)
(0 0 0)
(0 0 0)
(0 0 0)
(0 0 0)
(0 0 0)
(0 0 0)
(0 0 0)
(0 0 0)
(0 0 0)
(0 0 0)
(0 0 0)
(0 0 0)
(0 0 0)
(0 0 0)
(0 0 0)
(0 0 0)
(0 0 0)
(0 0 0)
(0 0 0)
(0 0 0)
(0 0 0)
(0 0 0)
(0 0 0)
(0 0 0)
(0 0 0)
(0 0 0)
(0 0 0)
(0 0 0)
(0 0 0)
(0 0 0)
(0 0 0)
(0 0 0)
(0 0 0)
(0 0 0)
(0 0 0)
(0 0 0)
(0 0 0)
(0 0 0)
(0 0 0)
(0 0 0)
(0 0 0)
(0 0 0)
(0 0 0)
(0 0 0)
(0 0 0)
(0 0 0)
(0 0 0)
(0 0 0)
(0 0 0)
(0 0 0)
(0 0 0)
(0 0 0)
(0 0 0)
(0 0 0)
(0 0 0)
(0 0 0)
(0 0 0)
(0 0 0)
(0 0 0)
(0 0 0)
(0 0 0)
(0 0 0)
(0 0 0)
(0 0 0)
(0 0 0)
(0 0 0)
(0 0 0)
(0 0 0)
(0 0 0)
(0 0 0)
(0 0 0)
(0 0 0)
(0 0 0)
(0 0 0)
(0 0 0)
(0 0 0)
(0 0 0)
(0 0 0)
(0 0 0)
(0 0 0)
(0 0 0)
(0 0 0)
(0 0 0)
(0 0 0)
(0 0 0)
(0 0 0)
(0 0 0)
(0 0 0)
(0 0 0)
(0 0 0)
(0 0 0)
(0 0 0)
(0 0 0)
(0 0 0)
(0 0 0)
(0 0 0)
(0 0 0)
(0 0 0)
(0 0 0)
(0 0 0)
(0 0 0)
(0 0 0)
(0 0 0)
(0 0 0)
(0 0 0)
(0 0 0)
(0 0 0)
(0 0 0)
(0 0 0)
(0 0 0)
(0 0 0)
(0 0 0)
(0 0 0)
(0 0 0)
(0 0 0)
(0 0 0)
(0 0 0)
(0 0 0)
(0 0 0)
(0 0 0)
(0 0 0)
(0 0 0)
(0 0 0)
(0 0 0)
(0 0 0)
(0 0 0)
(0 0 0)
(0 0 0)
(0 0 0)
(0 0 0)
(0 0 0)
(0 0 0)
(0 0 0)
(0 0 0)
(0 0 0)
(0 0 0)
(0 0 0)
(0 0 0)
(0 0 0)
(0 0 0)
(0 0 0)
(0 0 0)
(0 0 0)
(0 0 0)
(0 0 0)
(0 0 0)
(0 0 0)
(0 0 0)
(0 0 0)
(0 0 0)
(0 0 0)
(0 0 0)
(0 0 0)
(0 0 0)
(0 0 0)
(0 0 0)
(0 0 0)
(0 0 0)
(0 0 0)
(0 0 0)
(0 0 0)
(0 0 0)
(0 0 0)
(0 0 0)
(0 0 0)
(0 0 0)
(0 0 0)
(0 0 0)
(0 0 0)
(0 0 0)
(0 0 0)
(0 0 0)
(0 0 0)
(0 0 0)
(0 0 0)
(0 0 0)
(0 0 0)
(0 0 0)
(0 0 0)
(0 0 0)
(0 0 0)
(0 0 0)
(0 0 0)
(0 0 0)
(0 0 0)
(0 0 0)
(0 0 0)
(0 0 0)
(0 0 0)
(0 0 0)
(0 0 0)
(0 0 0)
(0 0 0)
(0 0 0)
(0 0 0)
(0 0 0)
(0 0 0)
(0 0 0)
(0 0 0)
(0 0 0)
(0 0 0)
(0 0 0)
(0 0 0)
(0 0 0)
(0 0 0)
(0 0 0)
(0 0 0)
(0 0 0)
(0 0 0)
(0 0 0)
(0 0 0)
(0 0 0)
(0 0 0)
(0 0 0)
(0 0 0)
(0 0 0)
(0 0 0)
(0 0 0)
(0 0 0)
(0 0 0)
(0 0 0)
(0 0 0)
(0 0 0)
(0 0 0)
(0 0 0)
(0 0 0)
(0 0 0)
(0 0 0)
(0 0 0)
(0 0 0)
(0 0 0)
(0 0 0)
(0 0 0)
(0 0 0)
(0 0 0)
(0 0 0)
(0 0 0)
(0 0 0)
(0 0 0)
(0 0 0)
(0 0 0)
(0 0 0)
(0 0 0)
(0 0 0)
(0 0 0)
(0 0 0)
(0 0 0)
(0 0 0)
(0 0 0)
(0 0 0)
(0 0 0)
(0 0 0)
(0 0 0)
(0 0 0)
(0 0 0)
(0 0 0)
(0 0 0)
(0 0 0)
(0 0 0)
(0 0 0)
(0 0 0)
(0 0 0)
(0 0 0)
(0 0 0)
(0 0 0)
(0 0 0)
(0 0 0)
(0 0 0)
(0 0 0)
(0 0 0)
(0 0 0)
(0 0 0)
(0 0 0)
(0 0 0)
(0 0 0)
(0 0 0)
(0 0 0)
(0 0 0)
(0 0 0)
(0 0 0)
(0 0 0)
(0 0 0)
(0 0 0)
(0 0 0)
(0 0 0)
(0 0 0)
(0 0 0)
(0 0 0)
(0 0 0)
(0 0 0)
(0 0 0)
(0 0 0)
(0 0 0)
(0 0 0)
(0 0 0)
(0 0 0)
(0 0 0)
(0 0 0)
(0 0 0)
(0 0 0)
(0 0 0)
(0 0 0)
(0 0 0)
(0 0 0)
(0 0 0)
(0 0 0)
(0 0 0)
(0 0 0)
(0 0 0)
(0 0 0)
(0 0 0)
(0 0 0)
(0 0 0)
(0 0 0)
(0 0 0)
(0 0 0)
(0 0 0)
(0 0 0)
(0 0 0)
(0 0 0)
(0 0 0)
(0 0 0)
(0 0 0)
(0 0 0)
(0 0 0)
(0 0 0)
(0 0 0)
(0 0 0)
(0 0 0)
(0 0 0)
(0 0 0)
(0 0 0)
(0 0 0)
(0 0 0)
(0 0 0)
(0 0 0)
(0 0 0)
(0 0 0)
(0 0 0)
(0 0 0)
(0 0 0)
(0 0 0)
(0 0 0)
(0 0 0)
(0 0 0)
(0 0 0)
(0 0 0)
(0 0 0)
(0 0 0)
(0 0 0)
(0 0 0)
(0 0 0)
(0 0 0)
(0 0 0)
(0 0 0)
(0 0 0)
(0 0 0)
(0 0 0)
(0 0 0)
(0 0 0)
(0 0 0)
(0 0 0)
(0 0 0)
(0 0 0)
(0 0 0)
(0 0 0)
(0 0 0)
(0 0 0)
(0 0 0)
(0 0 0)
(0 0 0)
(0 0 0)
(0 0 0)
(0 0 0)
(0 0 0)
(0 0 0)
(0 0 0)
(0 0 0)
(0 0 0)
(0 0 0)
(0 0 0)
(0 0 0)
(0 0 0)
(0 0 0)
(0 0 0)
(0 0 0)
(0 0 0)
(0 0 0)
(0 0 0)
(0 0 0)
(0 0 0)
(0 0 0)
(0 0 0)
(0 0 0)
(0 0 0)
(0 0 0)
(0 0 0)
(0 0 0)
(0 0 0)
(0 0 0)
(0 0 0)
(0 0 0)
(0 0 0)
(0 0 0)
(0 0 0)
(0 0 0)
(0 0 0)
(0 0 0)
(0 0 0)
(0 0 0)
(0 0 0)
(0 0 0)
(0 0 0)
(0 0 0)
(0 0 0)
(0 0 0)
(0 0 0)
(0 0 0)
(0 0 0)
(0 0 0)
(0 0 0)
(0 0 0)
(0 0 0)
(0 0 0)
(0 0 0)
(0 0 0)
(0 0 0)
(0 0 0)
(0 0 0)
(0 0 0)
(0 0 0)
(0 0 0)
(0 0 0)
(0 0 0)
(0 0 0)
(0 0 0)
(0 0 0)
(0 0 0)
(0 0 0)
(0 0 0)
(0 0 0)
(0 0 0)
(0 0 0)
(0 0 0)
(0 0 0)
(0 0 0)
(0 0 0)
(0 0 0)
(0 0 0)
(0 0 0)
(0 0 0)
(0 0 0)
(0 0 0)
(0 0 0)
(0 0 0)
(0 0 0)
(0 0 0)
(0 0 0)
(0 0 0)
(0 0 0)
(0 0 0)
(0 0 0)
(0 0 0)
(0 0 0)
(0 0 0)
(0 0 0)
(0 0 0)
(0 0 0)
(0 0 0)
(0 0 0)
(0 0 0)
(0 0 0)
(0 0 0)
(0 0 0)
(0 0 0)
(0 0 0)
(0 0 0)
(0 0 0)
(0 0 0)
(0 0 0)
(0 0 0)
(0 0 0)
(0 0 0)
(0 0 0)
(0 0 0)
(0 0 0)
(0 0 0)
(0 0 0)
(0 0 0)
(0 0 0)
(0 0 0)
(0 0 0)
(0 0 0)
(0 0 0)
(0 0 0)
(0 0 0)
(0 0 0)
(0 0 0)
(0 0 0)
(0 0 0)
(0 0 0)
(0 0 0)
(0 0 0)
(0 0 0)
(0 0 0)
(0 0 0)
(0 0 0)
(0 0 0)
(0 0 0)
(0 0 0)
(0 0 0)
(0 0 0)
(0 0 0)
(0 0 0)
(0 0 0)
(0 0 0)
(0 0 0)
(0 0 0)
(0 0 0)
(0 0 0)
(0 0 0)
(0 0 0)
(0 0 0)
(0 0 0)
(0 0 0)
(0 0 0)
(0 0 0)
(0 0 0)
(0 0 0)
(0 0 0)
(0 0 0)
(0 0 0)
(0 0 0)
(0 0 0)
(0 0 0)
(0 0 0)
(0 0 0)
(0 0 0)
(0 0 0)
(0 0 0)
(0 0 0)
(0 0 0)
(0 0 0)
(0 0 0)
(0 0 0)
(0 0 0)
(0 0 0)
(0 0 0)
(0 0 0)
(0 0 0)
(0 0 0)
(0 0 0)
(0 0 0)
(0 0 0)
(0 0 0)
(0 0 0)
(0 0 0)
(0 0 0)
(0 0 0)
(0 0 0)
(0 0 0)
(0 0 0)
(0 0 0)
(0 0 0)
(0 0 0)
(0 0 0)
(0 0 0)
(0 0 0)
(0 0 0)
(0 0 0)
(0 0 0)
(0 0 0)
(0 0 0)
(0 0 0)
(0 0 0)
(0 0 0)
(0 0 0)
(0 0 0)
(0 0 0)
(0 0 0)
(0 0 0)
(0 0 0)
(0 0 0)
(0 0 0)
(0 0 0)
(0 0 0)
(0 0 0)
(0 0 0)
(0 0 0)
(0 0 0)
(0 0 0)
(0 0 0)
(0 0 0)
(0 0 0)
(0 0 0)
(0 0 0)
(0 0 0)
(0 0 0)
(0 0 0)
(0 0 0)
(0 0 0)
(0 0 0)
(0 0 0)
(0 0 0)
(0 0 0)
(0 0 0)
(0 0 0)
(0 0 0)
(0 0 0)
(0 0 0)
(0 0 0)
(0 0 0)
(0 0 0)
(0 0 0)
(0 0 0)
(0 0 0)
(0 0 0)
(0 0 0)
(0 0 0)
(0 0 0)
(0 0 0)
(0 0 0)
(0 0 0)
(0 0 0)
(0 0 0)
(0 0 0)
(0 0 0)
(0 0 0)
(0 0 0)
(0 0 0)
(0 0 0)
(0 0 0)
(0 0 0)
(0 0 0)
(0 0 0)
(0 0 0)
(0 0 0)
(0 0 0)
(0 0 0)
(0 0 0)
(0 0 0)
(0 0 0)
(0 0 0)
(0 0 0)
(0 0 0)
(0 0 0)
(0 0 0)
(0 0 0)
(0 0 0)
(0 0 0)
(0 0 0)
(0 0 0)
(0 0 0)
(0 0 0)
(0 0 0)
(0 0 0)
(0 0 0)
(0 0 0)
(0 0 0)
(0 0 0)
(0 0 0)
(0 0 0)
(0 0 0)
(0 0 0)
(0 0 0)
(0 0 0)
(0 0 0)
(0 0 0)
(0 0 0)
(0 0 0)
(0 0 0)
(0 0 0)
(0 0 0)
(0 0 0)
(0 0 0)
(0 0 0)
(0 0 0)
(0 0 0)
(0 0 0)
(0 0 0)
(0 0 0)
(0 0 0)
(0 0 0)
(0 0 0)
(0 0 0)
(0 0 0)
(0 0 0)
(0 0 0)
(0 0 0)
(0 0 0)
(0 0 0)
(0 0 0)
(0 0 0)
(0 0 0)
(0 0 0)
(0 0 0)
(0 0 0)
(0 0 0)
(0 0 0)
(0 0 0)
(0 0 0)
(0 0 0)
(0 0 0)
(0 0 0)
(0 0 0)
(0 0 0)
(0 0 0)
(0 0 0)
(0 0 0)
(0 0 0)
(0 0 0)
(0 0 0)
(0 0 0)
(0 0 0)
(0 0 0)
(0 0 0)
(0 0 0)
(0 0 0)
(0 0 0)
(0 0 0)
(0 0 0)
(0 0 0)
(0 0 0)
(0 0 0)
(0 0 0)
(0 0 0)
(0 0 0)
(0 0 0)
(0 0 0)
(0 0 0)
(0 0 0)
(0 0 0)
(0 0 0)
(0 0 0)