/*--------------------------------*- C++ -*----------------------------------*\
| =========                 |                                                 |
| \\      /  F ield         | OpenFOAM: The Open Source CFD Toolbox           |
|  \\    /   O peration     | Version:  v2106                                 |
|   \\  /    A nd           | Website:  www.openfoam.com                      |
|    \\/     M anipulation  |                                                 |
\*---------------------------------------------------------------------------*/
FoamFile
{
    version     2.0;
    format      ascii;
    arch        "LSB;label=32;scalar=64";
    class       volVectorField;
    location    "0";
    object      U;
}
// * * * * * * * * * * * * * * * * * * * * * * * * * * * * * * * * * * * * * //

dimensions      [0 1 -1 0 0 0 0];

internalField   nonuniform List<vector> 
11644
(
(0.99518 -0.000211603 9.83631e-24)
(0.995079 -0.000555668 2.71256e-23)
(0.995018 -0.000816318 1.45536e-23)
(0.995001 -0.00107911 0)
(0.994997 -0.00135183 0)
(0.994996 -0.00162859 0)
(0.994996 -0.00190333 0)
(0.994997 -0.00216859 0)
(0.994999 -0.00241357 0)
(0.995004 -0.00262108 0)
(0.994982 -0.00278219 0)
(0.994975 -0.00286947 0)
(0.995055 -0.00286319 0)
(0.995197 -0.00279206 0)
(0.99505 -0.0025267 0)
(0.995067 -0.00227887 0)
(0.994886 -0.00188021 0)
(0.9945 -0.00105583 0)
(0.994362 0.000102508 0)
(0.99455 0.00109654 3.26234e-30)
(0.994711 0.00187657 -3.27415e-30)
(0.994874 0.00257642 0)
(0.995022 0.00315111 0)
(0.995107 0.00362527 0)
(0.995003 0.00393249 0)
(0.994971 0.00412321 0)
(0.995117 0.00418112 0)
(0.994942 0.00412431 0)
(0.994951 0.00395472 0)
(0.994986 0.00369828 0)
(0.994976 0.00339131 0)
(0.994985 0.00304144 0)
(0.994988 0.00267544 0)
(0.994992 0.00230373 0)
(0.994995 0.00193798 0)
(0.994999 0.00158624 0)
(0.995003 0.001253 0)
(0.995019 0.000942185 0)
(0.995089 0.000641401 0)
(0.995208 0.000242819 1.90716e-24)
(0.995904 -0.000427663 1.26347e-23)
(0.99583 -0.00129234 1.17038e-23)
(0.995778 -0.00215205 6.28571e-24)
(0.995768 -0.00300015 0)
(0.995776 -0.00384219 0)
(0.995783 -0.00468071 0)
(0.995779 -0.00550756 0)
(0.995756 -0.00630151 0)
(0.995706 -0.00703194 0)
(0.995603 -0.00766132 0)
(0.9955 -0.00812247 0)
(0.995315 -0.00837853 0)
(0.994948 -0.00833549 0)
(0.994432 -0.0078968 0)
(0.994279 -0.00712269 0)
(0.993752 -0.00582224 -5.43261e-24)
(0.992986 -0.00392117 6.60313e-24)
(0.992388 -0.00157053 -4.79399e-23)
(0.992267 0.000999199 -2.73813e-23)
(0.992447 0.00362874 8.33611e-22)
(0.992645 0.0060537 -7.50976e-22)
(0.992765 0.0082 -3.87121e-23)
(0.993046 0.0101181 2.61804e-23)
(0.993521 0.0116726 -2.80882e-24)
(0.994235 0.0127362 1.54061e-24)
(0.994767 0.0132286 0)
(0.994976 0.0133141 0)
(0.995574 0.0129112 0)
(0.9958 0.0122485 0)
(0.995922 0.0113691 0)
(0.996042 0.0103086 0)
(0.996063 0.00917963 0)
(0.996059 0.00801134 0)
(0.996028 0.00684775 0)
(0.995985 0.0057127 0)
(0.995937 0.00462062 0)
(0.995901 0.00356934 0)
(0.995899 0.00253896 0)
(0.995956 0.00150641 0)
(0.996039 0.000497443 0)
(0.99736 -0.000674976 0)
(0.99731 -0.00205436 0)
(0.997281 -0.00347802 0)
(0.997286 -0.00489938 0)
(0.997309 -0.00631657 1.15415e-23)
(0.997325 -0.00772839 0)
(0.99731 -0.00912221 0)
(0.997238 -0.0104673 0)
(0.997074 -0.0117196 0)
(0.996809 -0.0128028 0)
(0.996325 -0.0136526 0)
(0.995655 -0.0141248 0)
(0.994902 -0.014073 1.33128e-25)
(0.994034 -0.0134351 7.91414e-23)
(0.99249 -0.0118923 2.58154e-22)
(0.99095 -0.00947207 -5.06824e-22)
(0.989352 -0.00622354 5.1407e-22)
(0.988042 -0.00240132 1.2732e-22)
(0.987337 0.00201412 -1.69284e-22)
(0.9873 0.00695426 -7.17694e-23)
(0.987866 0.0118398 -3.33957e-22)
(0.988853 0.0160758 1.01135e-21)
(0.990094 0.0193746 -5.14457e-22)
(0.991614 0.0218108 -3.00563e-22)
(0.993078 0.0233472 2.22082e-22)
(0.994587 0.023981 -2.39595e-22)
(0.99623 0.0237001 -7.60005e-23)
(0.996896 0.0228582 -2.50027e-25)
(0.997641 0.0214222 0)
(0.998123 0.0196143 0)
(0.998303 0.017643 0)
(0.998368 0.0155528 0)
(0.998304 0.0134717 0)
(0.998182 0.0114351 0)
(0.998034 0.00947473 0)
(0.99789 0.00759877 0)
(0.997771 0.00579882 0)
(0.997698 0.00405982 0)
(0.997684 0.00237802 0)
(0.997717 0.000768727 0)
(0.999572 -0.000933173 0)
(0.999534 -0.00284597 0)
(0.999534 -0.00479715 0)
(0.999567 -0.00677795 0)
(0.999611 -0.00878263 0)
(0.999638 -0.0108035 0)
(0.999608 -0.0128205 0)
(0.999472 -0.0148004 0)
(0.999175 -0.0166803 0)
(0.998606 -0.0183923 0)
(0.99779 -0.0197599 -1.26757e-24)
(0.99661 -0.0206345 1.43521e-22)
(0.994795 -0.0208244 -1.55667e-22)
(0.992116 -0.0200248 -2.71418e-23)
(0.989588 -0.0180422 -4.93858e-23)
(0.986522 -0.0146912 -4.94522e-22)
(0.983415 -0.0100359 3.32793e-22)
(0.980696 -0.00428761 1.84785e-21)
(0.978809 0.00265298 -1.66269e-21)
(0.9784 0.0103608 8.39519e-23)
(0.979436 0.0179871 -3.85337e-22)
(0.981669 0.0248671 -1.60312e-21)
(0.984629 0.030386 1.83214e-21)
(0.988016 0.0340345 -6.08341e-22)
(0.991557 0.0360698 6.09234e-22)
(0.994895 0.0365818 7.63245e-23)
(0.9971 0.0359487 4.45175e-23)
(0.999552 0.0338438 7.45993e-23)
(1.00089 0.0312384 -5.54421e-23)
(1.00164 0.028248 8.62128e-25)
(1.00199 0.025059 0)
(1.00198 0.02189 0)
(1.00179 0.0187825 0)
(1.0015 0.0158172 0)
(1.00116 0.0130123 0)
(1.00084 0.0103697 0)
(1.00057 0.00787914 0)
(1.00037 0.00550967 0)
(1.00026 0.00324029 0)
(1.00024 0.00107508 0)
(1.0025 -0.00121276 0)
(1.00248 -0.00365873 0)
(1.00252 -0.00614448 0)
(1.0026 -0.00868377 0)
(1.00271 -0.0112779 0)
(1.00278 -0.0139414 0)
(1.00277 -0.0166579 0)
(1.0026 -0.0193937 0)
(1.00216 -0.0220997 0)
(1.0014 -0.0246348 -6.00866e-24)
(1.00007 -0.0268478 -2.24115e-22)
(0.99784 -0.0285587 -3.24945e-22)
(0.994839 -0.0293702 -5.54936e-23)
(0.991276 -0.0289432 -7.67554e-22)
(0.98603 -0.0269866 2.36393e-21)
(0.980553 -0.0230247 -4.53351e-22)
(0.975341 -0.0171735 4.97358e-22)
(0.970177 -0.00924785 4.56137e-22)
(0.966086 0.000924151 -1.96838e-21)
(0.964636 0.0127452 -1.70433e-21)
(0.966475 0.0248585 2.93786e-21)
(0.971189 0.0357656 4.49494e-22)
(0.977382 0.0441958 -2.81549e-22)
(0.984797 0.0492747 -5.90946e-22)
(0.99084 0.0513959 2.97457e-22)
(0.99627 0.0514637 -1.63395e-21)
(1.00159 0.0491054 5.53138e-22)
(1.00396 0.0460072 3.33176e-22)
(1.0059 0.0417045 -1.75502e-22)
(1.00686 0.0369961 2.90674e-22)
(1.00716 0.0323167 4.9605e-24)
(1.00702 0.027838 0)
(1.00656 0.0236492 0)
(1.00596 0.0197431 0)
(1.00533 0.0161267 0)
(1.00473 0.0127764 0)
(1.00423 0.00966135 0)
(1.00384 0.00674416 0)
(1.0036 0.00396636 0)
(1.00351 0.00128616 0)
(1.00613 -0.00147643 0)
(1.00614 -0.00443094 0)
(1.00625 -0.00748188 0)
(1.00642 -0.0105777 0)
(1.00663 -0.013797 0)
(1.00682 -0.0171461 0)
(1.00692 -0.0206396 0)
(1.00682 -0.0242699 0)
(1.0064 -0.0279735 -6.94054e-25)
(1.0054 -0.0316267 2.41228e-22)
(1.00339 -0.0350927 -1.09437e-22)
(1.00037 -0.0380365 -8.64424e-22)
(0.996111 -0.040254 8.7017e-22)
(0.989496 -0.0415186 -4.51844e-23)
(0.982808 -0.0401927 -9.38959e-22)
(0.974265 -0.0364478 7.05801e-22)
(0.964075 -0.0299517 4.24105e-22)
(0.954616 -0.0193427 -3.4085e-22)
(0.947015 -0.00438058 -5.29395e-21)
(0.943867 0.0130104 1.05162e-20)
(0.946376 0.0309335 -8.7463e-21)
(0.953868 0.0474066 3.2989e-21)
(0.964944 0.0607949 2.44933e-22)
(0.978012 0.0682176 8.20639e-22)
(0.989746 0.0700056 -1.3572e-21)
(0.999831 0.0691283 1.14908e-21)
(1.00615 0.0658164 -6.38656e-22)
(1.01159 0.0587267 -8.72775e-22)
(1.01389 0.0520293 9.75935e-22)
(1.01451 0.0453195 -9.28386e-23)
(1.01423 0.0389075 7.2794e-23)
(1.01354 0.0330282 -9.46855e-24)
(1.0126 0.0277109 0)
(1.01151 0.0229166 0)
(1.01042 0.0185811 0)
(1.00943 0.014651 0)
(1.00859 0.0110518 0)
(1.00795 0.00771634 0)
(1.00753 0.00456414 0)
(1.00735 0.0015331 0)
(1.01041 -0.00168269 0)
(1.01048 -0.00517617 0)
(1.0107 -0.00866898 0)
(1.01103 -0.0123405 0)
(1.01144 -0.0161902 0)
(1.01186 -0.020275 0)
(1.01221 -0.0246323 0)
(1.01237 -0.0292808 -7.32327e-24)
(1.01204 -0.034142 -2.74151e-23)
(1.01076 -0.0391907 -8.7181e-23)
(1.00842 -0.0442292 -8.27449e-22)
(1.00479 -0.0491686 1.30733e-21)
(0.999637 -0.0539439 5.42068e-22)
(0.99337 -0.0574794 -7.47705e-22)
(0.98189 -0.0601309 7.19221e-22)
(0.968025 -0.058601 -9.63978e-22)
(0.958884 -0.0463811 -1.73858e-21)
(0.944295 -0.0352223 -5.34327e-21)
(0.931011 -0.0168036 -4.38459e-21)
(0.9234 0.00734897 6.35376e-21)
(0.924977 0.0336032 1.26788e-21)
(0.934784 0.0569585 -4.05864e-21)
(0.950216 0.0745559 -4.83161e-21)
(0.967818 0.0839642 -5.72454e-21)
(0.991469 0.0957922 8.59249e-22)
(1.00639 0.0916213 -6.74542e-22)
(1.01845 0.0814327 1.00123e-21)
(1.02235 0.0730556 -1.39893e-21)
(1.02487 0.0625047 -3.14463e-22)
(1.02495 0.0528533 7.06297e-22)
(1.02355 0.0443751 -4.46478e-23)
(1.02169 0.0370347 7.59975e-23)
(1.0198 0.0306806 -3.93688e-24)
(1.01798 0.0251388 0)
(1.01625 0.0202527 0)
(1.01472 0.0158929 0)
(1.01346 0.0119528 0)
(1.0125 0.00831905 0)
(1.01186 0.00488546 0)
(1.01158 0.00158453 0)
(1.01528 -0.00197552 0)
(1.01543 -0.0058143 0)
(1.01581 -0.00984405 0)
(1.01638 -0.0140159 0)
(1.01711 -0.0184369 0)
(1.01794 -0.0232203 0)
(1.01876 -0.0284473 0)
(1.01935 -0.034129 7.00187e-23)
(1.01909 -0.0402324 -3.7872e-22)
(1.01796 -0.0466678 -3.37919e-23)
(1.01595 -0.0535227 1.33293e-23)
(1.01275 -0.060961 4.6711e-22)
(1.00792 -0.0685981 -2.39361e-22)
(0.997871 -0.0733143 -1.64998e-21)
(0.988697 -0.0767455 -4.30547e-23)
(0.971916 -0.0815276 2.23206e-21)
(0.948095 -0.0794771 -1.95759e-21)
(0.923326 -0.067492 2.32251e-21)
(0.897043 -0.0433163 -2.07761e-21)
(0.879173 -0.00535467 4.73368e-22)
(0.879109 0.0396594 2.49717e-21)
(0.897096 0.0797586 9.25198e-21)
(0.927294 0.106507 7.41877e-22)
(0.959956 0.118149 8.79183e-22)
(0.989786 0.119697 1.17903e-21)
(1.01179 0.110668 1.40383e-21)
(1.02497 0.09881 -1.41641e-21)
(1.03906 0.0847332 -3.55841e-22)
(1.03991 0.0714335 -2.01775e-24)
(1.03838 0.0590593 5.48863e-22)
(1.03519 0.048311 -5.56694e-23)
(1.03154 0.0394146 2.2852e-23)
(1.02804 0.0321413 -1.7782e-23)
(1.02512 0.0260884 0)
(1.02257 0.0208775 0)
(1.02038 0.0162966 0)
(1.01861 0.0122038 0)
(1.01727 0.0084657 0)
(1.0164 0.00500847 0)
(1.01598 0.0016526 0)
(1.02064 -0.00200985 0)
(1.0209 -0.00624633 0)
(1.02151 -0.0105907 0)
(1.02243 -0.0151604 0)
(1.02362 -0.0201254 0)
(1.02504 -0.0255566 0)
(1.02659 -0.0315765 6.01496e-24)
(1.02768 -0.038197 -2.9595e-23)
(1.02774 -0.045341 -2.10965e-23)
(1.02736 -0.0530703 2.32755e-22)
(1.02645 -0.0618842 -2.74817e-22)
(1.02472 -0.0722438 -3.92018e-22)
(1.02105 -0.0856394 6.81343e-22)
(1.00986 -0.0956603 6.62227e-22)
(0.99901 -0.106169 -7.0547e-22)
(0.980113 -0.120409 4.03272e-22)
(0.952105 -0.122126 -2.80367e-21)
(0.907971 -0.118742 9.78248e-22)
(0.858613 -0.0928754 -7.8841e-22)
(0.816173 -0.0357607 4.54143e-21)
(0.807411 0.0434838 -1.20236e-21)
(0.838891 0.113703 -3.56638e-21)
(0.893394 0.15402 2.09072e-21)
(0.951906 0.165965 3.90143e-21)
(0.995715 0.156798 -2.22852e-21)
(1.03136 0.140457 -9.63669e-22)
(1.04612 0.119182 2.33826e-21)
(1.06099 0.0972827 -2.49409e-22)
(1.05927 0.0777709 3.51524e-22)
(1.05487 0.0624953 -8.94554e-24)
(1.04896 0.0499704 -8.44044e-23)
(1.04285 0.0398442 5.79299e-23)
(1.03714 0.0318496 -6.86023e-23)
(1.03258 0.0255424 -8.30797e-24)
(1.02905 0.0203249 0)
(1.02612 0.0158292 0)
(1.02378 0.011847 0)
(1.02205 0.00825431 0)
(1.0209 0.004832 0)
(1.02036 0.00164802 0)
(1.02631 -0.00222376 0)
(1.02672 -0.0065547 0)
(1.02761 -0.0110351 0)
(1.02897 -0.0158614 0)
(1.03079 -0.0211135 0)
(1.03302 -0.0269509 0)
(1.03546 -0.0335008 1.12281e-24)
(1.03712 -0.0407501 -5.97843e-23)
(1.03792 -0.0485595 3.06897e-23)
(1.03892 -0.0573375 6.38067e-23)
(1.04008 -0.0679915 -1.66337e-22)
(1.04121 -0.0812742 1.9618e-23)
(1.0419 -0.0985366 1.10772e-22)
(1.03475 -0.115349 -6.45178e-23)
(1.0268 -0.135584 -9.83657e-23)
(1.00441 -0.162359 1.7654e-22)
(0.970815 -0.184542 -2.60563e-22)
(0.909785 -0.20829 -5.29462e-22)
(0.811249 -0.202596 4.34519e-21)
(0.696016 -0.120532 2.67121e-21)
(0.650852 0.045814 -1.60071e-21)
(0.728421 0.200472 1.22599e-21)
(0.858779 0.260873 -1.68598e-21)
(0.962133 0.248082 -2.80831e-23)
(1.03097 0.211594 -1.76991e-22)
(1.07119 0.171033 -5.51771e-22)
(1.08113 0.132406 3.05103e-22)
(1.09023 0.100483 2.84965e-23)
(1.08259 0.0780496 9.59188e-23)
(1.07385 0.061516 4.2966e-24)
(1.06427 0.0483014 -1.42346e-22)
(1.05505 0.037711 4.00806e-23)
(1.04667 0.0295491 -2.67717e-23)
(1.04 0.0233879 1.41079e-23)
(1.03528 0.0185118 0)
(1.03155 0.0143581 0)
(1.02863 0.0107017 0)
(1.02649 0.0073948 0)
(1.02511 0.00436436 0)
(1.02446 0.00134136 0)
(1.03204 -0.0020124 0)
(1.03263 -0.00639615 0)
(1.03388 -0.0109265 0)
(1.03579 -0.015774 0)
(1.03836 -0.0210643 0)
(1.04156 -0.0270159 0)
(1.04491 -0.0337035 1.30638e-23)
(1.04722 -0.041008 -3.2085e-23)
(1.04922 -0.0490203 2.12918e-23)
(1.05227 -0.058372 -5.01538e-23)
(1.05652 -0.0698755 4.6607e-23)
(1.06212 -0.0844577 1.23239e-22)
(1.06943 -0.102071 -1.31959e-22)
(1.06955 -0.1251 -1.3532e-22)
(1.07118 -0.155293 -2.59214e-22)
(1.0649 -0.197324 1.41804e-22)
(1.04276 -0.254505 -2.61685e-26)
(0.986158 -0.345239 1.61293e-22)
(0.823468 -0.447208 -1.89804e-21)
(0.458441 -0.420381 -5.99462e-20)
(0.187733 0.0667308 -1.49149e-21)
(0.521271 0.518749 -3.69891e-20)
(0.8956 0.501251 1.39559e-21)
(1.06134 0.367251 7.85264e-23)
(1.11866 0.258646 -8.2048e-23)
(1.13595 0.178622 7.62529e-23)
(1.12845 0.134642 -1.45927e-23)
(1.12275 0.089309 -2.20356e-23)
(1.10806 0.0698852 3.18379e-23)
(1.09372 0.0543337 -1.40473e-23)
(1.0798 0.0420607 -3.06535e-24)
(1.06714 0.0324272 -1.10619e-23)
(1.05593 0.025048 3.70525e-23)
(1.04688 0.0195821 -1.58669e-23)
(1.04083 0.0154862 0)
(1.03638 0.0120629 0)
(1.03296 0.00905856 0)
(1.03045 0.0062924 0)
(1.02884 0.00375338 0)
(1.02806 0.0013069 0)
(1.03761 -0.00218989 0)
(1.03841 -0.00606988 0)
(1.04004 -0.0102486 0)
(1.0425 -0.0146974 0)
(1.04585 -0.0196847 0)
(1.05008 -0.0253548 0)
(1.05429 -0.0316895 -1.57369e-23)
(1.05734 -0.0384796 -4.4147e-24)
(1.06083 -0.0460191 7.50615e-24)
(1.06634 -0.0550334 5.02085e-23)
(1.07404 -0.0658905 7.23117e-23)
(1.08428 -0.0790607 1.26174e-22)
(1.09866 -0.0952756 -2.29252e-22)
(1.10593 -0.119334 -8.9994e-24)
(1.1251 -0.147483 3.09104e-22)
(1.14258 -0.194266 -1.04334e-22)
(1.16667 -0.264503 3.05268e-22)
(1.20556 -0.395528 1.15583e-21)
(0.889579 -0.473939 -8.12139e-20)
(1.13748 0.598396 6.43434e-20)
(1.30529 0.388225 1.13976e-22)
(1.25024 0.2348 2.7605e-22)
(1.21288 0.146963 -8.00725e-23)
(1.17963 0.108369 -6.51882e-23)
(1.1548 0.0649035 3.11756e-22)
(1.13139 0.0507277 -1.32283e-22)
(1.11119 0.039432 -8.9028e-23)
(1.09323 0.0306764 -6.76413e-23)
(1.07756 0.0237849 -3.58458e-23)
(1.0639 0.0183664 -2.77324e-23)
(1.05266 0.014324 -1.12111e-23)
(1.04526 0.0114122 0)
(1.04025 0.00903902 0)
(1.03645 0.00688299 0)
(1.0337 0.00489611 0)
(1.03185 0.0028562 0)
(1.03099 0.00100226 0)
(1.04269 -0.00150498 0)
(1.04368 -0.00514576 0)
(1.04567 -0.00877592 0)
(1.04871 -0.0126847 0)
(1.05285 -0.0170271 0)
(1.05806 -0.0219699 0)
(1.06298 -0.0274092 -8.36983e-25)
(1.06676 -0.0331877 -3.26486e-24)
(1.07183 -0.039689 2.49456e-26)
(1.0796 -0.0474688 6.61142e-23)
(1.09037 -0.056717 -8.1304e-23)
(1.10433 -0.0671659 1.10485e-23)
(1.12307 -0.0787462 3.43713e-22)
(1.13708 -0.0976998 1.73856e-22)
(1.16837 -0.114463 4.47351e-21)
(1.2036 -0.143789 -1.25571e-22)
(1.26367 -0.181528 7.39502e-23)
(1.35185 -0.219666 1.95799e-21)
(0.0140392 0.0118327 4.12808e-19)
(0.0573198 0.00243315 -1.86274e-19)
(1.4752 0.192677 -3.24831e-22)
(1.34816 0.129384 1.81471e-22)
(1.27093 0.0766278 2.1823e-21)
(1.21964 0.0559164 3.20435e-21)
(1.17527 0.0263811 6.72216e-22)
(1.14626 0.0220554 -2.34217e-22)
(1.12231 0.0180732 -8.00115e-24)
(1.10209 0.0150058 5.65754e-25)
(1.08464 0.0123332 -1.00877e-23)
(1.06931 0.0099744 -2.20529e-24)
(1.05655 0.00805674 7.66851e-24)
(1.04813 0.00669237 0)
(1.04271 0.00550033 0)
(1.03866 0.00424821 0)
(1.03582 0.0030138 0)
(1.03405 0.00185599 0)
(1.03318 0.000479754 0)
(1.04687 -0.00131099 1.18139e-25)
(1.04811 -0.00393598 0)
(1.0505 -0.00674262 0)
(1.05405 -0.00979895 0)
(1.05881 -0.0131229 0)
(1.06477 -0.016889 0)
(1.07025 -0.0210032 -2.04939e-24)
(1.07485 -0.0254973 2.80939e-23)
(1.08144 -0.0306907 4.44516e-23)
(1.09107 -0.036931 -4.15189e-22)
(1.10389 -0.0441998 4.12055e-22)
(1.11961 -0.051793 3.95488e-22)
(1.13894 -0.0590656 -5.31025e-22)
(1.15438 -0.0704178 7.41587e-22)
(1.1848 -0.0740592 -4.89455e-22)
(1.22138 -0.0794653 1.27766e-21)
(1.28056 -0.0771635 -9.80818e-22)
(1.22405 -0.0373439 -1.42535e-22)
(0.103944 0.016856 -1.09252e-21)
(0.219639 0.0324516 1.62635e-20)
(1.45806 0.00899883 -3.1984e-22)
(1.37394 0.00482602 -3.32436e-22)
(1.28932 -0.0105222 -1.90536e-21)
(1.23354 -0.00951627 -2.28635e-22)
(1.17931 -0.0187304 4.21498e-22)
(1.14887 -0.0109649 -2.81635e-22)
(1.12423 -0.006217 -4.06648e-22)
(1.10393 -0.00260202 2.10585e-23)
(1.0865 -0.000395463 1.13222e-22)
(1.07125 0.000827329 -1.32538e-23)
(1.0581 0.00152902 -2.38969e-24)
(1.04941 0.00192871 0)
(1.0441 0.00202008 0)
(1.04016 0.00183185 0)
(1.03731 0.00142961 0)
(1.03546 0.000936333 0)
(1.03454 0.000387215 0)
(1.05067 -0.00107738 -7.57325e-28)
(1.05179 -0.00263368 0)
(1.05427 -0.00433273 0)
(1.05803 -0.00614931 0)
(1.06316 -0.00813113 0)
(1.06957 -0.0103888 0)
(1.07574 -0.0129834 -5.32056e-24)
(1.08132 -0.0160149 -9.00967e-24)
(1.08939 -0.0198585 -7.70967e-23)
(1.10039 -0.0245959 9.56812e-23)
(1.11418 -0.0301106 6.55858e-22)
(1.13051 -0.0362145 -2.5017e-22)
(1.14816 -0.0426408 -2.79885e-22)
(1.16058 -0.0484484 3.45247e-22)
(1.17905 -0.0473076 1.53354e-21)
(1.19883 -0.0342461 -5.03911e-22)
(1.22847 0.00240398 2.03722e-21)
(1.0425 0.114011 1.58712e-22)
(0.024688 0.25777 2.22961e-21)
(-0.239733 0.41563 1.34033e-21)
(-0.0549659 0.548616 6.44434e-23)
(0.224657 0.422012 -6.31697e-22)
(0.622884 0.0400559 9.01553e-22)
(1.45115 -0.121987 2.6703e-21)
(1.36015 -0.114557 -2.70105e-21)
(1.27125 -0.0985493 -1.51353e-21)
(1.21789 -0.0746174 1.73783e-21)
(1.16303 -0.0605852 6.83505e-22)
(1.13677 -0.042349 1.75534e-22)
(1.11549 -0.0291976 -6.16631e-22)
(1.09774 -0.0191124 7.25361e-23)
(1.08238 -0.0121604 -1.13562e-23)
(1.06869 -0.0074076 -7.6427e-23)
(1.05667 -0.00421008 8.86832e-24)
(1.04872 -0.00212823 0)
(1.04387 -0.00090066 0)
(1.04033 -0.00023099 0)
(1.03775 5.98904e-05 0)
(1.03604 5.74805e-05 0)
(1.03524 6.96061e-05 0)
(1.05253 5.20858e-05 3.896e-23)
(1.05387 -0.000596405 0)
(1.05625 -0.00121662 0)
(1.06007 -0.00182102 0)
(1.06543 -0.0023948 0)
(1.0722 -0.0029691 0)
(1.07922 -0.00382902 1.15024e-25)
(1.08582 -0.00535547 -2.28343e-23)
(1.09515 -0.00774498 1.68919e-22)
(1.10743 -0.0110851 -3.75551e-22)
(1.12212 -0.0153361 4.98627e-22)
(1.13908 -0.0209995 -7.20397e-22)
(1.15553 -0.0279054 5.89491e-22)
(1.16391 -0.0369334 -7.74196e-22)
(1.17143 -0.0435003 1.69937e-22)
(1.16384 -0.0437212 -9.6328e-22)
(1.12655 -0.0132408 -2.34063e-21)
(0.682632 0.130655 -6.29873e-21)
(-0.231155 0.333067 2.78109e-21)
(-0.332568 0.341468 7.89348e-21)
(0.146234 0.166841 -4.59706e-21)
(0.617628 -0.0278273 -3.00531e-21)
(1.19906 -0.286736 6.24875e-22)
(1.40606 -0.313898 -5.8464e-21)
(1.29859 -0.235684 6.28918e-22)
(1.21642 -0.177309 -7.86867e-22)
(1.17506 -0.126888 -2.38092e-21)
(1.12799 -0.0909338 5.98904e-22)
(1.1108 -0.0645796 -2.86188e-22)
(1.09641 -0.0453732 -9.66947e-22)
(1.08404 -0.0306002 9.43563e-22)
(1.07278 -0.0201211 -4.60465e-22)
(1.06216 -0.0126842 3.85666e-23)
(1.05259 -0.00794251 1.33418e-24)
(1.04634 -0.00509398 0)
(1.04247 -0.00326563 0)
(1.03954 -0.00202492 0)
(1.03742 -0.00120636 0)
(1.03603 -0.00057733 0)
(1.03553 -0.000207038 4.8207e-23)
(1.0521 0.000355584 1.72923e-22)
(1.05363 0.00118848 0)
(1.05625 0.00203915 0)
(1.0601 0.00283542 0)
(1.06543 0.00374744 0)
(1.07227 0.00490851 0)
(1.08 0.00596801 0)
(1.08795 0.00611123 -2.81297e-24)
(1.09817 0.00530833 -3.5183e-23)
(1.11142 0.00376866 2.96273e-23)
(1.12748 0.00120147 -2.69396e-23)
(1.1464 -0.00371297 2.32358e-22)
(1.16678 -0.0102523 -2.67012e-22)
(1.1885 -0.0268694 5.99841e-23)
(1.18891 -0.0450516 3.67108e-22)
(1.18784 -0.0815686 -3.07696e-22)
(1.10587 -0.117179 6.16007e-23)
(0.43627 -0.0681697 -7.34113e-20)
(-0.214899 -0.120471 -7.29565e-22)
(-0.0563419 -0.352294 -5.05093e-21)
(0.408507 -0.529609 -4.36426e-21)
(0.844235 -0.664291 -6.02293e-21)
(1.23922 -0.661416 5.0179e-22)
(1.23036 -0.458153 2.31396e-21)
(1.15006 -0.312434 1.76082e-21)
(1.12616 -0.22465 -2.99308e-21)
(1.08726 -0.147875 -6.14548e-22)
(1.08116 -0.102122 1.47831e-22)
(1.07593 -0.0727682 -3.32057e-23)
(1.07051 -0.0511067 -1.10247e-22)
(1.06534 -0.0345509 -2.22005e-23)
(1.05968 -0.0225796 7.1344e-23)
(1.05328 -0.0141457 3.62827e-23)
(1.04725 -0.00868392 0)
(1.04316 -0.00565145 0)
(1.04041 -0.00378944 0)
(1.03826 -0.0024578 0)
(1.03666 -0.00155479 0)
(1.03564 -0.00081341 0)
(1.03515 -0.000278492 -3.06764e-23)
(1.05062 0.000752074 3.53085e-24)
(1.0519 0.00259263 0)
(1.05433 0.00471598 0)
(1.05798 0.006967 0)
(1.06299 0.00944359 0)
(1.06953 0.0123334 0)
(1.07763 0.0154915 0)
(1.08697 0.0179686 0)
(1.09831 0.0195659 3.98098e-24)
(1.11232 0.0206676 3.37123e-24)
(1.1299 0.0214513 -6.35731e-24)
(1.1518 0.0203306 -1.04939e-22)
(1.1788 0.0184528 -1.59809e-22)
(1.21175 0.0110571 4.02513e-22)
(1.23158 -0.0204428 5.15024e-22)
(1.27332 -0.0660501 9.33839e-22)
(1.20344 -0.156587 -1.16887e-21)
(0.550771 -0.294717 2.4009e-21)
(0.156235 -0.569888 6.28864e-21)
(0.206131 -0.797173 -4.17523e-21)
(0.511485 -0.871046 8.5128e-21)
(0.818392 -0.814559 -9.472e-21)
(0.941016 -0.653475 7.58449e-21)
(0.978949 -0.469698 2.03972e-20)
(0.996937 -0.305858 4.49807e-22)
(1.02055 -0.21383 9.1265e-22)
(1.01947 -0.132306 -3.95559e-22)
(1.03155 -0.0899142 7.5482e-22)
(1.03876 -0.0642462 -1.3152e-22)
(1.04305 -0.0446117 -2.03781e-22)
(1.04512 -0.0299463 6.17087e-23)
(1.04495 -0.0192746 -2.76469e-23)
(1.04342 -0.0116336 0)
(1.04158 -0.00684345 0)
(1.03993 -0.00443127 0)
(1.03838 -0.00298918 0)
(1.03696 -0.00196347 1.82189e-23)
(1.0358 -0.00125832 2.51955e-23)
(1.03495 -0.000727087 1.50243e-23)
(1.03447 -0.000157724 0)
(1.04774 0.00124511 0)
(1.04879 0.00393317 0)
(1.05083 0.00689856 0)
(1.05396 0.0102325 0)
(1.05831 0.0140487 0)
(1.06413 0.0185411 0)
(1.07198 0.0237978 0)
(1.08198 0.0291458 0)
(1.09408 0.0342919 -3.52606e-26)
(1.10841 0.0396217 -6.99355e-25)
(1.12638 0.0459953 -1.56012e-23)
(1.14968 0.0526017 -1.62474e-22)
(1.18005 0.0611883 -3.6766e-22)
(1.22074 0.0721779 -7.81806e-22)
(1.26472 0.0525545 2.37841e-21)
(1.34589 0.0399126 -1.06671e-21)
(1.36402 -0.0302382 -1.74359e-21)
(0.946325 -0.233815 -2.19895e-21)
(0.515471 -0.536743 6.69198e-22)
(0.377972 -0.754086 -2.35557e-21)
(0.450691 -0.803565 2.47915e-21)
(0.601052 -0.683141 -5.01129e-22)
(0.721575 -0.501017 1.20442e-21)
(0.77951 -0.354722 8.33133e-22)
(0.858257 -0.228175 -9.80949e-22)
(0.927537 -0.155301 2.16052e-23)
(0.962024 -0.0802543 1.18999e-22)
(0.989191 -0.0548632 -1.88173e-23)
(1.00896 -0.0381761 5.12575e-23)
(1.02131 -0.0258836 4.99321e-24)
(1.02881 -0.0167963 -7.61109e-25)
(1.03299 -0.0101686 -2.29957e-26)
(1.0355 -0.00549946 0)
(1.03703 -0.00291553 0)
(1.03743 -0.00183769 0)
(1.03676 -0.0012272 0)
(1.03578 -0.000798697 0)
(1.03487 -0.000486259 0)
(1.03421 -0.000298775 0)
(1.03392 -0.000111687 -2.7059e-24)
(1.04369 0.00159069 0)
(1.04445 0.00491962 0)
(1.046 0.00851903 0)
(1.04841 0.0125713 0)
(1.05178 0.0173288 0)
(1.05637 0.0230359 0)
(1.06311 0.0299306 0)
(1.07244 0.0377715 0)
(1.0838 0.0465756 0)
(1.09685 0.0568249 0)
(1.11262 0.0698778 -2.32473e-24)
(1.13295 0.0857341 -1.60011e-23)
(1.159 0.107081 1.50829e-23)
(1.19601 0.135334 -8.68825e-23)
(1.24679 0.144569 6.35827e-21)
(1.3292 0.183784 7.36556e-22)
(1.43261 0.202573 4.97226e-21)
(1.27553 0.141461 2.32373e-21)
(0.92752 -0.0940564 -7.34139e-22)
(0.637642 -0.352694 5.53608e-21)
(0.46359 -0.501535 -2.85787e-21)
(0.402246 -0.49071 -1.371e-20)
(0.459629 -0.358947 -1.36609e-21)
(0.599517 -0.201094 9.0348e-22)
(0.785454 -0.094968 -2.18515e-21)
(0.86646 -0.0580999 2.90824e-23)
(0.927379 -0.00124819 1.40229e-22)
(0.967964 -0.00188949 -1.45914e-22)
(0.99535 0.000764667 1.99018e-23)
(1.01178 0.000873585 1.3244e-23)
(1.02178 0.00146127 0)
(1.02802 0.00194978 0)
(1.03238 0.00225253 0)
(1.03551 0.0019433 0)
(1.03679 0.00134077 0)
(1.03635 0.000886264 0)
(1.03541 0.000576175 0)
(1.03454 0.000368947 0)
(1.03394 0.000186015 0)
(1.03357 6.4263e-06 0)
(1.03895 0.00167724 0)
(1.03936 0.00529955 0)
(1.04031 0.00924754 0)
(1.04182 0.0137274 0)
(1.04394 0.0190107 0)
(1.04695 0.0253501 0)
(1.05191 0.0330692 0)
(1.05939 0.0422828 0)
(1.06826 0.0534964 0)
(1.0777 0.0673593 0)
(1.08821 0.0854534 0)
(1.10098 0.108336 -1.34275e-24)
(1.11654 0.138765 -1.0372e-23)
(1.13867 0.178442 -2.23623e-23)
(1.17783 0.214034 2.08337e-21)
(1.22038 0.282734 7.16702e-22)
(1.32118 0.374231 3.19861e-22)
(1.33796 0.477326 1.18384e-21)
(1.15912 0.493072 -1.04431e-23)
(0.890029 0.409255 -4.16288e-21)
(0.625693 0.277628 -4.13093e-21)
(0.435705 0.14358 4.79733e-21)
(0.395337 0.0375684 -2.82265e-22)
(0.497117 -0.0139044 -6.31e-22)
(0.713229 0.0406014 -1.83736e-22)
(0.84778 0.0696889 -1.09903e-21)
(0.935277 0.0848809 -2.18675e-22)
(0.978882 0.0560862 -1.94527e-23)
(1.00465 0.0412221 8.79574e-24)
(1.01826 0.027509 0)
(1.02609 0.0188474 0)
(1.03096 0.0129991 0)
(1.0346 0.00902505 0)
(1.03743 0.006053 0)
(1.03829 0.00389693 0)
(1.03738 0.00242741 0)
(1.03609 0.00143841 0)
(1.03502 0.000772049 0)
(1.03426 0.00034504 0)
(1.03375 5.23684e-05 0)
(1.03404 0.0016922 0)
(1.03404 0.00527542 0)
(1.03429 0.00916032 0)
(1.03484 0.0135686 0)
(1.03564 0.0187351 0)
(1.03692 0.0249082 0)
(1.03976 0.0325255 0)
(1.04457 0.0419561 0)
(1.04964 0.0539506 0)
(1.05382 0.0692324 0)
(1.05727 0.089248 2.36071e-23)
(1.0601 0.115057 0)
(1.06327 0.148547 0)
(1.06827 0.192193 1.47129e-22)
(1.07184 0.252497 1.77496e-21)
(1.08917 0.310491 3.53036e-21)
(1.10564 0.415084 5.70709e-22)
(1.11213 0.569236 -3.41051e-22)
(1.05447 0.69909 -3.04634e-23)
(0.930587 0.752711 -1.20616e-21)
(0.791133 0.72161 -7.00034e-21)
(0.686579 0.606131 2.72065e-22)
(0.651623 0.439129 -3.14048e-22)
(0.662634 0.277335 1.05424e-22)
(0.688715 0.188233 -5.08574e-23)
(0.879874 0.215422 4.30944e-21)
(0.984918 0.147136 2.90713e-21)
(1.02437 0.10044 0)
(1.03694 0.069796 0)
(1.04 0.0454223 -4.04733e-23)
(1.04064 0.030073 0)
(1.04064 0.0197187 0)
(1.04119 0.0127178 0)
(1.04205 0.007911 0)
(1.04143 0.00477264 0)
(1.03947 0.00276182 0)
(1.03746 0.00147953 0)
(1.03589 0.000686267 -2.9985e-24)
(1.03478 0.00025516 -2.15116e-24)
(1.03403 3.17944e-05 0)
(1.02919 0.00166143 0)
(1.02891 0.00479909 0)
(1.02867 0.0081467 0)
(1.02845 0.0118462 0)
(1.02812 0.016143 0)
(1.02777 0.0212763 0)
(1.02827 0.0277938 0)
(1.02985 0.0363657 0)
(1.03058 0.0476741 0)
(1.02917 0.0623014 0)
(1.02547 0.0813175 1.10809e-22)
(1.0188 0.106241 0)
(1.00954 0.137885 0)
(0.997932 0.179963 -4.55299e-22)
(0.987838 0.234662 -5.81769e-21)
(0.969538 0.295507 6.06718e-22)
(0.942502 0.35524 0)
(0.918067 0.429841 1.83585e-22)
(0.879175 0.513384 -7.26172e-21)
(0.832334 0.588647 -7.39872e-21)
(0.788865 0.620608 -4.05619e-21)
(0.787727 0.608029 -2.49096e-23)
(0.812861 0.57836 4.26812e-22)
(0.836598 0.509813 0)
(0.844951 0.390375 4.4519e-22)
(0.989046 0.270917 7.83292e-22)
(1.07794 0.168377 -3.95927e-21)
(1.09479 0.114272 0)
(1.08325 0.0754797 0)
(1.07091 0.0481038 2.31647e-24)
(1.06126 0.0310651 0)
(1.05439 0.0193765 0)
(1.05037 0.0114786 0)
(1.04804 0.00630997 0)
(1.04514 0.00328019 0)
(1.04174 0.0015369 5.42471e-24)
(1.03882 0.000565068 -7.04932e-24)
(1.03664 0.000102439 0)
(1.03513 -2.72087e-05 0)
(1.03418 1.29396e-06 -1.65657e-23)
(1.02507 0.0012216 0)
(1.02482 0.00353748 0)
(1.02441 0.00590282 0)
(1.02372 0.00843065 0)
(1.02254 0.0113269 0)
(1.02081 0.0147546 0)
(1.019 0.0192338 -2.66737e-24)
(1.01721 0.0256807 0)
(1.0138 0.0346795 0)
(1.00745 0.0465615 0)
(0.997476 0.0620636 0)
(0.98279 0.0827788 0)
(0.962118 0.109399 0)
(0.937765 0.145219 1.43744e-22)
(0.913747 0.192758 6.75612e-23)
(0.884965 0.255602 5.52775e-23)
(0.84505 0.328037 0)
(0.798192 0.410975 0)
(0.760566 0.495872 -1.81262e-21)
(0.749447 0.578422 -2.83534e-20)
(0.765826 0.602694 -9.18684e-21)
(0.809694 0.595627 -2.67485e-21)
(0.871394 0.543886 0)
(0.953502 0.461342 0)
(1.03216 0.331912 0)
(1.14865 0.20708 1.90154e-23)
(1.1883 0.119716 -7.36229e-22)
(1.16291 0.0807199 2.48814e-23)
(1.12654 0.0512765 0)
(1.09999 0.0320573 0)
(1.0808 0.0193631 0)
(1.0676 0.0104769 0)
(1.05906 0.0045329 2.38053e-23)
(1.05321 0.00102147 9.75543e-24)
(1.04792 -0.000566108 4.91467e-25)
(1.04312 -0.00119559 0)
(1.03937 -0.00129547 0)
(1.03669 -0.00107411 0)
(1.03494 -0.000654417 0)
(1.03401 -0.000205165 0)
(1.02269 0.000432701 0)
(1.02245 0.00163689 0)
(1.02198 0.00274196 0)
(1.02104 0.00388792 0)
(1.01943 0.00508302 0)
(1.01689 0.00638196 0)
(1.01336 0.00810027 0)
(1.00879 0.0110835 0)
(1.00205 0.0158444 8.44441e-24)
(0.991835 0.022489 0)
(0.976595 0.031453 0)
(0.954837 0.0437841 0)
(0.925858 0.0616402 4.62355e-22)
(0.886566 0.0852099 -1.37856e-21)
(0.832384 0.125747 0)
(0.779343 0.186865 0)
(0.728596 0.256498 0)
(0.685646 0.318883 0)
(0.671574 0.369144 -1.05206e-21)
(0.708652 0.409711 9.66523e-22)
(0.787522 0.399249 -6.73306e-20)
(0.883298 0.391691 3.13141e-20)
(0.992136 0.309756 0)
(1.10594 0.22893 0)
(1.20223 0.121362 0)
(1.27737 0.0512251 0)
(1.25503 0.0167584 -1.23746e-21)
(1.19806 0.0112128 -4.55218e-22)
(1.14961 0.00431964 0)
(1.11587 0.000607059 -6.82219e-25)
(1.09177 -0.00298064 -1.63557e-23)
(1.07509 -0.0054337 -6.49966e-24)
(1.06356 -0.00682805 0)
(1.05516 -0.00690576 0)
(1.04829 -0.00601738 0)
(1.04276 -0.00491535 0)
(1.03863 -0.00376377 0)
(1.03573 -0.0026513 0)
(1.03389 -0.00156312 0)
(1.03299 -0.000518606 0)
(1.02226 -0.000100863 0)
(1.02186 -0.000124137 0)
(1.02138 -0.000320043 0)
(1.02054 -0.000649146 0)
(1.01909 -0.00129946 0)
(1.0166 -0.00234257 0)
(1.01253 -0.00374672 0)
(1.00669 -0.00508737 0)
(0.998416 -0.00620122 0)
(0.986432 -0.0073605 0)
(0.968507 -0.00863943 1.48803e-24)
(0.941941 -0.0102219 1.21558e-22)
(0.903421 -0.00858438 -5.92267e-21)
(0.84883 -0.00140756 -1.08319e-20)
(0.775243 0.0181904 0)
(0.710771 0.0368918 0)
(0.671184 0.0470742 0)
(0.646447 0.0449257 0)
(0.652274 0.0338465 -1.66488e-20)
(0.720427 0.0214311 2.50913e-20)
(0.843743 -0.0133747 -2.7803e-20)
(0.974005 -0.0112088 1.15306e-19)
(1.10533 -0.0739984 0)
(1.21802 -0.0970823 0)
(1.28205 -0.131642 0)
(1.30284 -0.120623 0)
(1.24668 -0.0940478 1.77481e-21)
(1.18677 -0.0642855 8.74021e-22)