/*--------------------------------*- C++ -*----------------------------------*\
| =========                 |                                                 |
| \\      /  F ield         | OpenFOAM: The Open Source CFD Toolbox           |
|  \\    /   O peration     | Version:  v2106                                 |
|   \\  /    A nd           | Website:  www.openfoam.com                      |
|    \\/     M anipulation  |                                                 |
\*---------------------------------------------------------------------------*/
FoamFile
{
    version     2.0;
    format      ascii;
    arch        "LSB;label=32;scalar=64";
    class       pointVectorField;
    location    "0";
    object      pointDisplacement;
}
// * * * * * * * * * * * * * * * * * * * * * * * * * * * * * * * * * * * * * //

dimensions      [0 1 0 0 0 0 0];

internalField   nonuniform List<vector> 
24440
(
(0 0 0)
(0 0 0)
(0 0 0)
(0 0 0)
(0 0 0)
(0 0 0)
(0 0 0)
(0 0 0)
(0 0 0)
(0 0 0)
(0 0 0)
(0 0 0)
(0 0 0)
(0 0 0)
(0 0 0)
(0 0 0)
(0 0 0)
(0 0 0)
(0 0 0)
(0 0 0)
(0 0 0)
(0 0 0)
(0 0 0)
(0 0 0)
(0 0 0)
(0 0 0)
(0 0 0)
(0 0 0)
(0 0 0)
(0 0 0)
(0 0 0)
(0 0 0)
(0 0 0)
(0 0 0)
(0 0 0)
(0 0 0)
(0 0 0)
(0 0 0)
(0 0 0)
(0 0 0)
(0 0 0)
(0 0 0)
(0 0 0)
(0 0 0)
(0 0 0)
(0 0 0)
(0 0 0)
(0 0 0)
(0 0 0)
(0 0 0)
(0 0 0)
(0 0 0)
(0 0 0)
(0 0 0)
(0 0 0)
(0 0 0)
(0 0 0)
(0 0 0)
(0 0 0)
(0 0 0)
(0 0 0)
(0 0 0)
(0 0 0)
(0 0 0)
(0 0 0)
(0 0 0)
(0 0 0)
(0 0 0)
(0 0 0)
(0 0 0)
(0 0 0)
(0 0 0)
(0 0 0)
(0 0 0)
(0 0 0)
(0 0 0)
(0 0 0)
(0 0 0)
(0 0 0)
(0 0 0)
(0 0 0)
(0 0 0)
(0 0 0)
(0 0 0)
(0 0 0)
(0 0 0)
(0 0 0)
(0 0 0)
(0 0 0)
(0 0 0)
(0 0 0)
(0 0 0)
(0 0 0)
(0 0 0)
(0 0 0)
(0 0 0)
(0 0 0)
(0 0 0)
(0 8.45866e-06 0)
(0 5.33408e-05 0)
(0 0.000146676 0)
(0 0.00022602 0)
(0 0.00025647 0)
(0 0.00022602 0)
(0 0.000146676 0)
(0 5.33408e-05 0)
(0 8.45866e-06 0)
(0 0 0)
(0 0 0)
(0 0 0)
(0 0 0)
(0 0 0)
(0 0 0)
(0 0 0)
(0 0 0)
(0 0 0)
(0 0 0)
(0 0 0)
(0 0 0)
(0 0 0)
(0 0 0)
(0 0 0)
(0 0 0)
(0 0 0)
(0 0 0)
(0 0 0)
(0 0 0)
(0 0 0)
(0 0 0)
(0 0 0)
(0 0 0)
(0 0 0)
(0 0 0)
(0 0 0)
(0 0 0)
(0 0 0)
(0 1.4166e-05 0)
(0 0.000187392 0)
(0 0.000551481 0)
(0 0.000993457 0)
(0 0.00141707 0)
(0 0.00171239 0)
(0 0.00198693 0)
(0 0.00208352 0)
(0 0.00198693 0)
(0 0.00171239 0)
(0 0.00141707 0)
(0 0.000993457 0)
(0 0.000551481 0)
(0 0.000187392 0)
(0 1.4166e-05 0)
(0 0 0)
(0 0 0)
(0 0 0)
(0 0 0)
(0 0 0)
(0 0 0)
(0 0 0)
(0 0 0)
(0 0 0)
(0 0 0)
(0 0 0)
(0 0 0)
(0 0 0)
(0 0 0)
(0 0 0)
(0 0 0)
(0 0 0)
(0 0 0)
(0 0 0)
(0 0 0)
(0 0 0)
(0 0 0)
(0 0 0)
(0 0 0)
(0 5.94769e-06 0)
(0 0.000246438 0)
(0 0.000840432 0)
(0 0.00165732 0)
(0 0.00249872 0)
(0 0.0034374 0)
(0 0.00425038 0)
(0 0.00475388 0)
(0 0.00523532 0)
(0 0.00540171 0)
(0 0.00523532 0)
(0 0.00475388 0)
(0 0.00425038 0)
(0 0.0034374 0)
(0 0.00249872 0)
(0 0.00165732 0)
(0 0.000840432 0)
(0 0.000246438 0)
(0 5.94769e-06 0)
(0 0 0)
(0 0 0)
(0 0 0)
(0 0 0)
(0 0 0)
(0 0 0)
(0 0 0)
(0 0 0)
(0 0 0)
(0 0 0)
(0 0 0)
(0 0 0)
(0 0 0)
(0 0 0)
(0 0 0)
(0 0 0)
(0 0 0)
(0 0 0)
(0 0 0)
(0 0 0)
(0 0 0)
(0 5.62382e-05 0)
(0 0.000584847 0)
(0 0.00155426 0)
(0 0.00272697 0)
(0 0.00418301 0)
(0 0.00565157 0)
(0 0.00692379 0)
(0 0.00811556 0)
(0 0.00896125 0)
(0 0.00946653 0)
(0 0.00969847 0)
(0 0.00946653 0)
(0 0.00896125 0)
(0 0.00811556 0)
(0 0.00692379 0)
(0 0.00565157 0)
(0 0.00418301 0)
(0 0.00272697 0)
(0 0.00155426 0)
(0 0.000584847 0)
(0 5.95377e-05 0)
(0 0 0)
(0 0 0)
(0 0 0)
(0 0 0)
(0 0 0)
(0 0 0)
(0 0 0)
(0 0 0)
(0 0 0)
(0 0 0)
(0 0 0)
(0 0 0)
(0 0 0)
(0 0 0)
(0 0 0)
(0 0 0)
(0 0 0)
(0 0 0)
(0 0 0)
(0 0.000110608 0)
(0 0.000775583 0)
(0 0.00193576 0)
(0 0.00355375 0)
(0 0.00547668 0)
(0 0.0074749 0)
(0 0.00930861 0)
(0 0.011047 0)
(0 0.0117002 0)
(0 0.0124066 0)
(0 0.0129975 0)
(0 0.0134631 0)
(0 0.013796 0)
(0 0.0140262 0)
(0 0.0142388 0)
(0 0.0143101 0)
(0 0.0142388 0)
(0 0.0140262 0)
(0 0.013796 0)
(0 0.0134631 0)
(0 0.0129975 0)
(0 0.0124066 0)
(0 0.0117002 0)
(0 0.011047 0)
(0 0.00930861 0)
(0 0.0074749 0)
(0 0.00547668 0)
(0 0.00355375 0)
(0 0.00189558 0)
(0 0.000700818 0)
(0 8.83831e-05 0)
(0 0 0)
(0 0 0)
(0 0 0)
(0 0 0)
(0 0 0)
(0 0 0)
(0 0 0)
(0 0 0)
(0 0 0)
(0 0 0)
(0 0 0)
(0 0 0)
(0 0 0)
(0 0 0)
(0 0 0)
(0 0 0)
(0 0 0)
(0 6.50578e-05 0)
(0 0.000744518 0)
(0 0.00207436 0)
(0 0.00390333 0)
(0 0.00604569 0)
(0 0.00856631 0)
(0 0.00977155 0)
(0 0.0108398 0)
(0 0.0120222 0)
(0 0.0131305 0)
(0 0.0141444 0)
(0 0.0150059 0)
(0 0.0130778 0)
(0 0.0138763 0)
(0 0.0145065 0)
(0 0.0151421 0)
(0 0.0156407 0)
(0 0.015996 0)
(0 0.016209 0)
(0 0.0164348 0)
(0 0.0165103 0)
(0 0.0164348 0)
(0 0.016209 0)
(0 0.015996 0)
(0 0.0156407 0)
(0 0.0151421 0)
(0 0.0145065 0)
(0 0.0138763 0)
(0 0.0130778 0)
(0 0.0150059 0)
(0 0.0141444 0)
(0 0.0131305 0)
(0 0.0120222 0)
(0 0.0108398 0)
(0 0.00977155 0)
(0 0.00856631 0)
(0 0.00604569 0)
(0 0.00390333 0)
(0 0.00199869 0)
(0 0.000712126 0)
(0 5.90819e-05 0)
(0 0 0)
(0 0 0)
(0 0 0)
(0 0 0)
(0 0 0)
(0 0 0)
(0 0 0)
(0 0 0)
(0 0 0)
(0 0 0)
(0 0 0)
(0 0 0)
(0 0 0)
(0 0 0)
(0 0 0)
(0 0 0)
(0 0.000411633 0)
(0 0.0016822 0)
(0 0.00359631 0)
(0 0.00600065 0)
(0 0.00867853 0)
(0 0.0113996 0)
(0 0.0100337 0)
(0 0.0113443 0)
(0 0.0126055 0)
(0 0.013793 0)
(0 0.0148481 0)
(0 0.015918 0)
(0 0.0168635 0)
(0 0.0176447 0)
(0 0.0158543 0)
(0 0.0165689 0)
(0 0.0183813 0)
(0 0.0189116 0)
(0 0.0171375 0)
(0 0.0176577 0)
(0 0.0194391 0)
(0 0.0198104 0)
(0 0.0180267 0)
(0 0.0182137 0)
(0 0.0200256 0)
(0 0.0201964 0)
(0 0.0184465 0)
(0 0.0185242 0)
(0 0.0202735 0)
(0 0.0201964 0)
(0 0.0184465 0)
(0 0.0182137 0)
(0 0.0200256 0)
(0 0.0198104 0)
(0 0.0180267 0)
(0 0.0176577 0)
(0 0.0194391 0)
(0 0.0189116 0)
(0 0.0171375 0)
(0 0.0165689 0)
(0 0.0183813 0)
(0 0.0176447 0)
(0 0.0158543 0)
(0 0.0168635 0)
(0 0.015918 0)
(0 0.0148481 0)
(0 0.013793 0)
(0 0.0126055 0)
(0 0.0113443 0)
(0 0.0100337 0)
(0 0.0113996 0)
(0 0.00867853 0)
(0 0.00592841 0)
(0 0.00356792 0)
(0 0.0016804 0)
(0 0.000447511 0)
(0 0 0)
(0 0 0)
(0 0 0)
(0 0 0)
(0 0 0)
(0 0 0)
(0 0 0)
(0 0 0)
(0 0 0)
(0 0 0)
(0 0 0)
(0 0 0)
(0 0 0)
(0 0 0)
(0 0 0)
(0 8.97972e-05 0)
(0 0.00092255 0)
(0 0.00265923 0)
(0 0.00498234 0)
(0 0.0077441 0)
(0 0.0109082 0)
(0 0.013956 0)
(0 0.0127699 0)
(0 0.0141506 0)
(0 0.0127061 0)
(0 0.0141272 0)
(0 0.0154485 0)
(0 0.0167504 0)
(0 0.0153778 0)
(0 0.01652 0)
(0 0.0179242 0)
(0 0.0184595 0)
(0 0.0189577 0)
(0 0.0182803 0)
(0 0.0174841 0)
(0 0.0184543 0)
(0 0.0191501 0)
(0 0.01958 0)
(0 0.0188839 0)
(0 0.019929 0)
(0 0.020589 0)
(0 0.0208944 0)
(0 0.020239 0)
(0 0.0209223 0)
(0 0.021568 0)
(0 0.0217289 0)
(0 0.0211212 0)
(0 0.0214867 0)
(0 0.0220784 0)
(0 0.0221626 0)
(0 0.0215846 0)
(0 0.0216898 0)
(0 0.0222553 0)
(0 0.0222383 0)
(0 0.0216717 0)
(0 0.0214867 0)
(0 0.0220784 0)
(0 0.0219985 0)
(0 0.0214027 0)
(0 0.0209223 0)
(0 0.021568 0)
(0 0.0213832 0)
(0 0.0207391 0)
(0 0.019929 0)
(0 0.020589 0)
(0 0.0203193 0)
(0 0.0195789 0)
(0 0.0184543 0)
(0 0.0191501 0)
(0 0.0186813 0)
(0 0.0179873 0)
(0 0.01652 0)
(0 0.0179242 0)
(0 0.0167504 0)
(0 0.0153778 0)
(0 0.0141272 0)
(0 0.0154485 0)
(0 0.0141506 0)
(0 0.0127061 0)
(0 0.0127699 0)
(0 0.0138932 0)
(0 0.0109007 0)
(0 0.00786892 0)
(0 0.0049405 0)
(0 0.00263334 0)
(0 0.000968788 0)
(0 0.000102688 0)
(0 0 0)
(0 0 0)
(0 0 0)
(0 0 0)
(0 0 0)
(0 0 0)
(0 0 0)
(0 0 0)
(0 0 0)
(0 0 0)
(0 0 0)
(0 0 0)
(0 0 0)
(0 0 0)
(0 0.000293796 0)
(0 0.00148692 0)
(0 0.00349359 0)
(0 0.0061387 0)
(0 0.00919551 0)
(0 0.0125577 0)
(0 0.0156956 0)
(0 0.0149214 0)
(0 0.016398 0)
(0 0.0153931 0)
(0 0.0167347 0)
(0 0.0177675 0)
(0 0.0190043 0)
(0 0.0179569 0)
(0 0.0190395 0)
(0 0.0196002 0)
(0 0.0200826 0)
(0 0.0195996 0)
(0 0.0209623 0)
(0 0.0211943 0)
(0 0.0213815 0)
(0 0.0211516 0)
(0 0.0221907 0)
(0 0.0223762 0)
(0 0.0224967 0)
(0 0.0223149 0)
(0 0.0229178 0)
(0 0.023053 0)
(0 0.0231144 0)
(0 0.0229782 0)
(0 0.0232365 0)
(0 0.0233357 0)
(0 0.0233498 0)
(0 0.0232535 0)
(0 0.023318 0)
(0 0.0233979 0)
(0 0.0233965 0)
(0 0.023316 0)
(0 0.0232365 0)
(0 0.0233357 0)
(0 0.0233161 0)
(0 0.0232133 0)
(0 0.0229178 0)
(0 0.023053 0)
(0 0.0230016 0)
(0 0.0228452 0)
(0 0.0221907 0)
(0 0.0223762 0)
(0 0.0222714 0)
(0 0.0220554 0)
(0 0.0209623 0)
(0 0.0211943 0)
(0 0.0214066 0)
(0 0.0210026 0)
(0 0.0205509 0)
(0 0.0190395 0)
(0 0.0196002 0)
(0 0.0200874 0)
(0 0.0190043 0)
(0 0.0179569 0)
(0 0.0167347 0)
(0 0.0177269 0)
(0 0.0163874 0)
(0 0.0153931 0)
(0 0.0149392 0)
(0 0.0157421 0)
(0 0.0125261 0)
(0 0.00928711 0)
(0 0.00620307 0)
(0 0.00353406 0)
(0 0.00150813 0)
(0 0.000301043 0)
(0 0 0)
(0 0 0)
(0 0 0)
(0 0 0)
(0 0 0)
(0 0 0)
(0 0 0)
(0 0 0)
(0 0 0)
(0 0 0)
(0 0 0)
(0 0 0)
(0 0 0)
(0 0 0)
(0 0.000453025 0)
(0 0.00184716 0)
(0 0.00406489 0)
(0 0.00691895 0)
(0 0.0101689 0)
(0 0.0135418 0)
(0 0.0167552 0)
(0 0.0163571 0)
(0 0.0178221 0)
(0 0.0171419 0)
(0 0.0184682 0)
(0 0.0191567 0)
(0 0.0203348 0)
(0 0.0197658 0)
(0 0.0208382 0)
(0 0.0211031 0)
(0 0.0215647 0)
(0 0.0213059 0)
(0 0.0224173 0)
(0 0.0225396 0)
(0 0.0226777 0)
(0 0.0225592 0)
(0 0.023269 0)
(0 0.0233281 0)
(0 0.0233775 0)
(0 0.0233253 0)
(0 0.023473 0)
(0 0.023473 0)
(0 0.023473 0)
(0 0.023473 0)
(0 0.023473 0)
(0 0.023473 0)
(0 0.023473 0)
(0 0.023473 0)
(0 0.023473 0)
(0 0.023473 0)
(0 0.023473 0)
(0 0.023473 0)
(0 0.023473 0)
(0 0.023473 0)
(0 0.023473 0)
(0 0.023473 0)
(0 0.023473 0)
(0 0.023473 0)
(0 0.023473 0)
(0 0.023473 0)
(0 0.023269 0)
(0 0.0233281 0)
(0 0.023263 0)
(0 0.0232014 0)
(0 0.0224173 0)
(0 0.0225396 0)
(0 0.0226442 0)
(0 0.022325 0)
(0 0.0220962 0)
(0 0.0208261 0)
(0 0.0211339 0)
(0 0.021369 0)
(0 0.0203066 0)
(0 0.0197833 0)
(0 0.0185734 0)
(0 0.0191329 0)
(0 0.0178031 0)
(0 0.0172177 0)
(0 0.0163432 0)
(0 0.0167636 0)
(0 0.0135363 0)
(0 0.0101528 0)
(0 0.00689675 0)
(0 0.00404175 0)
(0 0.00182801 0)
(0 0.000442149 0)
(0 0 0)
(0 0 0)
(0 0 0)
(0 0 0)
(0 0 0)
(0 0 0)
(0 0 0)
(0 0 0)
(0 0 0)
(0 0 0)
(0 0 0)
(0 0 0)
(0 0 0)
(0 0 0)
(0 0.000480308 0)
(0 0.00190621 0)
(0 0.00415797 0)
(0 0.00704639 0)
(0 0.0103288 0)
(0 0.0137293 0)
(0 0.0169623 0)
(0 0.0169683 0)
(0 0.0184347 0)
(0 0.0182174 0)
(0 0.0195421 0)
(0 0.0197597 0)
(0 0.0209153 0)
(0 0.0207025 0)
(0 0.0217125 0)
(0 0.0218101 0)
(0 0.0222151 0)
(0 0.0221271 0)
(0 0.0230411 0)
(0 0.0230788 0)
(0 0.0231787 0)
(0 0.0231439 0)
(0 0.023473 0)
(0 0.023473 0)
(0 0.023473 0)
(0 0.023473 0)
(0 0.023473 0)
(0 0.023473 0)
(0 0.023473 0)
(0 0.023473 0)
(0 0.023473 0)
(0 0.023473 0)
(0 0.023473 0)
(0 0.023473 0)
(0 0.023473 0)
(0 0.023473 0)
(0 0.023473 0)
(0 0.023473 0)
(0 0.023473 0)
(0 0.023472 0)
(0 0.0234686 0)
(0 0.0230411 0)
(0 0.0230788 0)
(0 0.0231036 0)
(0 0.0228689 0)
(0 0.022786 0)
(0 0.0217112 0)
(0 0.0218115 0)
(0 0.0218772 0)
(0 0.0209153 0)
(0 0.0207326 0)
(0 0.0195654 0)
(0 0.0197099 0)
(0 0.0183776 0)
(0 0.0182333 0)
(0 0.016905 0)
(0 0.0169244 0)
(0 0.0136871 0)
(0 0.0102859 0)
(0 0.00700657 0)
(0 0.00412467 0)
(0 0.00188232 0)
(0 0.000467931 0)
(0 0 0)
(0 0 0)
(0 0 0)
(0 0 0)
(0 0 0)
(0 0 0)
(0 0 0)
(0 0 0)
(0 0 0)
(0 0 0)
(0 0 0)
(0 0 0)
(0 0 0)
(0 0 0)
(0 0.000392523 0)
(0 0.00171549 0)
(0 0.00385945 0)
(0 0.00664152 0)
(0 0.00982618 0)
(0 0.0131456 0)
(0 0.0163236 0)
(0 0.0167822 0)
(0 0.0182462 0)
(0 0.0184299 0)
(0 0.0197562 0)
(0 0.0195723 0)
(0 0.0207334 0)
(0 0.0209131 0)
(0 0.0218763 0)
(0 0.0218248 0)
(0 0.0222296 0)
(0 0.0222787 0)
(0 0.0231448 0)
(0 0.0231325 0)
(0 0.0232262 0)
(0 0.0232373 0)
(0 0.023473 0)
(0 0.023473 0)
(0 0.023473 0)
(0 0.023473 0)
(0 0.023473 0)
(0 0.023473 0)
(0 0.023473 0)
(0 0.023473 0)
(0 0.023473 0)
(0 0.023473 0)
(0 0.023473 0)
(0 0.023473 0)
(0 0.023473 0)
(0 0.023473 0)
(0 0.023473 0)
(0 0.023473 0)
(0 0.0231448 0)
(0 0.0231225 0)
(0 0.0231103 0)
(0 0.0228761 0)
(0 0.0229028 0)
(0 0.0218559 0)
(0 0.0218231 0)
(0 0.0217235 0)
(0 0.0207475 0)
(0 0.0208875 0)
(0 0.0197258 0)
(0 0.0195827 0)
(0 0.0182524 0)
(0 0.0183954 0)
(0 0.0167843 0)
(0 0.0163651 0)
(0 0.0131761 0)
(0 0.00984608 0)
(0 0.00665249 0)
(0 0.00386381 0)
(0 0.00171591 0)
(0 0.000391666 0)
(0 0 0)
(0 0 0)
(0 0 0)
(0 0 0)
(0 0 0)
(0 0 0)
(0 0 0)
(0 0 0)
(0 0 0)
(0 0 0)
(0 0 0)
(0 0 0)
(0 0 0)
(0 0 0)
(0 0.000198532 0)
(0 0.00124702 0)
(0 0.00310171 0)
(0 0.00559603 0)
(0 0.00870026 0)
(0 0.0118745 0)
(0 0.0149707 0)
(0 0.0157918 0)
(0 0.0172596 0)
(0 0.0177769 0)
(0 0.0191873 0)
(0 0.0186064 0)
(0 0.0198067 0)
(0 0.0203836 0)
(0 0.0213997 0)
(0 0.0211562 0)
(0 0.0215978 0)
(0 0.0218342 0)
(0 0.0228258 0)
(0 0.0227565 0)
(0 0.0228825 0)
(0 0.0229564 0)
(0 0.0234446 0)
(0 0.0234205 0)
(0 0.0234493 0)
(0 0.0234642 0)
(0 0.023473 0)
(0 0.023473 0)
(0 0.023473 0)
(0 0.023473 0)
(0 0.023473 0)
(0 0.023473 0)
(0 0.023473 0)
(0 0.023473 0)
(0 0.0234446 0)
(0 0.023417 0)
(0 0.0233788 0)
(0 0.0234129 0)
(0 0.0228258 0)
(0 0.0227565 0)
(0 0.0226624 0)
(0 0.0223638 0)
(0 0.0225482 0)
(0 0.0213997 0)
(0 0.0211562 0)
(0 0.0208796 0)
(0 0.0198067 0)
(0 0.0203836 0)
(0 0.0191515 0)
(0 0.0186064 0)
(0 0.0172596 0)
(0 0.0178236 0)
(0 0.0157918 0)
(0 0.0149707 0)
(0 0.0118745 0)
(0 0.00858813 0)
(0 0.00565104 0)
(0 0.00313778 0)
(0 0.00126677 0)
(0 0.000205204 0)
(0 0 0)
(0 0 0)
(0 0 0)
(0 0 0)
(0 0 0)
(0 0 0)
(0 0 0)
(0 0 0)
(0 0 0)
(0 0 0)
(0 0 0)
(0 0 0)
(0 0 0)
(0 0 0)
(0 2.45654e-05 0)
(0 0.000729219 0)
(0 0.00222056 0)
(0 0.00436652 0)
(0 0.00697092 0)
(0 0.0098052 0)
(0 0.0127793 0)
(0 0.013907 0)
(0 0.0154193 0)
(0 0.0164109 0)
(0 0.0178117 0)
(0 0.0167432 0)
(0 0.0180691 0)
(0 0.0190299 0)
(0 0.0201492 0)
(0 0.0197004 0)
(0 0.0201948 0)
(0 0.0206399 0)
(0 0.0218411 0)
(0 0.0216413 0)
(0 0.021823 0)
(0 0.021989 0)
(0 0.0229028 0)
(0 0.0227713 0)
(0 0.0228673 0)
(0 0.0229936 0)
(0 0.0233775 0)
(0 0.023304 0)
(0 0.0233363 0)
(0 0.0234034 0)
(0 0.023473 0)
(0 0.0234599 0)
(0 0.023465 0)
(0 0.023473 0)
(0 0.023473 0)
(0 0.023473 0)
(0 0.023473 0)
(0 0.023473 0)
(0 0.023473 0)
(0 0.023473 0)
(0 0.0234599 0)
(0 0.0234527 0)
(0 0.0234722 0)
(0 0.0234728 0)
(0 0.0233775 0)
(0 0.023304 0)
(0 0.0232641 0)
(0 0.0233442 0)
(0 0.0229028 0)
(0 0.0227713 0)
(0 0.0226644 0)
(0 0.0228007 0)
(0 0.0218572 0)
(0 0.0216737 0)
(0 0.0214532 0)
(0 0.0210886 0)
(0 0.021485 0)
(0 0.0200939 0)
(0 0.0196776 0)
(0 0.0191913 0)
(0 0.0180443 0)
(0 0.0190299 0)
(0 0.0178117 0)
(0 0.0167432 0)
(0 0.0154193 0)
(0 0.0164109 0)
(0 0.013907 0)
(0 0.0127793 0)
(0 0.0098052 0)
(0 0.00697092 0)
(0 0.00436652 0)
(0 0.00222056 0)
(0 0.000680216 0)
(0 2.95075e-05 0)
(0 0 0)
(0 0 0)
(0 0 0)
(0 0 0)
(0 0 0)
(0 0 0)
(0 0 0)
(0 0 0)
(0 0 0)
(0 0 0)
(0 0 0)
(0 0 0)
(0 0 0)
(0 0 0)
(0 0 0)
(0 0.000224141 0)
(0 0.00118114 0)
(0 0.00277896 0)
(0 0.00485093 0)
(0 0.00743973 0)
(0 0.0101164 0)
(0 0.0113791 0)
(0 0.0128691 0)
(0 0.0141432 0)
(0 0.0155245 0)
(0 0.0142104 0)
(0 0.0154646 0)
(0 0.0168228 0)
(0 0.0179984 0)
(0 0.0166095 0)
(0 0.017568 0)
(0 0.0183638 0)
(0 0.0190327 0)
(0 0.0185342 0)
(0 0.0199222 0)
(0 0.0192267 0)
(0 0.0196566 0)
(0 0.0203155 0)
(0 0.0213002 0)
(0 0.0207039 0)
(0 0.0209424 0)
(0 0.0215605 0)
(0 0.0221727 0)
(0 0.0216443 0)
(0 0.0217995 0)
(0 0.0223191 0)
(0 0.0226252 0)
(0 0.0221376 0)
(0 0.0222237 0)
(0 0.0226852 0)
(0 0.0227654 0)
(0 0.0223151 0)
(0 0.0222918 0)
(0 0.022747 0)
(0 0.0226252 0)
(0 0.0221376 0)
(0 0.0220156 0)
(0 0.0225312 0)
(0 0.0221727 0)
(0 0.0216443 0)
(0 0.0214503 0)
(0 0.0219881 0)
(0 0.0213002 0)
(0 0.0207039 0)
(0 0.0203956 0)
(0 0.0209984 0)
(0 0.0199222 0)
(0 0.0192267 0)
(0 0.018823 0)
(0 0.0194925 0)
(0 0.0179984 0)
(0 0.0166095 0)
(0 0.0154646 0)
(0 0.0168228 0)
(0 0.0155245 0)
(0 0.0142104 0)
(0 0.0128691 0)
(0 0.0141432 0)
(0 0.0113791 0)
(0 0.0101164 0)
(0 0.00743973 0)
(0 0.00485093 0)
(0 0.00277896 0)
(0 0.00118114 0)
(0 0.000224141 0)
(0 0 0)
(0 0 0)
(0 0 0)
(0 0 0)
(0 0 0)
(0 0 0)
(0 0 0)
(0 0 0)
(0 0 0)
(0 0 0)
(0 0 0)
(0 0 0)
(0 0 0)
(0 0 0)
(0 0 0)
(0 0 0)
(0 0 0)
(0 0.000337771 0)
(0 0.00139474 0)
(0 0.00298993 0)
(0 0.00496827 0)
(0 0.0071352 0)
(0 0.00927429 0)
(0 0.0109343 0)
(0 0.0126994 0)
(0 0.011433 0)
(0 0.0121222 0)
(0 0.0138915 0)
(0 0.0149429 0)
(0 0.0132353 0)
(0 0.0142534 0)
(0 0.016016 0)
(0 0.0169638 0)
(0 0.0160867 0)
(0 0.0164252 0)
(0 0.0173865 0)
(0 0.0184652 0)
(0 0.0176028 0)
(0 0.0179228 0)
(0 0.0187877 0)
(0 0.0195226 0)
(0 0.0186552 0)
(0 0.0187982 0)
(0 0.0196895 0)
(0 0.0201566 0)
(0 0.0193237 0)
(0 0.019421 0)
(0 0.0202531 0)
(0 0.0203665 0)
(0 0.0195389 0)
(0 0.0194988 0)
(0 0.0203302 0)
(0 0.0201566 0)
(0 0.0193237 0)
(0 0.0191875 0)
(0 0.0200212 0)
(0 0.0195226 0)
(0 0.0186552 0)
(0 0.0184494 0)
(0 0.0193166 0)
(0 0.0184652 0)
(0 0.0176028 0)
(0 0.0172459 0)
(0 0.0181047 0)
(0 0.0169638 0)
(0 0.0160867 0)
(0 0.015073 0)
(0 0.0142534 0)
(0 0.016016 0)
(0 0.0149429 0)
(0 0.0132353 0)
(0 0.0121222 0)
(0 0.0138915 0)
(0 0.0126994 0)
(0 0.0109343 0)
(0 0.00927429 0)
(0 0.0071352 0)
(0 0.011433 0)
(0 0.00496827 0)
(0 0.00298993 0)
(0 0.00139474 0)
(0 0.000337771 0)
(0 0 0)
(0 0 0)
(0 0 0)
(0 0 0)
(0 0 0)
(0 0 0)
(0 0 0)
(0 0 0)
(0 0 0)
(0 0 0)
(0 0 0)
(0 0 0)
(0 0 0)
(0 0 0)
(0 0 0)
(0 0 0)
(0 0 0)
(0 0 0)
(0 4.28337e-06 0)
(0 0.000383719 0)
(0 0.0013003 0)
(0 0.00254812 0)
(0 0.00417073 0)
(0 0.00590123 0)
(0 0.00757437 0)
(0 0.00855111 0)
(0 0.0103641 0)
(0 0.011392 0)
(0 0.00937445 0)
(0 0.0103034 0)
(0 0.0122389 0)
(0 0.0131675 0)
(0 0.0121697 0)
(0 0.0125781 0)
(0 0.0135921 0)
(0 0.0146868 0)
(0 0.0136338 0)
(0 0.0139243 0)
(0 0.0149873 0)
(0 0.0156681 0)
(0 0.0146137 0)
(0 0.0148484 0)
(0 0.0159097 0)
(0 0.0164159 0)
(0 0.0153411 0)
(0 0.0154331 0)
(0 0.0165103 0)
(0 0.0166346 0)
(0 0.0155575 0)
(0 0.0155069 0)
(0 0.0165859 0)
(0 0.0164159 0)
(0 0.0153411 0)
(0 0.0152127 0)
(0 0.0162841 0)
(0 0.0156681 0)
(0 0.0146137 0)
(0 0.0143449 0)
(0 0.0154851 0)
(0 0.0146868 0)
(0 0.0136338 0)
(0 0.0133117 0)
(0 0.0143533 0)
(0 0.0131675 0)
(0 0.0121697 0)
(0 0.0111537 0)
(0 0.0103034 0)
(0 0.0122389 0)
(0 0.011392 0)
(0 0.00937445 0)
(0 0.00855111 0)
(0 0.0103641 0)
(0 0.00757437 0)
(0 0.00590123 0)
(0 0.00417073 0)
(0 0.00254812 0)
(0 0.0013003 0)
(0 0.000383719 0)
(0 4.28337e-06 0)
(0 0 0)
(0 0 0)
(0 0 0)
(0 0 0)
(0 0 0)
(0 0 0)
(0 0 0)
(0 0 0)
(0 0 0)
(0 0 0)
(0 0 0)
(0 0 0)
(0 0 0)
(0 0 0)
(0 0 0)
(0 0 0)
(0 0 0)
(0 0 0)
(0 0 0)
(0 0 0)
(0 0.000201516 0)
(0 0.000839308 0)
(0 0.00170027 0)
(0 0.00286294 0)
(0 0.00423329 0)
(0 0.00499175 0)
(0 0.00665147 0)
(0 0.00752253 0)
(0 0.00573501 0)
(0 0.0064444 0)
(0 0.00834673 0)
(0 0.00910603 0)
(0 0.00809387 0)
(0 0.00842204 0)
(0 0.00945626 0)
(0 0.0103682 0)
(0 0.00927867 0)
(0 0.00943499 0)
(0 0.010509 0)
(0 0.011302 0)
(0 0.0101837 0)
(0 0.0103796 0)
(0 0.011509 0)
(0 0.0119453 0)
(0 0.0107928 0)
(0 0.0108703 0)
(0 0.012027 0)
(0 0.0121461 0)
(0 0.0109859 0)
(0 0.0109325 0)
(0 0.0120926 0)
(0 0.0119453 0)
(0 0.0107928 0)
(0 0.0106849 0)
(0 0.0118314 0)
(0 0.011302 0)
(0 0.0101837 0)
(0 0.00996027 0)
(0 0.0110655 0)
(0 0.0103682 0)
(0 0.00927867 0)
(0 0.00901601 0)
(0 0.0100889 0)
(0 0.00910603 0)
(0 0.00809387 0)
(0 0.0071027 0)
(0 0.0064444 0)
(0 0.00834673 0)
(0 0.00752253 0)
(0 0.00573501 0)
(0 0.00499175 0)
(0 0.00665147 0)
(0 0.00423329 0)
(0 0.00286294 0)
(0 0.00170027 0)
(0 0.000839308 0)
(0 0.000201516 0)
(0 0 0)
(0 0 0)
(0 0 0)
(0 0 0)
(0 0 0)
(0 0 0)
(0 0 0)
(0 0 0)
(0 0 0)
(0 0 0)
(0 0 0)
(0 0 0)
(0 0 0)
(0 0 0)
(0 0 0)
(0 0 0)
(0 0 0)
(0 0 0)
(0 0 0)
(0 0 0)
(0 0 0)
(0 0 0)
(0 0 0)
(0 1.71607e-05 0)
(0 0.000291086 0)
(0 0.00081238 0)
(0 0.0017042 0)
(0 0.00216817 0)
(0 0.00347548 0)
(0 0.00408428 0)
(0 0.00263929 0)
(0 0.00310163 0)
(0 0.00467195 0)
(0 0.00522235 0)
(0 0.00435204 0)
(0 0.00458356 0)
(0 0.00547893 0)
(0 0.00609692 0)
(0 0.00516001 0)
(0 0.00537723 0)
(0 0.00633561 0)
(0 0.00693708 0)
(0 0.00592614 0)
(0 0.00607094 0)
(0 0.00709536 0)
(0 0.00743059 0)
(0 0.00637806 0)
(0 0.00643588 0)
(0 0.00749364 0)
(0 0.00759432 0)
(0 0.00653027 0)
(0 0.00648237 0)
(0 0.00754431 0)
(0 0.00743059 0)
(0 0.00637806 0)
(0 0.0062976 0)
(0 0.00734284 0)
(0 0.00693708 0)
(0 0.00592614 0)
(0 0.00576154 0)
(0 0.00675696 0)
(0 0.00609692 0)
(0 0.00516001 0)
(0 0.00492795 0)
(0 0.00584148 0)
(0 0.00522235 0)
(0 0.00435204 0)
(0 0.00354028 0)
(0 0.00310163 0)
(0 0.00467195 0)
(0 0.00408428 0)
(0 0.00263929 0)
(0 0.00216817 0)
(0 0.00347548 0)
(0 0.0017042 0)
(0 0.00081238 0)
(0 0.000291086 0)
(0 1.71607e-05 0)
(0 0 0)
(0 0 0)
(0 0 0)
(0 0 0)
(0 0 0)
(0 0 0)
(0 0 0)
(0 0 0)
(0 0 0)
(0 0 0)
(0 0 0)
(0 0 0)
(0 0 0)
(0 0 0)
(0 0 0)
(0 0 0)
(0 0 0)
(0 0 0)
(0 0 0)
(0 0 0)
(0 0 0)
(0 0 0)
(0 0 0)
(0 0 0)
(0 0 0)
(0 0 0)
(0 3.11073e-06 0)
(0 0.000233707 0)
(0 0.000407076 0)
(0 0.00112878 0)
(0 0.00146248 0)
(0 0.000606996 0)
(0 0.000820791 0)
(0 0.00179915 0)
(0 0.00212525 0)
(0 0.00146294 0)
(0 0.0016127 0)
(0 0.00220555 0)
(0 0.00270805 0)
(0 0.00203803 0)
(0 0.00216714 0)
(0 0.00285921 0)
(0 0.00324578 0)
(0 0.00249934 0)
(0 0.00258829 0)
(0 0.00334878 0)
(0 0.00356855 0)
(0 0.00277867 0)
(0 0.00281476 0)
(0 0.00361012 0)
(0 0.00368242 0)
(0 0.00287885 0)
(0 0.00284384 0)
(0 0.00364359 0)
(0 0.00356855 0)
(0 0.00277867 0)
(0 0.00272858 0)
(0 0.00351081 0)
(0 0.00324578 0)
(0 0.00249934 0)
(0 0.00239887 0)
(0 0.0031292 0)
(0 0.00270805 0)
(0 0.00203803 0)
(0 0.00190169 0)
(0 0.00254778 0)
(0 0.00212525 0)
(0 0.00146294 0)
(0 0.000983762 0)
(0 0.000820791 0)
(0 0.00179915 0)
(0 0.00146248 0)
(0 0.000606996 0)
(0 0.000407076 0)
(0 0.00112878 0)
(0 0.000233707 0)
(0 3.11073e-06 0)
(0 0 0)
(0 0 0)
(0 0 0)
(0 0 0)
(0 0 0)
(0 0 0)
(0 0 0)
(0 0 0)
(0 0 0)
(0 0 0)
(0 0 0)
(0 0 0)
(0 0 0)
(0 0 0)
(0 0 0)
(0 0 0)
(0 0 0)
(0 0 0)
(0 0 0)
(0 0 0)
(0 0 0)
(0 0 0)
(0 0 0)
(0 0 0)
(0 0 0)
(0 0 0)
(0 0 0)
(0 0 0)
(0 0 0)
(0 0 0)
(0 0 0)
(0 0.000114245 0)
(0 4.1321e-05 0)
(0 0 0)
(0 0.000179649 0)
(0 0.000300127 0)
(0 9.18836e-06 0)
(0 4.01619e-05 0)
(0 0.000432508 0)
(0 0.000566648 0)
(0 8.46867e-05 0)
(0 0.000134846 0)
(0 0.000693396 0)
(0 0.000804804 0)
(0 0.000183727 0)
(0 0.000225592 0)
(0 0.000894299 0)
(0 0.000956828 0)
(0 0.000256017 0)
(0 0.000271992 0)
(0 0.000988962 0)
(0 0.00101467 0)
(0 0.000285639 0)
(0 0.000271992 0)
(0 0.000988962 0)
(0 0.000956828 0)
(0 0.000256017 0)
(0 0.000225592 0)
(0 0.000894299 0)
(0 0.000804804 0)
(0 0.000183727 0)
(0 0.000134846 0)
(0 0.000693396 0)
(0 0.000566648 0)
(0 8.46867e-05 0)
(0 4.01619e-05 0)
(0 0.000432508 0)
(0 0.000300127 0)
(0 9.18836e-06 0)
(0 0 0)
(0 0.000179649 0)
(0 0.000114245 0)
(0 0 0)
(0 0 0)
(0 0 0)
(0 4.1321e-05 0)
(0 0 0)
(0 0 0)
(0 0 0)
(0 0 0)
(0 0 0)
(0 0 0)
(0 0 0)
(0 0 0)
(0 0 0)
(0 0 0)
(0 0 0)
(0 0 0)
(0 0 0)
(0 0 0)
(0 0 0)
(0 0 0)
(0 0 0)
(0 0 0)
(0 0 0)
(0 0 0)
(0 0 0)
(0 0 0)
(0 0 0)
(0 0 0)
(0 0 0)
(0 0 0)
(0 0 0)
(0 0 0)
(0 0 0)
(0 0 0)
(0 0 0)
(0 0 0)
(0 0 0)
(0 0 0)
(0 0 0)
(0 0 0)
(0 0 0)
(0 0 0)
(0 0 0)
(0 0 0)
(0 8.2575e-07 0)
(0 0 0)
(0 0 0)
(0 3.17776e-06 0)
(0 1.89072e-06 0)
(0 0 0)
(0 8.2575e-07 0)
(0 1.89072e-06 0)
(0 0 0)
(0 0 0)
(0 0 0)
(0 0 0)
(0 0 0)
(0 0 0)
(0 0 0)
(0 0 0)
(0 0 0)
(0 0 0)
(0 0 0)
(0 0 0)
(0 0 0)
(0 0 0)
(0 0 0)
(0 0 0)
(0 0 0)
(0 0 0)
(0 0 0)
(0 0 0)
(0 0 0)
(0 0 0)
(0 0 0)
(0 0 0)
(0 0 0)
(0 0 0)
(0 0 0)
(0 0 0)
(0 0 0)
(0 0 0)
(0 0 0)
(0 0 0)
(0 0 0)
(0 0 0)
(0 0 0)
(0 0 0)
(0 0 0)
(0 0 0)
(0 0 0)
(0 0 0)
(0 0 0)
(0 0 0)
(0 0 0)
(0 0 0)
(0 0 0)
(0 0 0)
(0 0 0)
(0 0 0)
(0 0 0)
(0 0 0)
(0 0 0)
(0 0 0)
(0 0 0)
(0 0 0)
(0 0 0)
(0 0 0)
(0 0 0)
(0 0 0)
(0 0 0)
(0 0 0)
(0 0 0)
(0 0 0)
(0 0 0)
(0 0 0)
(0 0 0)
(0 0 0)
(0 0 0)
(0 0 0)
(0 0 0)
(0 0 0)
(0 0 0)
(0 0 0)
(0 0 0)
(0 0 0)
(0 0 0)
(0 0 0)
(0 0 0)
(0 0 0)
(0 0 0)
(0 0 0)
(0 0 0)
(0 0 0)
(0 0 0)
(0 0 0)
(0 0 0)
(0 0 0)
(0 0 0)
(0 0 0)
(0 0 0)
(0 0 0)
(0 0 0)
(0 0 0)
(0 0 0)
(0 0 0)
(0 0 0)
(0 0 0)
(0 0 0)
(0 0 0)
(0 0 0)
(0 0 0)
(0 0 0)
(0 0 0)
(0 0 0)
(0 0 0)
(0 0 0)
(0 0 0)
(0 0 0)
(0 0 0)
(0 0 0)
(0 0 0)
(0 0 0)
(0 0 0)
(0 0 0)
(0 0 0)
(0 0 0)
(0 0 0)
(0 0 0)
(0 0 0)
(0 0 0)
(0 0 0)
(0 0 0)
(0 0 0)
(0 0 0)
(0 0 0)
(0 0 0)
(0 0 0)
(0 0 0)
(0 0 0)
(0 0 0)
(0 0 0)
(0 0 0)
(0 0 0)
(0 0 0)
(0 0 0)
(0 0 0)
(0 0 0)
(0 0 0)
(0 0 0)
(0 0 0)
(0 0 0)
(0 0 0)
(0 0 0)
(0 0 0)
(0 0 0)
(0 0 0)
(0 0 0)
(0 0 0)
(0 0 0)
(0 0 0)
(0 0 0)
(0 0 0)
(0 0 0)
(0 0 0)
(0 0 0)
(0 0 0)
(0 0 0)
(0 0 0)
(0 0 0)
(0 0 0)
(0 0 0)
(0 0 0)
(0 0 0)
(0 0 0)
(0 0 0)
(0 0 0)
(0 0 0)
(0 0 0)
(0 0 0)
(0 0 0)
(0 0 0)
(0 0 0)
(0 0 0)
(0 0 0)
(0 0 0)
(0 0 0)
(0 0 0)
(0 0 0)
(0 0 0)
(0 0 0)
(0 0 0)
(0 0 0)
(0 0 0)
(0 0 0)
(0 0 0)
(0 0 0)
(0 0 0)
(0 0 0)
(0 0 0)
(0 0 0)
(0 0 0)
(0 0 0)
(0 0 0)
(0 0 0)
(0 0 0)
(0 0 0)
(0 0 0)
(0 0 0)
(0 0 0)
(0 0 0)
(0 0 0)
(0 0 0)
(0 0 0)
(0 0 0)
(0 0 0)
(0 0 0)
(0 0 0)
(0 0 0)
(0 0 0)
(0 0 0)
(0 0 0)
(0 0 0)
(0 0 0)
(0 0 0)
(0 0 0)
(0 0 0)
(0 0 0)
(0 0 0)
(0 0 0)
(0 0 0)
(0 0 0)
(0 0 0)
(0 0 0)
(0 0 0)
(0 0 0)
(0 0 0)
(0 0 0)
(0 0 0)
(0 0 0)
(0 0 0)
(0 0 0)
(0 0 0)
(0 0 0)
(0 0 0)
(0 0 0)
(0 0 0)
(0 0 0)
(0 0 0)
(0 0 0)
(0 0 0)
(0 0 0)
(0 0 0)
(0 0 0)
(0 0 0)
(0 0 0)
(0 0 0)
(0 0 0)
(0 0 0)
(0 0 0)
(0 0 0)
(0 0 0)
(0 0 0)
(0 0 0)
(0 0 0)
(0 0 0)
(0 0 0)
(0 0 0)
(0 0 0)
(0 0 0)
(0 0 0)
(0 0 0)
(0 0 0)
(0 0 0)
(0 0 0)
(0 0 0)
(0 0 0)
(0 0 0)
(0 0 0)
(0 0 0)
(0 0 0)
(0 0 0)
(0 0 0)
(0 0 0)
(0 0 0)
(0 0 0)
(0 0 0)
(0 0 0)
(0 0 0)
(0 0 0)
(0 0 0)
(0 0 0)
(0 0 0)
(0 0 0)
(0 0 0)
(0 0 0)
(0 0 0)
(0 0 0)
(0 0 0)
(0 0 0)
(0 0 0)
(0 0 0)
(0 0 0)
(0 0 0)
(0 0 0)
(0 0 0)
(0 0 0)
(0 0 0)
(0 0 0)
(0 0 0)
(0 0 0)
(0 0 0)
(0 0 0)
(0 0 0)
(0 0 0)
(0 0 0)
(0 0 0)
(0 0 0)
(0 0 0)
(0 0 0)
(0 0 0)
(0 0 0)
(0 0 0)
(0 0 0)
(0 0 0)
(0 0 0)
(0 0 0)
(0 0 0)
(0 0 0)
(0 0 0)
(0 0 0)
(0 0 0)
(0 0 0)
(0 0 0)
(0 0 0)
(0 0 0)
(0 0 0)
(0 0 0)
(0 0 0)
(0 0 0)
(0 0 0)
(0 0 0)
(0 0 0)
(0 0 0)
(0 0 0)
(0 0 0)
(0 0 0)
(0 0 0)
(0 0 0)
(0 0 0)
(0 0 0)
(0 0 0)
(0 0 0)
(0 0 0)
(0 0 0)
(0 0 0)
(0 0 0)
(0 0 0)
(0 0 0)
(0 0 0)
(0 0 0)
(0 0 0)
(0 0 0)
(0 0 0)
(0 0 0)
(0 0 0)
(0 0 0)
(0 0 0)
(0 0 0)
(0 0 0)
(0 0 0)
(0 0 0)
(0 0 0)
(0 0 0)
(0 0 0)
(0 0 0)
(0 0 0)
(0 0 0)
(0 0 0)
(0 0 0)
(0 0 0)
(0 0 0)
(0 0 0)
(0 0 0)
(0 0 0)
(0 0 0)
(0 0 0)
(0 0 0)
(0 0 0)
(0 0 0)
(0 0 0)
(0 0 0)
(0 0 0)
(0 0 0)
(0 0 0)
(0 0 0)
(0 0 0)
(0 0 0)
(0 0 0)
(0 0 0)
(0 0 0)
(0 0 0)
(0 0 0)
(0 0 0)
(0 0 0)
(0 0 0)
(0 0 0)
(0 0 0)
(0 0 0)
(0 0 0)
(0 0 0)
(0 0 0)
(0 0 0)
(0 0 0)
(0 0 0)
(0 0 0)
(0 0 0)
(0 0 0)
(0 0 0)
(0 0 0)
(0 0 0)
(0 0 0)
(0 0 0)
(0 0 0)
(0 0 0)
(0 0 0)
(0 0 0)
(0 0 0)
(0 0 0)
(0 0 0)
(0 0 0)
(0 0 0)
(0 0 0)
(0 0 0)
(0 0 0)
(0 0 0)
(0 0 0)
(0 0 0)
(0 0 0)
(0 0 0)
(0 0 0)
(0 0 0)
(0 0 0)
(0 0 0)
(0 0 0)
(0 0 0)
(0 0 0)
(0 0 0)
(0 0 0)
(0 0 0)
(0 0 0)
(0 0 0)
(0 0 0)
(0 0 0)
(0 0 0)
(0 0 0)
(0 0 0)
(0 0 0)
(0 0 0)
(0 0 0)
(0 0 0)
(0 0 0)
(0 0 0)
(0 0 0)
(0 0 0)
(0 0 0)
(0 0 0)
(0 0 0)
(0 0 0)
(0 0 0)
(0 0 0)
(0 0 0)
(0 0 0)
(0 0 0)
(0 0 0)
(0 0 0)
(0 0 0)
(0 0 0)
(0 0 0)
(0 0 0)
(0 0 0)
(0 0 0)
(0 0 0)
(0 0 0)
(0 0 0)
(0 0 0)
(0 0 0)
(0 0 0)
(0 0 0)
(0 0 0)
(0 0 0)
(0 0 0)
(0 0 0)
(0 0 0)
(0 0 0)
(0 0 0)
(0 0 0)
(0 0 0)
(0 0 0)
(0 0 0)
(0 0 0)
(0 0 0)
(0 0 0)
(0 0 0)
(0 0 0)
(0 0 0)
(0 0 0)
(0 0 0)
(0 0 0)
(0 0 0)
(0 0 0)
(0 0 0)
(0 0 0)
(0 0 0)
(0 0 0)
(0 0 0)
(0 0 0)
(0 0 0)
(0 0 0)
(0 0 0)
(0 0 0)
(0 0 0)
(0 0 0)
(0 0 0)
(0 0 0)
(0 0 0)
(0 0 0)
(0 0 0)
(0 0 0)
(0 0 0)
(0 0 0)
(0 0 0)
(0 0 0)
(0 0 0)
(0 0 0)
(0 0 0)
(0 0 0)
(0 0 0)
(0 0 0)
(0 0 0)
(0 0 0)
(0 0 0)
(0 0 0)
(0 0 0)
(0 0 0)
(0 0 0)
(0 0 0)
(0 0 0)
(0 0 0)
(0 0 0)
(0 0 0)
(0 0 0)
(0 0 0)
(0 0 0)
(0 0 0)
(0 0 0)
(0 0 0)
(0 0 0)
(0 0 0)
(0 0 0)
(0 0 0)
(0 0 0)
(0 0 0)
(0 0 0)
(0 0 0)
(0 0 0)
(0 0 0)
(0 0 0)
(0 0 0)
(0 0 0)
(0 0 0)
(0 0 0)
(0 0 0)
(0 0 0)
(0 0 0)
(0 0 0)
(0 0 0)
(0 0 0)
(0 0 0)
(0 0 0)
(0 0 0)
(0 0 0)
(0 0 0)
(0 0 0)
(0 0 0)
(0 0 0)
(0 0 0)
(0 0 0)
(0 0 0)
(0 0 0)
(0 0 0)
(0 0 0)
(0 0 0)
(0 0 0)
(0 0 0)
(0 0 0)
(0 0 0)
(0 0 0)
(0 0 0)
(0 0 0)
(0 0 0)
(0 0 0)
(0 0 0)
(0 0 0)
(0 0 0)
(0 0 0)
(0 0 0)
(0 0 0)
(0 0 0)
(0 0 0)
(0 0 0)
(0 0 0)
(0 0 0)
(0 0 0)
(0 0 0)
(0 0 0)
(0 0 0)
(0 0 0)
(0 0 0)
(0 0 0)
(0 0 0)
(0 0 0)
(0 0 0)
(0 0 0)
(0 0 0)
(0 0 0)
(0 0 0)
(0 0 0)
(0 0 0)
(0 0 0)
(0 0 0)
(0 0 0)
(0 0 0)
(0 0 0)
(0 0 0)
(0 0 0)
(0 0 0)
(0 0 0)
(0 0 0)
(0 0 0)
(0 0 0)
(0 0 0)
(0 0 0)
(0 0 0)
(0 0 0)
(0 0 0)
(0 0 0)
(0 0 0)
(0 0 0)
(0 0 0)
(0 0 0)
(0 0 0)
(0 0 0)
(0 0 0)
(0 0 0)
(0 0 0)
(0 0 0)
(0 0 0)
(0 0 0)
(0 0 0)
(0 0 0)
(0 0 0)
(0 0 0)
(0 0 0)
(0 0 0)
(0 0 0)
(0 0 0)
(0 0 0)
(0 0 0)
(0 0 0)
(0 0 0)
(0 0 0)
(0 0 0)
(0 0 0)
(0 0 0)
(0 0 0)
(0 0 0)
(0 0 0)
(0 0 0)
(0 0 0)
(0 0 0)
(0 0 0)
(0 0 0)
(0 0 0)
(0 0 0)
(0 0 0)
(0 0 0)
(0 0 0)
(0 0 0)
(0 0 0)
(0 0 0)
(0 0 0)
(0 0 0)
(0 0 0)
(0 0 0)
(0 0 0)
(0 0 0)
(0 0 0)
(0 0 0)
(0 0 0)
(0 0 0)
(0 0 0)
(0 0 0)
(0 0 0)
(0 0 0)
(0 0 0)
(0 0 0)
(0 0 0)
(0 0 0)
(0 0 0)
(0 0 0)
(0 0 0)
(0 0 0)
(0 0 0)
(0 0 0)
(0 0 0)
(0 0 0)
(0 0 0)
(0 0 0)
(0 0 0)
(0 0 0)
(0 0 0)
(0 0 0)
(0 0 0)
(0 0 0)
(0 0 0)
(0 0 0)
(0 0 0)
(0 0 0)
(0 0 0)
(0 0 0)
(0 0 0)
(0 0 0)
(0 0 0)
(0 0 0)
(0 0 0)
(0 0 0)
(0 0 0)
(0 0 0)
(0 0 0)
(0 0 0)
(0 0 0)
(0 0 0)
(0 0 0)
(0 0 0)
(0 0 0)
(0 0 0)
(0 0 0)
(0 0 0)
(0 0 0)
(0 0 0)
(0 0 0)
(0 0 0)
(0 0 0)
(0 0 0)
(0 0 0)
(0 0 0)
(0 0 0)
(0 0 0)
(0 0 0)
(0 0 0)
(0 0 0)
(0 0 0)
(0 0 0)
(0 0 0)
(0 0 0)
(0 0 0)
(0 0 0)
(0 0 0)
(0 0 0)
(0 0 0)
(0 0 0)
(0 0 0)
(0 0 0)
(0 0 0)
(0 0 0)
(0 0 0)
(0 0 0)
(0 0 0)
(0 0 0)
(0 0 0)
(0 0 0)
(0 0 0)
(0 0 0)
(0 0 0)
(0 0 0)
(0 0 0)
(0 0 0)
(0 0 0)
(0 0 0)
(0 0 0)
(0 0 0)
(0 0 0)
(0 0 0)
(0 0 0)
(0 0 0)
(0 0 0)
(0 0 0)
(0 0 0)
(0 0 0)
(0 0 0)
(0 0 0)
(0 0 0)
(0 0 0)
(0 0 0)
(0 0 0)
(0 0 0)
(0 0 0)
(0 0 0)
(0 0 0)
(0 0 0)
(0 0 0)
(0 0 0)
(0 0 0)
(0 0 0)
(0 0 0)
(0 0 0)
(0 0 0)
(0 0 0)
(0 0 0)
(0 0 0)
(0 0 0)
(0 0 0)
(0 0 0)
(0 0 0)
(0 0 0)
(0 0 0)
(0 0 0)
(0 0 0)
(0 0 0)
(0 0 0)
(0 0 0)
(0 0 0)
(0 0 0)
(0 0 0)
(0 0 0)
(0 0 0)
(0 0 0)
(0 0 0)
(0 0 0)
(0 0 0)
(0 0 0)
(0 0 0)
(0 0 0)
(0 0 0)
(0 0 0)
(0 0 0)
(0 0 0)
(0 0 0)
(0 0 0)
(0 0 0)
(0 0 0)
(0 0 0)
(0 0 0)
(0 0 0)
(0 0 0)
(0 0 0)
(0 0 0)
(0 0 0)
(0 0 0)
(0 0 0)
(0 0 0)
(0 0 0)
(0 0 0)
(0 0 0)
(0 0 0)
(0 0 0)
(0 0 0)
(0 0 0)
(0 0 0)
(0 0 0)
(0 0 0)
(0 0 0)
(0 0 0)
(0 0 0)
(0 0 0)
(0 0 0)
(0 0 0)
(0 0 0)
(0 0 0)
(0 0 0)
(0 0 0)
(0 0 0)
(0 0 0)
(0 0 0)
(0 0 0)
(0 0 0)
(0 0 0)
(0 0 0)
(0 0 0)
(0 0 0)
(0 0 0)
(0 0 0)
(0 0 0)
(0 0 0)
(0 0 0)
(0 0 0)
(0 0 0)
(0 0 0)
(0 0 0)
(0 0 0)
(0 0 0)
(0 0 0)
(0 0 0)
(0 0 0)
(0 0 0)
(0 0 0)
(0 0 0)
(0 0 0)
(0 0 0)
(0 0 0)
(0 0 0)
(0 0 0)
(0 0 0)
(0 0 0)
(0 0 0)
(0 0 0)
(0 0 0)
(0 0 0)
(0 0 0)
(0 0 0)
(0 0 0)
(0 0 0)
(0 0 0)
(0 0 0)
(0 0 0)
(0 0 0)
(0 0 0)
(0 0 0)
(0 0 0)
(0 0 0)
(0 0 0)
(0 0 0)
(0 0 0)
(0 0 0)
(0 0 0)
(0 0 0)
(0 0 0)
(0 0 0)
(0 0 0)
(0 0 0)
(0 0 0)
(0 0 0)
(0 0 0)