/*--------------------------------*- C++ -*----------------------------------*\
| =========                 |                                                 |
| \\      /  F ield         | OpenFOAM: The Open Source CFD Toolbox           |
|  \\    /   O peration     | Version:  v2106                                 |
|   \\  /    A nd           | Website:  www.openfoam.com                      |
|    \\/     M anipulation  |                                                 |
\*---------------------------------------------------------------------------*/
FoamFile
{
    version     2.0;
    format      ascii;
    arch        "LSB;label=32;scalar=64";
    class       volScalarField;
    location    "0";
    object      p;
}
// * * * * * * * * * * * * * * * * * * * * * * * * * * * * * * * * * * * * * //

dimensions      [0 2 -2 0 0 0 0];

internalField   nonuniform List<scalar> 
11644
(
0.0397542
0.0401608
0.0410197
0.042352
0.0441641
0.0464715
0.0492944
0.0526511
0.0565527
0.0609994
0.0659669
0.0713977
0.0772133
0.0832884
0.0894329
0.0954599
0.101152
0.10623
0.110385
0.113416
0.115269
0.115965
0.115515
0.113958
0.111417
0.108124
0.104342
0.100253
0.0960546
0.0919198
0.0879726
0.0843064
0.0809856
0.0780517
0.0755281
0.0734253
0.0717472
0.0704989
0.0696875
0.0693034
0.0390568
0.0394555
0.0402802
0.0415556
0.0433047
0.0455517
0.0483216
0.051639
0.0555256
0.0599923
0.0650304
0.070614
0.0766674
0.0830384
0.0895863
0.0960836
0.10221
0.107622
0.112037
0.11532
0.117315
0.11794
0.117235
0.115341
0.112449
0.108808
0.104643
0.100234
0.0957846
0.0914527
0.0873652
0.0836114
0.0802428
0.0772901
0.0747695
0.0726855
0.0710379
0.0698227
0.0690327
0.0686513
0.0374915
0.0378907
0.0386863
0.0398946
0.0415497
0.0436886
0.0463512
0.04958
0.053418
0.0579015
0.063064
0.0689007
0.0753701
0.0823955
0.0897803
0.0972107
0.104298
0.110665
0.115972
0.119906
0.122168
0.122591
0.121306
0.118596
0.114817
0.110279
0.105313
0.100197
0.0951843
0.090452
0.086101
0.0821836
0.0787312
0.0757496
0.073234
0.0711737
0.0695556
0.0683614
0.0675691
0.0671679
0.03514
0.0355145
0.0362547
0.0373698
0.0388947
0.0408753
0.0433681
0.0464389
0.0501628
0.0546245
0.0598967
0.0660503
0.0731549
0.0811242
0.0898057
0.098786
0.107599
0.115889
0.122823
0.127768
0.130293
0.130224
0.127838
0.12364
0.118375
0.112348
0.10606
0.0999261
0.0941243
0.0888113
0.0840816
0.0799528
0.0763981
0.0733864
0.0708821
0.0688524
0.0672644
0.066087
0.0652976
0.0648962
0.0321035
0.0324257
0.0330651
0.0340359
0.0353688
0.0371155
0.0393446
0.0421454
0.0456301
0.0499325
0.0552261
0.0617307
0.0695931
0.0788991
0.0894878
0.100938
0.112481
0.123814
0.133258
0.13972
0.142562
0.141568
0.137265
0.130411
0.122729
0.114429
0.106313
0.0988033
0.0920985
0.0862027
0.0810911
0.0767542
0.0731231
0.070113
0.0676529
0.0656816
0.0641491
0.0630177
0.0622628
0.0618805
0.0284984
0.0287396
0.0292297
0.0299811
0.0310309
0.0324323
0.0342594
0.0366175
0.0396469
0.0435769
0.0487334
0.05543
0.0640076
0.0746659
0.0877125
0.102735
0.118435
0.134612
0.148324
0.157641
0.16086
0.157819
0.149957
0.138966
0.127361
0.115569
0.104902
0.0959046
0.0883092
0.0820007
0.0767309
0.0723408
0.0687395
0.065827
0.0634915
0.0616455
0.0602258
0.0591882
0.0585063
0.0581642
0.0244274
0.0245771
0.0248725
0.0253352
0.0259989
0.0269126
0.0281529
0.0298286
0.0321221
0.0353692
0.0399468
0.0462784
0.0548162
0.0667448
0.0825931
0.102354
0.118918
0.140151
0.160249
0.175245
0.181316
0.17764
0.16633
0.151081
0.130372
0.114249
0.100589
0.0900483
0.0819644
0.0755745
0.070493
0.0663969
0.063074
0.0604315
0.0583564
0.0567471
0.0555312
0.054659
0.0540926
0.0538171
0.0200757
0.020099
0.0201584
0.0202643
0.0204373
0.0207165
0.021165
0.0218787
0.0230866
0.0251116
0.0282724
0.0331442
0.040722
0.0525727
0.0685231
0.0900332
0.11991
0.153625
0.187411
0.213012
0.221945
0.212295
0.189211
0.161779
0.135219
0.113309
0.0975596
0.0800652
0.0721695
0.0663632
0.062004
0.0586384
0.05597
0.0538686
0.052263
0.0510492
0.0501508
0.0495169
0.0491091
0.0489016
0.0156164
0.0155227
0.0153164
0.0150021
0.0145913
0.0140995
0.0135509
0.0130153
0.0126872
0.0127591
0.0135483
0.0155688
0.0195153
0.0332418
0.0477039
0.0717827
0.105146
0.15464
0.211284
0.261558
0.281779
0.262167
0.218163
0.170968
0.131672
0.0999539
0.0825007
0.0638316
0.0580126
0.0540036
0.051109
0.048997
0.0474148
0.0461909
0.045298
0.0446542
0.0441966
0.0438765
0.043679
0.0435844
0.011303
0.0110603
0.0105712
0.00981475
0.00877347
0.00741972
0.00571789
0.00367769
0.00136732
-0.00122252
-0.00391922
-0.00640182
-0.00862582
0.000692608
0.00762119
0.0296823
0.0654495
0.127831
0.226457
0.341693
0.394946
0.339516
0.236606
0.155308
0.0998499
0.0652885
0.0538873
0.040148
0.0390426
0.0382588
0.0378284
0.0376692
0.0376343
0.0376271
0.0376776
0.0377687
0.0378674
0.0379549
0.0380069
0.0380353
0.00735468
0.00699029
0.00622476
0.00503089
0.00335721
0.00113319
-0.00174841
-0.00539015
-0.00992453
-0.0155789
-0.0226149
-0.031362
-0.0420934
-0.0434217
-0.0521181
-0.0511285
-0.0389014
-0.00381094
0.117108
0.385967
0.586972
0.367917
0.137364
0.0444672
0.0153766
0.00703862
0.0121824
0.0107525
0.0157662
0.0196261
0.0227407
0.0251864
0.0270961
0.028585
0.0297654
0.0307125
0.0314332
0.0319565
0.0322949
0.0324408
0.00401829
0.0035448
0.00254276
0.000977831
-0.00124091
-0.00421802
-0.00812867
-0.0132023
-0.0197869
-0.0283675
-0.0396322
-0.0547718
-0.0753528
-0.0862963
-0.121326
-0.152298
-0.206628
-0.311224
-0.565279
-0.456533
-0.199633
-0.104678
-0.0622351
-0.0355442
-0.0212544
-0.00904324
0.000230676
0.00724373
0.0125129
0.0165277
0.0196245
0.0220022
0.0238336
0.025209
0.0261988
0.0268549
0.02719
0.0015701
0.000928724
-0.000257104
-0.00208265
-0.00464753
-0.00810685
-0.0126795
-0.0186842
-0.0266111
-0.037157
-0.0512842
-0.070397
-0.0967149
-0.120972
-0.172252
-0.232893
-0.33715
-0.529816
-0.745446
-0.469571
-0.321679
-0.185818
-0.117407
-0.0769085
-0.0491104
-0.0307912
-0.017007
-0.00674703
0.0009935
0.0069092
0.0114732
0.014967
0.0176188
0.0196024
0.0210271
0.0219585
0.0224353
-0.000107008
-0.000712006
-0.0019584
-0.00386918
-0.00653238
-0.010121
-0.0148199
-0.0209948
-0.0291485
-0.0399906
-0.0544814
-0.0738345
-0.0992068
-0.1294
-0.181963
-0.251525
-0.364086
-0.538822
-0.627698
-0.311784
-0.281084
-0.205452
-0.143669
-0.10196
-0.066916
-0.0457313
-0.0295251
-0.0173278
-0.00798163
-0.000786469
0.00483428
0.0091583
0.0124262
0.0148662
0.0166063
0.0177434
0.0183756
-0.000945671
-0.00145156
-0.00259868
-0.00436358
-0.00682506
-0.0101181
-0.014364
-0.0198841
-0.0270662
-0.0363235
-0.0483901
-0.0638779
-0.0833946
-0.110433
-0.14854
-0.208574
-0.307132
-0.487849
-0.682415
-0.620118
-0.442124
-0.330949
-0.268548
-0.273253
-0.214933
-0.153634
-0.111432
-0.0739597
-0.0526959
-0.0359677
-0.0232557
-0.013388
-0.00570893
0.000340064
0.0050232
0.00858374
0.0112491
0.0131461
0.014355
0.014871
-0.000701238
-0.0012434
-0.00215627
-0.00356486
-0.00554253
-0.00818171
-0.0115419
-0.0157295
-0.0209488
-0.0271923
-0.0344331
-0.0427153
-0.0521668
-0.0712597
-0.0850992
-0.102492
-0.152831
-0.236238
-0.41369
-0.533584
-0.545554
-0.501374
-0.426784
-0.332483
-0.228928
-0.152941
-0.109773
-0.0709611
-0.0511543
-0.0358066
-0.02396
-0.014639
-0.00732229
-0.00156229
0.00293765
0.0064234
0.00903337
0.0108671
0.0120059
0.0124743
0.000495696
0.000261891
-0.000412577
-0.00144615
-0.00285767
-0.00467297
-0.00688919
-0.00938116
-0.0119819
-0.0145115
-0.0163736
-0.0170143
-0.0158544
-0.0131024
-0.0145245
0.00314805
0.0156317
0.0250106
-0.125834
-0.438936
-0.654994
-0.669051
-0.534411
-0.338965
-0.1995
-0.135996
-0.082019
-0.0590848
-0.0423939
-0.0296299
-0.0198357
-0.0120438
-0.00579942
-0.000825095
0.00305212
0.00607424
0.00835408
0.00996892
0.0110068
0.0115008
0.00268647
0.00259424
0.00219767
0.00156144
0.000730445
-0.00022777
-0.00123433
-0.00206359
-0.00234125
-0.00180434
5.29676e-06
0.00379913
0.0114743
0.0225658
0.0323765
0.0674522
0.105468
0.110159
-0.06623
-0.358781
-0.552061
-0.532257
-0.385061
-0.242403
-0.145947
-0.101408
-0.0567686
-0.0402135
-0.0280618
-0.0189046
-0.0119032
-0.00622826
-0.00159299
0.0021347
0.00508218
0.00740717
0.00917334
0.0104444
0.0112948
0.011742
0.00533509
0.00521447
0.00506051
0.00485238
0.00459682
0.00438914
0.00433857
0.00460237
0.00544734
0.00710955
0.00999562
0.014431
0.0216742
0.0339736
0.0436421
0.0633828
0.0888147
0.0703818
-0.0534844
-0.207532
-0.291528
-0.268556
-0.193314
-0.133351
-0.0814019
-0.0559842
-0.0259196
-0.0168438
-0.00992463
-0.00502179
-0.00120361
0.00193336
0.00453764
0.0066986
0.00851844
0.0100186
0.0111889
0.0120557
0.0126397
0.0129471
0.00817541
0.00810262
0.00809408
0.00815488
0.00828604
0.00853787
0.0089826
0.00964044
0.0105806
0.0118773
0.0137343
0.0159182
0.0183091
0.0226075
0.0237573
0.0137065
-0.00248876
-0.0404391
-0.109417
-0.171906
-0.187623
-0.157258
-0.111878
-0.0716494
-0.0313456
-0.0141042
0.00457047
0.00706684
0.00866429
0.00944269
0.0101062
0.0107173
0.0113019
0.0119472
0.0126508
0.0133222
0.0138926
0.0143427
0.0146355
0.0147759
0.0111183
0.0111439
0.011232
0.0114094
0.0116858
0.0120759
0.0126036
0.0132296
0.0138618
0.014327
0.0145083
0.0139772
0.0105883
0.00518942
-0.00267849
-0.0380007
-0.0944865
-0.182255
-0.258311
-0.290891
-0.260908
-0.179968
-0.0943203
-0.0336505
0.00671422
0.0186129
0.0290723
0.0270629
0.0241573
0.0217092
0.0197477
0.0183348
0.0174275
0.0169656
0.0167412
0.0166781
0.0167097
0.0167837
0.0168554
0.016903
0.0139995
0.0140878
0.0142495
0.0144962
0.0148335
0.0152552
0.0157384
0.0162185
0.0165502
0.0164513
0.0155316
0.0131419
0.00688999
-0.0045256
-0.0248553
-0.0574817
-0.139239
-0.246602
-0.339987
-0.374977
-0.322806
-0.204156
-0.087185
-0.00944242
0.029554
0.0492702
0.0472891
0.0415235
0.0355671
0.0307435
0.027082
0.0243627
0.0224981
0.0212257
0.0203206
0.0197088
0.0193317
0.0191137
0.019015
0.0190126
0.0166483
0.0167431
0.0169696
0.0173071
0.0177386
0.0182438
0.0187569
0.0192033
0.0194605
0.0193243
0.0183602
0.0158066
0.0103964
-0.000388116
-0.0192541
-0.0519156
-0.105079
-0.171336
-0.227096
-0.242751
-0.209434
-0.139244
-0.0619499
-0.00298285
0.0347933
0.0526717
0.0557394
0.0486592
0.0419254
0.0364409
0.0321359
0.028782
0.0263331
0.024526
0.0232093
0.0222845
0.0216572
0.0212471
0.0210132
0.020921
0.0189793
0.0191123
0.0194031
0.0198104
0.0203247
0.0209271
0.021559
0.0221605
0.0226413
0.0228572
0.0224477
0.0207923
0.0171114
0.0102263
-0.00267761
-0.0215075
-0.0521721
-0.0897659
-0.12316
-0.140203
-0.138722
-0.109812
-0.0630585
-0.0146684
0.0223071
0.0429507
0.0508311
0.0474589
0.0427087
0.0383635
0.0343221
0.0310778
0.0285983
0.0266894
0.0252726
0.024246
0.0235123
0.0230077
0.0226885
0.0225213
0.0209896
0.0211976
0.0215041
0.0219303
0.0224905
0.0231857
0.0239964
0.0248977
0.0258226
0.0266086
0.0270004
0.0265596
0.0245651
0.0203717
0.0123166
-6.0311e-05
-0.0201777
-0.0465795
-0.0760582
-0.0998334
-0.108702
-0.100965
-0.0737197
-0.0384869
-0.00558603
0.0185491
0.032466
0.0370566
0.037322
0.0356801
0.0332497
0.0310577
0.0291855
0.0276598
0.0264511
0.0255095
0.0247987
0.0242899
0.0239561
0.0237774
0.0226125
0.022799
0.0231106
0.0235798
0.0242201
0.0250394
0.0260566
0.0272827
0.0286571
0.0300444
0.0311903
0.0318206
0.0307561
0.0277255
0.0198171
0.00552684
-0.0175946
-0.0493684
-0.0885216
-0.123254
-0.140214
-0.137814
-0.113924
-0.0778199
-0.0405556
-0.0106677
0.0112856
0.022926
0.0286414
0.0300899
0.0301127
0.0294667
0.0285918
0.0277145
0.0268974
0.0261961
0.0256176
0.0251806
0.0248822
0.0247235
0.023892
0.0239644
0.0242949
0.0248182
0.0255377
0.0264716
0.0276298
0.0290281
0.0306739
0.0324922
0.0341727
0.0354946
0.0352056
0.0315694
0.0217587
0.00271459
-0.0263025
-0.0645587
-0.115586
-0.162007
-0.192964
-0.193818
-0.160938
-0.120726
-0.0695426
-0.0328795
-0.00437354
0.0120705
0.021004
0.0251111
0.0271071
0.0275591
0.0276286
0.0273153
0.0269102
0.0264923
0.0261035
0.025796
0.0255745
0.0254478
0.0249494
0.0250215
0.0253177
0.0258148
0.0265293
0.0274657
0.0286231
0.0300173
0.0316731
0.0335712
0.0354167
0.0373564
0.0367513
0.0311118
0.0195709
-0.000864163
-0.0299273
-0.068335
-0.117861
-0.164673
-0.20447
-0.201378
-0.168716
-0.126756
-0.079404
-0.0407375
-0.0103888
0.00711018
0.0172735
0.0224622
0.0252674
0.0264886
0.0269803
0.0270211
0.0268805
0.0266631
0.0264315
0.0262363
0.0260927
0.0260151
0.0256706
0.0258277
0.0261078
0.0265449
0.0271751
0.0280144
0.0290621
0.0303278
0.0318135
0.0335369
0.0352495
0.0367671
0.0354168
0.0287502
0.0158232
-0.00497093
-0.0330562
-0.0678521
-0.105926
-0.13888
-0.164136
-0.158039
-0.131162
-0.0971287
-0.0608726
-0.0291592
-0.00474671
0.00944909
0.0179441
0.0225485
0.0250972
0.0263471
0.0269177
0.0270866
0.0270654
0.0269363
0.026764
0.0266032
0.026482
0.0264434
0.0259168
0.0260814
0.0263478
0.0267394
0.0272795
0.0279787
0.0288485
0.0298985
0.0310618
0.0322349
0.0332153
0.0333054
0.0303957
0.0228107
0.00908517
-0.0110349
-0.0370873
-0.0659816
-0.092854
-0.10848
-0.112258
-0.102423
-0.0823392
-0.056584
-0.0314157
-0.00932726
0.00643794
0.0157537
0.0213521
0.0242666
0.0260135
0.0269038
0.0273137
0.027449
0.027418
0.0272951
0.0271408
0.0269937
0.0268817
0.0268078
0.0258295
0.0259228
0.0261297
0.0264466
0.0268686
0.0273868
0.0279873
0.0286462
0.0292476
0.0295377
0.0291407
0.0271326
0.0215736
0.0115327
-0.003085
-0.0212299
-0.0426732
-0.0646762
-0.0818544
-0.087116
-0.0812407
-0.0680302
-0.0496464
-0.0282402
-0.00906615
0.00597743
0.0156664
0.0216438
0.0249708
0.0266578
0.0275323
0.0278743
0.0279551
0.0278984
0.027764
0.027601
0.0274464
0.0273076
0.0271966
0.0270843
0.0256016
0.0256552
0.0258001
0.0260163
0.0262774
0.0265503
0.0267809
0.0269007
0.0267408
0.0259871
0.0240031
0.0197412
0.0112447
-0.00215588
-0.0196887
-0.0397346
-0.0594308
-0.0769468
-0.0887294
-0.0891504
-0.0826226
-0.0644737
-0.0418554
-0.0192812
0.00014224
0.0132454
0.021305
0.0259529
0.0281912
0.0290403
0.0292085
0.028982
0.0286592
0.0283053
0.0279998
0.0277338
0.0275196
0.0273471
0.027225
0.0271658
0.0253045
0.0253861
0.025471
0.0255705
0.0256482
0.0256672
0.0255405
0.0251444
0.0242761
0.022626
0.0193242
0.0133114
0.00240889
-0.0141802
-0.0361265
-0.0618892
-0.0857776
-0.103539
-0.116061
-0.115729
-0.103343
-0.077633
-0.0472343
-0.0213615
0.000175753
0.0149243
0.0242642
0.0290105
0.0308264
0.0309737
0.0304962
0.0298195
0.0291543
0.0285602
0.0280838
0.0277014
0.0274094
0.0272124
0.0271051
0.0271147
0.024913
0.0249971
0.0250327
0.0250354
0.0249712
0.0248125
0.0244707
0.0237961
0.0224971
0.0202628
0.0162149
0.00940721
-0.00217774
-0.0197581
-0.0428844
-0.0708719
-0.0992807
-0.120101
-0.135908
-0.136574
-0.115528
-0.0847551
-0.0506222
-0.0230134
-0.00102936
0.0143041
0.0241711
0.0293801
0.0316647
0.031702
0.0308716
0.0300457
0.0292328
0.0285502
0.0280184
0.0275963
0.027292
0.0271081
0.0270165
0.0270339
0.0244781
0.0245044
0.0245133
0.0244917
0.0243946
0.0241838
0.0237794
0.0230658
0.021779
0.0195964
0.0157671
0.00942159
-0.000957935
-0.0162955
-0.036302
-0.0599546
-0.086926
-0.107747
-0.12426
-0.126943
-0.105866
-0.079915
-0.0501698
-0.0248867
-0.00428907
0.0107063
0.0211353
0.0273539
0.0304376
0.0310261
0.0303145
0.0295488
0.0288304
0.0282298
0.0277528
0.0273787
0.0271072
0.0269296
0.0268144
0.0267553
0.0241673
0.0241625
0.0241552
0.0241334
0.0240528
0.0238744
0.0235341
0.022952
0.0219435
0.0202771
0.0174838
0.0128097
0.00520485
-0.0062898
-0.0216708
-0.0394739
-0.0592546
-0.0767372
-0.0901508
-0.0947088
-0.0867324
-0.0714746
-0.0503637
-0.0291783
-0.0103961
0.0046995
0.0161444
0.0234823
0.0273453
0.02873
0.0287413
0.02833
0.0278727
0.0274451
0.0270832
0.0267928
0.0265709
0.0264063
0.0262805
0.0261736
0.0239864
0.0240045
0.0240056
0.0239906
0.0239396
0.0238308
0.023621
0.0232537
0.0226432
0.0216533
0.0199903
0.0172112
0.0124165
0.00486591
-0.00586524
-0.0189802
-0.0337071
-0.0483934
-0.0597393
-0.0666044
-0.0687909
-0.0628279
-0.049143
-0.0322124
-0.0160825
-0.00218291
0.00899003
0.0170463
0.0221132
0.0249008
0.0259809
0.0262952
0.0262931
0.0261437
0.0259546
0.0257822
0.0256379
0.025529
0.0254569
0.0254085
0.023752
0.0237756
0.0238016
0.023823
0.0238342
0.0238384
0.0238126
0.0237403
0.0235671
0.0232464
0.0224895
0.0210676
0.01832
0.0133489
0.00514692
-0.00608525
-0.0197776
-0.0347306
-0.0476347
-0.0573302
-0.0607316
-0.0597261
-0.0509446
-0.0380522
-0.0248907
-0.0122469
-0.000778663
0.00861855
0.0156329
0.0201424
0.0225266
0.0237504
0.0243246
0.0245652
0.0246484
0.0246469
0.0246075
0.0245679
0.0245514
0.0245825
0.023423
0.0233948
0.0234262
0.0234919
0.0235898
0.0237276
0.023912
0.0241419
0.0243945
0.0246503
0.0246722
0.0241113
0.0221646
0.0178758
0.00994936
-0.00138367
-0.0161727
-0.0330372
-0.0508744
-0.0652197
-0.0705571
-0.0713072
-0.0643024
-0.0535435
-0.0407575
-0.0263336
-0.0118499
0.000326246
0.00957888
0.0157019
0.0192507
0.0212532
0.0223984
0.0230721
0.0234471
0.0236386
0.0237264
0.0237575
0.023772
0.0237977
0.023071
0.0230207
0.0230403
0.0231239
0.0232802
0.0235104
0.023823
0.0242337
0.024758
0.0252576
0.0257696
0.0255637
0.0236996
0.0196985
0.0117047
0.000128453
-0.0156835
-0.0343175
-0.056217
-0.0758325
-0.088648
-0.0896262
-0.0812718
-0.0697973
-0.0541861
-0.0370182
-0.0190986
-0.00505568
0.00563538
0.0124661
0.0167049
0.0193173
0.0208685
0.0218289
0.0224204
0.0227531
0.022963
0.0230653
0.0231057
0.0230659
0.0226641
0.0226575
0.0226981
0.0227898
0.0229486
0.0231827
0.0234952
0.0239177
0.024467
0.0249288
0.025393
0.0247528
0.0225178
0.0184172
0.0108874
-0.000237831
-0.0154489
-0.0337438
-0.0555727
-0.0756301
-0.0930114
-0.0933755
-0.0830503
-0.0704548
-0.0531864
-0.0353991
-0.0187163
-0.00547769
0.00462042
0.0114157
0.0156886
0.0183309
0.0199325
0.0209173
0.021559
0.0219537
0.0221945
0.0223191
0.0223688
0.022322
0.0220945
0.0221484
0.0222145
0.0223017
0.0224252
0.0225978
0.0228228
0.0231014
0.0234565
0.0236957
0.0235484
0.0222427
0.0191473
0.0138746
0.0058326
-0.00492899
-0.0186668
-0.0345787
-0.0516518
-0.0659295
-0.0771426
-0.0755652
-0.0658496
-0.0541216
-0.0390681
-0.0245009
-0.0114612
-0.00088198
0.00720735
0.0126516
0.0161486
0.0182836
0.019615
0.0204438
0.0209717
0.0212993
0.0214919
0.0215915
0.0216427
0.0216593
0.0213501
0.0213998
0.0214375
0.0214813
0.0215393
0.0216134
0.0216977
0.0217366
0.0217082
0.0214112
0.0204146
0.0182378
0.0142001
0.00793474
-0.000618491
-0.0110889
-0.0233838
-0.0362192
-0.0477882
-0.0544558
-0.0556114
-0.0513936
-0.0433129
-0.0331248
-0.0216091
-0.0108381
-0.00157076
0.00599607
0.01162
0.0152567
0.0175198
0.0189075
0.0197847
0.0203423
0.0207052
0.0209279
0.0210634
0.0211385
0.0211838
0.0212115
0.0205021
0.0204775
0.0204586
0.0204429
0.0204213
0.02037
0.0202597
0.0199928
0.0194327
0.0183424
0.016268
0.012872
0.00789111
0.00128812
-0.00706949
-0.0167417
-0.0272023
-0.0372615
-0.0444207
-0.0458652
-0.0433766
-0.0373712
-0.0287979
-0.0185739
-0.00837305
0.000545403
0.00759365
0.0127478
0.0160703
0.0180093
0.0191601
0.0198123
0.0202197
0.0204834
0.0206573
0.020765
0.0208347
0.0208736
0.0208884
0.0208818
0.019665
0.0195952
0.019547
0.0194853
0.0193786
0.0191785
0.0188317
0.0182221
0.0171324
0.0152611
0.0120678
0.007139
0.000507453
-0.00756798
-0.0166949
-0.0262699
-0.0354839
-0.0434772
-0.0479729
-0.0470729
-0.0436507
-0.0350524
-0.0239401
-0.0122496
-0.00132439
0.00741356
0.0138443
0.0176189
0.0196074
0.0204119
0.0206609
0.020683
0.0206422
0.0205949
0.0205589
0.0205302
0.0205147
0.0205045
0.0204948
0.0204956
0.0189395
0.0189245
0.0188666
0.0187533
0.0185467
0.0181929
0.0176234
0.0167257
0.0152526
0.0127741
0.00870762
0.00250233
-0.00602403
-0.0166496
-0.028214
-0.0392445
-0.0492902
-0.0565727
-0.0610913
-0.0589299
-0.0503412
-0.037579
-0.0228847
-0.00955491
0.00224779
0.0110136
0.017096
0.0202817
0.0218289
0.0220423
0.0216318
0.0212047
0.0208188
0.0205159
0.0203006
0.0201503
0.0200586
0.0200146
0.0200095
0.0200503
0.0182881
0.018333
0.0182709
0.0181327
0.0178632
0.0174334
0.0167603
0.015689
0.0140181
0.0113184
0.00695001
0.000433496
-0.00842713
-0.0200455
-0.0331325
-0.0460039
-0.0576388
-0.0656336
-0.0709659
-0.0682598
-0.0536476
-0.0380234
-0.0217367
-0.00764266
0.00392672
0.0124513
0.0180226
0.0207058
0.0220348
0.0222745
0.0216322
0.0211222
0.0206258
0.020235
0.0199477
0.0197477
0.0196231
0.0195617
0.0195511
0.0195959
0.0176512
0.0176712
0.0176176
0.0174924
0.0172544
0.0168698
0.0162619
0.0152978
0.0137699
0.011336
0.00747797
0.00177428
-0.00575649
-0.0156381
-0.0273813
-0.0394852
-0.0512149
-0.0593347
-0.0648069
-0.0630505
-0.0502932
-0.0364885
-0.0218595
-0.00900735
0.0016126
0.00955357
0.0150801
0.0182785
0.0201173
0.0207965
0.0207059
0.0203909
0.0199881
0.0196728
0.0194425
0.01928
0.0191724
0.0191058
0.0190668
0.0190589
0.0171534
0.0171237
0.0170724
0.0169839
0.0168197
0.0165474
0.0161204
0.0154363
0.0143458
0.0126028
0.00986283
0.00564454
-6.36807e-05
-0.0071529
-0.0156985
-0.0249315
-0.0343327
-0.0416708
-0.046917
-0.0478083
-0.0433555
-0.0348519
-0.0242544
-0.0138798
-0.00444603
0.00325959
0.00933678
0.0136894
0.0165922
0.01813
0.0187469
0.01887
0.0187798
0.0186845
0.0186008
0.0185363
0.0184901
0.0184535
0.0184174
0.0183702
0.0168619
0.016845
0.0168116
0.0167583
0.0166654
0.0165175
0.0162808
0.0159122
0.015331
0.0143764
0.0128146
0.0102989
0.00655389
0.00172474
-0.00428766
-0.0112412
-0.0187597
-0.0257321
-0.031547
-0.0350584
-0.0355279
-0.0325506
-0.0263959
-0.0184947
-0.010346
-0.00290811
0.00347842
0.00845186
0.0120856
0.0144932
0.0159531
0.016717
0.0171059
0.0173199
0.017423
0.0174799
0.0175171
0.0175454
0.0175632
0.017557
0.0166111
0.0166241
0.01663
0.0166275
0.0166119
0.016587
0.016541
0.0164689
0.0163369
0.0160704
0.0154878
0.0143715
0.0122135
0.00873342
0.00375804
-0.00263986
-0.0102438
-0.018002
-0.0250755
-0.0302464
-0.0319771
-0.0324699
-0.0293997
-0.0235038
-0.0164931
-0.00947893
-0.00295056
0.00257355
0.0070569
0.0105106
0.0129287
0.014454
0.0153543
0.0158886
0.0161908
0.0163771
0.0164884
0.016568
0.0166331
0.0167009
0.0162825
0.0162777
0.0162949
0.0163326
0.0163935
0.0164897
0.0166251
0.0168173
0.0170786
0.01736
0.0175391
0.0172073
0.015881
0.0133128
0.00885285
0.00260648
-0.00563387
-0.0149005
-0.0241901
-0.0319064
-0.0365984
-0.0391992
-0.0375517
-0.032855
-0.0263088
-0.018854
-0.0112027
-0.0040141
0.00215668
0.00694645
0.0103306
0.0125175
0.0138449
0.0146643
0.0151687
0.0154834
0.0156712
0.015786
0.0158619
0.01593
0.0159096
0.0158655
0.0158747
0.0159278
0.0160396
0.0162196
0.0164793
0.0168356
0.0173206
0.0178861
0.0185154
0.0186142
0.0177821
0.0159889
0.0121525
0.00630402
-0.00185799
-0.0122569
-0.0238209
-0.0348408
-0.0444364
-0.0487423
-0.0474444
-0.0427437
-0.0355045
-0.0268467
-0.0175359
-0.00856472
-0.00100726
0.00462151
0.00853736
0.0110938
0.0127218
0.0137465
0.0143996
0.0148218
0.0150835
0.0152362
0.0153086
0.015297
0.0154973
0.0154675
0.0154874
0.0155487
0.0156693
0.0158584
0.0161309
0.0164991
0.0169748
0.0174538
0.0179454
0.0179815
0.0172116
0.0155978
0.0121627
0.00670094
-0.000921245
-0.0108977
-0.0227917
-0.0347595
-0.0453408
-0.0501301
-0.0486379
-0.0434996
-0.0356219
-0.0263954
-0.016919
-0.00806927
-0.0009878
0.00424153
0.00804305
0.0105653
0.0121797
0.0131779
0.0138508
0.0142856
0.0145595
0.0146992
0.0147613
0.0147183
0.0149881
0.0150107
0.0150485
0.015098
0.0151773
0.0152937
0.0154575
0.015667
0.015917
0.0160265
0.0159191
0.0152049
0.0136554
0.0112322
0.00740381
0.00206972
-0.00474498
-0.0128483
-0.0221779
-0.0313411
-0.0377722
-0.0401289
-0.0377653
-0.0326452
-0.0256178
-0.0178945
-0.0102526
-0.00347887
0.00186358
0.00596728
0.00896398
0.0109391
0.0122052
0.013006
0.0135194
0.0138379
0.0140353
0.0141384
0.0141862
0.0141901
0.0143476
0.0143834
0.0143956
0.0143956
0.0143912
0.0143829
0.0143595
0.014297
0.0141547
0.0137464
0.0128469
0.0112589
0.00873256
0.00525465
0.00080424
-0.0045976
-0.0106848
-0.0168629
-0.0225004
-0.0267716
-0.0281196
-0.0267753
-0.0231675
-0.0183866
-0.0128082
-0.00712439
-0.00190395
0.0025108
0.00604792
0.0088313
0.0107369
0.0119263
0.0126688
0.0131324
0.013424
0.0136029
0.0137126
0.0137751
0.0138143
0.0138436
0.0136167
0.0135933
0.0135458
0.0134798
0.0133903
0.0132558
0.0130357
0.0126602
0.0120471
0.0110207
0.00937204
0.00702597
0.00387033
-0.000212867
-0.00508891
-0.010442
-0.0159645
-0.0205077
-0.0230054
-0.0233784
-0.0221977
-0.0187374
-0.0140243
-0.00904466
-0.00368376
0.00111668
0.00508079
0.00811675
0.0102919
0.0117441
0.0126034
0.0130503
0.0133115
0.013451
0.013541
0.0135923
0.0136222
0.0136366
0.0136428
0.0136387
0.0128896
0.0128101
0.0127291
0.0126258
0.0124752
0.0122361
0.0118488
0.0112022
0.0101499
0.00848475
0.0060328
0.00270304
-0.00148737
-0.00649626
-0.0120617
-0.0175613
-0.0226825
-0.0260927
-0.0267727
-0.0245328
-0.0212153
-0.0162695
-0.0100877
-0.00379252
0.00198903
0.00667533
0.010103
0.0123309
0.0135898
0.0140327
0.0140657
0.0139448
0.0138131
0.0136853
0.0135938
0.0135284
0.0134821
0.0134472
0.0134205
0.0134034
0.0122831
0.0122337
0.0121565
0.0120294
0.0118192
0.0114817
0.0109435
0.010095
0.008711
0.00650164
0.00327434
-0.00115398
-0.00689309
-0.0133946
-0.0201167
-0.0264421
-0.0313989
-0.0348596
-0.0346837
-0.0298346
-0.0230248
-0.015416
-0.00702756
0.000758916
0.00668396
0.0109893
0.0137221
0.015072
0.015636
0.0154544
0.0149216
0.0144123
0.0139727
0.0136473
0.0134071
0.0132467
0.0131464
0.0130895
0.0130657
0.0130796
0.011797
0.0118223
0.0117596
0.0116174
0.0113667
0.0109744
0.0103528
0.00939003
0.0078754
0.00545742
0.00194513
-0.0028233
-0.00919453
-0.0165308
-0.0240471
-0.0311385
-0.0363897
-0.040171
-0.0396884
-0.0331307
-0.0241828
-0.0143655
-0.00474091
0.00353481
0.00924124
0.0131282
0.0152659
0.0160477
0.0161471
0.0156829
0.0149522
0.0143413
0.0137824
0.0133823
0.0130804
0.0128786
0.012753
0.012691
0.0126766
0.0127111
0.0113414
0.0113791
0.0113346
0.0112225
0.0110048
0.0106512
0.0100946
0.00922056
0.00787893
0.00579476
0.00275724
-0.00129291
-0.00665342
-0.0131176
-0.0199667
-0.0265984
-0.0316193
-0.0353465
-0.0354634
-0.0305112
-0.0229138
-0.0140098
-0.00542746
0.00163133
0.00684125
0.010576
0.0128113
0.0139281
0.0143769
0.0143439
0.0140117
0.0136226
0.0132144
0.0128935
0.0126509
0.0124812
0.0123704
0.0123092
0.0122801
0.0122877
0.0109693
0.0109602
0.0109275
0.0108588
0.0107277
0.0105037
0.0101372
0.00955062
0.00862934
0.00722965
0.0051095
0.0022684
-0.00132096
-0.00574078
-0.010598
-0.0155806
-0.0197997
-0.0231824
-0.0249142
-0.0235198
-0.0200788
-0.0148489
-0.00923264
-0.00395158
0.000702868
0.00447475
0.00731653
0.00940536
0.0108285
0.0117153
0.0121036
0.012195
0.0121197
0.0120304
0.0119528
0.0118939
0.01185
0.0118198
0.0117903
0.0117569
0.0107599
0.0107451
0.0107261
0.0107001
0.0106491
0.0105639
0.0104182
0.0101773
0.00975966
0.009077
0.00797054
0.00633283
0.00425516
0.00156363
-0.00169376
-0.00546489
-0.00922331
-0.0127939
-0.0156724
-0.0171094
-0.0169932
-0.0156421
-0.0132006
-0.0095778
-0.0055262
-0.00165967
0.00178142
0.00467002
0.00690768
0.00851449
0.00959176
0.0102388
0.0105982
0.0108166
0.0109446
0.0110264
0.011079
0.0111126
0.0111263
0.0111123
0.0106154
0.0106275
0.0106461
0.0106713
0.0106954
0.0107284
0.0107674
0.0108087
0.0108113
0.0107191
0.010472
0.0097914
0.00862877
0.0068104
0.00418803
0.000732898
-0.00317103
-0.00716284
-0.0108123
-0.0138558
-0.0159588
-0.0174246
-0.0171549
-0.0148321
-0.0113012
-0.0073288
-0.00335076
0.000207678
0.00312844
0.00539377
0.00711019
0.00829491
0.00907618
0.0095778
0.00988491
0.0100782
0.0102064
0.0102989
0.0103681
0.0104226
0.0104102
0.0104258
0.0104601
0.0105155
0.0105985
0.0107257
0.0109033
0.0111463
0.0114572
0.0118035
0.0121195
0.0122152
0.0118077
0.0107387
0.00874561
0.00566446
0.00159373
-0.00338583
-0.0085874
-0.0134786
-0.0181164
-0.0221166
-0.0231921
-0.0217199
-0.0185265
-0.0141718
-0.00938102
-0.00474409
-0.000660549
0.0025969
0.0050402
0.00676656
0.00790475
0.00861932
0.00906033
0.00934072
0.00951724
0.00963477
0.00972017
0.00979756
0.0101286
0.010113
0.0101352
0.0101956
0.0103108
0.0104915
0.01075
0.011119
0.011602
0.0122294
0.0128919
0.0135876
0.0138902
0.0135951
0.0123923
0.00990826
0.00593948
-2.36306e-05
-0.00695373
-0.0140911
-0.0210838
-0.026843
-0.0289523
-0.0280574
-0.0246916
-0.0198333
-0.0142517
-0.00860054
-0.00344872
0.000647759
0.00363171
0.00574132
0.0071155
0.00796975
0.00851126
0.00886528
0.00908646
0.00921529
0.00928606
0.00930514
0.00979622
0.00977092
0.00978685
0.00984342
0.0099587
0.0101407
0.0104046
0.0107748
0.0112663
0.0118765
0.0125109
0.0132127
0.0136429
0.0134787
0.0124969
0.0102611
0.00654929
0.000848561
-0.00624057
-0.0137413
-0.0209009
-0.0266409
-0.028694
-0.0278853
-0.0243608
-0.0195334
-0.0139773
-0.00841415
-0.00344314
0.000493867
0.00333612
0.00539716
0.00673945
0.00760104
0.00816715
0.00853041
0.00875285
0.00887866
0.00892944
0.00889243
0.00940166
0.00940703
0.00943137
0.00947482
0.00954857
0.00966163
0.00982721
0.010054
0.0103107
0.010583
0.0107036
0.0106662
0.0103448
0.00951695
0.00807592
0.005747
0.00247562
-0.00191074
-0.00709303
-0.0125157
-0.01729
-0.0206457
-0.021071
-0.0196488
-0.0167092
-0.0128502
-0.00856834
-0.00438509
-0.000732223
0.00213641
0.00428169
0.00584008
0.00687349
0.00754918
0.00798037
0.00825172
0.00841262
0.00849693
0.00852994
0.0085138
0.00890819
0.00893444
0.00894654
0.00894876
0.0089447
0.00893571
0.00892018
0.00888191
0.00876437
0.0084982
0.00793974
0.00702477
0.00572762
0.00400879
0.00189459
-0.000675593
-0.0035904
-0.00653927
-0.00910229
-0.011242
-0.012633
-0.0129697
-0.0116823
-0.0095444
-0.00709038
-0.0042797
-0.00151697
0.000978926
0.00305502
0.00469019
0.00596922
0.00684859
0.00740493
0.00775525
0.00796596
0.00809206
0.00816501
0.00820474
0.00822785
0.00824052
0.0083284
0.00831939
0.00828572
0.00822544
0.00813541
0.00800098
0.00779382
0.00747312
0.00697119
0.00621254
0.00509779
0.00358167
0.00158217
-0.000838289
-0.0035394
-0.00640823
-0.00885816
-0.0106526
-0.0110753
-0.0105422
-0.00947358
-0.00787722
-0.00573581
-0.00319369
-0.000720764
0.00182327
0.00384512
0.0054069
0.00651091
0.00724542
0.00773172
0.0079728
0.00808616
0.00811909
0.0081213
0.00811514
0.0081054
0.00809488
0.00808671
0.0080868
0.00775011
0.00769034
0.00761318
0.00750684
0.00735964
0.00713691
0.00679414
0.00625438
0.00542856
0.0042497
0.00259585
0.000427782
-0.00235599
-0.00561428
-0.00899062
-0.0121919
-0.0144645
-0.0153343
-0.0143403
-0.0116088
-0.00846179
-0.0052091
-0.00209091
0.000935303
0.00368234
0.0060187
0.00756373
0.00855067
0.00902414
0.00911578
0.00898645