/*--------------------------------*- C++ -*----------------------------------*\
| =========                 |                                                 |
| \\      /  F ield         | OpenFOAM: The Open Source CFD Toolbox           |
|  \\    /   O peration     | Version:  v2106                                 |
|   \\  /    A nd           | Website:  www.openfoam.com                      |
|    \\/     M anipulation  |                                                 |
\*---------------------------------------------------------------------------*/
FoamFile
{
    version     2.0;
    format      ascii;
    arch        "LSB;label=32;scalar=64";
    class       pointVectorField;
    location    "0";
    object      pointDisplacement;
}
// * * * * * * * * * * * * * * * * * * * * * * * * * * * * * * * * * * * * * //

dimensions      [0 1 0 0 0 0 0];

internalField   nonuniform List<vector> 
24440
(
(0 0 0)
(0 0 0)
(0 0 0)
(0 0 0)
(0 0 0)
(0 0 0)
(0 0 0)
(0 0 0)
(0 0 0)
(0 0 0)
(0 0 0)
(0 0 0)
(0 0 0)
(0 0 0)
(0 0 0)
(0 0 0)
(0 0 0)
(0 0 0)
(0 0 0)
(0 0 0)
(0 0 0)
(0 0 0)
(0 0 0)
(0 0 0)
(0 0 0)
(0 0 0)
(0 0 0)
(0 0 0)
(0 0 0)
(0 0 0)
(0 0 0)
(0 0 0)
(0 0 0)
(0 0 0)
(0 0 0)
(0 0 0)
(0 0 0)
(0 0 0)
(0 0 0)
(0 0 0)
(0 0 0)
(0 0 0)
(0 0 0)
(0 0 0)
(0 0 0)
(0 0 0)
(0 0 0)
(0 0 0)
(0 0 0)
(0 0 0)
(0 0 0)
(0 0 0)
(0 0 0)
(0 0 0)
(0 0 0)
(0 0 0)
(0 0 0)
(0 0 0)
(0 0 0)
(0 0 0)
(0 0 0)
(0 0 0)
(0 0 0)
(0 0 0)
(0 0 0)
(0 0 0)
(0 0 0)
(0 0 0)
(0 0 0)
(0 0 0)
(0 0 0)
(0 0 0)
(0 0 0)
(0 0 0)
(0 0 0)
(0 0 0)
(0 0 0)
(0 0 0)
(0 0 0)
(0 0 0)
(0 0 0)
(0 0 0)
(0 0 0)
(0 0 0)
(0 0 0)
(0 0 0)
(0 0 0)
(0 0 0)
(0 0 0)
(0 0 0)
(0 0 0)
(0 0 0)
(0 0 0)
(0 0 0)
(0 0 0)
(0 0 0)
(0 0 0)
(0 0 0)
(0 -5.87505e-06 0)
(0 -3.70484e-05 0)
(0 -0.000101875 0)
(0 -0.000156985 0)
(0 -0.000178134 0)
(0 -0.000156985 0)
(0 -0.000101875 0)
(0 -3.70484e-05 0)
(0 -5.87505e-06 0)
(0 0 0)
(0 0 0)
(0 0 0)
(0 0 0)
(0 0 0)
(0 0 0)
(0 0 0)
(0 0 0)
(0 0 0)
(0 0 0)
(0 0 0)
(0 0 0)
(0 0 0)
(0 0 0)
(0 0 0)
(0 0 0)
(0 0 0)
(0 0 0)
(0 0 0)
(0 0 0)
(0 0 0)
(0 0 0)
(0 0 0)
(0 0 0)
(0 0 0)
(0 0 0)
(0 0 0)
(0 0 0)
(0 0 0)
(0 -9.83913e-06 0)
(0 -0.000130155 0)
(0 -0.000383037 0)
(0 -0.000690016 0)
(0 -0.000984244 0)
(0 -0.00118936 0)
(0 -0.00138004 0)
(0 -0.00144713 0)
(0 -0.00138004 0)
(0 -0.00118936 0)
(0 -0.000984244 0)
(0 -0.000690016 0)
(0 -0.000383037 0)
(0 -0.000130155 0)
(0 -9.83913e-06 0)
(0 0 0)
(0 0 0)
(0 0 0)
(0 0 0)
(0 0 0)
(0 0 0)
(0 0 0)
(0 0 0)
(0 0 0)
(0 0 0)
(0 0 0)
(0 0 0)
(0 0 0)
(0 0 0)
(0 0 0)
(0 0 0)
(0 0 0)
(0 0 0)
(0 0 0)
(0 0 0)
(0 0 0)
(0 0 0)
(0 0 0)
(0 0 0)
(0 -4.13103e-06 0)
(0 -0.000171166 0)
(0 -0.000583731 0)
(0 -0.00115111 0)
(0 -0.00173551 0)
(0 -0.00238748 0)
(0 -0.00295215 0)
(0 -0.00330186 0)
(0 -0.00363625 0)
(0 -0.00375182 0)
(0 -0.00363625 0)
(0 -0.00330186 0)
(0 -0.00295215 0)
(0 -0.00238748 0)
(0 -0.00173551 0)
(0 -0.00115111 0)
(0 -0.000583731 0)
(0 -0.000171166 0)
(0 -4.13103e-06 0)
(0 0 0)
(0 0 0)
(0 0 0)
(0 0 0)
(0 0 0)
(0 0 0)
(0 0 0)
(0 0 0)
(0 0 0)
(0 0 0)
(0 0 0)
(0 0 0)
(0 0 0)
(0 0 0)
(0 0 0)
(0 0 0)
(0 0 0)
(0 0 0)
(0 0 0)
(0 0 0)
(0 0 0)
(0 -3.90609e-05 0)
(0 -0.000406212 0)
(0 -0.00107953 0)
(0 -0.00189405 0)
(0 -0.00290536 0)
(0 -0.00392536 0)
(0 -0.00480899 0)
(0 -0.00563675 0)
(0 -0.00622414 0)
(0 -0.00657508 0)
(0 -0.00673618 0)
(0 -0.00657508 0)
(0 -0.00622414 0)
(0 -0.00563675 0)
(0 -0.00480899 0)
(0 -0.00392536 0)
(0 -0.00290536 0)
(0 -0.00189405 0)
(0 -0.00107953 0)
(0 -0.000406212 0)
(0 -4.13526e-05 0)
(0 0 0)
(0 0 0)
(0 0 0)
(0 0 0)
(0 0 0)
(0 0 0)
(0 0 0)
(0 0 0)
(0 0 0)
(0 0 0)
(0 0 0)
(0 0 0)
(0 0 0)
(0 0 0)
(0 0 0)
(0 0 0)
(0 0 0)
(0 0 0)
(0 0 0)
(0 -7.6824e-05 0)
(0 -0.00053869 0)
(0 -0.0013445 0)
(0 -0.00246829 0)
(0 -0.00380389 0)
(0 -0.00519177 0)
(0 -0.0064654 0)
(0 -0.00767282 0)
(0 -0.00812652 0)
(0 -0.00861716 0)
(0 -0.00902756 0)
(0 -0.00935091 0)
(0 -0.00958214 0)
(0 -0.00974203 0)
(0 -0.00988974 0)
(0 -0.0099392 0)
(0 -0.00988974 0)
(0 -0.00974203 0)
(0 -0.00958214 0)
(0 -0.00935091 0)
(0 -0.00902756 0)
(0 -0.00861716 0)
(0 -0.00812652 0)
(0 -0.00767282 0)
(0 -0.0064654 0)
(0 -0.00519177 0)
(0 -0.00380389 0)
(0 -0.00246829 0)
(0 -0.00131659 0)
(0 -0.00048676 0)
(0 -6.13874e-05 0)
(0 0 0)
(0 0 0)
(0 0 0)
(0 0 0)
(0 0 0)
(0 0 0)
(0 0 0)
(0 0 0)
(0 0 0)
(0 0 0)
(0 0 0)
(0 0 0)
(0 0 0)
(0 0 0)
(0 0 0)
(0 0 0)
(0 0 0)
(0 -4.51866e-05 0)
(0 -0.000517113 0)
(0 -0.00144077 0)
(0 -0.0027111 0)
(0 -0.0041991 0)
(0 -0.00594982 0)
(0 -0.00678693 0)
(0 -0.00752893 0)
(0 -0.00835015 0)
(0 -0.00911991 0)
(0 -0.00982417 0)
(0 -0.0104225 0)
(0 -0.00908335 0)
(0 -0.00963794 0)
(0 -0.0100756 0)
(0 -0.0105171 0)
(0 -0.0108634 0)
(0 -0.0111102 0)
(0 -0.0112582 0)
(0 -0.011415 0)
(0 -0.0114674 0)
(0 -0.011415 0)
(0 -0.0112582 0)
(0 -0.0111102 0)
(0 -0.0108634 0)
(0 -0.0105171 0)
(0 -0.0100756 0)
(0 -0.00963794 0)
(0 -0.00908335 0)
(0 -0.0104225 0)
(0 -0.00982417 0)
(0 -0.00911991 0)
(0 -0.00835015 0)
(0 -0.00752893 0)
(0 -0.00678693 0)
(0 -0.00594982 0)
(0 -0.0041991 0)
(0 -0.0027111 0)
(0 -0.00138821 0)
(0 -0.000494615 0)
(0 -4.1036e-05 0)
(0 0 0)
(0 0 0)
(0 0 0)
(0 0 0)
(0 0 0)
(0 0 0)
(0 0 0)
(0 0 0)
(0 0 0)
(0 0 0)
(0 0 0)
(0 0 0)
(0 0 0)
(0 0 0)
(0 0 0)
(0 0 0)
(0 -0.000285904 0)
(0 -0.00116839 0)
(0 -0.00249786 0)
(0 -0.00416781 0)
(0 -0.00602777 0)
(0 -0.00791769 0)
(0 -0.00696901 0)
(0 -0.00787933 0)
(0 -0.00875528 0)
(0 -0.00958008 0)
(0 -0.0103129 0)
(0 -0.011056 0)
(0 -0.0117128 0)
(0 -0.0122553 0)
(0 -0.0110118 0)
(0 -0.0115081 0)
(0 -0.0127669 0)
(0 -0.0131353 0)
(0 -0.011903 0)
(0 -0.0122643 0)
(0 -0.0135016 0)
(0 -0.0137595 0)
(0 -0.0125206 0)
(0 -0.0126505 0)
(0 -0.013909 0)
(0 -0.0140276 0)
(0 -0.0128122 0)
(0 -0.0128662 0)
(0 -0.0140812 0)
(0 -0.0140276 0)
(0 -0.0128122 0)
(0 -0.0126505 0)
(0 -0.013909 0)
(0 -0.0137595 0)
(0 -0.0125206 0)
(0 -0.0122643 0)
(0 -0.0135016 0)
(0 -0.0131353 0)
(0 -0.011903 0)
(0 -0.0115081 0)
(0 -0.0127669 0)
(0 -0.0122553 0)
(0 -0.0110118 0)
(0 -0.0117128 0)
(0 -0.011056 0)
(0 -0.0103129 0)
(0 -0.00958008 0)
(0 -0.00875528 0)
(0 -0.00787933 0)
(0 -0.00696901 0)
(0 -0.00791769 0)
(0 -0.00602777 0)
(0 -0.00411764 0)
(0 -0.00247814 0)
(0 -0.00116714 0)
(0 -0.000310823 0)
(0 0 0)
(0 0 0)
(0 0 0)
(0 0 0)
(0 0 0)
(0 0 0)
(0 0 0)
(0 0 0)
(0 0 0)
(0 0 0)
(0 0 0)
(0 0 0)
(0 0 0)
(0 0 0)
(0 0 0)
(0 -6.23697e-05 0)
(0 -0.000640767 0)
(0 -0.001847 0)
(0 -0.00346054 0)
(0 -0.00537875 0)
(0 -0.00757643 0)
(0 -0.00969332 0)
(0 -0.00886949 0)
(0 -0.00982848 0)
(0 -0.00882515 0)
(0 -0.00981218 0)
(0 -0.0107299 0)
(0 -0.0116342 0)
(0 -0.0106808 0)
(0 -0.0114741 0)
(0 -0.0124495 0)
(0 -0.0128212 0)
(0 -0.0131673 0)
(0 -0.0126968 0)
(0 -0.0121438 0)
(0 -0.0128177 0)
(0 -0.0133009 0)
(0 -0.0135995 0)
(0 -0.013116 0)
(0 -0.0138419 0)
(0 -0.0143003 0)
(0 -0.0145124 0)
(0 -0.0140572 0)
(0 -0.0145318 0)
(0 -0.0149803 0)
(0 -0.0150921 0)
(0 -0.01467 0)
(0 -0.0149238 0)
(0 -0.0153348 0)
(0 -0.0153933 0)
(0 -0.0149918 0)
(0 -0.0150649 0)
(0 -0.0154577 0)
(0 -0.0154458 0)
(0 -0.0150523 0)
(0 -0.0149238 0)
(0 -0.0153348 0)
(0 -0.0152793 0)
(0 -0.0148655 0)
(0 -0.0145318 0)
(0 -0.0149803 0)
(0 -0.0148519 0)
(0 -0.0144045 0)
(0 -0.0138419 0)
(0 -0.0143003 0)
(0 -0.014113 0)
(0 -0.0135987 0)
(0 -0.0128177 0)
(0 -0.0133009 0)
(0 -0.0129753 0)
(0 -0.0124933 0)
(0 -0.0114741 0)
(0 -0.0124495 0)
(0 -0.0116342 0)
(0 -0.0106808 0)
(0 -0.00981218 0)
(0 -0.0107299 0)
(0 -0.00982848 0)
(0 -0.00882515 0)
(0 -0.00886949 0)
(0 -0.00964965 0)
(0 -0.0075712 0)
(0 -0.00546544 0)
(0 -0.00343148 0)
(0 -0.00182902 0)
(0 -0.000672882 0)
(0 -7.13229e-05 0)
(0 0 0)
(0 0 0)
(0 0 0)
(0 0 0)
(0 0 0)
(0 0 0)
(0 0 0)
(0 0 0)
(0 0 0)
(0 0 0)
(0 0 0)
(0 0 0)
(0 0 0)
(0 0 0)
(0 -0.000204059 0)
(0 -0.00103275 0)
(0 -0.00242651 0)
(0 -0.0042637 0)
(0 -0.00638684 0)
(0 -0.00872208 0)
(0 -0.0109016 0)
(0 -0.0103638 0)
(0 -0.0113894 0)
(0 -0.0106914 0)
(0 -0.0116233 0)
(0 -0.0123406 0)
(0 -0.0131996 0)
(0 -0.0124721 0)
(0 -0.0132241 0)
(0 -0.0136136 0)
(0 -0.0139486 0)
(0 -0.0136131 0)
(0 -0.0145596 0)
(0 -0.0147207 0)
(0 -0.0148507 0)
(0 -0.0146911 0)
(0 -0.0154128 0)
(0 -0.0155417 0)
(0 -0.0156253 0)
(0 -0.0154991 0)
(0 -0.0159178 0)
(0 -0.0160117 0)
(0 -0.0160544 0)
(0 -0.0159597 0)
(0 -0.0161391 0)
(0 -0.016208 0)
(0 -0.0162179 0)
(0 -0.016151 0)
(0 -0.0161958 0)
(0 -0.0162513 0)
(0 -0.0162503 0)
(0 -0.0161944 0)
(0 -0.0161391 0)
(0 -0.016208 0)
(0 -0.0161944 0)
(0 -0.016123 0)
(0 -0.0159178 0)
(0 -0.0160117 0)
(0 -0.015976 0)
(0 -0.0158674 0)
(0 -0.0154128 0)
(0 -0.0155417 0)
(0 -0.0154688 0)
(0 -0.0153188 0)
(0 -0.0145596 0)
(0 -0.0147207 0)
(0 -0.0148682 0)
(0 -0.0145876 0)
(0 -0.0142738 0)
(0 -0.0132241 0)
(0 -0.0136136 0)
(0 -0.0139519 0)
(0 -0.0131996 0)
(0 -0.0124721 0)
(0 -0.0116233 0)
(0 -0.0123124 0)
(0 -0.0113821 0)
(0 -0.0106914 0)
(0 -0.0103762 0)
(0 -0.0109338 0)
(0 -0.00870016 0)
(0 -0.00645046 0)
(0 -0.00430841 0)
(0 -0.00245462 0)
(0 -0.00104749 0)
(0 -0.000209093 0)
(0 0 0)
(0 0 0)
(0 0 0)
(0 0 0)
(0 0 0)
(0 0 0)
(0 0 0)
(0 0 0)
(0 0 0)
(0 0 0)
(0 0 0)
(0 0 0)
(0 0 0)
(0 0 0)
(0 -0.000314653 0)
(0 -0.00128297 0)
(0 -0.00282332 0)
(0 -0.00480563 0)
(0 -0.00706295 0)
(0 -0.00940562 0)
(0 -0.0116375 0)
(0 -0.011361 0)
(0 -0.0123785 0)
(0 -0.0119061 0)
(0 -0.0128273 0)
(0 -0.0133055 0)
(0 -0.0141237 0)
(0 -0.0137285 0)
(0 -0.0144734 0)
(0 -0.0146574 0)
(0 -0.014978 0)
(0 -0.0147983 0)
(0 -0.0155702 0)
(0 -0.0156552 0)
(0 -0.0157511 0)
(0 -0.0156687 0)
(0 -0.0161618 0)
(0 -0.0162028 0)
(0 -0.0162371 0)
(0 -0.0162008 0)
(0 -0.0163034 0)
(0 -0.0163034 0)
(0 -0.0163034 0)
(0 -0.0163034 0)
(0 -0.0163034 0)
(0 -0.0163034 0)
(0 -0.0163034 0)
(0 -0.0163034 0)
(0 -0.0163034 0)
(0 -0.0163034 0)
(0 -0.0163034 0)
(0 -0.0163034 0)
(0 -0.0163034 0)
(0 -0.0163034 0)
(0 -0.0163034 0)
(0 -0.0163034 0)
(0 -0.0163034 0)
(0 -0.0163034 0)
(0 -0.0163034 0)
(0 -0.0163034 0)
(0 -0.0161618 0)
(0 -0.0162028 0)
(0 -0.0161576 0)
(0 -0.0161148 0)
(0 -0.0155702 0)
(0 -0.0156552 0)
(0 -0.0157278 0)
(0 -0.015506 0)
(0 -0.0153472 0)
(0 -0.014465 0)
(0 -0.0146788 0)
(0 -0.014842 0)
(0 -0.0141042 0)
(0 -0.0137407 0)
(0 -0.0129004 0)
(0 -0.0132889 0)
(0 -0.0123654 0)
(0 -0.0119588 0)
(0 -0.0113513 0)
(0 -0.0116433 0)
(0 -0.00940175 0)
(0 -0.00705172 0)
(0 -0.00479022 0)
(0 -0.00280724 0)
(0 -0.00126967 0)
(0 -0.0003071 0)
(0 0 0)
(0 0 0)
(0 0 0)
(0 0 0)
(0 0 0)
(0 0 0)
(0 0 0)
(0 0 0)
(0 0 0)
(0 0 0)
(0 0 0)
(0 0 0)
(0 0 0)
(0 0 0)
(0 -0.000333603 0)
(0 -0.00132398 0)
(0 -0.00288796 0)
(0 -0.00489414 0)
(0 -0.00717395 0)
(0 -0.00953583 0)
(0 -0.0117814 0)
(0 -0.0117855 0)
(0 -0.012804 0)
(0 -0.0126531 0)
(0 -0.0135732 0)
(0 -0.0137243 0)
(0 -0.014527 0)
(0 -0.0143791 0)
(0 -0.0150807 0)
(0 -0.0151484 0)
(0 -0.0154297 0)
(0 -0.0153686 0)
(0 -0.0160034 0)
(0 -0.0160296 0)
(0 -0.016099 0)
(0 -0.0160749 0)
(0 -0.0163034 0)
(0 -0.0163034 0)
(0 -0.0163034 0)
(0 -0.0163034 0)
(0 -0.0163034 0)
(0 -0.0163034 0)
(0 -0.0163034 0)
(0 -0.0163034 0)
(0 -0.0163034 0)
(0 -0.0163034 0)
(0 -0.0163034 0)
(0 -0.0163034 0)
(0 -0.0163034 0)
(0 -0.0163034 0)
(0 -0.0163034 0)
(0 -0.0163034 0)
(0 -0.0163034 0)
(0 -0.0163027 0)
(0 -0.0163004 0)
(0 -0.0160034 0)
(0 -0.0160296 0)
(0 -0.0160469 0)
(0 -0.0158838 0)
(0 -0.0158263 0)
(0 -0.0150797 0)
(0 -0.0151494 0)
(0 -0.015195 0)
(0 -0.014527 0)
(0 -0.0144 0)
(0 -0.0135894 0)
(0 -0.0136897 0)
(0 -0.0127643 0)
(0 -0.0126641 0)
(0 -0.0117415 0)
(0 -0.011755 0)
(0 -0.00950651 0)
(0 -0.00714417 0)
(0 -0.00486649 0)
(0 -0.00286483 0)
(0 -0.00130739 0)
(0 -0.000325007 0)
(0 0 0)
(0 0 0)
(0 0 0)
(0 0 0)
(0 0 0)
(0 0 0)
(0 0 0)
(0 0 0)
(0 0 0)
(0 0 0)
(0 0 0)
(0 0 0)
(0 0 0)
(0 0 0)
(0 -0.000272631 0)
(0 -0.00119151 0)
(0 -0.00268062 0)
(0 -0.00461294 0)
(0 -0.00682488 0)
(0 -0.00913045 0)
(0 -0.0113377 0)
(0 -0.0116563 0)
(0 -0.0126731 0)
(0 -0.0128007 0)
(0 -0.0137219 0)
(0 -0.0135942 0)
(0 -0.0144006 0)
(0 -0.0145254 0)
(0 -0.0151944 0)
(0 -0.0151586 0)
(0 -0.0154398 0)
(0 -0.0154739 0)
(0 -0.0160754 0)
(0 -0.0160669 0)
(0 -0.016132 0)
(0 -0.0161397 0)
(0 -0.0163034 0)
(0 -0.0163034 0)
(0 -0.0163034 0)
(0 -0.0163034 0)
(0 -0.0163034 0)
(0 -0.0163034 0)
(0 -0.0163034 0)
(0 -0.0163034 0)
(0 -0.0163034 0)
(0 -0.0163034 0)
(0 -0.0163034 0)
(0 -0.0163034 0)
(0 -0.0163034 0)
(0 -0.0163034 0)
(0 -0.0163034 0)
(0 -0.0163034 0)
(0 -0.0160754 0)
(0 -0.01606 0)
(0 -0.0160515 0)
(0 -0.0158889 0)
(0 -0.0159074 0)
(0 -0.0151803 0)
(0 -0.0151575 0)
(0 -0.0150883 0)
(0 -0.0144104 0)
(0 -0.0145076 0)
(0 -0.0137008 0)
(0 -0.0136014 0)
(0 -0.0126774 0)
(0 -0.0127767 0)
(0 -0.0116577 0)
(0 -0.0113665 0)
(0 -0.00915162 0)
(0 -0.0068387 0)
(0 -0.00462056 0)
(0 -0.00268365 0)
(0 -0.00119181 0)
(0 -0.000272036 0)
(0 0 0)
(0 0 0)
(0 0 0)
(0 0 0)
(0 0 0)
(0 0 0)
(0 0 0)
(0 0 0)
(0 0 0)
(0 0 0)
(0 0 0)
(0 0 0)
(0 0 0)
(0 0 0)
(0 -0.000137893 0)
(0 -0.000866131 0)
(0 -0.00215432 0)
(0 -0.00388679 0)
(0 -0.00604286 0)
(0 -0.00824757 0)
(0 -0.0103981 0)
(0 -0.0109684 0)
(0 -0.0119878 0)
(0 -0.0123472 0)
(0 -0.0133267 0)
(0 -0.0129233 0)
(0 -0.013757 0)
(0 -0.0141577 0)
(0 -0.0148634 0)
(0 -0.0146942 0)
(0 -0.015001 0)
(0 -0.0151652 0)
(0 -0.0158539 0)
(0 -0.0158058 0)
(0 -0.0158933 0)
(0 -0.0159446 0)
(0 -0.0162837 0)
(0 -0.016267 0)
(0 -0.0162869 0)
(0 -0.0162973 0)
(0 -0.0163034 0)
(0 -0.0163034 0)
(0 -0.0163034 0)
(0 -0.0163034 0)
(0 -0.0163034 0)
(0 -0.0163034 0)
(0 -0.0163034 0)
(0 -0.0163034 0)
(0 -0.0162837 0)
(0 -0.0162645 0)
(0 -0.016238 0)
(0 -0.0162617 0)
(0 -0.0158539 0)
(0 -0.0158058 0)
(0 -0.0157404 0)
(0 -0.0155331 0)
(0 -0.0156611 0)
(0 -0.0148634 0)
(0 -0.0146942 0)
(0 -0.0145022 0)
(0 -0.013757 0)
(0 -0.0141577 0)
(0 -0.0133019 0)
(0 -0.0129233 0)
(0 -0.0119878 0)
(0 -0.0123796 0)
(0 -0.0109684 0)
(0 -0.0103981 0)
(0 -0.00824757 0)
(0 -0.00596498 0)
(0 -0.00392499 0)
(0 -0.00217938 0)
(0 -0.000879846 0)
(0 -0.000142527 0)
(0 0 0)
(0 0 0)
(0 0 0)
(0 0 0)
(0 0 0)
(0 0 0)
(0 0 0)
(0 0 0)
(0 0 0)
(0 0 0)
(0 0 0)
(0 0 0)
(0 0 0)
(0 0 0)
(0 -1.70622e-05 0)
(0 -0.000506487 0)
(0 -0.00154231 0)
(0 -0.00303282 0)
(0 -0.00484173 0)
(0 -0.00681031 0)
(0 -0.00887602 0)
(0 -0.00965928 0)
(0 -0.0107096 0)
(0 -0.0113983 0)
(0 -0.0123713 0)
(0 -0.0116292 0)
(0 -0.0125501 0)
(0 -0.0132174 0)
(0 -0.0139949 0)
(0 -0.0136831 0)
(0 -0.0140265 0)
(0 -0.0143356 0)
(0 -0.01517 0)
(0 -0.0150312 0)
(0 -0.0151574 0)
(0 -0.0152727 0)
(0 -0.0159074 0)
(0 -0.0158161 0)
(0 -0.0158827 0)
(0 -0.0159705 0)
(0 -0.0162371 0)
(0 -0.016186 0)
(0 -0.0162085 0)
(0 -0.0162551 0)
(0 -0.0163034 0)
(0 -0.0162943 0)
(0 -0.0162979 0)
(0 -0.0163034 0)
(0 -0.0163034 0)
(0 -0.0163034 0)
(0 -0.0163034 0)
(0 -0.0163034 0)
(0 -0.0163034 0)
(0 -0.0163034 0)
(0 -0.0162943 0)
(0 -0.0162894 0)
(0 -0.0163029 0)
(0 -0.0163033 0)
(0 -0.0162371 0)
(0 -0.016186 0)
(0 -0.0161583 0)
(0 -0.0162139 0)
(0 -0.0159074 0)
(0 -0.0158161 0)
(0 -0.0157418 0)
(0 -0.0158364 0)
(0 -0.0151812 0)
(0 -0.0150537 0)
(0 -0.0149006 0)
(0 -0.0146473 0)
(0 -0.0149227 0)
(0 -0.0139565 0)
(0 -0.0136673 0)
(0 -0.0133295 0)
(0 -0.0125329 0)
(0 -0.0132174 0)
(0 -0.0123713 0)
(0 -0.0116292 0)
(0 -0.0107096 0)
(0 -0.0113983 0)
(0 -0.00965928 0)
(0 -0.00887602 0)
(0 -0.00681031 0)
(0 -0.00484173 0)
(0 -0.00303282 0)
(0 -0.00154231 0)
(0 -0.000472452 0)
(0 -2.04948e-05 0)
(0 0 0)
(0 0 0)
(0 0 0)
(0 0 0)
(0 0 0)
(0 0 0)
(0 0 0)
(0 0 0)
(0 0 0)
(0 0 0)
(0 0 0)
(0 0 0)
(0 0 0)
(0 0 0)
(0 0 0)
(0 -0.00015568 0)
(0 -0.000820373 0)
(0 -0.00193015 0)
(0 -0.00336926 0)
(0 -0.00516735 0)
(0 -0.00702646 0)
(0 -0.00790346 0)
(0 -0.00893835 0)
(0 -0.00982332 0)
(0 -0.0107827 0)
(0 -0.00987002 0)
(0 -0.0107411 0)
(0 -0.0116845 0)
(0 -0.012501 0)
(0 -0.0115363 0)
(0 -0.012202 0)
(0 -0.0127547 0)
(0 -0.0132194 0)
(0 -0.0128731 0)
(0 -0.0138372 0)
(0 -0.0133541 0)
(0 -0.0136527 0)
(0 -0.0141104 0)
(0 -0.0147943 0)
(0 -0.0143801 0)
(0 -0.0145458 0)
(0 -0.0149751 0)
(0 -0.0154003 0)
(0 -0.0150333 0)
(0 -0.0151411 0)
(0 -0.015502 0)
(0 -0.0157146 0)
(0 -0.0153759 0)
(0 -0.0154357 0)
(0 -0.0157562 0)
(0 -0.015812 0)
(0 -0.0154992 0)
(0 -0.015483 0)
(0 -0.0157992 0)
(0 -0.0157146 0)
(0 -0.0153759 0)
(0 -0.0152911 0)
(0 -0.0156493 0)
(0 -0.0154003 0)
(0 -0.0150333 0)
(0 -0.0148985 0)
(0 -0.0152721 0)
(0 -0.0147943 0)
(0 -0.0143801 0)
(0 -0.014166 0)
(0 -0.0145847 0)
(0 -0.0138372 0)
(0 -0.0133541 0)
(0 -0.0130737 0)
(0 -0.0135388 0)
(0 -0.012501 0)
(0 -0.0115363 0)
(0 -0.0107411 0)
(0 -0.0116845 0)
(0 -0.0107827 0)
(0 -0.00987002 0)
(0 -0.00893835 0)
(0 -0.00982332 0)
(0 -0.00790346 0)
(0 -0.00702646 0)
(0 -0.00516735 0)
(0 -0.00336926 0)
(0 -0.00193015 0)
(0 -0.000820373 0)
(0 -0.00015568 0)
(0 0 0)
(0 0 0)
(0 0 0)
(0 0 0)
(0 0 0)
(0 0 0)
(0 0 0)
(0 0 0)
(0 0 0)
(0 0 0)
(0 0 0)
(0 0 0)
(0 0 0)
(0 0 0)
(0 0 0)
(0 0 0)
(0 0 0)
(0 -0.000234602 0)
(0 -0.000968731 0)
(0 -0.00207669 0)
(0 -0.00345076 0)
(0 -0.00495583 0)
(0 -0.00644156 0)
(0 -0.00759452 0)
(0 -0.00882052 0)
(0 -0.0079409 0)
(0 -0.00841962 0)
(0 -0.00964848 0)
(0 -0.0103788 0)
(0 -0.00919274 0)
(0 -0.00989985 0)
(0 -0.0111241 0)
(0 -0.0117824 0)
(0 -0.0111732 0)
(0 -0.0114083 0)
(0 -0.012076 0)
(0 -0.0128252 0)
(0 -0.0122262 0)
(0 -0.0124485 0)
(0 -0.0130492 0)
(0 -0.0135596 0)
(0 -0.0129572 0)
(0 -0.0130565 0)
(0 -0.0136755 0)
(0 -0.014 0)
(0 -0.0134215 0)
(0 -0.0134891 0)
(0 -0.014067 0)
(0 -0.0141458 0)
(0 -0.0135709 0)
(0 -0.0135431 0)
(0 -0.0141205 0)
(0 -0.014 0)
(0 -0.0134215 0)
(0 -0.0133269 0)
(0 -0.013906 0)
(0 -0.0135596 0)
(0 -0.0129572 0)
(0 -0.0128143 0)
(0 -0.0134165 0)
(0 -0.0128252 0)
(0 -0.0122262 0)
(0 -0.0119783 0)
(0 -0.0125748 0)
(0 -0.0117824 0)
(0 -0.0111732 0)
(0 -0.0104691 0)
(0 -0.00989985 0)
(0 -0.0111241 0)
(0 -0.0103788 0)
(0 -0.00919274 0)
(0 -0.00841962 0)
(0 -0.00964848 0)
(0 -0.00882052 0)
(0 -0.00759452 0)
(0 -0.00644156 0)
(0 -0.00495583 0)
(0 -0.0079409 0)
(0 -0.00345076 0)
(0 -0.00207669 0)
(0 -0.000968731 0)
(0 -0.000234602 0)
(0 0 0)
(0 0 0)
(0 0 0)
(0 0 0)
(0 0 0)
(0 0 0)
(0 0 0)
(0 0 0)
(0 0 0)
(0 0 0)
(0 0 0)
(0 0 0)
(0 0 0)
(0 0 0)
(0 0 0)
(0 0 0)
(0 0 0)
(0 0 0)
(0 -2.97506e-06 0)
(0 -0.000266516 0)
(0 -0.000903137 0)
(0 -0.00176983 0)
(0 -0.00289682 0)
(0 -0.00409876 0)
(0 -0.00526086 0)
(0 -0.00593927 0)
(0 -0.00719849 0)
(0 -0.00791241 0)
(0 -0.00651113 0)
(0 -0.00715632 0)
(0 -0.00850066 0)
(0 -0.00914564 0)
(0 -0.00845256 0)
(0 -0.00873625 0)
(0 -0.00944057 0)
(0 -0.0102009 0)
(0 -0.0094695 0)
(0 -0.0096713 0)
(0 -0.0104096 0)
(0 -0.0108824 0)
(0 -0.0101501 0)
(0 -0.0103131 0)
(0 -0.0110502 0)
(0 -0.0114018 0)
(0 -0.0106554 0)
(0 -0.0107192 0)
(0 -0.0114674 0)
(0 -0.0115537 0)
(0 -0.0108056 0)
(0 -0.0107705 0)
(0 -0.0115199 0)
(0 -0.0114018 0)
(0 -0.0106554 0)
(0 -0.0105662 0)
(0 -0.0113103 0)
(0 -0.0108824 0)
(0 -0.0101501 0)
(0 -0.00996341 0)
(0 -0.0107554 0)
(0 -0.0102009 0)
(0 -0.0094695 0)
(0 -0.00924578 0)
(0 -0.00996921 0)
(0 -0.00914564 0)
(0 -0.00845256 0)
(0 -0.00774695 0)
(0 -0.00715632 0)
(0 -0.00850066 0)
(0 -0.00791241 0)
(0 -0.00651113 0)
(0 -0.00593927 0)
(0 -0.00719849 0)
(0 -0.00526086 0)
(0 -0.00409876 0)
(0 -0.00289682 0)
(0 -0.00176983 0)
(0 -0.000903137 0)
(0 -0.000266516 0)
(0 -2.97506e-06 0)
(0 0 0)
(0 0 0)
(0 0 0)
(0 0 0)
(0 0 0)
(0 0 0)
(0 0 0)
(0 0 0)
(0 0 0)
(0 0 0)
(0 0 0)
(0 0 0)
(0 0 0)
(0 0 0)
(0 0 0)
(0 0 0)
(0 0 0)
(0 0 0)
(0 0 0)
(0 0 0)
(0 -0.000139965 0)
(0 -0.00058295 0)
(0 -0.00118094 0)
(0 -0.00198849 0)
(0 -0.00294028 0)
(0 -0.00346707 0)
(0 -0.00461985 0)
(0 -0.00522485 0)
(0 -0.00398332 0)
(0 -0.00447603 0)
(0 -0.00579731 0)
(0 -0.00632469 0)
(0 -0.00562169 0)
(0 -0.00584962 0)
(0 -0.00656795 0)
(0 -0.00720132 0)
(0 -0.0064446 0)
(0 -0.00655318 0)
(0 -0.00729916 0)
(0 -0.0078499 0)
(0 -0.00707323 0)
(0 -0.00720926 0)
(0 -0.00799369 0)
(0 -0.00829672 0)
(0 -0.00749628 0)
(0 -0.0075501 0)
(0 -0.00835349 0)
(0 -0.0084362 0)
(0 -0.00763039 0)
(0 -0.00759331 0)
(0 -0.00839906 0)
(0 -0.00829672 0)
(0 -0.00749628 0)
(0 -0.00742129 0)
(0 -0.00821759 0)
(0 -0.0078499 0)
(0 -0.00707323 0)
(0 -0.00691801 0)
(0 -0.0076857 0)
(0 -0.00720132 0)
(0 -0.0064446 0)
(0 -0.00626217 0)
(0 -0.00700735 0)
(0 -0.00632469 0)
(0 -0.00562169 0)
(0 -0.00493326 0)
(0 -0.00447603 0)
(0 -0.00579731 0)
(0 -0.00522485 0)
(0 -0.00398332 0)
(0 -0.00346707 0)
(0 -0.00461985 0)
(0 -0.00294028 0)
(0 -0.00198849 0)
(0 -0.00118094 0)
(0 -0.00058295 0)
(0 -0.000139965 0)
(0 0 0)
(0 0 0)
(0 0 0)
(0 0 0)
(0 0 0)
(0 0 0)
(0 0 0)
(0 0 0)
(0 0 0)
(0 0 0)
(0 0 0)
(0 0 0)
(0 0 0)
(0 0 0)
(0 0 0)
(0 0 0)
(0 0 0)
(0 0 0)
(0 0 0)
(0 0 0)
(0 0 0)
(0 0 0)
(0 0 0)
(0 -1.19191e-05 0)
(0 -0.000202177 0)
(0 -0.000564247 0)
(0 -0.00118367 0)
(0 -0.00150592 0)
(0 -0.00241393 0)
(0 -0.00283678 0)
(0 -0.00183315 0)
(0 -0.00215427 0)
(0 -0.00324496 0)
(0 -0.00362724 0)
(0 -0.00302276 0)
(0 -0.00318356 0)
(0 -0.00380545 0)
(0 -0.00423469 0)
(0 -0.00358394 0)
(0 -0.00373481 0)
(0 -0.00440047 0)
(0 -0.00481822 0)
(0 -0.00411606 0)
(0 -0.00421664 0)
(0 -0.00492816 0)
(0 -0.005161 0)
(0 -0.00442995 0)
(0 -0.00447011 0)
(0 -0.00520479 0)
(0 -0.00527472 0)
(0 -0.00453567 0)
(0 -0.0045024 0)
(0 -0.00523998 0)
(0 -0.005161 0)
(0 -0.00442995 0)
(0 -0.00437407 0)
(0 -0.00510005 0)
(0 -0.00481822 0)
(0 -0.00411606 0)
(0 -0.00400174 0)
(0 -0.00469312 0)
(0 -0.00423469 0)
(0 -0.00358394 0)
(0 -0.00342276 0)
(0 -0.00405726 0)
(0 -0.00362724 0)
(0 -0.00302276 0)
(0 -0.00245894 0)
(0 -0.00215427 0)
(0 -0.00324496 0)
(0 -0.00283678 0)
(0 -0.00183315 0)
(0 -0.00150592 0)
(0 -0.00241393 0)
(0 -0.00118367 0)
(0 -0.000564247 0)
(0 -0.000202177 0)
(0 -1.19191e-05 0)
(0 0 0)
(0 0 0)
(0 0 0)
(0 0 0)
(0 0 0)
(0 0 0)
(0 0 0)
(0 0 0)
(0 0 0)
(0 0 0)
(0 0 0)
(0 0 0)
(0 0 0)
(0 0 0)
(0 0 0)
(0 0 0)
(0 0 0)
(0 0 0)
(0 0 0)
(0 0 0)
(0 0 0)
(0 0 0)
(0 0 0)
(0 0 0)
(0 0 0)
(0 0 0)
(0 -2.16059e-06 0)
(0 -0.000162324 0)
(0 -0.000282739 0)
(0 -0.000784005 0)
(0 -0.00101578 0)
(0 -0.000421596 0)
(0 -0.000570089 0)
(0 -0.00124962 0)
(0 -0.00147612 0)
(0 -0.0010161 0)
(0 -0.00112012 0)
(0 -0.00153189 0)
(0 -0.0018809 0)
(0 -0.00141554 0)
(0 -0.00150521 0)
(0 -0.0019859 0)
(0 -0.00225439 0)
(0 -0.00173594 0)
(0 -0.00179772 0)
(0 -0.00232593 0)
(0 -0.00247857 0)
(0 -0.00192995 0)
(0 -0.00195503 0)
(0 -0.00250745 0)
(0 -0.00255767 0)
(0 -0.00199954 0)
(0 -0.00197522 0)
(0 -0.00253069 0)
(0 -0.00247857 0)
(0 -0.00192995 0)
(0 -0.00189516 0)
(0 -0.00243847 0)
(0 -0.00225439 0)
(0 -0.00173594 0)
(0 -0.00166616 0)
(0 -0.00217342 0)
(0 -0.0018809 0)
(0 -0.00141554 0)
(0 -0.00132084 0)
(0 -0.00176959 0)
(0 -0.00147612 0)
(0 -0.0010161 0)
(0 -0.000683283 0)
(0 -0.000570089 0)
(0 -0.00124962 0)
(0 -0.00101578 0)
(0 -0.000421596 0)
(0 -0.000282739 0)
(0 -0.000784005 0)
(0 -0.000162324 0)
(0 -2.16059e-06 0)
(0 0 0)
(0 0 0)
(0 0 0)
(0 0 0)
(0 0 0)
(0 0 0)
(0 0 0)
(0 0 0)
(0 0 0)
(0 0 0)
(0 0 0)
(0 0 0)
(0 0 0)
(0 0 0)
(0 0 0)
(0 0 0)
(0 0 0)
(0 0 0)
(0 0 0)
(0 0 0)
(0 0 0)
(0 0 0)
(0 0 0)
(0 0 0)
(0 0 0)
(0 0 0)
(0 0 0)
(0 0 0)
(0 0 0)
(0 0 0)
(0 0 0)
(0 -7.935e-05 0)
(0 -2.87e-05 0)
(0 0 0)
(0 -0.000124777 0)
(0 -0.000208457 0)
(0 -6.38188e-06 0)
(0 -2.78949e-05 0)
(0 -0.000300403 0)
(0 -0.000393571 0)
(0 -5.88201e-05 0)
(0 -9.36585e-05 0)
(0 -0.000481606 0)
(0 -0.000558986 0)
(0 -0.000127609 0)
(0 -0.000156687 0)
(0 -0.000621145 0)
(0 -0.000664575 0)
(0 -0.000177819 0)
(0 -0.000188915 0)
(0 -0.000686894 0)
(0 -0.000704752 0)
(0 -0.000198394 0)
(0 -0.000188915 0)
(0 -0.000686894 0)
(0 -0.000664575 0)
(0 -0.000177819 0)
(0 -0.000156687 0)
(0 -0.000621145 0)
(0 -0.000558986 0)
(0 -0.000127609 0)
(0 -9.36585e-05 0)
(0 -0.000481606 0)
(0 -0.000393571 0)
(0 -5.88201e-05 0)
(0 -2.78949e-05 0)
(0 -0.000300403 0)
(0 -0.000208457 0)
(0 -6.38188e-06 0)
(0 0 0)
(0 -0.000124777 0)
(0 -7.935e-05 0)
(0 0 0)
(0 0 0)
(0 0 0)
(0 -2.87e-05 0)
(0 0 0)
(0 0 0)
(0 0 0)
(0 0 0)
(0 0 0)
(0 0 0)
(0 0 0)
(0 0 0)
(0 0 0)
(0 0 0)
(0 0 0)
(0 0 0)
(0 0 0)
(0 0 0)
(0 0 0)
(0 0 0)
(0 0 0)
(0 0 0)
(0 0 0)
(0 0 0)
(0 0 0)
(0 0 0)
(0 0 0)
(0 0 0)
(0 0 0)
(0 0 0)
(0 0 0)
(0 0 0)
(0 0 0)
(0 0 0)
(0 0 0)
(0 0 0)
(0 0 0)
(0 0 0)
(0 0 0)
(0 0 0)
(0 0 0)
(0 0 0)
(0 0 0)
(0 0 0)
(0 -5.73534e-07 0)
(0 0 0)
(0 0 0)
(0 -2.20715e-06 0)
(0 -1.31322e-06 0)
(0 0 0)
(0 -5.73534e-07 0)
(0 -1.31322e-06 0)
(0 0 0)
(0 0 0)
(0 0 0)
(0 0 0)
(0 0 0)
(0 0 0)
(0 0 0)
(0 0 0)
(0 0 0)
(0 0 0)
(0 0 0)
(0 0 0)
(0 0 0)
(0 0 0)
(0 0 0)
(0 0 0)
(0 0 0)
(0 0 0)
(0 0 0)
(0 0 0)
(0 0 0)
(0 0 0)
(0 0 0)
(0 0 0)
(0 0 0)
(0 0 0)
(0 0 0)
(0 0 0)
(0 0 0)
(0 0 0)
(0 0 0)
(0 0 0)
(0 0 0)
(0 0 0)
(0 0 0)
(0 0 0)
(0 0 0)
(0 0 0)
(0 0 0)
(0 0 0)
(0 0 0)
(0 0 0)
(0 0 0)
(0 0 0)
(0 0 0)
(0 0 0)
(0 0 0)
(0 0 0)
(0 0 0)
(0 0 0)
(0 0 0)
(0 0 0)
(0 0 0)
(0 0 0)
(0 0 0)
(0 0 0)
(0 0 0)
(0 0 0)
(0 0 0)
(0 0 0)
(0 0 0)
(0 0 0)
(0 0 0)
(0 0 0)
(0 0 0)
(0 0 0)
(0 0 0)
(0 0 0)
(0 0 0)
(0 0 0)
(0 0 0)
(0 0 0)
(0 0 0)
(0 0 0)
(0 0 0)
(0 0 0)
(0 0 0)
(0 0 0)
(0 0 0)
(0 0 0)
(0 0 0)
(0 0 0)
(0 0 0)
(0 0 0)
(0 0 0)
(0 0 0)
(0 0 0)
(0 0 0)
(0 0 0)
(0 0 0)
(0 0 0)
(0 0 0)
(0 0 0)
(0 0 0)
(0 0 0)
(0 0 0)
(0 0 0)
(0 0 0)
(0 0 0)
(0 0 0)
(0 0 0)
(0 0 0)
(0 0 0)
(0 0 0)
(0 0 0)
(0 0 0)
(0 0 0)
(0 0 0)
(0 0 0)
(0 0 0)
(0 0 0)
(0 0 0)
(0 0 0)
(0 0 0)
(0 0 0)
(0 0 0)
(0 0 0)
(0 0 0)
(0 0 0)
(0 0 0)
(0 0 0)
(0 0 0)
(0 0 0)
(0 0 0)
(0 0 0)
(0 0 0)
(0 0 0)
(0 0 0)
(0 0 0)
(0 0 0)
(0 0 0)
(0 0 0)
(0 0 0)
(0 0 0)
(0 0 0)
(0 0 0)
(0 0 0)
(0 0 0)
(0 0 0)
(0 0 0)
(0 0 0)
(0 0 0)
(0 0 0)
(0 0 0)
(0 0 0)
(0 0 0)
(0 0 0)
(0 0 0)
(0 0 0)
(0 0 0)
(0 0 0)
(0 0 0)
(0 0 0)
(0 0 0)
(0 0 0)
(0 0 0)
(0 0 0)
(0 0 0)
(0 0 0)
(0 0 0)
(0 0 0)
(0 0 0)
(0 0 0)
(0 0 0)
(0 0 0)
(0 0 0)
(0 0 0)
(0 0 0)
(0 0 0)
(0 0 0)
(0 0 0)
(0 0 0)
(0 0 0)
(0 0 0)
(0 0 0)
(0 0 0)
(0 0 0)
(0 0 0)
(0 0 0)
(0 0 0)
(0 0 0)
(0 0 0)
(0 0 0)
(0 0 0)
(0 0 0)
(0 0 0)
(0 0 0)
(0 0 0)
(0 0 0)
(0 0 0)
(0 0 0)
(0 0 0)
(0 0 0)
(0 0 0)
(0 0 0)
(0 0 0)
(0 0 0)
(0 0 0)
(0 0 0)
(0 0 0)
(0 0 0)
(0 0 0)
(0 0 0)
(0 0 0)
(0 0 0)
(0 0 0)
(0 0 0)
(0 0 0)
(0 0 0)
(0 0 0)
(0 0 0)
(0 0 0)
(0 0 0)
(0 0 0)
(0 0 0)
(0 0 0)
(0 0 0)
(0 0 0)
(0 0 0)
(0 0 0)
(0 0 0)
(0 0 0)
(0 0 0)
(0 0 0)
(0 0 0)
(0 0 0)
(0 0 0)
(0 0 0)
(0 0 0)
(0 0 0)
(0 0 0)
(0 0 0)
(0 0 0)
(0 0 0)
(0 0 0)
(0 0 0)
(0 0 0)
(0 0 0)
(0 0 0)
(0 0 0)
(0 0 0)
(0 0 0)
(0 0 0)
(0 0 0)
(0 0 0)
(0 0 0)
(0 0 0)
(0 0 0)
(0 0 0)
(0 0 0)
(0 0 0)
(0 0 0)
(0 0 0)
(0 0 0)
(0 0 0)
(0 0 0)
(0 0 0)
(0 0 0)
(0 0 0)
(0 0 0)
(0 0 0)
(0 0 0)
(0 0 0)
(0 0 0)
(0 0 0)
(0 0 0)
(0 0 0)
(0 0 0)
(0 0 0)
(0 0 0)
(0 0 0)
(0 0 0)
(0 0 0)
(0 0 0)
(0 0 0)
(0 0 0)
(0 0 0)
(0 0 0)
(0 0 0)
(0 0 0)
(0 0 0)
(0 0 0)
(0 0 0)
(0 0 0)
(0 0 0)
(0 0 0)
(0 0 0)
(0 0 0)
(0 0 0)
(0 0 0)
(0 0 0)
(0 0 0)
(0 0 0)
(0 0 0)
(0 0 0)
(0 0 0)
(0 0 0)
(0 0 0)
(0 0 0)
(0 0 0)
(0 0 0)
(0 0 0)
(0 0 0)
(0 0 0)
(0 0 0)
(0 0 0)
(0 0 0)
(0 0 0)
(0 0 0)
(0 0 0)
(0 0 0)
(0 0 0)
(0 0 0)
(0 0 0)
(0 0 0)
(0 0 0)
(0 0 0)
(0 0 0)
(0 0 0)
(0 0 0)
(0 0 0)
(0 0 0)
(0 0 0)
(0 0 0)
(0 0 0)
(0 0 0)
(0 0 0)
(0 0 0)
(0 0 0)
(0 0 0)
(0 0 0)
(0 0 0)
(0 0 0)
(0 0 0)
(0 0 0)
(0 0 0)
(0 0 0)
(0 0 0)
(0 0 0)
(0 0 0)
(0 0 0)
(0 0 0)
(0 0 0)
(0 0 0)
(0 0 0)
(0 0 0)
(0 0 0)
(0 0 0)
(0 0 0)
(0 0 0)
(0 0 0)
(0 0 0)
(0 0 0)
(0 0 0)
(0 0 0)
(0 0 0)
(0 0 0)
(0 0 0)
(0 0 0)
(0 0 0)
(0 0 0)
(0 0 0)
(0 0 0)
(0 0 0)
(0 0 0)
(0 0 0)
(0 0 0)
(0 0 0)
(0 0 0)
(0 0 0)
(0 0 0)
(0 0 0)
(0 0 0)
(0 0 0)
(0 0 0)
(0 0 0)
(0 0 0)
(0 0 0)
(0 0 0)
(0 0 0)
(0 0 0)
(0 0 0)
(0 0 0)
(0 0 0)
(0 0 0)
(0 0 0)
(0 0 0)
(0 0 0)
(0 0 0)
(0 0 0)
(0 0 0)
(0 0 0)
(0 0 0)
(0 0 0)
(0 0 0)
(0 0 0)
(0 0 0)
(0 0 0)
(0 0 0)
(0 0 0)
(0 0 0)
(0 0 0)
(0 0 0)
(0 0 0)
(0 0 0)
(0 0 0)
(0 0 0)
(0 0 0)
(0 0 0)
(0 0 0)
(0 0 0)
(0 0 0)
(0 0 0)
(0 0 0)
(0 0 0)
(0 0 0)
(0 0 0)
(0 0 0)
(0 0 0)
(0 0 0)
(0 0 0)
(0 0 0)
(0 0 0)
(0 0 0)
(0 0 0)
(0 0 0)
(0 0 0)
(0 0 0)
(0 0 0)
(0 0 0)
(0 0 0)
(0 0 0)
(0 0 0)
(0 0 0)
(0 0 0)
(0 0 0)
(0 0 0)
(0 0 0)
(0 0 0)
(0 0 0)
(0 0 0)
(0 0 0)
(0 0 0)
(0 0 0)
(0 0 0)
(0 0 0)
(0 0 0)
(0 0 0)
(0 0 0)
(0 0 0)
(0 0 0)
(0 0 0)
(0 0 0)
(0 0 0)
(0 0 0)
(0 0 0)
(0 0 0)
(0 0 0)
(0 0 0)
(0 0 0)
(0 0 0)
(0 0 0)
(0 0 0)
(0 0 0)
(0 0 0)
(0 0 0)
(0 0 0)
(0 0 0)
(0 0 0)
(0 0 0)
(0 0 0)
(0 0 0)
(0 0 0)
(0 0 0)
(0 0 0)
(0 0 0)
(0 0 0)
(0 0 0)
(0 0 0)
(0 0 0)
(0 0 0)
(0 0 0)
(0 0 0)
(0 0 0)
(0 0 0)
(0 0 0)
(0 0 0)
(0 0 0)
(0 0 0)
(0 0 0)
(0 0 0)
(0 0 0)
(0 0 0)
(0 0 0)
(0 0 0)
(0 0 0)
(0 0 0)
(0 0 0)
(0 0 0)
(0 0 0)
(0 0 0)
(0 0 0)
(0 0 0)
(0 0 0)
(0 0 0)
(0 0 0)
(0 0 0)
(0 0 0)
(0 0 0)
(0 0 0)
(0 0 0)
(0 0 0)
(0 0 0)
(0 0 0)
(0 0 0)
(0 0 0)
(0 0 0)
(0 0 0)
(0 0 0)
(0 0 0)
(0 0 0)
(0 0 0)
(0 0 0)
(0 0 0)
(0 0 0)
(0 0 0)
(0 0 0)
(0 0 0)
(0 0 0)
(0 0 0)
(0 0 0)
(0 0 0)
(0 0 0)
(0 0 0)
(0 0 0)
(0 0 0)
(0 0 0)
(0 0 0)
(0 0 0)
(0 0 0)
(0 0 0)
(0 0 0)
(0 0 0)
(0 0 0)
(0 0 0)
(0 0 0)
(0 0 0)
(0 0 0)
(0 0 0)
(0 0 0)
(0 0 0)
(0 0 0)
(0 0 0)
(0 0 0)
(0 0 0)
(0 0 0)
(0 0 0)
(0 0 0)
(0 0 0)
(0 0 0)
(0 0 0)
(0 0 0)
(0 0 0)
(0 0 0)
(0 0 0)
(0 0 0)
(0 0 0)
(0 0 0)
(0 0 0)
(0 0 0)
(0 0 0)
(0 0 0)
(0 0 0)
(0 0 0)
(0 0 0)
(0 0 0)
(0 0 0)
(0 0 0)
(0 0 0)
(0 0 0)
(0 0 0)
(0 0 0)
(0 0 0)
(0 0 0)
(0 0 0)
(0 0 0)
(0 0 0)
(0 0 0)
(0 0 0)
(0 0 0)
(0 0 0)
(0 0 0)
(0 0 0)
(0 0 0)
(0 0 0)
(0 0 0)
(0 0 0)
(0 0 0)
(0 0 0)
(0 0 0)
(0 0 0)
(0 0 0)
(0 0 0)
(0 0 0)
(0 0 0)
(0 0 0)
(0 0 0)
(0 0 0)
(0 0 0)
(0 0 0)
(0 0 0)
(0 0 0)
(0 0 0)
(0 0 0)
(0 0 0)
(0 0 0)
(0 0 0)
(0 0 0)
(0 0 0)
(0 0 0)
(0 0 0)
(0 0 0)
(0 0 0)
(0 0 0)
(0 0 0)
(0 0 0)
(0 0 0)
(0 0 0)
(0 0 0)
(0 0 0)
(0 0 0)
(0 0 0)
(0 0 0)
(0 0 0)
(0 0 0)
(0 0 0)
(0 0 0)
(0 0 0)
(0 0 0)
(0 0 0)
(0 0 0)
(0 0 0)
(0 0 0)
(0 0 0)
(0 0 0)
(0 0 0)
(0 0 0)
(0 0 0)
(0 0 0)
(0 0 0)
(0 0 0)
(0 0 0)
(0 0 0)
(0 0 0)
(0 0 0)
(0 0 0)
(0 0 0)
(0 0 0)
(0 0 0)
(0 0 0)
(0 0 0)
(0 0 0)
(0 0 0)
(0 0 0)
(0 0 0)
(0 0 0)
(0 0 0)
(0 0 0)
(0 0 0)
(0 0 0)
(0 0 0)
(0 0 0)
(0 0 0)
(0 0 0)
(0 0 0)
(0 0 0)
(0 0 0)
(0 0 0)
(0 0 0)
(0 0 0)
(0 0 0)
(0 0 0)
(0 0 0)
(0 0 0)
(0 0 0)
(0 0 0)
(0 0 0)
(0 0 0)
(0 0 0)
(0 0 0)
(0 0 0)
(0 0 0)
(0 0 0)
(0 0 0)
(0 0 0)
(0 0 0)
(0 0 0)
(0 0 0)
(0 0 0)
(0 0 0)
(0 0 0)
(0 0 0)
(0 0 0)
(0 0 0)
(0 0 0)
(0 0 0)
(0 0 0)
(0 0 0)
(0 0 0)
(0 0 0)
(0 0 0)
(0 0 0)
(0 0 0)
(0 0 0)
(0 0 0)
(0 0 0)
(0 0 0)
(0 0 0)
(0 0 0)
(0 0 0)
(0 0 0)
(0 0 0)
(0 0 0)
(0 0 0)
(0 0 0)
(0 0 0)
(0 0 0)
(0 0 0)
(0 0 0)
(0 0 0)
(0 0 0)
(0 0 0)
(0 0 0)
(0 0 0)
(0 0 0)
(0 0 0)
(0 0 0)
(0 0 0)
(0 0 0)
(0 0 0)
(0 0 0)
(0 0 0)
(0 0 0)
(0 0 0)
(0 0 0)
(0 0 0)
(0 0 0)
(0 0 0)
(0 0 0)
(0 0 0)
(0 0 0)
(0 0 0)
(0 0 0)
(0 0 0)
(0 0 0)
(0 0 0)
(0 0 0)
(0 0 0)
(0 0 0)
(0 0 0)
(0 0 0)
(0 0 0)
(0 0 0)
(0 0 0)
(0 0 0)
(0 0 0)
(0 0 0)
(0 0 0)
(0 0 0)
(0 0 0)
(0 0 0)
(0 0 0)
(0 0 0)