/*--------------------------------*- C++ -*----------------------------------*\
| =========                 |                                                 |
| \\      /  F ield         | OpenFOAM: The Open Source CFD Toolbox           |
|  \\    /   O peration     | Version:  v2106                                 |
|   \\  /    A nd           | Website:  www.openfoam.com                      |
|    \\/     M anipulation  |                                                 |
\*---------------------------------------------------------------------------*/
FoamFile
{
    version     2.0;
    format      ascii;
    arch        "LSB;label=32;scalar=64";
    class       volScalarField;
    location    "0";
    object      p;
}
// * * * * * * * * * * * * * * * * * * * * * * * * * * * * * * * * * * * * * //

dimensions      [0 2 -2 0 0 0 0];

internalField   nonuniform List<scalar> 
11644
(
0.0777345
0.0781094
0.0787327
0.079537
0.0806699
0.0821179
0.0838058
0.0856113
0.0873625
0.0888484
0.0897856
0.089892
0.0889215
0.086665
0.0829462
0.0778388
0.0726969
0.0676366
0.0617901
0.0566383
0.0535726
0.0527439
0.0524081
0.0510348
0.0502581
0.0502538
0.0494089
0.04776
0.0457091
0.0431145
0.0402258
0.0372414
0.0343077
0.0315665
0.0290962
0.0269795
0.0253123
0.0240467
0.0231291
0.0226036
0.0761121
0.0764386
0.0771625
0.0782521
0.0796093
0.0811829
0.0830033
0.0849858
0.0869512
0.0886747
0.0899463
0.0904708
0.0897281
0.0881556
0.0849974
0.0808494
0.0765052
0.0706552
0.0629944
0.0563919
0.0534534
0.053809
0.0548696
0.0544519
0.0529026
0.0513409
0.0500291
0.0480487
0.0453116
0.0423443
0.0392619
0.0361296
0.0331252
0.0303121
0.02777
0.0255958
0.0237519
0.0222824
0.0212552
0.0207517
0.0757116
0.075791
0.076197
0.0770433
0.0782379
0.0797487
0.0814973
0.0834406
0.0854703
0.0874707
0.0891543
0.0902862
0.0908002
0.0899023
0.0881411
0.0846866
0.078554
0.0704169
0.0631923
0.0580477
0.0539676
0.051043
0.0508747
0.0525859
0.0532965
0.0518509
0.0491581
0.0465158
0.0434802
0.040077
0.0366893
0.0334586
0.0304178
0.0276941
0.0252861
0.0232517
0.0215824
0.0203546
0.019652
0.0194419
0.0758005
0.0757796
0.0759298
0.0762797
0.0769329
0.0779363
0.079273
0.0809134
0.0828409
0.0849515
0.0872817
0.0897766
0.0915847
0.0935675
0.0933879
0.0896778
0.0827529
0.0744197
0.0679607
0.0620315
0.0565918
0.0518041
0.0489954
0.048997
0.049655
0.048691
0.0463044
0.0426231
0.0389896
0.0354931
0.0319347
0.0287389
0.0259878
0.0236232
0.0216975
0.0201682
0.0190741
0.0184075
0.0180906
0.0180084
0.0762163
0.0761478
0.0760655
0.0759893
0.0759737
0.0761822
0.0767575
0.0777812
0.0793949
0.0817157
0.0850015
0.0887992
0.0930983
0.0951278
0.0955966
0.092867
0.0861284
0.0818146
0.0780036
0.0714269
0.0645227
0.0579059
0.0508763
0.0460069
0.0449508
0.0423587
0.0384661
0.0348942
0.0307636
0.0274427
0.0247357
0.022123
0.0200054
0.0184864
0.0174502
0.0168175
0.016508
0.0163956
0.0163714
0.0163577
0.077181
0.07711
0.0768453
0.0764537
0.0759032
0.0753499
0.074953
0.0750049
0.0759886
0.0781089
0.0811989
0.0854959
0.0895107
0.0968318
0.102044
0.10256
0.0976602
0.100182
0.0976604
0.0890585
0.0788596
0.0697388
0.0586125
0.0465917
0.0392699
0.0346793
0.0298731
0.0230124
0.0194534
0.0164605
0.0148524
0.0139491
0.0133136
0.0130861
0.0132961
0.0137709
0.0143195
0.0147614
0.0150434
0.0151877
0.0794988
0.0791719
0.0787292
0.0779462
0.0770467
0.0759553
0.0747837
0.0738215
0.0736018
0.0742622
0.0765238
0.08001
0.0870728
0.091794
0.0997321
0.114358
0.121836
0.111549
0.106218
0.0985862
0.08962
0.0741713
0.058591
0.0433955
0.0270002
0.0177253
0.0108136
0.00717959
0.0050127
0.00373919
0.00382948
0.00509962
0.00696286
0.00861679
0.0102578
0.0117887
0.0130397
0.0140315
0.0146259
0.0149544
0.0828118
0.0827056
0.0821624
0.081413
0.0802835
0.0788525
0.0771794
0.0754729
0.0740003
0.0730926
0.0742076
0.0778251
0.0778716
0.0934156
0.101957
0.108808
0.121488
0.123681
0.117299
0.10559
0.0898965
0.0695872
0.0495404
0.0354872
0.0160422
-0.000512026
-0.00133634
-0.0139248
-0.00871085
-0.00724102
-0.00435751
-0.00106347
0.00294155
0.00662625
0.0094724
0.0118402
0.0136476
0.0148854
0.0157456
0.0161253
0.0881611
0.0878961
0.0873576
0.0866807
0.0855191
0.0841168
0.0822775
0.0805154
0.0786458
0.0772276
0.0769624
0.0789692
0.0832222
0.0983523
0.106827
0.116661
0.126607
0.143049
0.141041
0.130249
0.11012
0.0759252
0.0424876
0.026919
-1.28508e-05
-0.0105768
-0.0133826
-0.0239367
-0.0189577
-0.0139005
-0.00743935
-0.00180343
0.00332535
0.00810039
0.0116441
0.0143537
0.0165301
0.0180555
0.0190887
0.0194686
0.094971
0.0945108
0.0942589
0.0934759
0.0927038
0.0916695
0.0903375
0.0892319
0.0877115
0.0862439
0.0859086
0.0877924
0.0893074
0.103336
0.108166
0.130885
0.143195
0.160879
0.173212
0.163728
0.123427
0.069866
0.026605
-0.000272901
-0.0151471
-0.0266749
-0.0214428
-0.026261
-0.0186072
-0.011705
-0.00392352
0.00308984
0.00860644
0.0135008
0.0171169
0.019694
0.0217019
0.0233282
0.0242083
0.0250487
0.100784
0.101233
0.101347
0.101481
0.101533
0.101112
0.100759
0.100334
0.0992584
0.0979923
0.0958497
0.0973878
0.0950403
0.105008
0.115486
0.128845
0.152663
0.184811
0.224205
0.241923
0.158828
0.0321306
-0.0177188
-0.0281406
-0.0295084
-0.0304558
-0.0212063
-0.0195411
-0.00851811
-0.00204035
0.0057235
0.012601
0.0179868
0.022378
0.0254407
0.0277067
0.0293597
0.0304379
0.0311949
0.031164
0.107779
0.108228
0.10837
0.109064
0.109749
0.11047
0.111233
0.111537
0.110577
0.109824
0.107123
0.10624
0.105029
0.0953996
0.105587
0.112819
0.132644
0.161793
0.191344
-0.0632203
-0.0323795
-0.0223691
-0.0134181
-0.0139004
0.00453271
0.00878186
0.0137028
0.0195139
0.0246981
0.0292702
0.0329457
0.0352448
0.0368221
0.0381866
0.0388188
0.0393649
0.039035
0.114945
0.114252
0.11516
0.115976
0.117299
0.118832
0.119753
0.120088
0.118675
0.116252
0.111048
0.104057
0.0912191
0.0786193
0.0676761
0.0626487
0.0674618
0.0783138
0.0923872
0.0353613
0.0298943
-0.00664706
-0.0105151
-0.00199206
0.0120876
0.0201497
0.0257018
0.0314303
0.0359813
0.0398494
0.043111
0.0452534
0.0462865
0.0471556
0.0479321
0.0482024
0.0501235
0.117013
0.117485
0.118366
0.119504
0.12076
0.122396
0.122877
0.122522
0.120972
0.116442
0.107492
0.092614
0.0728608
0.0394627
-0.00073847
-0.0413068
-0.081127
-0.0745767
-0.124432
0.0321374
0.0423052
-0.0375467
-0.0345701
-0.0170939
0.0112764
0.0200195
0.0306076
0.038398
0.0440496
0.0478153
0.051041
0.053229
0.0544783
0.0555699
0.0563974
0.0567573
0.0562105
0.112522
0.115258
0.115664
0.116365
0.117334
0.119153
0.120398
0.120306
0.119006
0.114935
0.105541
0.0860514
0.0569264
0.0165181
-0.0568577
-0.176824
-0.384285
-0.709015
-1.02032
0.185448
2.31254
0.30079
-0.40582
-0.31722
-0.208737
-0.0907512
-0.03666
0.00181084
0.0201018
0.0352696
0.0437041
0.0495234
0.053831
0.0568716
0.0577799
0.0582227
0.0587072
0.0587701
0.0583324
0.0553777
0.110067
0.107409
0.108225
0.109517
0.110755
0.112121
0.114551
0.117305
0.117276
0.115765
0.112275
0.103189
0.077759
0.0205606
-0.0399179
-0.211822
-0.674813
-1.49316
-0.215373
3.11569
5.88354
2.83044
-0.0286048
-1.01035
-0.405017
-0.106637
-0.0391903
0.0168502
0.0371195
0.0458362
0.0515361
0.0562321
0.0598734
0.0601767
0.0601943
0.0598839
0.0587581
0.0572796
0.0564027
0.0596135
0.10274
0.102116
0.10213
0.103054
0.104487
0.105796
0.107445
0.109973
0.114321
0.120598
0.131538
0.143831
0.160325
0.152023
0.147116
0.0723597
-0.219251
-1.20417
-1.30258
0.0212579
0.878777
-0.146577
-1.33419
-0.921658
-0.0656528
0.0604053
0.0752055
0.0860466
0.08207
0.0717752
0.0664181
0.0641809
0.0624432
0.0619366
0.0623948
0.0620624
0.0613255
0.0611571
0.0617409
0.0622697
0.0946729
0.0973571
0.0973473
0.0970707
0.0970315
0.0980199
0.100658
0.104702
0.113911
0.130222
0.153723
0.189568
0.252698
0.310383
0.411521
0.665849
0.879484
0.538475
-1.53687
-3.9513
-4.87548
-3.69995
-1.36037
0.516247
0.668939
0.4056
0.235502
0.198704
0.143387
0.110776
0.0908323
0.0759405
0.0679829
0.0650459
0.0635731
0.062931
0.0633134
0.0638364
0.0639689
0.0607894
0.0867315
0.0875917
0.0884608
0.0891087
0.0895808
0.0910375
0.0950737
0.102452
0.11458
0.13283
0.160374
0.206748
0.284556
0.426011
0.549845
0.951814
1.56156
2.07334
1.43391
0.225066
-0.340298
0.199973
1.27513
1.75625
1.04872
0.578273
0.366399
0.247057
0.174895
0.133843
0.106118
0.087175
0.0754531
0.0678497
0.0631874
0.0608155
0.0597
0.0584277
0.0572864
0.0562252
0.0783888
0.0781845
0.0791146
0.0802652
0.0816372
0.0834771
0.086748
0.093081
0.102063
0.114744
0.130836
0.163189
0.186885
0.304584
0.39126
0.532024
0.905558
1.72762
2.70747
3.67842
4.02978
3.37912
2.32246
1.33812
0.476572
0.31412
0.244195
0.151981
0.137973
0.113473
0.0965139
0.0838222
0.0731906
0.0646907
0.0593758
0.0558429
0.0532922
0.0511947
0.0499034
0.0501143
0.0731487
0.0727836
0.0725574
0.0727188
0.0732776
0.0740599
0.0751544
0.0769835
0.0781247
0.078026
0.0731497
0.0725767
0.0262766
0.0295647
0.0226115
-0.219109
-0.287145
-0.156877
0.430246
1.23203
1.53525
1.02266
0.186968
-0.335585
-0.450644
-0.151889
-0.00890094
0.00824159
0.0559627
0.0613297
0.0641821
0.0633935
0.0590233
0.0544634
0.0510445
0.0485976
0.0469139
0.0461285
0.0461047
0.0462808
0.0702431
0.0690717
0.0679778
0.0674716
0.0673144
0.0672216
0.0667163
0.0648715
0.0601938
0.0521052
0.0373743
0.0156317
-0.040098
-0.156153
-0.210722
-0.474338
-1.19874
-1.98643
-2.75721
-3.44685
-3.58852
-3.05175
-2.3179
-1.53325
-0.812013
-0.206149
-0.150321
-0.0563935
0.00612947
0.0246603
0.0366977
0.0424928
0.044253
0.0441832
0.0432782
0.0422105
0.041694
0.0418674
0.0427224
0.0437498
0.067623
0.0664244
0.0658979
0.0658546
0.0660365
0.0662268
0.0658084
0.0638024
0.0596662
0.0529299
0.0416793
0.0197395
-0.00861181
-0.103803
-0.238802
-0.393836
-0.950977
-1.70482
-2.70827
-3.39528
-3.28303
-2.48808
-1.48834
-0.730622
-0.247071
-0.153883
-0.0646094
-0.00210948
0.0185036
0.029096
0.0345529
0.0373815
0.0398031
0.040975
0.0410453
0.0403016
0.0397965
0.039498
0.0397379
0.0411187
0.064428
0.0645991
0.0653157
0.0661833
0.0670219
0.0680707
0.0690363
0.0690481
0.0697388
0.0718257
0.0780927
0.0818196
0.110037
0.127806
0.136269
0.245508
0.167385
0.115685
0.148406
0.199439
0.274781
0.327115
0.308144
0.350576
0.36996
0.216759
0.176283
0.122141
0.0774303
0.0617156
0.050661
0.0456687
0.0446117
0.0437853
0.0425807
0.0415596
0.0408417
0.0401706
0.0396559
0.0395631
0.0589638
0.0610557
0.0623698
0.0635915
0.0646209
0.0659357
0.0680506
0.0699406
0.0739049
0.0803265
0.0955368
0.115318
0.157009
0.239965
0.403883
0.664584
1.02426
1.50109
2.10232
2.47926
2.48855
2.17472
1.60852
1.13729
0.770049
0.459775
0.263373
0.157377
0.105084
0.0785739
0.0605797
0.0519402
0.0474713
0.0445285
0.0426029
0.0414233
0.0404849
0.0395478
0.0384345
0.0363748
0.0516967
0.0538339
0.0548466
0.0556629
0.0561981
0.0566425
0.0575874
0.0585558
0.0602415
0.0606698
0.0621298
0.0625056
0.0659123
0.104123
0.270012
0.525772
0.838872
1.22566
1.70134
2.00467
1.96513
1.68943
1.2276
0.85119
0.524415
0.276209
0.124505
0.0644014
0.053031
0.0507427
0.0455771
0.0429132
0.0403168
0.03815
0.0369135
0.0359841
0.0351159
0.0340658
0.0329933
0.0311343
0.045424
0.0452316
0.0452369
0.0451092
0.0448981
0.0440571
0.0426117
0.0407396
0.0361227
0.0287157
0.010735
-0.0182185
-0.0625994
-0.11574
-0.166292
-0.138724
-0.145573
-0.0824245
-0.0508514
-0.0427257
-0.081011
-0.0658797
-0.0783672
-0.143169
-0.127598
-0.148889
-0.107072
-0.0609833
-0.0220916
0.0041119
0.0186786
0.024436
0.0278265
0.028627
0.0291498
0.0290301
0.0285511
0.0280683
0.0277279
0.0279527
0.0419779
0.0397676
0.0389146
0.0380786
0.0372307
0.0356944
0.0330999
0.0288879
0.021573
0.00953165
-0.0132917
-0.0438143
-0.105857
-0.20464
-0.389587
-0.607275
-0.864113
-1.08933
-1.41695
-1.65328
-1.65569
-1.41579
-1.11269
-0.887828
-0.622574
-0.410852
-0.228357
-0.119425
-0.0521979
-0.0178382
0.0040327
0.0153149
0.0212599
0.0243255
0.0256974
0.0260911
0.0260908
0.0262392
0.0265953
0.0282496
0.0411583
0.0394479
0.0382593
0.0370296
0.0355831
0.0336061
0.0308881
0.0268114
0.0212704
0.0139548
0.00325742
-0.00694896
-0.0420457
-0.11133
-0.262642
-0.480551
-0.729934
-1.00486
-1.33964
-1.59494
-1.65138
-1.41755
-1.10939
-0.849334
-0.580664
-0.332983
-0.154048
-0.0652961
-0.0164561
0.000877413
0.0131901
0.0200032
0.0241107
0.0263962
0.0271867
0.02762
0.0277956
0.0282729
0.0288203
0.0297473
0.0400536
0.0405791
0.0395496
0.0381606
0.0364447
0.0346795
0.0328085
0.0303569
0.0288869
0.0291581
0.0345204
0.0460956
0.0601482
0.0772843
0.0700275
0.0377531
0.0197592
-0.083394
-0.142726
-0.219017
-0.285142
-0.281324
-0.225877
-0.106927
-0.0536346
0.0134086
0.0425489
0.0373811
0.0364501
0.0332379
0.0307624
0.0305409
0.0303763
0.0306252
0.0302745
0.0302235
0.0302431
0.0304078
0.0304253
0.0297181
0.0358434
0.0367884
0.0369333
0.0366067
0.0357221
0.0347887
0.0341536
0.0338705
0.0356556
0.0395493
0.0508775
0.073159
0.122214
0.204347
0.328476
0.479131
0.671997
0.788387
1.01792
1.16492
1.16088
0.96723
0.725274
0.619446
0.431321
0.283225
0.167758
0.105108
0.0675979
0.0503067
0.0399769
0.0357986
0.032491
0.0314653
0.0306277
0.0302592
0.0300114
0.0297147
0.0291544
0.0280448
0.0313434
0.0312538
0.0314108
0.0314757
0.0313496
0.0311025
0.0310834
0.0309704
0.0333295
0.0358879
0.0432502
0.0572516
0.0978252
0.175309
0.306195
0.475777
0.713293
0.901586
1.21238
1.40471
1.43535
1.21586
0.887362
0.688301
0.439767
0.279857
0.158873
0.0880823
0.0489645
0.0376209
0.0305561
0.0292968
0.0271073
0.0271889
0.0266494
0.026606
0.0263149
0.0259061
0.0253702
0.0251375
0.0295833
0.0285397
0.0281691
0.0278401
0.0274873
0.0269166
0.0262311
0.0247226
0.0233337
0.019746
0.0135083
0.00635356
0.00239244
0.0153803
0.0581337
0.115302
0.213726
0.317998
0.432338
0.48233
0.497313
0.414885
0.301054
0.19485
0.0985067
0.051224
0.00139054
-0.0109223
-0.00546842
0.00387343
0.0108306
0.0154955
0.0172321
0.0190438
0.0197472
0.0205087
0.0208155
0.0210796
0.0212978
0.02212
0.0294028
0.0286307
0.0282063
0.027636
0.0270054
0.0260984
0.0246223
0.021618
0.0164566
0.00699652
-0.00915395
-0.0335891
-0.0812515
-0.137463
-0.202561
-0.29128
-0.376259
-0.418875
-0.528001
-0.655606
-0.665638
-0.552239
-0.431005
-0.38759
-0.301482
-0.209733
-0.143084
-0.0842546
-0.0391167
-0.0167399
-0.00261635
0.00540696
0.0100319
0.0131006
0.0149895
0.0164609
0.0175726
0.0185063
0.0193323
0.0205119
0.0289477
0.0293956
0.0292498
0.0288051
0.0282912
0.0273973
0.0261157
0.0234234
0.0190692
0.0112194
-0.0026728
-0.0313832
-0.0894369
-0.179825
-0.29808
-0.440222
-0.621152
-0.7456
-0.946604
-1.12236
-1.12352
-0.934846
-0.701874
-0.567789
-0.389389
-0.253999
-0.150749
-0.0774091
-0.0313927
-0.0100802
-0.00140423
0.00529006
0.00978237
0.0128496
0.0149719
0.0167099
0.0179547
0.0188358
0.0195272
0.0197438
0.0271994
0.0285349
0.0288471
0.0287931
0.0286615
0.0283225
0.0281462
0.0271723
0.025378
0.0226983
0.0179315
0.00662651
-0.0150032
-0.0665437
-0.130922
-0.217542
-0.333425
-0.43353
-0.543037
-0.623859
-0.586617
-0.466289
-0.339646
-0.234142
-0.135072
-0.0683003
-0.0308683
-0.00226733
0.00818269
0.0111534
0.0104628
0.0111314
0.01298
0.0147863
0.0162393
0.0176637
0.0188935
0.0196878
0.0200622
0.0191828
0.0245486
0.0253377
0.0259309
0.0263077
0.0266725
0.0267821
0.0274784
0.0282715
0.0294496
0.0327146
0.0358216
0.0439295
0.0668958
0.0958861
0.143808
0.177936
0.201472
0.202006
0.278139
0.369957
0.39003
0.349108
0.276573
0.269708
0.222911
0.173498
0.115355
0.0776329
0.047453
0.0296678
0.0220968
0.0172559
0.0164411
0.016658
0.0169676
0.0176412
0.0182056
0.0183845
0.0181448
0.0174073
0.0225658
0.0222789
0.0223533
0.0224874
0.0228618
0.0227888
0.0234539
0.0242399
0.0254794
0.0294931
0.0353879
0.0541439
0.0919216
0.144674
0.240264
0.349368
0.492537
0.587685
0.78895
0.936631
0.938843
0.79627
0.597292
0.505776
0.366264
0.257221
0.164877
0.102222
0.0565381
0.0323362
0.0244914
0.0188148
0.0170838
0.0158977
0.0157841
0.0157649
0.015589
0.0154593
0.0154636
0.0158511
0.02099
0.0199012
0.0194644
0.0190094
0.0187302
0.0180585
0.0175317
0.0166139
0.015354
0.0140122
0.0135053
0.0190648
0.0432235
0.0771795
0.127692
0.199618
0.309404
0.397688
0.555786
0.668666
0.665627
0.566967
0.411649
0.331584
0.223705
0.143428
0.0885915
0.0504904
0.0261859
0.0173012
0.0151048
0.0143449
0.0144281
0.0139978
0.0140732
0.0140581
0.0140845
0.0144147
0.0149077
0.0161711
0.0189599
0.0178838
0.0170656
0.0161269
0.0152471
0.013819
0.0119337
0.00959972
0.0058574
-0.00111585
-0.00985919
-0.0240914
-0.0391307
-0.0552502
-0.0806077
-0.0900796
-0.0836304
-0.0715857
-0.0739641
-0.0880942
-0.0855769
-0.0530013
-0.0498972
-0.0609219
-0.0707835
-0.0660014
-0.0421732
-0.0315831
-0.0175238
-0.00474251
0.00331031
0.00989585
0.0127993
0.0143288
0.0152484
0.0155003
0.0157022
0.0159147
0.0162881
0.0172818
0.0170703
0.0168707
0.016191
0.0152609
0.0140937
0.0122888
0.00997341
0.00742366
0.00329654
-0.00434116
-0.0142372
-0.039081
-0.0772932
-0.128237
-0.19951
-0.27767
-0.354901
-0.417492
-0.542314
-0.649005
-0.653254
-0.543109
-0.427793
-0.368177
-0.292951
-0.21353
-0.135396
-0.0821562
-0.0388299
-0.00937179
0.00217966
0.0112886
0.0147613
0.0165121
0.0177524
0.0182576
0.0184142
0.0184036
0.01831
0.0179743
0.0161805
0.0167687
0.0164827
0.0158969
0.0148078
0.0132763
0.011607
0.00935358
0.00687614
0.0026541
-0.00299138
-0.0168177
-0.0429583
-0.0828991
-0.132292
-0.201512
-0.281811
-0.353357
-0.486505
-0.603589
-0.627744
-0.531229
-0.409855
-0.345294
-0.260909
-0.179992
-0.113912
-0.0588326
-0.0193195
0.001597
0.0111292
0.0159472
0.0179315
0.0190025
0.0195373
0.0197788
0.0197212
0.0195512
0.0191537
0.0178057
0.0151319
0.0160901
0.0160532
0.0156421
0.0148568
0.0138893
0.0131021
0.0123073
0.0119083
0.0132783
0.0145552
0.021638
0.0299665
0.0353062
0.0509591
0.0470837
0.0352238
0.014282
-0.00113599
-0.0348672
-0.060002
-0.0615587
-0.0577023
-0.0324361
-0.00758395
0.0163504
0.019632
0.0243173
0.023847
0.0205039
0.0208316
0.0203755
0.0202718
0.0198668
0.0194649
0.0189687
0.0184793
0.017981
0.0173018
0.0161212
0.0134925
0.0135049
0.0135593
0.0135148
0.0133768
0.0132805
0.0135044
0.0140969
0.0153639
0.0201111
0.0266991
0.0479223
0.080995
0.121417
0.18383
0.240557
0.301166
0.345253
0.443921
0.503896
0.517234
0.441291
0.328834
0.286778
0.229602
0.177472
0.116433
0.0741044
0.0450025
0.0284461
0.0243575
0.0203242
0.0187808
0.017525
0.0164229
0.0157123
0.0151206
0.014799
0.0143908
0.0144394
0.0130282
0.0120562
0.0116364
0.0114065
0.011376
0.0116275
0.0120469
0.0127462
0.0138276
0.017722
0.0254871
0.0412102
0.0703104
0.111001
0.174591
0.239538
0.315198
0.372093
0.497779
0.574591
0.606724
0.509105
0.373462
0.311522
0.226568
0.161401
0.0961438
0.0608946
0.0360847
0.0221362
0.0162412
0.0140051
0.0132876
0.0129174
0.0125448
0.0125532
0.0124945
0.0127155
0.0130172
0.0138354
0.0140862
0.0129338
0.0124264
0.0121584
0.0120668
0.0119991
0.0117372
0.0112827
0.00986129
0.00823071
0.00810615
0.00896524
0.0148306
0.0255317
0.043374
0.0671777
0.10023
0.123133
0.167251
0.19194
0.19599
0.150706
0.103273
0.0775878
0.0421104
0.0246618
0.0109115
0.00652956
-0.000544017
1.55209e-05
0.00202069
0.00487456
0.00727227
0.0086961
0.00970736
0.0105157
0.0110151
0.0115852
0.0122033
0.0132414
0.0149768
0.0147915
0.0147963
0.0149981
0.0150525
0.0148557
0.0141104
0.0125796
0.00909418
0.00254703
-0.00553466
-0.0218377
-0.0429355
-0.0727075
-0.108672
-0.143021
-0.172118
-0.198731
-0.242051
-0.278226
-0.274237
-0.251998
-0.202652
-0.175704
-0.148228
-0.111545
-0.077565
-0.0474274
-0.0286942
-0.012822
-0.0055721
0.000768167
0.00399467
0.00648802
0.00825685
0.00951019
0.0102341
0.0109225
0.0115627
0.0120247
0.0152038
0.0162468
0.0167235
0.0170115
0.0170424
0.0168541
0.0161581
0.015066
0.0121599
0.00472841
-0.00753415
-0.0316412
-0.0667364
-0.114435
-0.169439
-0.225222
-0.281284
-0.325859
-0.406063
-0.470996
-0.448161
-0.375187
-0.282345
-0.232071
-0.181714
-0.13016
-0.0861413
-0.0490445
-0.0265497
-0.00988226
-0.00198819
0.00315469
0.00555793
0.00766743
0.00909546
0.010215
0.0109617
0.0114686
0.0116625
0.011243
0.0143343
0.0157439
0.0163441
0.0166775
0.0169136
0.0170869
0.0171178
0.0168985
0.0162503
0.0139051
0.00892804
-0.00315797
-0.0197216
-0.0435512
-0.0723427
-0.105503
-0.139717
-0.165121
-0.204655
-0.242501
-0.221762
-0.156456
-0.101106
-0.0761144
-0.0473522
-0.0255147
-0.0125603
-0.00208516
0.000246201
0.00508053
0.00719981
0.00823076
0.00879041
0.00964303
0.0104869
0.0113127
0.0119716
0.012226
0.0121804
0.0113629
0.0122888
0.0129136
0.0135133
0.0140055
0.0145873
0.0152313
0.0160407
0.016773
0.0183243
0.0200442
0.0237066
0.031887
0.0476741
0.0643981
0.0820549
0.0952307
0.111787
0.13251
0.167981
0.180324
0.183383
0.189346
0.163501
0.140589
0.120626
0.0999346
0.0742504
0.0529465
0.0320314
0.0206943
0.015573
0.0126401
0.01109
0.0107725
0.0107726
0.0111293
0.0113983
0.0114473
0.0113153
0.0107996
0.0112922
0.0107319
0.0106025
0.0105849
0.0108428
0.0112944
0.0119923
0.0127219
0.0144065
0.0176731
0.023811
0.0366802
0.0608061
0.0971112
0.142169
0.186029
0.239071
0.286982
0.359276
0.406088
0.399779
0.356007
0.283652
0.235367
0.1875
0.144209
0.102743
0.0689835
0.0430454
0.0261903
0.017832
0.0129648
0.0110114
0.0101822
0.00968081
0.00949953
0.00935227
0.00935087
0.00954466
0.0100984
0.0108265
0.00982712
0.00923707
0.00868457
0.0083323
0.00799025
0.00765836
0.007032
0.00614995
0.00668005
0.00862057
0.0169523
0.0284743
0.0431562
0.0701567
0.0978821
0.135077
0.167756
0.227398
0.28276
0.276421
0.231997
0.181029
0.151485
0.11745
0.0875558
0.059497
0.0389903
0.0254483
0.0159704
0.0120958
0.00983451
0.00962351
0.0093174
0.0089757
0.00873264
0.00874064
0.00903905
0.0095989
0.0107314
0.00985641
0.00903287
0.00837549
0.00771618
0.00696589
0.00596756
0.00471109
0.00284328
-0.000180183
-0.00377133
-0.0075903
-0.0133835
-0.0219554
-0.034632
-0.0434146
-0.0508323
-0.0570754
-0.0660619
-0.0649152
-0.0385064
-0.031116
-0.0454812
-0.0451427
-0.0365373
-0.0316467
-0.0257981
-0.0193193
-0.0107509
-0.00187531
0.00275805
0.00542474
0.00817671
0.0103425
0.0111376
0.0112678
0.0111967
0.0110452
0.0110691
0.0113362
0.0120506
0.00890589
0.00881901
0.00838975
0.00786262
0.00702518
0.00576945
0.00417493
0.00254957
-0.000821549
-0.00621891
-0.012453
-0.0255738
-0.0455645
-0.0727287
-0.100369
-0.12735
-0.157682
-0.196395
-0.242254
-0.263092
-0.269134
-0.253967
-0.213957
-0.178895
-0.149628
-0.116188
-0.0832459
-0.0506696
-0.0224965
-0.00569441
0.00295647
0.00983583
0.0131345
0.013825
0.0142588
0.0143175
0.014102
0.013634
0.0132827
0.0129094
0.00882024
0.00938253
0.00942451
0.00921471
0.00856327
0.00757996
0.00623727
0.00507102
0.00301171
-0.000802944
-0.0048919
-0.0137771
-0.0242964
-0.0414094
-0.058739
-0.0803411
-0.103366
-0.136306
-0.191516
-0.238251
-0.251897
-0.220335
-0.176376
-0.147726
-0.120894
-0.093708
-0.0654419
-0.0392471
-0.0171954
-0.00111632
0.00763117
0.0129398
0.0145887
0.0152455
0.0155801
0.0153963
0.0152554
0.0148905
0.0143213
0.0130308
0.00915696
0.00994939
0.0100759
0.00992675
0.00943793
0.00888358
0.00814856
0.00788556
0.00797453
0.00888112
0.00809759
0.00962914
0.0207661
0.0273443
0.0340219
0.0393996
0.0412125
0.0509385
0.0405393
0.00381365
-0.00722422
0.011364
0.0139089
0.0066126
0.0107612
0.0133223
0.0172693
0.019158
0.015804
0.0165124
0.0172493
0.0164825
0.0157401
0.0154406
0.0151143
0.0146159
0.0141178
0.0135717
0.0129087
0.011805
0.00873491
0.00888094
0.00895268
0.00899849
0.0089052
0.00896074
0.0088976
0.00973056
0.0108788
0.015742
0.0204946
0.0306068
0.0534695
0.0757304
0.10005
0.126341
0.149004
0.189882
0.224308
0.225855
0.219773
0.22621
0.193387
0.143036
0.125198
0.0988535
0.0770257
0.0552261
0.0339743
0.024165
0.0196976
0.0154482
0.0142759
0.0131668
0.0124483
0.0117167
0.0111635
0.0107892
0.0104505
0.010449
0.00859454
0.00782994
0.00749099
0.00743177
0.00752815
0.0078791
0.00816588
0.00924838
0.0102862
0.0148915
0.0219417
0.0320952
0.0496676
0.0701993
0.0932229
0.120813
0.139086
0.181209
0.22702
0.249748
0.244768
0.235146
0.181441
0.130858
0.111249
0.0832102
0.0601541
0.0390199
0.0247272
0.0180259
0.0133833
0.0101907
0.00965112
0.009059
0.00894673
0.00879308
0.00877102
0.00896689
0.00935114
0.0101247
0.00956393
0.00859669
0.00814704
0.00802225
0.00811945
0.00836883
0.0084702
0.00858353
0.00816133
0.00852064
0.0107604
0.0136647
0.0159323
0.020666
0.026043
0.0323713
0.0356568
0.0437358
0.0636442
0.088526
0.0806138
0.051726
0.0225529
0.0105793
0.00717396
0.00150935
0.000867011
0.000806696
0.00332275
0.00209405
0.00144586
0.00315091
0.00470259
0.00588402
0.00676372
0.00732153
0.00769359
0.00818794
0.00880555
0.0097721
0.0106307
0.0104009
0.0105046
0.0107865
0.0110357
0.0112785
0.0111524
0.0103449
0.00820566
0.00361392
-0.000377071
-0.00830466
-0.0245382
-0.0416946
-0.0599502
-0.0773497
-0.0907524
-0.112946
-0.124818
-0.109664
-0.104348
-0.123203
-0.111099
-0.0888507
-0.0767849
-0.0631741
-0.0468286
-0.0317442
-0.0167381
-0.00915291
-0.00472455
7.50951e-05
0.00237598
0.00450657
0.00585357
0.0066909
0.00735659
0.00797427
0.00859279
0.0090317
0.0111732
0.01197
0.0124985
0.012931
0.0131603
0.0132173
0.0130286
0.0117394
0.00960579
0.00331617
-0.00656197
-0.0214163
-0.0430155
-0.0656409
-0.0877086
-0.108457
-0.121803
-0.151903
-0.181881
-0.189012
-0.173185
-0.164613
-0.121557
-0.0796162
-0.0693711
-0.0555124
-0.0424112
-0.0281484
-0.0155184
-0.00730357
-0.00202119
0.00233235
0.00439572
0.0059695
0.00693552
0.00792038
0.00863046
0.00907959
0.0092056
0.00891635
0.0107523
0.0119661
0.012626
0.0130237
0.0133469
0.0134794
0.0135047
0.0131386
0.0127527
0.0107419
0.00485382
-0.00242022
-0.00972921
-0.0186135
-0.0274047
-0.0364322
-0.0435278
-0.05372
-0.070851
-0.0876194
-0.0747557
-0.0441916
-0.0127884
-0.000963374
0.00151471
0.00206055
0.000886639
0.0014815
0.000865627
0.00348734
0.00589982
0.00726978
0.00761988
0.00827285
0.00896972
0.00976403
0.0102791
0.0103683
0.0100496
0.00937295
0.00927535
0.00992932
0.0106404
0.0112577
0.0118224
0.0123508
0.012807
0.0134879
0.0145701
0.0175406
0.0202518
0.0247084
0.0346337
0.0443314
0.0540333
0.0650125
0.073887
0.0950988
0.102184
0.0846157
0.0892985
0.108128
0.105906
0.0882391
0.0780723
0.0630562
0.0485565
0.0333922
0.0203814
0.016527
0.013432
0.011094
0.00998766
0.00963708
0.00988294
0.0102084
0.0104874
0.0105211
0.0103621
0.00983086
0.00855961
0.0084681
0.00850196
0.0085924
0.00881398
0.00923483
0.009856
0.0107911
0.0120518
0.0157709
0.0207192
0.0280068
0.0439364
0.0634048
0.0802789
0.0999992
0.114081
0.146611
0.17415
0.168527
0.171359
0.167636
0.140618
0.111767
0.0983688
0.0798348
0.0647723
0.047053
0.0310728
0.0225605
0.0162096
0.0124423
0.0105657
0.00986353
0.0096333
0.00939713
0.00933307
0.00928653
0.00932335
0.00945382
0.00799706
0.00734166
0.0069616
0.00669988
0.00650638
0.00633683
0.00619146
0.00613098
0.00610158
0.00700809
0.0106246
0.0137113
0.0182626
0.0264702
0.0308791
0.040152
0.0464781
0.0639865
0.0979835
0.109158
0.114915
0.106257
0.0784026
0.0621207
0.055285
0.0465771
0.0402085
0.031209
0.0228686
0.0169883
0.0128876
0.0106315
0.00985163
0.00918998
0.00872062
0.00835763
0.00824424
0.00827862
0.00861846
0.00941252
0.00677077
0.00606624
0.00558872
0.00520907
0.00478024
0.0042396
0.00343315
0.00225347
0.000651713
-0.00174844
-0.00342668
-0.00645851
-0.0146079
-0.0219982
-0.0329363
-0.03941
-0.0462141
-0.0463808
-0.0355321
-0.0180889
-0.0121978
-0.0233389
-0.0315131
-0.0313784
-0.02354
-0.0161029
-0.00744843
-0.000843426
0.00470151
0.00664106
0.0075422
0.00893034
0.00979311
0.0100218
0.009832
0.00951341
0.00935126
0.00933384
0.00956305
0.0101847
0.00589512
0.00560202
0.0051959
0.00472382
0.00420965
0.00343525
0.00256577
0.001127
-0.00127668
-0.00481428
-0.00928393
-0.0153675
-0.0270253
-0.0379289
-0.0499352
-0.0573471
-0.0682065
-0.0818434
-0.103082
-0.102295
-0.107231
-0.111083
-0.0998153
-0.0912413
-0.0761406
-0.0641144
-0.0474167
-0.029585
-0.0131828
-0.00238791
0.00409786
0.00849482
0.010928
0.01182
0.0119563
0.0118494
0.0115646
0.0112977
0.0110696
0.0109388
0.00578909
0.00598427
0.00596177
0.00574459
0.00542573
0.0048381
0.00423617
0.00332578
0.00164398
-0.00088506
-0.00406936
-0.00759362
-0.0120441
-0.0146574
-0.0177051
-0.0171734
-0.022058
-0.0364237
-0.0688197
-0.0841719
-0.0913853
-0.0829857
-0.0634187
-0.054959
-0.0467859
-0.0421904
-0.0329196
-0.0227162
-0.0114192
-0.00142721
0.00551647
0.00971047
0.0119009
0.0126749
0.0128054
0.0127763
0.0125413
0.0122062
0.0116824
0.0109308
0.00636378
0.00671521
0.00691591
0.00691112
0.00670396
0.00643367
0.00613998
0.00592746
0.00598765
0.00564944
0.00543072
0.00644107
0.0118038
0.0217037
0.0317626
0.042813
0.0526335
0.0553409
0.0412947
0.0221234
0.0150586
0.0238117
0.0299422
0.029092
0.0246934
0.0193632
0.0168915
0.0139903
0.012677
0.0126419
0.0136473
0.0136247
0.013192
0.0128417
0.0126537
0.0123644
0.0118725
0.0113567
0.0106502
0.00992149
0.00699747
0.00733358
0.0073446
0.00728253
0.00716242
0.00708418
0.00712364
0.00748077
0.009032
0.0110562
0.0143845
0.0198692
0.0308774
0.0457064
0.0602038
0.0725889
0.0929021
0.105093
0.114582
0.110203
0.106925
0.115383
0.106028
0.0924454
0.0750031
0.0638148
0.0513172
0.0385163
0.0281648
0.0204345
0.0170123
0.0140104
0.0124505
0.0115382
0.0109825
0.0105401
0.0101738
0.00994289
0.00969379
0.00931948
0.00688006
0.00667534
0.00656046
0.00659964
0.00668689
0.00687908
0.007356
0.00777031
0.0094452
0.0124424
0.0166706
0.022896
0.0311289
0.0398958
0.0496407
0.0552614
0.0681158
0.0831855
0.10507
0.114689
0.110129
0.109562
0.0861921
0.0684303
0.0558628
0.0491569
0.0403461
0.030203
0.0219955
0.0160596
0.0136838
0.0110436
0.00954449
0.00913105
0.0087885
0.00851768
0.00837726
0.00828332
0.00829892
0.00846818
0.00698096
0.006457
0.00616096
0.00605985
0.006179
0.0064129
0.00680614
0.00704737
0.0074181
0.00848437
0.00977887
0.0108493
0.0113638
0.0105237
0.00863594
0.00527426
0.00547561
0.0142053
0.0301507
0.0394962
0.0330679
0.0213976
0.00328883
-0.00731344
-0.00720868
-0.00418013
0.000550803
0.00325381
0.00597768
0.00611967
0.00529854
0.00500907
0.00573603
0.00621313
0.00636569
0.00644028
0.00632487
0.00624373
0.00640934
0.00687055
0.00777536
0.00746983
0.00734559
0.00727618
0.00737491
0.00749969
0.0075098
0.0071484
0.00570659
0.00379713
0.00120747
-0.00481698
-0.0136005
-0.0251118
-0.038151
-0.0467914
-0.0602413
-0.0592515
-0.0536527
-0.0475897
-0.0468789
-0.0524166
-0.0532414
-0.0552977
-0.0420904
-0.0372528
-0.0264954
-0.0176975
-0.00951465
-0.0041821
-0.00203656
0.000262334
0.00244361
0.00351848
0.0042206
0.00464313
0.00494694
0.00519215