/*--------------------------------*- C++ -*----------------------------------*\
| =========                 |                                                 |
| \\      /  F ield         | OpenFOAM: The Open Source CFD Toolbox           |
|  \\    /   O peration     | Version:  v2106                                 |
|   \\  /    A nd           | Website:  www.openfoam.com                      |
|    \\/     M anipulation  |                                                 |
\*---------------------------------------------------------------------------*/
FoamFile
{
    version     2.0;
    format      ascii;
    arch        "LSB;label=32;scalar=64";
    class       volVectorField;
    location    "0";
    object      U;
}
// * * * * * * * * * * * * * * * * * * * * * * * * * * * * * * * * * * * * * //

dimensions      [0 1 -1 0 0 0 0];

internalField   nonuniform List<vector> 
11644
(
(-0.00296688 -9.26624e-06 -2.0196e-22)
(-0.00295313 -4.05319e-05 -5.56947e-22)
(-0.002954 -9.55306e-05 -2.98816e-22)
(-0.00296381 -0.000150025 0)
(-0.00297791 -0.000203909 0)
(-0.0029805 -0.000267916 0)
(-0.00298354 -0.000334125 0)
(-0.00298787 -0.000387564 0)
(-0.00301018 -0.000438425 0)
(-0.00301849 -0.000463453 0)
(-0.00306578 -0.00049274 0)
(-0.00312608 -0.000510295 0)
(-0.00312806 -0.000413468 0)
(-0.0031765 -0.000239427 0)
(-0.0033987 -0.000182625 0)
(-0.00396164 0.000359534 0)
(-0.00399826 0.000696537 0)
(-0.00261891 -0.00042913 0)
(-0.00207173 -0.001835 0)
(-0.00268197 -0.00110868 1.48442e-30)
(-0.00257072 0.000918644 -1.50077e-30)
(-0.00173985 0.00164893 0)
(-0.00236958 0.00022001 0)
(-0.00404407 -0.000891206 0)
(-0.00411942 -0.000537388 0)
(-0.00346621 5.78138e-05 0)
(-0.00316811 0.000143987 0)
(-0.00312778 0.000350773 0)
(-0.00312659 0.000451666 0)
(-0.00305866 0.00045443 0)
(-0.00301884 0.000433518 0)
(-0.00300641 0.000417684 0)
(-0.00298589 0.000372527 0)
(-0.00298054 0.000325233 0)
(-0.00298194 0.000265365 0)
(-0.00298078 0.000208168 0)
(-0.00296533 0.000156604 0)
(-0.00294545 9.99585e-05 0)
(-0.00294385 4.45447e-05 0)
(-0.00296196 1.17112e-05 -3.9158e-23)
(-0.00295115 1.56768e-05 -2.59417e-22)
(-0.0029176 6.04295e-05 -2.40303e-22)
(-0.00287373 9.09317e-05 -1.29059e-22)
(-0.00284091 8.87528e-05 0)
(-0.00283108 5.29317e-05 0)
(-0.0028192 6.71363e-06 0)
(-0.00281341 -3.24928e-05 0)
(-0.00282225 -7.14899e-05 0)
(-0.00282085 -0.000110573 0)
(-0.00284114 -0.000175928 0)
(-0.00284318 -0.000178284 0)
(-0.00288903 -0.000169242 0)
(-0.00305405 -0.000280703 0)
(-0.00318695 -0.000252861 0)
(-0.00356002 -0.000107234 0)
(-0.00286467 -0.000522972 -1.62605e-23)
(-0.000195749 -0.00224431 7.27258e-23)
(0.000290603 -0.00450135 -2.64472e-24)
(-0.00334989 -0.00472545 8.81043e-22)
(-0.00752521 -0.00245195 -7.21621e-21)
(-0.0078045 0.00116482 6.84071e-21)
(-0.0038762 0.00393003 -3.8978e-22)
(8.69147e-05 0.00426681 -9.82859e-23)
(-7.32682e-06 0.00213533 -9.53806e-23)
(-0.00278545 0.000284133 2.20866e-23)
(-0.00368075 -0.00013738 0)
(-0.00334869 5.91376e-05 0)
(-0.00316629 0.000116847 0)
(-0.00296209 6.90765e-05 0)
(-0.00289282 9.89439e-05 0)
(-0.00289006 0.00013494 0)
(-0.00285516 9.83168e-05 0)
(-0.00284269 8.5719e-05 0)
(-0.00282679 6.56702e-05 0)
(-0.00282532 3.87968e-05 0)
(-0.00282468 -1.01367e-05 0)
(-0.00283755 -4.50227e-05 0)
(-0.00285518 -5.53649e-05 0)
(-0.00289568 -3.30321e-05 0)
(-0.00292938 -7.49532e-06 0)
(-0.0030889 8.94963e-05 0)
(-0.00306222 0.000226625 0)
(-0.003 0.000418754 0)
(-0.0029333 0.000578268 0)
(-0.00285589 0.000735124 -2.36972e-22)
(-0.00279661 0.000843049 0)
(-0.00275313 0.00092378 0)
(-0.00271967 0.000975222 0)
(-0.00268853 0.00100875 0)
(-0.00269348 0.00104867 0)
(-0.00268043 0.00101582 0)
(-0.00268445 0.000985264 0)
(-0.00267245 0.00101945 2.66568e-23)
(-0.00275438 0.000858566 -1.72665e-21)
(-0.00221434 0.000316875 -1.09037e-21)
(-0.000582714 -0.00120036 7.86247e-21)
(0.000235917 -0.0024211 5.93122e-22)
(-0.00184815 -0.000801745 -5.2755e-21)
(-0.00567116 0.0014258 3.95698e-21)
(-0.00820533 0.00100639 -1.68453e-20)
(-0.00839325 -0.00129936 1.05743e-20)
(-0.00614603 -0.00193822 -4.34407e-21)
(-0.00227993 0.000224824 1.17129e-20)
(4.74894e-05 0.00209433 -7.92624e-21)
(-0.000566898 0.00113159 -6.74577e-22)
(-0.0022142 -0.000385253 1.49291e-21)
(-0.00282348 -0.000929101 1.6927e-21)
(-0.0028465 -0.00102795 -3.04473e-23)
(-0.00286217 -0.000968801 0)
(-0.00287033 -0.000928268 0)
(-0.00280398 -0.000939503 0)
(-0.0027652 -0.000875883 0)
(-0.00276877 -0.000830873 0)
(-0.00277682 -0.000778092 0)
(-0.00279013 -0.000706121 0)
(-0.00283851 -0.00061146 0)
(-0.00290642 -0.000476499 0)
(-0.00295896 -0.000338928 0)
(-0.00300309 -0.000181567 0)
(-0.00302692 -7.24326e-05 0)
(-0.00342811 0.000104185 0)
(-0.00341756 0.000421628 0)
(-0.00340277 0.000654732 0)
(-0.00333843 0.000979421 0)
(-0.00324647 0.00128656 0)
(-0.00312722 0.00160998 0)
(-0.00300573 0.00188362 0)
(-0.00287492 0.00210535 0)
(-0.00277707 0.00224458 0)
(-0.00259092 0.00234486 0)
(-0.00253471 0.00236259 1.04932e-24)
(-0.00251956 0.00244756 -1.40332e-21)
(-0.00244976 0.00225037 3.36067e-21)
(-0.00176695 0.00196959 -2.65003e-21)
(-0.000504657 0.00135148 7.42035e-21)
(0.000118134 0.00104755 8.67187e-23)
(-0.0013363 0.00273052 1.15449e-21)
(-0.00401243 0.00584171 -2.21817e-20)
(-0.00453444 0.0061909 1.17224e-20)
(-0.0038863 0.00260657 1.98237e-20)
(-0.00393325 -0.00200332 -1.6718e-20)
(-0.00460734 -0.00584405 1.23566e-20)
(-0.00423231 -0.00593105 -5.74688e-21)
(-0.00176967 -0.00293529 -7.26848e-21)
(-0.00036219 -0.00106757 8.53851e-21)
(-0.000847111 -0.00116627 -8.56665e-21)
(-0.00202522 -0.00174483 1.87764e-21)
(-0.00261014 -0.00204606 -2.41312e-21)
(-0.00265955 -0.00215885 6.23523e-22)
(-0.00265261 -0.00208918 9.45694e-25)
(-0.00272624 -0.00202498 0)
(-0.00284783 -0.00194557 0)
(-0.00288386 -0.00183236 0)
(-0.00298131 -0.00164206 0)
(-0.00306257 -0.00140786 0)
(-0.00316434 -0.00112244 0)
(-0.00323941 -0.000861193 0)
(-0.00329334 -0.000575564 0)
(-0.00329819 -0.000367986 0)
(-0.00330733 -9.35858e-05 0)
(-0.00387108 0.000193303 0)
(-0.00388439 0.000512829 0)
(-0.00387903 0.00085889 0)
(-0.00384727 0.00120873 0)
(-0.00377973 0.00154259 0)
(-0.00366722 0.00191066 0)
(-0.0034991 0.00227108 0)
(-0.00329464 0.00258904 0)
(-0.00300229 0.00289857 0)
(-0.00278162 0.00303142 1.43065e-22)
(-0.00256984 0.00319146 1.91152e-21)
(-0.00220825 0.00314413 3.89363e-21)
(-0.00159129 0.00304883 -2.54173e-21)
(-0.000982803 0.00234063 -4.36288e-22)
(-0.00105897 0.00286596 -9.16965e-21)
(-0.00287964 0.00415474 7.88096e-21)
(-0.00543301 0.00655869 -4.91481e-21)
(-0.00504488 0.00777372 8.44865e-21)
(-0.0016616 0.00587851 -6.47496e-21)
(0.00180813 0.00226612 -1.7906e-20)
(0.00188512 -0.00142232 4.94566e-21)
(-0.00147926 -0.00519851 1.12716e-20)
(-0.00504217 -0.00725109 1.08821e-21)
(-0.00594064 -0.00626473 1.07206e-20)
(-0.00360652 -0.00395546 -1.41889e-20)
(-0.00157446 -0.00262284 5.90216e-21)
(-0.00150149 -0.0020733 2.92535e-21)
(-0.00203003 -0.00269632 3.01399e-21)
(-0.00246963 -0.00281172 -4.47856e-21)
(-0.00261272 -0.00277228 -2.18587e-21)
(-0.0027326 -0.00261913 9.2864e-23)
(-0.00294774 -0.0025039 0)
(-0.00321422 -0.00224432 0)
(-0.00338752 -0.00198132 0)
(-0.0035337 -0.00166588 0)
(-0.00362748 -0.00134032 0)
(-0.00368194 -0.00104509 0)
(-0.00370654 -0.000741641 0)
(-0.00370908 -0.000445833 0)
(-0.00369102 -0.000154285 0)
(-0.00436134 0.000237957 0)
(-0.00437561 0.000392467 0)
(-0.00435647 0.000802473 0)
(-0.00435076 0.000978671 0)
(-0.00427767 0.00129679 0)
(-0.00419319 0.00153147 0)
(-0.00403922 0.00180113 0)
(-0.00380888 0.00207579 0)
(-0.00356449 0.00229358 -2.69581e-22)
(-0.00332544 0.00241687 -2.40076e-21)
(-0.0027552 0.00245998 1.84659e-21)
(-0.00187096 0.00257483 1.25923e-20)
(-0.000941119 0.00247278 -1.20015e-20)
(-0.00120772 0.00292204 1.20556e-20)
(-0.00241502 0.003503 -1.84246e-20)
(-0.00494687 0.0057039 2.94641e-20)
(-0.00614024 0.00591566 -1.14225e-20)
(-0.00348028 0.00383989 -2.12578e-20)
(0.000828586 0.00238328 4.43544e-20)
(0.00433995 0.0012589 -4.67494e-20)
(0.00443349 -0.000559257 6.99257e-21)
(0.00103564 -0.00166885 -6.99835e-21)
(-0.00348027 -0.00313474 2.8144e-20)
(-0.0063111 -0.00507518 -1.19617e-20)
(-0.00525879 -0.00513469 -9.7686e-21)
(-0.00318982 -0.0031267 1.77599e-20)
(-0.00202735 -0.00264294 -1.12441e-20)
(-0.00156312 -0.00212522 1.48304e-21)
(-0.00230483 -0.00215782 -2.46062e-21)
(-0.00298416 -0.00207676 -1.04993e-21)
(-0.00319801 -0.00203307 1.44265e-21)
(-0.00334231 -0.00191279 -2.03996e-22)
(-0.00360032 -0.00171978 0)
(-0.00382451 -0.0014882 0)
(-0.00397413 -0.00127413 0)
(-0.00404604 -0.00109375 0)
(-0.00410617 -0.000839883 0)
(-0.00411914 -0.000708079 0)
(-0.00414474 -0.000348853 0)
(-0.00411985 -0.000244321 0)
(-0.00477557 -0.000128582 0)
(-0.0047398 0.000408731 0)
(-0.00475825 0.000358557 0)
(-0.00470509 0.000699145 0)
(-0.0046662 0.000879841 0)
(-0.0045577 0.00109896 0)
(-0.00440388 0.00125467 0)
(-0.00418133 0.00136143 3.01018e-23)
(-0.00394867 0.00120514 -6.06175e-22)
(-0.00326776 0.00128396 3.85547e-21)
(-0.00245829 0.00132508 -1.67883e-21)
(-0.00205675 0.000813313 -5.73398e-21)
(-0.00203176 0.000849939 4.22939e-21)
(-0.00135442 0.00127915 -3.35835e-21)
(-0.00261249 0.00248847 -2.0952e-20)
(-0.00336776 0.00367007 2.36525e-20)
(-0.00307853 0.00423819 1.78425e-20)
(-0.00213794 -0.000180918 -5.35814e-21)
(0.000712989 -0.000792197 9.74345e-22)
(0.0033386 2.14786e-05 -5.09374e-20)
(0.00415435 0.000950092 -1.29949e-20)
(0.00220413 0.00133539 8.40307e-21)
(-0.00166775 0.000560924 8.20915e-21)
(-0.00417533 -0.00250565 1.83121e-20)
(-0.00349611 -0.00330155 -1.84546e-20)
(-0.00286689 -0.00245084 1.28152e-20)
(-0.00209818 -0.00113455 6.00444e-21)
(-0.00258373 -0.000814203 6.51771e-21)
(-0.00264779 -0.000714297 -4.14929e-21)
(-0.00281439 -0.00103997 -1.66373e-21)
(-0.0033449 -0.000935676 -4.60976e-22)
(-0.00373119 -0.000856488 -6.70703e-23)
(-0.00386034 -0.00101797 9.73882e-23)
(-0.00408691 -0.000954134 0)
(-0.00424421 -0.000868642 0)
(-0.0043582 -0.00071442 0)
(-0.00440232 -0.0005771 0)
(-0.00446683 -0.000284799 0)
(-0.00445422 -0.000335441 0)
(-0.00449233 0.00016619 0)
(-0.00504939 0.000312407 0)
(-0.00506274 0.000400928 0)
(-0.00498186 0.000742235 0)
(-0.00495285 0.00103741 0)
(-0.00488672 0.00112482 0)
(-0.00476912 0.00129063 0)
(-0.00458884 0.00139247 0)
(-0.0042925 0.00119138 5.5407e-23)
(-0.00366549 0.00114794 2.022e-21)
(-0.00299781 0.00107112 -2.41287e-21)
(-0.00260001 0.00091233 6.63942e-22)
(-0.00205123 0.00150526 -2.70527e-21)
(-0.00156016 0.00106308 9.69235e-21)
(-0.0035467 0.000908079 1.18888e-20)
(-0.00264582 0.002567 9.41978e-21)
(-0.00164128 0.00105398 -1.62383e-20)
(0.000238439 -0.00210437 2.31215e-20)
(-3.14071e-05 -0.00423147 -8.73731e-21)
(0.000385169 -0.00459311 2.85053e-20)
(-3.34633e-05 -0.00206854 1.08114e-21)
(0.00015445 0.00125803 -4.88654e-21)
(-5.96365e-06 0.00444765 -1.93057e-20)
(-0.000188172 0.00550525 -9.62005e-21)
(-0.00150689 0.00354777 2.50561e-20)
(-0.00190721 -0.000499587 -6.50746e-21)
(-0.00409791 -0.00113474 -5.70245e-21)
(-0.00360492 -0.00159611 1.89956e-20)
(-0.00233327 -0.000835455 -2.61982e-21)
(-0.00268011 -0.00142684 6.20363e-21)
(-0.00307949 -0.000790274 -8.80378e-22)
(-0.00330938 -0.000814665 -4.91594e-22)
(-0.0035767 -0.00083196 3.51596e-22)
(-0.00389413 -0.000815719 -1.73081e-22)
(-0.0041385 -0.00104399 0)
(-0.00434986 -0.00101033 0)
(-0.0044953 -0.000912714 0)
(-0.00458609 -0.000862295 0)
(-0.00463893 -0.000608548 0)
(-0.00473746 -0.000366098 0)
(-0.00472855 -0.000296476 0)
(-0.00549507 0.000482661 0)
(-0.00545549 0.00028236 0)
(-0.00550814 0.00100049 0)
(-0.00541615 0.000820007 0)
(-0.00528385 0.00120588 0)
(-0.00513367 0.00142041 0)
(-0.0048867 0.00164586 3.13668e-23)
(-0.00439021 0.00171319 2.53943e-22)
(-0.00372536 0.00198993 -2.24965e-21)
(-0.00333073 0.00203388 6.91591e-22)
(-0.00319392 0.0018799 1.0565e-21)
(-0.00328776 0.00151438 3.71126e-21)
(-0.00269993 0.000806941 -5.71445e-21)
(-0.00330381 0.000708593 9.61837e-21)
(-0.00292796 0.000471492 4.26755e-21)
(-0.000583034 -0.00127148 -5.74299e-21)
(0.00113032 -0.00504481 1.22147e-20)
(0.00101172 -0.00482275 -4.24237e-21)
(-0.00177055 -0.00321343 -2.30757e-20)
(-0.00399005 -0.00115906 6.92994e-21)
(-0.00458996 0.000789205 2.34946e-20)
(-0.00347109 0.00356389 -2.80694e-20)
(-0.000544247 0.00544359 -1.82842e-20)
(0.000472143 0.00356482 -3.4815e-20)
(-0.00081538 0.00396548 3.53544e-21)
(-0.00340958 0.000675686 -4.15101e-21)
(-0.00371452 -0.00100847 1.00854e-21)
(-0.00328028 -0.0010292 7.72576e-22)
(-0.00375839 -0.00172114 -1.49288e-21)
(-0.00365819 -0.00180222 -3.55801e-23)
(-0.00372581 -0.00199211 -6.48478e-22)
(-0.00383434 -0.00180232 -4.4989e-22)
(-0.00401789 -0.00148309 1.23783e-22)
(-0.00430693 -0.00136002 -1.00314e-22)
(-0.00461382 -0.00119503 0)
(-0.00483338 -0.00105578 0)
(-0.00501719 -0.000750744 0)
(-0.00512879 -0.000951215 0)
(-0.00509661 -0.000227501 0)
(-0.00514478 -0.000490455 0)
(-0.00595118 -0.000863245 0)
(-0.005884 0.000410978 0)
(-0.00561162 -0.000132116 0)
(-0.00555519 0.000614773 0)
(-0.00561376 0.00124003 0)
(-0.00568653 0.00190051 0)
(-0.00541189 0.00236036 -1.26835e-22)
(-0.00499638 0.00314932 7.1524e-22)
(-0.00466531 0.00389651 -1.41051e-23)
(-0.00423048 0.00407777 4.30116e-22)
(-0.00393563 0.00508674 -2.80626e-21)
(-0.00345212 0.00556869 3.57293e-21)
(-0.00196996 -0.000226795 -1.50182e-21)
(-0.00431465 0.000960067 -1.61344e-21)
(-0.00100364 0.00042659 1.47761e-21)
(7.39299e-05 -0.0011942 3.94685e-21)
(0.000525605 -0.00165381 -1.314e-21)
(-0.00137472 -0.000729259 -6.95913e-21)
(-0.00414211 0.00109838 -2.38864e-20)
(-0.0059138 0.00194709 -1.94131e-20)
(-0.00553063 0.00153052 1.88268e-21)
(-0.00488073 0.000678295 6.29426e-21)
(-0.00284314 0.000528734 6.90332e-21)
(-0.000219721 0.00176229 -5.57606e-21)
(0.000830541 0.00215448 8.89871e-21)
(-0.000799451 0.000622057 1.57951e-20)
(-0.00341067 0.000246099 -5.87287e-21)
(-0.00252353 0.000488223 9.35922e-22)
(-0.00393805 -0.00522386 -1.70619e-21)
(-0.00435455 -0.00511908 9.82508e-22)
(-0.00459152 -0.00431825 -8.59431e-22)
(-0.00483455 -0.00392502 -9.35194e-22)
(-0.0047675 -0.0031909 1.85045e-21)
(-0.00479149 -0.00228602 -4.62593e-22)
(-0.00506782 -0.00177153 0)
(-0.00510089 -0.00112972 0)
(-0.00511464 -0.00051791 0)
(-0.00523616 0.000183081 0)
(-0.00551243 -0.000364864 0)
(-0.00560505 0.000919538 0)
(-0.00613319 0.000639859 0)
(-0.00627144 0.000384815 0)
(-0.00648591 0.00098266 0)
(-0.00682657 0.00181433 0)
(-0.0068865 0.00207216 0)
(-0.00683509 0.0026859 0)
(-0.0065559 0.00332621 -3.61323e-23)
(-0.00647219 0.00437768 5.81587e-24)
(-0.00629707 0.00558084 -1.34557e-22)
(-0.00604658 0.0068296 1.17554e-21)
(-0.00499725 0.00733745 -5.43903e-22)
(-0.00484205 0.0100697 -1.83478e-21)
(-0.00390366 0.00639119 1.30038e-21)
(9.71937e-05 0.00371404 1.61862e-21)
(0.000732367 0.00480816 -2.15959e-21)
(0.000905962 0.00110718 -4.26758e-22)
(-0.000651387 0.00245541 1.57743e-22)
(-0.00397236 0.00312448 -1.4202e-21)
(-0.00606807 0.00420409 1.59989e-21)
(-0.00550536 0.00538683 -5.96032e-20)
(-0.00163922 0.0028125 -4.91781e-20)
(-0.0019372 -0.0022614 -8.74504e-20)
(-0.00329419 -0.00406331 1.60542e-21)
(-0.00287013 -0.0030128 -2.84622e-22)
(-0.00122833 -0.00231056 1.01627e-22)
(0.00141966 0.000551612 5.57505e-22)
(-0.000105742 -0.00804212 1.85218e-22)
(-0.00361438 -0.00511552 5.39816e-22)
(-0.00485424 -0.00940393 -9.34067e-22)
(-0.00530703 -0.00710651 5.48153e-22)
(-0.00621624 -0.00671711 -2.4543e-22)
(-0.00646646 -0.00565496 2.75572e-22)
(-0.00638502 -0.00457533 -2.63083e-22)
(-0.0060284 -0.00344739 -1.54729e-23)
(-0.00620315 -0.00272021 0)
(-0.00636012 -0.00211485 0)
(-0.00638559 -0.00185573 0)
(-0.00612556 -0.00103401 0)
(-0.0059841 -0.000456208 0)
(-0.00585095 -0.000724993 0)
(-0.00645256 0.00151079 0)
(-0.0065534 0.000621013 0)
(-0.00711264 0.00170446 0)
(-0.00702333 0.00116781 0)
(-0.00718611 0.00151254 0)
(-0.0073425 0.00217913 0)
(-0.00780216 0.0032353 2.52668e-22)
(-0.00792941 0.00429858 3.25668e-22)
(-0.00782235 0.00561437 4.54148e-22)
(-0.00781935 0.00747819 3.44909e-22)
(-0.00617577 0.00744017 6.34196e-22)
(-0.00310695 0.00751555 5.4881e-22)
(-0.00224611 0.0113248 -2.65854e-21)
(0.00529163 0.0070081 6.67409e-22)
(0.00342621 0.00361457 -3.6658e-21)
(0.0012358 0.00242607 -1.17815e-21)
(-0.00155502 0.00163659 -1.76033e-21)
(-0.00311636 -9.98344e-05 -6.60214e-22)
(-0.00674294 -0.000616152 1.57162e-20)
(-0.0128932 -0.0107234 -1.05489e-19)
(-0.00434938 -0.00130026 2.20092e-22)
(-0.0027286 -0.0016746 4.23346e-22)
(0.00125762 -0.00295223 1.25358e-21)
(0.00403542 -0.000194593 7.25746e-22)
(-0.00221682 -0.0104117 -1.60808e-21)
(-0.00305267 -0.00678714 2.50285e-22)
(-0.00609019 -0.00699351 4.63682e-22)
(-0.00742221 -0.00702293 3.15116e-22)
(-0.00770658 -0.00565219 3.10638e-22)
(-0.00781598 -0.00448847 3.22368e-22)
(-0.00737402 -0.00350278 2.52959e-22)
(-0.00679766 -0.00236345 0)
(-0.00675294 -0.00166202 0)
(-0.00670966 -0.00128531 0)
(-0.00681624 -0.00172744 0)
(-0.00630549 -0.000575316 0)
(-0.00623951 -0.00137578 0)
(-0.00773374 -0.00275757 0)
(-0.00706526 -0.000514246 0)
(-0.00613777 -0.000968387 0)
(-0.00626148 -0.00037164 0)
(-0.00718986 0.000678844 0)
(-0.0083216 0.00167742 0)
(-0.00911659 0.00249575 -6.91404e-23)
(-0.00933812 0.00332838 7.75863e-24)
(-0.00970579 0.00430545 1.87194e-22)
(-0.00924948 0.0061892 -4.16646e-22)
(-0.00757483 0.00792188 1.23254e-22)
(-0.00528733 0.00888715 -1.31353e-21)
(8.84585e-05 0.0127627 3.37207e-21)
(0.00362401 0.0103523 -3.7401e-22)
(0.00734927 0.00812302 8.84306e-21)
(0.0082037 -0.00146614 -5.37907e-22)
(0.00301214 -0.0063612 7.50288e-22)
(-0.00470235 -0.00647342 7.70467e-23)
(0.0070786 -0.00515492 1.67687e-18)
(0.0114682 -0.00859612 3.77101e-21)
(-0.0107154 0.0073609 -2.07043e-22)
(0.00180623 0.00825225 -6.65758e-22)
(0.00698169 -0.00112271 -5.43699e-21)
(0.00624041 -0.00719933 -1.15726e-20)
(0.000540932 -0.0117635 -3.11777e-21)
(-0.0047115 -0.00824215 8.93459e-22)
(-0.00737192 -0.00768838 7.60364e-23)
(-0.00895391 -0.00614176 -1.71807e-23)
(-0.00942894 -0.00457742 2.86685e-22)
(-0.00901252 -0.00372914 -5.58615e-24)
(-0.0087245 -0.00301093 -7.25335e-24)
(-0.00784134 -0.00210773 0)
(-0.00684694 -0.00102387 0)
(-0.00602598 9.67094e-05 0)
(-0.00598052 0.000800395 0)
(-0.00692987 0.000363581 0)
(-0.00770893 0.0025711 0)
(-0.00448097 0.000774649 -1.51233e-25)
(-0.00598765 5.7474e-05 0)
(-0.00729139 -0.00024681 0)
(-0.00848979 0.000356178 0)
(-0.00912654 0.000440887 0)
(-0.00980174 0.000745427 0)
(-0.00971422 0.000511657 1.24657e-22)
(-0.00995426 0.000992006 -5.40802e-22)
(-0.0103958 0.00237045 -1.50758e-22)
(-0.0108492 0.00510832 1.99097e-21)
(-0.00998357 0.00994094 -6.84784e-22)
(-0.00558934 0.0150932 -3.76024e-21)
(0.00208033 0.0273347 2.23319e-21)
(0.0132097 0.0242656 -7.92168e-21)
(0.0221532 0.0172518 2.70422e-21)
(0.0313842 -0.0038399 -6.83348e-21)
(0.0232194 -0.0333727 5.42159e-21)
(-0.1012 -0.0398459 -1.82148e-21)
(0.0327053 0.143611 5.18464e-20)
(-0.0158493 -0.149015 -1.89923e-20)
(-0.0710863 0.0510867 -2.69977e-21)
(0.0279705 0.0337906 -1.09195e-21)
(0.0309922 -0.00337109 2.9074e-21)
(0.0192183 -0.0202259 1.29425e-20)
(0.00404899 -0.0263692 -3.09295e-21)
(-0.00425328 -0.0149237 -3.16763e-22)
(-0.00894332 -0.0102323 5.06345e-21)
(-0.0104205 -0.00568997 7.79815e-22)
(-0.0100179 -0.00291789 -1.04305e-21)
(-0.00961889 -0.00147531 1.08451e-22)
(-0.0094298 -0.0012035 1.05123e-22)
(-0.00948491 -0.0013307 0)
(-0.00897514 -0.00102326 0)
(-0.00839257 -0.000882011 0)
(-0.00728942 -0.000202065 0)
(-0.00607406 -0.000263211 0)
(-0.00446686 -0.000756651 0)
(-0.00792523 0.00344214 -7.43593e-25)
(-0.00694345 0.00233806 0)
(-0.00779336 0.00237992 0)
(-0.00826915 0.00148932 0)
(-0.00826023 0.000342022 0)
(-0.00825902 -0.000532443 0)
(-0.00827505 -0.000944748 -1.93506e-23)
(-0.00940873 -0.00077732 4.169e-22)
(-0.0118108 0.00118399 -2.44981e-22)
(-0.0138031 0.00550772 1.72072e-21)
(-0.0170898 0.0132158 -8.32694e-21)
(-0.0193986 0.0244137 4.61212e-21)
(-0.0186658 0.0442427 2.01384e-21)
(-0.00302534 0.051389 -1.07473e-20)
(0.0359033 0.0527506 -1.13693e-20)
(0.0796606 0.0282604 -1.84397e-20)
(0.133931 -0.0568297 6.6182e-21)
(-0.0795419 -0.265192 -1.49348e-20)
(1.12156 -0.812261 -9.59311e-21)
(-0.165834 -1.08671 1.10885e-21)
(-1.69906 0.0385487 -1.13212e-21)
(0.114139 1.17217 1.88362e-20)
(0.811571 0.697943 4.29872e-21)
(-0.00569251 0.246105 -1.05324e-20)
(0.133964 0.0343524 8.97053e-21)
(0.0686355 -0.0419726 8.97665e-23)
(0.0194462 -0.0484428 -2.35452e-20)
(-0.0160384 -0.0445959 8.27693e-22)
(-0.0176932 -0.0245565 -4.69756e-21)
(-0.0163092 -0.0140796 2.05123e-21)
(-0.0132364 -0.00639919 8.69078e-22)
(-0.0114264 -0.00197388 -2.61969e-22)
(-0.00903963 1.75577e-05 4.28291e-22)
(-0.00795086 0.000140048 -1.47211e-22)
(-0.00805318 -4.61078e-05 0)
(-0.0081528 -0.000778117 0)
(-0.00819494 -0.00173487 0)
(-0.00775977 -0.00256771 0)
(-0.00682967 -0.00256968 0)
(-0.0078955 -0.00364026 0)
(-0.00857196 -0.00357841 -3.95008e-22)
(-0.00751403 -0.00244336 0)
(-0.00614063 -0.00238367 0)
(-0.00554374 -0.0027607 0)
(-0.00584421 -0.00347865 0)
(-0.00643164 -0.00396024 0)
(-0.00869354 -0.00235845 -1.45086e-24)
(-0.0108592 -0.000329368 -4.95194e-23)
(-0.0155319 0.00108559 -5.72558e-22)
(-0.0239197 0.00555429 2.37576e-21)
(-0.0332047 0.010235 -3.75505e-21)
(-0.0433737 0.0182911 8.5544e-22)
(-0.0457633 0.0410735 3.35855e-21)
(-0.0148206 0.0620369 -1.03745e-21)
(0.00987116 0.117749 1.26671e-20)
(0.11242 0.20679 -1.41809e-20)
(0.359957 0.174872 -2.56134e-20)
(0.814584 -0.363582 1.03094e-20)
(2.25472 -1.14392 -9.78339e-21)
(-1.41796 -1.00814 1.40518e-19)
(-4.08975 0.114889 -8.07313e-21)
(-0.238586 1.14321 -9.53488e-21)
(1.76524 1.24754 2.12326e-20)
(0.787599 0.146916 3.41234e-20)
(0.267558 -0.18617 2.33034e-20)
(0.0570133 -0.1504 5.67416e-21)
(-0.00552734 -0.0837511 9.18665e-21)
(-0.0435217 -0.0413812 4.47898e-21)
(-0.042665 -0.0198504 1.98318e-21)
(-0.0329244 -0.011869 6.05778e-21)
(-0.0240808 -0.00702762 -5.31386e-21)
(-0.0153477 -0.0021697 2.30312e-21)
(-0.0108042 -0.000921208 -6.94507e-23)
(-0.00856896 0.00129463 -1.02699e-23)
(-0.00677761 0.00306929 0)
(-0.0061144 0.00284088 0)
(-0.00569435 0.00238544 0)
(-0.00625972 0.00219909 0)
(-0.00781134 0.00239716 0)
(-0.00888061 0.0039098 -4.58379e-22)
(-0.00223983 -0.00150841 -1.10129e-21)
(-0.00371389 -0.0036744 0)
(-0.00425277 -0.00529862 0)
(-0.00446425 -0.00531591 0)
(-0.00523462 -0.00517409 0)
(-0.00735737 -0.00509681 0)
(-0.0119302 -0.00439305 0)
(-0.0167698 -0.00286426 4.7869e-23)
(-0.0207859 -0.0025865 5.07476e-22)
(-0.025933 -0.00627542 -3.68891e-22)
(-0.0372671 -0.00879616 -1.9552e-21)
(-0.0557763 -0.00521058 -7.66448e-22)
(-0.0823403 0.00819624 1.78417e-21)
(-0.1388 0.0398695 2.57465e-21)
(-0.121461 0.136362 -2.12324e-22)
(-0.115658 0.35685 1.3217e-20)
(0.250396 0.635648 -2.40542e-20)
(2.46433 0.372393 4.36671e-19)
(1.56818 -0.209932 5.51315e-20)
(-2.11041 0.55719 1.08839e-19)
(-4.39443 -0.113376 1.01489e-20)
(-1.38887 -0.466754 -3.61521e-20)
(2.17704 0.277952 -1.45289e-22)
(2.06205 -0.496602 2.71934e-19)
(-0.0185068 -0.562539 -1.46829e-20)
(-0.12833 -0.234909 9.78839e-21)
(-0.139665 -0.0415722 9.50433e-22)
(-0.0814742 -0.0119356 4.37734e-21)
(-0.0554265 0.00140544 -4.75114e-21)
(-0.036254 0.0064927 2.23879e-21)
(-0.0260024 0.00392112 1.36291e-22)
(-0.0205388 0.00044562 -5.9324e-22)
(-0.0166246 0.00129953 -2.66647e-22)
(-0.0123425 0.00330518 0)
(-0.00817263 0.00423779 0)
(-0.0060819 0.00453673 0)
(-0.00531154 0.00484329 0)
(-0.00498315 0.00498644 0)
(-0.00413276 0.0035043 0)
(-0.0023565 0.00112617 1.10099e-21)
(-0.00158008 0.00096856 -6.63705e-24)
(-0.00245357 -0.00138286 0)
(-0.00377404 -0.00306787 0)
(-0.00475338 -0.00447514 0)
(-0.00555491 -0.00526866 0)
(-0.00734973 -0.00618253 0)
(-0.0108795 -0.00818874 0)
(-0.0135382 -0.0125168 0)
(-0.0142936 -0.0178909 -3.60385e-23)
(-0.0169815 -0.0261734 1.13288e-21)
(-0.0252458 -0.0376195 -1.43726e-21)
(-0.0466316 -0.0510728 2.92203e-21)
(-0.100262 -0.0603989 -5.42138e-21)
(-0.199338 -0.122479 1.64986e-21)
(-0.310516 0.00899549 -3.42944e-21)
(-0.576656 0.210903 2.89683e-21)
(-0.383375 0.669042 -9.69935e-21)
(1.95108 1.80165 -4.77108e-20)
(1.25197 2.96853 -1.15971e-19)
(-0.976867 2.17705 3.27732e-20)
(-1.74428 -0.191704 2.26745e-21)
(-0.631204 -2.42889 1.51962e-20)
(1.70406 -2.9451 -5.77065e-20)
(1.62927 -1.49358 1.73382e-19)
(-0.688595 -0.369294 -7.48251e-21)
(-0.445149 -0.0958164 -7.62749e-21)
(-0.199025 0.116051 2.00291e-21)
(-0.100961 0.0544636 -8.95528e-22)
(-0.0471918 0.0463695 2.24178e-21)
(-0.0254404 0.034286 1.09355e-21)
(-0.017317 0.0229459 -6.6649e-22)
(-0.0147791 0.0152209 1.30319e-22)
(-0.014154 0.0108322 0)
(-0.0117964 0.00732732 0)
(-0.00820296 0.00554056 0)
(-0.00629319 0.0047961 0)
(-0.00543112 0.00398724 -3.74072e-22)
(-0.00441014 0.0025704 -5.17317e-22)
(-0.00314111 0.00100484 -3.08481e-22)
(-0.00245364 -0.00110992 0)
(-0.002274 0.000290539 0)
(-0.00180589 0.000456463 0)
(-0.00212953 0.000307885 0)
(-0.00284972 -0.00126562 0)
(-0.00336494 -0.0029964 0)
(-0.00361911 -0.00565281 0)
(-0.00306595 -0.0102252 0)
(-0.0020643 -0.0181126 0)
(0.000123042 -0.0282263 -5.2275e-25)
(0.00118757 -0.0411205 5.53902e-23)
(0.000553747 -0.0614559 -6.39653e-23)
(-0.00613661 -0.0959061 6.5184e-22)
(-0.0288238 -0.150484 2.87632e-21)
(-0.122659 -0.273789 3.85945e-21)
(-0.35219 -0.322278 -5.56421e-20)
(-0.767827 -0.450959 2.58086e-22)
(-1.48794 -0.170531 9.31698e-21)
(-0.8516 1.36749 1.72975e-20)
(0.926985 2.43319 -1.15312e-20)
(1.68083 1.71933 2.77715e-20)
(2.0097 -0.177058 5.15022e-20)
(1.80526 -2.0112 3.36563e-20)
(0.894731 -2.4282 2.63136e-20)
(-1.25828 -1.08759 -1.03768e-20)
(-1.26789 0.527588 1.14055e-20)
(-0.520668 0.392046 2.06945e-20)
(-0.119582 0.266279 2.01763e-21)
(-0.0294767 0.146906 -2.37683e-22)
(-0.00672456 0.0928362 1.796e-21)
(-0.00103866 0.0592183 -2.5998e-22)
(6.21023e-05 0.039554 2.40372e-23)
(-0.00175301 0.0273115 -5.20938e-25)
(-0.00379532 0.0174764 0)
(-0.00433126 0.00970513 0)
(-0.00440459 0.0051395 0)
(-0.00389321 0.00262506 0)
(-0.00329239 0.000910197 0)
(-0.00259658 -0.000546371 0)
(-0.0024569 -0.000496508 0)
(-0.00301555 -0.000164393 5.55579e-23)
(-0.00193124 6.55728e-06 0)
(-0.00162223 0.00120863 0)
(-0.0011968 0.00161278 0)
(-0.00101229 0.000886375 0)
(-0.000804679 -0.000759595 0)
(0.000729125 -0.00383334 0)
(0.00477355 -0.00833355 0)
(0.00864944 -0.0146979 0)
(0.0134395 -0.0232369 0)
(0.0221955 -0.0340163 0)
(0.0387074 -0.0532563 -4.46859e-24)
(0.0666416 -0.0836207 -4.66832e-23)
(0.121714 -0.160129 -1.3453e-21)
(0.153808 -0.235871 2.74847e-21)
(-0.00801793 -0.533501 -1.32212e-19)
(-0.362434 -1.01081 -1.11597e-21)
(-2.15555 -1.22287 -6.90737e-20)
(-1.74668 -1.6108 -2.50852e-20)
(0.542943 -1.54746 -1.47971e-20)
(2.25985 -1.03343 -9.3418e-20)
(2.77788 -0.236836 -7.3077e-20)
(2.0788 0.660992 -9.72618e-20)
(0.0625164 1.44578 4.20686e-20)
(-2.309 1.63285 -7.9751e-21)
(-1.32118 1.27862 2.90629e-20)
(-0.0610637 0.757728 -1.18827e-22)
(0.158701 0.228416 -6.53468e-22)
(0.121923 0.158026 5.13207e-22)
(0.0654712 0.0818014 -7.07962e-22)
(0.037109 0.0525228 -3.59767e-23)
(0.0216283 0.0344694 0)
(0.0126133 0.0235954 0)
(0.00779426 0.0144895 0)
(0.00400523 0.00782639 0)
(4.16322e-05 0.00333229 0)
(-0.00140817 0.000466609 0)
(-0.0015876 -0.000995344 0)
(-0.00171667 -0.00149909 0)
(-0.00210806 -0.00101731 0)
(-0.00227438 0.000126762 0)
(-0.00309637 -5.21136e-05 0)
(-0.00292068 0.000194268 0)
(-0.00167567 0.000136069 0)
(-0.00026687 -0.000229749 0)
(0.00137408 -0.00134616 0)
(0.00431628 -0.0030341 0)
(0.00936881 -0.00462445 0)
(0.0141746 -0.00525275 0)
(0.0201217 -0.00574213 0)
(0.0335585 -0.00437262 0)
(0.061571 -0.00315081 0)
(0.113953 0.00746558 4.00603e-25)
(0.228237 -0.0208502 -2.72484e-23)
(0.410414 0.0360858 -6.84315e-22)
(0.586279 -0.262775 -4.30418e-20)
(0.535113 -0.790051 4.86689e-20)
(-0.745084 -1.8337 -2.63919e-20)
(-0.878451 -3.00849 -1.28412e-20)
(-0.262684 -2.95639 -3.79196e-21)
(0.290818 -1.63603 2.27738e-20)
(0.349858 0.319018 3.20143e-20)
(0.0262982 2.22129 -8.98786e-20)
(-0.731466 3.30424 -1.62834e-20)
(-1.14864 2.9544 -2.48399e-20)
(0.0968938 1.24623 1.73012e-21)
(0.64669 0.450582 6.44685e-21)
(0.407529 -0.0472435 5.6076e-21)
(0.224719 0.0158577 4.61892e-23)
(0.110774 -0.0110569 -5.37909e-23)
(0.0593317 0.000372166 0)
(0.0327227 0.0030368 0)
(0.0198466 0.00443646 0)
(0.0138426 0.00422092 0)
(0.00868894 0.00390695 0)
(0.00339549 0.00259156 0)
(0.000394713 0.0010365 0)
(-0.00121331 2.13244e-05 0)
(-0.00245147 -0.000290878 0)
(-0.00344138 -0.000361037 0)
(-0.00336531 -0.000103981 0)
(-0.00271856 -0.000877006 0)
(-0.0025545 -0.00203287 0)
(-0.000992838 -0.00294049 0)
(0.000976217 -0.0034235 0)
(0.00300342 -0.00354524 0)
(0.00563484 -0.0028644 0)
(0.00879494 -0.000445571 0)
(0.0112748 0.0051895 0)
(0.0136619 0.0137948 0)
(0.0206056 0.0283119 0)
(0.0371512 0.0534923 7.5677e-22)
(0.0717077 0.112125 0)
(0.160554 0.176729 0)
(0.429166 0.33854 -1.14996e-20)
(1.1486 0.554266 2.49671e-20)
(1.56555 0.104568 -7.2185e-20)
(0.814828 -0.423029 -5.44647e-21)
(-0.480005 -0.711161 -3.61568e-22)
(-1.37416 -0.631237 4.44156e-21)
(-1.81764 -0.157802 5.03476e-20)
(-1.87945 0.398881 4.54525e-20)
(-1.60333 0.859183 -1.15596e-22)
(-0.87533 0.920563 -9.01234e-21)
(0.287934 0.566261 2.1063e-21)
(1.52165 0.0524046 -6.22709e-22)
(1.11553 -0.593236 -1.11426e-20)
(0.402208 -0.350683 -1.70367e-20)
(0.149102 -0.183553 0)
(0.0653184 -0.118039 0)
(0.0326571 -0.0582158 4.98143e-22)
(0.0174687 -0.0315129 0)
(0.011625 -0.0160862 0)
(0.00956498 -0.00626009 0)
(0.00721732 0.000103498 0)
(0.00431618 0.00281729 0)
(0.00182628 0.00349111 0)
(-8.85852e-05 0.00332633 0)
(-0.00199367 0.00272338 6.15656e-23)
(-0.00352101 0.00175204 4.41679e-23)
(-0.00378399 0.00062357 0)
(0.000507209 -0.00168589 0)
(0.000453799 -0.00328403 0)
(0.000927881 -0.00470387 0)
(0.00149733 -0.00494697 0)
(0.00216406 -0.0041584 0)
(0.00247396 -0.00190763 0)
(0.00161344 0.00246378 0)
(-0.000497918 0.00997577 0)
(-0.00551719 0.020878 0)
(-0.0144755 0.0380341 0)
(-0.0309685 0.0672212 1.16449e-21)
(-0.0562364 0.133207 0)
(-0.092028 0.252395 0)
(0.0415202 0.469997 1.62525e-20)
(0.54011 1.00675 -4.64882e-20)
(1.14172 1.78344 -2.38172e-20)
(0.586723 2.23358 0)
(-0.00421088 1.95331 -1.39186e-20)
(-0.483 1.09461 9.10392e-20)
(-0.721232 0.268164 3.1267e-19)