/*--------------------------------*- C++ -*----------------------------------*\
| =========                 |                                                 |
| \\      /  F ield         | OpenFOAM: The Open Source CFD Toolbox           |
|  \\    /   O peration     | Version:  v2106                                 |
|   \\  /    A nd           | Website:  www.openfoam.com                      |
|    \\/     M anipulation  |                                                 |
\*---------------------------------------------------------------------------*/
FoamFile
{
    version     2.0;
    format      ascii;
    arch        "LSB;label=32;scalar=64";
    class       volVectorField;
    location    "0";
    object      U;
}
// * * * * * * * * * * * * * * * * * * * * * * * * * * * * * * * * * * * * * //

dimensions      [0 1 -1 0 0 0 0];

internalField   nonuniform List<vector> 
11644
(
(0.993126 -0.000223408 1.38899e-23)
(0.993022 -0.000593116 3.83043e-23)
(0.992957 -0.000881609 2.05512e-23)
(0.992939 -0.00117571 0)
(0.992935 -0.00148803 0)
(0.992935 -0.00181465 0)
(0.992936 -0.00215264 0)
(0.992937 -0.00249537 0)
(0.992937 -0.00283531 0)
(0.992945 -0.00315222 0)
(0.992918 -0.00344355 0)
(0.992893 -0.00367646 0)
(0.992972 -0.0038158 0)
(0.993128 -0.00387522 0)
(0.992941 -0.0037914 0)
(0.992962 -0.0036267 0)
(0.993053 -0.00341614 0)
(0.99297 -0.00307194 0)
(0.992659 -0.00238019 0)
(0.992398 -0.00136664 3.34502e-30)
(0.99236 -0.000273102 -3.33499e-30)
(0.992511 0.000715103 0)
(0.992727 0.00148162 0)
(0.992886 0.00207711 0)
(0.992879 0.00252522 0)
(0.992871 0.0028599 0)
(0.993028 0.00309202 0)
(0.992874 0.00318141 0)
(0.992877 0.00316292 0)
(0.992909 0.00304532 0)
(0.992901 0.00286012 0)
(0.992914 0.00261696 0)
(0.992917 0.00234165 0)
(0.992922 0.00204477 0)
(0.992925 0.00173925 0)
(0.992929 0.00143467 0)
(0.992935 0.00114123 0)
(0.99295 0.000861974 0)
(0.993013 0.000591146 0)
(0.993125 0.000225934 2.69311e-24)
(0.993888 -0.000444735 1.78415e-23)
(0.993821 -0.00135043 1.6527e-23)
(0.993782 -0.00226683 8.8761e-24)
(0.993788 -0.00318848 0)
(0.993822 -0.00412642 0)
(0.993861 -0.00509089 0)
(0.993897 -0.00607735 0)
(0.993921 -0.00707334 0)
(0.993925 -0.00805358 0)
(0.993877 -0.00898819 0)
(0.993821 -0.00980545 0)
(0.993705 -0.0104666 0)
(0.993388 -0.0109011 0)
(0.992869 -0.0110031 0)
(0.992718 -0.0107491 0)
(0.992343 -0.0101276 -2.18504e-24)
(0.991752 -0.00892895 -8.77028e-24)
(0.990953 -0.00702818 -1.42828e-23)
(0.990299 -0.00457542 9.74018e-23)
(0.990057 -0.00199615 8.48397e-22)
(0.990122 0.000507901 -8.78532e-22)
(0.990388 0.00288931 6.3908e-23)
(0.990774 0.00507478 -1.14351e-22)
(0.99118 0.00696351 1.43241e-23)
(0.99171 0.00847007 -3.12077e-24)
(0.992212 0.00948217 0)
(0.99241 0.0100593 0)
(0.993015 0.0101812 0)
(0.99331 0.00996962 0)
(0.993488 0.0094965 0)
(0.993647 0.00880297 0)
(0.993721 0.00798302 0)
(0.993767 0.00707685 0)
(0.993782 0.00612949 0)
(0.993776 0.00517097 0)
(0.993758 0.00422167 0)
(0.993741 0.00328641 0)
(0.99375 0.00235447 0)
(0.993813 0.00140798 0)
(0.993899 0.000467325 0)
(0.995392 -0.000688926 0)
(0.995363 -0.00210364 0)
(0.995373 -0.00357348 0)
(0.995434 -0.00507206 0)
(0.995531 -0.00660013 1.62979e-23)
(0.99564 -0.00816929 0)
(0.995736 -0.00977615 0)
(0.995796 -0.0114013 0)
(0.995782 -0.0130108 0)
(0.995674 -0.0145375 0)
(0.995386 -0.0159209 0)
(0.994858 -0.0170446 0)
(0.994183 -0.017731 2.92412e-24)
(0.993447 -0.017906 -9.26051e-23)
(0.992046 -0.017342 3.11793e-22)
(0.990533 -0.0159188 5.44895e-22)
(0.988743 -0.013435 -2.53884e-22)
(0.986965 -0.00993186 -2.76589e-22)
(0.985794 -0.0058544 -1.57886e-22)
(0.985306 -0.00142056 -2.11519e-21)
(0.985402 0.00311195 1.72418e-21)
(0.985997 0.00745471 -8.6542e-23)
(0.987026 0.011339 9.3437e-22)
(0.988426 0.0145448 -8.38263e-22)
(0.989812 0.0168461 5.4119e-22)
(0.99116 0.0182815 -3.46754e-22)
(0.992814 0.0188748 1.1568e-22)
(0.993557 0.0187954 -3.69226e-24)
(0.994343 0.0181028 0)
(0.99495 0.0169487 0)
(0.995312 0.0155169 0)
(0.995521 0.0138987 0)
(0.995597 0.0122026 0)
(0.995595 0.0104804 0)
(0.99555 0.00877324 0)
(0.995487 0.00710027 0)
(0.995431 0.0054611 0)
(0.995406 0.00384935 0)
(0.995428 0.002263 0)
(0.995481 0.000731829 0)
(0.997627 -0.000934413 0)
(0.997626 -0.00283803 0)
(0.99769 -0.00481183 0)
(0.997822 -0.00683125 0)
(0.998 -0.00891708 0)
(0.998198 -0.0110673 0)
(0.998378 -0.0132819 0)
(0.998491 -0.0155434 0)
(0.998476 -0.0178076 0)
(0.998237 -0.0200131 0)
(0.997694 -0.0220356 -2.22429e-24)
(0.996825 -0.0237067 2.03596e-23)
(0.995365 -0.0248682 1.80302e-22)
(0.99302 -0.0252267 -3.39304e-22)
(0.990647 -0.0243777 7.74064e-22)
(0.987414 -0.0221088 -5.22295e-22)
(0.98375 -0.0182521 -1.74458e-22)
(0.980447 -0.0131355 1.74199e-21)
(0.978164 -0.00682626 -2.90909e-21)
(0.977081 0.000274137 4.85299e-21)
(0.977176 0.00757273 -3.85235e-21)
(0.978334 0.0144213 1.8081e-22)
(0.980551 0.0203846 -1.42951e-22)
(0.983549 0.024985 1.36086e-21)
(0.986837 0.0281283 -4.12854e-22)
(0.990095 0.0297886 -9.59778e-22)
(0.992305 0.0302273 4.03825e-22)
(0.994972 0.0292362 -1.26235e-22)
(0.996607 0.0275808 -7.86523e-23)
(0.997629 0.0254133 2.70407e-24)
(0.99823 0.0229109 0)
(0.998505 0.020269 0)
(0.998572 0.0175925 0)
(0.998498 0.0149644 0)
(0.998354 0.0124194 0)
(0.998187 0.0099737 0)
(0.998035 0.00762443 0)
(0.99793 0.00535753 0)
(0.99789 0.00316202 0)
(0.997909 0.00105091 0)
(1.00051 -0.00116246 0)
(1.00054 -0.0035464 0)
(1.00068 -0.00596142 0)
(1.00091 -0.00847084 0)
(1.0012 -0.0110724 0)
(1.00152 -0.0137914 0)
(1.00182 -0.016627 0)
(1.00203 -0.0195667 0)
(1.00204 -0.0225777 0)
(1.00172 -0.0255929 -6.6564e-24)
(1.00098 -0.0284699 -1.48225e-22)
(0.999473 -0.0310869 -1.44734e-22)
(0.997063 -0.0330498 -1.04842e-21)
(0.993944 -0.0338792 1.836e-21)
(0.988736 -0.0332176 1.19286e-22)
(0.982972 -0.0303959 -1.2825e-21)
(0.977155 -0.0256902 6.63527e-22)
(0.970918 -0.018611 2.15845e-21)
(0.966266 -0.0090646 -2.73867e-21)
(0.963902 0.00235141 2.28055e-21)
(0.964381 0.0142905 -1.41023e-21)
(0.967563 0.0252223 -2.9824e-22)
(0.972476 0.0339185 3.29379e-23)
(0.978452 0.0397013 -9.46035e-22)
(0.984145 0.0431345 2.1674e-21)
(0.989617 0.0445438 -7.1502e-22)
(0.99505 0.0435868 -2.12873e-21)
(0.997775 0.0416855 1.11401e-21)
(1.0002 0.0385516 3.78783e-22)
(1.00179 0.0347845 1.19806e-22)
(1.00263 0.0308211 -7.70326e-24)
(1.00291 0.0268656 0)
(1.00284 0.0230428 0)
(1.00259 0.0194003 0)
(1.00224 0.0159644 0)
(1.00188 0.012728 0)
(1.00156 0.00967696 0)
(1.00132 0.00678114 0)
(1.00117 0.00399486 0)
(1.00114 0.00130011 0)
(1.00397 -0.00140732 0)
(1.00405 -0.00419014 0)
(1.00427 -0.00708402 0)
(1.00462 -0.0100374 0)
(1.00508 -0.0131252 0)
(1.00558 -0.0163845 0)
(1.00608 -0.0198391 0)
(1.00648 -0.0234996 0)
(1.00664 -0.0273693 -1.66988e-23)
(1.00643 -0.0313826 9.01374e-23)
(1.0055 -0.0354914 -5.21712e-23)
(1.00354 -0.0394173 -7.03582e-22)
(1.00016 -0.0427883 1.12515e-21)
(0.994102 -0.0454536 1.05255e-21)
(0.987302 -0.0454396 1.38082e-21)
(0.977953 -0.0428141 -3.2946e-21)
(0.966815 -0.0376073 7.00232e-22)
(0.956311 -0.0281074 3.49024e-22)
(0.947681 -0.0136112 -1.16466e-21)
(0.943317 0.0035204 -3.04814e-21)
(0.944129 0.0214328 2.88328e-21)
(0.950022 0.0381675 -1.11858e-21)
(0.95953 0.0518348 2.49341e-21)
(0.971117 0.059881 3.88358e-23)
(0.98177 0.06274 2.94002e-21)
(0.991181 0.0631443 -1.71284e-21)
(0.997508 0.0611875 -1.21627e-21)
(1.00356 0.0556333 -4.46915e-22)
(1.00658 0.0501613 1.72881e-22)
(1.00818 0.0444789 -6.40494e-22)
(1.00891 0.0387563 1.91253e-22)
(1.00897 0.0332725 6.55519e-24)
(1.00857 0.0281566 0)
(1.00794 0.0234432 0)
(1.00723 0.0191128 0)
(1.00654 0.0151308 0)
(1.00595 0.0114469 0)
(1.00548 0.00800078 0)
(1.00518 0.00474112 0)
(1.00506 0.00157504 0)
(1.00796 -0.00153361 0)
(1.00809 -0.00473426 0)
(1.00843 -0.00796533 0)
(1.00896 -0.0113388 0)
(1.00963 -0.01491 0)
(1.01041 -0.0187118 0)
(1.01122 -0.0228012 0)
(1.01196 -0.0272348 3.06154e-24)
(1.01251 -0.032068 3.67436e-23)
(1.01255 -0.0373667 -2.14554e-22)
(1.01167 -0.043 -3.26454e-22)
(1.00942 -0.0488191 6.88177e-22)
(1.00524 -0.0548482 1.47873e-22)
(0.999656 -0.0593392 -1.18566e-21)
(0.988111 -0.0637101 1.79354e-21)
(0.974055 -0.0634942 -1.56546e-21)
(0.963259 -0.0527755 1.99599e-22)
(0.947513 -0.0428971 -4.0999e-21)
(0.932691 -0.0254634 -5.30419e-21)
(0.923496 -0.00168645 2.59455e-21)
(0.923037 0.0246593 4.48091e-21)
(0.9311 0.0485451 2.33965e-21)
(0.944708 0.0668438 -5.04294e-22)
(0.961015 0.0774077 -3.95655e-21)
(0.981453 0.0902381 1.51545e-21)
(0.995984 0.0873725 -2.44997e-21)
(1.00807 0.0790288 1.229e-21)
(1.0125 0.0716909 -4.94948e-22)
(1.01603 0.0624485 -1.00666e-23)
(1.01742 0.053738 -2.66451e-22)
(1.01748 0.045915 2.40217e-22)
(1.01683 0.0388522 1.74394e-22)
(1.01578 0.0324685 1.02961e-24)
(1.01451 0.0267384 0)
(1.01322 0.0216185 0)
(1.01204 0.0170173 0)
(1.01104 0.0128284 0)
(1.01027 0.0089586 0)
(1.00976 0.0052623 0)
(1.00953 0.00174906 0)
(1.01236 -0.00177673 0)
(1.01257 -0.00522997 0)
(1.01306 -0.00879744 0)
(1.0138 -0.0125269 0)
(1.01478 -0.0164698 0)
(1.01594 -0.0207383 0)
(1.01722 -0.0254177 0)
(1.01854 -0.0306231 -7.95944e-24)
(1.0197 -0.0364728 5.908e-23)
(1.02029 -0.0430403 -2.57582e-22)
(1.01998 -0.0503244 -3.05527e-22)
(1.0184 -0.0582949 -4.16628e-22)
(1.01518 -0.0665921 7.53434e-22)
(1.00508 -0.0738885 -2.57675e-22)
(0.996321 -0.077949 1.44897e-21)
(0.980407 -0.0833524 -4.7322e-22)
(0.95551 -0.0836928 -4.09136e-22)
(0.928449 -0.0734808 -2.25762e-22)
(0.899823 -0.0508618 -5.6519e-22)
(0.879712 -0.01377 -1.05104e-21)
(0.876858 0.0310209 -4.43755e-21)
(0.892465 0.0718107 3.05687e-21)
(0.919967 0.0999962 -4.40134e-21)
(0.950962 0.113046 4.62597e-21)
(0.978596 0.116117 -2.69144e-21)
(1.00011 0.108473 3.98741e-22)
(1.01362 0.0975736 2.32567e-21)
(1.02762 0.0860653 -1.00717e-21)
(1.02992 0.0734942 1.65781e-21)
(1.02993 0.061829 -6.0371e-22)
(1.02854 0.0515485 2.0343e-22)
(1.02655 0.0428244 -1.42854e-24)
(1.02437 0.0353581 -3.45121e-23)
(1.02215 0.0288432 0)
(1.02003 0.0231228 0)
(1.01817 0.0180637 0)
(1.01664 0.0135246 0)
(1.01547 0.00937361 0)
(1.0147 0.0055349 0)
(1.01434 0.00177921 0)
(1.01711 -0.00175059 0)
(1.0174 -0.00549285 0)
(1.01807 -0.009323 0)
(1.0191 -0.0133236 0)
(1.02046 -0.0176093 0)
(1.02213 -0.0222866 0)
(1.02406 -0.027475 -2.59046e-24)
(1.02619 -0.0333306 1.28613e-23)
(1.02815 -0.0400184 -5.24989e-23)
(1.02973 -0.0475582 2.60298e-23)
(1.03075 -0.0562127 -2.12095e-22)
(1.03088 -0.0666331 3.61044e-22)
(1.0291 -0.0807065 -2.95974e-22)
(1.01887 -0.0923123 8.46373e-22)
(1.00892 -0.103561 -3.22239e-22)
(0.990351 -0.119071 7.69402e-22)
(0.961587 -0.123832 5.83647e-22)
(0.916477 -0.123702 -1.20396e-21)
(0.863658 -0.0998251 2.10099e-21)
(0.817986 -0.0446778 1.55438e-21)
(0.805258 0.0336877 -3.17544e-22)
(0.833073 0.104796 -8.3522e-21)
(0.884744 0.147596 -5.04823e-21)
(0.939755 0.162157 -5.10039e-22)
(0.98338 0.155362 -2.87009e-21)
(1.01745 0.14162 -1.47821e-22)
(1.03279 0.121817 4.59141e-22)
(1.04847 0.101426 -4.24516e-22)
(1.04857 0.0825815 7.51694e-22)
(1.04598 0.0674031 -2.97708e-22)
(1.04212 0.0548487 1.41808e-22)
(1.03797 0.0446231 2.51473e-23)
(1.03402 0.0362854 -2.70527e-22)
(1.03051 0.0293169 -6.5066e-24)
(1.02734 0.0233397 0)
(1.02465 0.0181514 0)
(1.02248 0.0135705 0)
(1.02084 0.00941007 0)
(1.01977 0.00554308 0)
(1.01925 0.00188521 0)
(1.02207 -0.00200417 0)
(1.02247 -0.0057274 0)
(1.02335 -0.00962775 0)
(1.02472 -0.0137349 0)
(1.02655 -0.0181989 0)
(1.02885 -0.0230993 0)
(1.03161 -0.0286007 3.02625e-23)
(1.03465 -0.0348607 -1.14173e-22)
(1.03754 -0.0418762 8.70503e-24)
(1.04055 -0.0498648 9.24117e-23)
(1.04373 -0.0595235 3.02042e-23)
(1.04702 -0.0716368 -1.13492e-22)
(1.05003 -0.0886668 8.31761e-23)
(1.04491 -0.106841 -1.77878e-24)
(1.0385 -0.127826 -1.44432e-23)
(1.01759 -0.157926 2.78289e-22)
(0.984323 -0.183481 -1.68237e-22)
(0.922879 -0.211668 -3.22212e-22)
(0.820947 -0.211209 1.3101e-21)
(0.700277 -0.132829 -1.53039e-21)
(0.649047 0.0319977 -1.09181e-21)
(0.720357 0.187563 7.26036e-23)
(0.845454 0.251482 -1.22997e-21)
(0.945625 0.244096 1.05945e-21)
(1.01352 0.212881 -1.87121e-23)
(1.05463 0.176171 -9.17687e-22)
(1.06636 0.140086 -4.32598e-22)
(1.07768 0.109209 2.6566e-22)
(1.07226 0.0862211 -7.01865e-22)
(1.06537 0.0687474 4.31614e-22)
(1.0579 0.0547882 8.77102e-23)
(1.05071 0.0435843 -6.83686e-23)
(1.04433 0.0348098 -3.91408e-23)
(1.03909 0.0278452 -3.40774e-23)
(1.03471 0.0220273 0)
(1.03107 0.0170539 0)
(1.0282 0.0126989 0)
(1.02607 0.00881823 0)
(1.02466 0.00513378 0)
(1.024 0.00168214 0)
(1.02709 -0.00171876 0)
(1.0276 -0.0056145 0)
(1.02874 -0.00951706 0)
(1.03049 -0.0136686 0)
(1.03287 -0.0181368 0)
(1.03589 -0.0230563 0)
(1.03954 -0.028573 6.22609e-24)
(1.0434 -0.0347507 -4.24899e-24)
(1.0473 -0.0414825 -4.21567e-23)
(1.05203 -0.0491084 1.75195e-23)
(1.05812 -0.0586857 -4.89834e-23)
(1.06601 -0.0709729 9.11546e-23)
(1.07564 -0.0861344 -1.5075e-22)
(1.07977 -0.109812 3.92037e-22)
(1.08502 -0.140127 -5.40514e-23)
(1.08294 -0.185503 -3.02717e-22)
(1.06437 -0.248359 -1.38039e-22)
(1.00988 -0.348227 -1.08001e-22)
(0.843211 -0.462109 -1.40788e-21)
(0.467238 -0.443665 -5.90694e-20)
(0.1871 0.0421954 -2.67756e-21)
(0.50976 0.493709 -4.1268e-20)
(0.872254 0.484851 1.93768e-21)
(1.03388 0.363566 -6.5257e-23)
(1.09366 0.264863 3.24804e-23)
(1.11609 0.19189 1.65158e-22)
(1.11272 0.147914 1.16197e-22)
(1.1118 0.103296 -1.72101e-23)
(1.09951 0.0817021 3.63481e-23)
(1.08703 0.064129 2.59295e-23)
(1.0749 0.050083 -8.61195e-23)
(1.064 0.0390622 4.51533e-23)
(1.05466 0.0306284 -5.25913e-24)
(1.04726 0.0242055 7.70243e-24)
(1.04156 0.0190657 0)
(1.03694 0.014699 0)
(1.03335 0.0109001 0)
(1.03074 0.00749648 0)
(1.02909 0.00447727 0)
(1.02826 0.00140323 0)
(1.03197 -0.00187544 0)
(1.03265 -0.0053925 0)
(1.03405 -0.00907354 0)
(1.0362 -0.0130019 0)
(1.03915 -0.0172425 0)
(1.0429 -0.0219279 0)
(1.04732 -0.0270946 1.35787e-23)
(1.05174 -0.032607 3.55126e-23)
(1.05651 -0.0383533 5.89428e-23)
(1.06295 -0.0447298 6.89614e-23)
(1.07174 -0.0523055 1.51224e-22)
(1.08395 -0.0616815 2.47908e-22)
(1.10138 -0.073575 -5.726e-22)
(1.11293 -0.09578 -2.06822e-22)
(1.13925 -0.122372 -9.6785e-24)
(1.16452 -0.171007 -3.595e-22)
(1.199 -0.246739 -1.13572e-22)
(1.2508 -0.39116 1.54227e-21)
(0.955376 -0.517427 -1.00368e-19)
(1.06556 0.556579 4.81405e-20)
(1.25667 0.393992 -3.23164e-23)
(1.21581 0.253917 8.6791e-24)
(1.19064 0.170672 -7.22078e-23)
(1.16527 0.131102 -6.02735e-23)
(1.14746 0.0846229 1.30265e-22)
(1.12681 0.0667461 -7.56363e-23)
(1.10808 0.0517476 -5.54585e-23)
(1.09114 0.0399051 -2.10132e-23)
(1.07651 0.0307114 5.04553e-24)
(1.06418 0.023716 1.47768e-23)
(1.05445 0.0185258 2.01128e-23)
(1.04742 0.014603 0)
(1.04202 0.0113522 0)
(1.03788 0.00852828 0)
(1.03481 0.00595049 0)
(1.03276 0.00350153 0)
(1.03178 0.00127548 0)
(1.0366 -0.00170785 0)
(1.03744 -0.00490851 0)
(1.03912 -0.00827069 0)
(1.04164 -0.0117278 0)
(1.04509 -0.0155081 0)
(1.04948 -0.0196866 0)
(1.05438 -0.0241656 -3.92921e-24)
(1.05894 -0.0285484 -1.34353e-23)
(1.06415 -0.0327799 -2.09612e-24)
(1.07166 -0.0371701 7.81102e-23)
(1.08209 -0.0417585 -1.15732e-22)
(1.09649 -0.0463831 1.90707e-22)
(1.11745 -0.0508934 3.11228e-22)
(1.13775 -0.0652538 3.58122e-22)
(1.17747 -0.0759992 5.35957e-21)
(1.2251 -0.103196 -3.60138e-22)
(1.30187 -0.140476 -1.61866e-22)
(1.42427 -0.182897 2.54302e-21)
(0.0210725 -0.00418886 5.57859e-19)
(0.0344857 -0.0114181 -1.33843e-19)
(1.4054 0.23237 -2.36897e-22)
(1.31112 0.171756 6.25631e-23)
(1.25276 0.115955 1.25568e-21)
(1.2106 0.0885785 1.70485e-21)
(1.17572 0.0518808 2.94731e-22)
(1.14833 0.0412252 -1.19202e-22)
(1.12474 0.0319029 -6.56702e-23)
(1.10418 0.0246205 5.03706e-23)
(1.08656 0.0188409 -6.12977e-24)
(1.07163 0.0143517 -1.32709e-24)
(1.05978 0.0111139 4.1285e-25)
(1.05148 0.00885286 0)
(1.04542 0.00700087 0)
(1.04083 0.0053108 0)
(1.03754 0.00375312 0)
(1.03537 0.00222054 0)
(1.03427 0.000680772 0)
(1.04078 -0.00103952 -6.73892e-25)
(1.04167 -0.00391639 0)
(1.04355 -0.00674039 0)
(1.04645 -0.0097589 0)
(1.05038 -0.0129855 0)
(1.05529 -0.016484 0)
(1.06025 -0.019997 -1.5856e-24)
(1.06451 -0.0231183 -2.85682e-23)
(1.06971 -0.0258147 1.65564e-22)
(1.07741 -0.0282155 -5.93129e-22)
(1.08814 -0.0300085 3.81693e-22)
(1.10241 -0.0303058 7.86144e-22)
(1.12201 -0.0267961 -7.27635e-22)
(1.14394 -0.0293307 3.13654e-22)
(1.18143 -0.0215291 1.97239e-22)
(1.23356 -0.0173025 -1.34069e-22)
(1.31219 -0.00839287 1.63607e-22)
(1.35245 0.0221575 -3.06267e-22)
(0.205173 0.0105282 -4.50695e-21)
(0.0788626 0.0389927 1.00764e-20)
(1.37591 0.0873291 1.9404e-22)
(1.34958 0.0748157 -6.43359e-22)
(1.28553 0.0448487 1.44722e-22)
(1.23707 0.0322023 4.76249e-22)
(1.19057 0.00969329 -1.06165e-22)
(1.15978 0.00871015 -5.19322e-22)
(1.13369 0.00697237 4.25834e-22)
(1.11144 0.00570756 -1.69542e-22)
(1.09236 0.00446367 1.04991e-22)
(1.07603 0.00339702 1.84196e-23)
(1.06275 0.00269955 1.12293e-23)
(1.05359 0.00242038 0)
(1.04728 0.00217171 0)
(1.04257 0.0017946 0)
(1.03923 0.00135401 0)
(1.03713 0.000852506 0)
(1.03608 0.000291236 0)
(1.04428 -0.00120539 3.0245e-26)
(1.04537 -0.00311035 0)
(1.04752 -0.00523305 0)
(1.05067 -0.00751673 0)
(1.05487 -0.00990806 0)
(1.06001 -0.0124836 0)
(1.06467 -0.0149447 7.25305e-25)
(1.06849 -0.0170251 7.13698e-24)
(1.07344 -0.0186741 -5.80453e-23)
(1.08059 -0.0198314 1.98723e-22)
(1.08986 -0.020012 1.41997e-22)
(1.10055 -0.0181205 -9.52411e-23)
(1.11283 -0.0127416 1.33191e-22)
(1.12894 -0.00269288 -1.72523e-21)
(1.15148 0.0170591 3.84094e-22)
(1.1867 0.0523997 -2.59987e-21)
(1.24599 0.107714 -8.56421e-23)
(1.25074 0.208046 1.98429e-21)
(0.422294 0.198274 -1.15925e-21)
(-0.169995 0.214342 -2.79229e-21)
(-0.197264 0.38945 1.23151e-22)
(0.0775787 0.419775 -3.29869e-23)
(0.324414 0.139321 1.30948e-21)
(1.36228 0.00629615 -1.44813e-23)
(1.36679 -0.0181154 2.60678e-21)
(1.29426 -0.0331729 -2.56201e-21)
(1.24129 -0.0297596 9.6532e-22)
(1.18916 -0.035668 5.64526e-22)
(1.15838 -0.0264057 -3.49448e-22)
(1.13279 -0.0199172 1.04234e-22)
(1.11102 -0.0144766 1.65458e-22)
(1.0923 -0.0106794 1.62299e-23)
(1.07614 -0.00798741 1.92112e-23)
(1.06262 -0.0057892 1.50893e-24)
(1.05333 -0.00387335 0)
(1.04724 -0.00249072 0)
(1.04278 -0.00159952 0)
(1.03958 -0.00102467 0)
(1.03753 -0.000632377 0)
(1.03645 -0.000277135 0)
(1.04749 -0.000814169 -1.20519e-24)
(1.04847 -0.00212252 0)
(1.05057 -0.00345809 0)
(1.05377 -0.00482417 0)
(1.05807 -0.0062498 0)
(1.06326 -0.00780931 0)
(1.0678 -0.00937694 -7.20134e-25)
(1.07129 -0.0107373 -7.3024e-23)
(1.07605 -0.0120892 -2.415e-24)
(1.08224 -0.0133493 1.26444e-22)
(1.08931 -0.0143039 -2.83757e-23)
(1.0963 -0.0148366 -7.33565e-23)
(1.10182 -0.014321 1.12162e-22)
(1.10714 -0.00304055 -2.01738e-21)
(1.10404 0.0166322 -6.04765e-22)
(1.09021 0.0659675 1.95256e-21)
(1.08837 0.150838 -7.93807e-21)
(0.962353 0.33183 -9.03668e-21)
(0.298298 0.570466 3.22555e-22)
(-0.343687 0.692356 -1.6137e-20)
(-0.16324 0.60144 5.52945e-23)
(0.444752 0.354905 -3.86852e-21)
(0.842771 0.0455543 -1.16105e-21)
(1.43865 -0.138192 -2.15847e-21)
(1.36417 -0.131921 5.06704e-21)
(1.27702 -0.119633 3.25318e-21)
(1.22334 -0.0920641 -3.65216e-21)
(1.16946 -0.0781796 9.91396e-22)
(1.14263 -0.0585257 -1.41497e-21)
(1.12063 -0.0440918 -1.5678e-22)
(1.10195 -0.0325561 -9.71538e-23)
(1.08564 -0.0240052 2.16924e-23)
(1.07117 -0.0176453 1.85382e-23)
(1.05881 -0.0128502 4.40116e-25)
(1.0505 -0.00914021 0)
(1.04523 -0.00639533 0)
(1.04135 -0.00436488 0)
(1.03855 -0.00281454 0)
(1.03671 -0.0015501 0)
(1.03582 -0.000458421 1.90482e-23)
(1.04883 4.15281e-05 1.35976e-22)
(1.04998 -0.000517961 0)
(1.05202 -0.00103711 0)
(1.05523 -0.00157271 0)
(1.05967 -0.00208847 0)
(1.06502 -0.00264025 0)
(1.06979 -0.00340186 0)
(1.07336 -0.0044749 -3.9451e-24)
(1.07833 -0.00607769 -7.94064e-23)
(1.08489 -0.00871697 1.00086e-22)
(1.09189 -0.0125014 -1.03638e-22)
(1.09814 -0.0175841 5.08305e-22)
(1.10069 -0.0241616 -3.87966e-22)
(1.09205 -0.0360669 -1.84459e-22)
(1.07241 -0.020556 1.0185e-22)
(1.02455 -0.0117507 1.34771e-21)
(0.942235 0.0447863 7.92782e-22)
(0.625797 0.199412 1.96082e-20)
(0.00892237 0.452759 3.74051e-21)
(-0.206683 0.395868 4.88183e-21)
(0.201758 0.108848 6.79875e-21)
(0.776506 -0.125628 2.56543e-20)
(1.22409 -0.326357 2.95519e-21)
(1.39902 -0.346188 -1.64613e-20)
(1.28326 -0.262791 -1.70875e-21)
(1.22348 -0.200421 -2.69575e-21)
(1.15792 -0.149167 -9.10514e-22)
(1.13214 -0.110435 9.58115e-22)
(1.1139 -0.0821207 -6.14791e-22)
(1.09866 -0.061135 1.6684e-22)
(1.08545 -0.0446956 -1.90578e-22)
(1.07335 -0.0326655 1.20525e-22)
(1.06207 -0.0236781 2.21389e-24)
(1.0521 -0.0171567 0)
(1.04556 -0.0123876 0)
(1.04157 -0.00885676 0)
(1.03864 -0.00612247 0)
(1.0365 -0.00395987 0)
(1.0351 -0.00213029 0)
(1.03452 -0.000630607 2.78568e-24)
(1.04839 0.000284259 -3.88217e-24)
(1.04974 0.000896088 0)
(1.05201 0.00151289 0)
(1.05532 0.00197974 0)
(1.0598 0.0024311 0)
(1.06527 0.00290882 0)
(1.07059 0.00304809 0)
(1.07512 0.002243 0)
(1.08115 0.000197677 2.81067e-24)
(1.08915 -0.00337994 1.32533e-23)
(1.09844 -0.00909009 2.88712e-23)
(1.10832 -0.0183258 -7.72998e-23)
(1.11631 -0.031299 6.60895e-23)
(1.11798 -0.0569483 4.05098e-22)
(1.09002 -0.0747708 -5.67871e-22)
(1.04394 -0.120463 1.57954e-21)
(0.888569 -0.142294 1.39395e-21)
(0.337884 -0.0266011 2.16342e-21)
(0.0531476 -0.0783394 1.25889e-21)
(0.176938 -0.344993 -1.61759e-21)
(0.555378 -0.603236 8.70957e-21)
(0.943417 -0.716296 -2.52233e-21)
(1.20596 -0.641476 -2.66267e-23)
(1.2231 -0.462266 -6.53224e-21)
(1.1603 -0.333173 9.02208e-23)
(1.13392 -0.249004 -2.97569e-21)
(1.08944 -0.171415 2.86416e-22)
(1.08265 -0.124549 -3.43724e-22)
(1.07601 -0.0926202 -1.37861e-22)
(1.06998 -0.0681488 -1.69476e-23)
(1.06405 -0.0492356 -3.72417e-23)
(1.05766 -0.0354423 -1.06683e-23)
(1.05063 -0.0252771 0)
(1.04396 -0.0180275 0)
(1.03966 -0.0130473 0)
(1.03713 -0.00942326 0)
(1.03524 -0.00656595 2.5727e-23)
(1.03384 -0.00432388 3.55788e-23)
(1.03295 -0.0024235 2.1216e-23)
(1.03257 -0.000802067 0)
(1.04715 0.000599743 0)
(1.04839 0.00207902 0)
(1.05064 0.00369483 0)
(1.05392 0.00529582 0)
(1.05835 0.00690372 0)
(1.06394 0.00858155 0)
(1.07008 0.0100031 0)
(1.07633 0.0102116 0)
(1.08437 0.00883667 -7.03379e-26)
(1.09494 0.00587348 3.55218e-24)
(1.10832 0.000886393 -2.64898e-23)
(1.12528 -0.00833895 -1.84484e-22)
(1.14477 -0.0225824 1.91394e-22)
(1.16519 -0.0452497 -9.96286e-22)
(1.15899 -0.091726 1.71095e-21)
(1.15794 -0.168507 -6.07686e-22)
(0.907943 -0.252096 -1.90182e-21)
(0.4098 -0.351737 5.36998e-22)
(0.366287 -0.555078 1.78813e-21)
(0.491195 -0.731414 -4.45304e-21)
(0.688085 -0.802079 2.71678e-21)
(0.854145 -0.751433 1.04358e-20)
(0.946697 -0.61879 -3.48269e-21)
(1.01135 -0.472828 1.26861e-21)
(1.01993 -0.335422 -5.7208e-22)
(1.0268 -0.244964 1.5606e-21)
(1.01877 -0.16239 -1.98938e-22)
(1.02865 -0.117122 4.56707e-22)
(1.03481 -0.086997 -1.90145e-22)
(1.03885 -0.0632626 -2.2946e-23)
(1.04063 -0.0453168 9.35053e-25)
(1.04023 -0.0320796 4.78332e-26)
(1.03812 -0.0222654 0)
(1.03549 -0.015527 0)
(1.03376 -0.011255 0)
(1.03271 -0.00821778 0)
(1.03181 -0.0058131 0)
(1.03107 -0.00391802 0)
(1.03055 -0.00230041 0)
(1.03034 -0.000733579 -3.82103e-24)
(1.04487 0.00102857 0)
(1.0459 0.00325535 0)
(1.04791 0.00564333 0)
(1.05097 0.00822436 0)
(1.05519 0.0110177 0)
(1.06074 0.0140966 0)
(1.06763 0.0173181 0)
(1.07574 0.0197693 0)
(1.08597 0.0209807 0)
(1.09906 0.0211445 0)
(1.1162 0.020549 3.42689e-24)
(1.13897 0.017653 5.92753e-23)
(1.16944 0.0112989 -1.0422e-22)
(1.20868 0.00504799 2.2312e-22)
(1.2406 -0.0399286 8.18237e-21)
(1.29194 -0.0991982 1.15624e-22)
(1.08569 -0.223235 2.06502e-21)
(0.71752 -0.456216 -1.29198e-21)
(0.57141 -0.653601 1.33212e-22)
(0.564269 -0.736278 -1.54435e-20)
(0.622258 -0.716187 -2.23179e-21)
(0.707617 -0.623016 5.16675e-22)
(0.797293 -0.512665 -2.93321e-21)
(0.859618 -0.40982 -1.39489e-21)
(0.872152 -0.280409 9.52585e-22)
(0.930011 -0.197981 -5.66454e-23)
(0.953823 -0.121985 -3.0761e-23)
(0.979485 -0.086541 4.68208e-24)
(0.998682 -0.0633239 -2.31012e-23)
(1.01153 -0.04538 2.46944e-24)
(1.01985 -0.0319988 0)
(1.02461 -0.0220069 0)
(1.02708 -0.014678 0)
(1.02832 -0.0100008 0)
(1.02903 -0.007314 0)
(1.02921 -0.00543012 0)
(1.029 -0.00393059 0)
(1.02866 -0.00268664 0)
(1.02838 -0.00159732 0)
(1.02829 -0.000529141 0)
(1.04142 0.00139904 0)
(1.04223 0.00426972 0)
(1.04391 0.0073308 0)
(1.04654 0.0107082 0)
(1.05025 0.014564 0)
(1.05529 0.0190389 0)
(1.06215 0.0242101 0)
(1.0711 0.0295505 0)
(1.08236 0.0347351 0)
(1.09632 0.0400522 0)
(1.11431 0.0465218 0)
(1.13833 0.0540656 2.10467e-25)
(1.1708 0.0624041 1.18523e-23)
(1.21691 0.077481 -3.88578e-24)
(1.27505 0.0613822 2.7786e-21)
(1.36564 0.0588744 -7.27611e-22)
(1.30602 -0.0121925 2.54394e-21)
(1.04719 -0.192868 -3.82061e-21)
(0.814782 -0.422869 -2.46212e-21)
(0.660956 -0.590936 -8.76903e-21)
(0.571618 -0.649584 -5.33992e-21)
(0.552818 -0.594505 3.49351e-22)
(0.606114 -0.460709 -1.34978e-21)
(0.683924 -0.300481 3.97609e-24)
(0.76628 -0.163518 8.33788e-22)
(0.859705 -0.114032 9.40893e-23)
(0.908888 -0.0508964 -3.84662e-22)
(0.946957 -0.0345656 3.0913e-23)
(0.97586 -0.0237517 1.30356e-24)
(0.994773 -0.0165952 0)
(1.00722 -0.0111351 0)
(1.01532 -0.0070432 0)
(1.02077 -0.00416337 0)
(1.02457 -0.00269136 0)
(1.02677 -0.00213353 0)
(1.02751 -0.00175244 0)
(1.02754 -0.00137736 0)
(1.02735 -0.000969704 0)
(1.02714 -0.000577352 0)
(1.02702 -0.000191324 0)
(1.03709 0.00154132 0)
(1.03769 0.00484533 0)
(1.03893 0.00841141 0)
(1.04089 0.0124358 0)
(1.04369 0.017139 0)
(1.0476 0.0227228 0)
(1.05343 0.0294061 0)
(1.06168 0.037102 0)
(1.07201 0.0459369 0)
(1.08419 0.0563855 0)
(1.09912 0.0698951 1.57176e-24)
(1.11855 0.0874547 0)
(1.14339 0.110356 0)
(1.17902 0.142316 6.55983e-22)
(1.23424 0.19254 -1.6279e-21)
(1.32088 0.226278 5.03243e-21)
(1.36487 0.28033 -2.28863e-22)
(1.26092 0.270485 1.297e-21)
(1.05918 0.199252 1.11736e-21)
(0.838041 0.106587 4.18653e-20)
(0.61827 0.02278 -2.09167e-21)
(0.488907 -0.0405052 2.99178e-21)
(0.463329 -0.0724658 6.84877e-22)
(0.535351 -0.0699991 5.78176e-22)
(0.688449 -0.0354254 -7.12663e-23)
(0.827115 0.0303327 1.18081e-20)
(0.894316 0.036643 2.45381e-22)
(0.941374 0.0290153 0)
(0.973748 0.0230575 0)
(0.993517 0.0161849 1.769e-23)
(1.00616 0.0117122 0)
(1.01459 0.00869232 0)
(1.02061 0.00646563 0)
(1.02501 0.00453017 0)
(1.02735 0.00289743 0)
(1.02787 0.00173507 0)
(1.02769 0.000977361 0)
(1.02737 0.00050632 -4.23421e-24)
(1.02709 0.000219952 -3.03767e-24)
(1.02692 5.18056e-05 0)
(1.0325 0.00157885 0)
(1.03273 0.00505218 0)
(1.03335 0.00883463 0)
(1.03444 0.0131604 0)
(1.03604 0.0182255 0)
(1.03843 0.0242821 0)
(1.04253 0.0316482 0)
(1.04883 0.0405102 0)
(1.05638 0.0514495 0)
(1.06442 0.0651803 0)
(1.07331 0.0832602 -1.30902e-22)
(1.08384 0.107041 0)
(1.09654 0.138844 0)
(1.11429 0.180254 5.43613e-22)
(1.1331 0.2396 1.35339e-21)
(1.16118 0.329923 -3.41371e-22)
(1.18164 0.454643 0)
(1.13442 0.566113 -1.64907e-23)
(1.02631 0.629577 5.98394e-21)
(0.888802 0.636382 1.60932e-20)
(0.754596 0.587609 -2.4936e-21)
(0.676886 0.498226 6.49989e-21)
(0.661569 0.379489 -6.39743e-22)
(0.675677 0.259139 0)
(0.717478 0.172427 -2.44404e-21)
(0.812253 0.164313 -8.85587e-21)
(0.908978 0.125851 -5.99677e-21)
(0.968297 0.0927867 0)
(0.996095 0.0659575 0)
(1.00932 0.0443471 1.19991e-23)
(1.01715 0.0305356 0)
(1.0222 0.021174 0)
(1.02608 0.0146027 0)
(1.02917 0.00987255 0)
(1.03041 0.00646149 0)
(1.02998 0.00408712 7.66027e-24)
(1.02909 0.00246054 -9.9544e-24)
(1.02831 0.00136274 0)
(1.02774 0.000625379 0)
(1.02735 0.000127732 -2.33925e-23)
(1.02786 0.00168203 0)
(1.02768 0.0049691 0)
(1.02769 0.00855125 0)
(1.02793 0.0125793 0)
(1.02834 0.0172799 0)
(1.02911 0.0229341 0)
(1.03114 0.0299814 -3.76662e-24)
(1.03474 0.0388242 0)
(1.03842 0.0501889 0)
(1.04108 0.0648862 0)
(1.04275 0.084195 0)
(1.04321 0.109535 0)
(1.04262 0.1428 0)
(1.04253 0.186073 1.47153e-22)
(1.03784 0.239183 -2.39271e-23)
(1.02675 0.305673 -7.63719e-23)
(1.02135 0.393531 0)
(0.997547 0.485534 0)
(0.940401 0.559859 2.44219e-21)
(0.867649 0.602534 3.85339e-20)
(0.800687 0.603854 3.57791e-21)
(0.782298 0.565201 1.53559e-21)
(0.792232 0.509282 0)
(0.815819 0.431905 0)
(0.813101 0.335312 0)
(0.876855 0.264462 1.22356e-22)
(0.974736 0.188767 5.8923e-21)
(1.03008 0.131987 1.18217e-22)
(1.04065 0.0903041 0)
(1.03972 0.059715 0)
(1.03781 0.0404504 0)
(1.03616 0.027198 0)
(1.03567 0.0180788 3.36157e-23)
(1.0359 0.0117874 1.37757e-23)
(1.03507 0.00752883 6.94004e-25)
(1.03315 0.00469662 0)
(1.03123 0.0028062 0)
(1.02973 0.00155965 0)
(1.02866 0.000745914 0)
(1.02791 0.000196263 0)
(1.02339 0.00152085 0)
(1.02312 0.00426404 0)
(1.0228 0.00716116 0)
(1.02241 0.0103168 0)
(1.02179 0.0140015 0)
(1.02102 0.0184544 0)
(1.02081 0.0241992 0)
(1.02131 0.0319036 0)
(1.02085 0.0421926 -1.99013e-24)
(1.01814 0.0557464 0)
(1.01283 0.0734369 0)
(1.00423 0.0968962 0)
(0.991564 0.126736 -4.45335e-22)
(0.979265 0.166453 -3.34754e-23)
(0.966536 0.215336 0)
(0.939558 0.270749 0)
(0.913318 0.337371 0)
(0.883195 0.416934 0)
(0.843401 0.491285 3.01118e-21)
(0.810417 0.557256 6.44183e-22)
(0.794328 0.575894 2.27114e-20)
(0.809583 0.561512 -8.64833e-21)
(0.839281 0.526669 0)
(0.896345 0.469625 0)
(0.933733 0.381161 0)
(1.00471 0.280755 0)
(1.0848 0.184544 1.71092e-21)
(1.10949 0.124677 1.67307e-22)
(1.09397 0.0842152 0)
(1.0759 0.0558344 -9.63366e-25)
(1.06214 0.0374306 -2.24524e-24)
(1.05264 0.0244245 1.22554e-24)
(1.04689 0.01547 0)
(1.0434 0.00945753 0)
(1.03993 0.00568924 0)
(1.03629 0.00335274 0)
(1.03325 0.00189701 0)
(1.03102 0.00102397 0)
(1.0295 0.000522705 0)
(1.02857 0.000178346 0)
(1.02003 0.00081154 0)
(1.01981 0.00266326 0)
(1.01937 0.00447089 0)
(1.01856 0.00641791 0)
(1.01719 0.00865058 0)
(1.01518 0.0113183 0)
(1.01286 0.014878 0)
(1.01025 0.0201593 0)
(1.00593 0.0277032 0)
(0.998476 0.0379234 0)
(0.986894 0.0514482 3.02639e-24)
(0.970393 0.0697885 -5.65409e-23)
(0.94822 0.0943483 1.54552e-21)
(0.921127 0.126728 -7.53581e-22)
(0.891911 0.176699 0)
(0.854276 0.239582 0)
(0.816092 0.307796 0)
(0.780723 0.380668 0)
(0.756602 0.442938 1.34242e-20)
(0.761946 0.502485 -2.14666e-20)
(0.794115 0.506256 -2.41595e-21)
(0.845282 0.497186 1.80758e-20)
(0.909396 0.440241 0)
(0.996112 0.374252 0)
(1.06813 0.28084 0)
(1.14835 0.188483 0)
(1.18934 0.11 -6.95184e-22)
(1.17426 0.0721262 1.07582e-21)
(1.13616 0.0482963 -2.27401e-22)