/*--------------------------------*- C++ -*----------------------------------*\
| =========                 |                                                 |
| \\      /  F ield         | OpenFOAM: The Open Source CFD Toolbox           |
|  \\    /   O peration     | Version:  v2106                                 |
|   \\  /    A nd           | Website:  www.openfoam.com                      |
|    \\/     M anipulation  |                                                 |
\*---------------------------------------------------------------------------*/
FoamFile
{
    version     2.0;
    format      ascii;
    arch        "LSB;label=32;scalar=64";
    class       volScalarField;
    location    "0";
    object      p;
}
// * * * * * * * * * * * * * * * * * * * * * * * * * * * * * * * * * * * * * //

dimensions      [0 2 -2 0 0 0 0];

internalField   nonuniform List<scalar> 
11644
(
0.0577653
0.0581529
0.058963
0.0602063
0.0618851
0.0640021
0.0665603
0.0695562
0.0729744
0.0767842
0.0809266
0.0853202
0.0898552
0.0943611
0.0986683
0.102593
0.10587
0.108252
0.109651
0.110014
0.109276
0.107397
0.10441
0.100489
0.0958487
0.0907155
0.0853065
0.0798062
0.0744087
0.0692552
0.0644578
0.0600941
0.0562071
0.052822
0.049946
0.0475751
0.0457005
0.0443135
0.0434135
0.0429855
0.0570664
0.0574482
0.0582386
0.0594546
0.0611058
0.063201
0.0657497
0.0687556
0.0722133
0.0760999
0.080377
0.0849737
0.0897674
0.0946149
0.0993028
0.103579
0.10717
0.10986
0.11156
0.112112
0.111348
0.109273
0.105992
0.10171
0.0966417
0.0910726
0.0852556
0.0794305
0.0737744
0.0684465
0.0635443
0.0591291
0.0552318
0.0518633
0.0490198
0.0466907
0.0448602
0.0435154
0.0426423
0.0422201
0.0556041
0.0559864
0.0567559
0.0579277
0.0595244
0.0615694
0.0640833
0.0670862
0.0705916
0.0746063
0.0791151
0.0840626
0.0893661
0.0948607
0.100329
0.105457
0.109956
0.11357
0.115991
0.116878
0.116054
0.113525
0.109475
0.104265
0.0982483
0.0917345
0.0850644
0.0785429
0.0723828
0.0667212
0.0616343
0.057143
0.0532462
0.0499258
0.0471541
0.0449049
0.0431504
0.0418632
0.0410154
0.0405917
0.0534077
0.0537784
0.0545138
0.0556231
0.0571352
0.0590879
0.0615216
0.0644805
0.0680125
0.0721576
0.0769401
0.0823802
0.0884225
0.0949627
0.101731
0.108381
0.11453
0.119748
0.123353
0.124837
0.1239
0.120599
0.115199
0.108239
0.100554
0.0924659
0.0844504
0.0769125
0.0700384
0.0639305
0.0586149
0.0540594
0.0502007
0.0469751
0.0443261
0.0422007
0.0405543
0.039345
0.0385417
0.0381368
0.05055
0.0508836
0.0515504
0.0525602
0.0539414
0.0557421
0.0580219
0.0608533
0.0643221
0.0685232
0.073572
0.0795548
0.0865161
0.0943826
0.103011
0.112002
0.120684
0.128572
0.134307
0.136947
0.135872
0.131218
0.123514
0.113602
0.103376
0.0928339
0.0828498
0.0739506
0.0662541
0.0597397
0.0542822
0.049745
0.0460129
0.0429719
0.0405234
0.038587
0.0370999
0.0360131
0.035293
0.0349292
0.0471029
0.0473814
0.0479396
0.0487901
0.0499704
0.0515302
0.0535417
0.0561022
0.0593388
0.0634207
0.0685319
0.074855
0.082591
0.0920674
0.103283
0.115609
0.12825
0.140816
0.150401
0.155219
0.153894
0.146615
0.134921
0.120506
0.106112
0.0918622
0.079327
0.0689208
0.0604538
0.0536772
0.0482989
0.0440106
0.0405936
0.0378867
0.0357599
0.0341104
0.0328608
0.0319586
0.0313696
0.0310785
0.0431606
0.0433639
0.043771
0.0444038
0.0452952
0.0464948
0.0480803
0.050163
0.0529062
0.0565089
0.0612072
0.0673417
0.0754122
0.0861464
0.10028
0.117625
0.130919
0.148747
0.164349
0.17425
0.175156
0.166483
0.150635
0.131737
0.106257
0.0874851
0.0721172
0.0605164
0.0518955
0.0453109
0.04037
0.0366683
0.0338688
0.0317279
0.030097
0.0288666
0.0279569
0.0273153
0.0269026
0.0267002
0.0388567
0.0389615
0.039179
0.039527
0.0400287
0.0407346
0.0417078
0.0430549
0.0449305
0.0475034
0.0510725
0.0562019
0.0634733
0.0744545
0.0891877
0.109108
0.136163
0.164837
0.193157
0.212462
0.214886
0.198936
0.170222
0.138328
0.107378
0.0840885
0.0668923
0.0474625
0.0396854
0.0341776
0.0303593
0.0277032
0.0258775
0.0245889
0.0236669
0.0230104
0.02255
0.0222345
0.0220406
0.0219407
0.0343225
0.034322
0.0343204
0.034321
0.0343481
0.0344248
0.0345859
0.0349083
0.0354816
0.0364175
0.0380358
0.0408642
0.045594
0.0586406
0.0728908
0.0951954
0.125337
0.171615
0.220837
0.263323
0.274957
0.246943
0.196073
0.142002
0.100463
0.065248
0.0474527
0.0277591
0.0230081
0.0200394
0.0182677
0.0172912
0.0168469
0.0166976
0.0166835
0.0167409
0.0168258
0.0169104
0.0169732
0.0170162
0.0297331
0.0296093
0.0293664
0.0289941
0.0284881
0.0278338
0.0270299
0.0260782
0.0249719
0.0237438
0.0225528
0.0216985
0.0212653
0.0307069
0.0383719
0.0599731
0.0936272
0.151898
0.242765
0.346584
0.38734
0.319938
0.207216
0.119238
0.0598979
0.0236041
0.0137273
0.00119003
0.00206795
0.00309814
0.00439809
0.00580105
0.00716687
0.00842118
0.00948669
0.0103692
0.0110637
0.0115824
0.0119188
0.0120788
0.0252595
0.025042
0.0245565
0.0237996
0.0227284
0.0213086
0.0194844
0.0171635
0.0141852
0.0104197
0.00563471
-0.00040346
-0.00808701
-0.00836399
-0.0134744
-0.010284
0.00320455
0.0373969
0.14999
0.400257
0.577917
0.337097
0.0907141
-0.00839473
-0.0371987
-0.0422198
-0.0334652
-0.0303065
-0.0222275
-0.0157503
-0.0103935
-0.00606566
-0.00258998
0.00023916
0.00247985
0.00422486
0.00555473
0.00650585
0.00713487
0.00743213
0.0211604
0.0207948
0.0200852
0.0189732
0.0174009
0.0152841
0.0125108
0.00891511
0.00415911
-0.00213745
-0.0105976
-0.0221193
-0.0383302
-0.0460523
-0.073991
-0.0996622
-0.144863
-0.234314
-0.458242
-0.572971
-0.286047
-0.173995
-0.119926
-0.0846901
-0.0633779
-0.046663
-0.0340716
-0.0245291
-0.0172536
-0.0116424
-0.00724992
-0.00386415
-0.00129313
0.00064676
0.00203374
0.0029187
0.00337727
0.0175018
0.0170564
0.0161725
0.014794
0.0128496
0.0101966
0.00670384
0.00214677
-0.00391595
-0.0120317
-0.0230538
-0.0380945
-0.0593809
-0.0782303
-0.120145
-0.170633
-0.258184
-0.417719
-0.576416
-0.64621
-0.439983
-0.267444
-0.178875
-0.127036
-0.0890591
-0.0660436
-0.0488182
-0.0360552
-0.0264098
-0.0190409
-0.0133749
-0.00905154
-0.00577682
-0.00333441
-0.00160534
-0.000510962
2.05179e-05
0.0143593
0.0139523
0.012961
0.0114371
0.00929009
0.00637177
0.00252953
-0.00247975
-0.00905301
-0.0176764
-0.0292294
-0.04463
-0.0654575
-0.088831
-0.130502
-0.186852
-0.279838
-0.429729
-0.499893
-0.441865
-0.393706
-0.285932
-0.201102
-0.147739
-0.101867
-0.0767765
-0.0574893
-0.0431359
-0.0322179
-0.023887
-0.0175098
-0.012651
-0.00894753
-0.00619803
-0.00425867
-0.00299819
-0.00241682
0.0120781
0.0115095
0.0105329
0.00903093
0.00691032
0.00403622
0.000240819
-0.00463262
-0.0108544
-0.018722
-0.0287388
-0.0414438
-0.0569932
-0.0768522
-0.104181
-0.146944
-0.21676
-0.348273
-0.482661
-0.476175
-0.500412
-0.476967
-0.424425
-0.383555
-0.282115
-0.198348
-0.14711
-0.101102
-0.0772894
-0.0588165
-0.0447269
-0.0338496
-0.0255397
-0.019184
-0.0142905
-0.0105381
-0.00774477
-0.00576225
-0.00448186
-0.00382771
0.0105439
0.0101316
0.00921343
0.00780283
0.00583414
0.00321271
-0.000205985
-0.00444566
-0.00957524
-0.0156591
-0.0226624
-0.0302763
-0.0379296
-0.0498271
-0.0567734
-0.0592256
-0.0689553
-0.0838562
-0.261068
-0.543149
-0.745493
-0.714795
-0.580596
-0.385086
-0.261783
-0.175867
-0.130502
-0.0878447
-0.0679378
-0.0524997
-0.0405223
-0.0311492
-0.0238412
-0.0181709
-0.0137743
-0.0103715
-0.00781209
-0.00597894
-0.00481395
-0.00430397
0.00988497
0.00967664
0.00891796
0.00767844
0.00596061
0.00376662
0.00099602
-0.00234341
-0.00605619
-0.0100002
-0.0138648
-0.0170444
-0.0180502
-0.0175663
-0.0151289
0.00567301
0.0417649
0.088375
-0.11284
-0.499632
-0.737665
-0.694531
-0.487564
-0.30435
-0.186693
-0.134037
-0.0834855
-0.0651084
-0.0507435
-0.0397439
-0.0312123
-0.0244269
-0.0189647
-0.0146204
-0.0111613
-0.00844963
-0.00638736
-0.00490335
-0.00394343
-0.0034626
0.0101227
0.00982097
0.00924135
0.00831364
0.00699946
0.00533282
0.00330047
0.000908237
-0.00168605
-0.00423479
-0.0064666
-0.00816543
-0.00836884
-0.00609796
-0.00331256
0.00909686
0.0353089
0.0558015
-0.0726528
-0.283937
-0.402861
-0.362893
-0.25363
-0.174135
-0.107069
-0.0787299
-0.0449656
-0.0359367
-0.0284082
-0.0227919
-0.0183643
-0.0147445
-0.0116955
-0.0091158
-0.00689215
-0.00507755
-0.00366192
-0.00262369
-0.00193819
-0.00155352
0.0110398
0.0107275
0.0102441
0.00956391
0.00863918
0.0074622
0.00604267
0.00437187
0.0024586
0.000351693
-0.00194487
-0.00478305
-0.0085012
-0.0118189
-0.0161894
-0.033464
-0.054439
-0.0934951
-0.15592
-0.221295
-0.232187
-0.185732
-0.128974
-0.0813113
-0.0362766
-0.0230362
-0.00751299
-0.00635944
-0.0057631
-0.00535227
-0.00486528
-0.00421841
-0.00347531
-0.00262394
-0.00167532
-0.000826984
-0.000109029
0.000446114
0.000810282
0.00100937
0.0124962
0.0122961
0.0119295
0.011423
0.0107665
0.00994693
0.00894413
0.00773463
0.00618809
0.00416826
0.00136491
-0.0028194
-0.00986497
-0.0199367
-0.0320054
-0.0676472
-0.12504
-0.227011
-0.313736
-0.347974
-0.305316
-0.199548
-0.090418
-0.0207084
0.0138835
0.0189692
0.0224262
0.0185697
0.0129739
0.00953384
0.00694337
0.00527965
0.00429954
0.00382663
0.00363693
0.00360665
0.00369876
0.0038269
0.00393826
0.00398292
0.0142975
0.0142008
0.0140024
0.0137091
0.0133168
0.0128207
0.0121897
0.0113632
0.0101929
0.0084874
0.00585494
0.00159059
-0.00570985
-0.0176036
-0.0323951
-0.0669243
-0.126866
-0.231954
-0.338705
-0.390194
-0.351471
-0.225433
-0.0846479
0.00307283
0.0429627
0.0458617
0.0437415
0.0357842
0.0270261
0.0208543
0.0163406
0.0131459
0.0109535
0.0094599
0.00841304
0.0077341
0.00733924
0.00712676
0.00703558
0.00699521
0.0162651
0.0162315
0.0162055
0.0161613
0.0160811
0.0159603
0.0157662
0.0154304
0.0148765
0.0139534
0.012382
0.00941317
0.00459117
-0.00509137
-0.0188099
-0.0405941
-0.0815942
-0.144635
-0.211552
-0.251697
-0.237017
-0.161227
-0.0704561
8.52252e-05
0.040221
0.0557899
0.0533861
0.0437627
0.0345341
0.0279786
0.022811
0.0188881
0.0159996
0.0138846
0.012365
0.0113089
0.0106012
0.0101419
0.00986803
0.00973839
0.0182331
0.0182969
0.0184147
0.0185644
0.0187535
0.0189876
0.019274
0.0195677
0.0198426
0.0199232
0.0196215
0.0183407
0.0156098
0.00986207
-0.000826342
-0.0131733
-0.0315725
-0.0563529
-0.082731
-0.105536
-0.112378
-0.0986757
-0.0641212
-0.0134927
0.025496
0.0443413
0.0513263
0.0424282
0.0352953
0.0302156
0.0255865
0.0219278
0.0191019
0.016961
0.0153603
0.0141898
0.0133496
0.0127626
0.0123837
0.0121864
0.0200266
0.0201721
0.0203693
0.0206577
0.0210623
0.0216081
0.022343
0.0232612
0.0243592
0.0254269
0.0263
0.0266053
0.0257167
0.0221886
0.0160169
0.00549769
-0.0108286
-0.0362753
-0.0695272
-0.102099
-0.120536
-0.122485
-0.0985395
-0.0555691
-0.015427
0.0153283
0.0303182
0.0309972
0.0300859
0.0278584
0.0250652
0.0226208
0.0205004
0.0188035
0.0174334
0.0163596
0.0155501
0.0149622
0.014582
0.014378
0.0215012
0.0216192
0.0218756
0.0222988
0.0229046
0.0237152
0.0247912
0.0261601
0.0278199
0.0296394
0.0314273
0.0328454
0.0330882
0.0309043
0.0245748
0.00892742
-0.0168535
-0.0569383
-0.107893
-0.157336
-0.190996
-0.189278
-0.155064
-0.103514
-0.0577976
-0.0204922
0.00458511
0.0159888
0.02176
0.0231495
0.0228877
0.0220473
0.0208935
0.0198188
0.0188264
0.0179828
0.0173107
0.0167976
0.0164607
0.0162921
0.0227336
0.0227933
0.0230914
0.0235969
0.0243209
0.0252767
0.0265173
0.0280678
0.029971
0.0321944
0.0345612
0.0364697
0.0376088
0.0344071
0.0245654
0.00392127
-0.0286206
-0.0751348
-0.134803
-0.193347
-0.238061
-0.236159
-0.194783
-0.140504
-0.0859013
-0.0429405
-0.0106227
0.00580284
0.0152842
0.0190833
0.0209663
0.0213706
0.0210804
0.0205117
0.0198719
0.0192697
0.0187559
0.0183601
0.0180963
0.0179702
0.0237734
0.0238637
0.0241587
0.0246465
0.0253674
0.0263362
0.0275725
0.0291034
0.0309562
0.0331909
0.0357185
0.037944
0.0384585
0.0330702
0.0198251
-0.00231827
-0.0338934
-0.0769754
-0.128104
-0.177317
-0.216971
-0.213458
-0.174827
-0.130609
-0.0808595
-0.0410354
-0.0116223
0.00454106
0.0137371
0.0183542
0.0206685
0.0214945
0.0216109
0.0213444
0.0209313
0.0204804
0.0200687
0.0197422
0.0195196
0.0194257
0.0244205
0.0245773
0.0248669
0.0253164
0.0259622
0.0268276
0.0279392
0.0293013
0.0309017
0.0327026
0.0346758
0.0363207
0.0352695
0.0290676
0.0154737
-0.00704745
-0.0373863
-0.0745171
-0.111597
-0.139961
-0.155641
-0.146865
-0.120308
-0.0861514
-0.0516345
-0.0215874
-0.00108303
0.0101092
0.0167403
0.0202423
0.0219336
0.0225717
0.0226564
0.022452
0.0220976
0.0216935
0.0213047
0.0209805
0.0207437
0.0206383
0.0246246
0.0247659
0.0250256
0.0254197
0.0259535
0.0266375
0.0274926
0.0285007
0.0296
0.0305753
0.0312834
0.0310659
0.0276608
0.019517
0.0054596
-0.0150992
-0.0409755
-0.0703572
-0.0944148
-0.105992
-0.103084
-0.0902781
-0.0696365
-0.0439156
-0.0208328
-0.00135655
0.0105661
0.0173847
0.0213385
0.0232955
0.0240367
0.024166
0.0239644
0.0236153
0.0231865
0.0227593
0.0223754
0.0220623
0.0218318
0.0216605
0.0245419
0.0246322
0.0248278
0.0251247
0.0255038
0.0259515
0.0264364
0.0268937
0.0272467
0.0271936
0.0262813
0.0235896
0.0171446
0.00527083
-0.0114403
-0.0319781
-0.0539075
-0.0762113
-0.090133
-0.09339
-0.0860092
-0.0689444
-0.0472939
-0.0231295
-0.00355179
0.0101524
0.0180572
0.0227352
0.0250997
0.0262463
0.0262109
0.0257888
0.0252103
0.0246123
0.0240452
0.023554
0.0231495
0.0228311
0.0226002
0.0224371
0.0243098
0.0243845
0.0245277
0.0247181
0.0249263
0.0251108
0.025207
0.0250994
0.0246519
0.0235237
0.0210346
0.0161649
0.00670882
-0.00896594
-0.0303702
-0.05638
-0.0819288
-0.102706
-0.115208
-0.115658
-0.103759
-0.079259
-0.0501027
-0.0230006
-0.00132878
0.0131407
0.0217083
0.0262249
0.0280522
0.0283901
0.0278437
0.0270155
0.0261213
0.0252973
0.0245958
0.0240189
0.0235568
0.0232131
0.0229891
0.0229305
0.0240205
0.0241135
0.0241883
0.0242647
0.0243067
0.0242697
0.0240954
0.0236082
0.0225917
0.0206503
0.0169656
0.0105549
-0.00097965
-0.0193329
-0.0442657
-0.0751345
-0.10755
-0.131208
-0.148109
-0.150379
-0.128486
-0.0965299
-0.0594277
-0.0293952
-0.00547433
0.0118184
0.0224105
0.027862
0.0296367
0.0294902
0.0286183
0.0275657
0.026519
0.0256013
0.0248413
0.0242333
0.0237536
0.0234283
0.023244
0.0232333
0.0236953
0.0237559
0.0237952
0.0238129
0.0237669
0.0236173
0.0232886
0.022626
0.0213852
0.0191363
0.0151292
0.00827922
-0.00344534
-0.0211952
-0.0450124
-0.0741623
-0.106624
-0.131753
-0.152858
-0.156366
-0.13226
-0.0996614
-0.0633354
-0.0330203
-0.00896916
0.00846884
0.0197278
0.0263697
0.0292404
0.0293239
0.0284268
0.0273599
0.0263786
0.0255433
0.0248406
0.0242856
0.0238634
0.0235857
0.0234198
0.0233584
0.0233916
0.0234084
0.0234359
0.0234509
0.0234081
0.0232566
0.0229313
0.022316
0.0212057
0.0192561
0.0158992
0.0102429
0.000909154
-0.0134448
-0.0328066
-0.0557625
-0.0820063
-0.104712
-0.122102
-0.127559
-0.113205
-0.0905036
-0.0629985
-0.036788
-0.0145725
0.00279373
0.0154046
0.0232359
0.026994
0.027829
0.0273398
0.0265198
0.025765
0.0250953
0.0245242
0.0240698
0.0237224
0.0234738
0.023303
0.023187
0.0231884
0.0232145
0.0232333
0.0232476
0.0232277
0.0231346
0.0229217
0.0224985
0.021762
0.0204771
0.0183021
0.0146058
0.00852359
-0.00145373
-0.0154348
-0.0322382
-0.0508691
-0.0692351
-0.0826731
-0.0900402
-0.0894621
-0.0789844
-0.0607138
-0.0394426
-0.0197165
-0.00317905
0.00947053
0.0179661
0.022583
0.024597
0.0250457
0.0248704
0.0245249
0.0241133
0.0237204
0.0233932
0.02313
0.0229283
0.0227895
0.0226896
0.0229683
0.0230092
0.0230461
0.02308
0.0231082
0.023114
0.0230712
0.0229204
0.0226283
0.0220562
0.0209293
0.01893
0.0154629
0.00918933
-0.000251083
-0.0130201
-0.0282602
-0.0450199
-0.0580408
-0.0678844
-0.0728069
-0.0699573
-0.0586215
-0.0421529
-0.0262246
-0.0116683
0.000359871
0.00982882
0.0162151
0.0199795
0.021705
0.0224596
0.0226923
0.0226575
0.0225262
0.022372
0.0222258
0.0221095
0.0220403
0.0220211
0.0226111
0.0226171
0.0226693
0.0227474
0.0228543
0.0229856
0.02314
0.0233051
0.0234619
0.0235181
0.0232294
0.0222517
0.0201369
0.0155852
0.00764936
-0.00435576
-0.0198918
-0.0380727
-0.0552339
-0.0688676
-0.0753053
-0.0754167
-0.0674317
-0.0545528
-0.0405212
-0.0253875
-0.0111562
0.000787056
0.009563
0.0150882
0.0181752
0.0198512
0.0207048
0.0211178
0.0213091
0.0213635
0.0213521
0.0213184
0.0212954
0.021318
0.0221953
0.0221518
0.0221897
0.0222862
0.0224531
0.0226832
0.0229902
0.0233754
0.0238678
0.0242894
0.0246526
0.0241612
0.0221431
0.0174475
0.00901621
-0.00353201
-0.0205497
-0.0408324
-0.0638918
-0.0834289
-0.0963822
-0.0961475
-0.0872579
-0.0746777
-0.058135
-0.0393679
-0.0212982
-0.0065398
0.00422423
0.0112035
0.0152991
0.0176491
0.0190204
0.0198204
0.0202652
0.0205025
0.0206268
0.0206744
0.0206848
0.0206648
0.021727
0.0216929
0.0217294
0.0218244
0.0219995
0.0222485
0.0225987
0.0230422
0.023594
0.0240508
0.0244816
0.023841
0.0215659
0.0167593
0.00814538
-0.00471318
-0.0222426
-0.0434877
-0.0697433
-0.091597
-0.11279
-0.110667
-0.0980914
-0.0841651
-0.0649109
-0.0440689
-0.0247523
-0.00956835
0.00165964
0.00910083
0.0136342
0.0162351
0.0178559
0.0188398
0.0194291
0.0197731
0.0199741
0.0200615
0.020092
0.0200315
0.0211037
0.0211315
0.0211875
0.021277
0.0214202
0.0216198
0.02189
0.0222304
0.0226696
0.0229816
0.0230228
0.0217903
0.0185822
0.0129414
0.00414274
-0.00833551
-0.0246226
-0.0443112
-0.0664044
-0.0860615
-0.101754
-0.0999465
-0.0885037
-0.0740453
-0.0550767
-0.0366686
-0.0200712
-0.0070053
0.00282181
0.00934498
0.0134541
0.0159119
0.0174033
0.0182973
0.0188422
0.0191539
0.0193345
0.0194086
0.0194329
0.0194067
0.0203016
0.0203604
0.0204103
0.0204702
0.0205527
0.0206601
0.0207994
0.0209345
0.0210545
0.0209865
0.0202952
0.0183274
0.0142235
0.00738765
-0.00202321
-0.0141321
-0.0285706
-0.0447855
-0.0603375
-0.0716367
-0.0773396
-0.0737386
-0.0643735
-0.0517087
-0.0368269
-0.0226482
-0.0104364
-0.000403035
0.00693351
0.0116575
0.0146079
0.0163923
0.0174725
0.018119
0.0185055
0.0187248
0.0188405
0.0188889
0.01891
0.0189202
0.0193761
0.0193852
0.0193851
0.0193886
0.0193904
0.019377
0.0193318
0.0191782
0.0188063
0.0180144
0.0163033
0.0132713
0.00838178
0.00117515
-0.00801584
-0.0192362
-0.031604
-0.0443785
-0.0544061
-0.0586407
-0.0565181
-0.0509364
-0.0424495
-0.0310008
-0.0193163
-0.00847082
0.000242864
0.00709921
0.0117305
0.0145361
0.0162448
0.0172482
0.0178328
0.0181783
0.0183815
0.0184932
0.0185532
0.018581
0.0185893
0.0185807
0.0184144
0.0183541
0.0183081
0.0182545
0.0181682
0.0180108
0.0177305
0.017236
0.0162946
0.0146848
0.0117851
0.00721884
0.000958463
-0.00710111
-0.0165191
-0.0269299
-0.0372124
-0.0471844
-0.0531946
-0.0535489
-0.0500265
-0.0424929
-0.0320816
-0.019673
-0.00833564
0.00146091
0.008624
0.0132632
0.0158141
0.0171446
0.0178305
0.0181212
0.0182465
0.0182879
0.018296
0.0182829
0.0182658
0.0182474
0.0182257
0.0182108
0.0175339
0.0174797
0.0174194
0.0173197
0.0171429
0.0168361
0.0163188
0.0154857
0.0140818
0.0117723
0.00787709
0.00176147
-0.00659241
-0.0171673
-0.0289082
-0.0403943
-0.0506275
-0.0592333
-0.0640299
-0.0630261
-0.0563406
-0.0446191
-0.0304346
-0.0162967
-0.00401533
0.00578236
0.0126387
0.0164901
0.0183704
0.0190315
0.0189517
0.0187099
0.0184417
0.01821
0.0180306
0.0178988
0.0178088
0.017756
0.0177331
0.0177583
0.0167773
0.0168017
0.0167371
0.0165911
0.0163346
0.0159168
0.015246
0.0142149
0.0125187
0.0097476
0.00526246
-0.00161112
-0.0112596
-0.0237271
-0.0382452
-0.0518287
-0.0640589
-0.0729925
-0.0793875
-0.0779055
-0.065138
-0.0492412
-0.0313805
-0.0159118
-0.00302553
0.00684114
0.013543
0.0173228
0.0191299
0.0195848
0.0192159
0.0187184
0.0182695
0.0178978
0.0176189
0.0174225
0.0172962
0.017234
0.0172233
0.0172724
0.0160659
0.0161158
0.0160614
0.0159219
0.0156607
0.0152346
0.0145715
0.013531
0.0118603
0.00911498
0.00468813
-0.00191502
-0.0108986
-0.02275
-0.0367958
-0.0509311
-0.0648602
-0.0743835
-0.0813755
-0.0806146
-0.0656287
-0.0496427
-0.0318974
-0.0166162
-0.00407594
0.00549983
0.0119739
0.0157454
0.0177433
0.0184944
0.0183876
0.0180683
0.0176628
0.0173347
0.0170815
0.0169016
0.0167808
0.0167151
0.0166885
0.0167036
0.0154188
0.0154174
0.0153767
0.0152878
0.015103
0.0147872
0.0142751
0.0134526
0.0121088
0.00993063
0.00638282
0.00106577
-0.00615373
-0.0154504
-0.0266115
-0.0386692
-0.0506621
-0.0597131
-0.0661677
-0.0668897
-0.0582374
-0.046586
-0.0327694
-0.0198668
-0.00874695
0.000238968
0.00697643
0.0116792
0.0146704
0.0161963
0.0167009
0.016732
0.0165575
0.0163992
0.0162702
0.0161757
0.0161076
0.0160634
0.0160276
0.0159928
0.0149497
0.0149312
0.0148981
0.0148413
0.0147337
0.014548
0.0142374
0.0137372
0.0129017
0.011523
0.00925431
0.00565753
0.000475389
-0.00606348
-0.0138977
-0.0228076
-0.0319958
-0.0400492
-0.0462443
-0.0494701
-0.0483515
-0.0427293
-0.0339191
-0.0239731
-0.0144927
-0.00587933
0.00114619
0.00668243
0.0104701
0.0128176
0.0141104
0.0146985
0.0149563
0.015084
0.0151329
0.0151579
0.0151732
0.0151842
0.0151848
0.015154
0.0145883
0.0145937
0.0145881
0.0145687
0.0145336
0.014474
0.0143595
0.0141628
0.0138216
0.0132168
0.0121241
0.0102459
0.00716003
0.00271126
-0.00315906
-0.0105447
-0.0187179
-0.0270272
-0.0339678
-0.0390597
-0.0408724
-0.0400043
-0.0354435
-0.02802
-0.0199441
-0.011909
-0.00486942
0.000979672
0.00538524
0.0087133
0.0109819
0.0123295
0.013125
0.0135773
0.0138282
0.0139823
0.0140819
0.0141543
0.0142104
0.0142527
0.0141642
0.0141666
0.0141894
0.0142167
0.0142573
0.0143133
0.0143871
0.0144652
0.0145319
0.0145265
0.0142793
0.0135311
0.0117449
0.00842777
0.00328059
-0.00385621
-0.0126254
-0.0221836
-0.0310011
-0.0380296
-0.0420976
-0.0439069
-0.0414927
-0.0357696
-0.0284801
-0.0205583
-0.0128413
-0.00575741
0.00012838
0.00477756
0.00807255
0.0101661
0.0114341
0.01219
0.0126474
0.0129317
0.0131047
0.0132158
0.0132972
0.0133795
0.0136861
0.0136562
0.0136632
0.0137024
0.0137897
0.0139295
0.0141341
0.0144099
0.0147561
0.0151345
0.0153991
0.0150556
0.0136614
0.0110116
0.00635324
-0.000536291
-0.00969965
-0.0207092
-0.0323014
-0.0426298
-0.0513678
-0.0546365
-0.0525448
-0.0471888
-0.0394572
-0.0303615
-0.020889
-0.0117295
-0.0040584
0.00180908
0.00591551
0.00851444
0.0101261
0.0111189
0.0117544
0.0121475
0.0123933
0.0125364
0.0126161
0.0126476
0.0131664
0.0131269
0.0131295
0.0131713
0.0132704
0.0134318
0.0136709
0.013994
0.0143787
0.0147662
0.015148
0.0149083
0.0137172
0.0113426
0.00703428
0.000403452
-0.00849645
-0.0199526
-0.0330063
-0.0454834
-0.0575838
-0.0614558
-0.0591228
-0.0533088
-0.0441802
-0.0341049
-0.0235625
-0.0135412
-0.00551155
0.000574321
0.00486119
0.00761519
0.00931887
0.0104166
0.0111271
0.0115763
0.0118491
0.0120047
0.0120729
0.0120313
0.0125597
0.0125539
0.0125722
0.0126113
0.0126819
0.0127914
0.0129533
0.0131693
0.0134196
0.0135205
0.0134307
0.0126782
0.0110912
0.00839407
0.00405211
-0.00225258
-0.0103829
-0.0205121
-0.0321477
-0.0432429
-0.0523867
-0.0554132
-0.0527701
-0.0468213
-0.0381316
-0.0285693
-0.0189632
-0.0103375
-0.00358789
0.00156148
0.00522172
0.00762779
0.00916686
0.0101244
0.0107267
0.0111005
0.0113237
0.0114411
0.0114873
0.0114516
0.0118487
0.0118759
0.0118837
0.0118822
0.0118783
0.0118739
0.0118704
0.0118511
0.0117726
0.0114204
0.0106011
0.00897845
0.00643962
0.00280097
-0.00198475
-0.00805445
-0.0150869
-0.0228814
-0.0307576
-0.0375209
-0.0412993
-0.0410601
-0.0376105
-0.0321487
-0.025151
-0.0177472
-0.0106755
-0.00457182
0.000317283
0.00414388
0.00674338
0.00843513
0.00948143
0.0101183
0.0105098
0.0107417
0.0108737
0.0109383
0.0109712
0.0109852
0.0110538
0.0110491
0.0110078
0.0109444
0.0108502
0.0107149
0.0105056
0.0101762
0.00963105
0.00869316
0.00708032
0.00470461
0.00146363
-0.00290109
-0.0081111
-0.0140984
-0.0204178
-0.0261726
-0.0302383
-0.032175
-0.0318411
-0.0285963
-0.0240853
-0.0187575
-0.0128074
-0.00716432
-0.00224585
0.00174843
0.00485103
0.00717147
0.0086398
0.0095081
0.0100094
0.0103021
0.0104756
0.0105736
0.0106281
0.0106585
0.010678
0.0106849
0.0102382
0.0101655
0.0100763
0.00996029
0.00979577
0.00954762
0.00915629
0.0085242
0.00749807
0.00589837
0.00346893
0.000179693
-0.00386572
-0.00891176
-0.0146404
-0.0205979
-0.0263857
-0.0305845
-0.0319247
-0.0305344
-0.0281707
-0.0234925
-0.0177605
-0.0114959
-0.00522475
1.97098e-05
0.00408426
0.00699452
0.00882396
0.00981457
0.010286
0.0104554
0.0105177
0.0105181
0.0105043
0.0104823
0.0104593
0.0104393
0.0104219
0.0104084
0.0095042
0.00942397
0.00932776
0.00918859
0.00897239
0.00862966
0.00808887
0.0072245
0.00582174
0.00362469
0.000374586
-0.00408011
-0.00968048
-0.0161528
-0.0229789
-0.0295054
-0.035063
-0.0388168
-0.0391153
-0.0353305
-0.0300249
-0.0230416
-0.0152116
-0.00734221
-0.000716355
0.00436234
0.00790173
0.00999984
0.0111487
0.0114174
0.0112301
0.0109729
0.0107099
0.0104925
0.0103218
0.010204
0.0101251
0.010076
0.0100483
0.0100574
0.0089295
0.00891972
0.00884021
0.00868463
0.00842264
0.00800557
0.00735639
0.00634724
0.0047319
0.00218421
-0.00159881
-0.00679802
-0.0136454
-0.0214814
-0.0294708
-0.0371545
-0.0428964
-0.0473115
-0.0473896
-0.04159
-0.0329055
-0.0235227
-0.0136779
-0.00460914
0.00198326
0.00670602
0.00969317
0.0111467
0.0119029
0.0118673
0.0113778
0.0109456
0.0104974
0.0101809
0.00993277
0.00976656
0.00966868
0.00962529
0.00962016
0.00964996
0.00844694
0.00849014
0.00843478
0.00829303
0.00803117
0.00762306
0.0069754
0.00598532
0.00442732
0.00196105
-0.00169316
-0.00656664
-0.0130455
-0.0208311
-0.0288942
-0.0367882
-0.0428006
-0.0473864
-0.0477641
-0.0418715
-0.033322
-0.0233252
-0.013248
-0.00477582
0.00142582
0.00593198
0.00876426
0.0101995
0.0109042
0.0109304
0.0106265
0.0103205
0.00994631
0.00966783
0.00945612
0.0093075
0.00921363
0.00917132
0.00916265
0.00919227
0.00800772
0.00802601
0.00799435
0.00790622
0.00772896
0.00743205
0.00694716
0.00617242
0.00494461
0.00305798
0.000213086
-0.0036001
-0.00851283
-0.0145704
-0.0211359
-0.0276823
-0.0330818
-0.0371659
-0.0385753
-0.035659
-0.0301732
-0.0229646
-0.0153346
-0.00875555
-0.00321154
0.00112831
0.00428978
0.00642736
0.00782834
0.00865716
0.0089864
0.00906347
0.0089675
0.00886756
0.00878416
0.00872741
0.00868931
0.00866884
0.00865529
0.00864463
0.00769885
0.00768451
0.00766151
0.00761696
0.00752941
0.00737409
0.00711387
0.006681
0.00595587
0.00482858
0.00302993
0.000486389
-0.00266002
-0.00655448
-0.0110069
-0.0157474
-0.0202595
-0.024002
-0.0267898
-0.0275194
-0.0261412
-0.0231106
-0.0189655
-0.0141959
-0.00936184
-0.00508306
-0.00140835
0.00159833
0.00389107
0.00555964
0.00661774
0.00722353
0.00753964
0.00772438
0.00784147
0.00792567
0.00798497
0.00802345
0.00803754
0.00801756
0.00750641
0.00750721
0.00750514
0.00750165
0.00748694
0.00745582
0.00739703
0.00728807
0.00704538
0.00662318
0.0058595
0.00456325
0.00275445
0.000258807
-0.00305163
-0.00701412
-0.0114417
-0.0155267
-0.0191507
-0.0220071
-0.0233365
-0.0238315
-0.0227217
-0.0196185
-0.0153746
-0.0110068
-0.00676633
-0.00307024
-6.88333e-05
0.00226914
0.00399866
0.00517874
0.00595543
0.00645011
0.00676753
0.00698117
0.00712965
0.00723029
0.00729665
0.00733244
0.00729229
0.00730291
0.00733275
0.0073731
0.00742452
0.0074934
0.0075833
0.00770076
0.00780378
0.00788268
0.0078568
0.00746792
0.00644015
0.00468774
0.00191255
-0.00181051
-0.00643595
-0.0112523
-0.0161002
-0.02069
-0.0243447
-0.027545
-0.0281241
-0.0259989
-0.0221598
-0.017557
-0.0126014
-0.00799738
-0.0039981
-0.00074048
0.00171006
0.00345473
0.00462522
0.0053662
0.00584022
0.00614537
0.00634932
0.00648978
0.00659388
0.00667894
0.00701822
0.00701144
0.00702925
0.00706955
0.00714876
0.00727431
0.00745644
0.00770409
0.00802195
0.00838304
0.00869943
0.00891207
0.00851991
0.00751088
0.00544729
0.00220811
-0.00247659
-0.00855902
-0.0152003
-0.0219151
-0.0281221
-0.0336584
-0.0351464
-0.0333433
-0.0295797
-0.0243381
-0.0184263
-0.0125755
-0.00728516
-0.00304566
6.66372e-05
0.00228575
0.00373244
0.00464088
0.00522529
0.00560588
0.00584832
0.00599919
0.00609459
0.00614875
0.00668298
0.00665205
0.00665331
0.0066837
0.00676301
0.00689523
0.00709325
0.0073649
0.00772734
0.00816118
0.00860152
0.00907333
0.00898984
0.0083588
0.00674189
0.00384153
-0.000656077
-0.00715132
-0.0147209
-0.0226534
-0.0298926
-0.0367946
-0.0382689
-0.036662
-0.0326797
-0.0269939
-0.0206025
-0.01419
-0.00844712
-0.00388655
-0.000611718
0.00175481
0.0032501
0.00424561
0.0048828
0.00529181
0.00555364
0.00570267
0.00577233
0.00575404
0.00628547
0.00626369
0.00626513
0.00628658
0.00633835
0.00642456
0.00655669
0.0067349
0.0069469
0.00717887
0.00727918
0.00727119
0.00683941
0.00584262
0.00404523
0.00121584
-0.00290696
-0.00834579
-0.0150021
-0.0218621
-0.0279293
-0.0324552
-0.0332795
-0.0316033
-0.0277335
-0.0225929
-0.016937
-0.0114129
-0.00658102
-0.00278366
-2.52374e-06
0.00199941
0.00332735
0.00418497
0.00473522
0.00508798
0.00530571
0.00541775
0.00546134
0.0054277
0.00583719
0.0058422
0.00583731
0.00582313
0.00580437
0.00578421
0.00576541
0.00572312
0.00560815
0.00535309
0.00480323
0.00389248
0.00256509
0.000796012
-0.00153539
-0.00443521
-0.0080099
-0.0119448
-0.0161027
-0.0200006
-0.022956
-0.0243069
-0.0233624
-0.0210931
-0.0178224
-0.0139288
-0.00987415
-0.00608638
-0.0028666
-0.000318868
0.00160016
0.00294422
0.00383264
0.00439277
0.00474271
0.00495568
0.00507803
0.00514067
0.00516717
0.00516841
0.00533698
0.00533139
0.00529212
0.00521947
0.00511341
0.00496193
0.00474401
0.00441608
0.00391165
0.00311147
0.0019389
0.000276707
-0.00187867
-0.00446319
-0.00746595
-0.0106773
-0.0138975
-0.0164916
-0.0180029
-0.0184685
-0.0182984
-0.0169418
-0.0147613
-0.0119138
-0.00881662
-0.00568417
-0.00291286
-0.000633642
0.00114905
0.00251964
0.00353313
0.0041694
0.00455173
0.00476722
0.00488926
0.00495704
0.00499409
0.00501398
0.00502604
0.00503788
0.00482551
0.00476912
0.00468313
0.00455738
0.00438061
0.00412381
0.0037393
0.00315488
0.00228804
0.00101588
-0.00073092
-0.00304638
-0.00596441
-0.00936244
-0.013071
-0.0166696
-0.0195799
-0.0210554
-0.0206168
-0.0185764
-0.0161774
-0.0131723
-0.0101405
-0.00676056
-0.00339156
-0.000392421
0.00186473
0.00343693
0.00442484
0.00495805
0.00519274
0.00524385
0.00521236
0.00516364
0.00510884
0.00506209
0.0050258
0.00499677
0.00497506
0.00496712
0.00438939
0.00431649
0.00420968
0.00406005
0.00384519
0.00352266
0.00303269
0.00227465
0.00111777
-0.000584534
-0.00293422
-0.00608585
-0.00999758
-0.0144451
-0.0190297
-0.0230726
-0.0261624
-0.0269775
-0.0253906
-0.021178
-0.0165757
-0.0115989
-0.00705537
-0.00277767
0.000887224
0.00348935
0.00516697
0.00607912
0.00640557
0.00634445
0.00608486
0.00578937
0.00551485
0.00530859
0.00514931
0.0050329
0.00495514
0.00490319
0.00487312