/*--------------------------------*- C++ -*----------------------------------*\
| =========                 |                                                 |
| \\      /  F ield         | OpenFOAM: The Open Source CFD Toolbox           |
|  \\    /   O peration     | Version:  v2106                                 |
|   \\  /    A nd           | Website:  www.openfoam.com                      |
|    \\/     M anipulation  |                                                 |
\*---------------------------------------------------------------------------*/
FoamFile
{
    version     2.0;
    format      ascii;
    arch        "LSB;label=32;scalar=64";
    class       volVectorField;
    location    "0";
    object      U;
}
// * * * * * * * * * * * * * * * * * * * * * * * * * * * * * * * * * * * * * //

dimensions      [0 1 -1 0 0 0 0];

internalField   nonuniform List<vector> 
11644
(
(0.995142 -0.000212495 1.16878e-23)
(0.995041 -0.000558819 3.22314e-23)
(0.99498 -0.000822415 1.72929e-23)
(0.994963 -0.00108867 0)
(0.994959 -0.00136607 0)
(0.994958 -0.00164918 0)
(0.994959 -0.00193189 0)
(0.99496 -0.00220724 0)
(0.994961 -0.00246506 0)
(0.994968 -0.00268767 0)
(0.994944 -0.00286772 0)
(0.994935 -0.00297608 0)
(0.995017 -0.00299218 0)
(0.995162 -0.00294272 0)
(0.99501 -0.00270611 0)
(0.995043 -0.0024778 0)
(0.994919 -0.00212566 0)
(0.994539 -0.00139196 0)
(0.99431 -0.000274639 0)
(0.994429 0.00077406 3.25973e-30)
(0.994618 0.00162306 -3.27055e-30)
(0.994835 0.00234459 0)
(0.99499 0.00291619 0)
(0.995056 0.00340105 0)
(0.994952 0.00372895 0)
(0.994925 0.00394181 0)
(0.995075 0.0040247 0)
(0.994902 0.00398897 0)
(0.994912 0.0038407 0)
(0.994946 0.00360385 0)
(0.994936 0.00331405 0)
(0.994946 0.00297905 0)
(0.994949 0.0026258 0)
(0.994952 0.00226464 0)
(0.994956 0.00190756 0)
(0.99496 0.00156282 0)
(0.994964 0.00123554 0)
(0.99498 0.000929694 0)
(0.995049 0.000633887 0)
(0.995167 0.000240418 2.26614e-24)
(0.995869 -0.000428336 1.50129e-23)
(0.995796 -0.00129543 1.39067e-23)
(0.995747 -0.00215935 7.46885e-24)
(0.995739 -0.0030141 0)
(0.995751 -0.00386581 0)
(0.995763 -0.00471808 0)
(0.995765 -0.00556353 0)
(0.995749 -0.00638226 0)
(0.995706 -0.00714416 0)
(0.995611 -0.00781315 0)
(0.995518 -0.00832071 0)
(0.995344 -0.00863182 0)
(0.994985 -0.00865401 0)
(0.994473 -0.00829054 0)
(0.994331 -0.0075942 0)
(0.993827 -0.00639531 -6.55997e-24)
(0.993057 -0.00456917 1.34833e-25)
(0.99241 -0.00223642 -6.77095e-23)
(0.992233 0.000308273 1.5266e-23)
(0.992371 0.00287108 8.59807e-22)
(0.99254 0.00526163 -7.65521e-22)
(0.99267 0.00745072 -6.96696e-23)
(0.992977 0.00944339 2.3101e-23)
(0.993456 0.0110542 4.89557e-24)
(0.994139 0.0121685 1.41906e-24)
(0.994658 0.0127261 0)
(0.994862 0.0128773 0)
(0.995465 0.0125447 0)
(0.9957 0.0119425 0)
(0.995829 0.0111181 0)
(0.995957 0.0101066 0)
(0.995984 0.00901941 0)
(0.995988 0.0078864 0)
(0.995963 0.00675187 0)
(0.995925 0.00564057 0)
(0.995882 0.00456787 0)
(0.995847 0.00353248 0)
(0.995847 0.00251548 0)
(0.995906 0.00149424 0)
(0.99599 0.000493738 0)
(0.997326 -0.00067464 0)
(0.997279 -0.00205351 0)
(0.997256 -0.00347794 0)
(0.997269 -0.00490366 0)
(0.997301 -0.00632925 1.3714e-23)
(0.99733 -0.00775484 0)
(0.997331 -0.00916971 0)
(0.997277 -0.0105444 0)
(0.997133 -0.0118366 0)
(0.996891 -0.0129704 0)
(0.996434 -0.0138839 0)
(0.995786 -0.0144348 0)
(0.995049 -0.0144732 8.27473e-25)
(0.994202 -0.013939 5.59317e-23)
(0.992681 -0.0125144 3.58108e-22)
(0.991123 -0.0102034 -4.32087e-22)
(0.989476 -0.00702385 4.92804e-22)
(0.988129 -0.00322899 -6.86324e-23)
(0.987413 0.00112313 -2.13442e-22)
(0.987334 0.00596736 -2.85211e-22)
(0.987816 0.0107774 -1.35797e-22)
(0.988703 0.0149986 1.06944e-21)
(0.98989 0.0183719 -3.06859e-22)
(0.991413 0.0209284 -4.60529e-22)
(0.992887 0.022573 3.19515e-22)
(0.994372 0.0233051 -3.41222e-22)
(0.996015 0.0231282 -5.19174e-23)
(0.996684 0.0223792 -1.06682e-24)
(0.997436 0.0210345 0)
(0.997935 0.0193058 0)
(0.998139 0.0173996 0)
(0.998223 0.0153658 0)
(0.998178 0.0133304 0)
(0.998072 0.0113309 0)
(0.997938 0.00940014 0)
(0.997804 0.00754759 0)
(0.997694 0.00576553 0)
(0.997628 0.00404006 0)
(0.99762 0.00236711 0)
(0.997657 0.000765206 0)
(0.999534 -0.000929847 0)
(0.999501 -0.00283445 0)
(0.999509 -0.00478142 0)
(0.999554 -0.00675906 0)
(0.999615 -0.00876524 0)
(0.999663 -0.0107923 0)
(0.999661 -0.0128227 0)
(0.999556 -0.0148252 0)
(0.999296 -0.0167388 0)
(0.99877 -0.0184979 0)
(0.99799 -0.0199309 -1.77661e-24)
(0.996854 -0.0208885 1.45452e-22)
(0.99509 -0.0211833 -8.74479e-23)
(0.992459 -0.0205052 -2.55838e-22)
(0.989937 -0.0186422 1.12977e-22)
(0.986841 -0.0153989 -3.95841e-22)
(0.983657 -0.0108311 5.04159e-22)
(0.980885 -0.00515747 1.78745e-21)
(0.978995 0.00171439 -2.23915e-21)
(0.978525 0.00936483 1.25516e-21)
(0.979431 0.0169604 -1.23598e-21)
(0.981494 0.0238146 -1.72065e-21)
(0.984326 0.0293416 2.23496e-21)
(0.987638 0.0330752 -6.9432e-22)
(0.991153 0.0352461 4.31386e-22)
(0.994506 0.0358971 -5.74854e-23)
(0.996709 0.0353886 2.35775e-22)
(0.999195 0.0334014 4.77316e-23)
(1.00057 0.0308972 -6.5561e-23)
(1.00135 0.0279939 1.31537e-24)
(1.00174 0.0248764 0)
(1.00177 0.0217595 0)
(1.00161 0.0186938 0)
(1.00134 0.0157597 0)
(1.00103 0.0129776 0)
(1.00073 0.0103509 0)
(1.00047 0.0078699 0)
(1.00029 0.00550586 0)
(1.00019 0.00323952 0)
(1.00018 0.00107496 0)
(1.00245 -0.00120183 0)
(1.00244 -0.00363268 0)
(1.00249 -0.00609893 0)
(1.00259 -0.0086244 0)
(1.00271 -0.011207 0)
(1.00281 -0.0138634 0)
(1.00283 -0.0165777 0)
(1.00271 -0.0193183 0)
(1.00233 -0.0220379 0)
(1.00162 -0.0246037 -6.20635e-24)
(1.00036 -0.0268661 -2.85333e-22)
(0.998228 -0.028655 -3.64372e-22)
(0.995302 -0.0295718 -1.46585e-22)
(0.991776 -0.0292642 -3.12768e-22)
(0.986537 -0.0274211 2.11083e-21)
(0.981024 -0.0235671 -7.14737e-22)
(0.975739 -0.0178387 3.60267e-22)
(0.970452 -0.00999256 1.86973e-21)
(0.966315 0.000137036 -3.78118e-21)
(0.964787 0.011955 -6.32198e-22)
(0.966485 0.0240746 1.93058e-21)
(0.971032 0.0349858 1.44654e-21)
(0.977062 0.0434106 -9.23902e-22)
(0.984264 0.0484981 -5.7388e-22)
(0.99024 0.0507287 7.6536e-22)
(0.995675 0.0509306 -1.45099e-21)
(1.00103 0.0487064 -1.06735e-23)
(1.00343 0.0457291 5.76831e-22)
(1.00543 0.0415399 -2.09978e-22)
(1.00647 0.0369142 3.50067e-22)
(1.00684 0.0322909 -9.36566e-26)
(1.00675 0.0278489 0)
(1.00634 0.0236811 0)
(1.00578 0.0197863 0)
(1.00518 0.0161736 0)
(1.00461 0.0128211 0)
(1.00413 0.00970041 0)
(1.00376 0.00677342 0)
(1.00353 0.00398386 0)
(1.00345 0.00129211 0)
(1.00604 -0.00146519 0)
(1.00606 -0.00438675 0)
(1.00618 -0.00740966 0)
(1.00637 -0.0104745 0)
(1.00661 -0.0136619 0)
(1.00683 -0.0169807 0)
(1.00697 -0.0204459 0)
(1.00692 -0.024051 0)
(1.00657 -0.0277407 -6.04433e-24)
(1.00566 -0.031396 2.2962e-22)
(1.00378 -0.0348945 -1.14388e-22)
(1.00088 -0.0379077 -1.02849e-21)
(0.996712 -0.0402061 1.00406e-21)
(0.990172 -0.0415589 5.79376e-22)
(0.983465 -0.040343 -9.4778e-22)
(0.974844 -0.0366926 2.40413e-23)
(0.964537 -0.0302973 2.6105e-22)
(0.954968 -0.0197936 9.15507e-23)
(0.947239 -0.00485985 -5.50551e-21)
(0.943974 0.0125416 9.83697e-21)
(0.946336 0.0304945 -7.91816e-21)
(0.953704 0.0470091 3.28621e-21)
(0.964626 0.0604225 -5.15959e-23)
(0.977536 0.0678717 1.2039e-21)
(0.989085 0.0696939 -7.81377e-22)
(0.999078 0.0688994 9.56175e-22)
(1.00539 0.0657011 -1.18203e-21)
(1.01091 0.0587242 -8.91247e-22)
(1.01329 0.0521187 1.12095e-21)
(1.01402 0.0454843 -2.20083e-22)
(1.01386 0.0391104 7.36295e-23)
(1.01326 0.0332369 -8.93305e-24)
(1.01238 0.0279064 0)
(1.01134 0.023091 0)
(1.01029 0.0187298 0)
(1.00933 0.0147719 0)
(1.00852 0.011144 0)
(1.0079 0.00778081 0)
(1.00749 0.00460261 0)
(1.00731 0.00154418 0)
(1.01028 -0.00165801 0)
(1.01035 -0.00510778 0)
(1.01058 -0.00855657 0)
(1.01093 -0.0121775 0)
(1.01136 -0.0159765 0)
(1.01182 -0.0200044 0)
(1.01221 -0.0243001 0)
(1.01242 -0.0288867 -7.99489e-24)
(1.01218 -0.0337008 6.34093e-24)
(1.01105 -0.0387311 -1.59702e-22)
(1.00886 -0.0437809 -8.93142e-22)
(1.00538 -0.0487446 1.31545e-21)
(1.00032 -0.0535823 7.61917e-22)
(0.994105 -0.0571566 -1.01659e-21)
(0.982639 -0.0599153 7.20341e-22)
(0.968774 -0.058474 -9.57038e-22)
(0.959518 -0.0464479 -9.09097e-22)
(0.944805 -0.0353924 -5.54504e-21)
(0.931328 -0.0170694 -5.27491e-21)
(0.923557 0.00706345 5.19898e-21)
(0.924955 0.033345 1.4405e-21)
(0.934639 0.0567801 -3.22382e-21)
(0.949914 0.0744753 -4.41338e-21)
(0.96739 0.0839831 -5.89993e-21)
(0.9907 0.095901 1.06543e-21)
(1.00554 0.091785 -8.16996e-22)
(1.01762 0.0816935 1.15386e-21)
(1.02155 0.073361 -1.37354e-21)
(1.02418 0.0628786 -5.06122e-22)
(1.02441 0.0532641 6.38564e-22)
(1.02316 0.0448063 4.4344e-23)
(1.02143 0.0374509 9.70352e-23)
(1.01963 0.0310503 -4.51779e-24)
(1.01786 0.0254475 0)
(1.01617 0.0205029 0)
(1.01468 0.0160906 0)
(1.01344 0.0121017 0)
(1.0125 0.00842505 0)
(1.01187 0.00494676 0)
(1.01158 0.00161054 0)
(1.01508 -0.00194809 0)
(1.01523 -0.00573541 0)
(1.01561 -0.00969706 0)
(1.0162 -0.0138056 0)
(1.01694 -0.0181508 0)
(1.01779 -0.0228491 0)
(1.01865 -0.0279789 0)
(1.0193 -0.0335635 6.47133e-23)
(1.01918 -0.039588 -3.17428e-22)
(1.01823 -0.0459782 -1.73199e-22)
(1.01637 -0.0528026 -1.09729e-23)
(1.01332 -0.0602018 2.18278e-22)
(1.00867 -0.0677919 1.32691e-22)
(0.998627 -0.0727506 -1.64468e-21)
(0.989533 -0.0761551 4.50843e-22)
(0.972863 -0.0809507 2.14385e-21)
(0.948958 -0.0790771 -1.89902e-21)
(0.92401 -0.0672585 2.8308e-21)
(0.89745 -0.0432372 -2.8934e-21)
(0.879355 -0.00537588 -4.71595e-22)
(0.879039 0.0395938 6.26159e-22)
(0.896825 0.0797584 9.09331e-21)
(0.926778 0.10668 -5.57037e-22)
(0.95934 0.118465 2.51591e-21)
(0.988999 0.12016 2.85165e-22)
(1.01094 0.111182 1.88881e-21)
(1.02414 0.0993189 -9.64137e-22)
(1.03823 0.0854187 -5.18876e-22)
(1.03922 0.0720908 2.73721e-22)
(1.03784 0.059704 4.58594e-22)
(1.03482 0.0489321 -5.88221e-24)
(1.03134 0.0400009 3.29285e-23)
(1.02797 0.0326631 -2.86477e-23)
(1.02511 0.0265191 0)
(1.02259 0.0212178 0)
(1.02042 0.0165564 0)
(1.01866 0.0123939 0)
(1.01734 0.00859109 0)
(1.01646 0.00508219 0)
(1.01605 0.00166594 0)
(1.02036 -0.00198217 0)
(1.02062 -0.00615312 0)
(1.02122 -0.0104393 0)
(1.02214 -0.0149329 0)
(1.02333 -0.0198047 0)
(1.02475 -0.025127 0)
(1.02631 -0.0310205 4.82209e-24)
(1.02749 -0.0375113 -1.55723e-23)
(1.02772 -0.0445502 -5.25052e-23)
(1.0275 -0.0521777 2.3532e-22)
(1.02676 -0.0608543 -2.98494e-22)
(1.02519 -0.0710863 -2.78694e-22)
(1.0217 -0.0844474 5.39447e-22)
(1.0107 -0.0945543 8.71535e-22)
(0.999975 -0.105022 -4.37762e-22)
(0.981169 -0.119351 4.6918e-22)
(0.953191 -0.121309 -2.15213e-21)
(0.908911 -0.118266 7.06813e-22)
(0.859249 -0.0926132 -7.44289e-22)
(0.816491 -0.0357265 4.90849e-21)
(0.807363 0.0433724 -8.61768e-22)
(0.838503 0.113679 -4.98679e-21)
(0.892769 0.15426 -1.80328e-23)
(0.950954 0.166507 3.80301e-21)
(0.994843 0.157558 -2.3928e-21)
(1.03042 0.141438 -8.01845e-22)
(1.04524 0.12025 2.50122e-21)
(1.06022 0.0983419 -3.36729e-22)
(1.05867 0.0787729 4.96179e-22)
(1.05442 0.0633771 -6.07193e-23)
(1.04868 0.0507464 -6.96323e-23)
(1.04274 0.040539 8.61436e-23)
(1.03719 0.0324612 -1.21225e-22)
(1.03272 0.0260481 -1.01872e-23)
(1.0292 0.0207184 0)
(1.02627 0.0161264 0)
(1.02393 0.0120648 0)
(1.02219 0.00840187 0)
(1.02104 0.00491961 0)
(1.0205 0.0016863 0)
(1.02596 -0.0022005 0)
(1.02635 -0.00646972 0)
(1.02723 -0.0108851 0)
(1.02857 -0.0156274 0)
(1.03036 -0.0207887 0)
(1.03256 -0.0265095 0)
(1.03498 -0.0329216 7.49314e-24)
(1.03675 -0.0400301 -6.62769e-23)
(1.03771 -0.0476911 2.40682e-23)
(1.03883 -0.0562754 5.943e-23)
(1.04013 -0.0666865 -2.09085e-22)
(1.04143 -0.0796494 8.64352e-23)
(1.04233 -0.0966612 9.48185e-23)
(1.03554 -0.113562 -3.8859e-23)
(1.02781 -0.133783 -7.5259e-23)
(1.00571 -0.160912 2.1959e-22)
(0.972228 -0.183418 -3.51657e-22)
(0.911258 -0.207675 -4.96545e-22)
(0.812403 -0.202591 4.13933e-21)
(0.696564 -0.120909 2.4315e-21)
(0.650834 0.0452993 -1.81129e-21)
(0.727836 0.200041 1.21576e-21)
(0.857675 0.26079 -1.71809e-21)
(0.960735 0.248575 3.29634e-22)
(1.02957 0.212671 -1.73962e-22)
(1.07005 0.172513 -6.937e-22)
(1.08027 0.134064 2.92507e-22)
(1.08969 0.102061 9.22907e-23)
(1.08225 0.0794184 -3.1232e-23)
(1.07363 0.0626226 7.10523e-23)
(1.06418 0.0492008 -1.1008e-22)
(1.05509 0.0384543 3.43271e-23)
(1.04686 0.0301746 -5.21184e-23)
(1.04031 0.0239001 1.07853e-23)
(1.03559 0.018903 0)
(1.03183 0.0146492 0)
(1.02889 0.0109094 0)
(1.02673 0.0075423 0)
(1.02533 0.00444042 0)
(1.02467 0.00137082 0)
(1.03162 -0.00197995 0)
(1.03219 -0.00633492 0)
(1.03341 -0.0108071 0)
(1.03528 -0.015599 0)
(1.03779 -0.0208101 0)
(1.04092 -0.0266536 0)
(1.04424 -0.0332093 1.55969e-23)
(1.04665 -0.0403745 -2.9633e-23)
(1.04872 -0.0481843 8.95498e-24)
(1.0518 -0.0572227 -5.52683e-23)
(1.05611 -0.0683684 5.33225e-23)
(1.06187 -0.0825303 1.42283e-22)
(1.06938 -0.0995552 -1.64487e-22)
(1.07015 -0.122527 -8.03748e-23)
(1.07228 -0.152623 -2.97109e-22)
(1.06669 -0.194968 8.79603e-23)
(1.04517 -0.252865 -5.30944e-24)
(0.988972 -0.344802 1.13277e-22)
(0.825769 -0.448303 -1.78033e-21)
(0.459277 -0.422292 -5.8921e-20)
(0.187737 0.0650277 -3.13219e-21)
(0.520449 0.516893 -3.74873e-20)
(0.893431 0.500211 1.40994e-21)
(1.05869 0.367693 7.31957e-23)
(1.11643 0.260249 -6.67051e-23)
(1.13456 0.180996 7.80261e-23)
(1.12767 0.136943 -5.95248e-23)
(1.12266 0.0914269 -6.4201e-24)
(1.10818 0.0716084 2.10425e-23)
(1.09392 0.055658 -2.81627e-24)
(1.08004 0.0430468 -3.34696e-24)
(1.06742 0.0331571 -1.8846e-23)
(1.05629 0.0256073 3.75345e-23)
(1.04735 0.0200203 -1.47051e-23)
(1.04129 0.015811 0)
(1.03678 0.012288 0)
(1.0333 0.00920483 0)
(1.03075 0.006374 0)
(1.02913 0.00380854 0)
(1.02833 0.00130037 0)
(1.03715 -0.00218422 0)
(1.03792 -0.00604441 0)
(1.03951 -0.0102076 0)
(1.04191 -0.0146303 0)
(1.04517 -0.0195653 0)
(1.04929 -0.025157 0)
(1.05346 -0.0313897 -1.13457e-23)
(1.05652 -0.0380384 2.68784e-24)
(1.05995 -0.0453273 1.86065e-23)
(1.06534 -0.053941 5.91866e-23)
(1.07293 -0.0642598 9.13767e-23)
(1.08322 -0.0768014 1.45113e-22)
(1.0979 -0.0923189 -2.97628e-22)
(1.10577 -0.115841 -5.08817e-23)
(1.12599 -0.14357 3.19118e-22)
(1.14476 -0.190484 -9.65804e-23)
(1.17052 -0.261426 2.67009e-22)
(1.21137 -0.394357 1.21912e-21)
(0.898609 -0.479962 -8.43571e-20)
(1.12873 0.593269 6.30982e-20)
(1.29994 0.389764 1.11657e-22)
(1.24693 0.238042 3.0251e-22)
(1.21141 0.150594 -7.12626e-23)
(1.17927 0.1117 -6.19293e-23)
(1.15543 0.0675836 3.07391e-22)
(1.13223 0.0527947 -1.32194e-22)
(1.11202 0.0409055 -8.58494e-23)
(1.09396 0.0316662 -7.03557e-23)
(1.07819 0.0244183 -2.9969e-23)
(1.06448 0.0187745 -2.30683e-23)
(1.05329 0.0146012 -7.41965e-24)
(1.04586 0.0116025 0)
(1.04077 0.00916293 0)
(1.0369 0.00696881 0)
(1.03408 0.00494982 0)
(1.03218 0.0028853 0)
(1.0313 0.0010371 0)
(1.04224 -0.00155548 0)
(1.0432 -0.00519362 0)
(1.04513 -0.00884099 0)
(1.04808 -0.0127473 0)
(1.05211 -0.0170879 0)
(1.05718 -0.0220126 0)
(1.062 -0.0274067 -3.78613e-25)
(1.06567 -0.0330518 -9.09151e-24)
(1.07048 -0.0392734 9.07995e-25)
(1.07792 -0.0466037 8.10603e-23)
(1.08834 -0.0551857 -1.1951e-22)
(1.10206 -0.0647489 6.36799e-23)
(1.12092 -0.0752514 3.58612e-22)
(1.13571 -0.093242 2.28775e-22)
(1.16822 -0.108892 4.93751e-21)
(1.20546 -0.137632 -1.42057e-22)
(1.26827 -0.175148 4.0505e-23)
(1.3619 -0.214011 2.03442e-21)
(0.0151378 0.00945567 4.27633e-19)
(0.0532693 0.000506179 -1.78148e-19)
(1.46711 0.198968 -3.04933e-22)
(1.3448 0.135716 1.91646e-22)
(1.27036 0.0821488 2.17292e-21)
(1.2203 0.0602902 3.11074e-21)
(1.17711 0.0294779 6.57417e-22)
(1.14812 0.0242206 -2.37658e-22)
(1.12399 0.0194845 -3.09255e-23)
(1.10344 0.0158413 2.46283e-23)
(1.08569 0.0127517 -1.17239e-23)
(1.07015 0.0101255 -5.30596e-24)
(1.0573 0.00807758 6.46276e-24)
(1.0488 0.00666162 0)
(1.04325 0.00545179 0)
(1.03911 0.00420283 0)
(1.03619 0.00298851 0)
(1.03437 0.00182999 0)
(1.03347 0.000473197 0)
(1.04648 -0.00127085 -6.01375e-26)
(1.04768 -0.00401151 0)
(1.04999 -0.00689241 0)
(1.05345 -0.0100283 0)
(1.0581 -0.0134284 0)
(1.0639 -0.0172603 0)
(1.0692 -0.0213927 -9.84452e-25)
(1.07349 -0.0257925 2.33925e-23)
(1.07959 -0.0307316 7.50845e-23)
(1.08865 -0.036545 -5.22794e-22)
(1.10084 -0.0431685 4.45512e-22)
(1.11597 -0.0497965 5.2116e-22)
(1.13493 -0.0556183 -5.58652e-22)
(1.151 -0.0653444 7.26387e-22)
(1.18224 -0.0668844 -4.19519e-22)
(1.22134 -0.0701581 1.26194e-21)
(1.28383 -0.0662297 -1.27959e-21)
(1.24495 -0.0285142 -1.39664e-22)
(0.120504 0.0132879 -2.84145e-21)
(0.194722 0.0366679 1.48571e-20)
(1.45041 0.0213855 -3.30349e-22)
(1.37303 0.0148293 -1.79518e-22)
(1.29122 -0.00326662 -1.88045e-21)
(1.23622 -0.00443884 6.97017e-23)
(1.18275 -0.0157498 4.52706e-22)
(1.15196 -0.00915401 -4.79188e-22)
(1.12684 -0.00524733 -2.27253e-22)
(1.10598 -0.00221116 -3.87254e-23)
(1.08805 -0.000389126 1.2561e-22)
(1.07237 0.000602264 -1.2361e-24)
(1.05896 0.00119919 -6.95099e-26)
(1.0501 0.00160269 0)
(1.04462 0.00173096 0)
(1.04056 0.00158882 0)
(1.03763 0.00124767 0)
(1.03575 0.000830306 0)
(1.0348 0.000328992 0)
(1.0503 -0.00119356 -6.23007e-27)
(1.05143 -0.00282476 0)
(1.0539 -0.00464321 0)
(1.0576 -0.00659037 0)
(1.0626 -0.00871133 0)
(1.06882 -0.0111201 0)
(1.07467 -0.0138197 -5.24314e-24)
(1.07976 -0.0168595 -8.3493e-24)
(1.08712 -0.020571 -9.79313e-23)
(1.0973 -0.0250438 1.28608e-22)
(1.11017 -0.0301161 6.92442e-22)
(1.12531 -0.0354129 -3.13141e-22)
(1.1417 -0.0405802 -2.42581e-22)
(1.15401 -0.0437539 2.09261e-22)
(1.1721 -0.0395112 1.64106e-21)
(1.19342 -0.0217362 -1.37779e-21)
(1.22744 0.0199294 1.96748e-21)
(1.07767 0.131972 7.27936e-22)
(0.0778029 0.25877 1.7526e-21)
(-0.246822 0.411152 7.67144e-22)
(-0.0725232 0.552158 7.06766e-23)
(0.213278 0.441336 -3.4197e-22)
(0.575722 0.0621332 1.19809e-21)
(1.44756 -0.102565 2.67457e-21)
(1.36487 -0.10172 -2.34566e-21)
(1.27736 -0.0909439 -1.94991e-21)
(1.2234 -0.0699488 2.15362e-21)
(1.16837 -0.0588172 6.60995e-22)
(1.14114 -0.0415589 1.05877e-22)
(1.11897 -0.0291112 -5.12516e-22)
(1.1004 -0.019469 1.27208e-22)
(1.08431 -0.012778 -3.11793e-23)
(1.07001 -0.00816771 -6.91508e-23)
(1.05755 -0.00496833 7.87398e-24)
(1.04932 -0.00277691 0)
(1.0443 -0.00141748 0)
(1.04064 -0.0006295 0)
(1.03797 -0.000234774 0)
(1.03622 -0.000121581 0)
(1.03538 1.60367e-06 0)
(1.05252 -5.67614e-05 4.17112e-23)
(1.05379 -0.000895046 0)
(1.05611 -0.00167883 0)
(1.05986 -0.0024558 0)
(1.06511 -0.00322738 0)
(1.07169 -0.00404602 0)
(1.07829 -0.00515426 3.11758e-26)
(1.08426 -0.00683137 -4.07479e-23)
(1.09279 -0.00932019 1.70774e-22)
(1.10409 -0.0127368 -3.43249e-22)
(1.11754 -0.0169775 5.07843e-22)
(1.13284 -0.0224941 -8.5557e-22)
(1.14719 -0.0292708 7.44393e-22)
(1.15383 -0.0357338 -1.29665e-21)
(1.15807 -0.0390123 -7.68823e-23)
(1.14633 -0.0319577 -6.11412e-22)
(1.11092 0.0100624 -3.75488e-21)
(0.721659 0.166622 -5.05223e-21)
(-0.187246 0.396615 2.95415e-21)
(-0.351974 0.419727 7.36449e-21)
(0.117629 0.242926 -4.4512e-21)
(0.619134 0.0331161 -4.8414e-21)
(1.16242 -0.234508 6.7448e-22)
(1.42132 -0.292759 -6.0326e-21)
(1.31241 -0.22422 1.46906e-21)
(1.22778 -0.172497 -7.25511e-23)
(1.18379 -0.124869 -3.13394e-21)
(1.135 -0.091355 6.89833e-22)
(1.11609 -0.0656051 -3.61794e-22)
(1.10042 -0.0466679 -9.57975e-22)
(1.08697 -0.0320147 8.16795e-22)
(1.07481 -0.0215481 -4.18514e-22)
(1.06344 -0.0140535 4.42312e-23)
(1.05329 -0.00914826 1.20234e-24)
(1.04669 -0.0060507 0)
(1.04266 -0.00398322 0)
(1.03965 -0.00254122 0)
(1.03745 -0.00154558 0)
(1.036 -0.000779902 0)
(1.03545 -0.000239372 3.8091e-23)
(1.05229 0.000319181 1.93076e-22)
(1.05382 0.000942524 0)
(1.05639 0.00155111 0)
(1.0602 0.00209376 0)
(1.06546 0.00273152 0)
(1.07216 0.00356269 0)
(1.07949 0.00422026 0)
(1.08672 0.00397082 -4.44693e-24)
(1.09616 0.00275749 -4.32237e-23)
(1.10847 0.000677561 5.60162e-23)
(1.1233 -0.0026599 -6.64203e-23)
(1.14053 -0.00848601 3.32911e-22)
(1.1583 -0.0162967 -2.61983e-22)
(1.17552 -0.0344087 -2.51598e-23)
(1.17043 -0.0493767 4.72929e-22)
(1.15836 -0.0831347 -2.66938e-23)
(1.06737 -0.106024 2.23492e-22)
(0.43061 -0.0253657 -6.42687e-20)
(-0.230372 -0.0204155 -5.16259e-22)
(-0.0583736 -0.244747 -6.25517e-21)
(0.410127 -0.454769 9.09844e-22)
(0.843857 -0.603351 -5.13306e-22)
(1.27103 -0.628819 1.63452e-21)
(1.26221 -0.449547 7.13632e-22)
(1.17231 -0.311898 1.54575e-21)
(1.14161 -0.226661 -3.19648e-21)
(1.09752 -0.151756 -6.39165e-22)
(1.08853 -0.106182 1.60262e-22)
(1.08143 -0.0762926 -8.63338e-23)
(1.07457 -0.0541193 -6.0557e-23)
(1.0682 -0.0371084 -8.77146e-23)
(1.06153 -0.0248015 9.33081e-23)
(1.05431 -0.0160445 3.85279e-23)
(1.04757 -0.0102854 0)
(1.0431 -0.00690035 0)
(1.04023 -0.0047245 0)
(1.03803 -0.00313019 0)
(1.03641 -0.00199608 0)
(1.03538 -0.00105293 0)
(1.03493 -0.000371449 -2.21636e-23)
(1.05099 0.000663937 2.85201e-24)
(1.05232 0.00234764 0)
(1.05479 0.00427458 0)
(1.05845 0.00626684 0)
(1.06347 0.00842743 0)
(1.06999 0.0109292 0)
(1.0778 0.0135629 0)
(1.0865 0.0153612 0)
(1.09716 0.0161298 2.59911e-24)
(1.11053 0.0161589 1.72615e-23)
(1.12728 0.0154361 2.88867e-24)
(1.14803 0.0122563 -1.1539e-22)
(1.17314 0.00744555 -2.55067e-22)
(1.20282 -0.0044144 5.31595e-22)
(1.21504 -0.0378439 3.25807e-22)
(1.24428 -0.0906199 1.40253e-21)
(1.14561 -0.180959 -1.10215e-21)
(0.462959 -0.282401 2.86326e-21)
(0.121642 -0.53837 3.49228e-21)
(0.230657 -0.771716 -2.86642e-21)
(0.551605 -0.860091 1.01902e-20)
(0.849356 -0.827625 -9.10127e-21)
(0.981594 -0.674147 7.44486e-21)
(1.02037 -0.478546 1.72369e-20)
(1.02007 -0.31772 4.70858e-22)
(1.03587 -0.224682 2.12706e-22)
(1.02821 -0.142449 -3.01293e-22)
(1.03784 -0.0980081 7.1316e-22)
(1.04314 -0.0706513 -2.14555e-22)
(1.0461 -0.0495825 -1.84107e-22)
(1.0472 -0.0337581 4.25432e-23)
(1.04627 -0.0222405 -2.56578e-23)
(1.04396 -0.0139577 0)
(1.04141 -0.00862435 0)
(1.03941 -0.00577202 0)
(1.0378 -0.00398655 0)
(1.03639 -0.00267973 2.16482e-23)
(1.03525 -0.00174911 2.9938e-23)
(1.03443 -0.00101361 1.78523e-23)
(1.03398 -0.000269032 0)
(1.04836 0.00116226 0)
(1.04946 0.00369697 0)
(1.05156 0.00650369 0)
(1.05479 0.00963543 0)
(1.05926 0.0131766 0)
(1.06521 0.0172996 0)
(1.07303 0.0220296 0)
(1.08273 0.0265911 0)
(1.09451 0.0306367 -3.52347e-26)
(1.10869 0.0345177 -2.38713e-24)
(1.12662 0.0389258 -1.74133e-23)
(1.14997 0.0427941 -2.23637e-22)
(1.18033 0.0473853 -2.40963e-22)
(1.22042 0.0529231 -1.10456e-21)
(1.26042 0.0261791 2.45988e-21)
(1.3363 -0.000570584 -1.01296e-21)
(1.31001 -0.0887523 -1.32143e-21)
(0.837514 -0.310942 -1.32301e-21)
(0.459609 -0.601045 7.29756e-22)
(0.38493 -0.783182 -7.25381e-21)
(0.494649 -0.805493 3.10978e-21)
(0.655551 -0.68437 1.50748e-21)
(0.769178 -0.520966 1.06826e-22)
(0.813777 -0.387954 1.37744e-21)
(0.875313 -0.251482 -1.27141e-21)
(0.938901 -0.173542 1.77647e-22)
(0.967574 -0.0968245 1.33299e-22)
(0.99222 -0.0665397 8.26785e-23)
(1.01042 -0.0471138 4.46552e-23)
(1.02199 -0.0324059 -3.37985e-24)
(1.02908 -0.0215352 -8.31227e-25)
(1.0329 -0.0135817 -5.40539e-27)
(1.035 -0.00792486 0)
(1.03613 -0.00462745 0)
(1.03637 -0.00308033 0)
(1.03578 -0.00214116 0)
(1.03491 -0.00145722 0)
(1.03407 -0.000941721 0)
(1.03345 -0.000567923 0)
(1.03318 -0.000181905 -3.21523e-24)
(1.0445 0.00154893 0)
(1.04531 0.00477762 0)
(1.04697 0.00825877 0)
(1.04954 0.0121677 0)
(1.05313 0.0167302 0)
(1.05802 0.0221715 0)
(1.06499 0.0286925 0)
(1.07446 0.0359375 0)
(1.08604 0.0437951 0)
(1.09958 0.0526964 0)
(1.11625 0.0639209 -1.67531e-24)
(1.13795 0.077294 -4.93753e-24)
(1.16616 0.0951124 2.23235e-23)
(1.206 0.119238 -7.97324e-23)
(1.25834 0.12049 7.53064e-21)
(1.34838 0.147166 5.53955e-22)
(1.42962 0.137973 4.23745e-21)
(1.20281 0.02895 1.65517e-21)
(0.84548 -0.236139 -2.62213e-22)
(0.593971 -0.487537 1.94854e-21)
(0.469042 -0.608704 -3.68709e-21)
(0.448469 -0.565893 -1.16516e-20)
(0.519198 -0.409249 -2.26459e-21)
(0.635704 -0.236599 6.64055e-22)
(0.788637 -0.126004 -3.31202e-21)
(0.871621 -0.0836879 1.15576e-22)
(0.925955 -0.0215099 1.29242e-22)
(0.965038 -0.0152957 -1.34105e-22)
(0.992351 -0.00896644 5.68819e-24)
(1.00914 -0.00575659 1.45286e-23)
(1.01956 -0.00304661 0)
(1.0261 -0.00104746 0)
(1.03059 0.000295784 0)
(1.03377 0.000658166 0)
(1.0352 0.000454123 0)
(1.03498 0.000266755 0)
(1.03423 0.000152485 0)
(1.03349 0.000102601 0)
(1.03295 4.34871e-05 0)
(1.03265 -2.84454e-05 0)
(1.03982 0.00167444 0)
(1.04033 0.00526817 0)
(1.04141 0.00917641 0)
(1.04314 0.0135998 0)
(1.04555 0.0188103 0)
(1.04893 0.0250554 0)
(1.05431 0.0326322 0)
(1.06223 0.0415774 0)
(1.0718 0.0522761 0)
(1.08234 0.0653254 0)
(1.09445 0.08231 0)
(1.10958 0.103716 -1.35312e-24)
(1.12825 0.132301 -1.51155e-23)
(1.15508 0.16964 -2.64779e-23)
(1.19949 0.200497 2.48443e-21)
(1.25466 0.266784 4.56358e-22)
(1.36334 0.346592 6.68024e-22)
(1.34444 0.408517 2.75532e-22)
(1.13191 0.364661 -4.91441e-22)
(0.854393 0.239647 -7.09414e-21)
(0.597832 0.101801 -6.01173e-21)
(0.421703 -0.00315457 4.13148e-21)
(0.391123 -0.0579321 1.6738e-22)
(0.496961 -0.0606376 -7.25394e-22)
(0.721774 0.0102158 1.55989e-23)
(0.844292 0.0400305 -5.20604e-22)
(0.923589 0.0664323 -2.55934e-22)
(0.96825 0.0445768 -1.62208e-23)
(0.996387 0.033549 8.62186e-24)
(1.01209 0.0226907 0)
(1.02146 0.0158527 0)
(1.02742 0.0112169 0)
(1.03177 0.0080236 0)
(1.03505 0.00551443 0)
(1.03631 0.00360086 0)
(1.03575 0.00227116 0)
(1.03472 0.00137037 0)
(1.03383 0.000763307 0)
(1.03318 0.000358019 0)
(1.03276 6.34923e-05 0)
(1.03492 0.00168844 0)
(1.03501 0.00532623 0)
(1.03541 0.0092796 0)
(1.03616 0.0137769 0)
(1.03725 0.019051 0)
(1.03894 0.0253519 0)
(1.04229 0.0330791 0)
(1.04775 0.0425272 0)
(1.05381 0.0544199 0)
(1.05939 0.0694814 0)
(1.06472 0.089239 1.19317e-23)
(1.07016 0.114662 0)
(1.0766 0.147962 0)
(1.08599 0.19093 2.13794e-22)
(1.09454 0.251401 1.56621e-21)
(1.12022 0.311061 4.19379e-21)
(1.15864 0.423867 5.13002e-22)
(1.1648 0.584226 -1.05636e-23)
(1.08408 0.707398 6.05078e-22)
(0.932586 0.746371 5.20344e-21)
(0.766933 0.698366 -7.43737e-21)
(0.645297 0.568205 1.62227e-21)
(0.604965 0.390603 -2.38142e-22)
(0.630421 0.225839 2.44287e-22)
(0.686613 0.148231 -7.69094e-23)
(0.856957 0.193005 6.80112e-21)
(0.961649 0.137657 2.99756e-21)
(1.00644 0.0950599 0)
(1.02442 0.0670248 0)
(1.03115 0.0440691 -3.84035e-23)
(1.03431 0.0295308 0)
(1.03604 0.0197085 0)
(1.03772 0.0130288 0)
(1.03934 0.00836543 0)
(1.03932 0.00521795 0)
(1.03779 0.00313987 0)
(1.03608 0.0017766 0)
(1.03473 0.000893115 -3.5629e-24)
(1.03376 0.000369432 -2.55607e-24)
(1.0331 5.74144e-05 0)
(1.03002 0.00170692 0)
(1.02976 0.0049973 0)
(1.02959 0.00853148 0)
(1.02952 0.012466 0)
(1.02943 0.0170414 0)
(1.02945 0.0225099 0)
(1.03052 0.0293945 0)
(1.0329 0.0382679 0)
(1.03471 0.049846 0)
(1.03469 0.0647814 0)
(1.03276 0.0842458 1.0531e-22)
(1.02839 0.109697 0)
(1.02218 0.142251 0)
(1.01485 0.185193 -2.0553e-23)
(1.00681 0.2409 -5.21208e-21)
(0.987771 0.302959 1.90606e-22)
(0.966406 0.369932 0)
(0.947427 0.451538 3.92405e-22)
(0.907419 0.53545 -7.91918e-21)
(0.852977 0.601267 -1.05967e-20)
(0.798812 0.624082 -3.61824e-21)
(0.786449 0.600423 6.0948e-22)
(0.803532 0.561119 2.92693e-22)
(0.817828 0.487661 0)
(0.811808 0.375607 5.84769e-22)
(0.945198 0.273836 6.05658e-22)
(1.04489 0.174911 -5.14595e-21)
(1.07403 0.119553 0)
(1.06981 0.0799407 0)
(1.06155 0.05138 -1.10589e-22)
(1.05465 0.0336807 0)
(1.04961 0.0215696 0)
(1.04685 0.0133555 0)
(1.04545 0.00786902 0)
(1.04325 0.00448744 0)
(1.04029 0.00243317 6.44578e-24)
(1.03766 0.00119799 -8.3762e-24)
(1.03567 0.0005081 0)
(1.03428 0.000185132 0)
(1.03337 5.36878e-05 -1.96838e-23)
(1.02561 0.00138346 0)
(1.02533 0.00393873 0)
(1.02494 0.0065845 0)
(1.02433 0.00943072 0)
(1.0233 0.0127127 0)
(1.02187 0.0166197 0)
(1.0206 0.0216946 -3.16945e-24)
(1.01962 0.0287939 0)
(1.0172 0.0385202 0)
(1.01203 0.0512914 0)
(1.00357 0.0679058 0)
(0.990868 0.0899838 0)
(0.972823 0.118188 0)
(0.951787 0.155793 3.76935e-22)
(0.933862 0.204896 5.42526e-23)
(0.907892 0.265069 6.71633e-23)
(0.872193 0.331969 0)
(0.831039 0.412723 0)
(0.792182 0.497513 -2.14934e-21)
(0.771556 0.581042 -2.25959e-20)
(0.773809 0.609248 -1.96032e-20)
(0.804764 0.602153 2.41118e-22)
(0.853672 0.560918 0)
(0.923769 0.487378 0)
(0.983945 0.365763 0)
(1.09936 0.239786 4.49912e-23)
(1.15902 0.143307 -2.80705e-22)
(1.14755 0.0968434 3.94956e-23)
(1.11685 0.0627509 0)
(1.09311 0.0399352 0)
(1.07582 0.0251902 0)
(1.06391 0.0148552 0)
(1.05636 0.00786939 2.82861e-23)
(1.05136 0.00351312 1.15917e-23)
(1.04666 0.0012392 5.83974e-25)
(1.0422 9.40499e-05 0)
(1.03865 -0.000403292 0)
(1.03609 -0.00049169 0)
(1.03439 -0.000325226 0)
(1.03344 -9.12881e-05 0)
(1.02273 0.00061431 0)
(1.02251 0.00211635 0)
(1.02204 0.0035419 0)
(1.02112 0.00504177 0)
(1.01954 0.00668152 0)
(1.01711 0.00854688 0)
(1.01392 0.0110192 0)
(1.00994 0.0149887 0)
(1.00393 0.0209962 8.95787e-24)
(0.994529 0.0292306 0)
(0.980419 0.0402142 0)
(0.960335 0.0552002 0)
(0.933545 0.0759069 5.97109e-22)
(0.898351 0.103098 4.37559e-22)
(0.853105 0.14713 0)
(0.807314 0.211507 0)
(0.759086 0.285473 0)
(0.714946 0.35703 0)
(0.695271 0.41794 2.11346e-21)
(0.720075 0.471274 7.46597e-21)
(0.782218 0.469205 -4.70077e-20)
(0.862298 0.461593 2.264e-20)
(0.956863 0.385378 0)
(1.06363 0.302613 0)
(1.15785 0.18888 0)
(1.24531 0.101707 0)
(1.24313 0.0489486 -1.13168e-21)
(1.19444 0.0328447 -3.51887e-22)
(1.14709 0.0194597 0)
(1.11378 0.0112172 -8.10631e-25)
(1.08999 0.00479573 -1.56607e-23)
(1.07365 0.000248487 -6.631e-24)
(1.06255 -0.00268718 0)
(1.05461 -0.00394906 0)
(1.04799 -0.00392897 0)
(1.04254 -0.00345272 0)
(1.03844 -0.00276806 0)
(1.03555 -0.00200676 0)
(1.03371 -0.00119197 0)
(1.03279 -0.000403383 0)
(1.02191 -2.39003e-05 0)
(1.02151 0.000229001 0)
(1.02099 0.000327838 0)
(1.02007 0.000352046 0)
(1.01849 0.000148847 0)
(1.01586 -0.000316766 0)
(1.01178 -0.000939961 0)
(1.00607 -0.00117011 0)
(0.997932 -0.000719418 0)
(0.986037 0.000263541 0)
(0.968307 0.00191185 -2.72931e-23)
(0.942502 0.00435323 1.31281e-22)
(0.906261 0.011109 -4.06522e-21)
(0.854421 0.0235266 -1.00829e-20)
(0.784721 0.0506581 0)
(0.72308 0.0831977 0)
(0.68107 0.110765 0)
(0.653012 0.126125 0)
(0.655512 0.13115 -1.72209e-20)
(0.71835 0.131969 2.39572e-20)
(0.832333 0.101877 -2.65234e-20)
(0.95429 0.102082 1.14022e-19)
(1.08055 0.0305701 0)
(1.19501 -0.00861283 0)
(1.26608 -0.0642579 0)
(1.30295 -0.0760589 0)
(1.25629 -0.0665588 1.57174e-21)
(1.19512 -0.0449432 6.94173e-22)