/*--------------------------------*- C++ -*----------------------------------*\
| =========                 |                                                 |
| \\      /  F ield         | OpenFOAM: The Open Source CFD Toolbox           |
|  \\    /   O peration     | Version:  v2106                                 |
|   \\  /    A nd           | Website:  www.openfoam.com                      |
|    \\/     M anipulation  |                                                 |
\*---------------------------------------------------------------------------*/
FoamFile
{
    version     2.0;
    format      ascii;
    arch        "LSB;label=32;scalar=64";
    class       pointVectorField;
    location    "0";
    object      pointDisplacement;
}
// * * * * * * * * * * * * * * * * * * * * * * * * * * * * * * * * * * * * * //

dimensions      [0 1 0 0 0 0 0];

internalField   nonuniform List<vector> 
24440
(
(0 0 0)
(0 0 0)
(0 0 0)
(0 0 0)
(0 0 0)
(0 0 0)
(0 0 0)
(0 0 0)
(0 0 0)
(0 0 0)
(0 0 0)
(0 0 0)
(0 0 0)
(0 0 0)
(0 0 0)
(0 0 0)
(0 0 0)
(0 0 0)
(0 0 0)
(0 0 0)
(0 0 0)
(0 0 0)
(0 0 0)
(0 0 0)
(0 0 0)
(0 0 0)
(0 0 0)
(0 0 0)
(0 0 0)
(0 0 0)
(0 0 0)
(0 0 0)
(0 0 0)
(0 0 0)
(0 0 0)
(0 0 0)
(0 0 0)
(0 0 0)
(0 0 0)
(0 0 0)
(0 0 0)
(0 0 0)
(0 0 0)
(0 0 0)
(0 0 0)
(0 0 0)
(0 0 0)
(0 0 0)
(0 0 0)
(0 0 0)
(0 0 0)
(0 0 0)
(0 0 0)
(0 0 0)
(0 0 0)
(0 0 0)
(0 0 0)
(0 0 0)
(0 0 0)
(0 0 0)
(0 0 0)
(0 0 0)
(0 0 0)
(0 0 0)
(0 0 0)
(0 0 0)
(0 0 0)
(0 0 0)
(0 0 0)
(0 0 0)
(0 0 0)
(0 0 0)
(0 0 0)
(0 0 0)
(0 0 0)
(0 0 0)
(0 0 0)
(0 0 0)
(0 0 0)
(0 0 0)
(0 0 0)
(0 0 0)
(0 0 0)
(0 0 0)
(0 0 0)
(0 0 0)
(0 0 0)
(0 0 0)
(0 0 0)
(0 0 0)
(0 0 0)
(0 0 0)
(0 0 0)
(0 0 0)
(0 0 0)
(0 0 0)
(0 0 0)
(0 0 0)
(0 -5.50415e-06 0)
(0 -3.47095e-05 0)
(0 -9.54438e-05 0)
(0 -0.000147074 0)
(0 -0.000166888 0)
(0 -0.000147074 0)
(0 -9.54438e-05 0)
(0 -3.47095e-05 0)
(0 -5.50415e-06 0)
(0 0 0)
(0 0 0)
(0 0 0)
(0 0 0)
(0 0 0)
(0 0 0)
(0 0 0)
(0 0 0)
(0 0 0)
(0 0 0)
(0 0 0)
(0 0 0)
(0 0 0)
(0 0 0)
(0 0 0)
(0 0 0)
(0 0 0)
(0 0 0)
(0 0 0)
(0 0 0)
(0 0 0)
(0 0 0)
(0 0 0)
(0 0 0)
(0 0 0)
(0 0 0)
(0 0 0)
(0 0 0)
(0 0 0)
(0 -9.21797e-06 0)
(0 -0.000121938 0)
(0 -0.000358855 0)
(0 -0.000646455 0)
(0 -0.000922107 0)
(0 -0.00111428 0)
(0 -0.00129292 0)
(0 -0.00135577 0)
(0 -0.00129292 0)
(0 -0.00111428 0)
(0 -0.000922107 0)
(0 -0.000646455 0)
(0 -0.000358855 0)
(0 -0.000121938 0)
(0 -9.21797e-06 0)
(0 0 0)
(0 0 0)
(0 0 0)
(0 0 0)
(0 0 0)
(0 0 0)
(0 0 0)
(0 0 0)
(0 0 0)
(0 0 0)
(0 0 0)
(0 0 0)
(0 0 0)
(0 0 0)
(0 0 0)
(0 0 0)
(0 0 0)
(0 0 0)
(0 0 0)
(0 0 0)
(0 0 0)
(0 0 0)
(0 0 0)
(0 0 0)
(0 -3.87023e-06 0)
(0 -0.00016036 0)
(0 -0.000546879 0)
(0 -0.00107844 0)
(0 -0.00162594 0)
(0 -0.00223676 0)
(0 -0.00276577 0)
(0 -0.0030934 0)
(0 -0.00340669 0)
(0 -0.00351496 0)
(0 -0.00340669 0)
(0 -0.0030934 0)
(0 -0.00276577 0)
(0 -0.00223676 0)
(0 -0.00162594 0)
(0 -0.00107844 0)
(0 -0.000546879 0)
(0 -0.00016036 0)
(0 -3.87023e-06 0)
(0 0 0)
(0 0 0)
(0 0 0)
(0 0 0)
(0 0 0)
(0 0 0)
(0 0 0)
(0 0 0)
(0 0 0)
(0 0 0)
(0 0 0)
(0 0 0)
(0 0 0)
(0 0 0)
(0 0 0)
(0 0 0)
(0 0 0)
(0 0 0)
(0 0 0)
(0 0 0)
(0 0 0)
(0 -3.65949e-05 0)
(0 -0.000380567 0)
(0 -0.00101138 0)
(0 -0.00177447 0)
(0 -0.00272194 0)
(0 -0.00367754 0)
(0 -0.00450539 0)
(0 -0.00528089 0)
(0 -0.0058312 0)
(0 -0.00615999 0)
(0 -0.00631091 0)
(0 -0.00615999 0)
(0 -0.0058312 0)
(0 -0.00528089 0)
(0 -0.00450539 0)
(0 -0.00367754 0)
(0 -0.00272194 0)
(0 -0.00177447 0)
(0 -0.00101138 0)
(0 -0.000380567 0)
(0 -3.87419e-05 0)
(0 0 0)
(0 0 0)
(0 0 0)
(0 0 0)
(0 0 0)
(0 0 0)
(0 0 0)
(0 0 0)
(0 0 0)
(0 0 0)
(0 0 0)
(0 0 0)
(0 0 0)
(0 0 0)
(0 0 0)
(0 0 0)
(0 0 0)
(0 0 0)
(0 0 0)
(0 -7.1974e-05 0)
(0 -0.000504681 0)
(0 -0.00125962 0)
(0 -0.00231247 0)
(0 -0.00356374 0)
(0 -0.00486401 0)
(0 -0.00605723 0)
(0 -0.00718842 0)
(0 -0.00761348 0)
(0 -0.00807315 0)
(0 -0.00845764 0)
(0 -0.00876057 0)
(0 -0.0089772 0)
(0 -0.009127 0)
(0 -0.00926538 0)
(0 -0.00931172 0)
(0 -0.00926538 0)
(0 -0.009127 0)
(0 -0.0089772 0)
(0 -0.00876057 0)
(0 -0.00845764 0)
(0 -0.00807315 0)
(0 -0.00761348 0)
(0 -0.00718842 0)
(0 -0.00605723 0)
(0 -0.00486401 0)
(0 -0.00356374 0)
(0 -0.00231247 0)
(0 -0.00123348 0)
(0 -0.00045603 0)
(0 -5.75119e-05 0)
(0 0 0)
(0 0 0)
(0 0 0)
(0 0 0)
(0 0 0)
(0 0 0)
(0 0 0)
(0 0 0)
(0 0 0)
(0 0 0)
(0 0 0)
(0 0 0)
(0 0 0)
(0 0 0)
(0 0 0)
(0 0 0)
(0 0 0)
(0 -4.23339e-05 0)
(0 -0.000484467 0)
(0 -0.00134981 0)
(0 -0.00253995 0)
(0 -0.003934 0)
(0 -0.0055742 0)
(0 -0.00635846 0)
(0 -0.00705361 0)
(0 -0.007823 0)
(0 -0.00854416 0)
(0 -0.00920395 0)
(0 -0.00976449 0)
(0 -0.0085099 0)
(0 -0.00902948 0)
(0 -0.00943954 0)
(0 -0.00985313 0)
(0 -0.0101776 0)
(0 -0.0104088 0)
(0 -0.0105474 0)
(0 -0.0106943 0)
(0 -0.0107434 0)
(0 -0.0106943 0)
(0 -0.0105474 0)
(0 -0.0104088 0)
(0 -0.0101776 0)
(0 -0.00985313 0)
(0 -0.00943954 0)
(0 -0.00902948 0)
(0 -0.0085099 0)
(0 -0.00976449 0)
(0 -0.00920395 0)
(0 -0.00854416 0)
(0 -0.007823 0)
(0 -0.00705361 0)
(0 -0.00635846 0)
(0 -0.0055742 0)
(0 -0.003934 0)
(0 -0.00253995 0)
(0 -0.00130057 0)
(0 -0.000463389 0)
(0 -3.84453e-05 0)
(0 0 0)
(0 0 0)
(0 0 0)
(0 0 0)
(0 0 0)
(0 0 0)
(0 0 0)
(0 0 0)
(0 0 0)
(0 0 0)
(0 0 0)
(0 0 0)
(0 0 0)
(0 0 0)
(0 0 0)
(0 0 0)
(0 -0.000267854 0)
(0 -0.00109463 0)
(0 -0.00234016 0)
(0 -0.00390469 0)
(0 -0.00564722 0)
(0 -0.00741783 0)
(0 -0.00652904 0)
(0 -0.00738189 0)
(0 -0.00820255 0)
(0 -0.00897527 0)
(0 -0.00966181 0)
(0 -0.0103581 0)
(0 -0.0109733 0)
(0 -0.0114816 0)
(0 -0.0103166 0)
(0 -0.0107816 0)
(0 -0.0119609 0)
(0 -0.012306 0)
(0 -0.0111516 0)
(0 -0.0114901 0)
(0 -0.0126493 0)
(0 -0.0128909 0)
(0 -0.0117302 0)
(0 -0.0118519 0)
(0 -0.0130309 0)
(0 -0.013142 0)
(0 -0.0120034 0)
(0 -0.0120539 0)
(0 -0.0131922 0)
(0 -0.013142 0)
(0 -0.0120034 0)
(0 -0.0118519 0)
(0 -0.0130309 0)
(0 -0.0128909 0)
(0 -0.0117302 0)
(0 -0.0114901 0)
(0 -0.0126493 0)
(0 -0.012306 0)
(0 -0.0111516 0)
(0 -0.0107816 0)
(0 -0.0119609 0)
(0 -0.0114816 0)
(0 -0.0103166 0)
(0 -0.0109733 0)
(0 -0.0103581 0)
(0 -0.00966181 0)
(0 -0.00897527 0)
(0 -0.00820255 0)
(0 -0.00738189 0)
(0 -0.00652904 0)
(0 -0.00741783 0)
(0 -0.00564722 0)
(0 -0.00385769 0)
(0 -0.00232169 0)
(0 -0.00109346 0)
(0 -0.000291201 0)
(0 0 0)
(0 0 0)
(0 0 0)
(0 0 0)
(0 0 0)
(0 0 0)
(0 0 0)
(0 0 0)
(0 0 0)
(0 0 0)
(0 0 0)
(0 0 0)
(0 0 0)
(0 0 0)
(0 0 0)
(0 -5.84322e-05 0)
(0 -0.000600314 0)
(0 -0.0017304 0)
(0 -0.00324207 0)
(0 -0.00503918 0)
(0 -0.00709812 0)
(0 -0.00908136 0)
(0 -0.00830955 0)
(0 -0.00920799 0)
(0 -0.00826801 0)
(0 -0.00919272 0)
(0 -0.0100525 0)
(0 -0.0108997 0)
(0 -0.0100065 0)
(0 -0.0107498 0)
(0 -0.0116635 0)
(0 -0.0120118 0)
(0 -0.012336 0)
(0 -0.0118952 0)
(0 -0.0113771 0)
(0 -0.0120085 0)
(0 -0.0124612 0)
(0 -0.0127409 0)
(0 -0.012288 0)
(0 -0.012968 0)
(0 -0.0133975 0)
(0 -0.0135962 0)
(0 -0.0131698 0)
(0 -0.0136144 0)
(0 -0.0140346 0)
(0 -0.0141393 0)
(0 -0.0137438 0)
(0 -0.0139816 0)
(0 -0.0143666 0)
(0 -0.0144215 0)
(0 -0.0140453 0)
(0 -0.0141138 0)
(0 -0.0144818 0)
(0 -0.0144707 0)
(0 -0.014102 0)
(0 -0.0139816 0)
(0 -0.0143666 0)
(0 -0.0143147 0)
(0 -0.013927 0)
(0 -0.0136144 0)
(0 -0.0140346 0)
(0 -0.0139143 0)
(0 -0.0134952 0)
(0 -0.012968 0)
(0 -0.0133975 0)
(0 -0.013222 0)
(0 -0.0127402 0)
(0 -0.0120085 0)
(0 -0.0124612 0)
(0 -0.0121561 0)
(0 -0.0117045 0)
(0 -0.0107498 0)
(0 -0.0116635 0)
(0 -0.0108997 0)
(0 -0.0100065 0)
(0 -0.00919272 0)
(0 -0.0100525 0)
(0 -0.00920799 0)
(0 -0.00826801 0)
(0 -0.00830955 0)
(0 -0.00904045 0)
(0 -0.00709322 0)
(0 -0.0051204 0)
(0 -0.00321484 0)
(0 -0.00171355 0)
(0 -0.000630402 0)
(0 -6.68202e-05 0)
(0 0 0)
(0 0 0)
(0 0 0)
(0 0 0)
(0 0 0)
(0 0 0)
(0 0 0)
(0 0 0)
(0 0 0)
(0 0 0)
(0 0 0)
(0 0 0)
(0 0 0)
(0 0 0)
(0 -0.000191176 0)
(0 -0.000967555 0)
(0 -0.00227332 0)
(0 -0.00399452 0)
(0 -0.00598363 0)
(0 -0.00817144 0)
(0 -0.0102133 0)
(0 -0.00970952 0)
(0 -0.0106704 0)
(0 -0.0100164 0)
(0 -0.0108895 0)
(0 -0.0115615 0)
(0 -0.0123663 0)
(0 -0.0116847 0)
(0 -0.0123892 0)
(0 -0.0127541 0)
(0 -0.013068 0)
(0 -0.0127537 0)
(0 -0.0136404 0)
(0 -0.0137914 0)
(0 -0.0139132 0)
(0 -0.0137636 0)
(0 -0.0144397 0)
(0 -0.0145605 0)
(0 -0.0146389 0)
(0 -0.0145206 0)
(0 -0.0149129 0)
(0 -0.0150009 0)
(0 -0.0150408 0)
(0 -0.0149522 0)
(0 -0.0151203 0)
(0 -0.0151848 0)
(0 -0.015194 0)
(0 -0.0151313 0)
(0 -0.0151733 0)
(0 -0.0152253 0)
(0 -0.0152244 0)
(0 -0.015172 0)
(0 -0.0151203 0)
(0 -0.0151848 0)
(0 -0.0151721 0)
(0 -0.0151052 0)
(0 -0.0149129 0)
(0 -0.0150009 0)
(0 -0.0149674 0)
(0 -0.0148656 0)
(0 -0.0144397 0)
(0 -0.0145605 0)
(0 -0.0144922 0)
(0 -0.0143517 0)
(0 -0.0136404 0)
(0 -0.0137914 0)
(0 -0.0139295 0)
(0 -0.0136666 0)
(0 -0.0133727 0)
(0 -0.0123892 0)
(0 -0.0127541 0)
(0 -0.0130711 0)
(0 -0.0123663 0)
(0 -0.0116847 0)
(0 -0.0108895 0)
(0 -0.0115351 0)
(0 -0.0106635 0)
(0 -0.0100164 0)
(0 -0.00972114 0)
(0 -0.0102436 0)
(0 -0.0081509 0)
(0 -0.00604323 0)
(0 -0.00403641 0)
(0 -0.00229966 0)
(0 -0.000981361 0)
(0 -0.000195893 0)
(0 0 0)
(0 0 0)
(0 0 0)
(0 0 0)
(0 0 0)
(0 0 0)
(0 0 0)
(0 0 0)
(0 0 0)
(0 0 0)
(0 0 0)
(0 0 0)
(0 0 0)
(0 0 0)
(0 -0.000294789 0)
(0 -0.00120197 0)
(0 -0.00264508 0)
(0 -0.00450224 0)
(0 -0.00661705 0)
(0 -0.00881182 0)
(0 -0.0109028 0)
(0 -0.0106438 0)
(0 -0.011597 0)
(0 -0.0111545 0)
(0 -0.0120175 0)
(0 -0.0124655 0)
(0 -0.0132321 0)
(0 -0.0128618 0)
(0 -0.0135597 0)
(0 -0.0137321 0)
(0 -0.0140324 0)
(0 -0.013864 0)
(0 -0.0145872 0)
(0 -0.0146668 0)
(0 -0.0147567 0)
(0 -0.0146795 0)
(0 -0.0151414 0)
(0 -0.0151799 0)
(0 -0.015212 0)
(0 -0.0151781 0)
(0 -0.0152742 0)
(0 -0.0152742 0)
(0 -0.0152742 0)
(0 -0.0152742 0)
(0 -0.0152742 0)
(0 -0.0152742 0)
(0 -0.0152742 0)
(0 -0.0152742 0)
(0 -0.0152742 0)
(0 -0.0152742 0)
(0 -0.0152742 0)
(0 -0.0152742 0)
(0 -0.0152742 0)
(0 -0.0152742 0)
(0 -0.0152742 0)
(0 -0.0152742 0)
(0 -0.0152742 0)
(0 -0.0152742 0)
(0 -0.0152742 0)
(0 -0.0152742 0)
(0 -0.0151414 0)
(0 -0.0151799 0)
(0 -0.0151375 0)
(0 -0.0150974 0)
(0 -0.0145872 0)
(0 -0.0146668 0)
(0 -0.0147349 0)
(0 -0.0145271 0)
(0 -0.0143783 0)
(0 -0.0135518 0)
(0 -0.0137521 0)
(0 -0.013905 0)
(0 -0.0132137 0)
(0 -0.0128733 0)
(0 -0.0120859 0)
(0 -0.01245 0)
(0 -0.0115847 0)
(0 -0.0112038 0)
(0 -0.0106347 0)
(0 -0.0109082 0)
(0 -0.0088082 0)
(0 -0.00660654 0)
(0 -0.0044878 0)
(0 -0.00263001 0)
(0 -0.00118951 0)
(0 -0.000287712 0)
(0 0 0)
(0 0 0)
(0 0 0)
(0 0 0)
(0 0 0)
(0 0 0)
(0 0 0)
(0 0 0)
(0 0 0)
(0 0 0)
(0 0 0)
(0 0 0)
(0 0 0)
(0 0 0)
(0 -0.000312543 0)
(0 -0.00124039 0)
(0 -0.00270564 0)
(0 -0.00458517 0)
(0 -0.00672105 0)
(0 -0.00893382 0)
(0 -0.0110376 0)
(0 -0.0110415 0)
(0 -0.0119957 0)
(0 -0.0118543 0)
(0 -0.0127163 0)
(0 -0.0128579 0)
(0 -0.0136098 0)
(0 -0.0134714 0)
(0 -0.0141286 0)
(0 -0.0141921 0)
(0 -0.0144556 0)
(0 -0.0143983 0)
(0 -0.0149931 0)
(0 -0.0150176 0)
(0 -0.0150827 0)
(0 -0.01506 0)
(0 -0.0152742 0)
(0 -0.0152742 0)
(0 -0.0152742 0)
(0 -0.0152742 0)
(0 -0.0152742 0)
(0 -0.0152742 0)
(0 -0.0152742 0)
(0 -0.0152742 0)
(0 -0.0152742 0)
(0 -0.0152742 0)
(0 -0.0152742 0)
(0 -0.0152742 0)
(0 -0.0152742 0)
(0 -0.0152742 0)
(0 -0.0152742 0)
(0 -0.0152742 0)
(0 -0.0152742 0)
(0 -0.0152735 0)
(0 -0.0152713 0)
(0 -0.0149931 0)
(0 -0.0150176 0)
(0 -0.0150338 0)
(0 -0.0148811 0)
(0 -0.0148272 0)
(0 -0.0141277 0)
(0 -0.014193 0)
(0 -0.0142357 0)
(0 -0.0136098 0)
(0 -0.0134909 0)
(0 -0.0127315 0)
(0 -0.0128255 0)
(0 -0.0119585 0)
(0 -0.0118646 0)
(0 -0.0110003 0)
(0 -0.0110129 0)
(0 -0.00890635 0)
(0 -0.00669315 0)
(0 -0.00455926 0)
(0 -0.00268397 0)
(0 -0.00122485 0)
(0 -0.000304488 0)
(0 0 0)
(0 0 0)
(0 0 0)
(0 0 0)
(0 0 0)
(0 0 0)
(0 0 0)
(0 0 0)
(0 0 0)
(0 0 0)
(0 0 0)
(0 0 0)
(0 0 0)
(0 0 0)
(0 -0.00025542 0)
(0 -0.00111629 0)
(0 -0.00251139 0)
(0 -0.00432172 0)
(0 -0.00639401 0)
(0 -0.00855403 0)
(0 -0.0106219 0)
(0 -0.0109204 0)
(0 -0.0118731 0)
(0 -0.0119926 0)
(0 -0.0128556 0)
(0 -0.0127359 0)
(0 -0.0134914 0)
(0 -0.0136084 0)
(0 -0.0142352 0)
(0 -0.0142016 0)
(0 -0.0144651 0)
(0 -0.014497 0)
(0 -0.0150606 0)
(0 -0.0150526 0)
(0 -0.0151136 0)
(0 -0.0151208 0)
(0 -0.0152742 0)
(0 -0.0152742 0)
(0 -0.0152742 0)
(0 -0.0152742 0)
(0 -0.0152742 0)
(0 -0.0152742 0)
(0 -0.0152742 0)
(0 -0.0152742 0)
(0 -0.0152742 0)
(0 -0.0152742 0)
(0 -0.0152742 0)
(0 -0.0152742 0)
(0 -0.0152742 0)
(0 -0.0152742 0)
(0 -0.0152742 0)
(0 -0.0152742 0)
(0 -0.0150606 0)
(0 -0.0150461 0)
(0 -0.0150382 0)
(0 -0.0148858 0)
(0 -0.0149031 0)
(0 -0.0142219 0)
(0 -0.0142006 0)
(0 -0.0141358 0)
(0 -0.0135007 0)
(0 -0.0135917 0)
(0 -0.0128358 0)
(0 -0.0127427 0)
(0 -0.0118771 0)
(0 -0.0119701 0)
(0 -0.0109217 0)
(0 -0.0106489 0)
(0 -0.00857387 0)
(0 -0.00640697 0)
(0 -0.00432885 0)
(0 -0.00251423 0)
(0 -0.00111656 0)
(0 -0.000254862 0)
(0 0 0)
(0 0 0)
(0 0 0)
(0 0 0)
(0 0 0)
(0 0 0)
(0 0 0)
(0 0 0)
(0 0 0)
(0 0 0)
(0 0 0)
(0 0 0)
(0 0 0)
(0 0 0)
(0 -0.000129187 0)
(0 -0.00081145 0)
(0 -0.00201832 0)
(0 -0.00364141 0)
(0 -0.00566136 0)
(0 -0.00772688 0)
(0 -0.00974162 0)
(0 -0.0102759 0)
(0 -0.011231 0)
(0 -0.0115677 0)
(0 -0.0124854 0)
(0 -0.0121074 0)
(0 -0.0128885 0)
(0 -0.0132639 0)
(0 -0.013925 0)
(0 -0.0137666 0)
(0 -0.0140539 0)
(0 -0.0142078 0)
(0 -0.014853 0)
(0 -0.0148079 0)
(0 -0.0148899 0)
(0 -0.014938 0)
(0 -0.0152557 0)
(0 -0.01524 0)
(0 -0.0152587 0)
(0 -0.0152684 0)
(0 -0.0152742 0)
(0 -0.0152742 0)
(0 -0.0152742 0)
(0 -0.0152742 0)
(0 -0.0152742 0)
(0 -0.0152742 0)
(0 -0.0152742 0)
(0 -0.0152742 0)
(0 -0.0152557 0)
(0 -0.0152377 0)
(0 -0.0152129 0)
(0 -0.0152351 0)
(0 -0.014853 0)
(0 -0.0148079 0)
(0 -0.0147467 0)
(0 -0.0145524 0)
(0 -0.0146724 0)
(0 -0.013925 0)
(0 -0.0137666 0)
(0 -0.0135866 0)
(0 -0.0128885 0)
(0 -0.0132639 0)
(0 -0.0124621 0)
(0 -0.0121074 0)
(0 -0.011231 0)
(0 -0.011598 0)
(0 -0.0102759 0)
(0 -0.00974162 0)
(0 -0.00772688 0)
(0 -0.0055884 0)
(0 -0.0036772 0)
(0 -0.00204179 0)
(0 -0.0008243 0)
(0 -0.000133529 0)
(0 0 0)
(0 0 0)
(0 0 0)
(0 0 0)
(0 0 0)
(0 0 0)
(0 0 0)
(0 0 0)
(0 0 0)
(0 0 0)
(0 0 0)
(0 0 0)
(0 0 0)
(0 0 0)
(0 -1.5985e-05 0)
(0 -0.000474512 0)
(0 -0.00144494 0)
(0 -0.00284135 0)
(0 -0.00453606 0)
(0 -0.00638036 0)
(0 -0.00831566 0)
(0 -0.00904948 0)
(0 -0.0100335 0)
(0 -0.0106787 0)
(0 -0.0115903 0)
(0 -0.010895 0)
(0 -0.0117578 0)
(0 -0.012383 0)
(0 -0.0131114 0)
(0 -0.0128193 0)
(0 -0.013141 0)
(0 -0.0134306 0)
(0 -0.0142123 0)
(0 -0.0140822 0)
(0 -0.0142005 0)
(0 -0.0143085 0)
(0 -0.0149031 0)
(0 -0.0148176 0)
(0 -0.01488 0)
(0 -0.0149622 0)
(0 -0.015212 0)
(0 -0.0151642 0)
(0 -0.0151852 0)
(0 -0.0152289 0)
(0 -0.0152741 0)
(0 -0.0152657 0)
(0 -0.015269 0)
(0 -0.0152742 0)
(0 -0.0152742 0)
(0 -0.0152742 0)
(0 -0.0152742 0)
(0 -0.0152742 0)
(0 -0.0152742 0)
(0 -0.0152741 0)
(0 -0.0152657 0)
(0 -0.015261 0)
(0 -0.0152736 0)
(0 -0.015274 0)
(0 -0.015212 0)
(0 -0.0151642 0)
(0 -0.0151382 0)
(0 -0.0151903 0)
(0 -0.0149031 0)
(0 -0.0148176 0)
(0 -0.014748 0)
(0 -0.0148367 0)
(0 -0.0142228 0)
(0 -0.0141034 0)
(0 -0.0139599 0)
(0 -0.0137226 0)
(0 -0.0139806 0)
(0 -0.0130754 0)
(0 -0.0128044 0)
(0 -0.012488 0)
(0 -0.0117417 0)
(0 -0.012383 0)
(0 -0.0115903 0)
(0 -0.010895 0)
(0 -0.0100335 0)
(0 -0.0106787 0)
(0 -0.00904948 0)
(0 -0.00831566 0)
(0 -0.00638036 0)
(0 -0.00453606 0)
(0 -0.00284135 0)
(0 -0.00144494 0)
(0 -0.000442625 0)
(0 -1.92009e-05 0)
(0 0 0)
(0 0 0)
(0 0 0)
(0 0 0)
(0 0 0)
(0 0 0)
(0 0 0)
(0 0 0)
(0 0 0)
(0 0 0)
(0 0 0)
(0 0 0)
(0 0 0)
(0 0 0)
(0 0 0)
(0 -0.000145851 0)
(0 -0.000768582 0)
(0 -0.0018083 0)
(0 -0.00315656 0)
(0 -0.00484112 0)
(0 -0.00658286 0)
(0 -0.00740451 0)
(0 -0.00837406 0)
(0 -0.00920315 0)
(0 -0.010102 0)
(0 -0.00924691 0)
(0 -0.010063 0)
(0 -0.0109468 0)
(0 -0.0117118 0)
(0 -0.010808 0)
(0 -0.0114317 0)
(0 -0.0119495 0)
(0 -0.0123848 0)
(0 -0.0120604 0)
(0 -0.0129636 0)
(0 -0.0125111 0)
(0 -0.0127908 0)
(0 -0.0132196 0)
(0 -0.0138603 0)
(0 -0.0134723 0)
(0 -0.0136275 0)
(0 -0.0140297 0)
(0 -0.0144281 0)
(0 -0.0140842 0)
(0 -0.0141852 0)
(0 -0.0145233 0)
(0 -0.0147225 0)
(0 -0.0144052 0)
(0 -0.0144612 0)
(0 -0.0147615 0)
(0 -0.0148137 0)
(0 -0.0145207 0)
(0 -0.0145056 0)
(0 -0.0148018 0)
(0 -0.0147225 0)
(0 -0.0144052 0)
(0 -0.0143258 0)
(0 -0.0146613 0)
(0 -0.0144281 0)
(0 -0.0140842 0)
(0 -0.013958 0)
(0 -0.0143079 0)
(0 -0.0138603 0)
(0 -0.0134723 0)
(0 -0.0132716 0)
(0 -0.0136639 0)
(0 -0.0129636 0)
(0 -0.0125111 0)
(0 -0.0122484 0)
(0 -0.012684 0)
(0 -0.0117118 0)
(0 -0.010808 0)
(0 -0.010063 0)
(0 -0.0109468 0)
(0 -0.010102 0)
(0 -0.00924691 0)
(0 -0.00837406 0)
(0 -0.00920315 0)
(0 -0.00740451 0)
(0 -0.00658286 0)
(0 -0.00484112 0)
(0 -0.00315656 0)
(0 -0.0018083 0)
(0 -0.000768582 0)
(0 -0.000145851 0)
(0 0 0)
(0 0 0)
(0 0 0)
(0 0 0)
(0 0 0)
(0 0 0)
(0 0 0)
(0 0 0)
(0 0 0)
(0 0 0)
(0 0 0)
(0 0 0)
(0 0 0)
(0 0 0)
(0 0 0)
(0 0 0)
(0 0 0)
(0 -0.000219792 0)
(0 -0.000907574 0)
(0 -0.00194558 0)
(0 -0.00323291 0)
(0 -0.00464296 0)
(0 -0.00603489 0)
(0 -0.00711507 0)
(0 -0.00826367 0)
(0 -0.00743958 0)
(0 -0.00788808 0)
(0 -0.00903935 0)
(0 -0.00972354 0)
(0 -0.00861239 0)
(0 -0.00927485 0)
(0 -0.0104218 0)
(0 -0.0110385 0)
(0 -0.0104678 0)
(0 -0.0106881 0)
(0 -0.0113136 0)
(0 -0.0120155 0)
(0 -0.0114544 0)
(0 -0.0116626 0)
(0 -0.0122254 0)
(0 -0.0127036 0)
(0 -0.0121392 0)
(0 -0.0122322 0)
(0 -0.0128122 0)
(0 -0.0131162 0)
(0 -0.0125742 0)
(0 -0.0126375 0)
(0 -0.0131789 0)
(0 -0.0132527 0)
(0 -0.0127142 0)
(0 -0.0126881 0)
(0 -0.0132291 0)
(0 -0.0131162 0)
(0 -0.0125742 0)
(0 -0.0124855 0)
(0 -0.0130281 0)
(0 -0.0127036 0)
(0 -0.0121392 0)
(0 -0.0120053 0)
(0 -0.0125695 0)
(0 -0.0120155 0)
(0 -0.0114544 0)
(0 -0.0112221 0)
(0 -0.0117809 0)
(0 -0.0110385 0)
(0 -0.0104678 0)
(0 -0.00980819 0)
(0 -0.00927485 0)
(0 -0.0104218 0)
(0 -0.00972354 0)
(0 -0.00861239 0)
(0 -0.00788808 0)
(0 -0.00903935 0)
(0 -0.00826367 0)
(0 -0.00711507 0)
(0 -0.00603489 0)
(0 -0.00464296 0)
(0 -0.00743958 0)
(0 -0.00323291 0)
(0 -0.00194558 0)
(0 -0.000907574 0)
(0 -0.000219792 0)
(0 0 0)
(0 0 0)
(0 0 0)
(0 0 0)
(0 0 0)
(0 0 0)
(0 0 0)
(0 0 0)
(0 0 0)
(0 0 0)
(0 0 0)
(0 0 0)
(0 0 0)
(0 0 0)
(0 0 0)
(0 0 0)
(0 0 0)
(0 0 0)
(0 -2.78724e-06 0)
(0 -0.000249691 0)
(0 -0.000846121 0)
(0 -0.00165809 0)
(0 -0.00271394 0)
(0 -0.00384 0)
(0 -0.00492874 0)
(0 -0.00556431 0)
(0 -0.00674404 0)
(0 -0.00741289 0)
(0 -0.00610007 0)
(0 -0.00670453 0)
(0 -0.007964 0)
(0 -0.00856826 0)
(0 -0.00791894 0)
(0 -0.00818472 0)
(0 -0.00884457 0)
(0 -0.00955686 0)
(0 -0.00887168 0)
(0 -0.00906074 0)
(0 -0.00975239 0)
(0 -0.0101954 0)
(0 -0.00950931 0)
(0 -0.00966206 0)
(0 -0.0103526 0)
(0 -0.010682 0)
(0 -0.00998266 0)
(0 -0.0100425 0)
(0 -0.0107434 0)
(0 -0.0108243 0)
(0 -0.0101235 0)
(0 -0.0100905 0)
(0 -0.0107926 0)
(0 -0.010682 0)
(0 -0.00998266 0)
(0 -0.00989912 0)
(0 -0.0105963 0)
(0 -0.0101954 0)
(0 -0.00950931 0)
(0 -0.0093344 0)
(0 -0.0100764 0)
(0 -0.00955686 0)
(0 -0.00887168 0)
(0 -0.00866208 0)
(0 -0.00933984 0)
(0 -0.00856826 0)
(0 -0.00791894 0)
(0 -0.00725787 0)
(0 -0.00670453 0)
(0 -0.007964 0)
(0 -0.00741289 0)
(0 -0.00610007 0)
(0 -0.00556431 0)
(0 -0.00674404 0)
(0 -0.00492874 0)
(0 -0.00384 0)
(0 -0.00271394 0)
(0 -0.00165809 0)
(0 -0.000846121 0)
(0 -0.000249691 0)
(0 -2.78724e-06 0)
(0 0 0)
(0 0 0)
(0 0 0)
(0 0 0)
(0 0 0)
(0 0 0)
(0 0 0)
(0 0 0)
(0 0 0)
(0 0 0)
(0 0 0)
(0 0 0)
(0 0 0)
(0 0 0)
(0 0 0)
(0 0 0)
(0 0 0)
(0 0 0)
(0 0 0)
(0 0 0)
(0 -0.000131129 0)
(0 -0.000546148 0)
(0 -0.00110639 0)
(0 -0.00186295 0)
(0 -0.00275465 0)
(0 -0.00324819 0)
(0 -0.00432819 0)
(0 -0.004895 0)
(0 -0.00373184 0)
(0 -0.00419345 0)
(0 -0.00543132 0)
(0 -0.0059254 0)
(0 -0.00526678 0)
(0 -0.00548033 0)
(0 -0.0061533 0)
(0 -0.00674668 0)
(0 -0.00603774 0)
(0 -0.00613947 0)
(0 -0.00683835 0)
(0 -0.00735432 0)
(0 -0.00662668 0)
(0 -0.00675413 0)
(0 -0.00748904 0)
(0 -0.00777294 0)
(0 -0.00702303 0)
(0 -0.00707345 0)
(0 -0.00782612 0)
(0 -0.00790361 0)
(0 -0.00714867 0)
(0 -0.00711393 0)
(0 -0.00786881 0)
(0 -0.00777294 0)
(0 -0.00702303 0)
(0 -0.00695277 0)
(0 -0.0076988 0)
(0 -0.00735432 0)
(0 -0.00662668 0)
(0 -0.00648127 0)
(0 -0.00720049 0)
(0 -0.00674668 0)
(0 -0.00603774 0)
(0 -0.00586683 0)
(0 -0.00656497 0)
(0 -0.0059254 0)
(0 -0.00526678 0)
(0 -0.00462181 0)
(0 -0.00419345 0)
(0 -0.00543132 0)
(0 -0.004895 0)
(0 -0.00373184 0)
(0 -0.00324819 0)
(0 -0.00432819 0)
(0 -0.00275465 0)
(0 -0.00186295 0)
(0 -0.00110639 0)
(0 -0.000546148 0)
(0 -0.000131129 0)
(0 0 0)
(0 0 0)
(0 0 0)
(0 0 0)
(0 0 0)
(0 0 0)
(0 0 0)
(0 0 0)
(0 0 0)
(0 0 0)
(0 0 0)
(0 0 0)
(0 0 0)
(0 0 0)
(0 0 0)
(0 0 0)
(0 0 0)
(0 0 0)
(0 0 0)
(0 0 0)
(0 0 0)
(0 0 0)
(0 0 0)
(0 -1.11667e-05 0)
(0 -0.000189413 0)
(0 -0.000528625 0)
(0 -0.00110894 0)
(0 -0.00141085 0)
(0 -0.00226154 0)
(0 -0.00265769 0)
(0 -0.00171742 0)
(0 -0.00201827 0)
(0 -0.0030401 0)
(0 -0.00339825 0)
(0 -0.00283193 0)
(0 -0.00298258 0)
(0 -0.00356521 0)
(0 -0.00396734 0)
(0 -0.00335768 0)
(0 -0.00349903 0)
(0 -0.00412266 0)
(0 -0.00451404 0)
(0 -0.00385621 0)
(0 -0.00395043 0)
(0 -0.00461704 0)
(0 -0.00483518 0)
(0 -0.00415028 0)
(0 -0.00418791 0)
(0 -0.0048762 0)
(0 -0.00494172 0)
(0 -0.00424933 0)
(0 -0.00421816 0)
(0 -0.00490917 0)
(0 -0.00483518 0)
(0 -0.00415028 0)
(0 -0.00409793 0)
(0 -0.00477807 0)
(0 -0.00451404 0)
(0 -0.00385621 0)
(0 -0.0037491 0)
(0 -0.00439683 0)
(0 -0.00396734 0)
(0 -0.00335768 0)
(0 -0.00320667 0)
(0 -0.00380112 0)
(0 -0.00339825 0)
(0 -0.00283193 0)
(0 -0.00230371 0)
(0 -0.00201827 0)
(0 -0.0030401 0)
(0 -0.00265769 0)
(0 -0.00171742 0)
(0 -0.00141085 0)
(0 -0.00226154 0)
(0 -0.00110894 0)
(0 -0.000528625 0)
(0 -0.000189413 0)
(0 -1.11667e-05 0)
(0 0 0)
(0 0 0)
(0 0 0)
(0 0 0)
(0 0 0)
(0 0 0)
(0 0 0)
(0 0 0)
(0 0 0)
(0 0 0)
(0 0 0)
(0 0 0)
(0 0 0)
(0 0 0)
(0 0 0)
(0 0 0)
(0 0 0)
(0 0 0)
(0 0 0)
(0 0 0)
(0 0 0)
(0 0 0)
(0 0 0)
(0 0 0)
(0 0 0)
(0 0 0)
(0 -2.02419e-06 0)
(0 -0.000152076 0)
(0 -0.000264889 0)
(0 -0.000734509 0)
(0 -0.000951656 0)
(0 -0.00039498 0)
(0 -0.000534099 0)
(0 -0.00117073 0)
(0 -0.00138293 0)
(0 -0.00095195 0)
(0 -0.0010494 0)
(0 -0.00143518 0)
(0 -0.00176216 0)
(0 -0.00132617 0)
(0 -0.00141018 0)
(0 -0.00186052 0)
(0 -0.00211207 0)
(0 -0.00162635 0)
(0 -0.00168423 0)
(0 -0.00217909 0)
(0 -0.0023221 0)
(0 -0.00180811 0)
(0 -0.0018316 0)
(0 -0.00234915 0)
(0 -0.0023962 0)
(0 -0.0018733 0)
(0 -0.00185052 0)
(0 -0.00237093 0)
(0 -0.0023221 0)
(0 -0.00180811 0)
(0 -0.00177552 0)
(0 -0.00228453 0)
(0 -0.00211207 0)
(0 -0.00162635 0)
(0 -0.00156097 0)
(0 -0.00203621 0)
(0 -0.00176216 0)
(0 -0.00132617 0)
(0 -0.00123745 0)
(0 -0.00165787 0)
(0 -0.00138293 0)
(0 -0.00095195 0)
(0 -0.000640146 0)
(0 -0.000534099 0)
(0 -0.00117073 0)
(0 -0.000951656 0)
(0 -0.00039498 0)
(0 -0.000264889 0)
(0 -0.000734509 0)
(0 -0.000152076 0)
(0 -2.02419e-06 0)
(0 0 0)
(0 0 0)
(0 0 0)
(0 0 0)
(0 0 0)
(0 0 0)
(0 0 0)
(0 0 0)
(0 0 0)
(0 0 0)
(0 0 0)
(0 0 0)
(0 0 0)
(0 0 0)
(0 0 0)
(0 0 0)
(0 0 0)
(0 0 0)
(0 0 0)
(0 0 0)
(0 0 0)
(0 0 0)
(0 0 0)
(0 0 0)
(0 0 0)
(0 0 0)
(0 0 0)
(0 0 0)
(0 0 0)
(0 0 0)
(0 0 0)
(0 -7.43405e-05 0)
(0 -2.68881e-05 0)
(0 0 0)
(0 -0.0001169 0)
(0 -0.000195296 0)
(0 -5.97898e-06 0)
(0 -2.61338e-05 0)
(0 -0.000281438 0)
(0 -0.000368724 0)
(0 -5.51067e-05 0)
(0 -8.77457e-05 0)
(0 -0.000451201 0)
(0 -0.000523696 0)
(0 -0.000119553 0)
(0 -0.000146795 0)
(0 -0.000581931 0)
(0 -0.000622619 0)
(0 -0.000166593 0)
(0 -0.000176988 0)
(0 -0.000643529 0)
(0 -0.00066026 0)
(0 -0.000185869 0)
(0 -0.000176988 0)
(0 -0.000643529 0)
(0 -0.000622619 0)
(0 -0.000166593 0)
(0 -0.000146795 0)
(0 -0.000581931 0)
(0 -0.000523696 0)
(0 -0.000119553 0)
(0 -8.77457e-05 0)
(0 -0.000451201 0)
(0 -0.000368724 0)
(0 -5.51067e-05 0)
(0 -2.61338e-05 0)
(0 -0.000281438 0)
(0 -0.000195296 0)
(0 -5.97898e-06 0)
(0 0 0)
(0 -0.0001169 0)
(0 -7.43405e-05 0)
(0 0 0)
(0 0 0)
(0 0 0)
(0 -2.68881e-05 0)
(0 0 0)
(0 0 0)
(0 0 0)
(0 0 0)
(0 0 0)
(0 0 0)
(0 0 0)
(0 0 0)
(0 0 0)
(0 0 0)
(0 0 0)
(0 0 0)
(0 0 0)
(0 0 0)
(0 0 0)
(0 0 0)
(0 0 0)
(0 0 0)
(0 0 0)
(0 0 0)
(0 0 0)
(0 0 0)
(0 0 0)
(0 0 0)
(0 0 0)
(0 0 0)
(0 0 0)
(0 0 0)
(0 0 0)
(0 0 0)
(0 0 0)
(0 0 0)
(0 0 0)
(0 0 0)
(0 0 0)
(0 0 0)
(0 0 0)
(0 0 0)
(0 0 0)
(0 0 0)
(0 -5.37326e-07 0)
(0 0 0)
(0 0 0)
(0 -2.06781e-06 0)
(0 -1.23031e-06 0)
(0 0 0)
(0 -5.37326e-07 0)
(0 -1.23031e-06 0)
(0 0 0)
(0 0 0)
(0 0 0)
(0 0 0)
(0 0 0)
(0 0 0)
(0 0 0)
(0 0 0)
(0 0 0)
(0 0 0)
(0 0 0)
(0 0 0)
(0 0 0)
(0 0 0)
(0 0 0)
(0 0 0)
(0 0 0)
(0 0 0)
(0 0 0)
(0 0 0)
(0 0 0)
(0 0 0)
(0 0 0)
(0 0 0)
(0 0 0)
(0 0 0)
(0 0 0)
(0 0 0)
(0 0 0)
(0 0 0)
(0 0 0)
(0 0 0)
(0 0 0)
(0 0 0)
(0 0 0)
(0 0 0)
(0 0 0)
(0 0 0)
(0 0 0)
(0 0 0)
(0 0 0)
(0 0 0)
(0 0 0)
(0 0 0)
(0 0 0)
(0 0 0)
(0 0 0)
(0 0 0)
(0 0 0)
(0 0 0)
(0 0 0)
(0 0 0)
(0 0 0)
(0 0 0)
(0 0 0)
(0 0 0)
(0 0 0)
(0 0 0)
(0 0 0)
(0 0 0)
(0 0 0)
(0 0 0)
(0 0 0)
(0 0 0)
(0 0 0)
(0 0 0)
(0 0 0)
(0 0 0)
(0 0 0)
(0 0 0)
(0 0 0)
(0 0 0)
(0 0 0)
(0 0 0)
(0 0 0)
(0 0 0)
(0 0 0)
(0 0 0)
(0 0 0)
(0 0 0)
(0 0 0)
(0 0 0)
(0 0 0)
(0 0 0)
(0 0 0)
(0 0 0)
(0 0 0)
(0 0 0)
(0 0 0)
(0 0 0)
(0 0 0)
(0 0 0)
(0 0 0)
(0 0 0)
(0 0 0)
(0 0 0)
(0 0 0)
(0 0 0)
(0 0 0)
(0 0 0)
(0 0 0)
(0 0 0)
(0 0 0)
(0 0 0)
(0 0 0)
(0 0 0)
(0 0 0)
(0 0 0)
(0 0 0)
(0 0 0)
(0 0 0)
(0 0 0)
(0 0 0)
(0 0 0)
(0 0 0)
(0 0 0)
(0 0 0)
(0 0 0)
(0 0 0)
(0 0 0)
(0 0 0)
(0 0 0)
(0 0 0)
(0 0 0)
(0 0 0)
(0 0 0)
(0 0 0)
(0 0 0)
(0 0 0)
(0 0 0)
(0 0 0)
(0 0 0)
(0 0 0)
(0 0 0)
(0 0 0)
(0 0 0)
(0 0 0)
(0 0 0)
(0 0 0)
(0 0 0)
(0 0 0)
(0 0 0)
(0 0 0)
(0 0 0)
(0 0 0)
(0 0 0)
(0 0 0)
(0 0 0)
(0 0 0)
(0 0 0)
(0 0 0)
(0 0 0)
(0 0 0)
(0 0 0)
(0 0 0)
(0 0 0)
(0 0 0)
(0 0 0)
(0 0 0)
(0 0 0)
(0 0 0)
(0 0 0)
(0 0 0)
(0 0 0)
(0 0 0)
(0 0 0)
(0 0 0)
(0 0 0)
(0 0 0)
(0 0 0)
(0 0 0)
(0 0 0)
(0 0 0)
(0 0 0)
(0 0 0)
(0 0 0)
(0 0 0)
(0 0 0)
(0 0 0)
(0 0 0)
(0 0 0)
(0 0 0)
(0 0 0)
(0 0 0)
(0 0 0)
(0 0 0)
(0 0 0)
(0 0 0)
(0 0 0)
(0 0 0)
(0 0 0)
(0 0 0)
(0 0 0)
(0 0 0)
(0 0 0)
(0 0 0)
(0 0 0)
(0 0 0)
(0 0 0)
(0 0 0)
(0 0 0)
(0 0 0)
(0 0 0)
(0 0 0)
(0 0 0)
(0 0 0)
(0 0 0)
(0 0 0)
(0 0 0)
(0 0 0)
(0 0 0)
(0 0 0)
(0 0 0)
(0 0 0)
(0 0 0)
(0 0 0)
(0 0 0)
(0 0 0)
(0 0 0)
(0 0 0)
(0 0 0)
(0 0 0)
(0 0 0)
(0 0 0)
(0 0 0)
(0 0 0)
(0 0 0)
(0 0 0)
(0 0 0)
(0 0 0)
(0 0 0)
(0 0 0)
(0 0 0)
(0 0 0)
(0 0 0)
(0 0 0)
(0 0 0)
(0 0 0)
(0 0 0)
(0 0 0)
(0 0 0)
(0 0 0)
(0 0 0)
(0 0 0)
(0 0 0)
(0 0 0)
(0 0 0)
(0 0 0)
(0 0 0)
(0 0 0)
(0 0 0)
(0 0 0)
(0 0 0)
(0 0 0)
(0 0 0)
(0 0 0)
(0 0 0)
(0 0 0)
(0 0 0)
(0 0 0)
(0 0 0)
(0 0 0)
(0 0 0)
(0 0 0)
(0 0 0)
(0 0 0)
(0 0 0)
(0 0 0)
(0 0 0)
(0 0 0)
(0 0 0)
(0 0 0)
(0 0 0)
(0 0 0)
(0 0 0)
(0 0 0)
(0 0 0)
(0 0 0)
(0 0 0)
(0 0 0)
(0 0 0)
(0 0 0)
(0 0 0)
(0 0 0)
(0 0 0)
(0 0 0)
(0 0 0)
(0 0 0)
(0 0 0)
(0 0 0)
(0 0 0)
(0 0 0)
(0 0 0)
(0 0 0)
(0 0 0)
(0 0 0)
(0 0 0)
(0 0 0)
(0 0 0)
(0 0 0)
(0 0 0)
(0 0 0)
(0 0 0)
(0 0 0)
(0 0 0)
(0 0 0)
(0 0 0)
(0 0 0)
(0 0 0)
(0 0 0)
(0 0 0)
(0 0 0)
(0 0 0)
(0 0 0)
(0 0 0)
(0 0 0)
(0 0 0)
(0 0 0)
(0 0 0)
(0 0 0)
(0 0 0)
(0 0 0)
(0 0 0)
(0 0 0)
(0 0 0)
(0 0 0)
(0 0 0)
(0 0 0)
(0 0 0)
(0 0 0)
(0 0 0)
(0 0 0)
(0 0 0)
(0 0 0)
(0 0 0)
(0 0 0)
(0 0 0)
(0 0 0)
(0 0 0)
(0 0 0)
(0 0 0)
(0 0 0)
(0 0 0)
(0 0 0)
(0 0 0)
(0 0 0)
(0 0 0)
(0 0 0)
(0 0 0)
(0 0 0)
(0 0 0)
(0 0 0)
(0 0 0)
(0 0 0)
(0 0 0)
(0 0 0)
(0 0 0)
(0 0 0)
(0 0 0)
(0 0 0)
(0 0 0)
(0 0 0)
(0 0 0)
(0 0 0)
(0 0 0)
(0 0 0)
(0 0 0)
(0 0 0)
(0 0 0)
(0 0 0)
(0 0 0)
(0 0 0)
(0 0 0)
(0 0 0)
(0 0 0)
(0 0 0)
(0 0 0)
(0 0 0)
(0 0 0)
(0 0 0)
(0 0 0)
(0 0 0)
(0 0 0)
(0 0 0)
(0 0 0)
(0 0 0)
(0 0 0)
(0 0 0)
(0 0 0)
(0 0 0)
(0 0 0)
(0 0 0)
(0 0 0)
(0 0 0)
(0 0 0)
(0 0 0)
(0 0 0)
(0 0 0)
(0 0 0)
(0 0 0)
(0 0 0)
(0 0 0)
(0 0 0)
(0 0 0)
(0 0 0)
(0 0 0)
(0 0 0)
(0 0 0)
(0 0 0)
(0 0 0)
(0 0 0)
(0 0 0)
(0 0 0)
(0 0 0)
(0 0 0)
(0 0 0)
(0 0 0)
(0 0 0)
(0 0 0)
(0 0 0)
(0 0 0)
(0 0 0)
(0 0 0)
(0 0 0)
(0 0 0)
(0 0 0)
(0 0 0)
(0 0 0)
(0 0 0)
(0 0 0)
(0 0 0)
(0 0 0)
(0 0 0)
(0 0 0)
(0 0 0)
(0 0 0)
(0 0 0)
(0 0 0)
(0 0 0)
(0 0 0)
(0 0 0)
(0 0 0)
(0 0 0)
(0 0 0)
(0 0 0)
(0 0 0)
(0 0 0)
(0 0 0)
(0 0 0)
(0 0 0)
(0 0 0)
(0 0 0)
(0 0 0)
(0 0 0)
(0 0 0)
(0 0 0)
(0 0 0)
(0 0 0)
(0 0 0)
(0 0 0)
(0 0 0)
(0 0 0)
(0 0 0)
(0 0 0)
(0 0 0)
(0 0 0)
(0 0 0)
(0 0 0)
(0 0 0)
(0 0 0)
(0 0 0)
(0 0 0)
(0 0 0)
(0 0 0)
(0 0 0)
(0 0 0)
(0 0 0)
(0 0 0)
(0 0 0)
(0 0 0)
(0 0 0)
(0 0 0)
(0 0 0)
(0 0 0)
(0 0 0)
(0 0 0)
(0 0 0)
(0 0 0)
(0 0 0)
(0 0 0)
(0 0 0)
(0 0 0)
(0 0 0)
(0 0 0)
(0 0 0)
(0 0 0)
(0 0 0)
(0 0 0)
(0 0 0)
(0 0 0)
(0 0 0)
(0 0 0)
(0 0 0)
(0 0 0)
(0 0 0)
(0 0 0)
(0 0 0)
(0 0 0)
(0 0 0)
(0 0 0)
(0 0 0)
(0 0 0)
(0 0 0)
(0 0 0)
(0 0 0)
(0 0 0)
(0 0 0)
(0 0 0)
(0 0 0)
(0 0 0)
(0 0 0)
(0 0 0)
(0 0 0)
(0 0 0)
(0 0 0)
(0 0 0)
(0 0 0)
(0 0 0)
(0 0 0)
(0 0 0)
(0 0 0)
(0 0 0)
(0 0 0)
(0 0 0)
(0 0 0)
(0 0 0)
(0 0 0)
(0 0 0)
(0 0 0)
(0 0 0)
(0 0 0)
(0 0 0)
(0 0 0)
(0 0 0)
(0 0 0)
(0 0 0)
(0 0 0)
(0 0 0)
(0 0 0)
(0 0 0)
(0 0 0)
(0 0 0)
(0 0 0)
(0 0 0)
(0 0 0)
(0 0 0)
(0 0 0)
(0 0 0)
(0 0 0)
(0 0 0)
(0 0 0)
(0 0 0)
(0 0 0)
(0 0 0)
(0 0 0)
(0 0 0)
(0 0 0)
(0 0 0)
(0 0 0)
(0 0 0)
(0 0 0)
(0 0 0)
(0 0 0)
(0 0 0)
(0 0 0)
(0 0 0)
(0 0 0)
(0 0 0)
(0 0 0)
(0 0 0)
(0 0 0)
(0 0 0)
(0 0 0)
(0 0 0)
(0 0 0)
(0 0 0)
(0 0 0)
(0 0 0)
(0 0 0)
(0 0 0)
(0 0 0)
(0 0 0)
(0 0 0)
(0 0 0)
(0 0 0)
(0 0 0)
(0 0 0)
(0 0 0)
(0 0 0)
(0 0 0)
(0 0 0)
(0 0 0)
(0 0 0)
(0 0 0)
(0 0 0)
(0 0 0)
(0 0 0)
(0 0 0)
(0 0 0)
(0 0 0)
(0 0 0)
(0 0 0)
(0 0 0)
(0 0 0)
(0 0 0)
(0 0 0)
(0 0 0)
(0 0 0)
(0 0 0)
(0 0 0)
(0 0 0)
(0 0 0)
(0 0 0)
(0 0 0)
(0 0 0)
(0 0 0)
(0 0 0)
(0 0 0)
(0 0 0)
(0 0 0)
(0 0 0)
(0 0 0)
(0 0 0)
(0 0 0)
(0 0 0)
(0 0 0)
(0 0 0)
(0 0 0)
(0 0 0)
(0 0 0)
(0 0 0)
(0 0 0)
(0 0 0)
(0 0 0)
(0 0 0)
(0 0 0)
(0 0 0)
(0 0 0)
(0 0 0)
(0 0 0)
(0 0 0)
(0 0 0)
(0 0 0)
(0 0 0)
(0 0 0)
(0 0 0)
(0 0 0)
(0 0 0)
(0 0 0)
(0 0 0)
(0 0 0)
(0 0 0)
(0 0 0)
(0 0 0)
(0 0 0)
(0 0 0)
(0 0 0)
(0 0 0)
(0 0 0)
(0 0 0)
(0 0 0)
(0 0 0)
(0 0 0)
(0 0 0)
(0 0 0)
(0 0 0)
(0 0 0)
(0 0 0)
(0 0 0)
(0 0 0)
(0 0 0)
(0 0 0)
(0 0 0)
(0 0 0)
(0 0 0)
(0 0 0)
(0 0 0)
(0 0 0)
(0 0 0)
(0 0 0)
(0 0 0)
(0 0 0)
(0 0 0)
(0 0 0)
(0 0 0)
(0 0 0)
(0 0 0)
(0 0 0)
(0 0 0)
(0 0 0)
(0 0 0)
(0 0 0)
(0 0 0)
(0 0 0)
(0 0 0)
(0 0 0)
(0 0 0)
(0 0 0)
(0 0 0)
(0 0 0)
(0 0 0)
(0 0 0)
(0 0 0)
(0 0 0)
(0 0 0)
(0 0 0)
(0 0 0)
(0 0 0)
(0 0 0)
(0 0 0)
(0 0 0)
(0 0 0)
(0 0 0)
(0 0 0)
(0 0 0)
(0 0 0)
(0 0 0)
(0 0 0)
(0 0 0)
(0 0 0)
(0 0 0)
(0 0 0)
(0 0 0)
(0 0 0)
(0 0 0)
(0 0 0)
(0 0 0)
(0 0 0)
(0 0 0)
(0 0 0)
(0 0 0)
(0 0 0)
(0 0 0)
(0 0 0)
(0 0 0)
(0 0 0)
(0 0 0)
(0 0 0)
(0 0 0)
(0 0 0)
(0 0 0)
(0 0 0)
(0 0 0)
(0 0 0)
(0 0 0)
(0 0 0)
(0 0 0)
(0 0 0)
(0 0 0)
(0 0 0)
(0 0 0)
(0 0 0)
(0 0 0)
(0 0 0)
(0 0 0)
(0 0 0)
(0 0 0)
(0 0 0)
(0 0 0)
(0 0 0)
(0 0 0)
(0 0 0)