/*--------------------------------*- C++ -*----------------------------------*\
| =========                 |                                                 |
| \\      /  F ield         | OpenFOAM: The Open Source CFD Toolbox           |
|  \\    /   O peration     | Version:  v2106                                 |
|   \\  /    A nd           | Website:  www.openfoam.com                      |
|    \\/     M anipulation  |                                                 |
\*---------------------------------------------------------------------------*/
FoamFile
{
    version     2.0;
    format      ascii;
    arch        "LSB;label=32;scalar=64";
    class       volScalarField;
    location    "0";
    object      p;
}
// * * * * * * * * * * * * * * * * * * * * * * * * * * * * * * * * * * * * * //

dimensions      [0 2 -2 0 0 0 0];

internalField   nonuniform List<scalar> 
11644
(
-0.0575047
-0.0573894
-0.0571268
-0.0567444
-0.0561405
-0.0551277
-0.0537382
-0.0520513
-0.0500285
-0.0476252
-0.0445719
-0.040946
-0.0370747
-0.0338623
-0.0311058
-0.0273484
-0.0230982
-0.0192249
-0.0149534
-0.00959036
-4.98215e-05
0.00355509
0.00915949
0.0141739
0.0185143
0.0213251
0.0219334
0.0221812
0.0222854
0.02158
0.0201265
0.018107
0.0160167
0.0140456
0.0123131
0.0107658
0.00941341
0.00837086
0.00763718
0.00726868
-0.0581321
-0.0581529
-0.0579436
-0.0574675
-0.0567781
-0.0560214
-0.0548868
-0.0532216
-0.0510871
-0.0486002
-0.0458855
-0.0429308
-0.0396837
-0.035495
-0.0308159
-0.0266837
-0.022393
-0.0176877
-0.0141145
-0.00273791
-0.00219678
0.00671781
0.0136983
0.0171012
0.0202355
0.0224485
0.0243051
0.0244992
0.0232151
0.0213455
0.0193197
0.0173092
0.0152518
0.0132677
0.0113582
0.00961393
0.00825487
0.00717564
0.00645982
0.00616859
-0.0578282
-0.0579807
-0.0580689
-0.0580107
-0.0577293
-0.0572339
-0.0565701
-0.055607
-0.0542318
-0.0523032
-0.0498024
-0.0466906
-0.0427843
-0.0384441
-0.0333822
-0.0279759
-0.022569
-0.0175957
-0.00948356
-0.00203795
0.00160564
0.00675719
0.0154524
0.0190213
0.0226938
0.0245767
0.0249713
0.0244207
0.0228583
0.0207758
0.0184531
0.016135
0.0139075
0.0117926
0.00987182
0.00830255
0.00698886
0.00598816
0.00542817
0.00525593
-0.0572829
-0.0573828
-0.0576534
-0.0580205
-0.0584229
-0.0587216
-0.058872
-0.0588244
-0.0584532
-0.0575599
-0.0559568
-0.0530872
-0.0491359
-0.0431509
-0.036114
-0.0297762
-0.022088
-0.013266
-0.00138559
-0.00300993
0.00935132
0.00620645
0.0164836
0.0207212
0.0237409
0.0250869
0.0254532
0.0239629
0.0217236
0.0192508
0.0168893
0.0145313
0.012266
0.0102118
0.0083937
0.00687134
0.00567982
0.00487731
0.00432419
0.00414793
-0.0561983
-0.0565206
-0.0570302
-0.0577632
-0.0587823
-0.0599289
-0.0611621
-0.0623389
-0.0632827
-0.0637595
-0.063458
-0.0616704
-0.0571853
-0.0500121
-0.0404662
-0.0318409
-0.0235487
-0.0112551
-0.000378373
0.0108572
0.0139562
0.0214006
0.0219915
0.0200625
0.0209998
0.0204295
0.0204667
0.0203039
0.018952
0.016901
0.0145782
0.0122459
0.0100469
0.0080589
0.00639529
0.00500882
0.00393665
0.00311336
0.0025969
0.00207003
-0.0547069
-0.0549035
-0.0555736
-0.0568788
-0.0585771
-0.0606113
-0.0629862
-0.0655175
-0.0679988
-0.0701859
-0.0711525
-0.0698167
-0.0662679
-0.0588557
-0.0470255
-0.0317696
-0.0189879
-0.00078308
0.0137767
0.0262124
0.0260868
0.028283
0.0255839
0.0164623
0.0136688
0.0136368
0.0134061
0.0132836
0.0140067
0.0136625
0.0119123
0.00963413
0.00752077
0.00564943
0.00409631
0.00279445
0.00172971
0.000876681
0.000241464
0.00019245
-0.051684
-0.0521985
-0.053135
-0.0545597
-0.0565186
-0.0592957
-0.0626689
-0.0666366
-0.0707717
-0.0737725
-0.0746701
-0.0736717
-0.0718765
-0.0693785
-0.0599813
-0.0415968
-0.0186336
-0.00500947
0.00905476
0.0186552
0.0191445
0.028667
0.0217589
0.0134662
-0.00322007
-0.00555778
-0.00230289
0.00351032
0.00747827
0.0092788
0.00917229
0.007424
0.00533447
0.00349378
0.00194274
0.000795809
-0.000119521
-0.000601631
-0.00104024
-0.00137427
-0.0461615
-0.0467007
-0.0480741
-0.0499249
-0.0526042
-0.0558775
-0.0598336
-0.0644474
-0.0693093
-0.0727979
-0.0740514
-0.0741525
-0.0743777
-0.0690795
-0.0577488
-0.0542049
-0.0281371
-0.00241964
0.0199223
0.036479
0.0342727
0.0282565
0.0164263
0.00842976
0.00193532
-0.01431
-0.0139679
-0.00104087
0.00274827
0.00516585
0.00636977
0.00602513
0.00443026
0.00271456
0.00124298
-1.06515e-05
-0.00108244
-0.00225178
-0.00278159
-0.00332655
-0.0399247
-0.0403267
-0.0413897
-0.0433687
-0.0462167
-0.0495302
-0.0535868
-0.0584558
-0.063397
-0.0665202
-0.0676936
-0.0673803
-0.0628664
-0.0600873
-0.0543753
-0.0351428
-0.0264186
0.000588453
0.034
0.0613253
0.0562759
0.0426969
0.0235994
0.00150821
-0.0143219
-0.00478704
-0.00788668
-0.00577553
0.00204408
0.00404686
0.00551092
0.00574665
0.00435794
0.00246208
0.000617179
-0.00116674
-0.00241267
-0.00334771
-0.00401145
-0.0036984
-0.0322216
-0.033351
-0.034255
-0.0360476
-0.0380035
-0.041113
-0.0451043
-0.049789
-0.0544626
-0.0583133
-0.0594675
-0.0625494
-0.0687186
-0.0607175
-0.0597364
-0.045519
-0.0258402
0.0035592
0.0495604
0.0970519
0.099398
0.060289
0.0179823
-0.00261703
-0.0119009
-0.0192186
-0.0162967
0.00334196
0.00815402
0.00842136
0.00762457
0.00626995
0.00461072
0.00242884
0.000173488
-0.00161096
-0.00308435
-0.00377127
-0.00487661
-0.00588828
-0.0236946
-0.0230567
-0.0245362
-0.0260453
-0.0285352
-0.0321343
-0.0366258
-0.0414449
-0.0454387
-0.0512731
-0.0569175
-0.060662
-0.0745327
-0.0649721
-0.070682
-0.0875
-0.0847413
-0.0588876
0.0185544
0.157358
0.184319
0.0334759
-0.0427658
-0.0494786
-0.0422274
-0.0222289
-0.0081361
0.015089
0.0133245
0.01163
0.0089663
0.00673668
0.00446783
0.00175823
-0.000845304
-0.00290439
-0.00474008
-0.00651164
-0.00684445
-0.00753652
-0.0127612
-0.0137316
-0.0139616
-0.0151963
-0.017981
-0.0214753
-0.0265234
-0.0326552
-0.0389338
-0.0451717
-0.0548909
-0.0628319
-0.0719858
-0.0769396
-0.0991261
-0.122893
-0.168252
-0.250635
-0.419811
-0.253178
-0.119568
-0.0508159
-0.0113357
0.0132086
0.0204007
0.0129329
0.0082903
0.00655687
0.00420484
0.00118497
-0.00133997
-0.00373909
-0.00581387
-0.00676166
-0.00728982
-0.00755462
-0.00618551
-0.000816201
-0.0023532
-0.00202229
-0.00365677
-0.00633228
-0.0100693
-0.0158014
-0.0236592
-0.0338876
-0.0416896
-0.0499016
-0.0702188
-0.0932056
-0.110332
-0.150811
-0.191519
-0.269832
-0.43591
-0.717455
-0.150076
-0.129619
-0.0575102
-0.016208
-3.84471e-05
0.0207108
0.00125676
-0.00282496
7.7495e-05
-0.00142599
-0.00347017
-0.0052006
-0.0069252
-0.00828115
-0.00923952
-0.00915503
-0.00966208
-0.010442
0.00817541
0.0152171
0.0142421
0.0115678
0.00759347
0.00256098
-0.00371711
-0.0142619
-0.0262662
-0.0470159
-0.0250324
-0.0808205
-0.122102
-0.12521
-0.13003
-0.225004
-0.312507
-0.404629
-0.502609
-0.156045
-0.128875
-0.0196308
0.0106253
-0.0100294
0.00761826
-0.0105106
-0.0219677
0.00365952
-0.00897178
-0.00695759
-0.00910605
-0.0124543
-0.0150278
-0.017176
-0.017258
-0.0162088
-0.0183687
0.0378326
0.0278553
0.0247493
0.0235472
0.016682
0.0134996
0.00499296
-0.007062
-0.00661867
-0.0373795
-0.0363305
-0.0221475
-0.071137
-0.131838
-0.173898
-0.235593
-0.353668
-0.438134
-0.437675
-0.109566
-0.482186
-0.782176
-0.0586799
0.0415108
0.108336
0.109126
0.0783405
0.023871
-0.0243756
0.00497819
-0.00213547
-0.0078732
-0.00299098
-0.014806
-0.0173242
-0.0224055
-0.0293102
-0.0276673
-0.0280829
-0.0307232
0.0388494
0.0409208
0.0384808
0.0342252
0.0230455
0.01767
0.0147603
0.0166292
0.00288673
-0.016652
-0.0392492
-0.0661239
-0.0135815
0.0493236
-0.187854
-0.210061
-0.356211
-0.444886
0.0324146
-0.158036
-0.745162
-0.658406
0.340389
0.453408
0.348199
0.139309
0.130545
0.00119003
0.0665891
0.0529777
0.0131885
-0.00138942
-0.0144208
-0.0131138
-0.0166448
-0.024516
-0.0346955
-0.0400028
-0.0423945
-0.0432432
0.0512253
0.0490231
0.0489455
0.0478063
0.0390266
0.0288043
0.0299874
0.0331832
0.0410566
0.0336493
0.00225546
-0.0313731
-0.0197614
0.0559477
0.118304
-0.279794
-0.521982
-0.488875
-1.02137
0.973944
0.0652893
-0.564929
1.19552
0.909647
0.40666
0.316162
0.0362395
0.0793857
0.0793078
0.033561
0.0118802
-0.00773887
-0.0077827
-0.0272996
-0.0295128
-0.0391694
-0.0479774
-0.0521513
-0.0638344
-0.0594228
0.0568441
0.0650346
0.0627829
0.0580121
0.0553585
0.0566688
0.050597
0.0456903
0.0595731
0.0834749
0.0954022
0.110917
0.0841589
0.165868
0.0639566
0.222193
0.0742707
0.00926456
0.390741
-0.484103
0.679461
0.474718
0.799328
0.721311
0.016342
0.195032
0.00673745
0.0838819
0.00894174
-0.0285846
-0.0286388
-0.0118153
-0.0114028
-0.0349223
-0.0520774
-0.0581978
-0.064536
-0.0726431
-0.0815393
-0.0671355
0.0670322
0.0751476
0.0776483
0.078197
0.0856978
0.0932835
0.0898943
0.0734656
0.0648883
0.0645101
0.0488821
0.130816
0.203799
0.109108
-0.125289
0.0215944
0.424529
1.02352
0.0111572
-0.275673
0.239781
0.881713
0.279302
-1.23816
0.0362397
0.200078
0.0470303
0.0901401
0.0585903
0.0511483
0.00297632
-0.00222283
-0.0321498
-0.0694706
-0.0789177
-0.0822624
-0.0827788
-0.0859073
-0.0869332
-0.082437
0.101337
0.103383
0.0949526
0.0915349
0.0962854
0.105021
0.112385
0.123073
0.109796
0.0959845
0.0844273
-0.170602
0.553891
-0.15892
0.199803
0.0110074
0.0844309
-0.260103
1.76358
0.708195
0.163976
-0.456919
-1.83853
0.852808
0.0863578
0.312329
0.345523
-0.317552
0.394436
0.0439725
-0.00649615
-0.0490167
-0.0796897
-0.0934255
-0.0906113
-0.096624
-0.0971219
-0.104821
-0.112498
-0.113748
0.108449
0.110655
0.115572
0.120481
0.120483
0.12007
0.128159
0.144904
0.151535
0.141749
0.122473
0.103665
0.0297371
-0.0361528
0.0810259
-0.34223
-0.140332
-0.879248
-2.22415
-0.84007
-0.303166
0.543316
2.22063
0.446967
0.560174
0.278897
0.0797593
0.036695
-0.00482166
0.0304844
-0.0407282
-0.0855461
-0.103112
-0.109599
-0.115228
-0.126182
-0.131003
-0.130369
-0.127609
-0.127644
0.129072
0.129759
0.132536
0.139825
0.145985
0.152987
0.163817
0.171761
0.178886
0.180928
0.169866
0.147033
0.0187053
-0.307359
-0.776559
-0.50349
-1.67961
-2.68327
0.324534
0.84418
-1.23627
-2.055
0.520958
1.67116
0.123021
0.500323
0.14473
0.0167
-0.0807191
-0.0898179
-0.105585
-0.123178
-0.135151
-0.145301
-0.154153
-0.157869
-0.159281
-0.156963
-0.156598
-0.156551
0.142356
0.145895
0.150206
0.157089
0.166124
0.17983
0.202373
0.21955
0.212375
0.203327
0.142891
0.345665
0.229478
0.30732
0.0106179
-1.45306
-3.04748
-6.71892
-0.518866
-0.93569
0.263871
1.58753
2.92357
1.13848
0.190322
-0.462254
-0.468099
-0.318323
-0.364985
-0.102052
-0.163542
-0.183108
-0.192778
-0.193627
-0.195585
-0.190864
-0.187914
-0.184825
-0.182298
-0.176585
0.147538
0.145143
0.151788
0.161307
0.173188
0.195066
0.219964
0.249049
0.286207
0.325956
0.386636
0.430807
0.290318
0.122523
-0.392172
1.29796
1.84867
0.704706
0.642542
1.34848
-2.6229
-1.43037
-2.08335
-2.77171
-2.23917
-0.432417
-0.560053
-0.45744
-0.457221
-0.399732
-0.332128
-0.298413
-0.261155
-0.246388
-0.22115
-0.216734
-0.208499
-0.202516
-0.198211
-0.198186
0.152868
0.150008
0.157281
0.167305
0.183345
0.208098
0.237276
0.272293
0.313839
0.368225
0.497615
0.463102
0.433844
0.562269
0.0166036
-0.961767
-0.504114
-0.574252
1.25426
3.15341
-4.08316
-2.03437
-0.803386
-0.639479
-0.118667
-0.66668
-0.849414
-0.612865
-0.542673
-0.546092
-0.417428
-0.353807
-0.324471
-0.292572
-0.265748
-0.248424
-0.235119
-0.228929
-0.222999
-0.225675
0.145795
0.15265
0.160048
0.171221
0.186059
0.204768
0.234536
0.277248
0.340861
0.446578
0.599656
0.478395
0.538685
-0.389248
0.227183
0.95949
0.848363
0.980897
-0.669622
-1.19009
0.420246
-0.204415
-2.55706
-2.09868
-1.54048
-0.724875
-0.0210016
-0.74458
-0.605273
-0.68146
-0.530588
-0.42458
-0.360223
-0.321443
-0.294773
-0.272914
-0.259594
-0.247644
-0.242005
-0.236318
0.1245
0.133972
0.140229
0.151025
0.163777
0.180684
0.200236
0.225191
0.246034
0.308106
0.288784
0.245271
0.188967
0.428409
-0.310087
-0.881922
-0.981553
-0.380907
0.804609
1.78989
-1.11074
0.0554546
-1.26295
-0.209035
-0.117452
-0.450795
-0.85986
-0.498558
-0.475314
-0.477478
-0.484484
-0.374633
-0.346764
-0.327012
-0.299426
-0.276678
-0.259657
-0.244751
-0.237701
-0.227706
0.118633
0.117775
0.122313
0.128364
0.137065
0.147592
0.158734
0.168972
0.18331
0.201477
0.198853
0.134872
-0.0359718
-0.588022
-0.291815
0.0919111
-0.343735
-0.488447
-1.25319
-1.58768
2.03915
1.20704
-0.0214906
-0.352803
-0.670005
-0.270812
0.137608
-0.335916
-0.394515
-0.464397
-0.435558
-0.384207
-0.342785
-0.314778
-0.290542
-0.272906
-0.256026
-0.244851
-0.236961
-0.236709
0.089745
0.0950302
0.0991263
0.104951
0.106141
0.111133
0.111982
0.109395
0.0895313
0.0835067
0.0437067
-0.0463256
-0.110361
-0.047205
-0.679103
-1.14888
-1.37392
-1.33166
-1.06764
-0.00385898
0.153398
0.786094
1.00935
0.662052
0.608357
0.107881
-0.36049
-0.261894
-0.26414
-0.353083
-0.373284
-0.342182
-0.31623
-0.293919
-0.277122
-0.260095
-0.246236
-0.234658
-0.227209
-0.22269
0.0719899
0.0707043
0.070552
0.0711469
0.0731794
0.0753776
0.0691854
0.0564053
0.0601742
0.0483289
0.0494625
-0.181575
-0.372354
-0.731718
-0.523945
-0.600196
-0.991216
-0.77839
-1.12828
-0.99338
1.09366
0.794505
0.773059
0.475605
0.22672
0.110726
0.404302
0.0223006
-0.163407
-0.368606
-0.351468
-0.317159
-0.288331
-0.27641
-0.255851
-0.237226
-0.223032
-0.214301
-0.208664
-0.206876
0.0485651
0.0410255
0.0441934
0.0459962
0.0441158
0.038798
0.0296189
0.0163176
-0.00424147
-0.0256397
-0.0255759
-0.131804
-0.145767
-0.0762358
-0.323022
-0.496819
-0.630889
-0.476674
-0.495008
0.367991
0.130256
0.593249
0.767736
0.482255
0.305303
-0.0798038
-0.400696
-0.260638
-0.188761
-0.307184
-0.297273
-0.274252
-0.252357
-0.240561
-0.225528
-0.211475
-0.200393
-0.189863
-0.182443
-0.185022
0.0216019
0.0250513
0.0218823
0.0179099
0.0142189
0.0101297
0.0045746
-0.000842602
-0.0233288
-0.0451709
0.00533245
-0.0301805
-0.154234
-0.2949
-0.145806
0.078537
-0.0380605
0.0690003
-0.120607
-0.666623
1.28682
0.415395
-0.0896845
-0.232307
-0.371056
-0.132518
0.0890784
-0.0420468
-0.280702
-0.312664
-0.260564
-0.225947
-0.207972
-0.207337
-0.191058
-0.177548
-0.169815
-0.167252
-0.16577
-0.160307
0.00177922
-0.00521946
-0.00453761
-0.00263153
-0.00459256
-0.00919657
-0.0146708
-0.0194321
-0.0207372
-0.0290868
-0.0319166
-0.00290644
0.185046
0.406197
0.364475
0.266453
0.0913493
0.211154
-0.574644
-0.600849
0.432605
0.406809
-0.054315
-0.0883315
-0.0982451
-0.316902
-0.548541
-0.398584
-0.243756
-0.234081
-0.243285
-0.192802
-0.177699
-0.165567
-0.155008
-0.146744
-0.13991
-0.132296
-0.12753
-0.1271
-0.0222056
-0.0223883
-0.0249137
-0.0281771
-0.0307119
-0.0354886
-0.0409891
-0.0455859
-0.0512877
-0.0591179
-0.0269804
0.0391706
-0.00603952
-0.0180921
0.315662
0.745673
0.836138
0.917495
0.770305
0.274185
-0.345962
-0.542554
-0.571329
-0.616566
-0.476276
-0.256314
-0.00625982
-0.0788011
-0.208151
-0.167033
-0.137367
-0.14228
-0.13083
-0.124349
-0.11014
-0.103457
-0.0991736
-0.0987617
-0.0977609
-0.0943331
-0.0496097
-0.0483869
-0.0495385
-0.0497978
-0.0532635
-0.0575056
-0.0633277
-0.0655149
-0.06539
-0.0447877
-0.0583784
-0.00562847
0.187489
0.390987
0.384864
0.513567
0.264981
0.259236
0.214759
-0.35838
0.810911
0.339479
0.196665
0.273026
-0.066856
-0.119239
-0.279688
-0.18758
-0.0970741
-0.0844726
-0.0949555
-0.0881928
-0.0782712
-0.0690584
-0.0659021
-0.0641736
-0.062261
-0.0595743
-0.0592267
-0.0608638
-0.0743337
-0.0709178
-0.0725821
-0.0756477
-0.0797885
-0.0819331
-0.086335
-0.0885143
-0.0917699
-0.0902976
-0.053397
-0.00510219
0.00511589
0.131286
0.365609
0.572293
0.825817
0.453892
1.43039
1.04114
0.0452699
-0.263783
0.0323019
-0.10284
-0.175403
-0.0807662
0.0566076
0.0614515
-0.0173291
-0.031865
-0.0348943
-0.0343149
-0.0197666
-0.0137833
-0.0172323
-0.0193428
-0.0208931
-0.0213917
-0.0204541
-0.0169058
-0.0921733
-0.090763
-0.0949888
-0.0981874
-0.103803
-0.104661
-0.109482
-0.108481
-0.0945036
-0.0624253
-0.0479689
-0.0795053
0.0534981
0.162244
0.233961
0.240808
0.118885
0.266209
0.370309
-0.00765276
1.19147
0.774453
0.850552
0.864585
0.37859
0.278431
0.157449
0.128406
0.0830591
0.0454452
-0.0107101
0.0137165
0.0342461
0.0344221
0.0271425
0.0266944
0.0224527
0.0223066
0.019014
0.0199587
-0.110185
-0.111316
-0.113076
-0.113313
-0.114877
-0.118219
-0.11801
-0.116969
-0.1137
-0.111739
-0.0687926
-0.025084
-0.0269779
-0.00364082
0.146857
0.225014
0.301989
0.197981
0.517473
0.373772
1.27543
0.965228
0.544099
0.346581
0.459571
0.332958
0.343734
0.234544
0.132053
0.115664
0.140886
0.104739
0.0890285
0.0790553
0.0699319
0.0645166
0.0582409
0.0541586
0.051053
0.0542185
-0.126465
-0.123227
-0.127245
-0.129471
-0.132283
-0.134748
-0.131612
-0.122298
-0.103556
-0.105373
-0.119522
-0.0982142
0.0146857
0.0647425
-0.00616436
-0.267852
-0.397568
-0.174721
-0.68731
-3.48205
4.88075
1.42271
0.51887
0.492781
0.507633
0.389198
0.366829
0.359572
0.354664
0.250545
0.201809
0.152962
0.134903
0.125623
0.113534
0.103967
0.0959986
0.0889968
0.0850429
0.0851099
-0.133678
-0.13135
-0.133256
-0.136833
-0.139834
-0.141947
-0.144597
-0.137611
-0.147106
-0.142949
-0.0986234
-0.00372908
-0.0104822
0.0187618
0.101163
0.161036
0.300257
0.196611
0.143635
0.145185
0.674651
0.514417
0.348651
0.23917
0.324547
0.463671
0.365002
0.312122
0.199139
0.270883
0.266561
0.227502
0.18909
0.166194
0.148535
0.136466
0.125601
0.1181
0.113503
0.114607
-0.144537
-0.14581
-0.146089
-0.146476
-0.145901
-0.143137
-0.139194
-0.146602
-0.142143
-0.13628
-0.133524
-0.144997
0.0113214
0.211408
0.24957
0.183949
0.162389
0.263761
0.169138
-0.191719
0.948384
0.683294
0.410762
0.57405
0.506419
0.401418
0.300595
0.336464
0.345822
0.281766
0.30887
0.258411
0.220771
0.196625
0.177416
0.162711
0.150873
0.142329
0.136755
0.134044
-0.160495
-0.160263
-0.160489
-0.160097
-0.159298
-0.162461
-0.149606
-0.139902
-0.119607
-0.106623
-0.0523377
0.000133599
0.0170741
0.090318
0.219221
0.364705
0.579691
0.410584
0.606603
0.833573
-0.141395
0.0831424
0.222268
0.0961751
0.209582
0.287874
0.336242
0.308857
0.222629
0.247164
0.283301
0.272
0.234143
0.223027
0.200566
0.183005
0.169947
0.159582
0.152276
0.150572
-0.163325
-0.164632
-0.167418
-0.169694
-0.170183
-0.172834
-0.16834
-0.166391
-0.0779703
-0.0639269
-0.0989576
-0.152076
0.00605822
0.173464
0.316551
0.386109
0.480399
0.553059
0.763379
0.566004
-0.0857214
-0.189708
-0.0975943
0.038409
0.136102
0.177976
0.201123
0.29196
0.328615
0.32201
0.260812
0.226348
0.234844
0.215405
0.210123
0.189866
0.179463
0.169928
0.164158
0.15823
-0.178209
-0.173926
-0.174248
-0.17363
-0.174147
-0.169001
-0.161223
-0.147762
-0.093186
-0.0803658
-0.11519
-0.0598105
-0.0272428
0.0536021
0.204259
0.287596
0.38271
0.264921
0.228664
0.183647
-0.0118435
-0.0385423
-0.00333205
-0.0317981
0.119694
0.206697
0.316043
0.269668
0.153149
0.1959
0.22764
0.205952
0.22145
0.210589
0.195262
0.182476
0.172724
0.170832
0.165855
0.166756
-0.182505
-0.18455
-0.18499
-0.186233
-0.186748
-0.184511
-0.178741
-0.164415
-0.134731
-0.0663804
-0.128051
-0.238854
-0.188179
-0.166328
-0.0223847
-0.0444182
-0.102872
-0.0613497
-0.0250446
-0.541595
0.289262
-0.182317
-0.0485699
0.162347
0.118327
0.125241
0.14342
0.220877
0.34671
0.249287
0.199873
0.163871
0.190517
0.19404
0.187522
0.178811
0.168364
0.163949
0.159739
0.162867
-0.194129
-0.190511
-0.192835
-0.193813
-0.194327
-0.194974
-0.190128
-0.17694
-0.160537
-0.132655
-0.107018
-0.112855
-0.157066
-0.246969
-0.241095
-0.250166
-0.399006
-0.441334
-0.641464
-1.07607
0.416243
0.169706
0.347328
0.364926
0.216367
0.256715
0.273361
0.237487
0.165907
0.144259
0.164452
0.167632
0.167071
0.183178
0.176429
0.172289
0.165889
0.163765
0.162025
0.166215
-0.193038
-0.194947
-0.195975
-0.200979
-0.201551
-0.201173
-0.199001
-0.193375
-0.186291
-0.214662
-0.203366
-0.254811
-0.173684
-0.0209717
0.066873
0.146859
0.123761
0.244707
0.230745
0.066449
0.00874859
-0.0985593
0.183214
0.205165
0.158127
0.192854
0.155463
0.230212
0.269159
0.20769
0.204792
0.167857
0.159328
0.165807
0.167404
0.168321
0.162593
0.158131
0.156398
0.150574
-0.199827
-0.196756
-0.19771
-0.199417
-0.202369
-0.200954
-0.200443
-0.205689
-0.206067
-0.190157
-0.187237
-0.166752
-0.190463
-0.170702
-0.0763507
0.0763014
0.188414
0.291276
0.289611
0.232191
1.16828
0.881728
0.50319
0.476164
0.460322
0.495577
0.398264
0.300615
0.185835
0.160603
0.14929
0.144515
0.151676
0.147803
0.14555
0.148152
0.14873
0.145436
0.14303
0.143477
-0.199627
-0.198604
-0.198435
-0.20171
-0.204741
-0.20881
-0.21134
-0.21162
-0.212143
-0.215183
-0.256617
-0.209284
-0.138496
-0.0767914
0.00459777
0.10794
0.391427
0.556792
0.852582
1.05977
0.802781
0.79031
0.564487
0.489641
0.559402
0.391421
0.259236
0.211797
0.194615
0.164639
0.14362
0.122566
0.120476
0.120447
0.125977
0.130108
0.132965
0.127828
0.129129
0.130328
-0.206305
-0.204156
-0.205125
-0.211016
-0.213762
-0.217549
-0.220353
-0.219876
-0.234413
-0.214292
-0.191946
-0.162436
-0.14669
-0.148339
-0.22344
-0.166458
-0.0805088
0.067625
0.28465
0.557912
1.14987
1.23547
1.0934
0.938841
0.780525
0.615277
0.433367
0.2384
0.142407
0.112116
0.0893528
0.0963901
0.0992561
0.106286
0.110484
0.118527
0.122351
0.126983
0.129442
0.129921
-0.203121
-0.212245
-0.214316
-0.215827
-0.216448
-0.217527
-0.215554
-0.214285
-0.203639
-0.195295
-0.179772
-0.151982
-0.0506585
0.0549078
0.110265
0.136984
0.250872
0.254926
0.430353
0.559541
0.695063
0.665386
0.59005
0.391905
0.24904
0.12421
0.082594
0.0866532
0.0834451
0.0518034
0.0494527
0.0743695
0.089759
0.0961793
0.103616
0.112961
0.118331
0.120291
0.119607
0.118876
-0.204824
-0.209031
-0.212736
-0.203615
-0.203336
-0.202298
-0.200195
-0.192442
-0.159776
-0.144835
-0.101548
-0.0854924
-0.0737756
-0.0241474
0.0263282
0.232158
-0.0629234
0.0429675
-0.188551
-0.609625
1.09745
0.413934
0.283508
0.244008
-0.129433
-0.0530362
-0.0502398
-0.0197686
0.00473705
0.0540486
0.0480077
0.0637294
0.0681299
0.0814021
0.0919857
0.0995347
0.105616
0.115984
0.116699
0.114709
-0.18923
-0.188234
-0.188009
-0.186976
-0.186549
-0.184193
-0.17983
-0.17021
-0.14684
-0.0999437
-0.0669205
-0.0373693
0.013114
0.080669
0.124961
0.165261
0.161117
0.0636877
-0.0331436
-0.0851149
0.246138
0.259634
0.131587
0.0073167
-0.106544
-0.124278
-0.110404
-0.0327834
0.00828078
0.0109486
0.0245887
0.0600229
0.0634889
0.0779579
0.0886864
0.0959176
0.101945
0.105674
0.107879
0.108319
-0.189764
-0.18437
-0.181739
-0.173874
-0.171332
-0.166947
-0.159987
-0.140585
-0.129795
-0.118005
-0.0661039
0.0374502
0.106027
0.112963
0.0625016
0.0688071
0.0470126
0.0887603
0.142631
0.24055
0.397768
0.384977
0.383062
0.366966
0.282228
0.212937
0.120535
0.0498215
0.0385962
0.0578325
0.0737202
0.0629737
0.0732731
0.0817671
0.0889658
0.0942325
0.0979794
0.107093
0.10962
0.108358
-0.191423
-0.190214
-0.188225
-0.183063
-0.178177
-0.169983
-0.161898
-0.137102
-0.104756
-0.0532119
0.00828673
0.0589916
0.177372
0.270006
0.392261
0.466258
0.530517
0.459449
0.491064
0.536094
0.502739
0.478934
0.324826
0.153775
0.0395349
0.0052743
0.0188608
0.0518089
0.075698
0.0541783
0.0512866
0.0802359
0.0907038
0.0922538
0.0988678
0.104392
0.107235
0.108295
0.107151
0.107038
-0.190036
-0.193339
-0.192837
-0.188238
-0.185628
-0.176251
-0.161681
-0.137742
-0.117259
-0.0947892
0.00271054
0.0886487
0.193757
0.314823
0.447558
0.599321
0.725038
0.873575
0.986559
0.719349
0.268709
0.0147102
-0.056671
-0.0690022
-0.0194232
-0.0306553
0.0124013
0.034623
0.0607463
0.108958
0.103554
0.0904839
0.0952789
0.0978181
0.0999351
0.102694
0.106205
0.108552
0.109679
0.107799
-0.185797
-0.182755
-0.183194
-0.183385
-0.180124
-0.173808
-0.165346
-0.148501
-0.105794
-0.0592672
-0.0127947
0.0230562
0.100979
0.171805
0.229911
0.277109
0.283251
0.213249
0.203239
0.205999
0.458476
0.362538
0.185583
0.078987
0.0476005
0.070335
0.104485
0.129219
0.132084
0.0861095
0.055455
0.0730321
0.0961112
0.0988786
0.100091
0.100464
0.102671
0.101859
0.103537
0.105175
-0.18502
-0.184538
-0.181801
-0.179862
-0.179549
-0.177497
-0.172766
-0.165227
-0.137557
-0.133337
-0.116256
-0.106953
-0.134646
-0.196395
-0.258864
-0.269257
-0.304248
-0.162752
-0.0114088
0.0282886
0.0141016
0.184017
0.295689
0.166962
0.238431
0.200101
0.183068
0.145079
0.129289
0.146369
0.135761
0.10262
0.100348
0.10282
0.104538
0.100379
0.100161
0.09907
0.100903
0.105102
-0.190528
-0.187525
-0.189064
-0.192141
-0.19521
-0.194872
-0.199146
-0.183184
-0.165457
-0.142139
-0.159626
-0.203191
-0.259522
-0.378129
-0.435445
-0.527593
-0.552319
-0.64317
-0.601591
-0.0499574
0.0560773
0.417643
0.55368
0.384381
0.292712
0.230277
0.197826
0.158435
0.164529
0.123495
0.0912853
0.115697
0.109893
0.119656
0.119577
0.114624
0.112521
0.110199
0.109859
0.112575
-0.193205
-0.198667
-0.199781
-0.200227
-0.201934
-0.204411
-0.205655
-0.208436
-0.215166
-0.241552
-0.21392
-0.200596
-0.194695
-0.197052
-0.172401
-0.107483
-0.0557373
0.1743
0.244302
0.184018
0.0236503
-0.0688458
0.0571152
0.123636
0.138193
0.146555
0.141061
0.131125
0.129858
0.156433
0.18309
0.152103
0.133978
0.128991
0.132547
0.128589
0.126663
0.126276
0.124391
0.116563
-0.195906
-0.196585
-0.19794
-0.199781
-0.20013
-0.201922
-0.206786
-0.204953
-0.222929
-0.211552
-0.223168
-0.249381
-0.242558
-0.21358
-0.173912
-0.114772
-0.0239056
0.0883165
0.1588
0.312852
0.416226
0.690693
0.609124
0.299453
0.336206
0.275164
0.271639
0.260498
0.227856
0.183991
0.154751
0.147403
0.138772
0.133973
0.133601
0.129343
0.125035
0.122641
0.119008
0.118586
-0.191886
-0.191338
-0.189958
-0.190087
-0.192758
-0.19742
-0.21002
-0.220848
-0.254916
-0.283399
-0.302487
-0.305284
-0.335292
-0.345966
-0.325315
-0.2819
-0.183161
0.0990985
0.243836
0.429117
0.543289
0.614314
0.657528
0.612384
0.560772
0.468561
0.379596
0.289934
0.231526
0.208951
0.195377
0.166283
0.141284
0.130986
0.12339
0.116974
0.111736
0.10795
0.108219
0.108679
-0.193184
-0.190791
-0.192743
-0.196158
-0.199912
-0.207707
-0.22939
-0.241293
-0.278692
-0.304176
-0.344216
-0.410452
-0.498605
-0.55581
-0.617827
-0.642358
-0.633593
-0.322888
-0.140312
0.268065
0.50152
0.712276
0.772075
0.751227
0.722214
0.623513
0.517016
0.40488
0.307974
0.235659
0.196797
0.170852
0.149837
0.133424
0.122204
0.11357
0.109478
0.106971
0.108078
0.113534
-0.197993
-0.203872
-0.206725
-0.210649
-0.213865
-0.221902
-0.230359
-0.269603
-0.295625
-0.333971
-0.351922
-0.353975
-0.378477
-0.384674
-0.414671
-0.372018
-0.413251
-0.135362
-0.0391821
0.0305966
0.0935317
0.178743
0.189781
0.158533
0.141308
0.186009
0.198637
0.202121
0.213888
0.205356
0.189179
0.171742
0.157115
0.142605
0.133058
0.126294
0.121696
0.115981
0.113958
0.111285
-0.198849
-0.203607
-0.208004
-0.212045
-0.214979
-0.220913
-0.230712
-0.249356
-0.270527
-0.29323
-0.345852
-0.413065
-0.449077
-0.47955
-0.506432
-0.478056
-0.409321
-0.327644
-0.487248
-0.00619955
-0.341059
0.00878887
-0.138248
-0.099265
-0.0443161
0.099284
0.132872
0.144763
0.170168
0.146596
0.17817
0.16923
0.146285
0.135135
0.124971
0.122039
0.120347
0.118851
0.116871
0.113491
-0.184428
-0.184739
-0.185619
-0.189742
-0.196579
-0.205401
-0.215244
-0.235559
-0.259656
-0.2971
-0.348266
-0.431037
-0.497745
-0.57211
-0.608357
-0.61623
-0.646299
-0.599966
-0.575425
-0.393846
-0.22343
-0.00459297
0.112395
0.1391
0.142702
0.153668
0.142843
0.146383
0.169891
0.141827
0.140208
0.140278
0.133579
0.123499
0.115971
0.112015
0.108994
0.105106
0.104423
0.102537
-0.177948
-0.171454
-0.171061
-0.173449
-0.18039
-0.191353
-0.197928
-0.220162
-0.254977
-0.297836
-0.348553
-0.455404
-0.560181
-0.672371
-0.784413
-0.860989
-0.855197
-0.709728
-0.509487
-0.185866
-0.0297361
0.161795
0.282785
0.398094
0.573591
0.509109
0.410749
0.314774
0.230254
0.169132
0.1667
0.144115
0.126063
0.114873
0.103318
0.0977811
0.0950525
0.0929466
0.0924353
0.0962316
-0.171782
-0.171867
-0.172901
-0.175838
-0.182844
-0.190357
-0.199839
-0.209854
-0.230259
-0.259596
-0.307379
-0.378446
-0.404293
-0.416126
-0.472672
-0.452945
-0.475037
-0.448804
-0.33589
-0.0999745
0.0881949
0.285927
0.371864
0.37018
0.342892
0.305611
0.260482
0.217036
0.184821
0.16687
0.167895
0.135051
0.123631
0.113028
0.100894
0.0974892
0.0944166
0.0907981
0.0887781
0.0894516
-0.169076
-0.175479
-0.178357
-0.178885
-0.180439
-0.182159
-0.184981
-0.190853
-0.210172
-0.228417
-0.260883
-0.274968
-0.271753
-0.248239
-0.220174
-0.161963
-0.0171094
0.0367465
0.0741001
0.0464035
0.0296606
-0.0515019
-0.0655068
-0.00780182
0.0937383
0.142872
0.143455
0.133163
0.123391
0.123855
0.136634
0.123696
0.110896
0.0953676
0.0903621
0.0889843
0.0907299
0.0922535
0.0914604
0.089788
-0.153024
-0.155118
-0.15681
-0.158133
-0.158294
-0.159885
-0.155792
-0.156447
-0.161394
-0.175332
-0.201865
-0.207598
-0.241083
-0.301231
-0.374605
-0.461543
-0.336568
-0.362637
-0.268521
-0.128059
0.0313595
0.150362
0.184524
0.186614
0.161179
0.157007
0.14669
0.118454
0.109026
0.0945304
0.0834503
0.0783158
0.0755225
0.0755283
0.0760966
0.0736826
0.073921
0.0759432
0.0763449
0.076525
-0.13055
-0.126099
-0.123773
-0.121047
-0.12009
-0.121926
-0.124211
-0.127342
-0.146492
-0.168698
-0.200681
-0.272118
-0.371631
-0.479066
-0.615826
-0.696156
-0.642259
-0.510314
-0.358552
-0.245724
-0.182633
-0.0686984
0.0558367
0.188141
0.219496
0.214276
0.19202
0.155323
0.120668
0.0853111
0.0792215
0.0685402
0.0571484
0.0575784
0.0582853
0.0561069
0.0554606
0.0571441
0.0590225
0.0642208
-0.115735
-0.109711
-0.10591
-0.105081
-0.100455
-0.108218
-0.108387
-0.112888
-0.121119
-0.139106
-0.164823
-0.222984
-0.306945
-0.406526
-0.51516
-0.55693
-0.744167
-0.674996
-0.581557
-0.449148
-0.252556
0.0224146
0.121067
0.151589
0.136946
0.0902376
0.05783
0.034627
0.0232194
0.0346319
0.0246786
0.0242813
0.0422007
0.0523133
0.0560273
0.0515309
0.0539455
0.0547772
0.0564889
0.0554095
-0.115403
-0.115103
-0.113587
-0.110021
-0.104957
-0.101919
-0.0986965
-0.101301
-0.103644
-0.103691
-0.0938003
-0.0826767
-0.0641953
-0.043019
-0.0293466
-0.0143892
-0.0158504
-0.0952329
-0.12669
-0.253155
-0.338025
-0.410301
-0.425394
-0.408421
-0.293749
-0.254951
-0.191508
-0.135267
-0.0856681
-0.0393579
0.00582203
0.0333688
0.0391077
0.045262
0.0512636
0.05431
0.0578487
0.0618371
0.0602241
0.0543789
-0.10764
-0.111239
-0.110205
-0.107358
-0.100995
-0.0914316
-0.0784877
-0.0730541
-0.0469051
-0.0117363
0.00945654
0.0575552
0.110598
0.144266
0.106488
0.0948572
0.0595606
0.00864144
-0.0693266
-0.179711
-0.25229
-0.330496
-0.326477
-0.367477
-0.396972
-0.319159
-0.255201
-0.180113
-0.119363
-0.0668864
-0.0311758
-0.0116087
0.0149735
0.0301589
0.0388523
0.043929
0.0474147
0.0485096
0.0472899