/*--------------------------------*- C++ -*----------------------------------*\
| =========                 |                                                 |
| \\      /  F ield         | OpenFOAM: The Open Source CFD Toolbox           |
|  \\    /   O peration     | Version:  v2106                                 |
|   \\  /    A nd           | Website:  www.openfoam.com                      |
|    \\/     M anipulation  |                                                 |
\*---------------------------------------------------------------------------*/
FoamFile
{
    version     2.0;
    format      ascii;
    arch        "LSB;label=32;scalar=64";
    class       volVectorField;
    location    "0";
    object      U;
}
// * * * * * * * * * * * * * * * * * * * * * * * * * * * * * * * * * * * * * //

dimensions      [0 1 -1 0 0 0 0];

internalField   nonuniform List<vector> 
11644
(
(-6.61698e-05 -5.46619e-05 -6.25574e-21)
(-8.39779e-05 -0.000124648 -1.72515e-20)
(-7.68931e-05 -0.000185305 -9.25585e-21)
(-5.43524e-05 -0.000245522 0)
(-6.71888e-05 -0.000311263 0)
(-9.23918e-05 -0.000329913 0)
(-0.000107949 -0.000339556 0)
(-0.000134645 -0.000349643 0)
(-0.00020673 -0.000267094 0)
(-0.000296529 -7.50265e-05 0)
(-0.000387176 0.000289599 0)
(-0.000405829 0.000617722 0)
(-0.000330565 0.00113187 0)
(-0.000424356 0.00122162 0)
(-0.000478734 0.00173037 0)
(-0.000382757 0.00217709 0)
(-0.000499243 0.00227265 0)
(0.000580763 0.0026078 0)
(-0.000308997 0.00104742 0)
(-0.00176598 0.00256563 -1.1002e-30)
(0.00125994 0.00198378 1.23904e-30)
(-0.000157537 0.000118156 0)
(-0.00119872 0.00151314 0)
(-9.80678e-06 0.00101797 0)
(-0.000208938 0.0010484 0)
(-7.51349e-05 0.000772033 0)
(-0.000168682 0.000690094 0)
(-0.000155906 0.000939176 0)
(-3.282e-05 0.000779362 0)
(3.35361e-05 0.000711965 0)
(2.23345e-05 0.000524105 0)
(-6.74094e-06 0.000430453 0)
(-2.55278e-05 0.000377975 0)
(-2.14091e-05 0.000342877 0)
(-1.54714e-05 0.000269263 0)
(-2.36343e-05 0.000185769 0)
(-4.1686e-05 0.000135366 0)
(-3.00821e-05 9.80272e-05 0)
(-2.31856e-05 7.57938e-05 0)
(-5.75471e-05 2.861e-05 -1.21292e-21)
(2.0362e-05 -3.62742e-05 -8.03546e-21)
(4.40017e-05 -0.000120942 -7.44341e-21)
(2.74897e-05 -0.0001902 -3.99762e-21)
(-6.47389e-06 -0.000245204 0)
(-4.71414e-05 -0.000266141 0)
(-6.86553e-05 -0.000324588 0)
(-0.000110386 -0.000313098 0)
(-0.000168207 -0.00027662 0)
(-0.000258501 -0.000268726 0)
(-0.000372884 -0.000284312 0)
(-0.000464754 -0.00032439 0)
(-0.000606372 -0.000200925 0)
(-0.000711568 -7.0329e-05 0)
(-0.000713142 0.000532474 0)
(-0.000685051 0.000827354 0)
(-0.000699718 0.000929516 -7.94825e-22)
(-0.000265852 0.00134968 5.151e-21)
(-0.000538793 0.00180844 3.39689e-20)
(-0.000117545 0.00283097 -8.73758e-20)
(0.00023164 0.000803824 5.81359e-20)
(0.000508679 0.000492921 -3.4836e-20)
(-1.85605e-05 0.00216189 6.25483e-20)
(0.000411 0.0011026 -3.21397e-20)
(-0.00039899 0.000621798 -5.73625e-21)
(-2.33026e-06 0.000275578 3.62369e-22)
(-3.66637e-06 0.000387035 0)
(8.72257e-05 0.00031856 0)
(0.000122553 -8.96516e-05 0)
(0.000134598 -0.000126316 0)
(0.000107015 -0.000160462 0)
(8.68693e-05 -8.75516e-05 0)
(3.30816e-05 -6.88099e-05 0)
(7.87992e-06 -9.44022e-05 0)
(-5.87987e-06 -0.000129553 0)
(-2.99228e-05 -0.000158756 0)
(-4.53953e-05 -0.000104995 0)
(-6.50336e-05 -9.42069e-05 0)
(-7.71012e-05 -7.03207e-05 0)
(-8.56298e-05 -4.18204e-05 0)
(-6.92383e-05 -8.02938e-06 0)
(2.89721e-06 -1.98257e-05 0)
(1.96454e-05 -8.21365e-05 0)
(5.02465e-05 -0.000159879 0)
(3.19699e-05 -0.000228023 0)
(7.64503e-06 -0.000298094 -7.34024e-21)
(-3.58079e-05 -0.000354612 0)
(-6.88268e-05 -0.000447722 0)
(-0.000121705 -0.000487741 0)
(-0.000197018 -0.000489872 0)
(-0.000305201 -0.00046263 0)
(-0.000445429 -0.000449442 0)
(-0.000614141 -0.000363937 0)
(-0.000803475 -0.000280444 -3.35549e-22)
(-0.0010119 -2.20317e-05 -2.05146e-20)
(-0.00108132 0.000286534 4.96829e-20)
(-0.00104513 0.000788006 -2.0039e-20)
(-0.000924106 0.00127739 1.26263e-19)
(-0.00107735 0.000940532 4.60906e-20)
(-0.00164978 0.00120153 -1.19839e-19)
(0.00144735 0.00146503 2.99437e-19)
(-0.00119101 0.00120816 -3.70635e-19)
(0.00141903 0.000933354 1.31975e-20)
(0.000701852 0.000693774 1.18323e-19)
(0.000327128 0.000804302 -2.63448e-19)
(0.000374415 0.000374985 1.77512e-19)
(0.000278995 0.00021964 -5.31718e-20)
(0.000329859 0.000151122 1.79931e-20)
(0.000388675 5.81453e-05 1.28286e-22)
(0.000345834 0.000106637 0)
(0.000282515 4.22736e-05 0)
(0.000223729 -3.72309e-06 0)
(0.000160821 -9.26138e-05 0)
(8.70625e-05 -0.00015666 0)
(1.78312e-05 -0.000188669 0)
(-1.57871e-05 -0.000144734 0)
(-8.56367e-05 -0.000152098 0)
(-0.000117586 -0.000121833 0)
(-0.000164833 -0.000101732 0)
(-0.00020142 -7.85273e-05 0)
(-0.000228865 -3.18905e-05 0)
(0.000142868 -3.90067e-05 0)
(0.000121753 -0.000119173 0)
(8.88187e-05 -0.000196606 0)
(8.12709e-05 -0.000280442 0)
(9.57782e-05 -0.000377714 0)
(8.18596e-05 -0.000469004 0)
(5.57666e-05 -0.000564921 0)
(-1.00488e-05 -0.000650815 0)
(-8.52792e-05 -0.00073232 0)
(-0.00019689 -0.000762413 0)
(-0.000354231 -0.000737805 -2.7257e-22)
(-0.000601795 -0.000564788 -2.32146e-20)
(-0.000875425 -0.000302833 1.14733e-20)
(-0.00115477 0.000119146 2.02783e-19)
(-0.0014373 0.000735648 -2.17998e-19)
(-0.00138499 0.00128777 2.18781e-19)
(-0.00141355 0.001693 -3.55554e-19)
(-0.00123681 0.00157876 -1.32986e-19)
(-0.000603244 0.00213195 2.43874e-19)
(-6.65237e-05 0.0024449 -5.81432e-21)
(-0.000388777 0.00156333 2.02081e-19)
(0.000291881 0.000886376 7.16053e-20)
(0.000819478 0.000604736 -3.61113e-19)
(0.000757107 0.000598579 4.722e-19)
(0.000687782 0.000612957 -3.18282e-19)
(0.000868008 0.000483548 1.99634e-19)
(0.000867232 0.000493519 -2.29666e-19)
(0.000785258 0.000416363 1.39586e-20)
(0.000711749 0.000196547 7.1797e-21)
(0.000593963 6.57569e-05 1.62036e-22)
(0.000474148 -2.72942e-05 0)
(0.000345434 -8.80427e-05 0)
(0.00021609 -0.00012821 0)
(8.62821e-05 -0.000153243 0)
(-2.82866e-05 -0.000159044 0)
(-0.000104794 -0.000151085 0)
(-0.000172504 -0.000133553 0)
(-0.000204766 -0.000100957 0)
(-0.000232758 -7.20386e-05 0)
(-0.000245272 -2.91963e-05 0)
(0.000226499 -5.08664e-05 0)
(0.000233518 -0.00014133 0)
(0.000208201 -0.000259477 0)
(0.000208457 -0.000378048 0)
(0.000180184 -0.000478534 0)
(0.000176077 -0.000587312 0)
(0.000139184 -0.000687665 0)
(0.000107616 -0.000808605 0)
(1.15668e-05 -0.000930573 0)
(-9.8924e-05 -0.00104916 -8.96327e-22)
(-0.000337357 -0.00102592 -2.74482e-20)
(-0.000649288 -0.000879132 -1.3921e-19)
(-0.0010491 -0.000529557 -6.74339e-20)
(-0.00158515 8.47432e-05 5.10852e-19)
(-0.00183086 0.00082269 -2.94898e-19)
(-0.00175886 0.0014249 -6.55229e-19)
(-0.00186244 0.00201691 8.13807e-19)
(-0.00135785 0.00205177 3.682e-19)
(-0.000886361 0.00220454 -2.18214e-18)
(-0.00145614 0.00240888 8.28886e-19)
(9.1213e-05 0.00160746 -3.13523e-19)
(-0.00059657 0.000973862 1.64423e-18)
(0.000113935 0.000787169 -3.50014e-19)
(0.000872391 0.000649142 -4.65028e-19)
(0.000917529 0.000650232 2.18329e-19)
(0.00111343 0.000817277 3.96931e-19)
(0.00127759 0.000749516 -5.09708e-19)
(0.0013896 0.000457671 1.68989e-19)
(0.00121339 0.000191029 1.94276e-20)
(0.000971972 -0.000136946 2.98973e-20)
(0.000676617 -0.000314933 3.43341e-21)
(0.000458506 -0.000357116 0)
(0.000255261 -0.00037064 0)
(8.21053e-05 -0.000366793 0)
(-6.05119e-05 -0.000354793 0)
(-0.000156429 -0.00031393 0)
(-0.000229724 -0.000262086 0)
(-0.000295712 -0.000199871 0)
(-0.000340954 -0.000121005 0)
(-0.000346962 -4.50595e-05 0)
(0.000305366 -2.60375e-05 0)
(0.000308832 -0.000117158 0)
(0.000328369 -0.00021223 0)
(0.000300649 -0.000313538 0)
(0.000295621 -0.000448821 0)
(0.000273586 -0.000581591 0)
(0.000253609 -0.000733728 0)
(0.000221348 -0.000929456 0)
(0.000132558 -0.00110452 9.91585e-21)
(-7.61288e-05 -0.00116215 1.42436e-20)
(-0.000417633 -0.00113175 3.33586e-21)
(-0.000754765 -0.000975247 2.41605e-19)
(-0.00106955 -0.000938472 -4.62665e-19)
(-0.0013825 -0.000992192 -8.25032e-20)
(-0.00177698 0.000177527 1.05362e-19)
(-0.00266622 0.00116706 2.00855e-19)
(-0.00216324 0.00144531 2.41829e-19)
(-0.00227791 0.00191538 -8.90031e-19)
(-0.00170682 0.00247728 1.14885e-18)
(-0.00174615 0.00301963 -8.5333e-19)
(-0.000159038 0.00150917 5.93777e-19)
(0.000311149 0.000816018 -1.21509e-19)
(0.000773605 0.00109488 -1.91215e-20)
(0.000960711 0.000897192 1.79745e-19)
(0.0018729 0.000756306 -5.49567e-19)
(0.00217628 0.000850382 4.74979e-20)
(0.00209287 0.00108242 -3.66453e-20)
(0.00221796 0.000807836 2.43192e-19)
(0.00193405 0.000184718 -1.59276e-20)
(0.00144928 -0.000193485 2.1944e-20)
(0.000867487 -0.00057665 -1.12534e-20)
(0.000432111 -0.000723888 -7.4333e-21)
(0.000140313 -0.000694813 0)
(-6.11012e-05 -0.00060508 0)
(-0.000211548 -0.000511513 0)
(-0.000334508 -0.000407028 0)
(-0.000413852 -0.000300902 0)
(-0.000477742 -0.000198556 0)
(-0.000494686 -0.000135574 0)
(-0.000516523 -2.84548e-05 0)
(0.000410554 -7.70374e-05 0)
(0.000383571 -0.000216385 0)
(0.000378328 -0.000302783 0)
(0.00038182 -0.000420058 0)
(0.000360823 -0.000519576 0)
(0.000349114 -0.00064817 0)
(0.000354057 -0.000805616 0)
(0.000308358 -0.00100254 1.82405e-21)
(7.65934e-05 -0.00109103 -4.80642e-20)
(-0.00030089 -0.00102155 6.61776e-20)
(-0.000645871 -0.000862119 -3.99385e-20)
(-0.000928403 -0.00109358 -2.48207e-19)
(-0.000633728 -0.00117685 3.64028e-19)
(-0.00258639 -0.000722704 4.47012e-20)
(-0.00184294 -0.00134476 8.49135e-21)
(-0.00195394 -0.000419843 -7.70481e-20)
(-0.00164566 0.00227759 -1.02209e-18)
(-0.00216153 0.00245603 4.76507e-19)
(-0.00164489 0.00264125 -8.29225e-19)
(-0.00135575 0.00147733 6.24402e-19)
(0.000577547 0.00458675 1.35023e-18)
(0.000904284 0.00160958 3.8878e-19)
(0.0016813 0.00119008 -5.13579e-19)
(0.00226638 -0.00074703 -3.70367e-19)
(0.00354177 0.000987036 -2.01668e-19)
(0.00384829 0.000986585 -9.92845e-20)
(0.00310016 0.000541988 2.06787e-19)
(0.00313326 0.000541365 -6.54505e-20)
(0.00234961 3.50983e-05 -2.95442e-20)
(0.00185152 -0.000347005 -8.05279e-20)
(0.00107678 -0.000747545 -4.42005e-20)
(0.000391864 -0.000990512 -2.0205e-20)
(-8.91063e-05 -0.000988918 -4.41874e-22)
(-0.000323425 -0.000825173 0)
(-0.000458452 -0.000667303 0)
(-0.000567725 -0.000549307 0)
(-0.000638721 -0.000423427 0)
(-0.000660679 -0.000311982 0)
(-0.000699411 -0.000155048 0)
(-0.000700946 -0.000104868 0)
(0.000493253 -5.54985e-05 0)
(0.000493484 -0.000133052 0)
(0.000472794 -0.000310639 0)
(0.000466912 -0.000429981 0)
(0.000465919 -0.000553215 0)
(0.000435206 -0.000689381 0)
(0.000430263 -0.000868515 0)
(0.000230341 -0.00102071 6.40657e-21)
(-0.000327435 -0.000938576 -8.98364e-20)
(-0.000813082 -0.000803445 2.00166e-19)
(-0.00108699 -0.00094469 -9.20764e-20)
(-0.00137569 -0.000245076 -2.16358e-20)
(-0.00138546 -0.00298353 1.60822e-19)
(-0.00195659 -0.0037164 2.46062e-19)
(-0.00180987 0.000638191 2.10862e-19)
(-0.00143727 -0.000160658 2.18176e-19)
(-0.00255574 -0.000188741 -1.22049e-19)
(-0.00307113 0.00284258 -4.55275e-19)
(-0.00211374 0.00322527 1.2925e-18)
(-0.001983 0.00368053 -1.59129e-18)
(-0.00169611 0.00508669 1.48838e-18)
(0.000257273 0.00235507 -5.92969e-19)
(0.00200545 0.0018887 -3.66945e-19)
(0.00322351 0.00143634 -7.95215e-20)
(0.00219933 0.00235183 1.87144e-19)
(0.00353488 0.000248773 3.76496e-19)
(0.00411834 -0.00194608 -1.38504e-19)
(0.00400737 0.00039014 1.59491e-20)
(0.00277525 -0.000807645 8.76026e-20)
(0.00201251 -0.000658155 -1.28242e-19)
(0.00111697 -0.000998641 -6.166e-20)
(0.000323451 -0.00113774 8.67748e-20)
(-0.000389741 -0.00120071 -1.15453e-20)
(-0.000729614 -0.00101466 0)
(-0.000828562 -0.000781746 0)
(-0.000857056 -0.000599369 0)
(-0.000895401 -0.000427764 0)
(-0.000923463 -0.000280403 0)
(-0.000921096 -0.000188294 0)
(-0.00091941 2.7111e-05 0)
(0.000597018 -4.38307e-05 0)
(0.000579288 -0.000175563 0)
(0.000567105 -0.000257282 0)
(0.000512825 -0.000331449 0)
(0.00049702 -0.000486477 0)
(0.000490187 -0.000627624 0)
(0.000413837 -0.000835641 -8.50246e-21)
(-0.000100821 -0.000911505 3.72612e-21)
(-0.000859246 -0.000810285 -4.00377e-20)
(-0.00149147 -0.000719263 1.64105e-21)
(-0.00203985 -0.00076522 1.13598e-19)
(-0.002444 -0.000961514 -1.33828e-19)
(-0.00304897 -0.00350324 7.90861e-20)
(0.00291221 -0.00479889 -1.69711e-19)
(-0.00261802 -0.000601222 -5.85527e-19)
(-0.00576147 -0.00114087 -2.54421e-19)
(-0.00319357 0.000972195 2.4107e-19)
(-0.00320282 -0.00218917 -1.98819e-19)
(-0.00322712 0.0055276 2.62098e-19)
(-0.0021389 0.00599472 -1.70624e-18)
(-0.00112443 0.00817793 -4.92053e-19)
(0.00224121 0.00511434 -3.68656e-19)
(0.00322307 0.00247309 7.90438e-19)
(0.00258578 0.00165223 -1.71114e-19)
(0.00656616 -0.0022521 -4.83484e-19)
(0.00423148 -0.000578899 -4.42939e-19)
(0.00368935 -0.00150431 -3.65607e-19)
(0.00217979 -0.000533736 8.22448e-20)
(0.00216615 -0.00193309 1.10508e-20)
(0.00132302 -0.00147371 3.62238e-21)
(0.000688939 -0.00131078 -6.31043e-20)
(1.72166e-05 -0.00116123 1.22524e-20)
(-0.000688471 -0.00113269 -1.31422e-20)
(-0.00120296 -0.000988467 8.58634e-22)
(-0.00123706 -0.000718147 0)
(-0.00123588 -0.000493899 0)
(-0.00120385 -0.000353669 0)
(-0.00118104 -0.000198058 0)
(-0.00116346 -0.000135682 0)
(-0.0011525 -0.000114422 0)
(0.000718926 -7.69606e-05 0)
(0.00070808 -0.000312737 0)
(0.000688145 -0.000399599 0)
(0.000682215 -0.000587502 0)
(0.00063513 -0.000680596 0)
(0.000618088 -0.000807578 0)
(0.000394387 -0.000962806 -8.20123e-21)
(-0.000431276 -0.000950009 5.40552e-21)
(-0.00131925 -0.000927472 3.12511e-20)
(-0.00211167 -0.0010123 -2.48722e-20)
(-0.00283512 -0.00105034 -1.33378e-20)
(-0.00369043 -0.0012107 3.2232e-20)
(-0.00388619 -0.00270559 -2.13169e-20)
(-0.0052623 -0.00139742 1.42821e-20)
(-0.00306452 0.000293739 -1.03961e-19)
(-0.00357445 -0.00573348 6.35134e-20)
(-0.00436907 0.000167374 -2.62655e-19)
(-0.00751151 0.00118791 -4.24851e-19)
(-0.00626543 0.00211327 1.69556e-19)
(-0.00444935 0.00870088 -1.37386e-19)
(0.000945022 0.00977033 4.63272e-19)
(0.00530713 0.00759099 2.03534e-19)
(0.00922154 0.0039102 3.848e-19)
(0.00493336 0.000555455 -6.10059e-19)
(0.00483112 -0.00079393 -2.20457e-19)
(0.00416676 0.00198072 4.0941e-19)
(0.00482562 -0.00293645 3.75075e-20)
(-0.00023917 -0.00124436 3.55671e-20)
(-9.82085e-05 -0.0015545 -7.49708e-22)
(0.000181113 -0.0012485 -2.95192e-20)
(-3.84226e-05 -0.00111063 -1.76023e-20)
(-0.000464742 -0.000965934 2.01191e-20)
(-0.00104288 -0.000896488 -1.15162e-20)
(-0.00162754 -0.000798014 3.95531e-21)
(-0.00168745 -0.000608003 0)
(-0.00158104 -0.00045905 0)
(-0.00150084 -0.00034176 0)
(-0.00141764 -0.00029195 0)
(-0.00136989 -7.27421e-05 0)
(-0.00134328 -8.16899e-05 0)
(0.000797117 -0.000144108 0)
(0.000776345 -0.000147036 0)
(0.000759336 -0.000349355 0)
(0.000754793 -0.000476399 0)
(0.000739495 -0.000562899 0)
(0.000720695 -0.000749591 0)
(0.000392339 -0.00097181 -2.18002e-22)
(-0.000488623 -0.00109167 -2.61718e-21)
(-0.00139914 -0.00124345 -2.72876e-21)
(-0.00232135 -0.00147647 -1.39389e-21)
(-0.00294775 -0.00195973 2.13039e-20)
(-0.00378059 -0.00171458 -8.82765e-22)
(-0.00310559 -0.0013575 -7.11047e-21)
(-0.00448991 -0.00218515 -5.64811e-20)
(-0.00653646 -0.00268167 -2.76778e-20)
(-0.00321654 -0.00346113 -3.04221e-20)
(-0.00241093 -0.00500365 3.85976e-21)
(-0.009334 -0.00387698 1.45623e-20)
(-0.0177522 0.000900785 9.84623e-21)
(-0.0153137 0.0154355 1.49021e-19)
(0.00128442 0.026439 -9.01907e-19)
(0.0171978 0.0132986 1.16494e-18)
(0.0127879 7.05816e-06 -4.333e-20)
(0.00914173 -0.00440843 1.64211e-20)
(0.00522397 0.00206644 1.31995e-20)
(-0.00082048 -0.00440543 4.39678e-20)
(-0.00063547 0.000721317 -4.02965e-20)
(-0.00135493 -0.00515638 -6.04751e-21)
(-0.000580624 -0.000321166 3.51523e-20)
(-0.00038204 -0.000484143 -1.8938e-20)
(-0.000509537 -0.000614419 5.69577e-21)
(-0.000866665 -0.000558012 -3.52836e-21)
(-0.00132019 -0.000499192 4.86832e-21)
(-0.00186701 -0.000419743 -3.25566e-21)
(-0.00192597 -0.000258521 0)
(-0.00171673 -0.00015043 0)
(-0.00159565 -3.29794e-05 0)
(-0.00154578 4.76488e-05 0)
(-0.001542 -2.01115e-05 0)
(-0.00151947 0.00021666 0)
(0.000991655 -0.000107169 0)
(0.000968401 -0.00031699 0)
(0.000951153 -0.000425912 0)
(0.000890937 -0.000433245 0)
(0.000897345 -0.000540452 0)
(0.000991584 -0.000684248 0)
(0.000712708 -0.000929141 3.76399e-23)
(-9.91921e-05 -0.0011239 -7.036e-22)
(-0.000859143 -0.00149147 -1.60574e-21)
(-0.00163381 -0.00171141 -4.24076e-21)
(-0.00269773 -0.00208023 2.04852e-21)
(-0.00259627 -0.00141735 5.03125e-21)
(-0.0013258 -0.00260137 -8.7234e-21)
(-0.00354962 -0.0048593 3.12241e-20)
(-0.0019771 -0.00597162 2.66264e-20)
(-0.00710661 -0.00513655 -1.59385e-20)
(-0.00833961 -0.00810322 -1.53959e-20)
(-0.0101863 -0.0132274 -8.2422e-21)
(-0.045721 -0.00817775 1.15129e-18)
(0.0357398 -0.0102379 -1.71167e-18)
(0.0050026 -0.0154957 -1.12612e-20)
(-0.000538925 -0.0130391 -9.5777e-21)
(0.000374168 -0.00843818 -1.39864e-20)
(-0.0017795 -0.00319396 4.90723e-21)
(0.000153209 -0.00400666 8.80131e-21)
(-9.79905e-05 -0.000830757 -1.17492e-20)
(0.000136595 -0.000449032 4.04433e-21)
(-0.000830045 -0.000409847 1.70401e-21)
(-0.000961782 -0.000204538 1.22615e-21)
(-0.00141058 -4.36786e-05 -1.78471e-22)
(-0.00195101 1.30594e-06 3.6966e-22)
(-0.00205072 4.82553e-05 0)
(-0.00185012 5.71629e-05 0)
(-0.001765 -2.89012e-05 0)
(-0.00170351 2.50486e-05 0)
(-0.00161246 -4.68288e-05 0)
(-0.00165721 -0.000242249 0)
(0.00130411 0.000209219 0)
(0.00126678 -0.000451653 0)
(0.00116063 -0.000541707 0)
(0.00121561 -0.000568569 0)
(0.00134347 -0.000552276 0)
(0.00151154 -0.000462862 0)
(0.00151643 -0.000616161 8.37057e-22)
(0.000718758 -0.000907705 -4.15626e-21)
(0.000272455 -0.00157728 4.72536e-21)
(0.000364117 -0.00229305 8.88007e-21)
(-0.00193229 -0.00245771 -3.70853e-20)
(-0.000134188 -0.00072859 5.72867e-20)
(0.00342808 -0.00274431 -8.8475e-21)
(-7.87952e-05 -0.00540846 -6.59088e-20)
(-0.0010054 -0.0048068 7.53003e-20)
(0.00278423 -0.00696857 -6.86001e-21)
(0.00434717 -0.0127903 -5.78779e-21)
(0.00994 -0.0216224 -8.94672e-21)
(0.00657318 -0.0306614 -2.20111e-18)
(-0.0158938 -0.0304781 -1.25112e-18)
(-0.00537967 -0.0167862 4.64089e-21)
(-0.00444107 -0.00730026 2.3728e-20)
(-0.00151396 -0.00483811 5.70474e-20)
(-0.00175012 -0.00555592 6.89703e-21)
(-0.00400059 -0.00201646 5.83706e-20)
(0.000678687 -0.000612151 -6.38535e-20)
(0.00114368 -0.00106429 4.02152e-20)
(-0.00101057 -0.000909058 -2.82947e-21)
(-0.00110164 -6.44374e-05 5.02085e-23)
(-0.00137787 0.000323944 -3.60456e-21)
(-0.00189264 0.000463122 -3.34065e-22)
(-0.0018624 0.000334254 0)
(-0.00165808 8.36203e-05 0)
(-0.00154381 -0.000172553 0)
(-0.0015227 -0.000341045 0)
(-0.00164264 -0.000121605 0)
(-0.00174613 0.000122261 0)
(-4.83262e-05 -0.000986584 -1.63741e-23)
(0.000798046 -0.000641854 0)
(0.00105062 -0.000376109 0)
(0.00101786 -0.000353785 0)
(0.00119101 -0.000262407 0)
(0.00127792 -3.98877e-05 0)
(0.00233144 -9.45433e-05 -2.33088e-21)
(0.00225415 -0.000540011 1.15495e-20)
(0.00107784 -0.000339211 -1.88802e-20)
(0.00182087 -0.00439826 1.43421e-20)
(0.00281375 -0.00319207 -7.51165e-20)
(-0.00295099 0.00199153 1.61227e-19)
(0.00229286 -0.00533168 -1.32512e-19)
(0.00970498 -0.0100748 -1.03098e-19)
(0.00667529 -0.00856523 5.35615e-19)
(-0.0184518 -0.0151375 8.80738e-20)
(0.0160999 -0.0066529 2.39307e-21)
(0.0133682 -0.0041712 1.01057e-19)
(-0.0055958 -0.00741511 -1.4838e-18)
(-0.0168267 -0.00824067 -4.46124e-19)
(-0.0167522 0.016688 -1.61475e-19)
(-0.0105694 -0.0014757 -1.06316e-19)
(-0.0143495 0.00300301 3.04569e-19)
(-0.00683593 -0.00570866 9.77357e-21)
(-0.00253797 -0.0042221 -2.11902e-19)
(0.00511778 0.00168372 1.45272e-19)
(-0.00188062 -0.00254849 1.92957e-19)
(-0.000210808 -0.00275263 -3.07046e-20)
(-0.00012879 0.00102706 -8.82626e-21)
(-0.0015506 0.000681073 -1.51979e-20)
(-0.00175191 0.000956173 6.12093e-21)
(-0.000882622 0.000766142 0)
(-0.00086373 0.000363138 0)
(-0.000827459 0.000174544 0)
(-0.00103525 -1.85501e-05 0)
(-0.00112874 -0.000311275 0)
(-0.000642852 -0.000135834 0)
(0.0011515 -0.00211795 1.89889e-23)
(0.000869058 0.000809184 0)
(0.000593699 0.000694174 0)
(0.000925931 0.000736934 0)
(0.00125571 0.000731372 0)
(0.00126242 0.00136066 0)
(0.00363165 0.00155125 -1.40214e-21)
(0.00213045 -0.00160116 -1.31903e-21)
(0.00330128 -0.00273235 -2.18419e-20)
(0.00747825 0.00326385 -2.60886e-20)
(0.00846096 0.00434624 -4.40108e-21)
(-0.00273015 0.00185277 -9.07103e-20)
(0.0117194 0.000355105 1.32795e-19)
(-0.0102416 0.0155336 -1.56112e-19)
(-0.00259078 -0.0101184 4.56028e-19)
(0.0284952 0.00161815 3.18681e-20)
(0.00456951 -0.0017188 2.00096e-19)
(0.0546203 0.0155003 4.72754e-19)
(-0.0301399 0.0975482 -4.60364e-20)
(-0.271582 0.0566407 -2.87655e-19)
(-0.0144659 0.0115255 -1.09127e-20)
(0.159026 -0.0279613 -4.865e-20)
(0.125454 0.160467 -4.35088e-19)
(0.00102274 0.0209133 -5.47998e-20)
(-0.0220622 0.0143382 -8.1793e-20)
(0.0375817 -0.0265941 -3.12715e-20)
(-0.0129696 0.00623158 2.16041e-19)
(-0.0052088 -0.000752339 9.28523e-20)
(0.0060136 0.00354784 7.00751e-20)
(-0.00666189 0.00531294 -9.56761e-20)
(-0.00429944 0.00464446 -2.00202e-20)
(-0.000664458 -0.00260128 2.67673e-20)
(-0.000283741 -0.000541375 4.95782e-21)
(-0.00206155 0.00224588 8.0429e-22)
(-0.000377261 0.00173034 0)
(-0.000579923 0.00105302 0)
(-0.000470539 0.000934453 0)
(-0.000379807 0.000771939 0)
(-0.00041376 0.000273613 0)
(-4.46087e-05 -0.00301449 0)
(-0.00113955 0.00149189 -1.04825e-20)
(0.000877768 0.000609095 0)
(0.00210063 -0.000167696 0)
(0.00237534 0.000958071 0)
(0.00254807 0.000259794 0)
(0.00623649 0.00115662 0)
(0.00293022 0.00286778 2.47206e-24)
(0.00180677 -0.000718412 5.48273e-21)
(0.00322415 -0.00109483 -1.09209e-20)
(0.00150308 0.00322581 -4.49024e-20)
(-0.00736864 -0.0177507 1.24278e-19)
(0.0151295 0.0120115 -1.25889e-19)
(0.0262209 0.0365021 7.86235e-20)
(-0.0287715 -0.021756 3.71255e-19)
(-0.0105828 0.0273911 -2.88861e-19)
(0.112834 0.0473324 -6.82407e-20)
(-0.0381357 -0.0637094 -4.90279e-19)
(-0.11711 0.173769 1.76161e-18)
(0.360889 -0.281951 1.25406e-18)
(2.43592 -0.739525 7.96769e-18)
(1.57096 -0.824392 7.61272e-19)
(1.27148 1.09696 1.35673e-18)
(-1.24082 -0.48337 3.33456e-19)
(-0.00807959 0.110488 -9.61637e-19)
(-0.00586014 -0.0592852 -3.72167e-19)
(-0.0231935 0.0584166 5.74257e-19)
(0.100104 -0.00275525 -1.32728e-19)
(-0.0239284 0.0399476 8.61655e-20)
(-0.00959847 0.0131489 2.70353e-19)
(0.0142466 -0.0191319 -1.42146e-19)
(0.00136999 0.00367128 1.20949e-19)
(0.000433591 -0.00120606 2.05088e-20)
(0.000653181 -0.000344081 -1.51052e-21)
(-0.00124388 0.00315855 -1.1076e-22)
(-0.00445732 0.000720363 0)
(-0.00134406 8.14627e-05 0)
(-0.0015745 0.000489596 0)
(-0.00132804 -0.000552157 0)
(-0.000232403 0.00026273 0)
(0.00109914 0.000982855 1.14773e-20)
(0.00499182 0.00136786 3.28112e-20)
(-0.000253672 -0.000313452 0)
(-0.000490086 0.000303063 0)
(0.00142623 0.00190683 0)
(0.003723 0.00360501 0)
(0.00106744 0.00275902 0)
(0.00380412 0.00107262 0)
(0.0080493 0.00302555 -6.72926e-21)
(0.0129974 0.0150637 8.22985e-21)
(0.0152872 -0.00137922 -3.23357e-20)
(0.00880101 0.00822865 7.94871e-20)
(-0.00114226 -0.02921 -1.54658e-19)
(-0.0187275 0.0124669 1.50236e-19)
(0.0615342 0.025333 -1.79487e-20)
(0.0476619 -0.00837311 -1.89961e-19)
(-0.0543431 -0.120215 2.19391e-19)
(0.257619 0.0670393 -5.13798e-19)
(-0.863373 -0.180495 -1.21219e-18)
(0.389493 0.0221725 -1.02958e-18)
(-1.77956 -0.289429 2.45557e-18)
(1.28324 -1.89447 1.15817e-18)
(-0.785884 -0.5127 1.70836e-18)
(1.10115 0.871264 1.8115e-18)
(-0.477413 -0.526605 -1.93093e-19)
(-0.00688688 0.151936 -3.82436e-19)
(0.00926268 -0.0683797 6.54137e-19)
(-0.0539738 0.0267132 -8.18261e-20)
(0.0249904 0.00792678 2.60673e-19)
(0.00366935 -0.0280427 3.90389e-20)
(-0.0069962 0.00933897 -1.21494e-19)
(-0.0130815 5.30711e-05 6.52779e-20)
(-0.010647 0.0163017 -1.90932e-20)
(-0.00574656 0.00299702 5.90129e-21)
(-0.00115814 0.000846625 0)
(0.000631176 0.00233167 0)
(-0.00218583 0.0029745 0)
(0.00027322 0.00112348 0)
(0.002151 -0.000259579 0)
(0.00164909 -0.000384119 0)
(-0.00337588 0.00182773 3.33582e-20)
(0.00127395 -0.000531171 -5.39878e-22)
(0.0024296 4.55679e-05 0)
(0.00270572 0.000639558 0)
(0.00202984 -0.000335704 0)
(0.00139034 0.000741769 0)
(0.00334137 0.0016276 0)
(-0.000359241 -0.00390502 0)
(-0.00924653 -0.00261485 0)
(-0.00865864 -0.000114971 -8.9674e-22)
(-0.000584506 0.0149113 -7.89879e-21)
(0.0208808 0.0206107 -1.33169e-20)
(0.00728804 0.0149252 8.84204e-21)
(-0.00812067 -0.0288693 7.67729e-20)
(-0.0158012 0.00742152 -8.30409e-21)
(0.0195957 0.0415838 -5.28003e-20)
(0.0866305 0.0750107 3.29457e-19)
(-0.283424 -0.108708 1.9146e-19)
(2.29273 -0.0681738 2.1092e-19)
(-3.79094 -0.258748 -2.05668e-18)
(3.0692 -2.07108 3.31898e-19)
(-0.674264 0.0704599 -2.12758e-18)
(-2.41379 -2.22493 2.89675e-18)
(3.86346 -0.401033 -7.34235e-19)
(-0.381476 0.024315 3.97182e-18)
(-0.011472 -0.127158 -2.25078e-19)
(-0.0431662 0.0863033 -4.55662e-20)
(0.0206791 0.00108057 3.60155e-20)
(0.0145643 -0.0304764 -1.1671e-19)
(-0.00463556 0.0139098 -3.9983e-20)
(-0.0164282 0.0209186 -1.47227e-20)
(0.00609924 0.0122829 2.4817e-20)
(0.0129228 -0.00288544 -1.25769e-22)
(0.0126389 -0.00550407 0)
(0.0012558 -0.00452166 0)
(-0.00215004 0.00135121 0)
(-9.8229e-05 0.000645214 0)
(-0.000684865 -0.000214651 -1.15869e-20)
(-0.00130292 0.000903357 -1.6024e-20)
(-0.00110581 0.000202516 -9.55525e-21)
(0.000530954 -0.000550879 0)
(-0.000667727 0.000182871 0)
(-5.76669e-05 -0.000143596 0)
(-0.00116692 0.00268924 0)
(-0.000951036 0.00331052 0)
(-0.00090282 0.00216701 0)
(-0.000640422 0.00318495 0)
(0.00387743 0.0102706 0)
(0.0109696 0.00493113 0)
(0.0037487 -0.00621543 -8.22675e-24)
(-0.00494704 -0.00196925 -1.82764e-21)
(-0.00643947 0.00964736 5.63089e-21)
(0.0240363 0.0288563 5.74421e-21)
(-0.00116722 0.000390176 -1.22471e-19)
(-0.0336362 -0.021381 3.32464e-20)
(0.0257636 0.0287925 -1.39013e-18)
(-0.118199 -0.0871356 1.21803e-20)
(-0.034025 0.164514 -7.32954e-19)
(0.102685 -0.443297 -1.46624e-19)
(2.13371 4.21936 8.98164e-19)
(-3.59126 -3.45687 -4.44368e-18)
(0.799142 -8.18037 2.1905e-18)
(2.83099 -1.26256 1.53027e-19)
(-2.6517 3.77153 -9.17629e-19)
(0.231197 -0.408786 -1.03022e-18)
(0.333496 -0.0217683 6.01062e-19)
(0.0180524 -0.0612869 7.02704e-20)
(0.0386724 -0.0286114 1.31967e-19)
(0.00545167 -0.00412231 -8.93903e-20)
(-0.0203757 0.026804 2.80564e-20)
(0.00914234 0.00560113 -3.04562e-21)
(0.00701434 -0.00482106 1.75228e-22)
(-0.00210446 -0.00631442 2.62127e-23)
(-0.00908865 0.00713007 0)
(-0.0022919 0.0110104 0)
(0.0025524 0.00307322 0)
(0.00267691 0.00221231 0)
(0.00264277 0.00333932 0)
(0.00268028 0.0025155 0)
(0.00158369 -0.000367859 0)
(0.00257259 0.00013295 1.72091e-21)
(0.0014613 0.000190073 0)
(0.00360351 0.000344122 0)
(0.00192574 -0.00157268 0)
(-0.00153897 -0.00254405 0)
(-0.00334646 -0.00313125 0)
(-0.00451001 -0.00264376 0)
(-0.00375779 0.000179676 0)
(-0.000483058 0.00854168 0)
(-0.00344054 0.00961698 0)
(-0.00790962 0.00877061 0)
(-0.00657099 0.00725619 -6.24957e-22)
(-0.0019057 0.00561699 6.26076e-21)
(0.0154525 0.035646 -4.48344e-21)
(0.0336832 0.0347234 -1.01832e-20)
(-0.0521467 -0.0520268 -3.89425e-18)
(0.124883 0.148884 4.92063e-20)
(0.32361 0.219996 -1.02001e-18)
(-0.6718 -1.39494 5.94095e-19)
(-0.303779 -2.75045 5.8359e-19)
(0.368692 2.32441 3.61292e-18)
(0.0184529 5.92704 1.12292e-18)
(-0.077798 0.858714 -3.53225e-18)
(0.278707 -3.06936 2.38646e-19)
(0.794522 -0.93237 2.77932e-19)
(-0.585459 0.571429 -1.86499e-19)
(0.0294726 0.0595469 -1.27993e-19)
(-0.0271499 0.0303563 2.2732e-20)
(-0.0130477 0.0288087 5.99239e-21)
(0.00682543 -0.00163431 -2.97557e-20)
(0.00913984 0.00574287 -1.08556e-21)
(0.00935015 0.00649558 0)
(0.00380077 0.00813071 0)
(0.00135845 0.00708298 0)
(0.00590848 -0.00127068 0)
(0.00615157 -0.00345761 0)
(0.00463223 -0.00344576 0)
(0.00246761 -0.00254772 0)
(-0.00116989 -0.00143826 0)
(-0.00255514 0.000377322 0)
(-0.000652899 -3.95886e-05 0)
(-0.00371932 -0.000540325 0)
(-0.00348687 0.00137823 0)
(0.000654549 0.00317273 0)
(0.0026706 0.0021954 0)
(0.00112841 0.000129677 0)
(-0.00169043 -0.00200083 0)
(-0.00533049 -0.0034669 0)
(-0.0051183 -0.000825793 0)
(-0.00206735 0.00304629 0)
(-0.0059078 0.00375774 0)
(-0.0150777 -0.000374202 0)
(-0.0221046 0.00799212 1.3014e-22)
(-0.0247363 0.0375783 4.51215e-22)
(-0.0245567 0.0338359 2.80347e-20)
(0.0170826 -0.00285911 -1.44798e-18)
(0.100005 -0.26347 6.07393e-19)
(0.668155 0.554467 -1.4072e-18)
(0.203027 1.04141 9.20339e-20)
(-0.804441 -1.32489 -8.0777e-19)
(0.011286 -0.573227 1.14785e-18)
(-0.22766 0.395149 2.56687e-19)
(-0.0494619 -0.706753 -8.42013e-19)
(0.855863 -0.958298 2.57007e-19)
(-0.904491 1.54594 1.12879e-19)
(0.967008 -0.0504605 -9.21408e-20)
(0.0403932 0.175271 4.62695e-19)
(0.0315392 0.0160296 1.56812e-19)
(0.0247904 0.024417 -5.98764e-21)
(0.0209506 0.00259956 2.73399e-22)
(0.0134464 -0.00543056 0)
(0.00454535 0.00127267 0)
(0.00145087 0.00102048 0)
(0.00531787 -0.0025155 0)
(0.00598536 -0.00441765 0)
(0.00209589 -0.00189269 0)
(-0.000586465 0.000509186 0)
(-0.00169422 0.00285645 0)
(0.000805735 0.00367137 0)
(0.00491438 0.00156756 0)
(0.00466687 -0.000277964 0)
(0.00435085 -0.000915731 0)
(0.00182894 -0.00339629 0)
(-0.00162201 -0.0029868 0)
(-0.00132822 -0.00118963 0)
(-0.000299612 0.00084627 0)
(0.000487676 0.00167053 0)
(-0.00126063 7.85164e-05 0)
(-0.00805964 -0.00307496 0)
(-0.0105286 -0.000717827 0)
(-0.0095087 0.00323887 0)
(-0.0100185 0.00924384 -2.1275e-20)
(-0.0107046 0.0173515 0)
(-0.01651 -0.00188426 0)
(-0.0277568 0.0939416 -3.12856e-19)
(-0.160117 0.0444255 -1.0696e-19)
(0.697582 0.311241 -2.22774e-18)
(-1.09124 -1.60421 2.69101e-20)
(-2.03981 -1.41059 6.53568e-20)
(-0.474688 1.88115 2.74571e-19)
(0.342853 3.45941 -3.67612e-18)
(0.135047 3.84824 -3.76571e-19)
(-0.265157 2.99842 5.08273e-19)
(1.96752 0.0502159 -5.09456e-20)
(1.80486 -2.66895 3.01598e-20)
(-1.39376 0.0113374 8.41025e-21)
(0.2226 0.0302086 1.77244e-19)
(0.023957 0.087795 -6.97618e-19)
(0.00666813 -0.0116723 0)
(0.00693628 0.0146713 0)
(0.00582643 0.0073083 1.74629e-20)
(0.00786032 0.0021682 0)
(0.00964206 -0.00164612 0)
(0.0073103 -0.00323652 0)
(0.000481073 0.000745069 0)
(-0.000462633 0.0023184 0)
(0.00100448 0.00133918 0)
(0.00221745 -0.0010062 0)
(0.00254108 -0.00286517 1.907e-21)
(-0.000852798 -0.00299228 1.36811e-21)
(-0.00314636 -0.000590451 0)
(0.000108194 0.00239419 0)
(-0.000781997 0.00453253 0)