/*--------------------------------*- C++ -*----------------------------------*\
| =========                 |                                                 |
| \\      /  F ield         | OpenFOAM: The Open Source CFD Toolbox           |
|  \\    /   O peration     | Version:  v2106                                 |
|   \\  /    A nd           | Website:  www.openfoam.com                      |
|    \\/     M anipulation  |                                                 |
\*---------------------------------------------------------------------------*/
FoamFile
{
    version     2.0;
    format      ascii;
    arch        "LSB;label=32;scalar=64";
    class       volScalarField;
    location    "0";
    object      p;
}
// * * * * * * * * * * * * * * * * * * * * * * * * * * * * * * * * * * * * * //

dimensions      [0 2 -2 0 0 0 0];

internalField   nonuniform List<scalar> 
11644
(
0.0484378
0.0488439
0.0496977
0.0510107
0.0527823
0.0550143
0.0577097
0.060866
0.0644687
0.068486
0.0728664
0.0775273
0.0823516
0.0871864
0.0918399
0.0961344
0.0998366
0.102719
0.104586
0.105314
0.104915
0.103439
0.100898
0.0973404
0.0929781
0.0881006
0.0829504
0.0777083
0.0725574
0.0676488
0.0630838
0.0589351
0.0552476
0.0520405
0.0493184
0.0470762
0.0453046
0.0439953
0.043145
0.0427388
0.0477163
0.0481179
0.0489487
0.0502277
0.0519644
0.0541676
0.0568466
0.0600057
0.0636396
0.0677276
0.0722307
0.0770747
0.0821467
0.087305
0.0923528
0.097041
0.101133
0.104352
0.10649
0.107384
0.106962
0.105249
0.102399
0.0985586
0.0938677
0.0885887
0.0830439
0.0774741
0.0720576
0.0669567
0.0622742
0.0580633
0.0543526
0.0511511
0.0484525
0.046245
0.0445126
0.0432406
0.0424138
0.0420129
0.0461692
0.046578
0.0473933
0.048629
0.0503096
0.0524596
0.0550995
0.0582488
0.0619233
0.0661316
0.0708575
0.0760671
0.0816814
0.0875335
0.0934058
0.099017
0.104021
0.108092
0.110906
0.11217
0.111682
0.109468
0.105785
0.101009
0.0954296
0.0893115
0.0829749
0.076752
0.0708593
0.0654289
0.0605396
0.0562309
0.0524987
0.0493256
0.0466849
0.0445478
0.0428843
0.0416656
0.040864
0.0404651
0.0438239
0.0442211
0.0450074
0.0461872
0.0477897
0.0498533
0.0524181
0.0555271
0.0592275
0.0635655
0.0685902
0.0743233
0.0806961
0.0876081
0.0948431
0.101986
0.108587
0.114249
0.118286
0.12016
0.119596
0.116603
0.111553
0.105021
0.0977323
0.0900878
0.0824888
0.0752755
0.0686798
0.0628211
0.0577085
0.0533156
0.049604
0.0465144
0.0439881
0.0419698
0.040412
0.0392728
0.0385194
0.038139
0.0407469
0.0411083
0.0418268
0.0429112
0.044392
0.046315
0.048739
0.0517356
0.0553926
0.0598117
0.0650998
0.0713409
0.0786308
0.0869362
0.0960991
0.105618
0.114715
0.123183
0.129354
0.132321
0.131652
0.127303
0.119946
0.110585
0.100649
0.0905645
0.0810572
0.0725196
0.0650821
0.0587697
0.0535049
0.0491446
0.0455676
0.0426684
0.0403481
0.0385248
0.0371336
0.0361222
0.0354576
0.0351253
0.0370175
0.0373191
0.0379259
0.0388574
0.0401451
0.041839
0.0440108
0.046758
0.0502095
0.0545124
0.0598397
0.0664508
0.0745949
0.0845154
0.0963473
0.109509
0.122599
0.135492
0.145444
0.15068
0.149872
0.142951
0.131496
0.117287
0.103223
0.0896704
0.0776342
0.0675678
0.0593962
0.0528273
0.0476141
0.0435115
0.040284
0.0377474
0.0357729
0.0342574
0.0331221
0.0323117
0.031784
0.0315239
0.0327421
0.03296
0.0334115
0.0341134
0.0351082
0.0364467
0.0382056
0.0404934
0.04346
0.0473029
0.0523301
0.0588865
0.0674142
0.0787083
0.0935187
0.111387
0.125329
0.143155
0.159145
0.169734
0.171448
0.163337
0.147848
0.128754
0.103691
0.0852223
0.0702657
0.0589248
0.0506404
0.0444145
0.0397517
0.0362748
0.0336999
0.0317755
0.0303372
0.0292716
0.0284941
0.0279506
0.0276054
0.027433
0.0280227
0.0281542
0.0284072
0.0288163
0.0294078
0.030236
0.0313718
0.0329266
0.0350464
0.037972
0.0420615
0.047804
0.0556867
0.0669353
0.0823618
0.101898
0.128763
0.158492
0.187573
0.208152
0.211952
0.19683
0.168671
0.136758
0.106146
0.0816119
0.0642431
0.045147
0.0379017
0.0329895
0.0296901
0.0274256
0.0258981
0.0248789
0.024184
0.0237142
0.0234018
0.0231969
0.0230773
0.0230248
0.0230723
0.0230633
0.0230774
0.0231191
0.0232067
0.0233783
0.0236832
0.0242086
0.0250655
0.0264903
0.0287584
0.0322478
0.0375724
0.0509184
0.0649626
0.0875062
0.117624
0.162797
0.213585
0.258092
0.272672
0.246851
0.196201
0.142425
0.0985951
0.0626856
0.0444989
0.0247863
0.0207118
0.0184922
0.017478
0.0171261
0.0171104
0.017297
0.0175509
0.0178133
0.0180545
0.0182544
0.0183893
0.0184538
0.018024
0.0179013
0.0176542
0.0172765
0.0167877
0.0161809
0.0154781
0.0146953
0.0138552
0.0130714
0.0124903
0.012294
0.0123682
0.0224648
0.0301945
0.051146
0.0835809
0.139673
0.229709
0.337533
0.38665
0.325749
0.213228
0.121866
0.0589002
0.0204019
0.00989067
-0.0021513
-0.00047198
0.00151083
0.00374421
0.0058947
0.00779095
0.00942813
0.0107807
0.0118652
0.0127044
0.0133213
0.0137279
0.0139399
0.0131315
0.0128815
0.0123571
0.0115705
0.0104779
0.00904005
0.00721417
0.00491806
0.00205585
-0.00151604
-0.00598727
-0.0113709
-0.0181017
-0.0175252
-0.0220738
-0.0201821
-0.0103696
0.0155295
0.117451
0.369179
0.580599
0.366204
0.112997
-0.000528462
-0.0386649
-0.0472773
-0.0380315
-0.033802
-0.0242532
-0.016507
-0.0102802
-0.00530441
-0.00133042
0.00181954
0.00429651
0.00621631
0.00766775
0.00869843
0.00936678
0.0096801
0.00873668
0.00832947
0.0075494
0.00634107
0.00465452
0.00241227
-0.000534987
-0.00437213
-0.00932792
-0.0157853
-0.024348
-0.0356644
-0.0506724
-0.0573004
-0.0836016
-0.108025
-0.156495
-0.263632
-0.551312
-0.511938
-0.279243
-0.181124
-0.127861
-0.0894972
-0.0653064
-0.0465729
-0.0329404
-0.022845
-0.0152083
-0.00935728
-0.00485943
-0.00138569
0.0012607
0.00323065
0.0046175
0.00549928
0.00593212
0.00492343
0.00447006
0.0035056
0.00195744
-0.000235809
-0.00318666
-0.00709525
-0.0122413
-0.0189818
-0.0278689
-0.0397043
-0.055717
-0.0772105
-0.0935293
-0.133158
-0.17747
-0.257123
-0.412487
-0.582021
-0.67225
-0.47082
-0.288214
-0.186628
-0.12859
-0.0856885
-0.0616539
-0.0444829
-0.031853
-0.0224387
-0.0153378
-0.00992822
-0.00577285
-0.00262688
-0.000316438
0.00131287
0.00234582
0.00287756
0.00196313
0.00147588
0.000353657
-0.00141009
-0.00393587
-0.00734951
-0.0118674
-0.017816
-0.0256091
-0.0359297
-0.0495715
-0.0678427
-0.0919893
-0.114383
-0.157349
-0.205516
-0.275709
-0.366
-0.393276
-0.57912
-0.47476
-0.304616
-0.193604
-0.136561
-0.0885222
-0.0655866
-0.0484527
-0.035605
-0.0258987
-0.01851
-0.0128484
-0.00848517
-0.00516015
-0.00271595
-0.000991439
0.000107337
0.000517975
9.34953e-05
-0.000488689
-0.0016738
-0.00352942
-0.00616287
-0.00969796
-0.0143486
-0.0204204
-0.0283671
-0.0388403
-0.0525796
-0.0706979
-0.0943354
-0.118875
-0.161232
-0.211291
-0.279429
-0.360489
-0.368819
-0.43647
-0.475178
-0.546043
-0.579265
-0.396454
-0.236605
-0.149831
-0.112168
-0.074972
-0.0580867
-0.0444774
-0.0337259
-0.0252679
-0.0186162
-0.0133937
-0.00932683
-0.00621351
-0.00391729
-0.00230041
-0.00126469
-0.00073094
-0.000723569
-0.00129044
-0.00242406
-0.00419478
-0.00669054
-0.0100083
-0.0143075
-0.0198627
-0.0270762
-0.0364465
-0.0485604
-0.0643898
-0.0852738
-0.109857
-0.149313
-0.206292
-0.285512
-0.426337
-0.577342
-0.690195
-0.66639
-0.481867
-0.256221
-0.119449
-0.095786
-0.0738605
-0.067261
-0.0491276
-0.041445
-0.0340926
-0.027224
-0.0211749
-0.0160486
-0.0117998
-0.0083728
-0.00573446
-0.00376961
-0.0023728
-0.00143761
-0.000854581
-0.000446391
-0.000953294
-0.0019344
-0.00343797
-0.00553215
-0.00830544
-0.0118679
-0.0164083
-0.0221667
-0.0294292
-0.0386888
-0.0508449
-0.0668016
-0.0887214
-0.121205
-0.169415
-0.243407
-0.375189
-0.59198
-0.759576
-0.726671
-0.414341
-0.0416094
0.0891491
0.0338493
-0.0029885
-0.017598
-0.0208439
-0.022064
-0.0207145
-0.017971
-0.0147843
-0.0115854
-0.00857556
-0.00601669
-0.00397449
-0.00236377
-0.00116438
-0.000392682
-0.000164419
0.000787386
0.000406582
-0.000336794
-0.00147814
-0.00304769
-0.00507271
-0.00758298
-0.01065
-0.0143959
-0.018978
-0.0246638
-0.0321053
-0.0419862
-0.0546516
-0.0818426
-0.109928
-0.160919
-0.230103
-0.342007
-0.462922
-0.462332
-0.268133
-0.0176418
0.109173
0.0601675
0.0243593
0.00448945
-0.00399929
-0.00826967
-0.0094133
-0.00916328
-0.00799455
-0.00630564
-0.00449283
-0.00285495
-0.00145982
-0.000309985
0.000518884
0.00101947
0.00122404
0.00271527
0.00248878
0.00202404
0.00130275
0.000352009
-0.000810062
-0.00213536
-0.00354743
-0.00508234
-0.0068388
-0.00887029
-0.0112799
-0.0147646
-0.0191899
-0.0364474
-0.0489345
-0.0797138
-0.11722
-0.169488
-0.22479
-0.242409
-0.187409
-0.0795734
-0.00600916
-0.00132638
0.00411021
0.00214922
-0.00177443
-0.00262566
-0.00291814
-0.00282557
-0.00221255
-0.00134281
-0.000386049
0.000498991
0.00129444
0.00195755
0.0024404
0.00277996
0.00299637
0.00509368
0.00499607
0.00478097
0.00448012
0.00414459
0.00383008
0.00359893
0.00358759
0.00389196
0.00461184
0.00582976
0.00768891
0.0100514
0.0117907
0.00356094
-0.00214702
-0.0212257
-0.0528588
-0.116305
-0.202381
-0.273607
-0.284052
-0.233116
-0.156564
-0.078402
-0.032173
-0.011528
-0.00596228
-0.00171033
0.000336965
0.00147952
0.00228638
0.00285758
0.00330694
0.00373501
0.00413672
0.00448397
0.00477088
0.00499984
0.0051402
0.00764083
0.00761532
0.00761247
0.0076843
0.00787039
0.0082529
0.008902
0.00992568
0.0115496
0.0140677
0.0176716
0.0225113
0.0289606
0.0347615
0.0313152
0.0306113
0.0145469
-0.0287467
-0.123104
-0.261962
-0.37531
-0.403044
-0.345116
-0.234977
-0.111878
-0.0509783
-0.01946
-0.00737842
-0.000377511
0.00333862
0.00513231
0.006088
0.0065342
0.00677697
0.00696631
0.0071249
0.00726223
0.00738058
0.00747386
0.00752306
0.0101126
0.0101803
0.0103654
0.0107144
0.0112677
0.0121317
0.0134084
0.015192
0.0177077
0.0212554
0.026088
0.0324097
0.0413273
0.0495813
0.0536765
0.0468315
0.0198301
-0.0405192
-0.142681
-0.265363
-0.341722
-0.336039
-0.265229
-0.166567
-0.086452
-0.0326327
-0.0135707
-0.00174068
0.00441629
0.00774277
0.00930576
0.0100288
0.0102905
0.0103437
0.0102817
0.0101835
0.0100972
0.0100297
0.00999283
0.00999277
0.0123634
0.0125333
0.0128571
0.0133804
0.0141536
0.0152528
0.0168228
0.0189602
0.0218159
0.0255576
0.0304128
0.0362164
0.0443946
0.0534016
0.0497303
0.0325197
-0.0050908
-0.058261
-0.11103
-0.14521
-0.150691
-0.130089
-0.0971815
-0.0590599
-0.0322541
-0.0129316
0.000317152
0.00787835
0.011828
0.0136795
0.0143577
0.0144316
0.0142185
0.0138868
0.0135005
0.0131397
0.0128351
0.0125939
0.0124265
0.0123661
0.0143109
0.0145155
0.014905
0.0155028
0.0163388
0.017451
0.0189428
0.0208752
0.0233518
0.0263805
0.0300574
0.0335278
0.0366772
0.0381962
0.0275702
0.0025207
-0.0364126
-0.0808628
-0.112266
-0.121561
-0.111704
-0.0854455
-0.0531958
-0.024758
-0.00700128
0.00541034
0.0134769
0.0177566
0.0196031
0.0199575
0.0195714
0.0188008
0.0179078
0.0170743
0.0163465
0.0157584
0.0152963
0.0149464
0.0146965
0.0145423
0.015987
0.0161831
0.0165487
0.0170995
0.017838
0.0187824
0.0199465
0.0212782
0.0228677
0.0243735
0.0256766
0.0256039
0.0221306
0.0129748
-0.00796238
-0.0408434
-0.0793288
-0.120945
-0.147441
-0.150378
-0.133698
-0.0942403
-0.0528178
-0.0202718
0.00131586
0.015123
0.0222194
0.025363
0.0260824
0.0253576
0.0240712
0.022547
0.0210573
0.0197715
0.0187357
0.0179334
0.0173319
0.0169002
0.016618
0.0164273
0.0174006
0.0175663
0.0178618
0.018297
0.0188625
0.0195429
0.0203063
0.0210332
0.0215848
0.0215541
0.0202952
0.0173645
0.00873412
-0.00709624
-0.0367249
-0.0765451
-0.12854
-0.179216
-0.214458
-0.216008
-0.181747
-0.129285
-0.0752788
-0.0325489
-0.00187298
0.0176574
0.0273881
0.0307961
0.0307789
0.0293165
0.0273358
0.0253022
0.0234656
0.0219131
0.0206667
0.0196861
0.0189348
0.018408
0.01808
0.0179717
0.0185581
0.0186575
0.0188825
0.0192096
0.0196251
0.0200733
0.0204984
0.0208172
0.0206794
0.0198681
0.0173231
0.0124946
0.00235777
-0.0152466
-0.0475477
-0.0909352
-0.148154
-0.199375
-0.240836
-0.243451
-0.20062
-0.145073
-0.0872523
-0.0418373
-0.00740471
0.0160591
0.0288328
0.0335385
0.0335315
0.0314707
0.0291674
0.0269307
0.025022
0.0234145
0.0220983
0.0210466
0.0202474
0.0196876
0.0193451
0.0192857
0.0195186
0.0195854
0.0197697
0.020035
0.0203586
0.0206856
0.0209437
0.0210278
0.0207121
0.0197086
0.0172283
0.0126381
0.00373523
-0.0114241
-0.0380014
-0.0739357
-0.116365
-0.15788
-0.1932
-0.200086
-0.170697
-0.130221
-0.0834753
-0.0425853
-0.0106243
0.0117905
0.0252289
0.0322269
0.0336143
0.0317185
0.0296139
0.0275656
0.0257767
0.024266
0.0230153
0.0220282
0.0212922
0.0207903
0.0204824
0.020331
0.0203177
0.0204209
0.0206081
0.0208604
0.0211512
0.0214361
0.0216626
0.021733
0.0215342
0.0208125
0.0192922
0.01616
0.0103695
0.000695871
-0.0167802
-0.042155
-0.0697453
-0.0997016
-0.122456
-0.132475
-0.128776
-0.109074
-0.0794906
-0.046576
-0.018487
0.00386162
0.019004
0.0274631
0.030413
0.0300648
0.0287001
0.0271541
0.0257016
0.0244174
0.0233378
0.0224825
0.0218332
0.0213704
0.021061
0.0208766
0.0209317
0.0210895
0.0212676
0.021505
0.0217844
0.0220987
0.022415
0.022643
0.0227676
0.0226316
0.0220539
0.0203867
0.017422
0.0119131
0.00202226
-0.0155104
-0.03748
-0.06284
-0.0828363
-0.0981049
-0.104623
-0.0996914
-0.0809911
-0.0548682
-0.0297788
-0.00747697
0.00875259
0.0190043
0.024295
0.0261138
0.0261511
0.0255266
0.0246539
0.0237881
0.0229891
0.0223137
0.021767
0.021356
0.0210839
0.0209562
0.0213017
0.0213963
0.0215747
0.0218266
0.0221499
0.0225434
0.0230076
0.023515
0.0240415
0.0244152
0.0244084
0.0237705
0.0218821
0.0175822
0.0100655
-0.00354165
-0.0243917
-0.0502562
-0.0764346
-0.0977168
-0.106678
-0.105486
-0.0920429
-0.0710952
-0.0479345
-0.0254526
-0.00661834
0.00771627
0.0165024
0.0206878
0.0224568
0.0229796
0.0229132
0.0226209
0.0222208
0.0218078
0.0214374
0.0211467
0.0209516
0.0208644
0.0214745
0.0214764
0.0216393
0.0219161
0.0223062
0.0227997
0.0234084
0.0241581
0.02501
0.0258362
0.0264
0.0264003
0.0247492
0.0201296
0.0109831
-0.00407793
-0.0270193
-0.0561028
-0.0893784
-0.118514
-0.133783
-0.133753
-0.120961
-0.0998846
-0.0726878
-0.0443169
-0.0202849
-0.00218725
0.00925317
0.0155931
0.0188515
0.0204144
0.0211256
0.0213852
0.0213752
0.0212466
0.0210731
0.0209124
0.0207768
0.0206709
0.0215846
0.0215828
0.0217221
0.0219835
0.0223834
0.0229111
0.0235775
0.0243988
0.0253597
0.0264777
0.0274207
0.0276392
0.0255272
0.0197313
0.00845591
-0.00900556
-0.0336555
-0.0648085
-0.102466
-0.137731
-0.161268
-0.161258
-0.142793
-0.11881
-0.0862935
-0.0539693
-0.027592
-0.0079338
0.00473371
0.0120959
0.0161849
0.0184459
0.0196658
0.0202769
0.0205363
0.020615
0.0205937
0.0205262
0.0204443
0.0203435
0.0215133
0.0215993
0.0217431
0.0219752
0.0223307
0.0228101
0.0234176
0.0241533
0.025011
0.0259545
0.026798
0.0264787
0.0234432
0.0168823
0.00510388
-0.0126322
-0.0364597
-0.0657315
-0.100001
-0.131234
-0.154414
-0.151626
-0.132429
-0.107737
-0.076477
-0.04814
-0.0248512
-0.00732563
0.00412188
0.0110439
0.0151393
0.0174569
0.0187758
0.0194643
0.0198235
0.0199858
0.0200384
0.0200231
0.0199955
0.019948
0.0210715
0.0211902
0.0213562
0.0215845
0.0218917
0.0222894
0.0227855
0.0233576
0.0239779
0.0245523
0.0245092
0.0230917
0.0188851
0.0109804
-0.000940752
-0.0176905
-0.0388035
-0.063748
-0.0882
-0.106788
-0.117183
-0.112068
-0.0964541
-0.0754834
-0.0526725
-0.0319572
-0.0149036
-0.00165877
0.00708728
0.0124295
0.0156589
0.0174795
0.0185294
0.0191254
0.0194455
0.0195968
0.0196455
0.0196382
0.0196197
0.0196212
0.0203559
0.020423
0.0205459
0.0207274
0.0209667
0.021255
0.0215735
0.0218761
0.0220415
0.0218746
0.0208746
0.0181212
0.0127565
0.0033684
-0.00950204
-0.025214
-0.0437789
-0.0631893
-0.0784486
-0.085861
-0.0841273
-0.0767942
-0.065037
-0.0477368
-0.0307514
-0.0153236
-0.0024739
0.00662566
0.012026
0.015174
0.0170272
0.0181114
0.018756
0.0191313
0.0193317
0.0194199
0.0194471
0.0194405
0.0194257
0.0194014
0.0195669
0.0195627
0.0196146
0.0197082
0.0198249
0.0199238
0.0199646
0.0198606
0.0194074
0.018285
0.0159622
0.0112318
0.0038368
-0.00656962
-0.019701
-0.0350154
-0.0507376
-0.06615
-0.0771793
-0.0795063
-0.0746425
-0.0643163
-0.0490105
-0.0319395
-0.0156565
-0.00242022
0.00713867
0.012956
0.0160911
0.0176979
0.0186062
0.0189859
0.0191896
0.0192384
0.0192576
0.0192447
0.0192223
0.0191938
0.0191623
0.0191249
0.0187841
0.0187737
0.0187858
0.0187922
0.018763
0.018641
0.0183497
0.0177678
0.0167132
0.0146755
0.0109383
0.00439164
-0.0056217
-0.018873
-0.0346261
-0.0512224
-0.0664377
-0.0798662
-0.0886446
-0.0891905
-0.0837952
-0.06708
-0.0466418
-0.0267929
-0.00993658
0.00322106
0.01188
0.0166698
0.0188892
0.0197373
0.01992
0.0197699
0.0195321
0.0192746
0.0190737
0.0189222
0.0188066
0.0187322
0.018696
0.0187146
0.0179947
0.0180367
0.0180307
0.0179689
0.017817
0.017519
0.0169712
0.0160427
0.0145096
0.0118523
0.00731437
-0.000399639
-0.0120639
-0.0280623
-0.0477452
-0.0681456
-0.0864686
-0.100662
-0.110994
-0.111288
-0.0960076
-0.0744598
-0.0495203
-0.0278785
-0.0097462
0.00344845
0.0128253
0.0178795
0.0202638
0.0209381
0.0206066
0.0201298
0.0195898
0.0191285
0.0187836
0.0185294
0.0183493
0.0182465
0.0182125
0.0182695
0.0171986
0.0172502
0.0172143
0.0171047
0.016901
0.01653
0.0159039
0.0149116
0.0132129
0.0104043
0.00579727
-0.00176289
-0.0131764
-0.0289036
-0.0486625
-0.0697058
-0.0906897
-0.105913
-0.118128
-0.118981
-0.100176
-0.0764142
-0.0511275
-0.0296441
-0.0118588
0.00158654
0.0109907
0.0166335
0.0195421
0.0205109
0.0202369
0.019754
0.0191956
0.0187498
0.0183991
0.0181359
0.0179545
0.0178475
0.0178016
0.0178054
0.0164403
0.0164458
0.0164008
0.0163035
0.0161167
0.0157907
0.0152621
0.0143845
0.0129238
0.0105386
0.00659438
0.000418292
-0.0088125
-0.0211305
-0.0364616
-0.0542207
-0.0727628
-0.087425
-0.0986917
-0.10062
-0.0889481
-0.0718429
-0.0514215
-0.032308
-0.0157439
-0.00263204
0.00691301
0.0131457
0.0167562
0.0184132
0.0187841
0.0186489
0.0183039
0.0180052
0.017746
0.0175421
0.0173989
0.017299
0.0172235
0.0171491
0.0158604
0.0158314
0.0157995
0.0157332
0.015607
0.0153816
0.0149982
0.0143971
0.0134273
0.0118073
0.00912997
0.00498462
-0.00163965
-0.0105991
-0.0212702
-0.0341612
-0.047996
-0.0606917
-0.06882
-0.072989
-0.0726725
-0.0642635
-0.0515719
-0.0360828
-0.0219346
-0.00963883
0.000152625
0.00754022
0.0124105
0.0151009
0.0164015
0.0168022
0.0168379
0.0167514
0.0166406
0.0165337
0.0164455
0.0163746
0.0163155
0.0162636
0.0154309
0.0154377
0.0154178
0.0153755
0.0152978
0.0151838
0.0149824
0.014682
0.0141769
0.0134014
0.0120815
0.00979144
0.0057886
-0.000616899
-0.00902756
-0.0194698
-0.0308619
-0.0424948
-0.0519482
-0.0587207
-0.0617748
-0.0604894
-0.0521383
-0.0404157
-0.0285271
-0.0171251
-0.00712657
0.00102991
0.00693616
0.0107725
0.0131315
0.0142944
0.0148845
0.015144
0.0152346
0.0152564
0.0152507
0.0152465
0.0152529
0.0152714
0.0149543
0.0149562
0.01496
0.0149605
0.0149623
0.0149759
0.0149853
0.014997
0.0149444
0.0148818
0.0143999
0.0133764
0.0111425
0.00660533
-0.000741613
-0.0108143
-0.0230535
-0.0363559
-0.0488581
-0.0586446
-0.0627327
-0.0635232
-0.0579505
-0.0485335
-0.0379242
-0.02684
-0.0162543
-0.00703203
0.000443687
0.00601818
0.00961025
0.011671
0.012867
0.0135055
0.0138529
0.014044
0.0141426
0.014203
0.0142462
0.0143058
0.014386
0.014342
0.0143457
0.0143881
0.0144762
0.0146154
0.0148207
0.0150897
0.0154664
0.0158355
0.0160153
0.0155451
0.0138211
0.0101665
0.00320003
-0.0067906
-0.0199547
-0.0352713
-0.0513486
-0.0652426
-0.0747792
-0.0768577
-0.0722486
-0.0634403
-0.0520988
-0.0394162
-0.0264424
-0.0144621
-0.00483698
0.00218342
0.00676026
0.00943954
0.0110923
0.0120773
0.0126845
0.0130421
0.0132499
0.0133546
0.0134059
0.0134193
0.0138191
0.013765
0.0137758
0.0138403
0.0139694
0.0141696
0.0144615
0.0148399
0.0153668
0.015857
0.0162568
0.0157507
0.0137838
0.0101913
0.00353541
-0.00598238
-0.0187576
-0.0345125
-0.0534915
-0.0713027
-0.0859304
-0.0889073
-0.0833425
-0.0741913
-0.0608114
-0.0462348
-0.0312941
-0.0177973
-0.00746905
2.05815e-05
0.00502264
0.00796238
0.00983073
0.0109614
0.0117021
0.0121582
0.0124345
0.012579
0.0126336
0.0125903
0.0131997
0.0132187
0.0132521
0.0133147
0.0134268
0.0135981
0.013834
0.0141453
0.0145121
0.0147751
0.0147883
0.0138139
0.0113903
0.00728203
0.000680529
-0.00868933
-0.0208326
-0.0354896
-0.0523405
-0.0682455
-0.0816145
-0.0840562
-0.07744
-0.0681696
-0.0548537
-0.040616
-0.0269634
-0.0152472
-0.00632594
0.000312722
0.00470547
0.00745842
0.0091621
0.0102437
0.0109267
0.0113553
0.0116095
0.011754
0.0118245
0.0117953
0.0123978
0.0124522
0.0124974
0.0125459
0.0126054
0.0126846
0.0127766
0.0128891
0.0129175
0.0126573
0.011709
0.0098576
0.00657548
0.00151051
-0.00553936
-0.014689
-0.0255887
-0.0376284
-0.0496206
-0.0592861
-0.0644762
-0.0637469
-0.057955
-0.0493462
-0.0384674
-0.0273351
-0.0173342
-0.00898857
-0.00244135
0.00251447
0.00581163
0.00787764
0.0091643
0.00994766
0.0104444
0.0107527
0.0109346
0.0110304
0.0110835
0.0111136
0.0114368
0.0114423
0.0114368
0.0114253
0.0114093
0.0113753
0.0112795
0.0110762
0.0106441
0.00974702
0.00799263
0.00501444
0.000578009
-0.00537571
-0.0127576
-0.0214317
-0.030715
-0.0399166
-0.0470363
-0.0509786
-0.0496817
-0.0460034
-0.039938
-0.031899
-0.0236103
-0.0152424
-0.00809785
-0.00216701
0.00249633
0.00561713
0.00758326
0.008771
0.00950451
0.00994907
0.0102339
0.0104131
0.0105231
0.0105829
0.0106206
0.0106477
0.0104439
0.0103806
0.0103198
0.0102437
0.0101403
0.00996494
0.00966675
0.0091046
0.00812291
0.00641243
0.0036243
-0.000429949
-0.00578108
-0.0124891
-0.0201592
-0.0285453
-0.0366657
-0.0437107
-0.0475289
-0.0475666
-0.0454648
-0.039554
-0.0315915
-0.0227859
-0.014158
-0.00660006
-0.00059944
0.00392712
0.00677627
0.00834173
0.0092272
0.0096644
0.00990818
0.0100481
0.0101392
0.0101939
0.010239
0.0102657
0.0102769
0.0102632
0.00953691
0.00946946
0.00939186
0.0092733
0.00908282
0.00876048
0.00823296
0.00734103
0.00585455
0.00338004
-0.000525364
-0.0059931
-0.0129602
-0.0211785
-0.0300367
-0.0389456
-0.0468037
-0.052923
-0.055382
-0.0527267
-0.0479471
-0.0394439
-0.0289449
-0.0181131
-0.00844813
-0.000761419
0.00471227
0.0080438
0.0097483
0.0103737
0.0104393
0.010313
0.0101587
0.0100208
0.00991774
0.00983925
0.00979874
0.00977974
0.00977549
0.00978545
0.00873047
0.00873624
0.00866958
0.00852424
0.00825388
0.00780618
0.00709648
0.00596987
0.00415033
0.00127259
-0.00338276
-0.00992308
-0.0185573
-0.0289524
-0.0397771
-0.0500716
-0.0588857
-0.0648355
-0.0669877
-0.0626261
-0.0515954
-0.0396719
-0.0266222
-0.0144668
-0.00491919
0.00229233
0.007064
0.00966822
0.0110303
0.0112983
0.0109406
0.0104988
0.0100958
0.00976331
0.00951387
0.00934579
0.00924152
0.00919534
0.00919177
0.0092474
0.00799545
0.00803996
0.00797073
0.00781272
0.00751463
0.00703505
0.00628396
0.00513421
0.00329368
0.000399065
-0.00408606
-0.010527
-0.0190619
-0.0295927
-0.0409431
-0.0518115
-0.0612729
-0.0675615
-0.0699583
-0.065265
-0.0527913
-0.0392115
-0.0255169
-0.0137843
-0.00488392
0.00179489
0.00618998
0.00866325
0.0101798
0.0106576
0.0104208
0.01004
0.00961639
0.00928045
0.00902836
0.00885461
0.00874598
0.00869236
0.00868171
0.00871415
0.00732397
0.00733445
0.00726512
0.00713228
0.00688884
0.00649909
0.00588703
0.00493308
0.00341063
0.00100043
-0.0025804
-0.00763093
-0.0141454
-0.0224372
-0.0317861
-0.0411689
-0.049752
-0.0559425
-0.0587101
-0.0560669
-0.0485829
-0.0384576
-0.0276342
-0.017944
-0.00982308
-0.00311137
0.00175773
0.00505209
0.00720947
0.00832587
0.00871514
0.00878542
0.0086503
0.00847839
0.00835368
0.00825967
0.00819787
0.00815635
0.00812828
0.00809358
0.00681836
0.00677582
0.00672776
0.00665129
0.00650584
0.00625912
0.00587939
0.00527543
0.00428914
0.00272061
0.000238015
-0.00328048
-0.00764044
-0.0130958
-0.0195325
-0.0265147
-0.0330965
-0.0388282
-0.0428777
-0.0437789
-0.0420643
-0.037059
-0.0307609
-0.0236664
-0.0165494
-0.0100621
-0.00463334
-0.000381123
0.00270396
0.00486982
0.00615209
0.00681753
0.00709492
0.00722959
0.00729378
0.00732442
0.00733988
0.00734394
0.00733384
0.0073052
0.00650189
0.00648636
0.00645733
0.00641175
0.00633848
0.00622529
0.00604446
0.00577164
0.00531374
0.00454305
0.00324574
0.00112285
-0.00183987
-0.00564634
-0.0103788
-0.0159567
-0.021922
-0.0277165
-0.032783
-0.0361983
-0.0374972
-0.0370231
-0.0342372
-0.0289448
-0.0227667
-0.0165854
-0.0108943
-0.0059402
-0.00194318
0.00107261
0.00314859
0.00444935
0.00523256
0.00570152
0.00597548
0.0061411
0.00624766
0.00632567
0.00638342
0.00641687
0.00619265
0.00620414
0.00620203
0.00619522
0.0061871
0.00618669
0.0061805
0.00618331
0.00613632
0.00600093
0.00559567
0.00470428
0.00289304
2.0107e-06
-0.0041384
-0.00957001
-0.0160667
-0.0232597
-0.0298143
-0.034921
-0.0385621
-0.0408666
-0.0400665
-0.0359161
-0.0303196
-0.0240042
-0.0176636
-0.0118057
-0.00681057
-0.00281631
0.00016588
0.00220486
0.0035169
0.00430738
0.00477665
0.00507264
0.00526252
0.00539543
0.00549305
0.00558075
0.00578232
0.00576153
0.00576398
0.00578942
0.00585067
0.00595464
0.00609934
0.00631304
0.00660214
0.00689562
0.00713195
0.00699793
0.00603352
0.00410683
0.000666383
-0.00449102
-0.0112971
-0.0199998
-0.0287795
-0.036578
-0.0439837
-0.0491113
-0.0495454
-0.0461667
-0.040408
-0.0332425
-0.0254489
-0.0179531
-0.0112876
-0.00601311
-0.00216153
0.000492327
0.00219921
0.00324089
0.00388621
0.00430397
0.00456625
0.00472484
0.00481898
0.00486946
0.00534213
0.0052929
0.00529223
0.00532927
0.00542194
0.00557823
0.00580049
0.006108
0.00651859
0.00695767
0.00734468
0.00741562
0.00680435
0.00555144
0.0028943
-0.00159789
-0.00784585
-0.0171976
-0.0279129
-0.0383097
-0.048306
-0.0552655
-0.0560819
-0.0523204
-0.0463995
-0.0383787
-0.0296477
-0.0210351
-0.0134897
-0.00770571
-0.00345025
-0.000528449
0.00133272
0.00247049
0.00323434
0.00373188
0.00404087
0.00421199
0.00428857
0.00427121
0.00490444
0.00488952
0.00489693
0.00492953
0.00499769
0.00510953
0.00527974
0.00550954
0.00578479
0.00596893
0.00607307
0.00569401
0.00470977
0.00304617
0.000201836
-0.00419072
-0.0101447
-0.01805
-0.0276021
-0.0371902
-0.0452921
-0.0515834
-0.0515986
-0.0476918
-0.0419021
-0.0342462
-0.026214
-0.0185168
-0.0120037
-0.00700116
-0.00323961
-0.000666106
0.000964078
0.00206747
0.00278784
0.00323343
0.00352686
0.00369752
0.003777
0.00374751
0.00436457
0.00439419
0.00440664
0.0044097
0.00441153
0.00441289
0.00441507
0.00439332
0.00430048
0.00396907
0.00328021
0.00202888
9.75349e-05
-0.0026307
-0.00623861
-0.0108269
-0.0162711
-0.0221168
-0.028315
-0.0341151
-0.0380796
-0.0399184
-0.0383035
-0.034866
-0.0297581
-0.0238091
-0.0178211
-0.0123587
-0.00793339
-0.00443888
-0.00174982
7.83567e-05
0.00130387
0.00209589
0.00260209
0.0029248
0.0031267
0.00324503
0.00330939
0.00332812
0.00369032
0.00369212
0.00366428
0.0036083
0.00352
0.00338304
0.00318295
0.00285328
0.00230057
0.00139191
-9.47403e-05
-0.00226504
-0.00512624
-0.00873814
-0.0130114
-0.0176486
-0.0225435
-0.0267683
-0.0295749
-0.0311338
-0.0314681
-0.0298671
-0.0268372
-0.023108
-0.0186691
-0.0140918
-0.00994117
-0.00644224
-0.00361772
-0.00135232
0.000276678
0.00130802
0.00200698
0.00241753
0.00268025
0.00285383
0.00296531
0.00302244
0.00305995
0.00309785
0.00298592
0.00292434
0.00283777
0.00271491
0.00254425
0.00228169
0.00187177
0.00123384
0.000219839
-0.00129305
-0.00347736
-0.00639187
-0.0101253
-0.0145637
-0.019428
-0.0242248
-0.0286182
-0.0314599
-0.032114
-0.0307406
-0.0286745
-0.0253471
-0.0212357
-0.0165464
-0.011854
-0.00767911
-0.0043069
-0.00176837
9.43603e-05
0.00135842
0.00204299
0.00244959
0.00267066
0.00277882
0.00285684
0.00291551
0.00296162
0.00298713
0.00300183
0.00299953
0.00238977
0.00231055
0.00219844
0.00203351
0.00179208
0.00142466
0.000857443
-5.01557e-05
-0.00148213
-0.00360189
-0.00659823
-0.010494
-0.0154087
-0.0210371
-0.0269409
-0.0324058
-0.036715
-0.0387643
-0.037988
-0.0340269
-0.0290488
-0.0236901
-0.0179162
-0.0119974
-0.0067718
-0.00270408
0.000233608
0.00204047
0.00303147
0.00335006
0.00333429
0.00323776
0.00310085
0.002986
0.00291822
0.00287525
0.00285839
0.00285105
0.00284759
0.00284183
0.00192345
0.0018933
0.00180082
0.0016291
0.00134086
0.000894949
0.00020499
-0.000872567
-0.00258328
-0.00517882
-0.00880892
-0.0137487
-0.0199825
-0.0269222
-0.0339426
-0.040123
-0.0445988
-0.0463595
-0.0445447
-0.0383462
-0.0305812
-0.0224321
-0.0144825
-0.00746405
-0.00224873
0.00129543
0.00339982
0.00441263
0.00467411
0.00435553
0.00398396
0.00357292
0.00320173
0.0029432
0.00276244
0.00264358
0.00257739
0.00255373
0.00255781
0.00259237
0.00155497
0.00157401
0.00149861
0.00132714
0.00102486
0.00055374
-0.000172287
-0.00129048
-0.002971
-0.00559996
-0.00925633
-0.014228
-0.0205254
-0.0275331
-0.034568
-0.04085
-0.0453856
-0.0473147
-0.0456177
-0.0392016
-0.0309733
-0.0222079
-0.0137331
-0.00675687
-0.00168469
0.00155469
0.00334534
0.00418107
0.00435014
0.00402686
0.00371719
0.00333131
0.00298505
0.00271351
0.00251542
0.00238747
0.00231727
0.00229318
0.00230039
0.00234889
0.00128008
0.00128446
0.00120849
0.00105758
0.000805092
0.000404545
-0.000197999
-0.00112888
-0.00253405
-0.00461875
-0.00749213
-0.0113002
-0.0161807
-0.0217481
-0.0275039
-0.0328112
-0.0369547
-0.0391407
-0.0388893
-0.0350897
-0.0296255
-0.0231738
-0.0168232
-0.0112902
-0.00667752
-0.00322478
-0.000813061
0.000829225
0.00180313
0.00227443
0.00246112
0.00243823
0.00235084
0.00224462
0.0021613
0.00211328
0.00209281
0.00209084
0.00209384
0.00209491
0.00113177
0.00109739
0.00103986
0.00094687
0.000793367
0.00055067
0.000176606
-0.000423926
-0.00132827
-0.00267628
-0.00456589
-0.00699434
-0.0100909
-0.0137705
-0.0178031
-0.0218806
-0.0254861
-0.0282082
-0.0298069
-0.0295263
-0.0275796
-0.0245895
-0.0212684
-0.0173965
-0.0132818
-0.00959973
-0.00646739
-0.00393128
-0.00196846
-0.000531751
0.00037326
0.000936698
0.00126865
0.00145148
0.00156572
0.00164245
0.00169864
0.00173354
0.00174458
0.00172881
0.00115264
0.00112907
0.00110166
0.00106043
0.000992291
0.000890761
0.000733038
0.000472531
5.56835e-05
-0.000632058
-0.00165391
-0.00314876
-0.00509791
-0.00757733
-0.0105848
-0.0140688
-0.0176406
-0.0208721
-0.0234708
-0.0253121
-0.0263088
-0.0265063
-0.025464
-0.0228064
-0.0191095
-0.0152748
-0.0115825
-0.0083058
-0.00558333
-0.00344236
-0.00186653
-0.00077266
-4.73833e-05
0.000428661
0.000746566
0.000955634
0.00109512
0.00118844
0.00124453
0.00127433
0.00125042
0.00126528
0.00126259
0.00125599
0.00124543
0.00123977
0.00123197
0.00121832
0.00117376
0.000998707
0.000656727
-8.66792e-05
-0.00128529
-0.00309055
-0.00563797
-0.00898772
-0.0132077
-0.0171954
-0.0207449