/*--------------------------------*- C++ -*----------------------------------*\
| =========                 |                                                 |
| \\      /  F ield         | OpenFOAM: The Open Source CFD Toolbox           |
|  \\    /   O peration     | Version:  v2106                                 |
|   \\  /    A nd           | Website:  www.openfoam.com                      |
|    \\/     M anipulation  |                                                 |
\*---------------------------------------------------------------------------*/
FoamFile
{
    version     2.0;
    format      ascii;
    arch        "LSB;label=32;scalar=64";
    class       volScalarField;
    location    "0";
    object      p;
}
// * * * * * * * * * * * * * * * * * * * * * * * * * * * * * * * * * * * * * //

dimensions      [0 2 -2 0 0 0 0];

internalField   nonuniform List<scalar> 
11644
(
-0.0485948
-0.049597
-0.051609
-0.0546088
-0.0585841
-0.0635205
-0.0693481
-0.0758475
-0.0827332
-0.0898327
-0.0970132
-0.103917
-0.110248
-0.115439
-0.119164
-0.120988
-0.121554
-0.120378
-0.115924
-0.112708
-0.110057
-0.103738
-0.0979618
-0.0936969
-0.0890398
-0.0844586
-0.0801606
-0.0761006
-0.0723813
-0.06885
-0.0656237
-0.0627831
-0.0604886
-0.0587416
-0.0573479
-0.0562092
-0.0553717
-0.0548004
-0.0544402
-0.0542633
-0.046592
-0.0475982
-0.0496298
-0.0526794
-0.0567321
-0.0617045
-0.0675141
-0.0741497
-0.081417
-0.0890684
-0.0967673
-0.104142
-0.11071
-0.116589
-0.121012
-0.123278
-0.123928
-0.123432
-0.117572
-0.11543
-0.111788
-0.107254
-0.0995043
-0.0946192
-0.0889625
-0.0835069
-0.0787395
-0.0741518
-0.0698924
-0.0663762
-0.0635269
-0.061218
-0.0593064
-0.0577193
-0.0564014
-0.055422
-0.0547145
-0.0542063
-0.0539108
-0.0537886
-0.0431569
-0.0441211
-0.0461344
-0.0492122
-0.0533175
-0.0583652
-0.0642573
-0.0709449
-0.0783881
-0.0864679
-0.0948035
-0.103218
-0.111334
-0.118542
-0.124288
-0.127782
-0.128692
-0.127737
-0.125712
-0.12383
-0.115141
-0.106703
-0.102714
-0.0942294
-0.0871818
-0.0803991
-0.0740134
-0.0689735
-0.0650816
-0.0620398
-0.0596975
-0.0579637
-0.0565514
-0.0554259
-0.0546205
-0.0540744
-0.0536924
-0.0534626
-0.0533705
-0.0534156
-0.0382153
-0.0392476
-0.0413265
-0.0444589
-0.0486132
-0.0537616
-0.0598532
-0.0668257
-0.074656
-0.0832681
-0.0926997
-0.102577
-0.112103
-0.12075
-0.128148
-0.133433
-0.13536
-0.137202
-0.13843
-0.130776
-0.122274
-0.113547
-0.104731
-0.0938431
-0.0845717
-0.0760299
-0.0682333
-0.062286
-0.0584009
-0.0560948
-0.054566
-0.0535534
-0.0529991
-0.0527453
-0.0526943
-0.052744
-0.0528349
-0.0529399
-0.0530383
-0.0530439
-0.031418
-0.0326241
-0.0349743
-0.0383286
-0.0426938
-0.0480836
-0.0545462
-0.0620986
-0.0707562
-0.0805433
-0.0911842
-0.101845
-0.111966
-0.121163
-0.130015
-0.137227
-0.140446
-0.146286
-0.147754
-0.144016
-0.136465
-0.123
-0.11124
-0.0964497
-0.0843362
-0.0731456
-0.0637496
-0.0565257
-0.0517587
-0.0494529
-0.0489818
-0.0492213
-0.0497709
-0.0505049
-0.0512169
-0.0518537
-0.0523697
-0.0526994
-0.052871
-0.0530296
-0.0225941
-0.0239516
-0.0265445
-0.030365
-0.0352741
-0.041273
-0.04842
-0.0568395
-0.0666369
-0.0774478
-0.0883459
-0.0988977
-0.109084
-0.119769
-0.130451
-0.142399
-0.151874
-0.156912
-0.159893
-0.159304
-0.150914
-0.140248
-0.122797
-0.101721
-0.0862949
-0.0731651
-0.0614981
-0.0527902
-0.0474988
-0.0445698
-0.0442148
-0.0456275
-0.0474802
-0.0491567
-0.0505743
-0.0516692
-0.0524316
-0.052897
-0.0530266
-0.0529537
-0.0117058
-0.013214
-0.0162068
-0.0204232
-0.025894
-0.0326729
-0.0407594
-0.0502631
-0.0610533
-0.0719935
-0.082717
-0.0939998
-0.106318
-0.117334
-0.130157
-0.145215
-0.158121
-0.166527
-0.167206
-0.16737
-0.164806
-0.152154
-0.131543
-0.114498
-0.0911412
-0.0717456
-0.0584581
-0.0505472
-0.0458716
-0.0427976
-0.0422375
-0.0438765
-0.046683
-0.0491804
-0.0510745
-0.0523903
-0.0531812
-0.0535229
-0.0536485
-0.0535909
0.00140896
-0.000440478
-0.00371961
-0.00846867
-0.0145652
-0.0220024
-0.0308993
-0.0413396
-0.05262
-0.0638408
-0.0754462
-0.088006
-0.100603
-0.116245
-0.131254
-0.144154
-0.161622
-0.178693
-0.187758
-0.189304
-0.180606
-0.165357
-0.142752
-0.118007
-0.0945343
-0.0696441
-0.0603879
-0.0484436
-0.0452761
-0.0438505
-0.0441353
-0.0454459
-0.0480855
-0.0508732
-0.0528364
-0.054182
-0.0550132
-0.0554014
-0.055443
-0.0554688
0.0160264
0.0143181
0.0106346
0.00562247
-0.000712066
-0.00851355
-0.0179261
-0.0290323
-0.0409744
-0.0533511
-0.06603
-0.0797245
-0.0964923
-0.114258
-0.132589
-0.151271
-0.166357
-0.188105
-0.210466
-0.226889
-0.223201
-0.203511
-0.16817
-0.14102
-0.0962057
-0.0768411
-0.0631157
-0.0478825
-0.0465688
-0.0466644
-0.0482379
-0.0499939
-0.051989
-0.0545147
-0.0564516
-0.0577033
-0.0583617
-0.0585539
-0.0581598
-0.0575584
0.0337226
0.0308268
0.0268959
0.0220615
0.016009
0.00832179
-0.0013388
-0.0128225
-0.0254985
-0.0400792
-0.0551058
-0.068839
-0.0835845
-0.110123
-0.120058
-0.141661
-0.160291
-0.183743
-0.222967
-0.268349
-0.292061
-0.258558
-0.191809
-0.130716
-0.0888403
-0.0629145
-0.0550929
-0.0504086
-0.0507823
-0.0513811
-0.0537989
-0.0558245
-0.0574037
-0.0594156
-0.0610111
-0.0619405
-0.0624429
-0.0624331
-0.0620943
-0.0615192
0.0520271
0.0497937
0.0466696
0.0423604
0.036664
0.0294133
0.0201626
0.00886698
-0.00408211
-0.0195225
-0.0373635
-0.0543943
-0.0670252
-0.0793193
-0.0974743
-0.118691
-0.135603
-0.149641
-0.17787
-0.270135
-0.392338
-0.299657
-0.147654
-0.0676683
-0.0348916
-0.0275138
-0.0335048
-0.049918
-0.052255
-0.0562384
-0.0591622
-0.0614227
-0.0633702
-0.0648231
-0.0658796
-0.0666629
-0.0674119
-0.0678735
-0.0675843
-0.0665801
0.0712877
0.0702893
0.0686095
0.065884
0.0616288
0.0560028
0.0487027
0.0393293
0.0270333
0.0122298
-0.0047611
-0.0242083
-0.0388377
-0.0492533
-0.0765763
-0.091857
-0.110823
-0.1177
-0.057717
0.215691
0.102164
0.052005
0.0168056
-0.0187763
-0.032866
-0.0483416
-0.0563394
-0.0614539
-0.0662743
-0.068866
-0.0696309
-0.0701246
-0.0708386
-0.0715899
-0.0722928
-0.0726666
-0.0723674
0.0924279
0.0938647
0.0944305
0.0935838
0.0915765
0.0888506
0.08541
0.0805709
0.0722332
0.0579123
0.0431203
0.022052
0.00940185
-0.0160351
-0.0449612
-0.0751063
-0.1151
-0.194073
-0.36628
0.342247
0.226281
0.13091
0.0609842
0.0142883
-0.030934
-0.0405844
-0.0526992
-0.0616928
-0.0704916
-0.0726303
-0.07209
-0.071566
-0.0720797
-0.0733977
-0.0753166
-0.078361
-0.082608
0.116338
0.12342
0.1256
0.126655
0.127614
0.128726
0.1305
0.133403
0.133329
0.123881
0.100861
0.0809927
0.0635699
0.0363591
0.0249619
-0.0404897
-0.103533
-0.194867
-0.277136
0.219107
0.257519
0.18414
0.108689
0.0457199
-0.0196454
-0.00873543
-0.0438254
-0.0630558
-0.0744531
-0.0733058
-0.0712108
-0.0696088
-0.0710098
-0.0736621
-0.0775868
-0.0820695
-0.0917265
0.144699
0.153223
0.156342
0.162051
0.167086
0.172209
0.181501
0.196318
0.200449
0.19624
0.187423
0.189148
0.181654
0.154249
0.0745143
0.000352417
-0.0682376
-0.113591
-0.100657
-0.65578
-0.475258
0.00710287
0.244534
0.410609
0.232014
0.101793
-0.000157754
-0.0472124
-0.0442313
-0.054529
-0.0663887
-0.0676797
-0.0714936
-0.0666359
-0.0627959
-0.0658818
-0.0676887
-0.0734782
-0.0741207
-0.0708862
0.185785
0.188981
0.188897
0.195038
0.206189
0.215602
0.230284
0.240081
0.256234
0.27071
0.273264
0.277422
0.236935
0.217005
0.156142
0.0780272
-0.0235634
0.0786113
0.0710721
0.653901
-0.518014
-0.0745476
0.43833
0.375633
0.1337
-0.0223712
-0.0171586
-0.0934621
-0.0718321
-0.0702564
-0.0755949
-0.0722634
-0.0709224
-0.0637442
-0.0571787
-0.0583851
-0.0574315
-0.057774
-0.0589394
-0.0533358
0.235542
0.228205
0.229435
0.234626
0.244
0.257515
0.271343
0.280467
0.293524
0.311154
0.339956
0.358121
0.315593
0.277084
0.226091
0.336783
0.442085
-0.026917
-0.450393
2.13564
0.346136
-0.516723
0.70168
-0.0851116
-0.287874
-0.203314
-0.155493
-0.134115
-0.151695
-0.124945
-0.0960053
-0.0817294
-0.0736031
-0.0639473
-0.0581844
-0.05403
-0.053197
-0.053561
-0.0501348
-0.048585
0.261951
0.258251
0.263041
0.271332
0.283247
0.295892
0.3007
0.324458
0.336079
0.3511
0.372931
0.388555
0.394118
0.342511
0.247094
0.246846
0.397681
1.48957
0.379014
-0.587521
0.39625
1.53656
-0.154949
-1.33811
-0.502418
-0.17558
-0.251838
-0.217264
-0.213397
-0.178171
-0.133052
-0.0930874
-0.0732655
-0.0654647
-0.0627711
-0.055282
-0.04821
-0.0425345
-0.0382411
-0.0326037
0.277165
0.279546
0.287126
0.296044
0.304947
0.315186
0.321337
0.331321
0.352069
0.37479
0.388314
0.402608
0.458193
0.372038
0.501468
0.320314
-0.0864433
-0.17344
1.97451
1.26865
-0.213616
-1.93263
-2.23806
-0.0975564
-0.0851224
-0.338683
-0.201291
-0.292934
-0.205076
-0.16422
-0.113557
-0.087692
-0.0741996
-0.0716034
-0.0583254
-0.0506228
-0.0408622
-0.0305226
-0.0234374
-0.0227735
0.28456
0.289379
0.297832
0.308529
0.320692
0.333589
0.351458
0.35946
0.378357
0.406244
0.43326
0.482347
0.431158
0.561682
0.431867
0.588528
0.881317
-0.323253
-1.82406
-1.06044
-0.706442
-0.149629
1.29316
0.0838372
-0.835786
-0.238018
-0.306066
-0.249737
-0.242507
-0.144475
-0.114731
-0.0986722
-0.0850869
-0.0690265
-0.0506372
-0.0410789
-0.0280248
-0.017829
-0.0119034
-0.0125941
0.291486
0.295063
0.300063
0.307189
0.319427
0.338374
0.364953
0.394739
0.427777
0.469437
0.529229
0.471498
0.528987
0.677217
0.561498
0.425231
0.524972
1.85418
1.60879
0.179966
-0.613338
-1.0159
-1.93433
-1.92099
-0.0280059
-0.192115
-0.365976
-0.220728
-0.190363
-0.1322
-0.112946
-0.0964823
-0.0788275
-0.0488468
-0.0304108
-0.0196205
-0.0112415
-0.00940817
-0.00706591
-0.00598091
0.290538
0.296605
0.303312
0.310446
0.320472
0.337024
0.361325
0.394892
0.438073
0.480368
0.535368
0.564634
0.59582
0.730279
0.655922
0.383577
0.44644
-0.52515
-1.5218
-1.43878
-1.22853
-1.04425
0.0860518
0.685065
-0.114735
0.0249332
-0.0588379
-0.162951
-0.167457
-0.111885
-0.0835647
-0.0624267
-0.0440976
-0.0223826
-0.0122931
-0.00745027
-0.00389367
-0.000583111
0.00262508
0.00416169
0.281866
0.281618
0.289067
0.301576
0.317558
0.336227
0.359529
0.384269
0.414077
0.468562
0.541813
0.644265
0.789669
0.963626
0.114832
0.920011
1.94361
3.33882
-1.60272
-0.623327
-2.85738
-2.52835
-0.323572
-0.367743
-0.0513836
0.386119
-0.500635
-0.266016
-0.174423
-0.0619155
-0.0358457
-0.0202356
-0.0149117
-0.00738244
0.00252223
0.00778713
0.0132507
0.0183725
0.0211789
0.0194017
0.276214
0.2766
0.27894
0.284565
0.296514
0.314952
0.343512
0.37158
0.392247
0.423983
0.453198
0.517986
0.578769
0.768674
1.25592
0.182073
-0.508491
-0.40037
0.339081
1.97576
-2.60408
-0.680503
0.215201
-0.342163
-0.76767
-0.967496
-0.338929
-0.0864414
-0.0168371
0.0065523
0.0118055
0.0175883
-0.000855496
0.0144916
0.0236623
0.029037
0.0308996
0.0302456
0.0307857
0.0331055
0.259262
0.264643
0.270108
0.276976
0.285335
0.297531
0.313078
0.335995
0.359536
0.396591
0.423357
0.47522
0.437122
0.111476
0.134404
0.859687
1.50069
0.795074
-0.495812
-1.20968
-0.111416
-0.977791
-1.84525
-1.26639
-0.216742
0.512203
0.320075
0.0805508
0.0325205
0.0399554
0.0498874
0.0507092
0.0467359
0.047995
0.045466
0.0450584
0.045064
0.046777
0.0489445
0.0531586
0.233281
0.236614
0.241076
0.247015
0.25515
0.266408
0.276864
0.284794
0.294746
0.304061
0.299243
0.365585
0.35276
0.489254
-0.136073
-1.11728
-1.45051
-1.31901
-0.740799
-0.359824
-0.527798
0.0107893
1.14572
1.56699
1.2437
0.225737
-0.22868
0.220989
0.166832
0.162779
0.128096
0.104985
0.0889491
0.0804446
0.0783108
0.0775126
0.0784577
0.0797463
0.0811939
0.0811503
0.213387
0.211426
0.214322
0.218047
0.223056
0.229834
0.237461
0.239361
0.239251
0.244845
0.218804
0.196788
0.0648455
0.0656992
0.293026
0.094691
-0.834199
-1.31482
-1.43261
-1.16184
0.83072
1.12743
0.636932
0.312735
-0.0818508
0.101275
0.380733
0.331375
0.231731
0.197387
0.163021
0.132939
0.118942
0.110933
0.106919
0.105743
0.103871
0.103496
0.101768
0.101543
0.191245
0.192159
0.193111
0.193008
0.192943
0.19188
0.188407
0.184368
0.18256
0.178435
0.146183
0.0986122
-0.0148334
-0.470485
-0.64699
-0.395969
-0.459697
-0.628824
-0.76224
-0.655356
0.0999859
0.178899
0.420131
0.398687
0.629705
0.799423
0.495822
0.312905
0.247359
0.203148
0.176568
0.160811
0.150114
0.141064
0.131954
0.127868
0.124359
0.122215
0.122021
0.118519
0.165311
0.166705
0.163975
0.160431
0.156723
0.154543
0.149418
0.138802
0.129819
0.105069
0.0588242
-0.0568417
-0.121198
-0.240018
-0.849886
-1.57375
-1.82075
-1.63476
-1.58073
-1.49318
1.55713
1.45776
1.22338
1.39058
1.16241
0.738501
0.411792
0.280882
0.285474
0.229585
0.200033
0.184823
0.168689
0.160131
0.155191
0.151781
0.14748
0.142497
0.138567
0.141958
0.131762
0.124689
0.12683
0.128099
0.125383
0.119226
0.109617
0.0906052
0.075912
0.0462571
0.0120386
-0.256548
-0.456366
-0.551238
-0.400938
-0.553579
-0.938285
-1.1971
-1.61641
-1.02655
0.517372
0.928454
1.11851
0.933316
0.342002
0.216131
0.370486
0.456818
0.391061
0.24449
0.218125
0.202691
0.188079
0.181966
0.175653
0.171167
0.169867
0.171841
0.174355
0.166647
0.113095
0.115176
0.108108
0.0988313
0.0885375
0.0771861
0.0609703
0.0353069
0.00147477
-0.0284552
-0.0714636
-0.173916
-0.346014
-0.774638
-1.20593
-1.30449
-1.22983
-0.883492
-0.545129
-0.465129
-0.0375441
0.20758
0.431646
0.539817
0.672207
0.82757
0.761503
0.410459
0.303787
0.277523
0.238296
0.227553
0.218335
0.210202
0.203535
0.198017
0.191881
0.184617
0.177687
0.180784
0.0893761
0.0894214
0.0871539
0.0812927
0.0706529
0.0559861
0.0431549
0.00932871
-0.0296591
-0.0863147
-0.177918
-0.284751
-0.365486
-0.414355
-0.736801
-1.17807
-1.65312
-1.73714
-1.75301
-1.76908
1.16017
1.00022
1.0663
1.10125
0.937236
0.662451
0.378961
0.369679
0.401659
0.341147
0.287087
0.249671
0.227222
0.220921
0.213549
0.206856
0.201736
0.199117
0.197975
0.196677
0.0684859
0.0629348
0.0590767
0.0522491
0.042915
0.027741
0.00660213
-0.0236691
-0.0632869
-0.117405
-0.188749
-0.317918
-0.535654
-0.732359
-0.70239
-0.756499
-0.992518
-1.09836
-1.06644
-0.566132
0.195413
0.528399
0.878617
0.671121
0.448057
0.436031
0.612532
0.585442
0.416213
0.328813
0.297561
0.27343
0.256044
0.243696
0.2352
0.228326
0.223662
0.220464
0.217732
0.214156
0.0587838
0.0587942
0.0507321
0.03846
0.0241138
0.00632431
-0.0159774
-0.0473602
-0.0909845
-0.150449
-0.20803
-0.276657
-0.328122
-0.593675
-0.979285
-1.12869
-1.11622
-1.01663
-0.939693
-0.531891
0.177009
0.415357
0.674054
0.847319
1.02435
1.00023
0.701605
0.427018
0.343095
0.326155
0.323692
0.296617
0.269516
0.259885
0.253882
0.245864
0.235283
0.225954
0.219102
0.219496
0.0469889
0.0417954
0.0398578
0.0348604
0.0249163
0.00837631
-0.0134017
-0.0428688
-0.0821534
-0.14116
-0.221064
-0.31635
-0.377472
-0.395191
-0.360931
-0.540457
-0.765565
-0.800742
-0.969079
-0.950116
0.517934
0.775688
0.99005
0.910268
0.646523
0.411952
0.343381
0.395625
0.397365
0.346597
0.334388
0.292377
0.268895
0.257731
0.248923
0.241793
0.236637
0.235166
0.234434
0.234367
0.044251
0.043338
0.0362132
0.0261093
0.0131262
-0.00659244
-0.029226
-0.0512576
-0.0766815
-0.108386
-0.144157
-0.205254
-0.288574
-0.362989
-0.390148
-0.388331
-0.362082
-0.122251
-0.710502
-0.48223
0.119414
0.102285
0.715092
0.63901
0.598999
0.615627
0.603132
0.47869
0.359085
0.302663
0.295549
0.288819
0.281318
0.272422
0.263612
0.25551
0.248469
0.242934
0.238204
0.234767
0.0469126
0.0477438
0.0440402
0.0363677
0.0249673
0.00939656
-0.00857144
-0.0313507
-0.0645784
-0.100784
-0.13347
-0.0932852
-0.14924
-0.30876
-0.435795
-0.447835
-0.376388
-0.266593
-0.236679
-0.0484792
0.202179
0.361972
0.663062
0.801406
0.744849
0.669401
0.457358
0.266819
0.286975
0.32087
0.325306
0.296891
0.273127
0.265104
0.256396
0.248916
0.241739
0.236789
0.232525
0.235303
0.0486857
0.0456001
0.0443545
0.0430643
0.0395256
0.0263197
0.01309
-0.0040279
-0.0219934
-0.0513266
-0.0744621
-0.105678
-0.0263353
0.0722695
0.0649781
-0.0851695
-0.290633
-0.305503
-0.296434
-0.266292
0.469632
0.516316
0.546558
0.57858
0.320168
0.22566
0.237659
0.348171
0.374494
0.308515
0.294649
0.276337
0.262032
0.255089
0.24628
0.242561
0.241712
0.243533
0.244757
0.240992
0.0600267
0.0591432
0.0550487
0.0483994
0.0417925
0.0344122
0.0245725
0.0156448
0.00715969
0.00391738
0.038053
0.0408791
-0.0331404
-0.0746184
-0.0301958
0.12851
0.168956
0.135411
0.280424
0.467403
-0.313831
-0.125337
0.220467
0.221099
0.256577
0.404714
0.424244
0.31951
0.234591
0.242806
0.261794
0.27886
0.263749
0.259122
0.255157
0.251585
0.246865
0.240225
0.23562
0.234825
0.0725272
0.072351
0.0717605
0.0712121
0.0694133
0.0679913
0.0640298
0.0624817
0.0557958
0.0611243
0.0917311
0.156599
0.235561
0.257934
0.247359
0.220417
0.0911805
0.0928507
0.133507
0.0823326
0.186397
0.237589
0.23146
0.30386
0.26609
0.205815
0.151799
0.169451
0.236115
0.284687
0.258923
0.251819
0.243016
0.237836
0.235224
0.233697
0.233448
0.232484
0.233602
0.23442
0.0819846
0.0803997
0.0825314
0.0848779
0.0871158
0.0913984
0.0954184
0.0889247
0.107152
0.126941
0.163999
0.199881
0.289173
0.428476
0.525939
0.509135
0.427746
0.318027
0.185136
0.145829
0.0482355
0.0339583
0.0966017
0.0320413
0.0115649
0.0377302
0.121375
0.210515
0.221972
0.215959
0.246705
0.237879
0.233522
0.234079
0.232371
0.232496
0.233313
0.233216
0.232744
0.230675
0.0977403
0.100101
0.097511
0.0954093
0.094789
0.100084
0.110389
0.119438
0.142751
0.17656
0.252061
0.358981
0.354834
0.374606
0.435362
0.516161
0.567845
0.473753
0.451749
0.0561994
0.379666
0.110533
-0.113124
-0.0172087
0.0737834
0.157108
0.198312
0.19872
0.182295
0.187683
0.211381
0.219658
0.232365
0.228779
0.233116
0.232634
0.230901
0.227471
0.223697
0.22481
0.104084
0.102323
0.106815
0.1135
0.120404
0.129951
0.142869
0.156713
0.188516
0.22463
0.28603
0.378389
0.578823
0.731102
0.767041
0.735398
0.668476
0.52024
0.386374
0.264161
0.11869
-0.0209501
-0.0809939
-0.084484
-0.0468944
-0.0325952
-0.00718101
0.0430694
0.107806
0.186441
0.212245
0.213598
0.220615
0.215847
0.224064
0.222489
0.22368
0.225102
0.225757
0.224159
0.113804
0.114305
0.115593
0.117735
0.123545
0.134235
0.151586
0.1786
0.201866
0.236955
0.319148
0.367064
0.436183
0.606181
0.755417
0.849135
0.867004
0.765324
0.578262
0.189688
-0.229398
-0.281021
-0.344835
-0.302279
-0.250715
-0.114923
0.00285862
0.153881
0.199874
0.1901
0.236733
0.225642
0.227829
0.223547
0.225981
0.224432
0.222164
0.217229
0.215596
0.21322
0.124892
0.128816
0.129652
0.132576
0.138181
0.147894
0.160379
0.189775
0.210716
0.248911
0.345343
0.455755
0.531304
0.5694
0.641175
0.695584
0.682988
0.584467
0.218512
-0.201799
0.0370781
-0.341854
-0.28905
-0.243349
-0.104975
0.0420343
0.116376
0.134431
0.124345
0.178149
0.226759
0.233348
0.228926
0.218684
0.214497
0.211715
0.20909
0.206022
0.203969
0.205677
0.126887
0.12441
0.130255
0.138171
0.147958
0.16088
0.173853
0.189275
0.213562
0.246079
0.290338
0.371977
0.541386
0.669975
0.742296
0.681293
0.712293
0.504242
0.183319
0.0500205
-0.251074
-0.145033
-0.238423
-0.205733
-0.0753765
-0.0654116
-0.0287784
0.0659325
0.187186
0.240757
0.236789
0.22667
0.220803
0.207411
0.204304
0.200795
0.199905
0.200615
0.201553
0.199857
0.129666
0.131933
0.132277
0.132068
0.136942
0.144986
0.158936
0.177494
0.205757
0.240899
0.310262
0.376304
0.393268
0.471802
0.574571
0.653909
0.636875
0.501896
0.238765
0.0903621
-0.0155258
-0.139082
-0.171542
-0.151709
-0.0528425
0.0812971
0.190797
0.269953
0.235876
0.217533
0.228259
0.221594
0.222231
0.216824
0.210486
0.204721
0.196978
0.191803
0.187676
0.18788
0.127005
0.128484
0.131342
0.136262
0.143532
0.15281
0.165213
0.171814
0.195369
0.234928
0.280675
0.371605
0.490009
0.571132
0.64847
0.699386
0.627035
0.583121
0.365152
0.011963
0.301893
0.0700465
-0.0338443
0.023438
0.0730398
0.127086
0.129076
0.134659
0.169592
0.200423
0.21457
0.20679
0.213067
0.198794
0.1893
0.186017
0.182358
0.178697
0.176196
0.178601
0.122255
0.125556
0.127849
0.132161
0.13702
0.14343
0.154208
0.163552
0.181605
0.215343
0.259336
0.33858
0.418311
0.53089
0.611959
0.663496
0.604291
0.582843
0.412985
0.340041
0.28534
0.175533
0.16412
0.10573
0.261613
0.227484
0.231617
0.243984
0.248301
0.2294
0.21587
0.196454
0.189607
0.183719
0.17731
0.172262
0.170077
0.167027
0.167798
0.164039
0.126187
0.128147
0.128239
0.127184
0.128152
0.131179
0.136613
0.150996
0.167141
0.189218
0.241415
0.283886
0.339551
0.418054
0.53613
0.623029
0.664293
0.687101
0.649434
0.481487
0.304476
0.206406
0.206526
0.209023
0.253554
0.283843
0.301268
0.287408
0.221237
0.19249
0.182097
0.193106
0.184335
0.171197
0.164451
0.157419
0.151791
0.144377
0.139412
0.142062
0.116426
0.117598
0.120098
0.124477
0.129491
0.135639
0.142877
0.152033
0.162872
0.189973
0.240029
0.333102
0.436194
0.484666
0.526912
0.588153
0.48563
0.538427
0.479815
0.392926
0.452621
0.296708
0.256807
0.253928
0.255492
0.222475
0.157411
0.121069
0.151387
0.180484
0.174977
0.159388
0.148491
0.135165
0.131001
0.128029
0.127169
0.129209
0.131047
0.130133
0.113312
0.112909
0.114268
0.114037
0.116626
0.121412
0.130693
0.145906
0.159145
0.185507
0.223069
0.262025
0.347218
0.472594
0.57648
0.652863
0.730022
0.741809
0.671873
0.598
0.232494
0.175759
0.0767325
0.0293197
0.0896973
0.105575
0.13215
0.173573
0.169802
0.128153
0.135876
0.126991
0.128204
0.123943
0.121272
0.119362
0.114476
0.113122
0.111584
0.109841
0.109268
0.113249
0.112943
0.11347
0.117487
0.123467
0.132331
0.141667
0.159734
0.204697
0.26273
0.338468
0.406005
0.490055
0.596279
0.689943
0.727142
0.765617
0.687153
0.572253
0.397945
0.248066
0.167498
0.109333
0.112192
0.113666
0.100778
0.0787893
0.0654955
0.0800583
0.106325
0.0988345
0.0977598
0.0937927
0.0902102
0.0905256
0.0886279
0.0867818
0.0855211
0.0882987
0.100494
0.101188
0.105633
0.113336
0.120128
0.128142
0.140757
0.151827
0.169436
0.205437
0.266019
0.362556
0.477364
0.581019
0.647948
0.728118
0.728267
0.738237
0.602522
0.52148
0.568227
0.439559
0.314935
0.202875
0.0955783
0.0495298
0.00402528
0.0111304
0.0410389
0.0525991
0.0640754
0.0584582
0.0597663
0.0583626
0.0601918
0.0632166
0.0669767
0.0684872
0.0713027
0.0696586
0.0985046
0.0997081
0.0998329
0.100984
0.103278
0.110381
0.121933
0.141829
0.17728
0.237264
0.275352
0.314837
0.407158
0.583219
0.722428
0.852194
0.92047
0.956581
0.844784
0.705843
0.60755
0.409748
0.224592
0.0957167
0.0379514
0.041575
0.0338634
0.0536234
0.0394024
0.0281893
0.0350766
0.0357315
0.0381584
0.0457555
0.0492209
0.049614
0.0493899
0.0472296
0.0459741
0.0507967
0.0882644
0.0901392
0.092027
0.0961615
0.102042
0.11325
0.127493
0.146439
0.1745
0.228859
0.318506
0.446592
0.572561
0.69321
0.788945
0.870455
0.915625
0.912408
0.856909
0.770359
0.669362
0.485425
0.30548
0.125806
0.0370795
-0.0150121
-0.0744728
-0.06641
-0.0599913
-0.0359814
-0.0170674
0.00492205
0.010553
0.0136978
0.019492
0.0228654
0.0260532
0.0285846
0.0295752
0.0307543
0.0751466
0.0724469
0.0762104
0.0815618
0.0894844
0.0999252
0.118357
0.143221
0.166481
0.21301
0.28639
0.375375
0.504443
0.63658
0.749751
0.848133
0.889536
0.971356
0.859818
0.660208
0.561516
0.28831
0.125388
0.0783442
-0.00829141
-0.0520752
-0.0808725
-0.0787224
-0.051905
-0.0160865
0.00503888
0.00281966
-0.0110364
-0.00408232
0.0028895
0.00620095
0.00898969
0.0123058
0.0141155
0.0115711
0.0685645
0.0713344
0.0703516
0.0698016
0.0731961
0.0809608
0.0969044
0.118772
0.150707
0.224177
0.294047
0.352776
0.438967
0.567605
0.693295
0.790143
0.84778
0.825874
0.76848
0.608352
0.455146
0.331546
0.145269
-0.0758714
-0.116795
-0.116092
-0.0916601
-0.0508179
-0.0358263
-0.0486701
-0.0391591
-0.024599
-0.0152926
-0.0123974
-0.0091737
-0.00971238
-0.00867558
-0.00994582
-0.0104142
-0.00824327
0.0518472
0.0522204
0.0562312
0.0626975
0.0709669
0.0799906
0.0968412
0.115261
0.136131
0.179084
0.251525
0.362113
0.455669
0.553362
0.612538
0.692806
0.707106
0.734647
0.645451
0.477479
0.482302
0.314147
0.129184
0.0201224
-0.0311354
-0.0713277
-0.108698
-0.11587
-0.108896
-0.0641384
-0.0387892
-0.0401031
-0.0337163
-0.0379498
-0.0364319
-0.0333986
-0.0289415
-0.0241611
-0.0216599
-0.0228829
0.0349771
0.0357654
0.036632
0.0390041
0.0438762
0.0517226
0.0642403
0.0838382
0.112989
0.157702
0.200493
0.236041
0.319603
0.426849
0.529449
0.624478
0.654309
0.673977
0.590851
0.591659
0.525341
0.312817
0.136781
0.0349278
-0.0498204
-0.0728521
-0.0705149
-0.0425715
-0.0251209
-0.035019
-0.035159
-0.04202
-0.0370984
-0.0381104
-0.0384456
-0.0382649
-0.0380862
-0.0376803
-0.037445
-0.0376112
0.0186459
0.0202745
0.0204732
0.0231583
0.0260944
0.0323843
0.042943
0.063453
0.0798688
0.118337
0.171567
0.249002
0.337665
0.44277
0.547294
0.661266
0.715045
0.755483
0.700557
0.568195
0.425121
0.377632
0.250226
0.0342268
-0.0389256
-0.0976244
-0.114999
-0.107531
-0.0958369
-0.084049
-0.0638138
-0.057837
-0.054697
-0.0547646
-0.0529562
-0.0535107
-0.0539609
-0.0552829
-0.0563411
-0.055299
-0.000698389
-0.0014699
0.000352424
0.00490133
0.00991112
0.0162149
0.0226605
0.0317113
0.0523373
0.0828597
0.120116
0.192952
0.263005
0.33123
0.401543
0.474649
0.542248
0.612457
0.610737
0.606934
0.567478
0.445612
0.295822
0.168053
0.0951188
0.0346866
-0.0115369
-0.0516279
-0.060571
-0.0546451
-0.0605487
-0.0639939
-0.0773312
-0.0766227
-0.0757562
-0.0753011
-0.0714714
-0.0673531
-0.0642518
-0.066938
-0.0157057
-0.0161295
-0.0164808
-0.0167392
-0.0161549
-0.0130165
-0.0137451
-0.00245523
0.0024231
0.0202583
0.0415767
0.0834714
0.141907
0.234843
0.336515
0.460457
0.526574
0.707956
0.670277
0.57806
0.469253
0.330703
0.206129
0.0886278
0.0204596
-0.0120752
-0.0219297
-0.0162788
-0.0188764
-0.0412282
-0.0611009
-0.0682255
-0.0728133
-0.0735572
-0.0760879
-0.0798293
-0.083063
-0.0867595
-0.088612
-0.0864191
-0.0376392
-0.0360135
-0.0357971
-0.0349304
-0.0320617
-0.0321244
-0.0327339
-0.0280917
-0.0157592
-0.00282852
0.0337655
0.0751104
0.107249
0.146239
0.196302
0.262346
0.365119
0.402106
0.42437
0.464295
0.461266
0.370681
0.23469
0.0816848
0.0514172
-0.00913444
-0.0575091
-0.0875154
-0.0898548
-0.0885514
-0.0840813
-0.0908123
-0.0956268
-0.0980009
-0.0982649
-0.100878
-0.101428
-0.101146
-0.100249
-0.0989776
-0.0563408
-0.0575365
-0.056877
-0.0562637
-0.0556467
-0.0576209
-0.0580307
-0.05831
-0.0581466
-0.0537279
-0.0507488
-0.0230448
0.0028856
0.0391292
0.105711
0.192707
0.298266
0.375595
0.418081
0.357883
0.389031
0.135682
0.0766124
0.0199564
-0.013896
-0.0514772
-0.0617771
-0.0653235
-0.0597218
-0.0670275
-0.0986596
-0.106778
-0.106217
-0.107904
-0.108357
-0.109097
-0.109707
-0.108438
-0.107118
-0.112282
-0.073175
-0.0710946
-0.0729113
-0.0761802
-0.0796453
-0.0826055
-0.0841965
-0.0817841
-0.0804751
-0.0823543
-0.0748431
-0.0714224
-0.0398691
0.0131439
0.0781502
0.156802
0.246428
0.320789
0.369409
0.35889
0.302066
0.190858
0.0719212
-0.0352214
-0.0612007
-0.0779121
-0.0830678
-0.0754922
-0.0788965
-0.100828
-0.108096
-0.114685
-0.118141
-0.11884
-0.120651
-0.122076
-0.125659
-0.129034
-0.13166
-0.129814
-0.0908709
-0.0913681
-0.0909257
-0.0898905
-0.0907915
-0.0927984
-0.0924736
-0.0977455
-0.0986631
-0.0977669
-0.0861455
-0.0799607
-0.0782544
-0.0803509
-0.0644044
-0.0121907
0.0726219
0.132376
0.201567
0.271978
0.352342
0.350266
0.258815
0.13609
0.143764
0.0481731
-0.0367309
-0.0931982
-0.119386
-0.126285
-0.131097
-0.139378
-0.146013
-0.149606
-0.149504
-0.148382
-0.147635
-0.145092
-0.142979
-0.144745
-0.104375
-0.106807
-0.107588
-0.109083
-0.113097
-0.115708
-0.117674
-0.120319
-0.123263
-0.135286
-0.159803
-0.15862
-0.141241
-0.0989969
-0.0718408
0.0108294
0.104917
0.24238
0.334052
0.377658
0.345197
0.260846
0.130594
0.0871559
0.0843878
0.0391424
0.0032437
-0.0309698
-0.0565379
-0.0936429
-0.142458
-0.151755
-0.1579
-0.159492
-0.159283
-0.15905
-0.159699
-0.160773
-0.160737
-0.159773
-0.119042
-0.118236
-0.120033
-0.12289
-0.126416
-0.128513
-0.130442
-0.130929
-0.13037
-0.122835
-0.106749
-0.0915223
-0.0788502
-0.0622497
-0.0444273
0.0110597
0.0621598
0.139671
0.24502
0.332461
0.403152
0.404628
0.288848
0.155105
0.0607857
-0.0160292
-0.0749574
-0.127165
-0.150309
-0.162093
-0.174517
-0.175629
-0.176517
-0.174444
-0.176253
-0.176555
-0.177022
-0.177567
-0.17716
-0.175565
-0.135974
-0.139271
-0.137669
-0.135108
-0.132932
-0.132
-0.132482
-0.133292
-0.13235
-0.126394
-0.118666
-0.114647
-0.114787
-0.115883
-0.11599
-0.0875554
0.074775
0.165736
0.262787
0.279691
0.283021
0.232157
0.140027
0.0687308
0.0800713
0.00334116
-0.0616804
-0.127684
-0.170331
-0.185862
-0.182633
-0.186652
-0.195613
-0.19648
-0.195556
-0.193724
-0.189814
-0.187478
-0.185569
-0.185969
-0.144813
-0.144337
-0.145727
-0.148389
-0.1503
-0.150805
-0.147932
-0.146232
-0.13546
-0.127957
-0.129609
-0.125333
-0.0954985
-0.0416714
-0.0557379
0.0315601
0.0556705
0.144822
0.219356
0.202443
0.170361
0.163814
0.0460722
-0.0192327
-0.111705
-0.176788
-0.192425
-0.187425
-0.188029
-0.192405
-0.211777
-0.216452
-0.210572
-0.205978
-0.204686
-0.202303
-0.201339
-0.201899
-0.201831
-0.201341
-0.157858
-0.155893
-0.155205
-0.15344
-0.152458
-0.15083
-0.147539
-0.141666
-0.132768
-0.114765
-0.0838907
-0.0597241
-0.0527987
-0.0487765
-0.0500271
-0.0135106
-0.0305041
0.00373353
0.0758674
0.123229
0.14586
0.0657942
0.0123903
-0.0702934
-0.148876
-0.199792
-0.239931
-0.262213
-0.282382
-0.274992
-0.253749
-0.240637
-0.237467
-0.228705
-0.225525
-0.219864
-0.216525
-0.213899
-0.212846
-0.212948
-0.172565
-0.174305
-0.172401
-0.170103
-0.167869
-0.162082
-0.157616
-0.149736
-0.133885
-0.120378
-0.116021
-0.104897
-0.0952133
-0.0804187
-0.0588913
-0.0125142
0.0648903
0.108094
0.168074
0.118851
0.0202442
-0.0973077
-0.184564
-0.237056
-0.280216
-0.30444
-0.293953
-0.277279
-0.264442
-0.258488
-0.262679
-0.25783
-0.250359
-0.243002
-0.237152
-0.230998
-0.226697
-0.22415
-0.222571
-0.222898
-0.18435
-0.182997
-0.184065
-0.185727
-0.186417
-0.184383
-0.177623
-0.172787
-0.155736
-0.134075
-0.101651
-0.0597089
-0.00686354
0.070534
0.110386
0.180961
0.16707
0.163628
0.131855
0.0707246
-0.0250782
-0.116963
-0.224413
-0.348879
-0.444282
-0.45663
-0.440874
-0.397231
-0.349996
-0.311737
-0.286133
-0.272848
-0.26059
-0.250913
-0.244932
-0.240117
-0.23704
-0.235149
-0.234021
-0.232833
-0.199426
-0.201404
-0.200434
-0.199322
-0.196098
-0.191165
-0.189675
-0.176767
-0.159067
-0.130767
-0.099126
-0.0644543
-0.0427924
-0.0159492
0.00304802
0.0517213
0.07901
0.118723
0.12022
0.0696185
-0.0178676
-0.105576
-0.265523
-0.334608
-0.362611
-0.37026
-0.367828
-0.347955
-0.339615
-0.322049
-0.301429
-0.285761
-0.275299
-0.267929
-0.260807
-0.253683
-0.24697
-0.240554
-0.237137
-0.234364
-0.214643
-0.215467
-0.215456
-0.216251
-0.214642
-0.214484
-0.20984