/*--------------------------------*- C++ -*----------------------------------*\
| =========                 |                                                 |
| \\      /  F ield         | OpenFOAM: The Open Source CFD Toolbox           |
|  \\    /   O peration     | Version:  v2106                                 |
|   \\  /    A nd           | Website:  www.openfoam.com                      |
|    \\/     M anipulation  |                                                 |
\*---------------------------------------------------------------------------*/
FoamFile
{
    version     2.0;
    format      ascii;
    arch        "LSB;label=32;scalar=64";
    class       volVectorField;
    location    "0";
    object      U;
}
// * * * * * * * * * * * * * * * * * * * * * * * * * * * * * * * * * * * * * //

dimensions      [0 1 -1 0 0 0 0];

internalField   nonuniform List<vector> 
11644
(
(0.000140462 9.06834e-06 2.55595e-21)
(0.000134642 -7.39715e-06 7.04856e-21)
(0.000127154 1.95777e-05 3.78173e-21)
(0.000109341 2.68995e-05 0)
(0.000119758 4.83713e-05 0)
(0.000141883 6.68231e-05 0)
(0.000153384 6.15022e-05 0)
(0.000142743 6.02302e-05 0)
(0.00016102 5.16306e-05 0)
(0.00017222 2.72164e-05 0)
(0.000119805 -3.45936e-05 0)
(7.77902e-05 -0.000103424 0)
(0.000202386 -0.000219614 0)
(0.000307246 -0.00029678 0)
(0.000110301 -0.000333737 0)
(7.132e-06 -0.000489136 0)
(0.00018605 -0.000257303 0)
(0.0007177 3.04634e-05 0)
(0.000661533 0.000110187 0)
(0.000111823 0.000471201 -1.9554e-31)
(0.000105934 0.00113661 2.28688e-31)
(0.000302988 0.00119997 0)
(0.000312799 0.000847312 0)
(0.000266163 0.000616769 0)
(0.00023971 0.000590617 0)
(9.40083e-05 0.000499649 0)
(-0.000174983 0.00025591 0)
(-3.45043e-05 8.91669e-05 0)
(0.000156038 -0.000105157 0)
(0.000128245 -0.00025024 0)
(0.000117224 -0.000337731 0)
(0.000121249 -0.000400824 0)
(0.000114407 -0.000411904 0)
(9.64137e-05 -0.000389004 0)
(7.10012e-05 -0.00034508 0)
(5.45681e-05 -0.00028913 0)
(6.21027e-05 -0.000229388 0)
(4.79655e-05 -0.000180514 0)
(4.53436e-05 -0.000138296 0)
(7.24695e-05 -4.76729e-05 4.95573e-22)
(0.000194196 -5.03634e-05 3.2831e-21)
(0.00014535 -0.000100596 3.04121e-21)
(8.48451e-05 -0.000214621 1.63334e-21)
(3.32126e-05 -0.000282922 0)
(4.47195e-05 -0.000307235 0)
(3.23652e-05 -0.000313251 0)
(1.41421e-05 -0.00028063 0)
(2.11688e-06 -0.00022332 0)
(-3.62431e-05 -0.000158191 0)
(-7.92168e-05 -7.07626e-05 0)
(6.57497e-05 7.49373e-05 0)
(0.000113069 0.00011731 0)
(3.17724e-05 0.000252663 0)
(-0.000135931 0.000319587 0)
(9.84398e-05 0.000395697 0)
(0.00036926 0.00066768 1.81224e-22)
(0.000276512 0.000756267 1.12251e-21)
(-0.000404328 0.00155407 -8.70709e-21)
(-0.000543078 0.00305104 5.58797e-21)
(6.73203e-05 0.00412969 -4.95765e-21)
(0.000698875 0.00444185 1.01173e-20)
(0.00111836 0.00428755 -3.73025e-21)
(0.000994381 0.00378105 1.58682e-21)
(0.000784712 0.00323528 -1.38987e-21)
(0.000787677 0.00265852 1.22118e-22)
(0.000779787 0.00201173 0)
(0.000988461 0.00141384 0)
(0.000820198 0.000862032 0)
(0.000333394 0.000461112 0)
(0.000197504 0.000133317 0)
(0.000169358 -0.000145713 0)
(5.47288e-05 -0.000305378 0)
(-2.12987e-05 -0.000397851 0)
(-5.25959e-05 -0.000434026 0)
(-4.72812e-05 -0.000448928 0)
(-6.61556e-05 -0.000431868 0)
(-5.68778e-05 -0.000387726 0)
(-9.5862e-05 -0.000307949 0)
(-0.00010958 -0.000179328 0)
(-8.36579e-05 -9.8559e-05 0)
(0.000543155 -6.52129e-05 0)
(0.000443368 -0.000345 0)
(0.000330322 -0.000478065 0)
(0.000247195 -0.000629893 0)
(0.000165985 -0.000800773 2.99906e-21)
(6.09941e-05 -0.000924528 0)
(-5.34086e-05 -0.000951304 0)
(-0.000194767 -0.000902034 0)
(-0.000318051 -0.00074274 0)
(-0.000430478 -0.000479704 0)
(-0.00068044 -0.000202814 0)
(-0.000619055 0.000235647 0)
(-0.000545091 0.000637458 -1.76299e-22)
(-1.73258e-06 0.00111296 5.40361e-21)
(-5.41672e-05 0.00165622 5.19139e-21)
(-0.000463116 0.0022643 -1.58308e-20)
(-0.000790412 0.00310664 6.21514e-20)
(-0.00100516 0.00393551 -6.85459e-20)
(-0.000946181 0.00492416 4.83478e-20)
(-0.000208974 0.00575937 5.19962e-20)
(0.000315063 0.00643096 -6.51456e-21)
(0.000851106 0.00690447 -5.07956e-20)
(0.00117637 0.00707074 3.25294e-20)
(0.00159044 0.00650432 -7.05629e-20)
(0.00158034 0.00531186 1.38373e-20)
(0.00171885 0.00410364 -1.31776e-21)
(0.00152778 0.00292466 -6.58439e-21)
(0.00130508 0.00193869 1.77536e-22)
(0.00135302 0.00097345 0)
(0.00102065 0.00034657 0)
(0.000580631 -4.40627e-07 0)
(0.000369483 -0.000291935 0)
(0.000177839 -0.000437273 0)
(5.9109e-05 -0.000500067 0)
(-5.84506e-05 -0.00051143 0)
(-0.000108321 -0.000476027 0)
(-0.000155598 -0.000409862 0)
(-0.000182386 -0.000291931 0)
(-0.000166374 -0.000202665 0)
(-0.00014886 3.65757e-05 0)
(0.000959329 -0.000342216 0)
(0.000893904 -0.00063129 0)
(0.000783113 -0.000955931 0)
(0.000654326 -0.00127275 0)
(0.000487667 -0.00152756 0)
(0.000296994 -0.00174808 0)
(4.7939e-05 -0.00188369 0)
(-0.000202039 -0.00190804 0)
(-0.000514539 -0.00177912 0)
(-0.000872908 -0.00149931 0)
(-0.000986456 -0.000877912 -2.78994e-22)
(-0.00119135 -0.000233749 1.83994e-21)
(-0.00118182 0.000697596 1.94132e-20)
(-0.0019442 0.00145699 -7.51702e-20)
(-0.00224469 0.00201069 1.35592e-19)
(-0.00224065 0.00324575 -1.21587e-20)
(-0.00219568 0.00419845 -6.06327e-20)
(-0.0020481 0.00477107 4.00331e-21)
(-0.00152746 0.00608792 -1.01406e-19)
(-0.000706885 0.00754803 7.17564e-20)
(0.000191733 0.00848603 -2.27897e-20)
(0.000844982 0.009112 1.17571e-19)
(0.00166725 0.00945538 -5.64733e-20)
(0.00303122 0.00894649 7.88078e-21)
(0.00399103 0.00765039 5.41449e-20)
(0.00386609 0.00575202 -1.43396e-19)
(0.00339398 0.00378785 8.06575e-20)
(0.00297476 0.0021652 -1.57891e-20)
(0.00204424 0.00112319 -4.96968e-21)
(0.0015751 0.000209608 2.85536e-22)
(0.00125654 -0.000403978 0)
(0.000769125 -0.000597134 0)
(0.000422582 -0.00069774 0)
(0.000173847 -0.00070383 0)
(-2.8349e-05 -0.000654003 0)
(-0.000135878 -0.000587466 0)
(-0.000208454 -0.000480954 0)
(-0.00027428 -0.000322803 0)
(-0.000308884 -0.000109724 0)
(-0.000281498 -0.000197368 0)
(0.00159591 -0.000143376 0)
(0.00150208 -0.000864981 0)
(0.00137442 -0.00157298 0)
(0.00117324 -0.00213319 0)
(0.000924021 -0.00266817 0)
(0.000622338 -0.00307524 0)
(0.000299341 -0.00335587 0)
(-8.15724e-05 -0.00350698 0)
(-0.000535152 -0.00349087 0)
(-0.00101568 -0.00311891 2.7195e-21)
(-0.00179165 -0.00230856 2.17142e-20)
(-0.00275249 -0.00104488 -8.53076e-20)
(-0.00404949 -7.55643e-05 4.0525e-20)
(-0.00417121 0.000991915 2.28492e-19)
(-0.00430876 0.0019644 -1.07814e-19)
(-0.00580973 0.00330474 8.23413e-20)
(-0.00505849 0.00436574 -2.27041e-19)
(-0.00330443 0.00546677 4.50953e-19)
(-0.00194064 0.00755463 -7.11254e-19)
(-0.000872735 0.00906063 2.56317e-19)
(0.00089335 0.0102373 -9.861e-21)
(0.00225693 0.0110341 3.94729e-19)
(0.00330545 0.0110596 -3.29204e-19)
(0.0051992 0.0108057 5.74797e-20)
(0.00628679 0.00928448 1.18456e-21)
(0.00666371 0.0068677 1.77562e-19)
(0.00641215 0.00445555 -2.45365e-19)
(0.00470497 0.00245661 -5.74463e-20)
(0.00358014 0.000784055 7.84897e-20)
(0.00231019 -0.000124389 -2.2649e-20)
(0.00148019 -0.000622115 2.35413e-21)
(0.00100542 -0.000869795 0)
(0.000535158 -0.000842788 0)
(0.000207709 -0.000779036 0)
(-5.25577e-05 -0.000672264 0)
(-0.000237794 -0.000555838 0)
(-0.000374992 -0.00042388 0)
(-0.000447446 -0.000340238 0)
(-0.000472942 -0.000210724 0)
(-0.000527185 0.000167151 0)
(0.00247932 -0.000601954 0)
(0.0023828 -0.00138584 0)
(0.00226208 -0.00200395 0)
(0.00210115 -0.00283115 0)
(0.00179546 -0.00367142 0)
(0.00143737 -0.00440697 0)
(0.000978142 -0.00508884 0)
(0.000406872 -0.00557655 0)
(-0.000243941 -0.0057514 -2.85427e-21)
(-0.00144394 -0.00551634 -1.08995e-20)
(-0.00361818 -0.00484481 5.65472e-20)
(-0.00630164 -0.00385027 -2.45707e-20)
(-0.00790984 -0.001333 -5.42179e-20)
(-0.0096081 0.00113936 -1.1195e-19)
(-0.00968782 0.00143302 1.22884e-19)
(-0.00750114 0.00254585 -6.39852e-20)
(-0.00677102 0.00485781 1.81276e-19)
(-0.00539206 0.00683896 -1.99569e-19)
(-0.00342493 0.00782204 1.15028e-19)
(-0.00191476 0.00944773 -2.07901e-19)
(0.000849422 0.0115909 2.37667e-19)
(0.00266979 0.0116914 -9.08829e-20)
(0.00412675 0.0114985 1.31339e-19)
(0.00587728 0.0105945 1.9476e-20)
(0.00659289 0.00967629 -9.88951e-20)
(0.00745505 0.00769143 -1.73337e-19)
(0.00735317 0.00491752 1.77567e-19)
(0.00663139 0.00260542 2.34436e-20)
(0.00513962 0.00138397 -1.02608e-20)
(0.00327435 0.000479979 -2.02393e-20)
(0.00170141 -6.21445e-05 9.73283e-21)
(0.000903492 -0.000353179 -4.02457e-21)
(0.000489759 -0.000406196 0)
(9.58018e-05 -0.0003359 0)
(-0.000203032 -0.00023065 0)
(-0.000413659 -9.85188e-05 0)
(-0.000575813 3.16583e-06 0)
(-0.000620861 0.000131966 0)
(-0.000658246 6.76837e-05 0)
(-0.000660954 -0.000199573 0)
(0.00369818 -0.000486051 0)
(0.00362654 -0.00152247 0)
(0.00346605 -0.0029469 0)
(0.00325897 -0.00411052 0)
(0.00296456 -0.00514059 0)
(0.0025493 -0.00620401 0)
(0.00201563 -0.0071765 0)
(0.00130999 -0.00799424 -8.6364e-23)
(-0.000107907 -0.00856911 -4.31093e-21)
(-0.00261073 -0.00868914 2.42572e-20)
(-0.00545307 -0.00766271 -3.89357e-20)
(-0.00815785 -0.00475255 -1.70969e-19)
(-0.0110454 -0.0021676 1.75678e-19)
(-0.0120424 -0.000193351 -5.59144e-20)
(-0.0125708 0.0037905 1.83496e-19)
(-0.0127288 0.0047234 -1.29335e-19)
(-0.00960843 0.0034831 7.1056e-20)
(-0.00846535 0.00566079 -1.23608e-19)
(-0.00699689 0.00772253 -2.21095e-19)
(-0.00495242 0.00942029 1.55712e-20)
(-0.00162603 0.0105668 -2.09743e-19)
(0.000537697 0.010567 -3.69315e-19)
(0.00262022 0.0113029 -1.61962e-19)
(0.0049174 0.0115146 1.66823e-20)
(0.00625126 0.00980895 4.69142e-20)
(0.00694035 0.00863419 -1.18267e-19)
(0.00978257 0.00667604 -1.47389e-20)
(0.00766462 0.00487061 3.24361e-20)
(0.00723897 0.00311932 5.18257e-20)
(0.00548009 0.00148648 -2.08746e-20)
(0.00304085 0.000783161 -4.10664e-20)
(0.0011976 0.00052588 1.34774e-20)
(0.000335615 0.00027801 -4.19242e-22)
(-2.88461e-05 0.000230034 0)
(-0.000329522 0.000219136 0)
(-0.000496239 0.000187014 0)
(-0.000629131 0.000120248 0)
(-0.000656436 -3.92445e-05 0)
(-0.000623518 -2.93342e-05 0)
(-0.000659887 0.000147134 0)
(0.0052779 -0.00052107 0)
(0.00520118 -0.00222693 0)
(0.00511216 -0.00331373 0)
(0.00492203 -0.00470797 0)
(0.00462643 -0.00620039 0)
(0.004233 -0.00769285 0)
(0.00366957 -0.00924787 0)
(0.00258982 -0.0106182 -5.69194e-21)
(-3.52444e-05 -0.0113552 2.229e-20)
(-0.00346053 -0.0109476 5.4265e-21)
(-0.007141 -0.00955813 -2.45506e-20)
(-0.0107027 -0.00810129 -4.19733e-20)
(-0.0152502 -0.0042936 -7.14652e-20)
(-0.0146049 0.000491778 2.2066e-19)
(-0.0161637 0.000168131 -3.03131e-20)
(-0.0182936 0.00300929 -1.5395e-19)
(-0.0142974 0.00605182 1.17683e-19)
(-0.012147 0.00413511 -1.93277e-19)
(-0.00880902 0.00597963 2.13762e-19)
(-0.00620443 0.00661251 -1.65177e-19)
(-0.00314067 0.0077111 -3.84969e-19)
(-0.00123278 0.0095037 5.34421e-19)
(0.00111584 0.0106363 -3.83607e-19)
(0.00431279 0.0105977 9.58149e-20)
(0.00603734 0.00879308 -2.96878e-21)
(0.00746665 0.00963264 -2.87623e-19)
(0.00812278 0.0102003 1.94606e-19)
(0.00973073 0.00762584 -8.02715e-20)
(0.00944826 0.0072257 6.02969e-20)
(0.00769781 0.00460748 3.1369e-20)
(0.00501886 0.00247618 -1.95053e-20)
(0.00239282 0.00126237 -1.67606e-20)
(0.000448503 0.00096403 6.44665e-21)
(-0.000184206 0.00083724 0)
(-0.000361241 0.000900561 0)
(-0.000491671 0.000945555 0)
(-0.000514039 0.000956525 0)
(-0.000489236 0.000847788 0)
(-0.000459697 0.000616238 0)
(-0.00050812 0.000116882 0)
(0.00701271 -0.00122137 0)
(0.00704668 -0.00215185 0)
(0.00697647 -0.00405831 0)
(0.00694552 -0.00560434 0)
(0.00671418 -0.00730324 0)
(0.00648852 -0.00918784 0)
(0.00608924 -0.0110625 -1.19227e-22)
(0.00431212 -0.0125021 5.13395e-22)
(0.000393611 -0.0132121 -5.98423e-21)
(-0.00372726 -0.0126711 2.69003e-21)
(-0.00781269 -0.0110744 1.63234e-21)
(-0.0118409 -0.00993768 -2.23857e-20)
(-0.0154391 -0.00377038 3.67521e-20)
(-0.0154639 -0.00138961 -9.30519e-20)
(-0.0191285 -0.00161272 -1.00726e-19)
(-0.0156408 0.00208107 -7.34167e-21)
(-0.0177136 0.00414635 6.25516e-20)
(-0.0126257 0.00728096 -2.83421e-19)
(-0.0087508 0.00428817 4.77975e-19)
(-0.00677278 0.00406207 -4.08669e-19)
(-0.00497869 0.00321969 -4.49983e-19)
(-0.0036428 0.00496335 -1.03252e-19)
(-0.00139802 0.00763815 1.59203e-19)
(0.00202204 0.00863305 -1.8957e-19)
(0.00293177 0.010705 -1.21756e-19)
(0.00869423 0.0115954 2.67949e-20)
(0.0117227 0.0120672 -7.67797e-20)
(0.0134879 0.00954635 -5.81185e-20)
(0.012831 0.0107275 9.50841e-20)
(0.0110291 0.00784313 -3.54621e-20)
(0.00772643 0.0053523 2.90228e-20)
(0.00428587 0.0031816 -2.43781e-20)
(0.00114264 0.00208987 4.58114e-21)
(-0.000276967 0.00176318 -1.5999e-21)
(-0.000380365 0.00167595 0)
(-0.000372095 0.00160912 0)
(-0.000368741 0.00135897 0)
(-0.000219702 0.00110147 0)
(-0.000214807 0.000503424 0)
(-0.000175047 0.000262809 0)
(0.00880605 -0.000346478 0)
(0.00890676 -0.00294671 0)
(0.00898577 -0.00446265 0)
(0.00911019 -0.00636048 0)
(0.00919055 -0.00828181 0)
(0.00925121 -0.010276 0)
(0.00897051 -0.0123736 -8.53256e-22)
(0.00623308 -0.0139783 -1.17774e-20)
(0.00112849 -0.0141011 6.90778e-21)
(-0.00351784 -0.013262 5.53656e-21)
(-0.00767119 -0.0125421 -1.53779e-20)
(-0.0121102 -0.0114507 1.6453e-20)
(-0.0165985 -0.00680407 -7.46631e-21)
(-0.0188952 -0.00587481 3.60293e-20)
(-0.0199988 -0.00463216 -3.52508e-20)
(-0.0178026 0.00398584 -1.41816e-20)
(-0.0151141 0.0028846 1.93393e-20)
(-0.0108559 0.00542475 2.78916e-20)
(-0.0072035 0.00463923 1.87949e-19)
(-0.00410358 -0.000284608 -4.78191e-20)
(-0.00662168 -0.0030652 4.29592e-20)
(-0.00837621 -5.20573e-05 -2.45746e-19)
(-0.00759607 0.00511957 7.97796e-20)
(-0.00151628 0.00925204 -3.4563e-20)
(0.00348149 0.0117708 3.27284e-20)
(0.00771315 0.0105825 -1.77522e-19)
(0.0118954 0.0159049 1.5883e-20)
(0.017245 0.0115862 1.71288e-20)
(0.0173463 0.0125132 -8.86896e-21)
(0.0156162 0.0108355 2.37329e-21)
(0.0114953 0.00835937 -6.38235e-21)
(0.00701565 0.00555395 7.81616e-21)
(0.00265234 0.0037432 -1.19051e-21)
(-0.00013252 0.00298599 -2.31408e-22)
(-0.000444106 0.00263334 0)
(-0.000327447 0.0022466 0)
(-0.000192363 0.00176519 0)
(-4.04341e-05 0.00121021 0)
(0.000236198 0.000937436 0)
(0.000240042 0.000224804 0)
(0.0105192 -0.00105671 0)
(0.0106064 -0.00218609 0)
(0.0108121 -0.00415327 0)
(0.0110956 -0.00612018 0)
(0.0115727 -0.00813333 0)
(0.012146 -0.0104516 0)
(0.0115292 -0.0124831 -1.63145e-21)
(0.00748893 -0.0139714 3.40866e-21)
(0.0016891 -0.0144387 -4.8275e-21)
(-0.00341711 -0.0138452 8.38774e-22)
(-0.00749586 -0.0140398 2.27203e-21)
(-0.0108565 -0.0153052 2.3016e-20)
(-0.0138915 -0.0160399 -2.71843e-20)
(-0.020481 -0.0116525 3.37303e-20)
(-0.0187007 -0.00812546 -2.4332e-20)
(-0.0243503 -0.00438805 -2.31996e-21)
(-0.0223317 0.00278687 1.11009e-20)
(-0.0139811 0.00768762 -3.37258e-20)
(-0.000647148 0.00982118 1.491e-20)
(0.0102364 -0.00334724 -5.01063e-19)
(-0.00334807 -0.0210371 5.39008e-20)
(-0.0225704 -0.00982084 1.14956e-19)
(-0.0172468 0.00670297 -6.03359e-21)
(-0.00763767 0.0123978 7.62957e-22)
(0.000413484 0.0118671 -9.28417e-21)
(0.00849982 0.0130707 -3.70313e-20)
(0.0149667 0.014182 6.51945e-22)
(0.0191002 0.0156392 -4.9043e-21)
(0.0208905 0.0146344 2.69425e-21)
(0.0196852 0.0125057 1.12142e-20)
(0.0152369 0.0102879 2.5487e-21)
(0.0101534 0.00796751 -5.4259e-21)
(0.00471681 0.00583152 3.8419e-21)
(0.000524083 0.00457653 2.24081e-22)
(-0.000188292 0.00401386 0)
(0.000243262 0.00368899 0)
(0.000732014 0.00329704 0)
(0.000855011 0.00262908 0)
(0.000795992 0.00172907 0)
(0.000714924 0.000579961 0)
(0.0122256 -0.00112445 0)
(0.01318 -0.0030851 0)
(0.0134988 -0.00459557 0)
(0.0138503 -0.00598917 0)
(0.0143714 -0.00786841 0)
(0.014938 -0.0100063 0)
(0.0136043 -0.0119822 9.70121e-23)
(0.00821859 -0.0134807 -6.42393e-24)
(0.00247399 -0.0148359 1.02082e-21)
(-0.00219957 -0.0159684 1.68497e-22)
(-0.00680907 -0.0167118 9.78955e-22)
(-0.0101067 -0.0200312 -9.78154e-22)
(-0.0144892 -0.0217717 -2.67368e-21)
(-0.0135817 -0.0198526 2.44894e-20)
(-0.0196428 -0.0191349 1.54486e-20)
(-0.0235769 -0.0128207 1.45036e-20)
(-0.0272184 -0.00523908 -9.40364e-21)
(-0.0302377 0.00954076 3.23356e-21)
(-0.0446165 0.0709636 1.69918e-19)
(-0.00646478 0.043662 1.74082e-19)
(-0.00520533 0.0186834 2.59604e-21)
(0.00277534 0.0180298 1.11015e-20)
(0.010773 0.0194936 -6.3254e-21)
(0.0180951 0.0130103 5.28064e-22)
(0.021793 0.0185525 -9.27062e-22)
(0.0221805 0.0157653 -1.65118e-21)
(0.0200486 0.0130157 1.2714e-21)
(0.016975 0.0116941 4.91579e-23)
(0.012694 0.0102168 6.33436e-22)
(0.0068091 0.00819858 1.66392e-22)
(0.00103744 0.00637417 5.74464e-23)
(-0.000355799 0.00534807 0)
(0.000238834 0.00462564 0)
(0.000650642 0.00363727 0)
(0.00110003 0.00262721 0)
(0.00115667 0.00128333 0)
(0.00182436 0.000930376 0)
(0.0147614 -0.000587756 0)
(0.0140574 -0.00117497 0)
(0.0146354 -0.00320107 0)
(0.0154792 -0.00503098 0)
(0.0163702 -0.00686626 0)
(0.0173038 -0.00901852 0)
(0.0153041 -0.0110103 4.66085e-22)
(0.00929474 -0.0128962 -5.35219e-22)
(0.00295361 -0.0146154 -2.02972e-21)
(-0.00192493 -0.0176433 4.26943e-21)
(-0.00712989 -0.0199276 -5.81683e-21)
(-0.010372 -0.0254768 7.59154e-21)
(-0.0137885 -0.0325128 3.78675e-21)
(-0.0186619 -0.0318983 1.72578e-20)
(-0.026801 -0.0349622 -4.93433e-20)
(-0.032525 -0.0316051 -9.70117e-21)
(-0.0422103 -0.0249837 -1.44098e-20)
(-0.0730129 -0.0108248 2.11947e-21)
(-0.00902368 0.0580005 4.69897e-18)
(0.0217741 0.0568183 5.33164e-19)
(0.00729654 0.0106924 -4.96682e-21)
(0.000267518 0.0100009 -2.11778e-20)
(0.0032746 0.0156161 9.06023e-21)
(0.0116226 0.0142467 1.66254e-20)
(0.015241 0.0194826 3.097e-21)
(0.0183703 0.0165014 -6.24302e-21)
(0.0195534 0.0141431 2.27528e-21)
(0.0173627 0.0137825 -9.19692e-22)
(0.0130874 0.0127553 1.89784e-21)
(0.00774687 0.0107757 -1.07766e-21)
(0.00218811 0.00896819 -1.35669e-22)
(0.000312757 0.00760911 0)
(0.00113145 0.00625132 0)
(0.0020198 0.00471725 0)
(0.00284447 0.00318273 0)
(0.00350022 0.00224715 0)
(0.00248796 -0.000435823 0)
(0.01593 0.0010637 -8.12453e-25)
(0.016886 -0.00174438 0)
(0.0172226 -0.00321027 0)
(0.0176404 -0.00449267 0)
(0.0185117 -0.00577018 0)
(0.0195038 -0.0075708 0)
(0.0171029 -0.00956478 1.3333e-22)
(0.0105558 -0.0119966 1.8984e-21)
(0.00423817 -0.0145179 -2.95905e-22)
(-0.000223327 -0.0189833 -5.98924e-21)
(-0.00361957 -0.0233728 -2.4119e-20)
(-0.00761547 -0.0322684 -7.23694e-21)
(-0.00978683 -0.0419128 3.83539e-20)
(-0.0164394 -0.047512 -3.17895e-21)
(-0.0236003 -0.0545821 -1.3977e-19)
(-0.0329991 -0.0532987 -4.68854e-20)
(-0.0468878 -0.0526087 -2.26785e-20)
(-0.199138 -0.0146299 3.30479e-20)
(-0.0876506 0.0657857 1.72495e-19)
(0.101043 0.0130147 1.0532e-19)
(0.0176937 -0.00709269 1.42381e-20)
(-0.00946612 0.00111963 -9.12161e-20)
(-0.00612874 0.0112786 2.76628e-20)
(0.000625613 0.016695 -1.60448e-19)
(0.0070459 0.0215272 -7.24378e-21)
(0.0120859 0.0193644 2.60542e-21)
(0.014626 0.0197507 9.35745e-21)
(0.01581 0.0181955 -2.31781e-20)
(0.0139339 0.0160175 -7.40686e-21)
(0.00942156 0.0143537 -1.16498e-22)
(0.00362215 0.0125346 1.4272e-21)
(0.00241486 0.0106379 0)
(0.00385486 0.00882674 0)
(0.00473418 0.00675443 0)
(0.00465747 0.00464024 0)
(0.00440272 0.00266507 0)
(0.00469141 0.002551 0)
(0.0209479 -0.00165079 -4.67382e-24)
(0.0197237 -0.00203867 0)
(0.0200888 -0.0017199 0)
(0.0205366 -0.00254838 0)
(0.0213322 -0.00373601 0)
(0.0224283 -0.00539113 0)
(0.0207197 -0.00781244 -5.38903e-22)
(0.0150671 -0.0112683 -5.0698e-21)
(0.0106823 -0.0153719 -7.62714e-21)
(0.00674856 -0.0224511 1.6212e-20)
(0.00374276 -0.0307611 -6.08856e-21)
(0.0022858 -0.040881 -1.8564e-20)
(0.00030344 -0.0534377 2.5344e-20)
(-0.00484557 -0.059979 -4.13479e-20)
(-0.00789434 -0.0734674 1.6841e-19)
(-0.0220267 -0.0814689 -2.21175e-20)
(-0.0470459 -0.0908219 2.01151e-19)
(-0.366867 -0.036212 -1.73133e-19)
(-0.0240033 -0.0520425 -2.95016e-20)
(-0.148553 0.0321468 -9.49928e-20)
(0.0792627 0.121624 -4.42699e-21)
(0.168457 -0.0404975 -8.01381e-20)
(0.0441625 -0.083816 7.84583e-20)
(0.0243688 -0.0165007 3.31788e-19)
(-0.0288126 -0.000746513 1.00208e-19)
(-0.0173429 0.0123701 -1.08722e-19)
(-0.00562218 0.0179904 3.03641e-19)
(0.00583804 0.0224741 -1.14862e-19)
(0.0108986 0.0239361 6.2499e-20)
(0.0146308 0.0225889 3.23574e-20)
(0.0163413 0.0216507 9.02956e-21)
(0.0157788 0.0207959 -1.13784e-20)
(0.01236 0.0186089 5.92069e-21)
(0.00756533 0.0165161 -8.19249e-22)
(0.00551112 0.0134542 0)
(0.00708873 0.0106034 0)
(0.00789389 0.00810471 0)
(0.00826483 0.00583455 0)
(0.00866785 0.0028228 0)
(0.00882839 0.00019547 0)
(0.0190545 8.81551e-05 -4.88665e-22)
(0.0197735 -5.51244e-05 0)
(0.0206961 -0.000842577 0)
(0.0225064 -0.00122977 0)
(0.0244059 -0.0015704 0)
(0.0261979 -0.00252951 0)
(0.0269171 -0.0044183 -5.23646e-23)
(0.0235444 -0.00801574 -1.21103e-21)
(0.0215619 -0.0134477 -4.96554e-21)
(0.0202883 -0.021066 5.56183e-21)
(0.0238424 -0.0312257 -2.70311e-20)
(0.0264951 -0.0450156 -1.92505e-20)
(0.031319 -0.0644867 3.70826e-20)
(0.0213392 -0.07488 -5.37529e-21)
(0.014378 -0.0953418 -1.46969e-19)
(0.00674408 -0.115228 -1.93774e-19)
(-0.0292265 -0.135053 1.03666e-19)
(-0.46137 -0.137338 7.68704e-19)
(-0.0947728 -0.247103 -1.60891e-19)
(-0.376692 -0.012955 -8.76643e-19)
(0.183478 0.0119151 3.83072e-19)
(0.343057 -0.0514159 -2.58657e-19)
(-0.08179 -0.086956 -1.15389e-18)
(-0.0264422 -0.0103612 -4.18015e-20)
(-0.0491851 0.0141192 -4.83599e-20)
(-0.0218874 0.0200536 -9.41994e-20)
(-0.00474968 0.0220513 -1.11295e-19)
(0.00751782 0.0289823 -6.68575e-20)
(0.0160735 0.0275905 -9.23758e-20)
(0.0187617 0.0257998 2.05115e-20)
(0.0218198 0.0262265 9.72744e-21)
(0.019902 0.0235361 -1.31021e-20)
(0.0163847 0.0209295 1.69763e-21)
(0.0129865 0.0186836 -5.89827e-23)
(0.0123488 0.0158795 0)
(0.0117245 0.0121562 0)
(0.0121465 0.00843027 0)
(0.013212 0.00547179 0)
(0.0133926 0.00349087 0)
(0.013619 0.00144477 -3.41999e-23)
(0.0189579 0.000295291 -1.57022e-21)
(0.019883 0.00113183 0)
(0.0215788 0.00146926 0)
(0.0235749 0.00206214 0)
(0.0261118 0.0024068 0)
(0.0290114 0.00254126 0)
(0.0315376 0.00155649 0)
(0.0326605 -0.000727461 1.78368e-22)
(0.0350517 -0.00656658 -6.82465e-21)
(0.0388269 -0.0158243 -7.91547e-21)
(0.0439553 -0.0268748 1.10456e-20)
(0.0488451 -0.0402986 8.10299e-20)
(0.058484 -0.0628907 2.64568e-21)
(0.0583989 -0.0978824 -1.0833e-19)
(0.0453814 -0.11252 8.78317e-20)
(0.0401824 -0.130942 1.43628e-19)
(0.00161072 -0.148314 1.38284e-20)
(-0.295038 -0.22479 -3.92574e-18)
(-0.267196 -0.107298 2.44055e-19)
(-0.45946 -0.225718 8.34147e-19)
(0.135474 -0.146696 -9.51962e-19)
(0.365735 0.0398611 -1.20973e-18)
(-0.0467568 -0.0217294 -6.44096e-19)
(-0.143217 0.0558173 -1.71877e-18)
(-0.0378827 0.0435121 -9.71647e-20)
(-0.0143583 0.0449117 3.77061e-20)
(0.00918127 0.0379518 3.29543e-20)
(0.0148003 0.0311499 -2.48831e-20)
(0.0210743 0.0310894 -4.6579e-20)
(0.0228715 0.0288263 -2.69343e-20)
(0.0253917 0.0279511 2.61474e-21)
(0.024221 0.0255048 1.13825e-20)
(0.0228818 0.023999 5.17707e-22)
(0.0198932 0.0212178 0)
(0.0191258 0.0166716 0)
(0.0187309 0.0127303 0)
(0.0184087 0.00945491 0)
(0.0178788 0.00651045 0)
(0.0174625 0.00409311 0)
(0.0171132 0.00137043 -4.55877e-22)
(0.0175045 0.00110396 1.75923e-22)
(0.0182347 0.00330534 0)
(0.0201639 0.00531316 0)
(0.0225285 0.00667175 0)
(0.0257364 0.00762187 0)
(0.0292354 0.00880953 0)
(0.0334097 0.00893844 0)
(0.0383361 0.00765853 0)
(0.0448843 0.00279995 -2.31982e-21)
(0.0530947 -0.00652743 2.76907e-21)
(0.0633319 -0.019722 -5.85972e-21)
(0.0743474 -0.0355624 2.61061e-20)
(0.0841173 -0.0565729 -8.88203e-20)
(0.0991041 -0.0849778 1.0843e-19)
(0.0880337 -0.115584 5.27586e-20)
(0.0755077 -0.145644 -1.89837e-19)
(-0.0332265 -0.138519 1.08343e-19)
(-0.368082 0.00822189 5.23038e-19)
(-0.0347049 -0.125438 5.51742e-20)
(-0.0731098 -0.360317 -8.4862e-19)
(-0.21832 -0.596372 -1.35931e-18)
(-0.000244176 -0.225373 -1.65012e-18)
(-0.0899322 0.278296 2.46116e-19)
(-0.109889 0.153922 -1.48121e-18)
(-0.00251115 0.0789967 -5.41292e-20)
(0.00856816 0.0483494 -1.07725e-19)
(0.0140733 0.0448191 -5.18067e-20)
(0.020164 0.0353839 7.35469e-20)
(0.0237941 0.0319004 -3.82343e-20)
(0.0258695 0.028148 2.10794e-20)
(0.0279207 0.0278234 -6.15831e-21)
(0.027146 0.0252339 9.39648e-24)
(0.0267216 0.0238415 0)
(0.024624 0.0196655 0)
(0.0241616 0.0155231 0)
(0.0231346 0.0117234 0)
(0.0220802 0.00886204 4.73416e-21)
(0.0211894 0.00634765 6.54703e-21)
(0.0208713 0.00376275 3.90406e-21)
(0.0206 0.000854622 0)
(0.0143 0.0014157 0)
(0.0150876 0.00507158 0)
(0.0168718 0.00883222 0)
(0.0193709 0.0118218 0)
(0.0230922 0.0143087 0)
(0.0275037 0.0168502 0)
(0.0334122 0.0184755 0)
(0.0414222 0.0184957 0)
(0.053128 0.0136686 6.94298e-24)
(0.0668928 0.00572244 3.19303e-22)
(0.0823829 -0.00670631 -3.18478e-21)
(0.104998 -0.0240365 7.81511e-22)
(0.121199 -0.0451082 -2.75958e-20)
(0.145674 -0.06382 3.63511e-20)
(0.146047 -0.103858 5.17895e-19)
(0.128445 -0.147834 -1.67829e-19)
(-0.247589 -0.110412 2.76466e-20)
(-0.228391 -0.12674 -6.18484e-19)
(0.0723004 -0.187231 6.08421e-19)
(0.109627 -0.114658 5.44527e-19)
(-0.232551 0.0858299 1.20459e-18)
(-0.569115 0.207077 6.08459e-19)
(-0.310554 0.080647 2.33991e-19)
(0.114988 0.131368 6.43615e-19)
(0.0166039 0.0745403 -1.93183e-20)
(0.0206495 0.0630816 6.06227e-20)
(0.030991 0.0485734 4.24722e-20)
(0.0328675 0.0308133 -2.78352e-20)
(0.0284439 0.0237072 -3.91303e-21)
(0.0270195 0.0219687 1.07336e-21)
(0.0265225 0.022068 2.59688e-23)
(0.0271826 0.0211228 1.76361e-23)
(0.0279917 0.0205442 0)
(0.0282547 0.0172004 0)
(0.0278876 0.0136767 0)
(0.0263771 0.0102432 0)
(0.0246796 0.00771661 0)
(0.0234734 0.00539289 0)
(0.0227614 0.00301373 0)
(0.0218393 0.000481731 -7.03126e-22)
(0.00873799 0.00200462 0)
(0.00953309 0.00714734 0)
(0.011133 0.0121329 0)
(0.013678 0.0166831 0)
(0.0174124 0.021152 0)
(0.0222926 0.0257659 0)
(0.0300849 0.0294873 0)
(0.0420338 0.031814 0)
(0.0595113 0.0292592 0)
(0.0792631 0.0228035 0)
(0.101386 0.0157117 7.70298e-23)
(0.128693 0.000477651 -6.49673e-23)
(0.156583 -0.0169981 2.03225e-20)
(0.188662 -0.0266222 -1.74781e-20)
(0.205216 -0.0668042 1.63914e-18)
(0.162661 -0.113564 8.79985e-20)
(-0.118682 -0.22885 9.50456e-19)
(-0.244706 -0.348693 8.85778e-20)
(-0.309275 -0.0870811 -6.19019e-20)
(-0.308494 0.189247 1.16108e-18)
(-0.311761 0.226738 6.17517e-19)
(-0.25452 0.0928983 1.55471e-18)
(-0.083823 -0.0297111 -1.25217e-19)
(-0.00797118 -0.0503981 -5.28568e-20)
(0.0119733 0.10336 9.61761e-20)
(0.0446554 0.0840845 -6.15584e-20)
(0.0656597 0.0213905 -2.01772e-20)
(0.0435203 0.0135465 2.62583e-20)
(0.029633 0.0082645 -1.64965e-20)
(0.0241031 0.0101526 -3.17209e-22)
(0.0223403 0.011969 0)
(0.0240727 0.0140795 0)
(0.027055 0.0148054 0)
(0.0309685 0.0127494 0)
(0.031554 0.00982495 0)
(0.0300556 0.00695665 0)
(0.0280769 0.00501854 0)
(0.026383 0.00336286 0)
(0.0249629 0.00197482 0)
(0.0240838 0.000547285 0)
(0.00248972 0.00270531 0)
(0.00283476 0.00894431 0)
(0.0037412 0.015445 0)
(0.00565386 0.022201 0)
(0.00872679 0.0289971 0)
(0.0136105 0.0358904 0)
(0.0227367 0.0421955 0)
(0.0386078 0.0476859 0)
(0.0608386 0.0498854 0)
(0.0866143 0.0476606 0)
(0.113561 0.0456754 0)
(0.143787 0.0374274 -2.40851e-22)
(0.179545 0.0261385 -7.74611e-23)
(0.210067 0.0136903 2.91963e-21)
(0.238026 0.00992542 5.28744e-19)
(0.239314 -0.0154125 2.06539e-19)
(0.137812 -0.0858902 3.36453e-19)
(-0.116131 -0.319388 1.8409e-20)
(-0.32763 -0.580404 -1.41466e-19)
(-0.433091 -0.659736 -1.79568e-20)
(-0.412029 -0.593634 1.27535e-19)
(-0.30544 -0.462706 1.10454e-19)
(-0.204217 -0.211094 3.10263e-19)
(-0.176074 -0.0244305 -8.18889e-20)
(-0.0678809 0.058131 4.72311e-20)
(0.15085 0.0446476 7.42935e-20)
(0.0902635 -0.0113842 -7.54326e-20)
(0.0519816 -0.00925049 1.93581e-21)
(0.0277813 -0.00912482 -1.38703e-22)
(0.0194549 -0.00203329 0)
(0.0176885 0.0022557 0)
(0.0216713 0.00661094 0)
(0.027548 0.00772149 0)
(0.034114 0.00625483 0)
(0.0349894 0.00411807 0)
(0.0326884 0.00245404 0)
(0.029999 0.00139701 0)
(0.0277824 0.000745604 0)
(0.0262135 0.000439489 0)
(0.0253032 0.000412873 0)
(-0.00784298 0.00413192 0)
(-0.00757761 0.0117109 0)
(-0.00681515 0.0192758 0)
(-0.00515635 0.0272516 0)
(-0.00241007 0.0357905 0)
(0.00197583 0.0450057 0)
(0.0115837 0.054063 0)
(0.0303281 0.0626891 0)
(0.0559957 0.0690896 0)
(0.0850274 0.0731963 0)
(0.115139 0.075097 7.46487e-21)
(0.144738 0.0785765 0)
(0.177608 0.0688313 0)
(0.187509 0.0663913 6.37898e-20)
(0.199538 0.0996052 -1.67686e-19)
(0.224494 0.103475 9.15327e-19)
(0.281539 0.11748 4.78584e-20)
(0.206647 0.0919115 1.226e-19)
(-0.043826 -0.0113041 1.83743e-19)
(-0.325591 -0.101346 5.89116e-19)
(-0.50821 -0.1647 1.06231e-19)
(-0.477291 -0.172927 2.49431e-22)
(-0.402688 -0.137983 -4.09902e-20)
(-0.35954 -0.00854703 1.54362e-20)
(-0.173875 0.066832 -6.70004e-21)
(0.2653 -0.0522338 2.10768e-19)
(0.11139 -0.0392262 7.78757e-20)
(0.0468385 -0.0372073 0)
(0.0206627 -0.0276775 0)
(0.0133436 -0.017817 -4.28504e-21)
(0.0135938 -0.0115952 0)
(0.0209692 -0.00612533 0)
(0.0298412 -0.0042867 0)
(0.0371663 -0.00376939 0)
(0.0374445 -0.00371971 0)
(0.034056 -0.00356008 0)
(0.0306469 -0.00320276 0)
(0.0280894 -0.00259571 -7.79158e-22)
(0.0265409 -0.00160108 -5.58977e-22)
(0.0260568 -0.000307679 0)
(-0.0198927 0.00384299 0)
(-0.0188628 0.0123358 0)
(-0.0179383 0.0208229 0)
(-0.016722 0.0301627 0)
(-0.0149061 0.0404409 0)
(-0.0112788 0.051688 0)
(-0.00172545 0.0628693 0)
(0.0181587 0.0740488 0)
(0.0459143 0.0836249 0)
(0.0759325 0.0930959 0)
(0.108476 0.101003 -1.08516e-20)
(0.140849 0.110919 0)
(0.174646 0.112913 0)
(0.199083 0.0927991 7.49536e-21)
(0.201214 0.0984499 -3.51295e-19)
(0.238706 0.0951461 6.62907e-20)
(0.169616 0.181686 0)
(0.00169069 0.301116 -3.89131e-20)
(-0.214688 0.385829 -9.05186e-19)
(-0.409121 0.450929 1.09899e-18)
(-0.515227 0.383817 3.7679e-18)
(-0.503693 0.340406 3.26639e-18)
(-0.375862 0.198098 -1.4071e-20)
(-0.14003 0.0215208 0)
(0.263978 -0.177167 -4.09502e-20)
(0.25059 -0.137359 -6.88845e-20)
(0.0760506 -0.0703897 -5.20892e-21)
(0.0233952 -0.0621135 0)
(0.00785974 -0.0499715 0)
(0.000563211 -0.0412291 3.34097e-20)
(0.00520126 -0.0330296 0)
(0.0155966 -0.025397 0)
(0.0270095 -0.0204825 0)
(0.0354663 -0.0161521 0)
(0.0362101 -0.013529 0)
(0.0325853 -0.0112687 1.4096e-21)
(0.0287537 -0.00919825 -1.83176e-21)
(0.0258823 -0.00703324 0)
(0.0241327 -0.00438503 0)
(0.0235935 -0.00181282 -4.30457e-21)
(-0.0293392 0.0040034 0)