/*--------------------------------*- C++ -*----------------------------------*\
| =========                 |                                                 |
| \\      /  F ield         | OpenFOAM: The Open Source CFD Toolbox           |
|  \\    /   O peration     | Version:  v2106                                 |
|   \\  /    A nd           | Website:  www.openfoam.com                      |
|    \\/     M anipulation  |                                                 |
\*---------------------------------------------------------------------------*/
FoamFile
{
    version     2.0;
    format      ascii;
    arch        "LSB;label=32;scalar=64";
    class       volScalarField;
    location    "0";
    object      p;
}
// * * * * * * * * * * * * * * * * * * * * * * * * * * * * * * * * * * * * * //

dimensions      [0 2 -2 0 0 0 0];

internalField   nonuniform List<scalar> 
11644
(
0.0249215
0.0253741
0.026327
0.0278038
0.0298165
0.0323849
0.0355352
0.0392915
0.0436682
0.0486656
0.054267
0.0604154
0.0670236
0.0739758
0.0810955
0.088185
0.095005
0.1013
0.106871
0.111499
0.114952
0.117089
0.117949
0.117749
0.116538
0.114369
0.111509
0.108188
0.104598
0.100938
0.0973528
0.0939511
0.0908176
0.0880111
0.08557
0.0835188
0.0818725
0.0806404
0.0798331
0.0794464
0.0241134
0.0245565
0.0254726
0.0268902
0.0288344
0.0313323
0.034416
0.0381168
0.0424599
0.047461
0.0531158
0.0593981
0.0662402
0.073514
0.0810491
0.0886177
0.0959615
0.10279
0.108777
0.113607
0.11709
0.119193
0.119926
0.119433
0.117848
0.115342
0.112129
0.108463
0.104587
0.100689
0.09692
0.0933911
0.0901746
0.0873193
0.0848544
0.0827984
0.0811592
0.0799412
0.0791441
0.078758
0.0223987
0.0228339
0.0237062
0.0250365
0.0268605
0.0292206
0.0321603
0.0357286
0.0399767
0.0449515
0.0506899
0.0572129
0.0644917
0.072433
0.080865
0.0895075
0.0980279
0.105961
0.112783
0.118163
0.12191
0.123975
0.12429
0.123097
0.120654
0.117273
0.113253
0.108882
0.104413
0.100054
0.0959478
0.092187
0.0888246
0.0858877
0.0833867
0.0813228
0.0796907
0.0784814
0.0776809
0.0772808
0.0198463
0.0202467
0.0210451
0.0222506
0.0239027
0.0260542
0.0287658
0.0321105
0.0361737
0.0410544
0.0468594
0.0536929
0.0616138
0.0706059
0.0805061
0.0908687
0.101187
0.110978
0.119393
0.125886
0.130075
0.131836
0.131204
0.128673
0.124804
0.119974
0.114664
0.109215
0.103886
0.0988695
0.0942976
0.090232
0.0866892
0.0836607
0.0811254
0.0790589
0.0774374
0.076236
0.0754346
0.0750282
0.0165634
0.0169018
0.0175753
0.0185979
0.0200068
0.021859
0.0242318
0.0272233
0.0309603
0.0356053
0.0413714
0.048511
0.0572415
0.0676408
0.0796052
0.0925235
0.10546
0.118435
0.129624
0.137877
0.142583
0.143476
0.141049
0.136031
0.129803
0.122757
0.115622
0.1088
0.102486
0.0967701
0.0917096
0.0873392
0.0836365
0.0805437
0.0780033
0.0759623
0.0743758
0.0732065
0.0724278
0.0720364
0.0126928
0.0129372
0.0134332
0.0141992
0.0152697
0.0167036
0.0185838
0.0210267
0.0242006
0.0283717
0.0339115
0.0412268
0.0506785
0.062581
0.0771635
0.0939
0.111093
0.129121
0.144811
0.156105
0.161457
0.160458
0.154528
0.145172
0.134941
0.124631
0.114959
0.1065
0.0992903
0.0930968
0.0877661
0.0832392
0.0794807
0.0764164
0.0739517
0.0720046
0.0705087
0.0694168
0.0686967
0.0683342
0.00838876
0.00852407
0.00879583
0.00922273
0.00984383
0.0107122
0.0119051
0.013545
0.0158468
0.0192176
0.0241412
0.0310749
0.0405208
0.0535025
0.0708608
0.0925996
0.111456
0.133997
0.155898
0.173178
0.18178
0.180515
0.171276
0.157489
0.138691
0.123818
0.111054
0.101111
0.0933164
0.0870415
0.0818946
0.0775935
0.0740354
0.0711793
0.0689309
0.0671847
0.0658619
0.0649062
0.0642865
0.0639802
0.00384257
0.00384268
0.00384969
0.00387698
0.00394676
0.00409863
0.00439772
0.00495611
0.00604233
0.0081057
0.0115784
0.0170185
0.025267
0.0384654
0.0557142
0.0781578
0.109785
0.146091
0.182239
0.21083
0.222867
0.216072
0.19559
0.170132
0.145374
0.123193
0.108192
0.0914244
0.0838399
0.0780825
0.0736636
0.0701002
0.0671529
0.0647789
0.0629385
0.0615366
0.0604942
0.0597577
0.0592806
0.0590498
-0.000721699
-0.000865816
-0.0011508
-0.00157801
-0.00214288
-0.0028319
-0.00360954
-0.00439445
-0.00492718
-0.00487076
-0.00391354
-0.00159071
0.00279575
0.0178602
0.0327762
0.0581685
0.0932864
0.143544
0.204745
0.258451
0.282973
0.267384
0.226033
0.181536
0.142733
0.112317
0.0950118
0.0762123
0.0701714
0.0660498
0.0630425
0.0607054
0.0587997
0.0572495
0.0560556
0.0551689
0.054521
0.0540673
0.0537797
0.053628
-0.00506754
-0.00534418
-0.0059296
-0.00682934
-0.00806619
-0.00966876
-0.0116569
-0.0139976
-0.016568
-0.019284
-0.0219891
-0.0244457
-0.0267223
-0.0166054
-0.009708
0.0132913
0.0497848
0.113258
0.214933
0.335701
0.396427
0.347973
0.249639
0.170042
0.11519
0.0805182
0.0684918
0.0542496
0.0524446
0.0511883
0.0502838
0.0496625
0.0491786
0.0487569
0.0484349
0.0482218
0.048087
0.0479958
0.0479422
0.0479252
-0.00889038
-0.00933569
-0.010209
-0.0115641
-0.013445
-0.0159351
-0.0191559
-0.0231657
-0.0280321
-0.034024
-0.0414037
-0.0503154
-0.0614006
-0.063094
-0.0723209
-0.0726426
-0.0617778
-0.0296501
0.0907023
0.367348
0.588986
0.389088
0.164282
0.0695428
0.0371574
0.0263317
0.0299141
0.0270704
0.0311422
0.0337911
0.0358575
0.0374986
0.03874
0.0396568
0.04038
0.0409692
0.0414321
0.041771
0.0419834
0.0420765
-0.0120417
-0.0125687
-0.0136849
-0.0154241
-0.0178636
-0.0211249
-0.0254234
-0.0309595
-0.0380338
-0.04719
-0.0592177
-0.0751436
-0.0965399
-0.10817
-0.144979
-0.178006
-0.238216
-0.358399
-0.656198
-0.373529
-0.156119
-0.0747153
-0.0374355
-0.0141145
-0.00207697
0.00804997
0.0153653
0.0208931
0.0250076
0.0281011
0.0304616
0.0323017
0.0337395
0.0348129
0.0355797
0.0360837
0.0363375
-0.0142532
-0.0148697
-0.0161454
-0.0181314
-0.0209508
-0.0247374
-0.0297489
-0.0363285
-0.0449761
-0.0564053
-0.0717068
-0.0925139
-0.120699
-0.146093
-0.199949
-0.262731
-0.372263
-0.583286
-0.842077
-0.399819
-0.276019
-0.151503
-0.0872918
-0.0508681
-0.0276338
-0.012534
-0.00136368
0.00699733
0.0132513
0.01805
0.0217835
0.0246824
0.0269039
0.0285525
0.0297409
0.0305364
0.0309389
-0.0153535
-0.0160489
-0.0173987
-0.0194946
-0.0224416
-0.0263968
-0.0316064
-0.0384739
-0.0476038
-0.0597267
-0.0759748
-0.097879
-0.127472
-0.159673
-0.216753
-0.288352
-0.398618
-0.560082
-0.64407
-0.305101
-0.247101
-0.161795
-0.105425
-0.0717766
-0.0443763
-0.0274072
-0.0143387
-0.00435428
0.00336349
0.00943657
0.0142652
0.0180409
0.020889
0.0229941
0.0244873
0.0254531
0.0259757
-0.0155073
-0.0160822
-0.0173785
-0.0193846
-0.0221824
-0.0259372
-0.0307714
-0.0370627
-0.0454652
-0.0564891
-0.0711169
-0.0902363
-0.115181
-0.147219
-0.196169
-0.264033
-0.368186
-0.533834
-0.695087
-0.738739
-0.618856
-0.373768
-0.217744
-0.166396
-0.137423
-0.103388
-0.077494
-0.0519057
-0.0357568
-0.0225811
-0.0121394
-0.00378034
0.00295256
0.00843707
0.0127533
0.0159869
0.0183795
0.0200567
0.0211241
0.0215629
-0.0146121
-0.0151032
-0.0162239
-0.0179301
-0.0203047
-0.0234346
-0.0273028
-0.0321997
-0.0386561
-0.046851
-0.0572427
-0.0704465
-0.0868476
-0.114311
-0.146643
-0.195325
-0.280293
-0.429283
-0.682173
-0.8325
-0.682369
-0.331464
-0.130791
-0.119372
-0.124791
-0.100844
-0.0781928
-0.053199
-0.0383121
-0.0259625
-0.0159259
-0.00765825
-0.000860233
0.00474253
0.00913304
0.0124666
0.0149683
0.0167206
0.0177813
0.0181509
-0.0125965
-0.0130836
-0.0139229
-0.0151826
-0.0168864
-0.0190337
-0.0215941
-0.0245307
-0.0281398
-0.0325112
-0.0376165
-0.0437883
-0.050577
-0.0564008
-0.0808064
-0.0988735
-0.146411
-0.205912
-0.315701
-0.442661
-0.442968
-0.304753
-0.213824
-0.202285
-0.148018
-0.106783
-0.0701029
-0.05071
-0.0366145
-0.0251301
-0.0158473
-0.00816843
-0.00180587
0.00333977
0.00738367
0.0105214
0.0128768
0.0145249
0.0155626
0.0160686
-0.00960091
-0.00992693
-0.0104169
-0.0111288
-0.012027
-0.0130765
-0.0142681
-0.015299
-0.0162039
-0.0169927
-0.017265
-0.0166885
-0.0143407
-0.0115557
-0.015779
-0.00925668
-0.020489
-0.0410406
-0.109163
-0.253083
-0.384228
-0.414515
-0.379598
-0.287329
-0.166344
-0.109201
-0.0640844
-0.0450984
-0.031518
-0.0208955
-0.0126436
-0.00594267
-0.000444541
0.00395744
0.00741304
0.0101015
0.0121441
0.0136156
0.0146058
0.0151428
-0.00590977
-0.00596918
-0.00613945
-0.00635481
-0.00654084
-0.0066235
-0.00652908
-0.00604016
-0.00497823
-0.00303783
0.000239973
0.00557161
0.0144567
0.0238248
0.0302982
0.0507212
0.0571069
0.0366859
-0.0744736
-0.278276
-0.44175
-0.475477
-0.3929
-0.254947
-0.139827
-0.091208
-0.050557
-0.0339594
-0.0223074
-0.0135782
-0.00691356
-0.00156662
0.00276909
0.00622401
0.00892825
0.0110455
0.0126728
0.0138634
0.0146747
0.0150973
-0.00204566
-0.0019694
-0.00186882
-0.00168787
-0.00135972
-0.000800572
0.000139246
0.00162163
0.00392323
0.00741273
0.0124605
0.0198075
0.0307135
0.0433606
0.0526343
0.0719506
0.0764652
0.0385457
-0.0647584
-0.217524
-0.318821
-0.312011
-0.232898
-0.149007
-0.0869832
-0.0583347
-0.0277988
-0.017059
-0.00921333
-0.00342837
0.00099562
0.00454554
0.00740535
0.00969414
0.0115288
0.0129944
0.0141268
0.0149528
0.015502
0.01578
0.00162224
0.00174907
0.0020334
0.00247056
0.00309294
0.00398538
0.00523772
0.00701226
0.00954359
0.0131174
0.0178827
0.0239547
0.0319082
0.0407649
0.0479958
0.0506754
0.0418307
0.00186199
-0.0630195
-0.126747
-0.156008
-0.143526
-0.110036
-0.0795364
-0.0454746
-0.0256037
-0.00471414
0.00115387
0.00527465
0.00810952
0.0100031
0.0115005
0.0127131
0.0137671
0.0147025
0.0154924
0.0161237
0.0165824
0.0168687
0.0170061
0.00513687
0.00528333
0.00561242
0.00613014
0.00684302
0.00779836
0.00903706
0.0105956
0.0125768
0.0150522
0.017984
0.0212044
0.0236965
0.0260619
0.0108753
-0.00148345
-0.033253
-0.085435
-0.136793
-0.153819
-0.140018
-0.107563
-0.0702074
-0.0375905
-0.014896
0.00742457
0.0141658
0.0172397
0.0185545
0.0186613
0.0184017
0.0181036
0.0178814
0.0178179
0.0179023
0.0180603
0.0182424
0.0184034
0.0185046
0.0185301
0.00845286
0.00860605
0.00892272
0.00942093
0.0100938
0.0109475
0.0120076
0.0132196
0.0144952
0.0156253
0.0161849
0.0164326
0.0123721
0.00358485
-0.0141733
-0.0782564
-0.141908
-0.202359
-0.259682
-0.257012
-0.198747
-0.126478
-0.0609777
-0.0144996
0.0114617
0.0250453
0.028741
0.0297301
0.0288543
0.0268852
0.0250808
0.023486
0.0222516
0.0213482
0.0207672
0.020386
0.0201666
0.0200631
0.0200301
0.0200303
0.0114749
0.0116103
0.0119178
0.0123907
0.0130126
0.0137587
0.0146193
0.0155186
0.0162976
0.0166181
0.0157962
0.0134013
0.00658812
-0.00823122
-0.0336622
-0.086448
-0.150501
-0.220914
-0.288034
-0.300753
-0.234027
-0.157553
-0.0810952
-0.0215968
0.0143177
0.0331309
0.0394931
0.0386254
0.0358847
0.0326436
0.0297719
0.0273546
0.0255285
0.0241365
0.0231416
0.0223911
0.0218824
0.0215657
0.0214039
0.0214048
0.014166
0.0143034
0.0146137
0.0150802
0.0156851
0.0163942
0.0171576
0.017874
0.0184019
0.0184528
0.017357
0.0143721
0.00810297
-0.00554577
-0.0295011
-0.068857
-0.118768
-0.171624
-0.218058
-0.227972
-0.187689
-0.131609
-0.0735806
-0.0237518
0.00994199
0.0318822
0.042608
0.0434675
0.0398456
0.0360789
0.0326638
0.0298974
0.0277956
0.0261837
0.0249576
0.0240495
0.0234228
0.0230098
0.0227715
0.0226991
0.016452
0.0166347
0.0169856
0.0174801
0.0181039
0.0188267
0.0195942
0.0203098
0.020904
0.0211913
0.0208082
0.0189276
0.0151686
0.00684882
-0.00735726
-0.0319407
-0.0650879
-0.0996253
-0.126685
-0.138146
-0.128791
-0.102707
-0.0664674
-0.0274482
0.00383638
0.0248632
0.0370617
0.0410847
0.0394355
0.0365112
0.0334953
0.0310053
0.0290066
0.0274027
0.0261591
0.0252329
0.0245751
0.0241287
0.0238536
0.0237012
0.0183595
0.0185933
0.0189619
0.0194687
0.0201092
0.0208696
0.0217283
0.0226377
0.0235306
0.0243341
0.0247308
0.0243522
0.0226579
0.0190465
0.0112639
-0.00412977
-0.028043
-0.0556316
-0.0787065
-0.0960772
-0.103986
-0.0953047
-0.0726753
-0.0414942
-0.0124933
0.00959873
0.02395
0.0314726
0.0335787
0.0330717
0.0317684
0.0302886
0.0288619
0.0276084
0.0265882
0.0257835
0.025171
0.0247239
0.0244289
0.0242872
0.0199699
0.0201819
0.0205179
0.0210104
0.021667
0.0224927
0.0234929
0.024651
0.0259376
0.0272061
0.0281881
0.02848
0.0272371
0.0235288
0.0172194
0.00573326
-0.0149984
-0.0424915
-0.0737288
-0.0991759
-0.110911
-0.109486
-0.0922049
-0.0662798
-0.0384826
-0.0142686
0.00514306
0.0184931
0.0249479
0.027508
0.0283096
0.0281565
0.0276281
0.0270032
0.026382
0.0258181
0.0253537
0.025002
0.0247645
0.0246354
0.0212312
0.0213236
0.0216517
0.0221682
0.0228696
0.0237599
0.024855
0.0261619
0.0276773
0.0292102
0.030559
0.0313483
0.0302614
0.0257971
0.0162319
0.000799255
-0.0224949
-0.053907
-0.0920344
-0.126334
-0.146887
-0.146912
-0.130406
-0.1032
-0.0687851
-0.0367617
-0.0101907
0.00795863
0.0175759
0.0226269
0.0249746
0.0258533
0.0261832
0.0261603
0.0259326
0.0256409
0.0253631
0.0251258
0.0249415
0.0248206
0.0221859
0.0222345
0.0225258
0.023019
0.0237124
0.0246024
0.0256947
0.0269922
0.028491
0.0300854
0.0314173
0.0333427
0.0322298
0.0272796
0.0158063
-0.00431834
-0.0321157
-0.0676528
-0.111714
-0.152452
-0.180346
-0.180488
-0.155772
-0.124341
-0.0823672
-0.0456538
-0.0163471
0.00229546
0.0133928
0.0195067
0.0227173
0.024341
0.0251465
0.0253996
0.025442
0.0253561
0.0252143
0.0250696
0.0249443
0.0248488
0.0228424
0.0229676
0.0232248
0.0236411
0.0242436
0.0250356
0.0260188
0.0271931
0.0285696
0.0301337
0.0314891
0.0327535
0.0309901
0.0246471
0.0131371
-0.00563546
-0.031677
-0.0651515
-0.105303
-0.140639
-0.166202
-0.161774
-0.137258
-0.106283
-0.0703152
-0.0397024
-0.0149983
0.00178616
0.0124934
0.018492
0.0218134
0.0236078
0.024531
0.0249383
0.0250835
0.0250935
0.02503
0.0249506
0.02488
0.0248274
0.0230841
0.0232518
0.0235091
0.0238794
0.024391
0.0250566
0.0258846
0.0268575
0.0279871
0.0292119
0.0301168
0.0301173
0.0270936
0.0197245
0.0075249
-0.00971756
-0.032165
-0.0596372
-0.0860743
-0.106356
-0.11752
-0.111363
-0.0940665
-0.0698795
-0.0450185
-0.0233196
-0.00516068
0.00722814
0.0150928
0.0196319
0.0222307
0.0236842
0.0244468
0.0248425
0.0249962
0.0250237
0.0249757
0.0249045
0.0248384
0.0248038
0.0229689
0.0230783
0.0232975
0.0236197
0.0240427
0.0245629
0.0251774
0.0258467
0.0264888
0.0268997
0.0267733
0.0250853
0.020501
0.0117466
-0.00162919
-0.0187201
-0.0384226
-0.0596961
-0.0761386
-0.0835147
-0.0812954
-0.073311
-0.0599488
-0.0407871
-0.0226527
-0.00617908
0.00648073
0.0146675
0.0193163
0.021942
0.0234283
0.0242762
0.0247272
0.0249626
0.025036
0.0250258
0.0249706
0.0248996
0.0248363
0.0247857
0.0226825
0.0227355
0.0228715
0.0230857
0.0233635
0.0236713
0.0239668
0.0241645
0.0241013
0.0234106
0.0216939
0.017861
0.0107467
3.18507e-05
-0.0141802
-0.0310937
-0.0486218
-0.0654546
-0.0771288
-0.0795856
-0.0737038
-0.0606976
-0.0438362
-0.0248506
-0.00768426
0.00607447
0.0149471
0.0201681
0.0227982
0.0241633
0.0248465
0.0250952
0.0251521
0.0251136
0.0250263
0.0249341
0.0248513
0.0247806
0.0247284
0.0246772
0.0223136
0.0223489
0.0224386
0.0225516
0.0226604
0.0227174
0.0226532
0.0223392
0.0215975
0.0199685
0.0166706
0.0106874
0.000428234
-0.0136516
-0.0307857
-0.0498982
-0.0675872
-0.0825862
-0.0927843
-0.0935719
-0.0850823
-0.0660189
-0.042575
-0.0206013
-0.00245252
0.0105252
0.0182165
0.0228627
0.0252388
0.0261063
0.0261911
0.0259179
0.025557
0.0252211
0.0249467
0.0247337
0.0245696
0.0244561
0.024391
0.0244147
0.0218828
0.0219509
0.0219979
0.0220213
0.0219806
0.0218382
0.0215179
0.020853
0.0196272
0.0174104
0.0133198
0.0063462
-0.00531759
-0.0222652
-0.0438452
-0.067544
-0.0892981
-0.105212
-0.117295
-0.118203
-0.102297
-0.0771535
-0.0491336
-0.0250651
-0.00545034
0.0090069
0.0189179
0.0245674
0.0269786
0.0274002
0.0268608
0.0262608
0.0256495
0.0251412
0.0247487
0.0244496
0.0242312
0.0241009
0.0240511
0.0240931
0.0214038
0.0214757
0.0214831
0.0214531
0.0213423
0.0211214
0.0206914
0.0199051
0.0184844
0.0160558
0.0119023
0.00494734
-0.00594017
-0.0218074
-0.0425344
-0.0664066
-0.0906092
-0.108783
-0.12336
-0.12548
-0.106058
-0.0804863
-0.0511258
-0.0271639
-0.00711365
0.00779848
0.0179041
0.0236197
0.0264125
0.0269904
0.0264438
0.0258824
0.0252738
0.0247743
0.024395
0.0241044
0.0239018
0.0237812
0.0237216
0.0237033
0.0209353
0.0209566
0.0209552
0.0209234
0.0208233
0.0206116
0.0202203
0.0195269
0.0183039
0.016232
0.0127035
0.00694138
-0.00193138
-0.0142633
-0.0296412
-0.0481121
-0.0685345
-0.0853314
-0.0981386
-0.101599
-0.0892668
-0.0704649
-0.0481723
-0.0269749
-0.00914625
0.00456452
0.0141122
0.0202968
0.0237745
0.0251143
0.0251458
0.0248294
0.0244123
0.0240486
0.0237588
0.023534
0.0233687
0.0232553
0.0231725
0.0231021
0.0205828
0.0205764
0.0205839
0.0205742
0.0205167
0.0203704
0.0200954
0.0196169
0.0188112
0.01744
0.0151087
0.0112694
0.00515311
-0.00376775
-0.0149553
-0.0282859
-0.0429127
-0.0566805
-0.0657857
-0.0700266
-0.0689766
-0.0604037
-0.0467106
-0.0299972
-0.0150014
-0.00236509
0.0077622
0.0151739
0.0197226
0.0220532
0.0229503
0.0231213
0.0230523
0.0229025
0.0227489
0.0226119
0.0224992
0.0224106
0.0223425
0.0222927
0.0203344
0.0203494
0.0203525
0.0203448
0.020321
0.0202595
0.0201367
0.0199129
0.0195228
0.0188804
0.0177679
0.0157833
0.012088
0.00576279
-0.00300095
-0.01387
-0.0258648
-0.038422
-0.0483016
-0.0555755
-0.0592094
-0.0567161
-0.0479805
-0.0353972
-0.0227951
-0.0108215
-0.000278932
0.00817008
0.014044
0.0177443
0.0197684
0.0207574
0.0212421
0.0214272
0.0214763
0.0214687
0.0214416
0.0214189
0.0214141
0.0214283
0.0200005
0.0200095
0.020023
0.0200438
0.0200784
0.020127
0.0201867
0.0202437
0.0202645
0.0201745
0.0198091
0.0188915
0.0169193
0.0128244
0.0054757
-0.00509322
-0.0182093
-0.0326036
-0.0464025
-0.0568973
-0.0619187
-0.0622014
-0.0556587
-0.0452754
-0.0336086
-0.0214525
-0.00994536
-0.000215333
0.00742642
0.0129497
0.016334
0.0182485
0.0193206
0.0198972
0.0202096
0.0203727
0.020451
0.0204918
0.0205219
0.0205601
0.0195691
0.0195199
0.0195402
0.0196018
0.0197132
0.0198775
0.0200964
0.0203966
0.020779
0.0211262
0.0213084
0.0208197
0.0189608
0.015131
0.00806708
-0.00248846
-0.0165466
-0.0330567
-0.0502498
-0.0656185
-0.0757085
-0.0765092
-0.0706212
-0.0607857
-0.0484467
-0.0344412
-0.0202019
-0.00761104
0.00228788
0.00932308
0.0136461
0.0161576
0.0176731
0.018565
0.019113
0.0194346
0.0196063
0.0196911
0.0197255
0.0197343
0.0191382
0.0190977
0.0191111
0.0191773
0.0193086
0.0195115
0.019788
0.0201606
0.0207228
0.0211905
0.0216624
0.0212772
0.0191449
0.0148823
0.00748758
-0.00317287
-0.0172612
-0.0340375
-0.0538051
-0.072628
-0.0871839
-0.0887518
-0.0813137
-0.0708983
-0.0560602
-0.0400185
-0.0239011
-0.00999559
0.00043947
0.00757623
0.0120896
0.0148423
0.016517
0.0175712
0.0181912
0.0186039
0.018844
0.0189761
0.0190269
0.0189731
0.0186182
0.0186394
0.0186763
0.0187409
0.0188511
0.0190185
0.0192507
0.0195564
0.0199389
0.0202136
0.0203367
0.0194293
0.0170964
0.0128825
0.00576211
-0.00447274
-0.0177125
-0.033414
-0.0513035
-0.0678081
-0.0808482
-0.0810728
-0.0729828
-0.0622311
-0.0476375
-0.0325432
-0.0186178
-0.00717644
0.00150186
0.00770718
0.0118476
0.0144007
0.0159339
0.0169006
0.0175014
0.0178825
0.0181161
0.0182367
0.0182915
0.0182596
0.0179105
0.0179576
0.0180019
0.0180513
0.0181161
0.0182064
0.0183182
0.0184363
0.0185457
0.0184155
0.0177459
0.0160532
0.0129034
0.00793864
0.000850241
-0.00863452
-0.0202228
-0.0332492
-0.0455086
-0.0550938
-0.0603565
-0.0587849
-0.0521334
-0.0424818
-0.0307775
-0.0193233
-0.00942348
-0.00118884
0.00523951
0.00985437
0.0129002
0.0147815
0.0159134
0.0166193
0.0170614
0.017338
0.0174976
0.0175781
0.0176181
0.0176394
0.0170881
0.0170872
0.017089
0.017091
0.0170879
0.0170697
0.017015
0.0168532
0.0165143
0.0157886
0.0142282
0.0114496
0.00708598
0.00102674
-0.00654886
-0.0154189
-0.0249447
-0.0347872
-0.042197
-0.0461503
-0.0450767
-0.0408796
-0.034177
-0.0254518
-0.0165528
-0.00789932
-0.000654408
0.00536617
0.00983254
0.0127617
0.0145197
0.0155442
0.0161761
0.0165876
0.0168463
0.0170087
0.017103
0.0171526
0.0171792
0.0172042
0.0162585
0.0162099
0.0161573
0.0160972
0.0160124
0.0158654
0.015603
0.0151102
0.0142101
0.0126766
0.0101105
0.00611578
0.000650543
-0.00626336
-0.0143781
-0.0231535
-0.0318363
-0.0396209
-0.0442119
-0.0442383
-0.0413905
-0.035148
-0.026352
-0.0166522
-0.00738087
0.000668034
0.00683866
0.0112724
0.0139168
0.0152903
0.015973
0.0163147
0.0165091
0.0166379
0.0167168
0.0167677
0.0168044
0.0168329
0.0168508
0.0168403
0.0154644
0.0154158
0.0153607
0.0152705
0.0151105
0.0148282
0.0143555
0.0135729
0.0122071
0.00989506
0.00614366
0.000712766
-0.00633456
-0.0149092
-0.0243785
-0.0339393
-0.0426423
-0.0494932
-0.0529265
-0.0510796
-0.0452895
-0.0359162
-0.0243086
-0.0125872
-0.00209988
0.00612836
0.0118021
0.0150314
0.0164731
0.0169995
0.0170593
0.0169266
0.0167617
0.0166136
0.0165068
0.0164329
0.0163884
0.0163639
0.0163554
0.0163751
0.0147571
0.0147682
0.0147176
0.0145984
0.0143721
0.0139863
0.0133539
0.0123837
0.0107569
0.00811539
0.00379073
-0.00264994
-0.0113025
-0.02202
-0.0334288
-0.0443601
-0.0541739
-0.06092
-0.0647704
-0.0621006
-0.0507781
-0.0377096
-0.0232809
-0.0105102
-2.63652e-05
0.00785577
0.0131278
0.0160232
0.0175749
0.0178974
0.0175593
0.0171105
0.0166717
0.016349
0.0161188
0.0159604
0.0158617
0.0158162
0.0158135
0.0158658
0.0141258
0.0141766
0.0141244
0.0139915
0.0137398
0.0133347
0.0126836
0.0116786
0.0100088
0.00744569
0.00330801
-0.00276623
-0.0109779
-0.0215433
-0.0334971
-0.0450549
-0.0555071
-0.0625289
-0.0668873
-0.0642736
-0.0517586
-0.0374346
-0.0227278
-0.0103194
-0.000378392
0.00712179
0.0122899
0.0152303
0.0168198
0.0172796
0.0170113
0.0166174
0.0162034
0.0158726
0.0156408
0.0154821
0.0153883
0.015346
0.0153386
0.0153586
0.0135475
0.0135621
0.0135152
0.0134094
0.0132136
0.0128929
0.0123777
0.0115474
0.0101926
0.00806317
0.00477496
-3.8469e-05
-0.00622838
-0.0142442
-0.0237
-0.0335762
-0.0432298
-0.0500876
-0.054284
-0.0532033
-0.0453828
-0.0348721
-0.0233148
-0.0127181
-0.0036159
0.00361812
0.00884472
0.0121975
0.0141655
0.015162
0.0154697
0.0154547
0.0152777
0.0151095
0.0149788
0.0148858
0.0148264
0.0147895
0.0147617
0.014734
0.0130922
0.0130637
0.0130353
0.0129784
0.0128679
0.0126744
0.0123585
0.0118463
0.0109833
0.00958406
0.00741187
0.00415939
-0.000157491
-0.00565097
-0.0122212
-0.0195468
-0.026841
-0.0330146
-0.0373239
-0.0388069
-0.0373405
-0.0322483
-0.0251553
-0.0171648
-0.00947538
-0.0026823
0.00286461
0.00708538
0.0100716
0.0120107
0.0131289
0.0136505
0.0138526
0.0139372
0.0139702
0.0139836
0.0139901
0.0139894
0.0139794
0.0139577
0.0127959
0.0127851
0.0127674
0.0127376
0.0126846
0.0126004
0.0124633
0.012252
0.0118981
0.0112868
0.0101601
0.00824377
0.0053341
0.00145131
-0.00337609
-0.00919616
-0.0156048
-0.0219502
-0.0275715
-0.0315679
-0.0329004
-0.0319606
-0.0283349
-0.022529
-0.0159511
-0.00946682
-0.00359745
0.001417
0.00539873
0.0083288
0.0102888
0.0114519
0.012129
0.0125311
0.0127599
0.012896
0.0129841
0.0130487
0.0130988
0.0131355
0.0124966
0.0125106
0.0125095
0.0125118
0.0125185
0.012537
0.0125623
0.0125999
0.0126144
0.0125817
0.0123524
0.0116817
0.0100729
0.00716906
0.00286513
-0.00289041
-0.0100598
-0.0177523
-0.025013
-0.0306686
-0.0341514
-0.0361667
-0.0347088
-0.0301743
-0.0239414
-0.0171631
-0.0104759
-0.00441247
0.00063174
0.0045846
0.00745837
0.00936014
0.0105376
0.011247
0.0116671
0.011922
0.0120815
0.0121908
0.0122739
0.0123396
0.0120959
0.0120664
0.012081
0.0121242
0.0122003
0.012316
0.0124977
0.0127333
0.0130241
0.0133609
0.0136825
0.0135426
0.0126302
0.0106118
0.00685281
0.00128094
-0.00615799
-0.0153126
-0.0249345
-0.0332557
-0.0403768
-0.0442877
-0.043671
-0.039615
-0.0332913
-0.0257644
-0.017748
-0.0101414
-0.00356606
0.00161519
0.00534076
0.00779355
0.00931683
0.0102491
0.0108249
0.0111796
0.0113941
0.0115165
0.011584
0.0116248
0.0116736
0.0116303
0.0116311
0.0116724
0.0117681
0.011926
0.0121648
0.0124911
0.012931
0.0133557
0.013888
0.0137868
0.0129287
0.0113767
0.00815073
0.00318651
-0.00373734
-0.0131977
-0.024193
-0.0348929
-0.0447516
-0.0499129
-0.0494433
-0.045009
-0.0383948
-0.0302479
-0.0210935
-0.0125717
-0.00520422
0.000346406
0.00426404
0.00688469
0.00851048
0.00953709
0.0101807
0.0105902
0.0108479
0.0109872
0.0110457
0.0110145
0.0112227
0.0112176
0.0112284
0.0112625
0.0113356
0.0114573
0.0116412
0.0118871
0.0121972
0.0124212
0.0125957
0.0123009
0.0112824
0.00945902
0.00628423
0.00150442
-0.00487385
-0.0132408
-0.0231774
-0.0330576
-0.0412606
-0.0453997
-0.0443826
-0.0395405
-0.0331446
-0.0253477
-0.0172676
-0.0097628
-0.00364677
0.000975094
0.00441742
0.00674715
0.00818429
0.00913131
0.00973215
0.0101086
0.0103415
0.0104672
0.0105207
0.0104809
0.0106505
0.0106761
0.0106951
0.010712
0.010735
0.0107688
0.0108094
0.0108497
0.0108391
0.0106467
0.0101317
0.00908887
0.00738321
0.00477252
0.00108345
-0.00373704
-0.00958103
-0.0157563
-0.0222912
-0.0282983
-0.0321063
-0.0331657
-0.0312088
-0.0270189
-0.0214673
-0.0153351
-0.00935168
-0.00411416
1.41904e-05
0.003333
0.00579662
0.0073964
0.00843535
0.0090944
0.00950103
0.00974858
0.00989461
0.00997157
0.0100091
0.0100151
0.00997149
0.00997205
0.00995656
0.00992298
0.00986739
0.00978225
0.00963722
0.00939199
0.00897213
0.00822066
0.00691511
0.00492358
0.00223212
-0.00125399
-0.00541471
-0.0101208
-0.0151742
-0.0196351
-0.0229267
-0.0246952
-0.0250626
-0.0229868
-0.0195371
-0.0154565
-0.0107683
-0.00621999
-0.00212368
0.00128925
0.00399813
0.00612687
0.00754636
0.00840258
0.00893491
0.00925473
0.00945277
0.00956582
0.0096257
0.00965535
0.00967177
0.00969737
0.00928416
0.00923336
0.00916105
0.0090655
0.00893153
0.00872919
0.00840168
0.00786954
0.00701368
0.00566046
0.00364993
0.000846107
-0.00275628
-0.00710739
-0.0119796
-0.0169324
-0.0216111
-0.025018
-0.0259334
-0.0245018
-0.0223418
-0.0187301
-0.0141067
-0.00910275
-0.00417299
7.41939e-05
0.00340612
0.00582878
0.00754396
0.00857938
0.00907128
0.00930205
0.00938681
0.00942814
0.00945822
0.00947214
0.00948158
0.00948931
0.00949561
0.00948768
0.00864278
0.00857912
0.00849455
0.00837434
0.00819014
0.00789705
0.00742661
0.00665492
0.0054008
0.00345166
0.000665705
-0.00307842
-0.00783574
-0.0133844
-0.0193037
-0.0248819
-0.0294715
-0.0321611
-0.0318256
-0.0281054
-0.0232566
-0.0176633
-0.0113109
-0.00504742
0.000426957
0.00464611
0.00760527
0.00933062
0.0101826
0.010278
0.0100896
0.00988065
0.00967352
0.00950735
0.00938745
0.00930808
0.00925981
0.00922994
0.0092148
0.00920743
0.00809745
0.00807539
0.00801343
0.00789018
0.00767252
0.00731328
0.00675854
0.00584405
0.00437794
0.0020533
-0.00132312
-0.00594337
-0.0118455
-0.0185241
-0.025394
-0.0317284
-0.0363235
-0.0390071
-0.0381479
-0.0325865
-0.0249315
-0.0169596
-0.00868097
-0.00141635
0.00394873
0.00765019
0.00988765
0.0108936
0.0112067
0.010936
0.0104997
0.0100459
0.00964223
0.00933446
0.00911217
0.00896192
0.00887185
0.00882044
0.00880525
0.00884096
0.00765376
0.00768969
0.00764187
0.00751356
0.0072791
0.00690153
0.00633642
0.00540921
0.00396396
0.00166291
-0.00164296
-0.00612205
-0.0120157
-0.0187373
-0.0255605
-0.0317942
-0.0362373
-0.0391836
-0.0386263
-0.0329413
-0.0250048
-0.0163007
-0.00771975
-0.000572483
0.00436928
0.00763822
0.00949746
0.0103375
0.0106148
0.0104184
0.0100482
0.00963834
0.00923476
0.00893021
0.00870769
0.00856118
0.00847656
0.00844307
0.00844187
0.00847031
0.0072789
0.00730814
0.00726615
0.00716446
0.00697706
0.00667256
0.00619562
0.00544651
0.00428602
0.00250881
-6.82268e-05
-0.00346236
-0.00782422
-0.013045
-0.0185841
-0.0239341
-0.0281142
-0.0309331
-0.0312418
-0.0279815
-0.0226139
-0.0161222
-0.00972452
-0.00417716
0.000334319
0.00373381
0.0060529
0.00751012
0.00830874
0.00865105
0.00872561
0.00863015
0.00846213
0.00831514
0.00820234
0.00812783
0.00808301
0.0080604
0.00804809
0.00803842
0.00696898
0.0069564
0.00693303
0.00688728
0.00679492
0.00662966
0.00635949
0.00591547
0.00519654
0.00412535
0.00252969
0.000354919
-0.00239009
-0.00576113
-0.00958634
-0.0134974
-0.0170362
-0.019845
-0.0215969
-0.0215523
-0.0197309
-0.0167274
-0.0133135
-0.00954343
-0.0056639
-0.00226929
0.000628655
0.0029297
0.00463577
0.00587036
0.00664531
0.00706131
0.00727354
0.00738226
0.00743926
0.00747416
0.00749664
0.00750625
0.00750201
0.00748385
0.00678228
0.00676917
0.00676451
0.00675873
0.00673625
0.00669436
0.00662034
0.00648566
0.00622833
0.00576238
0.00498547
0.00378368
0.00218408
0.000106713
-0.0025659
-0.00574056
-0.00915381
-0.0124444
-0.0153285
-0.0173183
-0.018292
-0.0186038
-0.0176551
-0.0151223
-0.0117219
-0.0081718
-0.00472971
-0.00170458
0.000818656
0.00280454
0.00424647
0.00521434
0.00583032
0.00621936
0.00646609
0.00662566
0.00673329
0.00680454
0.00684854
0.00687161
0.00665365
0.00666662
0.00667517
0.00668977
0.00671257
0.00675433
0.00681997
0.00690327
0.00698843
0.00702361
0.00697099
0.00663315
0.00578165
0.00437492
0.00218228
-0.000854746
-0.00455133
-0.00848227
-0.0122989
-0.0159834
-0.0192884
-0.0221369
-0.0230203
-0.021549
-0.0184396
-0.0144329
-0.0101597
-0.00612775
-0.00265824
5.44908e-05
0.00209464
0.00355822
0.00454745
0.00518289
0.00558395
0.00584409
0.00601839
0.00614244
0.00623289
0.0062948
0.00644181
0.00643768
0.0064576
0.00649937
0.00657074
0.00668511
0.00685149
0.00706987
0.00737129
0.00773289
0.00811653
0.00842433
0.00828006
0.00756181
0.00597516
0.00335489
-0.000429947
-0.00525733
-0.0107433
-0.0165762
-0.0221127
-0.0268347
-0.0287556
-0.0280592
-0.0249834
-0.0205066
-0.0153932
-0.0103136
-0.00578526
-0.0021616
0.000490126
0.00240211
0.00369187
0.00449543
0.00499936
0.00531995
0.00552325
0.00565278
0.00573545
0.00578883
0.00616903
0.00613566
0.0061428
0.00618271
0.00626856
0.00640901
0.00661701
0.00690028
0.00728434
0.00775575
0.00826299
0.00877175
0.00909203
0.0089274
0.00795427
0.0059592
0.00246346
-0.00291428
-0.00950268
-0.0165353
-0.0237041
-0.0291781
-0.0315064
-0.031053
-0.0277663
-0.0232724
-0.0178733
-0.0123082
-0.00728046
-0.00319525
-0.000263364
0.00183565
0.00323636
0.00407139
0.00463453
0.004992
0.00520799
0.00533043
0.00538639
0.00538769
0.00589655
0.00587532
0.00587108
0.00588927
0.0059426
0.0060385
0.00620204
0.00641749
0.00670144
0.00702596
0.00732656
0.00759259
0.00765991
0.0072728
0.00615156
0.00415527
0.00088243
-0.00383514
-0.00964077
-0.015735
-0.0215782
-0.025864
-0.0275538
-0.0267678
-0.0235207
-0.0196176
-0.0148782
-0.0101709
-0.00589467
-0.00246347
3.19955e-05
0.00189458
0.00311602
0.0039075
0.00442664
0.00475395
0.00496297
0.00507635
0.00512405
0.005092
0.00555734
0.00556449
0.00556526
0.00556432
0.00556827
0.00558164
0.00560969
0.00563416
0.00564173