/*--------------------------------*- C++ -*----------------------------------*\
| =========                 |                                                 |
| \\      /  F ield         | OpenFOAM: The Open Source CFD Toolbox           |
|  \\    /   O peration     | Version:  v2106                                 |
|   \\  /    A nd           | Website:  www.openfoam.com                      |
|    \\/     M anipulation  |                                                 |
\*---------------------------------------------------------------------------*/
FoamFile
{
    version     2.0;
    format      ascii;
    arch        "LSB;label=32;scalar=64";
    class       volScalarField;
    location    "0";
    object      p;
}
// * * * * * * * * * * * * * * * * * * * * * * * * * * * * * * * * * * * * * //

dimensions      [0 2 -2 0 0 0 0];

internalField   nonuniform List<scalar> 
11644
(
0.0358141
0.0362341
0.0371245
0.038511
0.0404001
0.0428114
0.0457717
0.0493076
0.0534404
0.0581813
0.0635208
0.0694107
0.0757824
0.0825275
0.0894507
0.0963514
0.102995
0.109109
0.114383
0.118515
0.121366
0.122954
0.123359
0.122613
0.120784
0.118088
0.11482
0.111165
0.107324
0.103485
0.0997797
0.0963056
0.0931355
0.0903171
0.08788
0.0858405
0.0842067
0.0829884
0.0821962
0.081822
0.0351112
0.0355233
0.0363739
0.0376912
0.0395033
0.0418402
0.0447319
0.0482111
0.052309
0.0570503
0.0624371
0.0684594
0.0750619
0.0820838
0.0894065
0.0968033
0.103956
0.110498
0.116048
0.120385
0.12338
0.124966
0.125166
0.124092
0.121922
0.118906
0.115259
0.111283
0.107192
0.103146
0.099283
0.0957053
0.0924719
0.0896212
0.0871764
0.0851471
0.0835388
0.0823509
0.0815782
0.0812048
0.0334767
0.0338913
0.0347129
0.0359571
0.0376629
0.0398726
0.0426332
0.0459954
0.0500131
0.0547336
0.0602075
0.0664511
0.0734343
0.0811132
0.0892971
0.097697
0.105899
0.113426
0.11986
0.124916
0.128311
0.129842
0.129527
0.127666
0.124618
0.12071
0.116276
0.11158
0.106896
0.102418
0.0982559
0.0944769
0.0911239
0.088212
0.0857444
0.0837157
0.0821177
0.0809351
0.0801473
0.0797456
0.0310153
0.0314011
0.0321614
0.0333052
0.034869
0.0369018
0.0394657
0.0426344
0.0464924
0.0511409
0.056671
0.0631715
0.0707598
0.0793559
0.0888691
0.0988646
0.108813
0.118331
0.126543
0.132803
0.136625
0.137772
0.136452
0.133185
0.128704
0.123328
0.117566
0.111839
0.106325
0.101204
0.0965988
0.0925456
0.0890314
0.0860373
0.0835347
0.0814978
0.0798973
0.0787057
0.0779037
0.0774941
0.0278395
0.028167
0.0288159
0.0298017
0.0311564
0.0329318
0.0351996
0.0380542
0.0416167
0.0460349
0.051503
0.0582928
0.0665932
0.0765678
0.0880359
0.100544
0.113289
0.125986
0.136875
0.144821
0.149133
0.149474
0.146389
0.140584
0.133707
0.126101
0.118544
0.111416
0.104954
0.099168
0.0940774
0.089723
0.0860503
0.0829836
0.0804619
0.0784308
0.0768446
0.0756695
0.074884
0.0744867
0.0240803
0.0243174
0.0248021
0.0255479
0.0265921
0.0279887
0.0298123
0.0321695
0.0352043
0.0391675
0.0444389
0.0513852
0.0604112
0.0716478
0.0855348
0.101724
0.11875
0.136383
0.151742
0.162812
0.167744
0.166218
0.159681
0.149811
0.1391
0.128049
0.117911
0.109288
0.101871
0.0956077
0.0902599
0.0857288
0.0819728
0.0789122
0.0764398
0.0744731
0.0729537
0.0718397
0.0711069
0.0707375
0.0198414
0.019981
0.0202548
0.0206859
0.0213079
0.0221711
0.0233515
0.0249574
0.0271765
0.0303979
0.0350531
0.0416005
0.0504593
0.0630079
0.0796983
0.100482
0.118372
0.141221
0.163184
0.180224
0.188242
0.186382
0.176599
0.162479
0.143279
0.127878
0.114637
0.104275
0.0962244
0.0897789
0.0845326
0.0801863
0.0765795
0.0736799
0.071384
0.0695903
0.068228
0.0672464
0.0666087
0.066299
0.0153254
0.015326
0.0153453
0.0153893
0.0154815
0.0156559
0.0159775
0.016539
0.0175983
0.0195431
0.0227019
0.0276479
0.0355614
0.0478393
0.0644511
0.0868041
0.118069
0.15399
0.190173
0.218428
0.229893
0.222441
0.201122
0.174892
0.149456
0.127822
0.112252
0.0952059
0.0870893
0.0810592
0.0764021
0.0726914
0.0696353
0.0671699
0.0652635
0.0638068
0.0627196
0.0619509
0.0614528
0.061202
0.0107168
0.0105956
0.0103287
0.00992314
0.00938649
0.00873155
0.00798308
0.00720646
0.0066431
0.0065271
0.00717167
0.00907362
0.0129241
0.0270638
0.041829
0.066883
0.101783
0.152851
0.212984
0.266717
0.290408
0.273713
0.231649
0.186071
0.147211
0.116171
0.098532
0.0798871
0.0735315
0.069053
0.0656716
0.0630848
0.0610351
0.0593726
0.0581225
0.0571962
0.0565197
0.0560375
0.0557359
0.055586
0.00630811
0.0060283
0.00545821
0.00458016
0.00336785
0.0017936
-0.000188931
-0.00256628
-0.00523182
-0.00819884
-0.0112947
-0.0142006
-0.0168835
-0.00750664
-0.000611469
0.0218281
0.058743
0.123204
0.225692
0.346536
0.405395
0.35397
0.253341
0.173153
0.118109
0.0835333
0.0713018
0.0567294
0.054862
0.0533901
0.0522878
0.0515288
0.05096
0.0504706
0.0501338
0.0499237
0.0497963
0.0497182
0.0496645
0.0496426
0.002356
0.00193091
0.00106703
-0.000279963
-0.0021591
-0.00465376
-0.00789348
-0.0119776
-0.0170152
-0.0232693
-0.0309959
-0.0405569
-0.0521726
-0.0538438
-0.063737
-0.0634584
-0.0517715
-0.0165125
0.108014
0.386613
0.600423
0.388227
0.160034
0.0672174
0.0370023
0.0270616
0.0308767
0.0275753
0.031556
0.034468
0.0367654
0.0385305
0.0398715
0.0408702
0.041666
0.0423225
0.0428223
0.0431929
0.0434265
0.0435258
-0.00092673
-0.00143681
-0.00254393
-0.00427195
-0.00672203
-0.0100082
-0.0143295
-0.0199322
-0.0271531
-0.0365225
-0.0487383
-0.065086
-0.0870473
-0.0990701
-0.136627
-0.169655
-0.228036
-0.340446
-0.612304
-0.414845
-0.168498
-0.0791539
-0.0404375
-0.0164835
-0.00448474
0.00621303
0.014348
0.0204887
0.0250559
0.0285099
0.0311464
0.0331693
0.0347423
0.035916
0.036765
0.0373378
0.037628
-0.00314912
-0.00384255
-0.00513767
-0.00712747
-0.00992827
-0.0136941
-0.0186757
-0.0252287
-0.033845
-0.0452671
-0.0604974
-0.0810773
-0.109036
-0.134984
-0.1897
-0.253987
-0.364759
-0.571703
-0.813293
-0.416007
-0.28409
-0.157834
-0.0949317
-0.0577808
-0.0333255
-0.016604
-0.00398935
0.00541262
0.012486
0.0178977
0.0220738
0.0252715
0.0277019
0.0295168
0.0308259
0.0316972
0.0321357
-0.00442743
-0.00510661
-0.00644606
-0.0085089
-0.0113752
-0.015229
-0.0202769
-0.0269315
-0.0357271
-0.0474346
-0.0630151
-0.0838622
-0.11113
-0.143399
-0.199794
-0.273687
-0.391896
-0.5729
-0.668761
-0.278257
-0.246357
-0.177373
-0.121945
-0.0840429
-0.0526717
-0.0330172
-0.017935
-0.00651759
0.002253
0.00905882
0.0144034
0.0185311
0.021634
0.0239435
0.0255865
0.0266605
0.0273128
-0.0048043
-0.00531197
-0.00651483
-0.00838083
-0.0109901
-0.0144802
-0.0189558
-0.0248104
-0.0324823
-0.0423904
-0.0552722
-0.0718893
-0.093191
-0.123094
-0.165904
-0.231472
-0.337918
-0.527478
-0.735358
-0.701129
-0.472164
-0.303072
-0.225229
-0.230485
-0.187444
-0.13455
-0.0961402
-0.0619884
-0.0419002
-0.0260267
-0.0140348
-0.00453268
0.00289401
0.00882073
0.0134224
0.016897
0.0195032
0.0213591
0.0225361
0.0229851
-0.00398506
-0.00450132
-0.0054414
-0.00689331
-0.00891938
-0.0116112
-0.0150239
-0.0192883
-0.0246953
-0.0312083
-0.0389132
-0.048124
-0.0588675
-0.0817722
-0.100325
-0.126056
-0.190553
-0.300222
-0.500859
-0.598821
-0.494951
-0.40122
-0.346771
-0.297303
-0.209717
-0.14077
-0.0992155
-0.0624219
-0.0430183
-0.0279783
-0.0163897
-0.00720348
6.1908e-05
0.00584284
0.0103499
0.0138385
0.0164473
0.0182743
0.0193981
0.0198336
-0.00206248
-0.00239677
-0.00304642
-0.00402272
-0.0053563
-0.00708069
-0.00916108
-0.0114449
-0.0138372
-0.0162562
-0.018179
-0.019372
-0.0194742
-0.0170615
-0.023263
-0.0127533
-0.0155221
-0.0220628
-0.142247
-0.395679
-0.570642
-0.600247
-0.511381
-0.34334
-0.199382
-0.132875
-0.0782911
-0.054512
-0.0373212
-0.024164
-0.0140968
-0.00607613
0.00035707
0.00549788
0.00948243
0.0125784
0.014902
0.0165401
0.0175969
0.0181193
0.000735555
0.000692088
0.000335749
-0.000203732
-0.000872809
-0.00160624
-0.00227837
-0.00259777
-0.0022027
-0.00100178
0.00144068
0.00604781
0.0145948
0.024985
0.0345582
0.0683442
0.0975472
0.103407
-0.0518688
-0.356917
-0.573285
-0.58416
-0.441041
-0.271675
-0.158228
-0.106464
-0.0584428
-0.039901
-0.0261548
-0.0158739
-0.00806104
-0.0017772
0.00330569
0.0073835
0.0105686
0.0130581
0.0149344
0.0162873
0.0171953
0.0176748
0.00398142
0.00396081
0.00390327
0.00382858
0.00378516
0.00390485
0.00434579
0.00533003
0.00716293
0.0100621
0.0145543
0.0212331
0.0321564
0.0473121
0.0588641
0.0872933
0.1158
0.0891456
-0.0423953
-0.229539
-0.346466
-0.326285
-0.234273
-0.157003
-0.0951616
-0.0650131
-0.0309221
-0.0193228
-0.0104542
-0.00402367
0.000928017
0.00497348
0.0082816
0.0109827
0.0131707
0.0149282
0.0162734
0.0172559
0.0179097
0.0182544
0.0072434
0.00723746
0.00737559
0.00764422
0.00805593
0.00870002
0.00968383
0.0110369
0.0129898
0.0157388
0.0197142
0.0248528
0.0319138
0.0418443
0.0483867
0.052443
0.0495225
0.0148672
-0.0651276
-0.143577
-0.177327
-0.161158
-0.122645
-0.0855943
-0.0430555
-0.0233959
-0.00130941
0.00357507
0.00721426
0.00954464
0.0114227
0.0130039
0.0143541
0.0155692
0.0166783
0.017641
0.018415
0.0189937
0.01936
0.0195388
0.0104897
0.0105566
0.0107667
0.0111493
0.0117136
0.0124865
0.0135107
0.0147336
0.0161611
0.0177601
0.0196355
0.0218839
0.0220352
0.0223764
0.0187434
-0.00650332
-0.0429688
-0.107157
-0.175168
-0.214474
-0.203367
-0.15212
-0.0918629
-0.0423062
-0.00448472
0.0100549
0.0238346
0.0238066
0.0231123
0.0219695
0.0211706
0.0205975
0.0202881
0.0202335
0.0203482
0.020557
0.0207882
0.0210004
0.0211429
0.0212064
0.0135796
0.0137075
0.0139564
0.0143446
0.0148798
0.015555
0.0163715
0.0172777
0.0181229
0.0186485
0.0184968
0.0173894
0.0116948
0.00282418
-0.0174134
-0.0512074
-0.136023
-0.23346
-0.315294
-0.343255
-0.291292
-0.18438
-0.0819139
-0.0136954
0.0210678
0.0424557
0.0417989
0.0387149
0.0350037
0.0314814
0.0287396
0.0266421
0.0252018
0.0242474
0.0236189
0.0232218
0.023
0.0228997
0.0228745
0.0229009
0.0163937
0.0165209
0.0167898
0.017189
0.0177038
0.0183135
0.0189521
0.0195584
0.0199846
0.0199606
0.018925
0.016149
0.00938341
-0.00389676
-0.0267719
-0.0744781
-0.149816
-0.235398
-0.311715
-0.322686
-0.260209
-0.164341
-0.0714003
-0.00592438
0.0339433
0.0488058
0.0530505
0.0476035
0.0424196
0.0377531
0.0339633
0.031004
0.0288879
0.0273608
0.0262623
0.0254811
0.0249654
0.0246458
0.0244799
0.0244517
0.0188548
0.0189859
0.0192827
0.0197086
0.0202468
0.0208675
0.0214802
0.0220063
0.0223082
0.0222058
0.0212129
0.018596
0.0131936
0.00290487
-0.015874
-0.0448694
-0.0913105
-0.139689
-0.179117
-0.189594
-0.167097
-0.120234
-0.0630056
-0.0111558
0.0256203
0.0460126
0.0540316
0.0504942
0.0454662
0.0408465
0.0368112
0.0336399
0.0312737
0.0294953
0.0281737
0.0272368
0.0265858
0.0261542
0.0258924
0.0257695
0.0209298
0.0211112
0.0214403
0.0218866
0.0224496
0.0231066
0.0237968
0.0244784
0.0250306
0.0253261
0.0250212
0.0236141
0.0203583
0.0146813
0.00449741
-0.0111293
-0.038486
-0.0696163
-0.0984622
-0.116146
-0.118094
-0.102919
-0.0679117
-0.0273301
0.00751922
0.0296685
0.0412624
0.0439503
0.0425009
0.039728
0.0367003
0.0341541
0.0321114
0.0304859
0.0292477
0.0283301
0.0276569
0.0271912
0.0268901
0.0267275
0.0226448
0.0228617
0.0231814
0.0236326
0.0242257
0.0249597
0.0258224
0.0268096
0.0278321
0.0287616
0.0293125
0.0292619
0.0274615
0.0242074
0.0163092
0.00323354
-0.017883
-0.0467996
-0.080184
-0.107537
-0.118627
-0.11376
-0.0892868
-0.0556909
-0.0233375
0.00268885
0.0204323
0.03033
0.0340752
0.0345348
0.0337707
0.0326184
0.0314401
0.0303835
0.0294928
0.0287719
0.0281989
0.0277765
0.0274919
0.0273444
0.0240108
0.0241541
0.0244686
0.0249536
0.0256129
0.0264623
0.0275127
0.0287739
0.0302259
0.0317267
0.0330314
0.0337806
0.0328522
0.0289571
0.0203826
0.00449311
-0.0204667
-0.054304
-0.0989597
-0.137335
-0.157175
-0.157508
-0.133052
-0.0983102
-0.0576774
-0.0250169
0.000811061
0.0167714
0.0247517
0.0283631
0.0298609
0.030085
0.0299846
0.029606
0.0291769
0.0287526
0.0283661
0.028069
0.0278561
0.0277238
0.0250601
0.0251136
0.0254228
0.0259346
0.0266478
0.0275652
0.028695
0.0300671
0.03167
0.0334415
0.0350567
0.0365971
0.0359068
0.0310619
0.0195668
-0.000855772
-0.0301949
-0.0682715
-0.117133
-0.163318
-0.198936
-0.197727
-0.169968
-0.129654
-0.0817364
-0.0414162
-0.00982271
0.00827389
0.0185403
0.0238458
0.0266964
0.0280238
0.0286302
0.0287603
0.0286909
0.028521
0.028327
0.0281532
0.0280146
0.0279251
0.0258477
0.0259476
0.0262207
0.026676
0.0273403
0.0282156
0.0292962
0.0306029
0.0321401
0.033894
0.035513
0.037287
0.0360753
0.0299889
0.0175219
-0.00376196
-0.0337649
-0.0711942
-0.11649
-0.157524
-0.194375
-0.189033
-0.15811
-0.119597
-0.0750415
-0.0387667
-0.0105673
0.0063896
0.0166198
0.0221264
0.0253545
0.0269839
0.0278519
0.0282126
0.0283376
0.0283229
0.0282416
0.0281484
0.0280713
0.0280397
0.0262692
0.0264361
0.0267012
0.027096
0.0276618
0.0284076
0.0293397
0.0304805
0.0317839
0.0332434
0.0345459
0.0352977
0.0328151
0.0252992
0.012003
-0.00767825
-0.0344094
-0.06619
-0.0996374
-0.12523
-0.141151
-0.133336
-0.109242
-0.0801475
-0.0496991
-0.0238416
-0.00292193
0.0103283
0.0184711
0.0228813
0.0255485
0.0269832
0.0277656
0.0281555
0.0283194
0.0283442
0.0282987
0.0282333
0.0281787
0.0281566
0.0262747
0.0264147
0.0266466
0.0269874
0.0274502
0.0280425
0.0287633
0.0296132
0.0305025
0.0312991
0.0317216
0.0307237
0.0264178
0.017569
0.00305451
-0.0160598
-0.0394577
-0.0645354
-0.085143
-0.0948929
-0.0941149
-0.08423
-0.0667469
-0.0447192
-0.023222
-0.00432261
0.00943416
0.0176542
0.0224481
0.0251607
0.0268148
0.0277106
0.0282068
0.028443
0.028528
0.0285138
0.0284583
0.0283828
0.0283167
0.0282489
0.0260078
0.0260688
0.026236
0.026495
0.0268269
0.0272141
0.0276182
0.0280105
0.0282175
0.0279745
0.0268466
0.0236849
0.0168442
0.00557522
-0.0101322
-0.0290035
-0.0492921
-0.0686573
-0.0830248
-0.0849186
-0.0783931
-0.0642829
-0.0449496
-0.0239795
-0.00471433
0.00950888
0.0183908
0.0236282
0.0264595
0.0278209
0.0285382
0.0287754
0.0288516
0.0287982
0.0287166
0.028604
0.0285067
0.0284113
0.0283367
0.0282618
0.0256305
0.0256801
0.0257761
0.0259145
0.0260664
0.0261937
0.0262181
0.0260503
0.0254893
0.0242068
0.0214495
0.0161307
0.00635606
-0.0082185
-0.0269499
-0.0484831
-0.0689361
-0.0857507
-0.0971201
-0.0967923
-0.0882647
-0.0670697
-0.0413867
-0.0178966
0.00210127
0.0154518
0.0236557
0.0279258
0.0297746
0.0302964
0.0302687
0.0298997
0.0295018
0.0291176
0.0288157
0.0285642
0.0283767
0.0282415
0.0281602
0.0281414
0.0252086
0.0252738
0.0253211
0.0253476
0.0253189
0.0252054
0.0249112
0.0243022
0.023121
0.0210468
0.017195
0.0104953
-0.00124828
-0.0188389
-0.0415817
-0.067796
-0.0926099
-0.110796
-0.123736
-0.123015
-0.106785
-0.0789573
-0.0467826
-0.0200807
0.00140107
0.0158906
0.0251202
0.0299214
0.0319491
0.0320331
0.0313595
0.0306175
0.0298837
0.0292652
0.0288005
0.0284288
0.0281593
0.0279896
0.0279048
0.0279572
0.0247374
0.0248022
0.0248041
0.0247644
0.0246375
0.0243925
0.0239284
0.0231217
0.0216853
0.0192975
0.0151496
0.00835872
-0.00312865
-0.0202423
-0.0433063
-0.0698329
-0.0987425
-0.118899
-0.135045
-0.136325
-0.113092
-0.0835372
-0.0504976
-0.0240851
-0.00214655
0.0132025
0.0239586
0.0297224
0.0321966
0.032384
0.0313122
0.030509
0.0297478
0.0290936
0.0285973
0.0282087
0.0279342
0.0277721
0.0276921
0.0276868
0.0243105
0.0243224
0.0243046
0.0242515
0.0241124
0.0238548
0.0233996
0.0226493
0.021351
0.019211
0.0155619
0.00950721
-9.63741e-05
-0.0137288
-0.0317325
-0.0533184
-0.0774034
-0.0965768
-0.11298
-0.116115
-0.0995584
-0.0772112
-0.050129
-0.0263045
-0.00586727
0.0093411
0.0200733
0.0264462
0.0298044
0.0307375
0.0302899
0.029669
0.0290553
0.0285336
0.0281128
0.0277854
0.0275471
0.0273852
0.0272679
0.0271775
0.0240307
0.0240228
0.0240093
0.0239742
0.0238791
0.0236927
0.0233561
0.0228005
0.0218821
0.0203955
0.0178976
0.0137956
0.00693768
-0.00311576
-0.0161932
-0.0312924
-0.04832
-0.0639094
-0.0757071
-0.0809847
-0.0773987
-0.0660247
-0.0485561
-0.0291706
-0.0116382
0.00256293
0.0136502
0.0212532
0.0256716
0.027709
0.0281533
0.0280257
0.0277442
0.0274437
0.0271608
0.0269309
0.0267508
0.0266162
0.0265137
0.0264291
0.0238448
0.0238619
0.0238703
0.0238667
0.0238296
0.023753
0.0235934
0.0233241
0.0228591
0.0221336
0.0208608
0.0186533
0.0147203
0.00817185
-0.00170695
-0.0137986
-0.0274235
-0.0413931
-0.0525748
-0.0598365
-0.0625084
-0.0597139
-0.0484142
-0.0337161
-0.019001
-0.00596811
0.0053617
0.0140202
0.0198748
0.0233083
0.0249304
0.0256201
0.0258661
0.0258956
0.0258333
0.0257469
0.0256624
0.0255953
0.0255551
0.0255464
0.0236214
0.0236336
0.023656
0.0236893
0.023729
0.0237889
0.0238481
0.0239069
0.0239232
0.0238971
0.0235806
0.0227119
0.02044
0.0159491
0.00799424
-0.00304897
-0.0168934
-0.032123
-0.0469313
-0.0585967
-0.0622798
-0.0626047
-0.0546473
-0.0430953
-0.0303806
-0.017301
-0.00497895
0.00528799
0.0130789
0.0182597
0.0212179
0.0228635
0.0237441
0.0242039
0.02443
0.0245323
0.0245686
0.0245814
0.0245983
0.0246414
0.0233026
0.0232712
0.0233042
0.0233863
0.0235193
0.0237159
0.023978
0.0243284
0.0247647
0.0251888
0.0255048
0.0252321
0.023653
0.0200669
0.0124472
0.00117577
-0.0142162
-0.0319378
-0.0515459
-0.0677922
-0.0762758
-0.0776864
-0.0702234
-0.0593637
-0.0458816
-0.0308947
-0.0154319
-0.00269933
0.00728644
0.0139556
0.0179912
0.020407
0.0218061
0.0226516
0.0231694
0.0234641
0.0236353
0.0237224
0.0237645
0.0237774
0.0229498
0.0229045
0.0229414
0.0230467
0.0232292
0.0234972
0.0238544
0.0243513
0.0249807
0.0255978
0.0262964
0.0259412
0.023969
0.0200204
0.012313
0.00112621
-0.0143408
-0.0329157
-0.0551462
-0.0756054
-0.0915727
-0.0924501
-0.0830793
-0.0714539
-0.0556272
-0.0382872
-0.0209386
-0.00667295
0.00426206
0.0115869
0.0159758
0.018722
0.0203899
0.0214327
0.0221276
0.0225562
0.0228163
0.0229552
0.0230133
0.0229778
0.0225029
0.0225299
0.0225849
0.0226843
0.0228495
0.0230961
0.0234247
0.0238538
0.024403
0.0249116
0.025274
0.02453
0.0220885
0.0175486
0.00957373
-0.00137234
-0.0162612
-0.033363
-0.054348
-0.0724077
-0.0897578
-0.0895981
-0.0777552
-0.0661269
-0.0494888
-0.0328327
-0.0171069
-0.00454421
0.00487701
0.0113268
0.0154553
0.0180147
0.0196601
0.0206906
0.0213624
0.0217901
0.0220498
0.0221927
0.0222633
0.0222382
0.0218612
0.0219252
0.0219954
0.0220812
0.0222003
0.0223598
0.0225681
0.022804
0.0230673
0.0231564
0.0227054
0.021121
0.0177943
0.0124741
0.00442059
-0.00620872
-0.0195476
-0.0343795
-0.0496872
-0.0611473
-0.068487
-0.0658474
-0.0570095
-0.0461853
-0.0323775
-0.0195413
-0.0082169
0.000968121
0.00818328
0.0131576
0.0163665
0.0183484
0.0195972
0.0203875
0.0209058
0.021233
0.0214356
0.0215464
0.0216088
0.0216369
0.0210524
0.0210798
0.0211017
0.0211302
0.0211667
0.0212039
0.0212286
0.0211734
0.0209888
0.0204299
0.0190119
0.016398
0.0119837
0.00570509
-0.00254496
-0.0124514
-0.0237946
-0.0353584
-0.0449258
-0.0490493
-0.0487903
-0.0442895
-0.036481
-0.026733
-0.0160234
-0.00641184
0.00179528
0.00841719
0.0132495
0.0162778
0.018133
0.019257
0.0199931
0.0204658
0.0207777
0.0209726
0.0210929
0.0211606
0.0211995
0.0212238
0.0201798
0.0201298
0.020094
0.020058
0.0200019
0.0198898
0.0196834
0.0192709
0.0184877
0.0171104
0.0145986
0.0106431
0.00503575
-0.00214452
-0.0107047
-0.0201089
-0.0297157
-0.0385014
-0.04441
-0.0446268
-0.0417866
-0.0348001
-0.0253376
-0.0149868
-0.00478379
0.00377131
0.0105631
0.0150523
0.0178173
0.019247
0.0199689
0.0203286
0.0205495
0.020687
0.0207793
0.0208346
0.0208742
0.0208972
0.0209053
0.0209011
0.0193456
0.0192876
0.0192221
0.0191269
0.0189692
0.0186954
0.0182381
0.0174816
0.0161808
0.0139971
0.0103967
0.00497561
-0.00229827
-0.0111915
-0.0211393
-0.031121
-0.0404641
-0.0479188
-0.0521477
-0.0498937
-0.0448454
-0.034665
-0.0221389
-0.00986431
0.00157145
0.0101973
0.0163383
0.0196315
0.0212581
0.0216152
0.0214636
0.0212327
0.0210085
0.0208226
0.0206944
0.0206035
0.0205536
0.020529
0.0205205
0.0205243
0.0186161
0.0186122
0.0185454
0.0184094
0.0181563
0.0177443
0.0170938
0.016069
0.014437
0.0117511
0.00737084
0.000842398
-0.00797755
-0.0190371
-0.0311264
-0.0427626
-0.0530644
-0.0604949
-0.064966
-0.0621257
-0.0508281
-0.0365858
-0.0211904
-0.00727961
0.00448148
0.0131276
0.0188658
0.0215189
0.0227315
0.0228398
0.0221965
0.0216494
0.0211406
0.020743
0.020454
0.0202524
0.0201252
0.0200546
0.0200329
0.0200832
0.0179724
0.0180115
0.0179443
0.0177857
0.0174983
0.0170469
0.0163389
0.0152613
0.0135519
0.0108447
0.00655468
0.000143989
-0.00859093
-0.0199389
-0.0327408
-0.0452831
-0.0570069
-0.0648664
-0.0701686
-0.0673688
-0.0526077
-0.0370526
-0.0207938
-0.00704468
0.00414188
0.0122361
0.0177648
0.0206147
0.0222113
0.0224923
0.0219572
0.021373
0.0207816
0.0203578
0.0200395
0.0198195
0.0196786
0.0196062
0.0195813
0.0196103
0.017408
0.017417
0.0173543
0.0172257
0.0169866
0.0166056
0.0160116
0.0150967
0.0136355
0.0113464
0.00774747
0.00249342
-0.00439994
-0.0133871
-0.0240746
-0.0351019
-0.0462546
-0.0538687
-0.0590999
-0.0578807
-0.0478224
-0.035688
-0.0218612
-0.00980859
0.000393525
0.00819797
0.0139349
0.0174581
0.0195934
0.0204466
0.0205069
0.0202721
0.0199142
0.0196328
0.0194184
0.0192644
0.019161
0.0190972
0.019051
0.0190159
0.0170067
0.0169741
0.0169229
0.0168423
0.0166937
0.0164528
0.0160696
0.0154748
0.0145366
0.0130139
0.0106357
0.00696388
0.00202947
-0.00404722
-0.0114644
-0.019665
-0.0282458
-0.0352902
-0.0405125
-0.0420792
-0.039269
-0.0329488
-0.0240414
-0.0145303
-0.00565858
0.00189884
0.00795629
0.0123175
0.0153819
0.0171727
0.0180739
0.0184072
0.0184592
0.0184506
0.0184119
0.0183758
0.0183455
0.0183218
0.0182944
0.0182552
0.0167514
0.016738
0.0167234
0.016697
0.0166387
0.0165408
0.0163783
0.0161318
0.0157359
0.0150595
0.0138963
0.011959
0.00881314
0.00455948
-0.000938274
-0.0074463
-0.0146309
-0.0215648
-0.0275878
-0.0317373
-0.0326967
-0.0311598
-0.0264063
-0.019531
-0.0120694
-0.00500579
0.00128324
0.00639806
0.0103725
0.0131715
0.014997
0.0160402
0.0166094
0.0169369
0.0171122
0.0172196
0.0172857
0.0173344
0.0173696
0.0173912
0.0165293
0.0165422
0.0165533
0.0165697
0.0165915
0.0166282
0.0166717
0.0167341
0.01682
0.0168543
0.0166553
0.0159319
0.0141681
0.0112362
0.00660275
0.000494547
-0.00724009
-0.0154215
-0.02339
-0.0297308
-0.0324904
-0.0340224
-0.031807
-0.0266754
-0.0200314
-0.0129438
-0.0060479
6.75708e-05
0.00517107
0.00911677
0.0119079
0.0137053
0.0148015
0.0154687
0.0158649
0.0161109
0.0162647
0.0163702
0.0164519
0.0165298
0.0162245
0.0162142
0.0162393
0.0162951
0.0163955
0.0165526
0.016774
0.0170787
0.017484
0.0179741
0.0184725
0.0185683
0.017665
0.0156026
0.0114418
0.00534597
-0.00294915
-0.0127585
-0.0229115
-0.0319358
-0.0388519
-0.0426354
-0.0414853
-0.0369108
-0.0301272
-0.0222357
-0.0139506
-0.00611582
0.000579633
0.00572385
0.00940073
0.0118201
0.0133389
0.0142779
0.014869
0.0152496
0.015486
0.0156304
0.0157171
0.0157663
0.0158481
0.0158047
0.0158326
0.0159096
0.0160535
0.0162766
0.0165935
0.0170226
0.0175867
0.0182257
0.0189343
0.0191495
0.0184415
0.0169319
0.013403
0.00776176
-0.000202205
-0.0106726
-0.0227272
-0.0345226
-0.0450062
-0.0501535
-0.0488675
-0.0439806
-0.0365815
-0.0276207
-0.0182688
-0.00925526
-0.00166787
0.00397388
0.00805132
0.0107128
0.0124046
0.0134444
0.0141565
0.0146211
0.0149144
0.0150714
0.0151462
0.0151341
0.0154162
0.0154133
0.0154421
0.0155056
0.0156289
0.0158239
0.0161041
0.0164701
0.016951
0.0173823
0.0178791
0.0177188
0.0166339
0.0148813
0.0114277
0.0061502
-0.00105738
-0.0104842
-0.0217873
-0.0333453
-0.0431721
-0.0478866
-0.0460522
-0.0406908
-0.0331112
-0.0244436
-0.015485
-0.00718578
-0.000472926
0.00445152
0.00807314
0.0104752
0.0120406
0.01305
0.0137176
0.014129
0.0144032
0.014554
0.0146182
0.0145841
0.0148565
0.0148941
0.0149341
0.0149792
0.0150438
0.0151353
0.015265
0.0154167
0.0155834
0.015575
0.01527
0.0144069
0.0126205
0.0099518
0.00597869
0.000628009
-0.00588844
-0.0134583
-0.0217224
-0.0293079
-0.0339493
-0.0352617
-0.0325268
-0.0276119
-0.0212621
-0.0142931
-0.00751669
-0.00161633
0.00301751
0.00667125
0.00938545
0.0111629
0.0123042
0.013035
0.013499
0.0137909
0.0139776
0.0140807
0.0141338
0.0141451
0.0141654
0.0141834
0.0141811
0.0141643
0.0141371
0.0140906
0.0140098
0.013849
0.0135633
0.012956
0.01181
0.00997129
0.00729894
0.00374474
-0.000754243
-0.00605856
-0.0118793
-0.017292
-0.0216106
-0.024448
-0.024744
-0.022848
-0.0189835
-0.0143951
-0.00905794
-0.0038006
0.000866993
0.0047007
0.00766878
0.00997723
0.0115056
0.0124046
0.0129834
0.0133292
0.0135476
0.0136815
0.013762
0.0138049
0.0138325
0.0138555
0.0134125
0.0133642
0.0132992
0.0132129
0.0130935
0.0129111
0.0126229
0.0121339
0.0113526
0.0100771
0.00811324
0.00536914
0.00181366
-0.00255962
-0.00758399
-0.0128142
-0.0179831
-0.0219586
-0.0235173
-0.0228112
-0.0208217
-0.0167061
-0.0113243
-0.0059556
-0.00066061
0.00395283
0.00752679
0.010178
0.0119406
0.0129479
0.0134382
0.0136222
0.013696
0.0137023
0.013706
0.0137028
0.0136952
0.0136835
0.0136731
0.0136702
0.0127017
0.0126228
0.0125273
0.0123978
0.0122101
0.011914
0.0114487
0.0106934
0.00947293
0.00756558
0.00480864
0.00106847
-0.0037248
-0.00929582
-0.0153191
-0.0210828
-0.0260378
-0.0293339
-0.0293113
-0.0257786
-0.0208785
-0.0149244
-0.00795975
-0.00104997
0.00481166
0.00936134
0.0124316
0.0141985
0.0150642
0.0151515
0.0148475
0.0144847
0.014171
0.0139172
0.0137352
0.0136155
0.0135414
0.0134943
0.0134664
0.0134486
0.0121115
0.0120785
0.0119952
0.0118479
0.0116051
0.0112223
0.0106239
0.00968265
0.00818152
0.00580121
0.00236718
-0.00227966
-0.00832748
-0.0152074
-0.0222835
-0.0288522
-0.0338471
-0.0371446
-0.0366214
-0.0308432
-0.0229761
-0.0142736
-0.00528827
0.0028981
0.00883215
0.0130214
0.0154667
0.01648
0.0166882
0.0162006
0.015463
0.0148239
0.0142803
0.0138698
0.0135602
0.0133508
0.0132166
0.013137
0.0131006
0.013119
0.0116387
0.0116662
0.0116052
0.0114647
0.0112051
0.010793
0.0101575
0.0091693
0.00768657
0.00529107
0.00183267
-0.00287233
-0.00907087
-0.0162574
-0.0236519
-0.030652
-0.0356584
-0.0393196
-0.0387604
-0.0325075
-0.0234072
-0.0136601
-0.00402309
0.00411602
0.00955553
0.0133184
0.0153324
0.0160824
0.0162053
0.0158109
0.0151505
0.0145163
0.0139433
0.0135086
0.0131824
0.0129515
0.0128025
0.0127245
0.0126952
0.0127281
0.0112488
0.0112759
0.011228
0.0111135
0.0109048
0.0105663
0.0100368
0.00920525
0.00796216
0.00602221
0.00322221
-0.000505549
-0.00538971
-0.0112485
-0.0174046
-0.0234792
-0.0280746
-0.0313904
-0.0319524
-0.0279408
-0.0216723
-0.0138099
-0.00601615
0.000678684
0.00570464
0.00938524
0.0117112
0.013093
0.0137983
0.0139526
0.0137815
0.0134839
0.0131287
0.0128452
0.0126288
0.0124728
0.012367
0.0123127
0.0122834
0.0122661
0.0109595
0.0109497
0.0109122
0.0108488
0.0107332
0.0105457
0.010242
0.00975171
0.00897902
0.00780784
0.00602026
0.00360717
0.000636954
-0.00310401
-0.0073397
-0.0118771
-0.0158893
-0.0192917
-0.0212381
-0.0206085
-0.0183384
-0.014421
-0.009979
-0.00535336
-0.000930235
0.00291883
0.00595115
0.00830104
0.00991442
0.0109331
0.011524
0.0117629
0.011822
0.0118202
0.0117963
0.0117737
0.0117504
0.0117296
0.011703
0.0116696
0.0107775
0.0107613
0.0107605
0.0107637
0.0107521
0.0107216
0.0106586
0.0105365
0.0102853
0.00985029
0.00911683
0.00787471
0.00619454
0.00389145
0.000982093
-0.00255284
-0.00620508
-0.00982586
-0.0130331
-0.0149726
-0.015862
-0.0155692
-0.0140662
-0.0110304
-0.00728566
-0.00347464
5.27239e-05
0.00313191
0.00560538
0.00748023
0.00881054
0.00965291
0.0101741
0.0104926
0.0106835
0.0108061
0.010886
0.0109398
0.010971
0.0109819
0.0106626
0.0106778
0.0107036
0.0107449
0.0108017
0.0108895
0.0110098
0.0111699
0.0113445
0.0114792
0.0114911
0.0111903
0.0104458
0.0090211
0.00680953
0.00354976
-0.000324685
-0.00469891
-0.00904285
-0.01277
-0.0161177
-0.0187665
-0.0192786
-0.0173534
-0.0140418
-0.00994938
-0.00570409
-0.00175883
0.00162798
0.00428252
0.0062876
0.00770174
0.00864743
0.00924398
0.0096201
0.00986387
0.0100242
0.01014
0.0102267
0.0102958
0.0104904
0.0105056
0.0105415
0.0106058
0.010715
0.0108848
0.0111251
0.0114614
0.0118961
0.0124366
0.0130127
0.0134813
0.0134733
0.0127635
0.0111585
0.00828189
0.00425724
-0.00117754
-0.00700175
-0.0129972
-0.0188238
-0.0238022
-0.0255764
-0.0244912
-0.0213027
-0.0167457
-0.0116034
-0.00649507
-0.00193911
0.00166054
0.00434616
0.00625978
0.00753383
0.00833792
0.00884537
0.0091751
0.00938651
0.00952747
0.00962447
0.00968984
0.010197
0.0101804
0.0102147
0.0102938
0.0104345
0.0106481
0.0109473
0.0113618
0.011918
0.0126154
0.013368
0.0141774
0.0146896
0.0145427
0.0135264
0.0111506
0.00722282
0.00120836
-0.00596565
-0.013546
-0.0209348
-0.0271637
-0.0294075
-0.0287335
-0.0252592
-0.0204139
-0.01479
-0.00907786
-0.00390774
0.000260398
0.00329186
0.00546301
0.00688273
0.00778484
0.00837056
0.00874937
0.00898606
0.00912537
0.00919577
0.00920208
0.00984372
0.00983011
0.00985356
0.00991488
0.0100316
0.0102086
0.0104727
0.0108452
0.0113044
0.0118925
0.012408
0.0129491
0.0132483
0.0129723
0.0119615
0.00979821
0.00629163
0.000919952
-0.00569894
-0.0128494
-0.0196525
-0.0250697
-0.0265536
-0.025593
-0.0224278
-0.0179881
-0.0128542
-0.00764106
-0.00294549
0.000768696
0.0034271
0.00539459
0.00669741
0.00754838
0.00809453
0.00845441
0.00867893
0.00880056
0.00884892
0.00881899
0.00941151
0.00943318
0.0094566
0.0094908
0.00954728
0.00963095
0.00975634
0.00992444
0.0100936
0.0102464
0.0102112
0.00998808
0.00941289
0.00830114
0.00664488
0.00420592
0.00101724
-0.00298731
-0.00739828
-0.0117666
-0.0154073
-0.0177921
-0.0177294
-0.0160957
-0.0134318
-0.0100136
-0.00631189
-0.00273833
0.000383906
0.00284187
0.0047073
0.0060979
0.00701811
0.0076121
0.00799845
0.00824429
0.00839635
0.00848244
0.00852289
0.00850734
0.00885939
0.0088752
0.00888154
0.00887111
0.00884662
0.00880381
0.00873041
0.00860651
0.00836269
0.00795035
0.00721438
0.00612155
0.0045841
0.0026071
0.000309176
-0.00238353
-0.00505905
-0.00751378
-0.0092427
-0.0104609
-0.0109724
-0.0107363
-0.00912822
-0.00684864
-0.00452141
-0.00179702
0.000655191
0.00278581
0.00446111
0.00572799
0.00671304
0.0073502
0.00774256
0.00797376
0.00810968
0.00818776
0.0082268
0.00824468
0.00825235
0.00826844
0.00826304
0.0082335
0.00818312
0.00810256
0.00798817
0.00781576
0.00755107
0.0071459
0.00650702
0.00557672
0.00423046
0.00244337
0.000159534
-0.0025182
-0.00538647
-0.00830892
-0.0106931
-0.0120847
-0.0118949
-0.0104609
-0.00846765
-0.00628011
-0.00363863
-0.000890036
0.00162263
0.00404142
0.00576224
0.00704233
0.00783657
0.00827352
0.00846625
0.00849364
0.00844533
0.00837523
0.00830206
0.00824296
0.00819907
0.00816684
0.00814784
0.008145