/*--------------------------------*- C++ -*----------------------------------*\
| =========                 |                                                 |
| \\      /  F ield         | OpenFOAM: The Open Source CFD Toolbox           |
|  \\    /   O peration     | Version:  v2106                                 |
|   \\  /    A nd           | Website:  www.openfoam.com                      |
|    \\/     M anipulation  |                                                 |
\*---------------------------------------------------------------------------*/
FoamFile
{
    version     2.0;
    format      ascii;
    arch        "LSB;label=32;scalar=64";
    class       volVectorField;
    location    "0";
    object      U;
}
// * * * * * * * * * * * * * * * * * * * * * * * * * * * * * * * * * * * * * //

dimensions      [0 1 -1 0 0 0 0];

internalField   nonuniform List<vector> 
11644
(
(0.993864 -0.00024801 9.03624e-24)
(0.993748 -0.000662104 2.49193e-23)
(0.993675 -0.000984515 1.33698e-23)
(0.993655 -0.00131548 0)
(0.993652 -0.00167148 0)
(0.99365 -0.00205203 0)
(0.993647 -0.00245248 0)
(0.993644 -0.0028666 0)
(0.99364 -0.00328539 0)
(0.99364 -0.00369456 0)
(0.993633 -0.00407455 0)
(0.993596 -0.0044168 0)
(0.993624 -0.00467017 0)
(0.993808 -0.00482146 0)
(0.99368 -0.0048698 0)
(0.993667 -0.0047781 0)
(0.993638 -0.00452521 0)
(0.993537 -0.00411088 0)
(0.993609 -0.00364013 0)
(0.993687 -0.00313411 3.40802e-30)
(0.993521 -0.00249521 -3.40493e-30)
(0.993164 -0.00153097 0)
(0.992993 -0.00029769 0)
(0.993237 0.000766094 0)
(0.993532 0.00138823 0)
(0.993609 0.00180563 0)
(0.993774 0.00220108 0)
(0.993651 0.00239408 0)
(0.993606 0.00250145 0)
(0.993622 0.00250147 0)
(0.99363 0.00241752 0)
(0.993636 0.00226721 0)
(0.993636 0.00206927 0)
(0.993636 0.00183813 0)
(0.993637 0.00158707 0)
(0.993641 0.00132901 0)
(0.993648 0.00106739 0)
(0.993665 0.00081127 0)
(0.993726 0.00055653 0)
(0.99383 0.000213006 1.75203e-24)
(0.994711 -0.000497039 1.1607e-23)
(0.994641 -0.0015103 1.07518e-23)
(0.994597 -0.00255694 5.77445e-24)
(0.994609 -0.00361521 0)
(0.994657 -0.00470684 0)
(0.99472 -0.00584938 0)
(0.994787 -0.00705015 0)
(0.994845 -0.00829949 0)
(0.994881 -0.00957776 0)
(0.994883 -0.0108484 0)
(0.994812 -0.0120691 0)
(0.994729 -0.0131406 0)
(0.99451 -0.0140243 0)
(0.993947 -0.014659 0)
(0.993667 -0.0148028 0)
(0.993095 -0.0145352 -3.96617e-24)
(0.992495 -0.013766 2.17613e-24)
(0.992243 -0.012652 -1.5977e-23)
(0.991885 -0.0110601 -4.8242e-23)
(0.991338 -0.00880228 -5.61901e-23)
(0.9908 -0.00595529 1.08714e-22)
(0.990587 -0.00294843 -8.99399e-24)
(0.990854 -0.000259079 1.89216e-23)
(0.991399 0.00202533 -1.25423e-24)
(0.99198 0.00404489 2.18636e-24)
(0.992497 0.00565948 0)
(0.992703 0.00673559 0)
(0.993274 0.00742979 0)
(0.99367 0.00769825 0)
(0.993907 0.00763898 0)
(0.994072 0.00732926 0)
(0.994204 0.00682569 0)
(0.994293 0.00618752 0)
(0.994347 0.00545928 0)
(0.994376 0.00467465 0)
(0.994388 0.0038586 0)
(0.994395 0.00302849 0)
(0.994417 0.00218221 0)
(0.994479 0.00131434 0)
(0.994561 0.000437412 0)
(0.996381 -0.00075545 0)
(0.996366 -0.00233121 0)
(0.996408 -0.00397738 0)
(0.996513 -0.00569622 0)
(0.996671 -0.0074875 1.06028e-23)
(0.996859 -0.00937276 0)
(0.997057 -0.0113596 0)
(0.997237 -0.0134414 0)
(0.997365 -0.0155919 0)
(0.997379 -0.0177733 0)
(0.997283 -0.0198713 0)
(0.996867 -0.021848 0)
(0.996159 -0.0234885 2.04169e-24)
(0.995464 -0.0245664 3.32458e-23)
(0.993914 -0.0251195 1.52595e-22)
(0.992452 -0.0248406 -6.66878e-22)
(0.99111 -0.0237622 1.68499e-22)
(0.989372 -0.0215153 3.48853e-22)
(0.987591 -0.0179577 -3.33918e-22)
(0.986085 -0.0133642 6.12648e-22)
(0.985326 -0.00832933 -6.49148e-22)
(0.98546 -0.0033558 2.56668e-22)
(0.98639 0.00108497 -2.63727e-22)
(0.987642 0.00495284 5.33403e-22)
(0.988988 0.00830759 1.5709e-23)
(0.990356 0.0108876 -1.66899e-22)
(0.992 0.0126731 -4.21484e-23)
(0.992914 0.0135717 -3.4727e-24)
(0.993747 0.0138292 0)
(0.994496 0.013524 0)
(0.995072 0.0128005 0)
(0.995433 0.0117978 0)
(0.995669 0.0105995 0)
(0.995806 0.00927996 0)
(0.995875 0.00789182 0)
(0.995902 0.00646792 0)
(0.995914 0.00502857 0)
(0.995935 0.00357574 0)
(0.995984 0.0021132 0)
(0.996047 0.000690045 0)
(0.998833 -0.00102674 0)
(0.99887 -0.00309625 0)
(0.999006 -0.00527672 0)
(0.999247 -0.00754572 0)
(0.999573 -0.00994035 0)
(0.999959 -0.0124888 0)
(1.00037 -0.0152056 0)
(1.00075 -0.018092 0)
(1.00103 -0.0211329 0)
(1.00115 -0.0242515 0)
(1.00088 -0.027431 -1.05672e-24)
(1.00026 -0.0304416 -1.67823e-23)
(0.999068 -0.0331032 2.88428e-22)
(0.996852 -0.0352839 -4.69517e-22)
(0.994713 -0.0361509 2.20416e-22)
(0.991595 -0.0358691 1.16214e-22)
(0.987769 -0.0338458 -3.0634e-22)
(0.983723 -0.0298799 -4.49414e-22)
(0.980247 -0.0240328 9.67022e-22)
(0.977673 -0.0171314 -1.79041e-22)
(0.976517 -0.00972901 -8.39708e-23)
(0.97695 -0.00225238 -1.00142e-22)
(0.978923 0.00463722 -1.84482e-22)
(0.981464 0.0104651 -9.78114e-23)
(0.984272 0.0151735 3.28202e-22)
(0.98727 0.0185738 -2.29328e-22)
(0.9897 0.0206628 4.69735e-22)
(0.992576 0.0215071 -3.02702e-22)
(0.994558 0.0213765 3.18279e-23)
(0.995902 0.0205206 1.54213e-24)
(0.99683 0.0191251 0)
(0.997507 0.0173603 0)
(0.997906 0.0154086 0)
(0.998126 0.0133514 0)
(0.998226 0.011254 0)
(0.998254 0.00915253 0)
(0.998251 0.00706749 0)
(0.998251 0.00500306 0)
(0.998276 0.00297344 0)
(0.99833 0.000978377 0)
(1.00193 -0.00120864 0)
(1.00203 -0.00372595 0)
(1.0023 -0.00631611 0)
(1.00272 -0.00904304 0)
(1.00327 -0.0119568 0)
(1.00392 -0.015086 0)
(1.00463 -0.0184658 0)
(1.00531 -0.022119 0)
(1.00587 -0.0260423 0)
(1.00612 -0.0302543 -2.17814e-24)
(1.00602 -0.0346574 -2.03753e-23)
(1.0053 -0.03913 2.22803e-22)
(1.00353 -0.0433081 2.20823e-24)
(1.0012 -0.046384 -5.39386e-22)
(0.996124 -0.0485116 7.35942e-22)
(0.990495 -0.0482109 -2.05161e-25)
(0.983985 -0.0456169 4.89587e-22)
(0.975891 -0.0399488 2.60741e-22)
(0.969476 -0.0313873 -1.76237e-21)
(0.964924 -0.0206192 -3.79841e-21)
(0.963293 -0.0088378 4.06439e-21)
(0.964757 0.00254788 -1.3802e-23)
(0.968593 0.0124933 1.46958e-21)
(0.973361 0.0202737 -7.55644e-23)
(0.978423 0.0260416 -5.97395e-22)
(0.9838 0.0298348 -7.50433e-22)
(0.989147 0.0315352 5.84578e-22)
(0.992645 0.0318315 1.417e-22)
(0.995822 0.0308401 -4.58593e-22)
(0.998291 0.0289077 5.86473e-23)
(0.999828 0.0264265 -1.38462e-23)
(1.00069 0.0236264 0)
(1.00122 0.0206679 0)
(1.00146 0.017707 0)
(1.00153 0.0147907 0)
(1.0015 0.0119489 0)
(1.00143 0.0091876 0)
(1.00138 0.00650051 0)
(1.00137 0.00385183 0)
(1.0014 0.00128219 0)
(1.00551 -0.00142982 0)
(1.00569 -0.00424537 0)
(1.00611 -0.0071741 0)
(1.00675 -0.010254 0)
(1.00759 -0.0135464 0)
(1.0086 -0.0171315 0)
(1.00971 -0.0210675 0)
(1.01085 -0.0254092 0)
(1.01187 -0.030228 3.86828e-24)
(1.01272 -0.0355994 -8.25324e-23)
(1.01322 -0.041511 3.63878e-24)
(1.01276 -0.0477764 3.10686e-23)
(1.01066 -0.0539361 4.98958e-22)
(1.00544 -0.0602751 -5.37728e-22)
(0.998852 -0.0631327 -3.173e-23)
(0.988378 -0.0632393 7.80446e-22)
(0.975947 -0.0605943 -1.32671e-21)
(0.963007 -0.0528838 7.5617e-22)
(0.952136 -0.0395158 -1.32212e-21)
(0.94518 -0.0232288 4.19958e-21)
(0.943009 -0.00558248 -2.48271e-21)
(0.946197 0.0115607 1.22518e-21)
(0.953417 0.0262902 -2.67053e-21)
(0.962772 0.0366202 9.98985e-22)
(0.972683 0.0425482 -3.8975e-23)
(0.981194 0.0458666 -1.13542e-22)
(0.987736 0.0467724 7.4282e-22)
(0.994586 0.0447258 -8.65954e-22)
(0.998875 0.0419652 3.20921e-22)
(1.00204 0.0385661 -1.16741e-22)
(1.00427 0.0346268 1.62329e-23)
(1.00543 0.0304571 1.01596e-23)
(1.00587 0.0262955 0)
(1.00599 0.0222511 0)
(1.00591 0.0184009 0)
(1.00573 0.0147407 0)
(1.00552 0.0112547 0)
(1.00535 0.00792189 0)
(1.00524 0.00470462 0)
(1.00523 0.00153859 0)
(1.00943 -0.00145126 0)
(1.00969 -0.00452805 0)
(1.01029 -0.00769191 0)
(1.01119 -0.0110247 0)
(1.01239 -0.0146146 0)
(1.01385 -0.0185485 0)
(1.0155 -0.0229127 0)
(1.01727 -0.0278294 -3.83627e-24)
(1.01924 -0.0335426 2.91718e-24)
(1.02126 -0.0402461 9.91231e-23)
(1.02266 -0.0480093 -9.42238e-23)
(1.02266 -0.0567261 -3.07127e-22)
(1.02024 -0.0663012 5.62251e-22)
(1.01606 -0.073747 3.48164e-22)
(1.00407 -0.0826323 -1.7294e-21)
(0.989002 -0.0857459 1.63462e-21)
(0.974657 -0.0766808 -7.29117e-22)
(0.956743 -0.0689466 1.93222e-21)
(0.939227 -0.05338 -2.03962e-22)
(0.926839 -0.0307801 -3.83002e-22)
(0.922482 -0.00457964 -1.93981e-21)
(0.927098 0.0199939 -1.99423e-22)
(0.937588 0.0395075 1.6953e-22)
(0.951519 0.0527429 1.61026e-21)
(0.967489 0.0679763 -1.72072e-21)
(0.981571 0.0687326 2.2337e-21)
(0.993296 0.0650281 -6.11293e-22)
(0.999221 0.0606033 -6.92025e-23)
(1.00434 0.0548469 -5.7596e-22)
(1.00794 0.0489786 3.95973e-22)
(1.01045 0.0432075 3.79744e-23)
(1.01179 0.037486 -4.99152e-24)
(1.01215 0.0319544 -4.78374e-24)
(1.01191 0.0267171 0)
(1.01147 0.021863 0)
(1.01098 0.0173755 0)
(1.0105 0.0132027 0)
(1.01012 0.00925552 0)
(1.00986 0.00549801 0)
(1.00977 0.00183036 0)
(1.01352 -0.00161168 0)
(1.01389 -0.00469929 0)
(1.01468 -0.00792561 0)
(1.01588 -0.0113409 0)
(1.01749 -0.0150585 0)
(1.01947 -0.0191626 0)
(1.02179 -0.0237884 0)
(1.02456 -0.0291724 1.71371e-23)
(1.02812 -0.0357387 -5.22051e-23)
(1.03173 -0.0438316 -4.98779e-23)
(1.03461 -0.0534814 1.2685e-22)
(1.03598 -0.0645 9.35438e-24)
(1.03518 -0.0762313 -3.82158e-22)
(1.02517 -0.0885432 -4.66674e-22)
(1.01579 -0.0956831 8.23388e-22)
(1.00024 -0.103602 2.29487e-22)
(0.972579 -0.108126 -5.39529e-22)
(0.941427 -0.100882 -1.60007e-21)
(0.908972 -0.080973 -3.67947e-21)
(0.884659 -0.0454631 2.09507e-21)
(0.87631 -0.00081104 6.3569e-22)
(0.887085 0.0410525 5.72696e-21)
(0.909616 0.0713364 -1.75762e-21)
(0.936755 0.0873961 -2.73145e-21)
(0.960775 0.0934689 8.2474e-22)
(0.981808 0.0899929 -2.03233e-22)
(0.995736 0.0828907 9.09041e-24)
(1.00915 0.0772401 -1.58834e-22)
(1.01402 0.0679475 -1.12156e-22)
(1.01696 0.0591896 -6.46354e-23)
(1.01891 0.0512312 2.05576e-22)
(1.01988 0.0439175 1.25061e-23)
(1.02006 0.0370479 -9.42428e-23)
(1.01929 0.0306734 0)
(1.01822 0.0248575 0)
(1.0172 0.0196071 0)
(1.0163 0.0148044 0)
(1.01559 0.010363 0)
(1.01512 0.00608015 0)
(1.01491 0.00202876 0)
(1.01765 -0.00146596 0)
(1.0181 -0.00459879 0)
(1.01909 -0.0078177 0)
(1.02061 -0.0112115 0)
(1.02266 -0.0148884 0)
(1.02524 -0.0189783 0)
(1.02836 -0.0236511 5.50934e-24)
(1.03265 -0.0293188 -4.79872e-24)
(1.03823 -0.0365485 -5.71456e-23)
(1.04385 -0.0455849 1.06454e-22)
(1.04897 -0.0565289 -3.77923e-23)
(1.05292 -0.0698168 -8.40162e-23)
(1.0545 -0.0875544 1.14132e-22)
(1.04417 -0.103289 1.53441e-22)
(1.03484 -0.118141 -2.51088e-22)
(1.01532 -0.136859 3.55365e-22)
(0.983232 -0.147059 4.39987e-22)
(0.935132 -0.152094 -1.50148e-22)
(0.876375 -0.131424 -2.2268e-21)
(0.825194 -0.0790394 -1.65731e-22)
(0.804906 -0.000896766 5.03168e-22)
(0.825809 0.0719053 3.71292e-22)
(0.871725 0.118346 -1.35495e-21)
(0.920955 0.136325 1.73897e-21)
(0.961407 0.134424 8.47825e-22)
(0.992272 0.126237 3.31111e-22)
(1.00853 0.110325 6.90274e-22)
(1.02496 0.0955492 -4.51949e-22)
(1.02831 0.0804577 3.68782e-22)
(1.02948 0.0680786 2.04374e-23)
(1.03 0.0575875 6.25387e-23)
(1.02989 0.0486707 -6.84756e-23)
(1.02938 0.0407266 8.42094e-24)
(1.02802 0.0334253 -2.94028e-24)
(1.02604 0.0268416 0)
(1.02424 0.0209787 0)
(1.02273 0.0157069 0)
(1.02159 0.010888 0)
(1.02084 0.00646241 0)
(1.02049 0.00206743 0)
(1.02163 -0.00144591 0)
(1.02218 -0.00437909 0)
(1.02335 -0.00735777 0)
(1.02518 -0.0105692 0)
(1.02767 -0.0140333 0)
(1.03086 -0.0179025 0)
(1.03501 -0.0223726 -5.70341e-24)
(1.04118 -0.0279899 2.18076e-23)
(1.04892 -0.0352817 -1.48053e-23)
(1.05696 -0.0444209 3.59959e-23)
(1.06506 -0.0556162 -1.84525e-22)
(1.07308 -0.0697773 1.3331e-22)
(1.08026 -0.0897873 3.72253e-23)
(1.0757 -0.111929 -9.43668e-23)
(1.07042 -0.136658 -8.96067e-23)
(1.04888 -0.172242 -4.13007e-23)
(1.01358 -0.203633 -2.61241e-22)
(0.948938 -0.238548 2.44279e-22)
(0.840685 -0.245379 -6.58912e-23)
(0.711339 -0.172355 1.84401e-21)
(0.648495 -0.00911716 -2.88439e-22)
(0.70841 0.1493 -7.83818e-22)
(0.824971 0.219525 -1.96966e-22)
(0.919561 0.219942 5.39196e-22)
(0.983928 0.196324 2.01501e-22)
(1.02317 0.165707 -8.40856e-22)
(1.03613 0.135372 -3.56381e-22)
(1.04921 0.110387 -1.02768e-23)
(1.04817 0.0896733 3.16721e-23)
(1.04586 0.0737589 8.76862e-23)
(1.04375 0.0612033 -1.38177e-22)
(1.04165 0.0508973 4.46029e-23)
(1.03981 0.0421916 9.56396e-24)
(1.03766 0.0344449 1.67872e-23)
(1.03463 0.0274948 0)
(1.03185 0.0214002 0)
(1.02959 0.0160214 0)
(1.02789 0.0111138 0)
(1.02676 0.00652379 0)
(1.02623 0.00224142 0)
(1.02534 -0.00142758 0)
(1.02597 -0.00401018 0)
(1.02734 -0.00678491 0)
(1.02943 -0.00959603 0)
(1.03231 -0.0126355 0)
(1.03606 -0.0159844 0)
(1.0414 -0.0199293 -1.40549e-24)
(1.04946 -0.0249834 1.79517e-24)
(1.05915 -0.031342 -2.32717e-23)
(1.06971 -0.0391853 -1.11167e-24)
(1.08143 -0.0491204 5.76177e-24)
(1.09467 -0.0619663 -3.32024e-23)
(1.10864 -0.0785001 3.26405e-23)
(1.1148 -0.106187 1.57543e-22)
(1.12313 -0.13965 3.36971e-22)
(1.12264 -0.190882 8.28615e-23)
(1.10475 -0.261275 6.99112e-23)
(1.04976 -0.371886 5.7273e-23)
(0.877366 -0.500218 -8.45019e-22)
(0.487314 -0.496382 -4.61181e-20)
(0.186387 -0.0151152 -1.15129e-20)
(0.488113 0.441645 -2.37339e-20)
(0.836882 0.448389 1.59875e-21)
(0.993768 0.342982 4.01073e-23)
(1.05366 0.25674 1.788e-23)
(1.07754 0.193233 -4.26816e-23)
(1.07715 0.151282 -6.60335e-23)
(1.08062 0.113549 8.8543e-23)
(1.07299 0.0916723 -9.71382e-23)
(1.06578 0.0745379 -1.38477e-23)
(1.05971 0.0607712 2.82987e-23)
(1.05466 0.0496651 5.7338e-24)
(1.05081 0.0407091 -7.14604e-24)
(1.04755 0.0330884 4.38857e-24)
(1.04343 0.0262726 0)
(1.0395 0.0203031 0)
(1.03638 0.0150895 0)
(1.03407 0.0104507 0)
(1.03254 0.00610934 0)
(1.03181 0.00194055 0)
(1.02867 -0.000984787 0)
(1.02935 -0.00339682 0)
(1.03081 -0.00570839 0)
(1.03311 -0.00813483 0)
(1.03631 -0.0106926 0)
(1.04054 -0.0133781 0)
(1.04697 -0.0164697 -9.32202e-24)
(1.05646 -0.0202836 -1.41937e-23)
(1.06757 -0.0246927 -1.87127e-23)
(1.08011 -0.0297238 -1.3228e-23)
(1.09505 -0.036023 -1.51316e-23)
(1.11339 -0.0441322 -7.72659e-23)
(1.13579 -0.0546287 1.45915e-22)
(1.15032 -0.0802493 1.58369e-22)
(1.18251 -0.109037 -1.19696e-22)
(1.21149 -0.16253 3.63341e-23)
(1.25156 -0.245269 1.04004e-22)
(1.31187 -0.402085 1.79337e-21)
(1.02746 -0.563383 -1.17474e-19)
(0.985512 0.509363 2.02725e-20)
(1.19464 0.386041 4.53145e-23)
(1.16361 0.260084 1.6111e-22)
(1.1456 0.185741 1.0916e-23)
(1.12625 0.148386 -2.52479e-23)
(1.11495 0.104986 3.32426e-23)
(1.10031 0.0853085 -5.16865e-24)
(1.08745 0.0687687 3.99552e-24)
(1.07665 0.0551849 -1.4251e-23)
(1.06813 0.0444829 -5.81142e-24)
(1.06178 0.0360585 -1.14187e-23)
(1.05702 0.029129 -9.74283e-24)
(1.05182 0.0230725 0)
(1.04674 0.0177794 0)
(1.04275 0.0131958 0)
(1.03983 0.00913699 0)
(1.03793 0.00543845 0)
(1.03699 0.00188417 0)
(1.03152 -0.00101682 0)
(1.03227 -0.00288171 0)
(1.03381 -0.00471288 0)
(1.03624 -0.00664323 0)
(1.0396 -0.00855054 0)
(1.04406 -0.010428 0)
(1.05107 -0.0123647 1.77251e-24)
(1.06115 -0.0143797 -7.12134e-24)
(1.07267 -0.0160102 -1.24523e-23)
(1.08604 -0.0171537 -2.69606e-23)
(1.10214 -0.018131 7.03882e-23)
(1.12281 -0.0190042 -5.65154e-23)
(1.14949 -0.0188961 -8.84353e-23)
(1.17619 -0.035176 -2.67714e-23)
(1.22324 -0.0457611 -1.10194e-21)
(1.27695 -0.0762202 2.28972e-23)
(1.36209 -0.116773 7.33771e-23)
(1.5043 -0.162584 2.89268e-21)
(0.0238022 -0.0167584 5.13236e-19)
(0.0300964 -0.024391 -1.05988e-19)
(1.32131 0.250208 -1.76338e-22)
(1.24981 0.199375 4.21708e-23)
(1.2035 0.150445 -9.00807e-23)
(1.17065 0.122933 -6.47742e-23)
(1.14717 0.0860609 5.45718e-23)
(1.12611 0.070016 -3.12974e-23)
(1.10794 0.0560001 2.48401e-23)
(1.09277 0.0444233 -1.14541e-23)
(1.08082 0.0353302 -2.3385e-24)
(1.07183 0.0282427 2.17459e-24)
(1.06534 0.022616 -3.7304e-24)
(1.05908 0.0178996 0)
(1.05301 0.0138103 0)
(1.04826 0.0102683 0)
(1.04474 0.00705805 0)
(1.04239 0.00410731 0)
(1.04116 0.00119237 0)
(1.03391 -0.000876045 4.52307e-25)
(1.0347 -0.00230789 0)
(1.03634 -0.00385671 0)
(1.03877 -0.00520098 0)
(1.04208 -0.00643867 0)
(1.04646 -0.00749757 0)
(1.05334 -0.00825256 7.79457e-24)
(1.06283 -0.00821084 3.38938e-23)
(1.07329 -0.00694089 -6.79912e-23)
(1.08564 -0.00413537 -2.76279e-23)
(1.10105 0.000660215 -4.22916e-23)
(1.12055 0.0079422 -4.33325e-22)
(1.14641 0.0202398 6.35675e-22)
(1.17831 0.0185082 -1.61987e-22)
(1.22596 0.0293507 -6.98696e-22)
(1.28743 0.0293491 -3.50013e-22)
(1.37451 0.0340605 -1.09392e-21)
(1.46226 0.0580237 -1.04417e-23)
(0.26008 0.00189116 -4.73033e-21)
(0.0402184 -0.022574 6.3109e-21)
(1.22931 0.109751 1.6578e-22)
(1.28009 0.126953 4.75099e-22)
(1.23598 0.104822 -9.07301e-22)
(1.20205 0.0870591 5.93227e-22)
(1.17166 0.0585428 1.44402e-22)
(1.14654 0.0474133 -2.21895e-22)
(1.1248 0.0374969 -1.55862e-23)
(1.10634 0.0293107 -3.17661e-25)
(1.09148 0.0227995 1.09469e-24)
(1.07999 0.0177243 -1.71936e-24)
(1.07168 0.0139359 1.44865e-25)
(1.06433 0.0110048 0)
(1.05755 0.00855513 0)
(1.05229 0.00641622 0)
(1.04843 0.00447025 0)
(1.04585 0.00266786 0)
(1.04462 0.00111361 0)
(1.03603 -0.000382674 -4.22753e-26)
(1.03667 -0.00158558 0)
(1.03815 -0.00262106 0)
(1.04045 -0.0035866 0)
(1.04361 -0.00442304 0)
(1.04772 -0.00498477 0)
(1.0536 -0.00479022 -1.56751e-24)
(1.06131 -0.00307714 -3.882e-23)
(1.06961 0.00060092 4.17319e-23)
(1.07936 0.00675605 -9.35939e-23)
(1.09108 0.0162875 4.22091e-22)
(1.10494 0.0297111 -5.53939e-22)
(1.12324 0.0496859 6.6943e-23)
(1.15317 0.0658303 1.23697e-21)
(1.19044 0.0944874 -1.74648e-21)
(1.24605 0.126332 -5.81892e-22)
(1.32569 0.168518 4.61041e-22)
(1.41692 0.226066 -1.0183e-21)
(0.666253 0.0850107 8.25352e-22)
(0.218974 -0.239428 1.01891e-21)
(-0.124126 -0.320459 -1.41272e-22)
(-0.202119 -0.104511 -1.71008e-22)
(0.00738771 -0.0506535 -2.61897e-22)
(1.05604 0.039491 5.60125e-22)
(1.28343 0.0795184 1.22601e-22)
(1.25361 0.0635671 -3.93111e-22)
(1.22061 0.049061 3.40588e-22)
(1.18705 0.026335 -1.94828e-22)
(1.15983 0.0201321 3.83304e-22)
(1.13593 0.0149638 -2.18846e-22)
(1.11555 0.0109564 -3.22889e-23)
(1.09875 0.0077623 2.30478e-24)
(1.08552 0.00536029 -2.44145e-23)
(1.07567 0.00381019 -1.98375e-24)
(1.0672 0.00303113 0)
(1.06 0.00250385 0)
(1.0545 0.00194262 0)
(1.05061 0.00135209 0)
(1.04819 0.000691538 0)
(1.04697 2.21881e-05 0)
(1.03764 -0.000344913 6.2965e-23)
(1.03835 -0.00113014 0)
(1.03976 -0.00180822 0)
(1.04191 -0.00253289 0)
(1.04481 -0.00305593 0)
(1.04838 -0.0033208 0)
(1.05243 -0.0027051 -1.65388e-25)
(1.0575 -0.000308333 2.09516e-23)
(1.06266 0.00441733 3.33585e-23)
(1.06793 0.0119875 -1.67355e-22)
(1.0738 0.0226381 3.3607e-22)
(1.07979 0.037669 -6.90086e-23)
(1.08606 0.0619961 -2.10766e-24)
(1.10612 0.0894283 -6.47088e-22)
(1.12426 0.132464 -9.47018e-22)
(1.14781 0.201108 -1.87303e-21)
(1.2009 0.285066 3.32401e-21)
(1.26599 0.439114 5.25071e-21)
(1.02795 0.554554 -1.96326e-21)
(0.423287 0.394645 7.37253e-20)
(-0.172366 0.333205 -2.40106e-21)
(-0.320791 0.2784 -4.28645e-22)
(0.181031 0.178966 1.21214e-21)
(1.01167 0.0802512 -9.15816e-24)
(1.30608 0.0525107 -9.77169e-22)
(1.27447 0.018765 -1.88788e-21)
(1.23343 0.00638009 -5.55179e-22)
(1.19336 -0.0111142 -1.4511e-22)
(1.16439 -0.0105203 2.55605e-22)
(1.13972 -0.0102242 -3.64409e-22)
(1.11867 -0.00934768 2.15084e-22)
(1.10115 -0.0086396 -1.13152e-22)
(1.08736 -0.00797597 9.66307e-24)
(1.07637 -0.00695854 -1.54439e-25)
(1.06717 -0.00533767 0)
(1.06 -0.00387857 0)
(1.05461 -0.00281194 0)
(1.05075 -0.00195516 0)
(1.04819 -0.00115283 0)
(1.04678 -0.000365102 -7.29068e-24)
(1.03899 -0.000570077 1.3182e-25)
(1.03974 -0.00102645 0)
(1.04118 -0.0015847 0)
(1.04317 -0.00208613 0)
(1.04565 -0.00244489 0)
(1.04841 -0.00266174 0)
(1.05066 -0.0022274 0)
(1.05243 -5.28103e-05 1.02137e-25)
(1.05419 0.00378901 6.48284e-23)
(1.05559 0.00950275 3.83491e-23)
(1.05544 0.0180123 -1.50595e-22)
(1.05312 0.0300872 -3.53117e-23)
(1.04818 0.04814 6.32641e-22)
(1.03547 0.0813999 -6.47386e-22)
(1.04107 0.130594 1.1336e-21)
(1.02583 0.19438 2.62794e-23)
(1.01553 0.305545 5.24734e-22)
(0.962302 0.471584 -1.41678e-20)
(0.853558 0.687126 1.69534e-22)
(0.468233 0.866313 3.1391e-22)
(-0.0428092 0.855198 -2.67353e-21)
(-0.0691963 0.616395 -1.08508e-20)
(0.482621 0.328658 2.36364e-21)
(1.14391 0.0694445 -2.98046e-21)
(1.36314 -0.0329265 4.6412e-22)
(1.29348 -0.0486663 -4.67847e-22)
(1.22774 -0.0612134 4.58691e-22)
(1.18907 -0.0533842 -1.70327e-22)
(1.15916 -0.0434865 -2.62135e-22)
(1.13511 -0.0364064 -2.25626e-23)
(1.11484 -0.0299911 -7.83905e-26)
(1.09818 -0.0250169 -3.36407e-23)
(1.08453 -0.0208647 2.24375e-24)
(1.07294 -0.0168066 0)
(1.0639 -0.0128172 0)
(1.05733 -0.00951605 0)
(1.05242 -0.00685213 0)
(1.0489 -0.0045625 0)
(1.04661 -0.00248698 0)
(1.04543 -0.000749079 6.83952e-24)
(1.04001 -0.000185191 2.25416e-25)
(1.04063 -0.000749736 0)
(1.04181 -0.00124628 0)
(1.04361 -0.00166005 0)
(1.0459 -0.00204809 0)
(1.0482 -0.00247487 0)
(1.04924 -0.00277503 0)
(1.04891 -0.00236518 0)
(1.04827 -0.00098025 -9.95021e-24)
(1.04726 0.000992461 3.62748e-23)
(1.04381 0.00396588 9.67326e-24)
(1.0355 0.00820653 1.78534e-23)
(1.02016 0.0154263 -3.35894e-22)
(0.992442 0.024882 2.73181e-22)
(0.971921 0.0719594 9.87646e-23)
(0.91686 0.120103 2.91915e-22)
(0.856662 0.206248 -1.36131e-21)
(0.733227 0.309869 -4.72593e-22)
(0.511757 0.527096 -3.09256e-21)
(0.258752 0.743878 9.02001e-22)
(0.164529 0.722696 4.45633e-21)
(0.384924 0.437334 -7.92333e-21)
(0.882574 0.0895055 -5.0417e-21)
(1.37312 -0.132994 6.28714e-21)
(1.36833 -0.171337 -6.10039e-22)
(1.28282 -0.139563 5.96148e-22)
(1.20615 -0.122674 -3.20641e-22)
(1.16917 -0.0962389 5.737e-22)
(1.14231 -0.0757255 6.96247e-23)
(1.12104 -0.0607103 -1.12538e-22)
(1.10366 -0.0484217 2.83197e-23)
(1.08921 -0.0390332 2.69797e-25)
(1.07657 -0.0312205 0)
(1.06568 -0.0243907 0)
(1.05777 -0.0184802 0)
(1.05239 -0.0136928 0)
(1.04842 -0.00979821 1.6737e-23)
(1.04555 -0.006521 2.31462e-23)
(1.04368 -0.00367086 1.38023e-23)
(1.04271 -0.00113832 0)
(1.04012 3.04195e-05 0)
(1.04089 -0.000269784 0)
(1.04211 -0.00060268 0)
(1.04393 -0.00104115 0)
(1.0463 -0.00159104 0)
(1.04867 -0.00237063 0)
(1.04959 -0.0035545 0)
(1.04888 -0.00504465 0)
(1.04796 -0.00683703 -4.40871e-26)
(1.04672 -0.00964597 3.87211e-24)
(1.04323 -0.0138123 -1.00391e-23)
(1.03467 -0.0206754 6.55319e-24)
(1.01683 -0.0277309 -5.94954e-23)
(0.982339 -0.0469521 -1.69377e-22)
(0.937251 -0.0231886 2.12566e-21)
(0.854792 -0.011204 -1.22838e-22)
(0.766936 0.0440453 4.09565e-22)
(0.515149 0.155626 -5.3845e-22)
(0.259713 0.258862 8.92356e-22)
(0.219991 0.24275 -9.07512e-21)
(0.449748 0.0788471 -2.70624e-21)
(0.831745 -0.17094 -1.31871e-20)
(1.22986 -0.374335 1.67623e-21)
(1.391 -0.399077 3.3801e-22)
(1.27714 -0.294358 -3.46234e-22)
(1.22237 -0.224016 -8.33418e-22)
(1.15628 -0.169073 5.96002e-22)
(1.13074 -0.129592 -8.48573e-23)
(1.11262 -0.10031 1.73312e-22)
(1.09793 -0.0783467 -1.68242e-23)
(1.0857 -0.0609531 -1.98461e-24)
(1.07483 -0.0477951 -2.47749e-26)
(1.06462 -0.0372872 0)
(1.05568 -0.0287642 0)
(1.04962 -0.0217532 0)
(1.0458 -0.0161271 0)
(1.04303 -0.0115473 0)
(1.04101 -0.00772916 0)
(1.03969 -0.00439346 0)
(1.03909 -0.00140222 -2.48581e-24)
(1.03998 0.000126001 0)
(1.04091 0.000276732 0)
(1.04236 0.000291566 0)
(1.04443 3.35669e-05 0)
(1.04712 -0.000505289 0)
(1.05003 -0.00146233 0)
(1.05181 -0.00320056 0)
(1.05214 -0.0061339 0)
(1.053 -0.0105537 0)
(1.05455 -0.0174558 0)
(1.05542 -0.0279153 -6.75716e-25)
(1.05384 -0.0448904 -5.14143e-23)
(1.04508 -0.0664712 4.7155e-23)
(1.01964 -0.106558 -6.71195e-23)
(0.957506 -0.124495 6.19814e-21)
(0.856254 -0.163042 1.13689e-22)
(0.641646 -0.105783 3.07981e-21)
(0.467851 -0.0828282 1.59304e-22)
(0.396476 -0.232927 -5.52838e-22)
(0.479863 -0.466496 1.6039e-21)
(0.726001 -0.663738 2.48791e-21)
(1.00252 -0.743597 7.59713e-21)
(1.18854 -0.66827 -2.55372e-21)
(1.20302 -0.490071 -1.69579e-21)
(1.14174 -0.340919 -2.50168e-21)
(1.12839 -0.264031 5.47899e-22)
(1.08755 -0.188723 2.94613e-23)
(1.07952 -0.144102 -1.43333e-23)
(1.07324 -0.111011 -1.75161e-23)
(1.06805 -0.0853479 4.63718e-24)
(1.06281 -0.0653655 0)
(1.05702 -0.0503251 0)
(1.05055 -0.0386145 0)
(1.0444 -0.0294976 0)
(1.04051 -0.0223235 0)
(1.03841 -0.0166109 0)
(1.03694 -0.0119083 0)
(1.03585 -0.00799738 0)
(1.0352 -0.00458232 0)
(1.03496 -0.00147106 0)
(1.03952 0.0002521 0)
(1.04054 0.00083901 0)
(1.04223 0.00132463 0)
(1.04467 0.00157299 0)
(1.04792 0.00148162 0)
(1.05177 0.000901924 0)
(1.05521 -0.000630114 0)
(1.05796 -0.00393542 0)
(1.06225 -0.00947795 0)
(1.06887 -0.0180796 0)
(1.07745 -0.0310097 0)
(1.0879 -0.0516587 6.37176e-25)
(1.09824 -0.0809981 -1.60894e-23)
(1.09778 -0.127145 -1.93661e-23)
(1.04798 -0.187371 1.96744e-21)
(0.888219 -0.266267 -1.80293e-21)
(0.623332 -0.298364 1.46544e-21)
(0.634455 -0.41333 7.09264e-22)
(0.66779 -0.549991 1.39884e-21)
(0.725348 -0.674318 -2.49708e-22)
(0.825421 -0.72506 1.25626e-22)
(0.921411 -0.683155 7.67104e-22)
(0.969327 -0.569953 1.33321e-21)
(0.985451 -0.444886 -9.0749e-22)
(1.02445 -0.335879 -3.23408e-22)
(1.03204 -0.258372 2.79001e-23)
(1.01567 -0.1841 -2.07278e-22)
(1.02477 -0.138096 -1.793e-23)
(1.031 -0.106298 1.78695e-24)
(1.03553 -0.0808761 0)
(1.03774 -0.0613196 0)
(1.03773 -0.0464298 0)
(1.03574 -0.0349239 0)
(1.03305 -0.026299 0)
(1.03162 -0.0199209 0)
(1.03122 -0.0149541 0)
(1.03095 -0.0108378 0)
(1.03074 -0.00737072 0)
(1.03066 -0.00429959 0)
(1.03074 -0.00141953 0)
(1.03856 0.000482646 0)
(1.03951 0.00157791 0)
(1.04133 0.00266194 0)
(1.04407 0.00365031 0)
(1.04786 0.00443879 0)
(1.05272 0.00491531 0)
(1.05814 0.00468564 0)
(1.06397 0.00275199 0)
(1.07216 -0.00139418 0)
(1.08406 -0.00816364 0)
(1.10068 -0.0183254 1.37524e-22)
(1.12328 -0.0339447 0)
(1.15456 -0.0589813 0)
(1.18765 -0.0904919 -6.80659e-23)
(1.20359 -0.171092 5.45222e-22)
(1.02726 -0.286104 3.23475e-21)
(0.8368 -0.45584 -1.66209e-23)
(0.78852 -0.597418 -1.01501e-21)
(0.762486 -0.663687 -6.21122e-22)
(0.745768 -0.665562 -1.45005e-20)
(0.761834 -0.618035 -1.2513e-21)
(0.792519 -0.527711 2.28381e-21)
(0.838487 -0.439029 -5.92263e-22)
(0.889672 -0.369622 -9.31463e-23)
(0.922912 -0.306194 -2.53791e-23)
(0.920168 -0.202491 -1.6663e-21)
(0.950877 -0.151772 4.01577e-22)
(0.974554 -0.113033 0)
(0.992649 -0.0860046 0)
(1.00562 -0.0644192 -2.50739e-23)
(1.01452 -0.0480445 0)
(1.01985 -0.0355382 0)
(1.02233 -0.0259868 0)
(1.02337 -0.0192165 0)
(1.02446 -0.0146135 0)
(1.02552 -0.0111225 0)
(1.02615 -0.00820447 0)
(1.02646 -0.00568791 -2.75461e-24)
(1.02665 -0.00338559 -1.97619e-24)
(1.02682 -0.00117295 0)
(1.03671 0.000829944 0)
(1.03755 0.00249944 0)
(1.03934 0.00425544 0)
(1.04216 0.00609313 0)
(1.04617 0.0080358 0)
(1.05155 0.010062 0)
(1.05833 0.0120169 0)
(1.06658 0.0130975 0)
(1.07764 0.0128586 0)
(1.0929 0.011371 0)
(1.11418 0.00861204 7.20989e-22)
(1.14374 0.00534374 0)
(1.18619 -0.00257608 0)
(1.24517 -0.007616 1.13956e-21)
(1.30731 -0.0284857 -2.40313e-20)
(1.26405 -0.105689 -2.03888e-22)
(1.12873 -0.2436 0)
(0.994581 -0.375356 -1.67323e-21)
(0.860105 -0.486596 -2.25183e-21)
(0.732838 -0.510613 1.64478e-20)
(0.641415 -0.517279 1.17325e-21)
(0.615905 -0.46537 -2.55486e-21)
(0.652979 -0.382484 1.78368e-22)
(0.722205 -0.28368 0)
(0.783606 -0.188543 -1.61519e-21)
(0.851732 -0.129702 2.03325e-21)
(0.9025 -0.0951879 4.25324e-22)
(0.936381 -0.0681367 0)
(0.963816 -0.04985 0)
(0.983705 -0.036118 -1.30823e-22)
(0.99765 -0.0260302 0)
(1.00699 -0.0184915 0)
(1.01306 -0.0129443 0)
(1.0172 -0.00942861 0)
(1.02022 -0.00734754 0)
(1.02219 -0.00577909 4.98347e-24)
(1.02331 -0.00438112 -6.47595e-24)
(1.02388 -0.00308308 0)
(1.02413 -0.00183803 0)
(1.02424 -0.00057717 -1.52182e-23)
(1.03389 0.00104447 0)
(1.03469 0.00330378 0)
(1.0363 0.00570854 0)
(1.03884 0.00843036 0)
(1.04247 0.0115965 0)
(1.04748 0.0153001 0)
(1.05431 0.019632 -2.45042e-24)
(1.0633 0.0242301 0)
(1.07511 0.0289405 0)
(1.09057 0.0342862 0)
(1.11133 0.0409584 0)
(1.13988 0.0517195 0)
(1.17877 0.0656301 0)
(1.23729 0.0892786 3.66916e-22)
(1.3195 0.125534 2.43843e-24)
(1.33782 0.149678 6.44994e-23)
(1.25687 0.11525 0)
(1.12773 0.0662074 0)
(0.967547 -0.0103783 -1.80673e-20)
(0.803558 -0.021936 -2.1144e-19)
(0.663213 -0.0699666 -1.74116e-20)
(0.589391 -0.0914707 1.76011e-21)
(0.585387 -0.0997444 0)
(0.623731 -0.0901409 0)
(0.695563 -0.0636355 0)
(0.790661 -0.0303955 -3.1942e-23)
(0.868035 -0.011836 3.15395e-21)
(0.91395 -0.00254186 9.36693e-23)
(0.949666 6.41849e-06 0)
(0.974164 0.000824611 0)
(0.990763 0.00127065 0)
(1.00206 0.00164741 0)
(1.00993 0.00168381 2.1869e-23)
(1.01561 0.0011641 8.96194e-24)
(1.01936 0.000402611 4.51492e-25)
(1.02142 -0.000136839 0)
(1.02248 -0.000379304 0)
(1.02303 -0.000378907 0)
(1.0233 -0.000268797 0)
(1.02346 -2.20309e-05 0)
(1.03062 0.00114626 0)
(1.03116 0.00384095 0)
(1.0323 0.00677089 0)
(1.03414 0.0102275 0)
(1.03684 0.014345 0)
(1.04069 0.0193455 0)
(1.04635 0.0254698 0)
(1.05429 0.0327479 0)
(1.0645 0.0414987 4.95226e-24)
(1.07698 0.0525919 0)
(1.0925 0.0672837 0)
(1.11287 0.0882893 0)
(1.138 0.118088 4.57223e-22)
(1.17371 0.160359 1.50912e-21)
(1.22901 0.226276 0)
(1.2661 0.309457 0)
(1.23669 0.369953 0)
(1.14634 0.413489 0)
(1.01338 0.40552 2.73969e-20)
(0.868146 0.411276 7.53051e-20)
(0.733107 0.363019 -7.74568e-21)
(0.665446 0.310155 3.97273e-21)
(0.655956 0.241764 0)
(0.673033 0.177216 0)
(0.708641 0.118365 0)
(0.780281 0.0973517 0)
(0.856144 0.09245 -1.52013e-20)
(0.918678 0.0735053 -3.17387e-21)
(0.95899 0.0551479 0)
(0.982154 0.0393526 -6.26728e-25)
(0.996838 0.0282682 -1.91949e-24)
(1.00664 0.0205334 -8.33481e-25)
(1.01364 0.0148228 0)
(1.01881 0.0104385 0)
(1.0219 0.00703973 0)
(1.02316 0.00455837 0)
(1.02357 0.00282423 0)
(1.02369 0.00164246 0)
(1.02373 0.000790712 0)
(1.02383 0.000193307 0)
(1.02707 0.00142409 0)
(1.02712 0.00422775 0)
(1.02758 0.00740247 0)
(1.02854 0.0111073 0)
(1.03005 0.0155356 0)
(1.03234 0.0209989 0)
(1.03613 0.0278341 0)
(1.04182 0.0362862 0)
(1.04868 0.047032 0)
(1.056 0.0610544 0)
(1.06382 0.0798398 -1.04621e-22)
(1.07275 0.105013 6.86777e-23)
(1.08132 0.139803 -4.80159e-22)
(1.09004 0.185389 -2.00841e-21)
(1.10562 0.248635 0)
(1.1247 0.335588 0)
(1.11017 0.425543 0)
(1.06118 0.504519 0)
(0.975755 0.545375 -9.23785e-21)
(0.880658 0.566827 3.26443e-21)
(0.794449 0.545531 -4.7851e-21)
(0.762672 0.502107 2.12375e-20)
(0.764017 0.438535 0)
(0.784991 0.370809 0)
(0.799548 0.290096 0)
(0.831805 0.227041 0)