/*--------------------------------*- C++ -*----------------------------------*\
| =========                 |                                                 |
| \\      /  F ield         | OpenFOAM: The Open Source CFD Toolbox           |
|  \\    /   O peration     | Version:  v2106                                 |
|   \\  /    A nd           | Website:  www.openfoam.com                      |
|    \\/     M anipulation  |                                                 |
\*---------------------------------------------------------------------------*/
FoamFile
{
    version     2.0;
    format      ascii;
    arch        "LSB;label=32;scalar=64";
    class       pointVectorField;
    location    "0";
    object      pointDisplacement;
}
// * * * * * * * * * * * * * * * * * * * * * * * * * * * * * * * * * * * * * //

dimensions      [0 1 0 0 0 0 0];

internalField   nonuniform List<vector> 
24440
(
(0 0 0)
(0 0 0)
(0 0 0)
(0 0 0)
(0 0 0)
(0 0 0)
(0 0 0)
(0 0 0)
(0 0 0)
(0 0 0)
(0 0 0)
(0 0 0)
(0 0 0)
(0 0 0)
(0 0 0)
(0 0 0)
(0 0 0)
(0 0 0)
(0 0 0)
(0 0 0)
(0 0 0)
(0 0 0)
(0 0 0)
(0 0 0)
(0 0 0)
(0 0 0)
(0 0 0)
(0 0 0)
(0 0 0)
(0 0 0)
(0 0 0)
(0 0 0)
(0 0 0)
(0 0 0)
(0 0 0)
(0 0 0)
(0 0 0)
(0 0 0)
(0 0 0)
(0 0 0)
(0 0 0)
(0 0 0)
(0 0 0)
(0 0 0)
(0 0 0)
(0 0 0)
(0 0 0)
(0 0 0)
(0 0 0)
(0 0 0)
(0 0 0)
(0 0 0)
(0 0 0)
(0 0 0)
(0 0 0)
(0 0 0)
(0 0 0)
(0 0 0)
(0 0 0)
(0 0 0)
(0 0 0)
(0 0 0)
(0 0 0)
(0 0 0)
(0 0 0)
(0 0 0)
(0 0 0)
(0 0 0)
(0 0 0)
(0 0 0)
(0 0 0)
(0 0 0)
(0 0 0)
(0 0 0)
(0 0 0)
(0 0 0)
(0 0 0)
(0 0 0)
(0 0 0)
(0 0 0)
(0 0 0)
(0 0 0)
(0 0 0)
(0 0 0)
(0 0 0)
(0 0 0)
(0 0 0)
(0 0 0)
(0 0 0)
(0 0 0)
(0 0 0)
(0 0 0)
(0 0 0)
(0 0 0)
(0 0 0)
(0 0 0)
(0 0 0)
(0 0 0)
(0 -1.0474e-06 0)
(0 -6.60497e-06 0)
(0 -1.81623e-05 0)
(0 -2.79871e-05 0)
(0 -3.17577e-05 0)
(0 -2.79871e-05 0)
(0 -1.81623e-05 0)
(0 -6.60497e-06 0)
(0 -1.0474e-06 0)
(0 0 0)
(0 0 0)
(0 0 0)
(0 0 0)
(0 0 0)
(0 0 0)
(0 0 0)
(0 0 0)
(0 0 0)
(0 0 0)
(0 0 0)
(0 0 0)
(0 0 0)
(0 0 0)
(0 0 0)
(0 0 0)
(0 0 0)
(0 0 0)
(0 0 0)
(0 0 0)
(0 0 0)
(0 0 0)
(0 0 0)
(0 0 0)
(0 0 0)
(0 0 0)
(0 0 0)
(0 0 0)
(0 0 0)
(0 -1.75411e-06 0)
(0 -2.3204e-05 0)
(0 -6.82876e-05 0)
(0 -0.000123016 0)
(0 -0.00017547 0)
(0 -0.000212038 0)
(0 -0.000246033 0)
(0 -0.000257993 0)
(0 -0.000246033 0)
(0 -0.000212038 0)
(0 -0.00017547 0)
(0 -0.000123016 0)
(0 -6.82876e-05 0)
(0 -2.3204e-05 0)
(0 -1.75411e-06 0)
(0 0 0)
(0 0 0)
(0 0 0)
(0 0 0)
(0 0 0)
(0 0 0)
(0 0 0)
(0 0 0)
(0 0 0)
(0 0 0)
(0 0 0)
(0 0 0)
(0 0 0)
(0 0 0)
(0 0 0)
(0 0 0)
(0 0 0)
(0 0 0)
(0 0 0)
(0 0 0)
(0 0 0)
(0 0 0)
(0 0 0)
(0 0 0)
(0 -7.36477e-07 0)
(0 -3.05154e-05 0)
(0 -0.000104067 0)
(0 -0.000205219 0)
(0 -0.000309405 0)
(0 -0.000425639 0)
(0 -0.000526307 0)
(0 -0.000588652 0)
(0 -0.000648268 0)
(0 -0.000668871 0)
(0 -0.000648268 0)
(0 -0.000588652 0)
(0 -0.000526307 0)
(0 -0.000425639 0)
(0 -0.000309405 0)
(0 -0.000205219 0)
(0 -0.000104067 0)
(0 -3.05154e-05 0)
(0 -7.36477e-07 0)
(0 0 0)
(0 0 0)
(0 0 0)
(0 0 0)
(0 0 0)
(0 0 0)
(0 0 0)
(0 0 0)
(0 0 0)
(0 0 0)
(0 0 0)
(0 0 0)
(0 0 0)
(0 0 0)
(0 0 0)
(0 0 0)
(0 0 0)
(0 0 0)
(0 0 0)
(0 0 0)
(0 0 0)
(0 -6.96375e-06 0)
(0 -7.24191e-05 0)
(0 -0.000192458 0)
(0 -0.000337669 0)
(0 -0.000517965 0)
(0 -0.00069981 0)
(0 -0.000857344 0)
(0 -0.00100492 0)
(0 -0.00110963 0)
(0 -0.0011722 0)
(0 -0.00120092 0)
(0 -0.0011722 0)
(0 -0.00110963 0)
(0 -0.00100492 0)
(0 -0.000857344 0)
(0 -0.00069981 0)
(0 -0.000517965 0)
(0 -0.000337669 0)
(0 -0.000192458 0)
(0 -7.24191e-05 0)
(0 -7.3723e-06 0)
(0 0 0)
(0 0 0)
(0 0 0)
(0 0 0)
(0 0 0)
(0 0 0)
(0 0 0)
(0 0 0)
(0 0 0)
(0 0 0)
(0 0 0)
(0 0 0)
(0 0 0)
(0 0 0)
(0 0 0)
(0 0 0)
(0 0 0)
(0 0 0)
(0 0 0)
(0 -1.36961e-05 0)
(0 -9.60372e-05 0)
(0 -0.000239697 0)
(0 -0.000440046 0)
(0 -0.000678155 0)
(0 -0.000925585 0)
(0 -0.00115265 0)
(0 -0.0013679 0)
(0 -0.00144879 0)
(0 -0.00153626 0)
(0 -0.00160943 0)
(0 -0.00166707 0)
(0 -0.0017083 0)
(0 -0.0017368 0)
(0 -0.00176314 0)
(0 -0.00177195 0)
(0 -0.00176314 0)
(0 -0.0017368 0)
(0 -0.0017083 0)
(0 -0.00166707 0)
(0 -0.00160943 0)
(0 -0.00153626 0)
(0 -0.00144879 0)
(0 -0.0013679 0)
(0 -0.00115265 0)
(0 -0.000925585 0)
(0 -0.000678155 0)
(0 -0.000440046 0)
(0 -0.000234722 0)
(0 -8.67793e-05 0)
(0 -1.09441e-05 0)
(0 0 0)
(0 0 0)
(0 0 0)
(0 0 0)
(0 0 0)
(0 0 0)
(0 0 0)
(0 0 0)
(0 0 0)
(0 0 0)
(0 0 0)
(0 0 0)
(0 0 0)
(0 0 0)
(0 0 0)
(0 0 0)
(0 0 0)
(0 -8.05584e-06 0)
(0 -9.21905e-05 0)
(0 -0.000256859 0)
(0 -0.000483333 0)
(0 -0.000748612 0)
(0 -0.00106073 0)
(0 -0.00120997 0)
(0 -0.00134225 0)
(0 -0.00148866 0)
(0 -0.00162589 0)
(0 -0.00175145 0)
(0 -0.00185811 0)
(0 -0.00161937 0)
(0 -0.00171824 0)
(0 -0.00179628 0)
(0 -0.00187498 0)
(0 -0.00193672 0)
(0 -0.00198072 0)
(0 -0.0020071 0)
(0 -0.00203505 0)
(0 -0.0020444 0)
(0 -0.00203505 0)
(0 -0.0020071 0)
(0 -0.00198072 0)
(0 -0.00193672 0)
(0 -0.00187498 0)
(0 -0.00179628 0)
(0 -0.00171824 0)
(0 -0.00161937 0)
(0 -0.00185811 0)
(0 -0.00175145 0)
(0 -0.00162589 0)
(0 -0.00148866 0)
(0 -0.00134225 0)
(0 -0.00120997 0)
(0 -0.00106073 0)
(0 -0.000748612 0)
(0 -0.000483333 0)
(0 -0.00024749 0)
(0 -8.81795e-05 0)
(0 -7.31587e-06 0)
(0 0 0)
(0 0 0)
(0 0 0)
(0 0 0)
(0 0 0)
(0 0 0)
(0 0 0)
(0 0 0)
(0 0 0)
(0 0 0)
(0 0 0)
(0 0 0)
(0 0 0)
(0 0 0)
(0 0 0)
(0 0 0)
(0 -5.09708e-05 0)
(0 -0.0002083 0)
(0 -0.000445316 0)
(0 -0.000743035 0)
(0 -0.00107463 0)
(0 -0.00141156 0)
(0 -0.00124243 0)
(0 -0.00140472 0)
(0 -0.00156089 0)
(0 -0.00170793 0)
(0 -0.00183857 0)
(0 -0.00197106 0)
(0 -0.00208814 0)
(0 -0.00218487 0)
(0 -0.00196317 0)
(0 -0.00205166 0)
(0 -0.00227607 0)
(0 -0.00234175 0)
(0 -0.00212206 0)
(0 -0.00218648 0)
(0 -0.00240706 0)
(0 -0.00245304 0)
(0 -0.00223217 0)
(0 -0.00225533 0)
(0 -0.00247968 0)
(0 -0.00250083 0)
(0 -0.00228415 0)
(0 -0.00229377 0)
(0 -0.00251038 0)
(0 -0.00250083 0)
(0 -0.00228415 0)
(0 -0.00225533 0)
(0 -0.00247968 0)
(0 -0.00245304 0)
(0 -0.00223217 0)
(0 -0.00218648 0)
(0 -0.00240706 0)
(0 -0.00234175 0)
(0 -0.00212206 0)
(0 -0.00205166 0)
(0 -0.00227607 0)
(0 -0.00218487 0)
(0 -0.00196317 0)
(0 -0.00208814 0)
(0 -0.00197106 0)
(0 -0.00183857 0)
(0 -0.00170793 0)
(0 -0.00156089 0)
(0 -0.00140472 0)
(0 -0.00124243 0)
(0 -0.00141156 0)
(0 -0.00107463 0)
(0 -0.000734091 0)
(0 -0.000441801 0)
(0 -0.000208077 0)
(0 -5.54134e-05 0)
(0 0 0)
(0 0 0)
(0 0 0)
(0 0 0)
(0 0 0)
(0 0 0)
(0 0 0)
(0 0 0)
(0 0 0)
(0 0 0)
(0 0 0)
(0 0 0)
(0 0 0)
(0 0 0)
(0 0 0)
(0 -1.11192e-05 0)
(0 -0.000114235 0)
(0 -0.000329282 0)
(0 -0.000616942 0)
(0 -0.000958919 0)
(0 -0.00135072 0)
(0 -0.00172812 0)
(0 -0.00158125 0)
(0 -0.00175221 0)
(0 -0.00157334 0)
(0 -0.00174931 0)
(0 -0.00191292 0)
(0 -0.00207413 0)
(0 -0.00190417 0)
(0 -0.0020456 0)
(0 -0.00221948 0)
(0 -0.00228576 0)
(0 -0.00234745 0)
(0 -0.00226357 0)
(0 -0.00216498 0)
(0 -0.00228512 0)
(0 -0.00237128 0)
(0 -0.00242451 0)
(0 -0.00233832 0)
(0 -0.00246772 0)
(0 -0.00254945 0)
(0 -0.00258726 0)
(0 -0.00250611 0)
(0 -0.00259072 0)
(0 -0.00267068 0)
(0 -0.0026906 0)
(0 -0.00261535 0)
(0 -0.00266061 0)
(0 -0.00273387 0)
(0 -0.0027443 0)
(0 -0.00267273 0)
(0 -0.00268576 0)
(0 -0.00275578 0)
(0 -0.00275367 0)
(0 -0.00268351 0)
(0 -0.00266061 0)
(0 -0.00273387 0)
(0 -0.00272398 0)
(0 -0.00265021 0)
(0 -0.00259072 0)
(0 -0.00267068 0)
(0 -0.00264779 0)
(0 -0.00256803 0)
(0 -0.00246772 0)
(0 -0.00254945 0)
(0 -0.00251606 0)
(0 -0.00242437 0)
(0 -0.00228512 0)
(0 -0.00237128 0)
(0 -0.00231322 0)
(0 -0.00222729 0)
(0 -0.0020456 0)
(0 -0.00221948 0)
(0 -0.00207413 0)
(0 -0.00190417 0)
(0 -0.00174931 0)
(0 -0.00191292 0)
(0 -0.00175221 0)
(0 -0.00157334 0)
(0 -0.00158125 0)
(0 -0.00172033 0)
(0 -0.00134979 0)
(0 -0.000974375 0)
(0 -0.000611761 0)
(0 -0.000326076 0)
(0 -0.000119961 0)
(0 -1.27154e-05 0)
(0 0 0)
(0 0 0)
(0 0 0)
(0 0 0)
(0 0 0)
(0 0 0)
(0 0 0)
(0 0 0)
(0 0 0)
(0 0 0)
(0 0 0)
(0 0 0)
(0 0 0)
(0 0 0)
(0 -3.63795e-05 0)
(0 -0.000184119 0)
(0 -0.000432596 0)
(0 -0.000760129 0)
(0 -0.00113864 0)
(0 -0.00155497 0)
(0 -0.00194352 0)
(0 -0.00184765 0)
(0 -0.0020305 0)
(0 -0.00190606 0)
(0 -0.00207219 0)
(0 -0.00220007 0)
(0 -0.00235322 0)
(0 -0.00222352 0)
(0 -0.00235758 0)
(0 -0.00242701 0)
(0 -0.00248674 0)
(0 -0.00242693 0)
(0 -0.00259567 0)
(0 -0.0026244 0)
(0 -0.00264758 0)
(0 -0.00261911 0)
(0 -0.00274778 0)
(0 -0.00277075 0)
(0 -0.00278567 0)
(0 -0.00276316 0)
(0 -0.00283781 0)
(0 -0.00285456 0)
(0 -0.00286216 0)
(0 -0.00284529 0)
(0 -0.00287728 0)
(0 -0.00288956 0)
(0 -0.00289131 0)
(0 -0.00287939 0)
(0 -0.00288737 0)
(0 -0.00289726 0)
(0 -0.0028971 0)
(0 -0.00288713 0)
(0 -0.00287728 0)
(0 -0.00288956 0)
(0 -0.00288713 0)
(0 -0.0028744 0)
(0 -0.00283781 0)
(0 -0.00285456 0)
(0 -0.00284819 0)
(0 -0.00282882 0)
(0 -0.00274778 0)
(0 -0.00277075 0)
(0 -0.00275777 0)
(0 -0.00273103 0)
(0 -0.00259567 0)
(0 -0.0026244 0)
(0 -0.00265069 0)
(0 -0.00260066 0)
(0 -0.00254473 0)
(0 -0.00235758 0)
(0 -0.00242701 0)
(0 -0.00248733 0)
(0 -0.00235322 0)
(0 -0.00222352 0)
(0 -0.00207219 0)
(0 -0.00219505 0)
(0 -0.00202919 0)
(0 -0.00190606 0)
(0 -0.00184986 0)
(0 -0.00194928 0)
(0 -0.00155106 0)
(0 -0.00114998 0)
(0 -0.0007681 0)
(0 -0.000437608 0)
(0 -0.000186746 0)
(0 -3.72769e-05 0)
(0 0 0)
(0 0 0)
(0 0 0)
(0 0 0)
(0 0 0)
(0 0 0)
(0 0 0)
(0 0 0)
(0 0 0)
(0 0 0)
(0 0 0)
(0 0 0)
(0 0 0)
(0 0 0)
(0 -5.60962e-05 0)
(0 -0.000228726 0)
(0 -0.000503339 0)
(0 -0.000856744 0)
(0 -0.00125918 0)
(0 -0.00167683 0)
(0 -0.00207473 0)
(0 -0.00202543 0)
(0 -0.00220683 0)
(0 -0.00212261 0)
(0 -0.00228684 0)
(0 -0.00237209 0)
(0 -0.00251797 0)
(0 -0.00244751 0)
(0 -0.00258031 0)
(0 -0.00261311 0)
(0 -0.00267027 0)
(0 -0.00263822 0)
(0 -0.00277584 0)
(0 -0.00279099 0)
(0 -0.00280809 0)
(0 -0.00279341 0)
(0 -0.00288131 0)
(0 -0.00288862 0)
(0 -0.00289473 0)
(0 -0.00288827 0)
(0 -0.00290656 0)
(0 -0.00290656 0)
(0 -0.00290656 0)
(0 -0.00290656 0)
(0 -0.00290656 0)
(0 -0.00290656 0)
(0 -0.00290656 0)
(0 -0.00290656 0)
(0 -0.00290656 0)
(0 -0.00290656 0)
(0 -0.00290656 0)
(0 -0.00290656 0)
(0 -0.00290656 0)
(0 -0.00290656 0)
(0 -0.00290656 0)
(0 -0.00290656 0)
(0 -0.00290656 0)
(0 -0.00290656 0)
(0 -0.00290656 0)
(0 -0.00290656 0)
(0 -0.00288131 0)
(0 -0.00288862 0)
(0 -0.00288056 0)
(0 -0.00287293 0)
(0 -0.00277584 0)
(0 -0.00279099 0)
(0 -0.00280394 0)
(0 -0.00276441 0)
(0 -0.00273608 0)
(0 -0.00257881 0)
(0 -0.00261692 0)
(0 -0.00264603 0)
(0 -0.00251448 0)
(0 -0.00244969 0)
(0 -0.00229987 0)
(0 -0.00236914 0)
(0 -0.00220449 0)
(0 -0.002132 0)
(0 -0.00202371 0)
(0 -0.00207576 0)
(0 -0.00167614 0)
(0 -0.00125718 0)
(0 -0.000853996 0)
(0 -0.000500473 0)
(0 -0.000226355 0)
(0 -5.47495e-05 0)
(0 0 0)
(0 0 0)
(0 0 0)
(0 0 0)
(0 0 0)
(0 0 0)
(0 0 0)
(0 0 0)
(0 0 0)
(0 0 0)
(0 0 0)
(0 0 0)
(0 0 0)
(0 0 0)
(0 -5.94746e-05 0)
(0 -0.000236038 0)
(0 -0.000514864 0)
(0 -0.000872524 0)
(0 -0.00127897 0)
(0 -0.00170004 0)
(0 -0.00210037 0)
(0 -0.00210111 0)
(0 -0.00228269 0)
(0 -0.00225578 0)
(0 -0.00241982 0)
(0 -0.00244676 0)
(0 -0.00258985 0)
(0 -0.0025635 0)
(0 -0.00268857 0)
(0 -0.00270065 0)
(0 -0.0027508 0)
(0 -0.0027399 0)
(0 -0.00285308 0)
(0 -0.00285775 0)
(0 -0.00287012 0)
(0 -0.00286582 0)
(0 -0.00290656 0)
(0 -0.00290656 0)
(0 -0.00290656 0)
(0 -0.00290656 0)
(0 -0.00290656 0)
(0 -0.00290656 0)
(0 -0.00290656 0)
(0 -0.00290656 0)
(0 -0.00290656 0)
(0 -0.00290656 0)
(0 -0.00290656 0)
(0 -0.00290656 0)
(0 -0.00290656 0)
(0 -0.00290656 0)
(0 -0.00290656 0)
(0 -0.00290656 0)
(0 -0.00290656 0)
(0 -0.00290644 0)
(0 -0.00290602 0)
(0 -0.00285308 0)
(0 -0.00285775 0)
(0 -0.00286082 0)
(0 -0.00283176 0)
(0 -0.0028215 0)
(0 -0.0026884 0)
(0 -0.00270082 0)
(0 -0.00270896 0)
(0 -0.00258985 0)
(0 -0.00256723 0)
(0 -0.0024227 0)
(0 -0.0024406 0)
(0 -0.00227562 0)
(0 -0.00225775 0)
(0 -0.00209327 0)
(0 -0.00209568 0)
(0 -0.00169481 0)
(0 -0.00127366 0)
(0 -0.000867594 0)
(0 -0.000510741 0)
(0 -0.00023308 0)
(0 -5.79419e-05 0)
(0 0 0)
(0 0 0)
(0 0 0)
(0 0 0)
(0 0 0)
(0 0 0)
(0 0 0)
(0 0 0)
(0 0 0)
(0 0 0)
(0 0 0)
(0 0 0)
(0 0 0)
(0 0 0)
(0 -4.86045e-05 0)
(0 -0.000212422 0)
(0 -0.0004779 0)
(0 -0.000822392 0)
(0 -0.00121673 0)
(0 -0.00162777 0)
(0 -0.00202128 0)
(0 -0.00207807 0)
(0 -0.00225936 0)
(0 -0.0022821 0)
(0 -0.00244633 0)
(0 -0.00242356 0)
(0 -0.00256732 0)
(0 -0.00258958 0)
(0 -0.00270885 0)
(0 -0.00270247 0)
(0 -0.0027526 0)
(0 -0.00275868 0)
(0 -0.00286592 0)
(0 -0.0028644 0)
(0 -0.002876 0)
(0 -0.00287738 0)
(0 -0.00290656 0)
(0 -0.00290656 0)
(0 -0.00290656 0)
(0 -0.00290656 0)
(0 -0.00290656 0)
(0 -0.00290656 0)
(0 -0.00290656 0)
(0 -0.00290656 0)
(0 -0.00290656 0)
(0 -0.00290656 0)
(0 -0.00290656 0)
(0 -0.00290656 0)
(0 -0.00290656 0)
(0 -0.00290656 0)
(0 -0.00290656 0)
(0 -0.00290656 0)
(0 -0.00286592 0)
(0 -0.00286316 0)
(0 -0.00286166 0)
(0 -0.00283266 0)
(0 -0.00283596 0)
(0 -0.00270633 0)
(0 -0.00270227 0)
(0 -0.00268994 0)
(0 -0.00256908 0)
(0 -0.00258641 0)
(0 -0.00244256 0)
(0 -0.00242484 0)
(0 -0.00226012 0)
(0 -0.00227782 0)
(0 -0.00207832 0)
(0 -0.00202642 0)
(0 -0.00163154 0)
(0 -0.0012192 0)
(0 -0.000823749 0)
(0 -0.000478439 0)
(0 -0.000212474 0)
(0 -4.84984e-05 0)
(0 0 0)
(0 0 0)
(0 0 0)
(0 0 0)
(0 0 0)
(0 0 0)
(0 0 0)
(0 0 0)
(0 0 0)
(0 0 0)
(0 0 0)
(0 0 0)
(0 0 0)
(0 0 0)
(0 -2.45834e-05 0)
(0 -0.000154413 0)
(0 -0.000384071 0)
(0 -0.000692933 0)
(0 -0.00107732 0)
(0 -0.00147037 0)
(0 -0.00185376 0)
(0 -0.00195543 0)
(0 -0.00213718 0)
(0 -0.00220124 0)
(0 -0.00237588 0)
(0 -0.00230395 0)
(0 -0.00245258 0)
(0 -0.00252402 0)
(0 -0.00264983 0)
(0 -0.00261968 0)
(0 -0.00267436 0)
(0 -0.00270364 0)
(0 -0.00282642 0)
(0 -0.00281784 0)
(0 -0.00283344 0)
(0 -0.0028426 0)
(0 -0.00290304 0)
(0 -0.00290006 0)
(0 -0.00290362 0)
(0 -0.00290547 0)
(0 -0.00290656 0)
(0 -0.00290656 0)
(0 -0.00290656 0)
(0 -0.00290656 0)
(0 -0.00290656 0)
(0 -0.00290656 0)
(0 -0.00290656 0)
(0 -0.00290656 0)
(0 -0.00290304 0)
(0 -0.00289963 0)
(0 -0.0028949 0)
(0 -0.00289913 0)
(0 -0.00282642 0)
(0 -0.00281784 0)
(0 -0.00280618 0)
(0 -0.00276922 0)
(0 -0.00279205 0)
(0 -0.00264983 0)
(0 -0.00261968 0)
(0 -0.00258544 0)
(0 -0.00245258 0)
(0 -0.00252402 0)
(0 -0.00237145 0)
(0 -0.00230395 0)
(0 -0.00213718 0)
(0 -0.00220702 0)
(0 -0.00195543 0)
(0 -0.00185376 0)
(0 -0.00147037 0)
(0 -0.00106343 0)
(0 -0.000699745 0)
(0 -0.000388538 0)
(0 -0.000156858 0)
(0 -2.54096e-05 0)
(0 0 0)
(0 0 0)
(0 0 0)
(0 0 0)
(0 0 0)
(0 0 0)
(0 0 0)
(0 0 0)
(0 0 0)
(0 0 0)
(0 0 0)
(0 0 0)
(0 0 0)
(0 0 0)
(0 -3.04184e-06 0)
(0 -9.02962e-05 0)
(0 -0.000274962 0)
(0 -0.000540688 0)
(0 -0.000863179 0)
(0 -0.00121414 0)
(0 -0.00158241 0)
(0 -0.00172205 0)
(0 -0.0019093 0)
(0 -0.00203209 0)
(0 -0.00220555 0)
(0 -0.00207324 0)
(0 -0.00223742 0)
(0 -0.00235639 0)
(0 -0.002495 0)
(0 -0.00243942 0)
(0 -0.00250064 0)
(0 -0.00255575 0)
(0 -0.0027045 0)
(0 -0.00267975 0)
(0 -0.00270225 0)
(0 -0.00272281 0)
(0 -0.00283596 0)
(0 -0.00281968 0)
(0 -0.00283156 0)
(0 -0.00284721 0)
(0 -0.00289474 0)
(0 -0.00288564 0)
(0 -0.00288963 0)
(0 -0.00289795 0)
(0 -0.00290656 0)
(0 -0.00290494 0)
(0 -0.00290558 0)
(0 -0.00290656 0)
(0 -0.00290656 0)
(0 -0.00290656 0)
(0 -0.00290656 0)
(0 -0.00290656 0)
(0 -0.00290656 0)
(0 -0.00290656 0)
(0 -0.00290494 0)
(0 -0.00290405 0)
(0 -0.00290646 0)
(0 -0.00290653 0)
(0 -0.00289474 0)
(0 -0.00288564 0)
(0 -0.0028807 0)
(0 -0.00289061 0)
(0 -0.00283596 0)
(0 -0.00281968 0)
(0 -0.00280644 0)
(0 -0.00282331 0)
(0 -0.00270649 0)
(0 -0.00268377 0)
(0 -0.00265646 0)
(0 -0.00261132 0)
(0 -0.0026604 0)
(0 -0.00248815 0)
(0 -0.00243659 0)
(0 -0.00237638 0)
(0 -0.00223435 0)
(0 -0.00235639 0)
(0 -0.00220555 0)
(0 -0.00207324 0)
(0 -0.0019093 0)
(0 -0.00203209 0)
(0 -0.00172205 0)
(0 -0.00158241 0)
(0 -0.00121414 0)
(0 -0.000863179 0)
(0 -0.000540688 0)
(0 -0.000274962 0)
(0 -8.42283e-05 0)
(0 -3.65379e-06 0)
(0 0 0)
(0 0 0)
(0 0 0)
(0 0 0)
(0 0 0)
(0 0 0)
(0 0 0)
(0 0 0)
(0 0 0)
(0 0 0)
(0 0 0)
(0 0 0)
(0 0 0)
(0 0 0)
(0 0 0)
(0 -2.77545e-05 0)
(0 -0.000146256 0)
(0 -0.000344107 0)
(0 -0.00060067 0)
(0 -0.000921231 0)
(0 -0.00125267 0)
(0 -0.00140902 0)
(0 -0.00159352 0)
(0 -0.00175129 0)
(0 -0.00192234 0)
(0 -0.00175962 0)
(0 -0.00191492 0)
(0 -0.0020831 0)
(0 -0.00222866 0)
(0 -0.00205668 0)
(0 -0.00217537 0)
(0 -0.00227391 0)
(0 -0.00235674 0)
(0 -0.00229501 0)
(0 -0.00246688 0)
(0 -0.00238076 0)
(0 -0.002434 0)
(0 -0.00251559 0)
(0 -0.00263751 0)
(0 -0.00256368 0)
(0 -0.00259321 0)
(0 -0.00266974 0)
(0 -0.00274556 0)
(0 -0.00268012 0)
(0 -0.00269934 0)
(0 -0.00276368 0)
(0 -0.00280159 0)
(0 -0.00274121 0)
(0 -0.00275186 0)
(0 -0.00280901 0)
(0 -0.00281895 0)
(0 -0.00276319 0)
(0 -0.0027603 0)
(0 -0.00281667 0)
(0 -0.00280159 0)
(0 -0.00274121 0)
(0 -0.00272609 0)
(0 -0.00278994 0)
(0 -0.00274556 0)
(0 -0.00268012 0)
(0 -0.0026561 0)
(0 -0.0027227 0)
(0 -0.00263751 0)
(0 -0.00256368 0)
(0 -0.0025255 0)
(0 -0.00260015 0)
(0 -0.00246688 0)
(0 -0.00238076 0)
(0 -0.00233078 0)
(0 -0.00241368 0)
(0 -0.00222866 0)
(0 -0.00205668 0)
(0 -0.00191492 0)
(0 -0.0020831 0)
(0 -0.00192234 0)
(0 -0.00175962 0)
(0 -0.00159352 0)
(0 -0.00175129 0)
(0 -0.00140902 0)
(0 -0.00125267 0)
(0 -0.000921231 0)
(0 -0.00060067 0)
(0 -0.000344107 0)
(0 -0.000146256 0)
(0 -2.77545e-05 0)
(0 0 0)
(0 0 0)
(0 0 0)
(0 0 0)
(0 0 0)
(0 0 0)
(0 0 0)
(0 0 0)
(0 0 0)
(0 0 0)
(0 0 0)
(0 0 0)
(0 0 0)
(0 0 0)
(0 0 0)
(0 0 0)
(0 0 0)
(0 -4.18248e-05 0)
(0 -0.000172705 0)
(0 -0.00037023 0)
(0 -0.000615199 0)
(0 -0.000883522 0)
(0 -0.0011484 0)
(0 -0.00135395 0)
(0 -0.00157252 0)
(0 -0.0014157 0)
(0 -0.00150104 0)
(0 -0.00172012 0)
(0 -0.00185032 0)
(0 -0.00163888 0)
(0 -0.00176494 0)
(0 -0.00198319 0)
(0 -0.00210055 0)
(0 -0.00199195 0)
(0 -0.00203387 0)
(0 -0.0021529 0)
(0 -0.00228647 0)
(0 -0.00217968 0)
(0 -0.00221931 0)
(0 -0.0023264 0)
(0 -0.0024174 0)
(0 -0.00231 0)
(0 -0.0023277 0)
(0 -0.00243806 0)
(0 -0.00249591 0)
(0 -0.00239277 0)
(0 -0.00240482 0)
(0 -0.00250786 0)
(0 -0.0025219 0)
(0 -0.00241942 0)
(0 -0.00241446 0)
(0 -0.0025174 0)
(0 -0.00249591 0)
(0 -0.00239277 0)
(0 -0.0023759 0)
(0 -0.00247914 0)
(0 -0.0024174 0)
(0 -0.00231 0)
(0 -0.00228452 0)
(0 -0.00239189 0)
(0 -0.00228647 0)
(0 -0.00217968 0)
(0 -0.00213549 0)
(0 -0.00224183 0)
(0 -0.00210055 0)
(0 -0.00199195 0)
(0 -0.00186643 0)
(0 -0.00176494 0)
(0 -0.00198319 0)
(0 -0.00185032 0)
(0 -0.00163888 0)
(0 -0.00150104 0)
(0 -0.00172012 0)
(0 -0.00157252 0)
(0 -0.00135395 0)
(0 -0.0011484 0)
(0 -0.000883522 0)
(0 -0.0014157 0)
(0 -0.000615199 0)
(0 -0.00037023 0)
(0 -0.000172705 0)
(0 -4.18248e-05 0)
(0 0 0)
(0 0 0)
(0 0 0)
(0 0 0)
(0 0 0)
(0 0 0)
(0 0 0)
(0 0 0)
(0 0 0)
(0 0 0)
(0 0 0)
(0 0 0)
(0 0 0)
(0 0 0)
(0 0 0)
(0 0 0)
(0 0 0)
(0 0 0)
(0 -5.30391e-07 0)
(0 -4.75144e-05 0)
(0 -0.000161011 0)
(0 -0.000315523 0)
(0 -0.000516443 0)
(0 -0.000730724 0)
(0 -0.000937903 0)
(0 -0.00105885 0)
(0 -0.00128334 0)
(0 -0.00141062 0)
(0 -0.0011608 0)
(0 -0.00127582 0)
(0 -0.00151549 0)
(0 -0.00163048 0)
(0 -0.00150692 0)
(0 -0.00155749 0)
(0 -0.00168306 0)
(0 -0.0018186 0)
(0 -0.00168822 0)
(0 -0.00172419 0)
(0 -0.00185581 0)
(0 -0.00194012 0)
(0 -0.00180955 0)
(0 -0.00183862 0)
(0 -0.00197003 0)
(0 -0.00203271 0)
(0 -0.00189963 0)
(0 -0.00191102 0)
(0 -0.0020444 0)
(0 -0.00205979 0)
(0 -0.00192642 0)
(0 -0.00192015 0)
(0 -0.00205376 0)
(0 -0.00203271 0)
(0 -0.00189963 0)
(0 -0.00188373 0)
(0 -0.00201639 0)
(0 -0.00194012 0)
(0 -0.00180955 0)
(0 -0.00177627 0)
(0 -0.00191746 0)
(0 -0.0018186 0)
(0 -0.00168822 0)
(0 -0.00164833 0)
(0 -0.0017773 0)
(0 -0.00163048 0)
(0 -0.00150692 0)
(0 -0.00138112 0)
(0 -0.00127582 0)
(0 -0.00151549 0)
(0 -0.00141062 0)
(0 -0.0011608 0)
(0 -0.00105885 0)
(0 -0.00128334 0)
(0 -0.000937903 0)
(0 -0.000730724 0)
(0 -0.000516443 0)
(0 -0.000315523 0)
(0 -0.000161011 0)
(0 -4.75144e-05 0)
(0 -5.30391e-07 0)
(0 0 0)
(0 0 0)
(0 0 0)
(0 0 0)
(0 0 0)
(0 0 0)
(0 0 0)
(0 0 0)
(0 0 0)
(0 0 0)
(0 0 0)
(0 0 0)
(0 0 0)
(0 0 0)
(0 0 0)
(0 0 0)
(0 0 0)
(0 0 0)
(0 0 0)
(0 0 0)
(0 -2.49529e-05 0)
(0 -0.000103928 0)
(0 -0.000210538 0)
(0 -0.000354506 0)
(0 -0.00052419 0)
(0 -0.000618107 0)
(0 -0.000823624 0)
(0 -0.000931483 0)
(0 -0.000710143 0)
(0 -0.000797983 0)
(0 -0.00103354 0)
(0 -0.00112756 0)
(0 -0.00100223 0)
(0 -0.00104287 0)
(0 -0.00117093 0)
(0 -0.00128385 0)
(0 -0.00114894 0)
(0 -0.0011683 0)
(0 -0.00130129 0)
(0 -0.00139947 0)
(0 -0.00126101 0)
(0 -0.00128526 0)
(0 -0.00142511 0)
(0 -0.00147913 0)
(0 -0.00133643 0)
(0 -0.00134603 0)
(0 -0.00148925 0)
(0 -0.001504 0)
(0 -0.00136034 0)
(0 -0.00135373 0)
(0 -0.00149738 0)
(0 -0.00147913 0)
(0 -0.00133643 0)
(0 -0.00132306 0)
(0 -0.00146503 0)
(0 -0.00139947 0)
(0 -0.00126101 0)
(0 -0.00123334 0)
(0 -0.0013702 0)
(0 -0.00128385 0)
(0 -0.00114894 0)
(0 -0.00111641 0)
(0 -0.00124927 0)
(0 -0.00112756 0)
(0 -0.00100223 0)
(0 -0.000879498 0)
(0 -0.000797983 0)
(0 -0.00103354 0)
(0 -0.000931483 0)
(0 -0.000710143 0)
(0 -0.000618107 0)
(0 -0.000823624 0)
(0 -0.00052419 0)
(0 -0.000354506 0)
(0 -0.000210538 0)
(0 -0.000103928 0)
(0 -2.49529e-05 0)
(0 0 0)
(0 0 0)
(0 0 0)
(0 0 0)
(0 0 0)
(0 0 0)
(0 0 0)
(0 0 0)
(0 0 0)
(0 0 0)
(0 0 0)
(0 0 0)
(0 0 0)
(0 0 0)
(0 0 0)
(0 0 0)
(0 0 0)
(0 0 0)
(0 0 0)
(0 0 0)
(0 0 0)
(0 0 0)
(0 0 0)
(0 -2.12494e-06 0)
(0 -3.6044e-05 0)
(0 -0.000100594 0)
(0 -0.000211024 0)
(0 -0.000268475 0)
(0 -0.000430354 0)
(0 -0.000505739 0)
(0 -0.000326812 0)
(0 -0.000384062 0)
(0 -0.000578508 0)
(0 -0.000646661 0)
(0 -0.000538895 0)
(0 -0.000567563 0)
(0 -0.000678433 0)
(0 -0.000754957 0)
(0 -0.000638942 0)
(0 -0.00066584 0)
(0 -0.000784512 0)
(0 -0.00085899 0)
(0 -0.000733809 0)
(0 -0.000751739 0)
(0 -0.000878589 0)
(0 -0.000920099 0)
(0 -0.000789768 0)
(0 -0.000796928 0)
(0 -0.000927906 0)
(0 -0.000940373 0)
(0 -0.000808616 0)
(0 -0.000802685 0)
(0 -0.00093418 0)
(0 -0.000920099 0)
(0 -0.000789768 0)
(0 -0.000779806 0)
(0 -0.000909233 0)
(0 -0.00085899 0)
(0 -0.000733809 0)
(0 -0.000713427 0)
(0 -0.000836686 0)
(0 -0.000754957 0)
(0 -0.000638942 0)
(0 -0.000610207 0)
(0 -0.000723326 0)
(0 -0.000646661 0)
(0 -0.000538895 0)
(0 -0.000438379 0)
(0 -0.000384062 0)
(0 -0.000578508 0)
(0 -0.000505739 0)
(0 -0.000326812 0)
(0 -0.000268475 0)
(0 -0.000430354 0)
(0 -0.000211024 0)
(0 -0.000100594 0)
(0 -3.6044e-05 0)
(0 -2.12494e-06 0)
(0 0 0)
(0 0 0)
(0 0 0)
(0 0 0)
(0 0 0)
(0 0 0)
(0 0 0)
(0 0 0)
(0 0 0)
(0 0 0)
(0 0 0)
(0 0 0)
(0 0 0)
(0 0 0)
(0 0 0)
(0 0 0)
(0 0 0)
(0 0 0)
(0 0 0)
(0 0 0)
(0 0 0)
(0 0 0)
(0 0 0)
(0 0 0)
(0 0 0)
(0 0 0)
(0 -3.85188e-07 0)
(0 -2.89389e-05 0)
(0 -5.04065e-05 0)
(0 -0.000139772 0)
(0 -0.000181093 0)
(0 -7.51618e-05 0)
(0 -0.000101635 0)
(0 -0.000222781 0)
(0 -0.000263161 0)
(0 -0.000181149 0)
(0 -0.000199694 0)
(0 -0.000273104 0)
(0 -0.000335326 0)
(0 -0.000252361 0)
(0 -0.000268348 0)
(0 -0.000354044 0)
(0 -0.000401912 0)
(0 -0.000309482 0)
(0 -0.000320497 0)
(0 -0.000414665 0)
(0 -0.000441878 0)
(0 -0.000344071 0)
(0 -0.00034854 0)
(0 -0.000447026 0)
(0 -0.000455979 0)
(0 -0.000356476 0)
(0 -0.000352141 0)
(0 -0.00045117 0)
(0 -0.000441878 0)
(0 -0.000344071 0)
(0 -0.000337868 0)
(0 -0.000434729 0)
(0 -0.000401912 0)
(0 -0.000309482 0)
(0 -0.000297042 0)
(0 -0.000387476 0)
(0 -0.000335326 0)
(0 -0.000252361 0)
(0 -0.000235479 0)
(0 -0.00031548 0)
(0 -0.000263161 0)
(0 -0.000181149 0)
(0 -0.000121815 0)
(0 -0.000101635 0)
(0 -0.000222781 0)
(0 -0.000181093 0)
(0 -7.51618e-05 0)
(0 -5.04065e-05 0)
(0 -0.000139772 0)
(0 -2.89389e-05 0)
(0 -3.85188e-07 0)
(0 0 0)
(0 0 0)
(0 0 0)
(0 0 0)
(0 0 0)
(0 0 0)
(0 0 0)
(0 0 0)
(0 0 0)
(0 0 0)
(0 0 0)
(0 0 0)
(0 0 0)
(0 0 0)
(0 0 0)
(0 0 0)
(0 0 0)
(0 0 0)
(0 0 0)
(0 0 0)
(0 0 0)
(0 0 0)
(0 0 0)
(0 0 0)
(0 0 0)
(0 0 0)
(0 0 0)
(0 0 0)
(0 0 0)
(0 0 0)
(0 0 0)
(0 -1.41465e-05 0)
(0 -5.11661e-06 0)
(0 0 0)
(0 -2.22452e-05 0)
(0 -3.71635e-05 0)
(0 -1.13776e-06 0)
(0 -4.97308e-06 0)
(0 -5.35556e-05 0)
(0 -7.01656e-05 0)
(0 -1.04864e-05 0)
(0 -1.66974e-05 0)
(0 -8.58604e-05 0)
(0 -9.96555e-05 0)
(0 -2.27501e-05 0)
(0 -2.79341e-05 0)
(0 -0.000110737 0)
(0 -0.00011848 0)
(0 -3.17015e-05 0)
(0 -3.36796e-05 0)
(0 -0.000122459 0)
(0 -0.000125643 0)
(0 -3.53695e-05 0)
(0 -3.36796e-05 0)
(0 -0.000122459 0)
(0 -0.00011848 0)
(0 -3.17015e-05 0)
(0 -2.79341e-05 0)
(0 -0.000110737 0)
(0 -9.96555e-05 0)
(0 -2.27501e-05 0)
(0 -1.66974e-05 0)
(0 -8.58604e-05 0)
(0 -7.01656e-05 0)
(0 -1.04864e-05 0)
(0 -4.97308e-06 0)
(0 -5.35556e-05 0)
(0 -3.71635e-05 0)
(0 -1.13776e-06 0)
(0 0 0)
(0 -2.22452e-05 0)
(0 -1.41465e-05 0)
(0 0 0)
(0 0 0)
(0 0 0)
(0 -5.11661e-06 0)
(0 0 0)
(0 0 0)
(0 0 0)
(0 0 0)
(0 0 0)
(0 0 0)
(0 0 0)
(0 0 0)
(0 0 0)
(0 0 0)
(0 0 0)
(0 0 0)
(0 0 0)
(0 0 0)
(0 0 0)
(0 0 0)
(0 0 0)
(0 0 0)
(0 0 0)
(0 0 0)
(0 0 0)
(0 0 0)
(0 0 0)
(0 0 0)
(0 0 0)
(0 0 0)
(0 0 0)
(0 0 0)
(0 0 0)
(0 0 0)
(0 0 0)
(0 0 0)
(0 0 0)
(0 0 0)
(0 0 0)
(0 0 0)
(0 0 0)
(0 0 0)
(0 0 0)
(0 0 0)
(0 -1.02249e-07 0)
(0 0 0)
(0 0 0)
(0 -3.93488e-07 0)
(0 -2.34119e-07 0)
(0 0 0)
(0 -1.02249e-07 0)
(0 -2.34119e-07 0)
(0 0 0)
(0 0 0)
(0 0 0)
(0 0 0)
(0 0 0)
(0 0 0)
(0 0 0)
(0 0 0)
(0 0 0)
(0 0 0)
(0 0 0)
(0 0 0)
(0 0 0)
(0 0 0)
(0 0 0)
(0 0 0)
(0 0 0)
(0 0 0)
(0 0 0)
(0 0 0)
(0 0 0)
(0 0 0)
(0 0 0)
(0 0 0)
(0 0 0)
(0 0 0)
(0 0 0)
(0 0 0)
(0 0 0)
(0 0 0)
(0 0 0)
(0 0 0)
(0 0 0)
(0 0 0)
(0 0 0)
(0 0 0)
(0 0 0)
(0 0 0)
(0 0 0)
(0 0 0)
(0 0 0)
(0 0 0)
(0 0 0)
(0 0 0)
(0 0 0)
(0 0 0)
(0 0 0)
(0 0 0)
(0 0 0)
(0 0 0)
(0 0 0)
(0 0 0)
(0 0 0)
(0 0 0)
(0 0 0)
(0 0 0)
(0 0 0)
(0 0 0)
(0 0 0)
(0 0 0)
(0 0 0)
(0 0 0)
(0 0 0)
(0 0 0)
(0 0 0)
(0 0 0)
(0 0 0)
(0 0 0)
(0 0 0)
(0 0 0)
(0 0 0)
(0 0 0)
(0 0 0)
(0 0 0)
(0 0 0)
(0 0 0)
(0 0 0)
(0 0 0)
(0 0 0)
(0 0 0)
(0 0 0)
(0 0 0)
(0 0 0)
(0 0 0)
(0 0 0)
(0 0 0)
(0 0 0)
(0 0 0)
(0 0 0)
(0 0 0)
(0 0 0)
(0 0 0)
(0 0 0)
(0 0 0)
(0 0 0)
(0 0 0)
(0 0 0)
(0 0 0)
(0 0 0)
(0 0 0)
(0 0 0)
(0 0 0)
(0 0 0)
(0 0 0)
(0 0 0)
(0 0 0)
(0 0 0)
(0 0 0)
(0 0 0)
(0 0 0)
(0 0 0)
(0 0 0)
(0 0 0)
(0 0 0)
(0 0 0)
(0 0 0)
(0 0 0)
(0 0 0)
(0 0 0)
(0 0 0)
(0 0 0)
(0 0 0)
(0 0 0)
(0 0 0)
(0 0 0)
(0 0 0)
(0 0 0)
(0 0 0)
(0 0 0)
(0 0 0)
(0 0 0)
(0 0 0)
(0 0 0)
(0 0 0)
(0 0 0)
(0 0 0)
(0 0 0)
(0 0 0)
(0 0 0)
(0 0 0)
(0 0 0)
(0 0 0)
(0 0 0)
(0 0 0)
(0 0 0)
(0 0 0)
(0 0 0)
(0 0 0)
(0 0 0)
(0 0 0)
(0 0 0)
(0 0 0)
(0 0 0)
(0 0 0)
(0 0 0)
(0 0 0)
(0 0 0)
(0 0 0)
(0 0 0)
(0 0 0)
(0 0 0)
(0 0 0)
(0 0 0)
(0 0 0)
(0 0 0)
(0 0 0)
(0 0 0)
(0 0 0)
(0 0 0)
(0 0 0)
(0 0 0)
(0 0 0)
(0 0 0)
(0 0 0)
(0 0 0)
(0 0 0)
(0 0 0)
(0 0 0)
(0 0 0)
(0 0 0)
(0 0 0)
(0 0 0)
(0 0 0)
(0 0 0)
(0 0 0)
(0 0 0)
(0 0 0)
(0 0 0)
(0 0 0)
(0 0 0)
(0 0 0)
(0 0 0)
(0 0 0)
(0 0 0)
(0 0 0)
(0 0 0)
(0 0 0)
(0 0 0)
(0 0 0)
(0 0 0)
(0 0 0)
(0 0 0)
(0 0 0)
(0 0 0)
(0 0 0)
(0 0 0)
(0 0 0)
(0 0 0)
(0 0 0)
(0 0 0)
(0 0 0)
(0 0 0)
(0 0 0)
(0 0 0)
(0 0 0)
(0 0 0)
(0 0 0)
(0 0 0)
(0 0 0)
(0 0 0)
(0 0 0)
(0 0 0)
(0 0 0)
(0 0 0)
(0 0 0)
(0 0 0)
(0 0 0)
(0 0 0)
(0 0 0)
(0 0 0)
(0 0 0)
(0 0 0)
(0 0 0)
(0 0 0)
(0 0 0)
(0 0 0)
(0 0 0)
(0 0 0)
(0 0 0)
(0 0 0)
(0 0 0)
(0 0 0)
(0 0 0)
(0 0 0)
(0 0 0)
(0 0 0)
(0 0 0)
(0 0 0)
(0 0 0)
(0 0 0)
(0 0 0)
(0 0 0)
(0 0 0)
(0 0 0)
(0 0 0)
(0 0 0)
(0 0 0)
(0 0 0)
(0 0 0)
(0 0 0)
(0 0 0)
(0 0 0)
(0 0 0)
(0 0 0)
(0 0 0)
(0 0 0)
(0 0 0)
(0 0 0)
(0 0 0)
(0 0 0)
(0 0 0)
(0 0 0)
(0 0 0)
(0 0 0)
(0 0 0)
(0 0 0)
(0 0 0)
(0 0 0)
(0 0 0)
(0 0 0)
(0 0 0)
(0 0 0)
(0 0 0)
(0 0 0)
(0 0 0)
(0 0 0)
(0 0 0)
(0 0 0)
(0 0 0)
(0 0 0)
(0 0 0)
(0 0 0)
(0 0 0)
(0 0 0)
(0 0 0)
(0 0 0)
(0 0 0)
(0 0 0)
(0 0 0)
(0 0 0)
(0 0 0)
(0 0 0)
(0 0 0)
(0 0 0)
(0 0 0)
(0 0 0)
(0 0 0)
(0 0 0)
(0 0 0)
(0 0 0)
(0 0 0)
(0 0 0)
(0 0 0)
(0 0 0)
(0 0 0)
(0 0 0)
(0 0 0)
(0 0 0)
(0 0 0)
(0 0 0)
(0 0 0)
(0 0 0)
(0 0 0)
(0 0 0)
(0 0 0)
(0 0 0)
(0 0 0)
(0 0 0)
(0 0 0)
(0 0 0)
(0 0 0)
(0 0 0)
(0 0 0)
(0 0 0)
(0 0 0)
(0 0 0)
(0 0 0)
(0 0 0)
(0 0 0)
(0 0 0)
(0 0 0)
(0 0 0)
(0 0 0)
(0 0 0)
(0 0 0)
(0 0 0)
(0 0 0)
(0 0 0)
(0 0 0)
(0 0 0)
(0 0 0)
(0 0 0)
(0 0 0)
(0 0 0)
(0 0 0)
(0 0 0)
(0 0 0)
(0 0 0)
(0 0 0)
(0 0 0)
(0 0 0)
(0 0 0)
(0 0 0)
(0 0 0)
(0 0 0)
(0 0 0)
(0 0 0)
(0 0 0)
(0 0 0)
(0 0 0)
(0 0 0)
(0 0 0)
(0 0 0)
(0 0 0)
(0 0 0)
(0 0 0)
(0 0 0)
(0 0 0)
(0 0 0)
(0 0 0)
(0 0 0)
(0 0 0)
(0 0 0)
(0 0 0)
(0 0 0)
(0 0 0)
(0 0 0)
(0 0 0)
(0 0 0)
(0 0 0)
(0 0 0)
(0 0 0)
(0 0 0)
(0 0 0)
(0 0 0)
(0 0 0)
(0 0 0)
(0 0 0)
(0 0 0)
(0 0 0)
(0 0 0)
(0 0 0)
(0 0 0)
(0 0 0)
(0 0 0)
(0 0 0)
(0 0 0)
(0 0 0)
(0 0 0)
(0 0 0)
(0 0 0)
(0 0 0)
(0 0 0)
(0 0 0)
(0 0 0)
(0 0 0)
(0 0 0)
(0 0 0)
(0 0 0)
(0 0 0)
(0 0 0)
(0 0 0)
(0 0 0)
(0 0 0)
(0 0 0)
(0 0 0)
(0 0 0)
(0 0 0)
(0 0 0)
(0 0 0)
(0 0 0)
(0 0 0)
(0 0 0)
(0 0 0)
(0 0 0)
(0 0 0)
(0 0 0)
(0 0 0)
(0 0 0)
(0 0 0)
(0 0 0)
(0 0 0)
(0 0 0)
(0 0 0)
(0 0 0)
(0 0 0)
(0 0 0)
(0 0 0)
(0 0 0)
(0 0 0)
(0 0 0)
(0 0 0)
(0 0 0)
(0 0 0)
(0 0 0)
(0 0 0)
(0 0 0)
(0 0 0)
(0 0 0)
(0 0 0)
(0 0 0)
(0 0 0)
(0 0 0)
(0 0 0)
(0 0 0)
(0 0 0)
(0 0 0)
(0 0 0)
(0 0 0)
(0 0 0)
(0 0 0)
(0 0 0)
(0 0 0)
(0 0 0)
(0 0 0)
(0 0 0)
(0 0 0)
(0 0 0)
(0 0 0)
(0 0 0)
(0 0 0)
(0 0 0)
(0 0 0)
(0 0 0)
(0 0 0)
(0 0 0)
(0 0 0)
(0 0 0)
(0 0 0)
(0 0 0)
(0 0 0)
(0 0 0)
(0 0 0)
(0 0 0)
(0 0 0)
(0 0 0)
(0 0 0)
(0 0 0)
(0 0 0)
(0 0 0)
(0 0 0)
(0 0 0)
(0 0 0)
(0 0 0)
(0 0 0)
(0 0 0)
(0 0 0)
(0 0 0)
(0 0 0)
(0 0 0)
(0 0 0)
(0 0 0)
(0 0 0)
(0 0 0)
(0 0 0)
(0 0 0)
(0 0 0)
(0 0 0)
(0 0 0)
(0 0 0)
(0 0 0)
(0 0 0)
(0 0 0)
(0 0 0)
(0 0 0)
(0 0 0)
(0 0 0)
(0 0 0)
(0 0 0)
(0 0 0)
(0 0 0)
(0 0 0)
(0 0 0)
(0 0 0)
(0 0 0)
(0 0 0)
(0 0 0)
(0 0 0)
(0 0 0)
(0 0 0)
(0 0 0)
(0 0 0)
(0 0 0)
(0 0 0)
(0 0 0)
(0 0 0)
(0 0 0)
(0 0 0)
(0 0 0)
(0 0 0)
(0 0 0)
(0 0 0)
(0 0 0)
(0 0 0)
(0 0 0)
(0 0 0)
(0 0 0)
(0 0 0)
(0 0 0)
(0 0 0)
(0 0 0)
(0 0 0)
(0 0 0)
(0 0 0)
(0 0 0)
(0 0 0)
(0 0 0)
(0 0 0)
(0 0 0)
(0 0 0)
(0 0 0)
(0 0 0)
(0 0 0)
(0 0 0)
(0 0 0)
(0 0 0)
(0 0 0)
(0 0 0)
(0 0 0)
(0 0 0)
(0 0 0)
(0 0 0)
(0 0 0)
(0 0 0)
(0 0 0)
(0 0 0)
(0 0 0)
(0 0 0)
(0 0 0)
(0 0 0)
(0 0 0)
(0 0 0)
(0 0 0)
(0 0 0)
(0 0 0)
(0 0 0)
(0 0 0)
(0 0 0)
(0 0 0)
(0 0 0)
(0 0 0)
(0 0 0)
(0 0 0)
(0 0 0)
(0 0 0)
(0 0 0)
(0 0 0)
(0 0 0)
(0 0 0)
(0 0 0)
(0 0 0)
(0 0 0)
(0 0 0)
(0 0 0)
(0 0 0)
(0 0 0)
(0 0 0)
(0 0 0)
(0 0 0)
(0 0 0)
(0 0 0)
(0 0 0)
(0 0 0)
(0 0 0)
(0 0 0)
(0 0 0)
(0 0 0)
(0 0 0)
(0 0 0)
(0 0 0)
(0 0 0)
(0 0 0)
(0 0 0)
(0 0 0)
(0 0 0)
(0 0 0)
(0 0 0)
(0 0 0)
(0 0 0)
(0 0 0)
(0 0 0)
(0 0 0)
(0 0 0)
(0 0 0)
(0 0 0)
(0 0 0)
(0 0 0)
(0 0 0)
(0 0 0)
(0 0 0)
(0 0 0)
(0 0 0)
(0 0 0)
(0 0 0)
(0 0 0)
(0 0 0)
(0 0 0)
(0 0 0)
(0 0 0)
(0 0 0)
(0 0 0)
(0 0 0)
(0 0 0)
(0 0 0)
(0 0 0)
(0 0 0)
(0 0 0)
(0 0 0)
(0 0 0)
(0 0 0)
(0 0 0)
(0 0 0)
(0 0 0)
(0 0 0)
(0 0 0)
(0 0 0)
(0 0 0)
(0 0 0)
(0 0 0)