/*--------------------------------*- C++ -*----------------------------------*\
| =========                 |                                                 |
| \\      /  F ield         | OpenFOAM: The Open Source CFD Toolbox           |
|  \\    /   O peration     | Version:  v2106                                 |
|   \\  /    A nd           | Website:  www.openfoam.com                      |
|    \\/     M anipulation  |                                                 |
\*---------------------------------------------------------------------------*/
FoamFile
{
    version     2.0;
    format      ascii;
    arch        "LSB;label=32;scalar=64";
    class       pointVectorField;
    location    "0";
    object      pointDisplacement;
}
// * * * * * * * * * * * * * * * * * * * * * * * * * * * * * * * * * * * * * //

dimensions      [0 1 0 0 0 0 0];

internalField   nonuniform List<vector> 
24440
(
(0 0 0)
(0 0 0)
(0 0 0)
(0 0 0)
(0 0 0)
(0 0 0)
(0 0 0)
(0 0 0)
(0 0 0)
(0 0 0)
(0 0 0)
(0 0 0)
(0 0 0)
(0 0 0)
(0 0 0)
(0 0 0)
(0 0 0)
(0 0 0)
(0 0 0)
(0 0 0)
(0 0 0)
(0 0 0)
(0 0 0)
(0 0 0)
(0 0 0)
(0 0 0)
(0 0 0)
(0 0 0)
(0 0 0)
(0 0 0)
(0 0 0)
(0 0 0)
(0 0 0)
(0 0 0)
(0 0 0)
(0 0 0)
(0 0 0)
(0 0 0)
(0 0 0)
(0 0 0)
(0 0 0)
(0 0 0)
(0 0 0)
(0 0 0)
(0 0 0)
(0 0 0)
(0 0 0)
(0 0 0)
(0 0 0)
(0 0 0)
(0 0 0)
(0 0 0)
(0 0 0)
(0 0 0)
(0 0 0)
(0 0 0)
(0 0 0)
(0 0 0)
(0 0 0)
(0 0 0)
(0 0 0)
(0 0 0)
(0 0 0)
(0 0 0)
(0 0 0)
(0 0 0)
(0 0 0)
(0 0 0)
(0 0 0)
(0 0 0)
(0 0 0)
(0 0 0)
(0 0 0)
(0 0 0)
(0 0 0)
(0 0 0)
(0 0 0)
(0 0 0)
(0 0 0)
(0 0 0)
(0 0 0)
(0 0 0)
(0 0 0)
(0 0 0)
(0 0 0)
(0 0 0)
(0 0 0)
(0 0 0)
(0 0 0)
(0 0 0)
(0 0 0)
(0 0 0)
(0 0 0)
(0 0 0)
(0 0 0)
(0 0 0)
(0 0 0)
(0 0 0)
(0 -4.6603e-06 0)
(0 -2.93881e-05 0)
(0 -8.08112e-05 0)
(0 -0.000124526 0)
(0 -0.000141303 0)
(0 -0.000124526 0)
(0 -8.08112e-05 0)
(0 -2.93881e-05 0)
(0 -4.6603e-06 0)
(0 0 0)
(0 0 0)
(0 0 0)
(0 0 0)
(0 0 0)
(0 0 0)
(0 0 0)
(0 0 0)
(0 0 0)
(0 0 0)
(0 0 0)
(0 0 0)
(0 0 0)
(0 0 0)
(0 0 0)
(0 0 0)
(0 0 0)
(0 0 0)
(0 0 0)
(0 0 0)
(0 0 0)
(0 0 0)
(0 0 0)
(0 0 0)
(0 0 0)
(0 0 0)
(0 0 0)
(0 0 0)
(0 0 0)
(0 -7.80475e-06 0)
(0 -0.000103244 0)
(0 -0.000303839 0)
(0 -0.000547346 0)
(0 -0.000780737 0)
(0 -0.000943444 0)
(0 -0.0010947 0)
(0 -0.00114792 0)
(0 -0.0010947 0)
(0 -0.000943444 0)
(0 -0.000780737 0)
(0 -0.000547346 0)
(0 -0.000303839 0)
(0 -0.000103244 0)
(0 -7.80475e-06 0)
(0 0 0)
(0 0 0)
(0 0 0)
(0 0 0)
(0 0 0)
(0 0 0)
(0 0 0)
(0 0 0)
(0 0 0)
(0 0 0)
(0 0 0)
(0 0 0)
(0 0 0)
(0 0 0)
(0 0 0)
(0 0 0)
(0 0 0)
(0 0 0)
(0 0 0)
(0 0 0)
(0 0 0)
(0 0 0)
(0 0 0)
(0 0 0)
(0 -3.27688e-06 0)
(0 -0.000135775 0)
(0 -0.000463037 0)
(0 -0.000913103 0)
(0 -0.00137667 0)
(0 -0.00189384 0)
(0 -0.00234175 0)
(0 -0.00261915 0)
(0 -0.0028844 0)
(0 -0.00297608 0)
(0 -0.0028844 0)
(0 -0.00261915 0)
(0 -0.00234175 0)
(0 -0.00189384 0)
(0 -0.00137667 0)
(0 -0.000913103 0)
(0 -0.000463037 0)
(0 -0.000135775 0)
(0 -3.27688e-06 0)
(0 0 0)
(0 0 0)
(0 0 0)
(0 0 0)
(0 0 0)
(0 0 0)
(0 0 0)
(0 0 0)
(0 0 0)
(0 0 0)
(0 0 0)
(0 0 0)
(0 0 0)
(0 0 0)
(0 0 0)
(0 0 0)
(0 0 0)
(0 0 0)
(0 0 0)
(0 0 0)
(0 0 0)
(0 -3.09845e-05 0)
(0 -0.000322222 0)
(0 -0.000856321 0)
(0 -0.00150243 0)
(0 -0.00230463 0)
(0 -0.00311373 0)
(0 -0.00381467 0)
(0 -0.00447127 0)
(0 -0.00493721 0)
(0 -0.00521559 0)
(0 -0.00534338 0)
(0 -0.00521559 0)
(0 -0.00493721 0)
(0 -0.00447127 0)
(0 -0.00381467 0)
(0 -0.00311373 0)
(0 -0.00230463 0)
(0 -0.00150243 0)
(0 -0.000856321 0)
(0 -0.000322222 0)
(0 -3.28023e-05 0)
(0 0 0)
(0 0 0)
(0 0 0)
(0 0 0)
(0 0 0)
(0 0 0)
(0 0 0)
(0 0 0)
(0 0 0)
(0 0 0)
(0 0 0)
(0 0 0)
(0 0 0)
(0 0 0)
(0 0 0)
(0 0 0)
(0 0 0)
(0 0 0)
(0 0 0)
(0 -6.09396e-05 0)
(0 -0.000427308 0)
(0 -0.00106651 0)
(0 -0.00195794 0)
(0 -0.00301738 0)
(0 -0.0041183 0)
(0 -0.00512859 0)
(0 -0.00608636 0)
(0 -0.00644625 0)
(0 -0.00683544 0)
(0 -0.00716099 0)
(0 -0.00741748 0)
(0 -0.0076009 0)
(0 -0.00772773 0)
(0 -0.0078449 0)
(0 -0.00788413 0)
(0 -0.0078449 0)
(0 -0.00772773 0)
(0 -0.0076009 0)
(0 -0.00741748 0)
(0 -0.00716099 0)
(0 -0.00683544 0)
(0 -0.00644625 0)
(0 -0.00608636 0)
(0 -0.00512859 0)
(0 -0.0041183 0)
(0 -0.00301738 0)
(0 -0.00195794 0)
(0 -0.00104437 0)
(0 -0.000386116 0)
(0 -4.86947e-05 0)
(0 0 0)
(0 0 0)
(0 0 0)
(0 0 0)
(0 0 0)
(0 0 0)
(0 0 0)
(0 0 0)
(0 0 0)
(0 0 0)
(0 0 0)
(0 0 0)
(0 0 0)
(0 0 0)
(0 0 0)
(0 0 0)
(0 0 0)
(0 -3.58437e-05 0)
(0 -0.000410193 0)
(0 -0.00114287 0)
(0 -0.00215054 0)
(0 -0.00333088 0)
(0 -0.00471961 0)
(0 -0.00538364 0)
(0 -0.00597221 0)
(0 -0.00662364 0)
(0 -0.00723424 0)
(0 -0.00779288 0)
(0 -0.00826748 0)
(0 -0.00720524 0)
(0 -0.00764516 0)
(0 -0.00799235 0)
(0 -0.00834253 0)
(0 -0.00861725 0)
(0 -0.00881301 0)
(0 -0.00893037 0)
(0 -0.00905475 0)
(0 -0.00909635 0)
(0 -0.00905475 0)
(0 -0.00893037 0)
(0 -0.00881301 0)
(0 -0.00861725 0)
(0 -0.00834253 0)
(0 -0.00799235 0)
(0 -0.00764516 0)
(0 -0.00720524 0)
(0 -0.00826748 0)
(0 -0.00779288 0)
(0 -0.00723424 0)
(0 -0.00662364 0)
(0 -0.00597221 0)
(0 -0.00538364 0)
(0 -0.00471961 0)
(0 -0.00333088 0)
(0 -0.00215054 0)
(0 -0.00110118 0)
(0 -0.000392346 0)
(0 -3.25512e-05 0)
(0 0 0)
(0 0 0)
(0 0 0)
(0 0 0)
(0 0 0)
(0 0 0)
(0 0 0)
(0 0 0)
(0 0 0)
(0 0 0)
(0 0 0)
(0 0 0)
(0 0 0)
(0 0 0)
(0 0 0)
(0 0 0)
(0 -0.000226789 0)
(0 -0.000926809 0)
(0 -0.00198139 0)
(0 -0.00330606 0)
(0 -0.00478144 0)
(0 -0.00628059 0)
(0 -0.00552807 0)
(0 -0.00625016 0)
(0 -0.006945 0)
(0 -0.00759926 0)
(0 -0.00818054 0)
(0 -0.00877005 0)
(0 -0.00929098 0)
(0 -0.00972135 0)
(0 -0.00873493 0)
(0 -0.00912867 0)
(0 -0.0101272 0)
(0 -0.0104194 0)
(0 -0.0094419 0)
(0 -0.0097285 0)
(0 -0.01071 0)
(0 -0.0109145 0)
(0 -0.00993181 0)
(0 -0.0100348 0)
(0 -0.0110331 0)
(0 -0.0111272 0)
(0 -0.0101631 0)
(0 -0.0102059 0)
(0 -0.0111697 0)
(0 -0.0111272 0)
(0 -0.0101631 0)
(0 -0.0100348 0)
(0 -0.0110331 0)
(0 -0.0109145 0)
(0 -0.00993181 0)
(0 -0.0097285 0)
(0 -0.01071 0)
(0 -0.0104194 0)
(0 -0.0094419 0)
(0 -0.00912867 0)
(0 -0.0101272 0)
(0 -0.00972135 0)
(0 -0.00873493 0)
(0 -0.00929098 0)
(0 -0.00877005 0)
(0 -0.00818054 0)
(0 -0.00759926 0)
(0 -0.006945 0)
(0 -0.00625016 0)
(0 -0.00552807 0)
(0 -0.00628059 0)
(0 -0.00478144 0)
(0 -0.00326626 0)
(0 -0.00196575 0)
(0 -0.000925819 0)
(0 -0.000246556 0)
(0 0 0)
(0 0 0)
(0 0 0)
(0 0 0)
(0 0 0)
(0 0 0)
(0 0 0)
(0 0 0)
(0 0 0)
(0 0 0)
(0 0 0)
(0 0 0)
(0 0 0)
(0 0 0)
(0 0 0)
(0 -4.94738e-05 0)
(0 -0.000508279 0)
(0 -0.00146511 0)
(0 -0.00274502 0)
(0 -0.00426662 0)
(0 -0.0060099 0)
(0 -0.00768909 0)
(0 -0.0070356 0)
(0 -0.0077963 0)
(0 -0.00700043 0)
(0 -0.00778337 0)
(0 -0.00851134 0)
(0 -0.00922863 0)
(0 -0.00847242 0)
(0 -0.0091017 0)
(0 -0.00987536 0)
(0 -0.0101703 0)
(0 -0.0104447 0)
(0 -0.0100715 0)
(0 -0.00963288 0)
(0 -0.0101674 0)
(0 -0.0105508 0)
(0 -0.0107876 0)
(0 -0.0104041 0)
(0 -0.0109799 0)
(0 -0.0113435 0)
(0 -0.0115118 0)
(0 -0.0111507 0)
(0 -0.0115272 0)
(0 -0.0118829 0)
(0 -0.0119716 0)
(0 -0.0116367 0)
(0 -0.0118381 0)
(0 -0.0121641 0)
(0 -0.0122105 0)
(0 -0.011892 0)
(0 -0.01195 0)
(0 -0.0122616 0)
(0 -0.0122522 0)
(0 -0.01194 0)
(0 -0.0118381 0)
(0 -0.0121641 0)
(0 -0.0121201 0)
(0 -0.0117918 0)
(0 -0.0115272 0)
(0 -0.0118829 0)
(0 -0.0117811 0)
(0 -0.0114262 0)
(0 -0.0109799 0)
(0 -0.0113435 0)
(0 -0.0111949 0)
(0 -0.010787 0)
(0 -0.0101674 0)
(0 -0.0105508 0)
(0 -0.0102925 0)
(0 -0.00991011 0)
(0 -0.0091017 0)
(0 -0.00987536 0)
(0 -0.00922863 0)
(0 -0.00847242 0)
(0 -0.00778337 0)
(0 -0.00851134 0)
(0 -0.0077963 0)
(0 -0.00700043 0)
(0 -0.0070356 0)
(0 -0.00765445 0)
(0 -0.00600575 0)
(0 -0.00433538 0)
(0 -0.00272197 0)
(0 -0.00145084 0)
(0 -0.000533754 0)
(0 -5.65759e-05 0)
(0 0 0)
(0 0 0)
(0 0 0)
(0 0 0)
(0 0 0)
(0 0 0)
(0 0 0)
(0 0 0)
(0 0 0)
(0 0 0)
(0 0 0)
(0 0 0)
(0 0 0)
(0 0 0)
(0 -0.000161867 0)
(0 -0.000819218 0)
(0 -0.00192479 0)
(0 -0.00338212 0)
(0 -0.00506627 0)
(0 -0.00691867 0)
(0 -0.0086475 0)
(0 -0.00822094 0)
(0 -0.0090345 0)
(0 -0.00848081 0)
(0 -0.00922001 0)
(0 -0.00978901 0)
(0 -0.0104704 0)
(0 -0.00989334 0)
(0 -0.0104898 0)
(0 -0.0107988 0)
(0 -0.0110645 0)
(0 -0.0107984 0)
(0 -0.0115492 0)
(0 -0.011677 0)
(0 -0.0117801 0)
(0 -0.0116535 0)
(0 -0.012226 0)
(0 -0.0123282 0)
(0 -0.0123946 0)
(0 -0.0122944 0)
(0 -0.0126266 0)
(0 -0.0127011 0)
(0 -0.0127349 0)
(0 -0.0126598 0)
(0 -0.0128022 0)
(0 -0.0128568 0)
(0 -0.0128646 0)
(0 -0.0128115 0)
(0 -0.0128471 0)
(0 -0.0128911 0)
(0 -0.0128903 0)
(0 -0.012846 0)
(0 -0.0128022 0)
(0 -0.0128568 0)
(0 -0.012846 0)
(0 -0.0127894 0)
(0 -0.0126266 0)
(0 -0.0127011 0)
(0 -0.0126727 0)
(0 -0.0125866 0)
(0 -0.012226 0)
(0 -0.0123282 0)
(0 -0.0122704 0)
(0 -0.0121515 0)
(0 -0.0115492 0)
(0 -0.011677 0)
(0 -0.011794 0)
(0 -0.0115714 0)
(0 -0.0113225 0)
(0 -0.0104898 0)
(0 -0.0107988 0)
(0 -0.0110671 0)
(0 -0.0104704 0)
(0 -0.00989334 0)
(0 -0.00922001 0)
(0 -0.00976664 0)
(0 -0.00902867 0)
(0 -0.00848081 0)
(0 -0.00823078 0)
(0 -0.00867312 0)
(0 -0.00690128 0)
(0 -0.00511674 0)
(0 -0.00341758 0)
(0 -0.00194709 0)
(0 -0.000830908 0)
(0 -0.00016586 0)
(0 0 0)
(0 0 0)
(0 0 0)
(0 0 0)
(0 0 0)
(0 0 0)
(0 0 0)
(0 0 0)
(0 0 0)
(0 0 0)
(0 0 0)
(0 0 0)
(0 0 0)
(0 0 0)
(0 -0.000249594 0)
(0 -0.0010177 0)
(0 -0.00223956 0)
(0 -0.003812 0)
(0 -0.00560258 0)
(0 -0.00746087 0)
(0 -0.0092313 0)
(0 -0.00901195 0)
(0 -0.00981907 0)
(0 -0.00944436 0)
(0 -0.010175 0)
(0 -0.0105544 0)
(0 -0.0112035 0)
(0 -0.01089 0)
(0 -0.0114808 0)
(0 -0.0116268 0)
(0 -0.0118811 0)
(0 -0.0117385 0)
(0 -0.0123508 0)
(0 -0.0124182 0)
(0 -0.0124943 0)
(0 -0.012429 0)
(0 -0.0128201 0)
(0 -0.0128526 0)
(0 -0.0128798 0)
(0 -0.0128511 0)
(0 -0.0129325 0)
(0 -0.0129325 0)
(0 -0.0129325 0)
(0 -0.0129325 0)
(0 -0.0129325 0)
(0 -0.0129325 0)
(0 -0.0129325 0)
(0 -0.0129325 0)
(0 -0.0129325 0)
(0 -0.0129325 0)
(0 -0.0129325 0)
(0 -0.0129325 0)
(0 -0.0129325 0)
(0 -0.0129325 0)
(0 -0.0129325 0)
(0 -0.0129325 0)
(0 -0.0129325 0)
(0 -0.0129325 0)
(0 -0.0129325 0)
(0 -0.0129325 0)
(0 -0.0128201 0)
(0 -0.0128526 0)
(0 -0.0128168 0)
(0 -0.0127828 0)
(0 -0.0123508 0)
(0 -0.0124182 0)
(0 -0.0124758 0)
(0 -0.0122999 0)
(0 -0.0121739 0)
(0 -0.0114742 0)
(0 -0.0116437 0)
(0 -0.0117732 0)
(0 -0.0111879 0)
(0 -0.0108996 0)
(0 -0.010233 0)
(0 -0.0105413 0)
(0 -0.00980864 0)
(0 -0.00948611 0)
(0 -0.00900429 0)
(0 -0.00923589 0)
(0 -0.00745781 0)
(0 -0.00559368 0)
(0 -0.00379977 0)
(0 -0.0022268 0)
(0 -0.00100714 0)
(0 -0.000243602 0)
(0 0 0)
(0 0 0)
(0 0 0)
(0 0 0)
(0 0 0)
(0 0 0)
(0 0 0)
(0 0 0)
(0 0 0)
(0 0 0)
(0 0 0)
(0 0 0)
(0 0 0)
(0 0 0)
(0 -0.000264626 0)
(0 -0.00105023 0)
(0 -0.00229084 0)
(0 -0.00388221 0)
(0 -0.00569063 0)
(0 -0.00756416 0)
(0 -0.00934539 0)
(0 -0.00934868 0)
(0 -0.0101566 0)
(0 -0.0100369 0)
(0 -0.0107667 0)
(0 -0.0108866 0)
(0 -0.0115233 0)
(0 -0.011406 0)
(0 -0.0119625 0)
(0 -0.0120163 0)
(0 -0.0122394 0)
(0 -0.0121909 0)
(0 -0.0126945 0)
(0 -0.0127153 0)
(0 -0.0127703 0)
(0 -0.0127512 0)
(0 -0.0129325 0)
(0 -0.0129325 0)
(0 -0.0129325 0)
(0 -0.0129325 0)
(0 -0.0129325 0)
(0 -0.0129325 0)
(0 -0.0129325 0)
(0 -0.0129325 0)
(0 -0.0129325 0)
(0 -0.0129325 0)
(0 -0.0129325 0)
(0 -0.0129325 0)
(0 -0.0129325 0)
(0 -0.0129325 0)
(0 -0.0129325 0)
(0 -0.0129325 0)
(0 -0.0129325 0)
(0 -0.0129319 0)
(0 -0.0129301 0)
(0 -0.0126945 0)
(0 -0.0127153 0)
(0 -0.0127289 0)
(0 -0.0125996 0)
(0 -0.012554 0)
(0 -0.0119618 0)
(0 -0.012017 0)
(0 -0.0120532 0)
(0 -0.0115233 0)
(0 -0.0114226 0)
(0 -0.0107796 0)
(0 -0.0108592 0)
(0 -0.0101251 0)
(0 -0.0100456 0)
(0 -0.0093138 0)
(0 -0.0093245 0)
(0 -0.0075409 0)
(0 -0.00566701 0)
(0 -0.00386027 0)
(0 -0.00227249 0)
(0 -0.00103707 0)
(0 -0.000257807 0)
(0 0 0)
(0 0 0)
(0 0 0)
(0 0 0)
(0 0 0)
(0 0 0)
(0 0 0)
(0 0 0)
(0 0 0)
(0 0 0)
(0 0 0)
(0 0 0)
(0 0 0)
(0 0 0)
(0 -0.000216261 0)
(0 -0.000945149 0)
(0 -0.00212637 0)
(0 -0.00365915 0)
(0 -0.00541374 0)
(0 -0.0072426 0)
(0 -0.00899347 0)
(0 -0.00924618 0)
(0 -0.0100528 0)
(0 -0.010154 0)
(0 -0.0108847 0)
(0 -0.0107834 0)
(0 -0.0114231 0)
(0 -0.0115221 0)
(0 -0.0120527 0)
(0 -0.0120244 0)
(0 -0.0122474 0)
(0 -0.0122745 0)
(0 -0.0127516 0)
(0 -0.0127449 0)
(0 -0.0127965 0)
(0 -0.0128026 0)
(0 -0.0129325 0)
(0 -0.0129325 0)
(0 -0.0129325 0)
(0 -0.0129325 0)
(0 -0.0129325 0)
(0 -0.0129325 0)
(0 -0.0129325 0)
(0 -0.0129325 0)
(0 -0.0129325 0)
(0 -0.0129325 0)
(0 -0.0129325 0)
(0 -0.0129325 0)
(0 -0.0129325 0)
(0 -0.0129325 0)
(0 -0.0129325 0)
(0 -0.0129325 0)
(0 -0.0127516 0)
(0 -0.0127394 0)
(0 -0.0127326 0)
(0 -0.0126036 0)
(0 -0.0126183 0)
(0 -0.0120415 0)
(0 -0.0120235 0)
(0 -0.0119686 0)
(0 -0.0114309 0)
(0 -0.011508 0)
(0 -0.0108679 0)
(0 -0.0107891 0)
(0 -0.0100562 0)
(0 -0.010135 0)
(0 -0.0092473 0)
(0 -0.00901634 0)
(0 -0.0072594 0)
(0 -0.00542471 0)
(0 -0.00366519 0)
(0 -0.00212877 0)
(0 -0.000945383 0)
(0 -0.000215789 0)
(0 0 0)
(0 0 0)
(0 0 0)
(0 0 0)
(0 0 0)
(0 0 0)
(0 0 0)
(0 0 0)
(0 0 0)
(0 0 0)
(0 0 0)
(0 0 0)
(0 0 0)
(0 0 0)
(0 -0.000109382 0)
(0 -0.000687046 0)
(0 -0.00170889 0)
(0 -0.00308314 0)
(0 -0.00479341 0)
(0 -0.00654227 0)
(0 -0.00824812 0)
(0 -0.0087005 0)
(0 -0.00950916 0)
(0 -0.00979421 0)
(0 -0.0105712 0)
(0 -0.0102512 0)
(0 -0.0109125 0)
(0 -0.0112304 0)
(0 -0.0117902 0)
(0 -0.011656 0)
(0 -0.0118993 0)
(0 -0.0120296 0)
(0 -0.0125759 0)
(0 -0.0125377 0)
(0 -0.0126071 0)
(0 -0.0126479 0)
(0 -0.0129168 0)
(0 -0.0129035 0)
(0 -0.0129194 0)
(0 -0.0129276 0)
(0 -0.0129325 0)
(0 -0.0129325 0)
(0 -0.0129325 0)
(0 -0.0129325 0)
(0 -0.0129325 0)
(0 -0.0129325 0)
(0 -0.0129325 0)
(0 -0.0129325 0)
(0 -0.0129168 0)
(0 -0.0129016 0)
(0 -0.0128806 0)
(0 -0.0128994 0)
(0 -0.0125759 0)
(0 -0.0125377 0)
(0 -0.0124858 0)
(0 -0.0123214 0)
(0 -0.0124229 0)
(0 -0.0117902 0)
(0 -0.011656 0)
(0 -0.0115036 0)
(0 -0.0109125 0)
(0 -0.0112304 0)
(0 -0.0105515 0)
(0 -0.0102512 0)
(0 -0.00950916 0)
(0 -0.00981991 0)
(0 -0.0087005 0)
(0 -0.00824812 0)
(0 -0.00654227 0)
(0 -0.00473164 0)
(0 -0.00311345 0)
(0 -0.00172876 0)
(0 -0.000697925 0)
(0 -0.000113058 0)
(0 0 0)
(0 0 0)
(0 0 0)
(0 0 0)
(0 0 0)
(0 0 0)
(0 0 0)
(0 0 0)
(0 0 0)
(0 0 0)
(0 0 0)
(0 0 0)
(0 0 0)
(0 0 0)
(0 -1.35343e-05 0)
(0 -0.000401764 0)
(0 -0.00122342 0)
(0 -0.00240574 0)
(0 -0.00384063 0)
(0 -0.00540218 0)
(0 -0.00704078 0)
(0 -0.00766209 0)
(0 -0.00849526 0)
(0 -0.00904157 0)
(0 -0.00981337 0)
(0 -0.00922469 0)
(0 -0.0099552 0)
(0 -0.0104845 0)
(0 -0.0111012 0)
(0 -0.010854 0)
(0 -0.0111264 0)
(0 -0.0113715 0)
(0 -0.0120334 0)
(0 -0.0119233 0)
(0 -0.0120234 0)
(0 -0.0121149 0)
(0 -0.0126183 0)
(0 -0.0125459 0)
(0 -0.0125987 0)
(0 -0.0126684 0)
(0 -0.0128799 0)
(0 -0.0128393 0)
(0 -0.0128571 0)
(0 -0.0128941 0)
(0 -0.0129324 0)
(0 -0.0129253 0)
(0 -0.0129281 0)
(0 -0.0129325 0)
(0 -0.0129325 0)
(0 -0.0129325 0)
(0 -0.0129325 0)
(0 -0.0129325 0)
(0 -0.0129325 0)
(0 -0.0129324 0)
(0 -0.0129253 0)
(0 -0.0129213 0)
(0 -0.012932 0)
(0 -0.0129323 0)
(0 -0.0128799 0)
(0 -0.0128393 0)
(0 -0.0128174 0)
(0 -0.0128615 0)
(0 -0.0126183 0)
(0 -0.0125459 0)
(0 -0.012487 0)
(0 -0.012562 0)
(0 -0.0120423 0)
(0 -0.0119412 0)
(0 -0.0118197 0)
(0 -0.0116188 0)
(0 -0.0118372 0)
(0 -0.0110708 0)
(0 -0.0108414 0)
(0 -0.0105734 0)
(0 -0.00994152 0)
(0 -0.0104845 0)
(0 -0.00981337 0)
(0 -0.00922469 0)
(0 -0.00849526 0)
(0 -0.00904157 0)
(0 -0.00766209 0)
(0 -0.00704078 0)
(0 -0.00540218 0)
(0 -0.00384063 0)
(0 -0.00240574 0)
(0 -0.00122342 0)
(0 -0.000374765 0)
(0 -1.62572e-05 0)
(0 0 0)
(0 0 0)
(0 0 0)
(0 0 0)
(0 0 0)
(0 0 0)
(0 0 0)
(0 0 0)
(0 0 0)
(0 0 0)
(0 0 0)
(0 0 0)
(0 0 0)
(0 0 0)
(0 0 0)
(0 -0.000123491 0)
(0 -0.00065075 0)
(0 -0.00153107 0)
(0 -0.00267262 0)
(0 -0.00409892 0)
(0 -0.00557364 0)
(0 -0.00626931 0)
(0 -0.00709022 0)
(0 -0.00779221 0)
(0 -0.00855325 0)
(0 -0.00782925 0)
(0 -0.00852022 0)
(0 -0.00926856 0)
(0 -0.00991622 0)
(0 -0.00915101 0)
(0 -0.00967907 0)
(0 -0.0101175 0)
(0 -0.0104861 0)
(0 -0.0102114 0)
(0 -0.0109762 0)
(0 -0.010593 0)
(0 -0.0108298 0)
(0 -0.0111929 0)
(0 -0.0117353 0)
(0 -0.0114068 0)
(0 -0.0115382 0)
(0 -0.0118788 0)
(0 -0.0122161 0)
(0 -0.0119249 0)
(0 -0.0120105 0)
(0 -0.0122967 0)
(0 -0.0124654 0)
(0 -0.0121967 0)
(0 -0.0122441 0)
(0 -0.0124984 0)
(0 -0.0125426 0)
(0 -0.0122945 0)
(0 -0.0122817 0)
(0 -0.0125325 0)
(0 -0.0124654 0)
(0 -0.0121967 0)
(0 -0.0121295 0)
(0 -0.0124136 0)
(0 -0.0122161 0)
(0 -0.0119249 0)
(0 -0.0118181 0)
(0 -0.0121144 0)
(0 -0.0117353 0)
(0 -0.0114068 0)
(0 -0.0112369 0)
(0 -0.0115691 0)
(0 -0.0109762 0)
(0 -0.010593 0)
(0 -0.0103706 0)
(0 -0.0107394 0)
(0 -0.00991622 0)
(0 -0.00915101 0)
(0 -0.00852022 0)
(0 -0.00926856 0)
(0 -0.00855325 0)
(0 -0.00782925 0)
(0 -0.00709022 0)
(0 -0.00779221 0)
(0 -0.00626931 0)
(0 -0.00557364 0)
(0 -0.00409892 0)
(0 -0.00267262 0)
(0 -0.00153107 0)
(0 -0.00065075 0)
(0 -0.000123491 0)
(0 0 0)
(0 0 0)
(0 0 0)
(0 0 0)
(0 0 0)
(0 0 0)
(0 0 0)
(0 0 0)
(0 0 0)
(0 0 0)
(0 0 0)
(0 0 0)
(0 0 0)
(0 0 0)
(0 0 0)
(0 0 0)
(0 0 0)
(0 -0.000186095 0)
(0 -0.000768432 0)
(0 -0.0016473 0)
(0 -0.00273727 0)
(0 -0.00393114 0)
(0 -0.00510968 0)
(0 -0.00602425 0)
(0 -0.00699675 0)
(0 -0.006299 0)
(0 -0.00667875 0)
(0 -0.00765352 0)
(0 -0.00823281 0)
(0 -0.00729201 0)
(0 -0.00785291 0)
(0 -0.008824 0)
(0 -0.00934621 0)
(0 -0.00886298 0)
(0 -0.00904949 0)
(0 -0.00957912 0)
(0 -0.0101734 0)
(0 -0.00969829 0)
(0 -0.00987458 0)
(0 -0.0103511 0)
(0 -0.010756 0)
(0 -0.0102781 0)
(0 -0.0103569 0)
(0 -0.0108479 0)
(0 -0.0111053 0)
(0 -0.0106464 0)
(0 -0.0107 0)
(0 -0.0111585 0)
(0 -0.011221 0)
(0 -0.0107649 0)
(0 -0.0107429 0)
(0 -0.0112009 0)
(0 -0.0111053 0)
(0 -0.0106464 0)
(0 -0.0105713 0)
(0 -0.0110307 0)
(0 -0.010756 0)
(0 -0.0102781 0)
(0 -0.0101647 0)
(0 -0.0106425 0)
(0 -0.0101734 0)
(0 -0.00969829 0)
(0 -0.00950165 0)
(0 -0.00997478 0)
(0 -0.00934621 0)
(0 -0.00886298 0)
(0 -0.00830449 0)
(0 -0.00785291 0)
(0 -0.008824 0)
(0 -0.00823281 0)
(0 -0.00729201 0)
(0 -0.00667875 0)
(0 -0.00765352 0)
(0 -0.00699675 0)
(0 -0.00602425 0)
(0 -0.00510968 0)
(0 -0.00393114 0)
(0 -0.006299 0)
(0 -0.00273727 0)
(0 -0.0016473 0)
(0 -0.000768432 0)
(0 -0.000186095 0)
(0 0 0)
(0 0 0)
(0 0 0)
(0 0 0)
(0 0 0)
(0 0 0)
(0 0 0)
(0 0 0)
(0 0 0)
(0 0 0)
(0 0 0)
(0 0 0)
(0 0 0)
(0 0 0)
(0 0 0)
(0 0 0)
(0 0 0)
(0 0 0)
(0 -2.35992e-06 0)
(0 -0.00021141 0)
(0 -0.000716401 0)
(0 -0.00140389 0)
(0 -0.00229786 0)
(0 -0.00325128 0)
(0 -0.00417311 0)
(0 -0.00471124 0)
(0 -0.0057101 0)
(0 -0.00627641 0)
(0 -0.00516486 0)
(0 -0.00567665 0)
(0 -0.00674303 0)
(0 -0.00725465 0)
(0 -0.00670488 0)
(0 -0.00692991 0)
(0 -0.0074886 0)
(0 -0.00809169 0)
(0 -0.00751155 0)
(0 -0.00767163 0)
(0 -0.00825724 0)
(0 -0.00863235 0)
(0 -0.00805143 0)
(0 -0.00818076 0)
(0 -0.00876545 0)
(0 -0.00904434 0)
(0 -0.00845221 0)
(0 -0.00850289 0)
(0 -0.00909634 0)
(0 -0.00916483 0)
(0 -0.00857142 0)
(0 -0.00854353 0)
(0 -0.00913802 0)
(0 -0.00904434 0)
(0 -0.00845221 0)
(0 -0.00838147 0)
(0 -0.00897173 0)
(0 -0.00863235 0)
(0 -0.00805143 0)
(0 -0.00790333 0)
(0 -0.00853154 0)
(0 -0.00809169 0)
(0 -0.00751155 0)
(0 -0.00733409 0)
(0 -0.00790793 0)
(0 -0.00725465 0)
(0 -0.00670488 0)
(0 -0.00614516 0)
(0 -0.00567665 0)
(0 -0.00674303 0)
(0 -0.00627641 0)
(0 -0.00516486 0)
(0 -0.00471124 0)
(0 -0.0057101 0)
(0 -0.00417311 0)
(0 -0.00325128 0)
(0 -0.00229786 0)
(0 -0.00140389 0)
(0 -0.000716401 0)
(0 -0.00021141 0)
(0 -2.35992e-06 0)
(0 0 0)
(0 0 0)
(0 0 0)
(0 0 0)
(0 0 0)
(0 0 0)
(0 0 0)
(0 0 0)
(0 0 0)
(0 0 0)
(0 0 0)
(0 0 0)
(0 0 0)
(0 0 0)
(0 0 0)
(0 0 0)
(0 0 0)
(0 0 0)
(0 0 0)
(0 0 0)
(0 -0.000111026 0)
(0 -0.000462417 0)
(0 -0.000936767 0)
(0 -0.00157734 0)
(0 -0.00233233 0)
(0 -0.00275021 0)
(0 -0.00366463 0)
(0 -0.00414454 0)
(0 -0.00315971 0)
(0 -0.00355055 0)
(0 -0.00459863 0)
(0 -0.00501697 0)
(0 -0.00445932 0)
(0 -0.00464013 0)
(0 -0.00520993 0)
(0 -0.00571234 0)
(0 -0.00511209 0)
(0 -0.00519822 0)
(0 -0.00578995 0)
(0 -0.00622682 0)
(0 -0.00561074 0)
(0 -0.00571864 0)
(0 -0.00634088 0)
(0 -0.00658126 0)
(0 -0.00594632 0)
(0 -0.00598901 0)
(0 -0.00662629 0)
(0 -0.00669189 0)
(0 -0.0060527 0)
(0 -0.00602329 0)
(0 -0.00666243 0)
(0 -0.00658126 0)
(0 -0.00594632 0)
(0 -0.00588683 0)
(0 -0.00651849 0)
(0 -0.00622682 0)
(0 -0.00561074 0)
(0 -0.00548762 0)
(0 -0.00609657 0)
(0 -0.00571234 0)
(0 -0.00511209 0)
(0 -0.00496737 0)
(0 -0.00555848 0)
(0 -0.00501697 0)
(0 -0.00445932 0)
(0 -0.00391324 0)
(0 -0.00355055 0)
(0 -0.00459863 0)
(0 -0.00414454 0)
(0 -0.00315971 0)
(0 -0.00275021 0)
(0 -0.00366463 0)
(0 -0.00233233 0)
(0 -0.00157734 0)
(0 -0.000936767 0)
(0 -0.000462417 0)
(0 -0.000111026 0)
(0 0 0)
(0 0 0)
(0 0 0)
(0 0 0)
(0 0 0)
(0 0 0)
(0 0 0)
(0 0 0)
(0 0 0)
(0 0 0)
(0 0 0)
(0 0 0)
(0 0 0)
(0 0 0)
(0 0 0)
(0 0 0)
(0 0 0)
(0 0 0)
(0 0 0)
(0 0 0)
(0 0 0)
(0 0 0)
(0 0 0)
(0 -9.45469e-06 0)
(0 -0.000160374 0)
(0 -0.000447581 0)
(0 -0.000938929 0)
(0 -0.00119455 0)
(0 -0.00191482 0)
(0 -0.00225024 0)
(0 -0.00145412 0)
(0 -0.00170884 0)
(0 -0.00257401 0)
(0 -0.00287726 0)
(0 -0.00239776 0)
(0 -0.00252531 0)
(0 -0.00301862 0)
(0 -0.0033591 0)
(0 -0.00284291 0)
(0 -0.00296259 0)
(0 -0.00349061 0)
(0 -0.00382199 0)
(0 -0.00326501 0)
(0 -0.00334479 0)
(0 -0.00390919 0)
(0 -0.00409389 0)
(0 -0.00351399 0)
(0 -0.00354585 0)
(0 -0.00412862 0)
(0 -0.0041841 0)
(0 -0.00359786 0)
(0 -0.00357147 0)
(0 -0.00415654 0)
(0 -0.00409389 0)
(0 -0.00351399 0)
(0 -0.00346967 0)
(0 -0.00404554 0)
(0 -0.00382199 0)
(0 -0.00326501 0)
(0 -0.00317432 0)
(0 -0.00372275 0)
(0 -0.0033591 0)
(0 -0.00284291 0)
(0 -0.00271506 0)
(0 -0.00321837 0)
(0 -0.00287726 0)
(0 -0.00239776 0)
(0 -0.00195052 0)
(0 -0.00170884 0)
(0 -0.00257401 0)
(0 -0.00225024 0)
(0 -0.00145412 0)
(0 -0.00119455 0)
(0 -0.00191482 0)
(0 -0.000938929 0)
(0 -0.000447581 0)
(0 -0.000160374 0)
(0 -9.45469e-06 0)
(0 0 0)
(0 0 0)
(0 0 0)
(0 0 0)
(0 0 0)
(0 0 0)
(0 0 0)
(0 0 0)
(0 0 0)
(0 0 0)
(0 0 0)
(0 0 0)
(0 0 0)
(0 0 0)
(0 0 0)
(0 0 0)
(0 0 0)
(0 0 0)
(0 0 0)
(0 0 0)
(0 0 0)
(0 0 0)
(0 0 0)
(0 0 0)
(0 0 0)
(0 0 0)
(0 -1.71386e-06 0)
(0 -0.000128761 0)
(0 -0.000224278 0)
(0 -0.000621901 0)
(0 -0.000805756 0)
(0 -0.000334425 0)
(0 -0.000452215 0)
(0 -0.000991242 0)
(0 -0.00117091 0)
(0 -0.000806005 0)
(0 -0.000888516 0)
(0 -0.00121515 0)
(0 -0.001492 0)
(0 -0.00112285 0)
(0 -0.00119399 0)
(0 -0.00157528 0)
(0 -0.00178827 0)
(0 -0.00137701 0)
(0 -0.00142602 0)
(0 -0.00184501 0)
(0 -0.00196609 0)
(0 -0.00153091 0)
(0 -0.0015508 0)
(0 -0.001989 0)
(0 -0.00202883 0)
(0 -0.0015861 0)
(0 -0.00156681 0)
(0 -0.00200744 0)
(0 -0.00196609 0)
(0 -0.00153091 0)
(0 -0.00150331 0)
(0 -0.00193428 0)
(0 -0.00178827 0)
(0 -0.00137701 0)
(0 -0.00132166 0)
(0 -0.00172404 0)
(0 -0.001492 0)
(0 -0.00112285 0)
(0 -0.00104774 0)
(0 -0.0014037 0)
(0 -0.00117091 0)
(0 -0.000806005 0)
(0 -0.000542004 0)
(0 -0.000452215 0)
(0 -0.000991242 0)
(0 -0.000805756 0)
(0 -0.000334425 0)
(0 -0.000224278 0)
(0 -0.000621901 0)
(0 -0.000128761 0)
(0 -1.71386e-06 0)
(0 0 0)
(0 0 0)
(0 0 0)
(0 0 0)
(0 0 0)
(0 0 0)
(0 0 0)
(0 0 0)
(0 0 0)
(0 0 0)
(0 0 0)
(0 0 0)
(0 0 0)
(0 0 0)
(0 0 0)
(0 0 0)
(0 0 0)
(0 0 0)
(0 0 0)
(0 0 0)
(0 0 0)
(0 0 0)
(0 0 0)
(0 0 0)
(0 0 0)
(0 0 0)
(0 0 0)
(0 0 0)
(0 0 0)
(0 0 0)
(0 0 0)
(0 -6.29432e-05 0)
(0 -2.27658e-05 0)
(0 0 0)
(0 -9.89779e-05 0)
(0 -0.000165355 0)
(0 -5.06233e-06 0)
(0 -2.21272e-05 0)
(0 -0.00023829 0)
(0 -0.000312195 0)
(0 -4.66582e-05 0)
(0 -7.42933e-05 0)
(0 -0.000382027 0)
(0 -0.000443407 0)
(0 -0.000101224 0)
(0 -0.00012429 0)
(0 -0.000492715 0)
(0 -0.000527165 0)
(0 -0.000141053 0)
(0 -0.000149854 0)
(0 -0.000544869 0)
(0 -0.000559035 0)
(0 -0.000157373 0)
(0 -0.000149854 0)
(0 -0.000544869 0)
(0 -0.000527165 0)
(0 -0.000141053 0)
(0 -0.00012429 0)
(0 -0.000492715 0)
(0 -0.000443407 0)
(0 -0.000101224 0)
(0 -7.42933e-05 0)
(0 -0.000382027 0)
(0 -0.000312195 0)
(0 -4.66582e-05 0)
(0 -2.21272e-05 0)
(0 -0.00023829 0)
(0 -0.000165355 0)
(0 -5.06233e-06 0)
(0 0 0)
(0 -9.89779e-05 0)
(0 -6.29432e-05 0)
(0 0 0)
(0 0 0)
(0 0 0)
(0 -2.27658e-05 0)
(0 0 0)
(0 0 0)
(0 0 0)
(0 0 0)
(0 0 0)
(0 0 0)
(0 0 0)
(0 0 0)
(0 0 0)
(0 0 0)
(0 0 0)
(0 0 0)
(0 0 0)
(0 0 0)
(0 0 0)
(0 0 0)
(0 0 0)
(0 0 0)
(0 0 0)
(0 0 0)
(0 0 0)
(0 0 0)
(0 0 0)
(0 0 0)
(0 0 0)
(0 0 0)
(0 0 0)
(0 0 0)
(0 0 0)
(0 0 0)
(0 0 0)
(0 0 0)
(0 0 0)
(0 0 0)
(0 0 0)
(0 0 0)
(0 0 0)
(0 0 0)
(0 0 0)
(0 0 0)
(0 -4.54948e-07 0)
(0 0 0)
(0 0 0)
(0 -1.75079e-06 0)
(0 -1.04169e-06 0)
(0 0 0)
(0 -4.54948e-07 0)
(0 -1.04169e-06 0)
(0 0 0)
(0 0 0)
(0 0 0)
(0 0 0)
(0 0 0)
(0 0 0)
(0 0 0)
(0 0 0)
(0 0 0)
(0 0 0)
(0 0 0)
(0 0 0)
(0 0 0)
(0 0 0)
(0 0 0)
(0 0 0)
(0 0 0)
(0 0 0)
(0 0 0)
(0 0 0)
(0 0 0)
(0 0 0)
(0 0 0)
(0 0 0)
(0 0 0)
(0 0 0)
(0 0 0)
(0 0 0)
(0 0 0)
(0 0 0)
(0 0 0)
(0 0 0)
(0 0 0)
(0 0 0)
(0 0 0)
(0 0 0)
(0 0 0)
(0 0 0)
(0 0 0)
(0 0 0)
(0 0 0)
(0 0 0)
(0 0 0)
(0 0 0)
(0 0 0)
(0 0 0)
(0 0 0)
(0 0 0)
(0 0 0)
(0 0 0)
(0 0 0)
(0 0 0)
(0 0 0)
(0 0 0)
(0 0 0)
(0 0 0)
(0 0 0)
(0 0 0)
(0 0 0)
(0 0 0)
(0 0 0)
(0 0 0)
(0 0 0)
(0 0 0)
(0 0 0)
(0 0 0)
(0 0 0)
(0 0 0)
(0 0 0)
(0 0 0)
(0 0 0)
(0 0 0)
(0 0 0)
(0 0 0)
(0 0 0)
(0 0 0)
(0 0 0)
(0 0 0)
(0 0 0)
(0 0 0)
(0 0 0)
(0 0 0)
(0 0 0)
(0 0 0)
(0 0 0)
(0 0 0)
(0 0 0)
(0 0 0)
(0 0 0)
(0 0 0)
(0 0 0)
(0 0 0)
(0 0 0)
(0 0 0)
(0 0 0)
(0 0 0)
(0 0 0)
(0 0 0)
(0 0 0)
(0 0 0)
(0 0 0)
(0 0 0)
(0 0 0)
(0 0 0)
(0 0 0)
(0 0 0)
(0 0 0)
(0 0 0)
(0 0 0)
(0 0 0)
(0 0 0)
(0 0 0)
(0 0 0)
(0 0 0)
(0 0 0)
(0 0 0)
(0 0 0)
(0 0 0)
(0 0 0)
(0 0 0)
(0 0 0)
(0 0 0)
(0 0 0)
(0 0 0)
(0 0 0)
(0 0 0)
(0 0 0)
(0 0 0)
(0 0 0)
(0 0 0)
(0 0 0)
(0 0 0)
(0 0 0)
(0 0 0)
(0 0 0)
(0 0 0)
(0 0 0)
(0 0 0)
(0 0 0)
(0 0 0)
(0 0 0)
(0 0 0)
(0 0 0)
(0 0 0)
(0 0 0)
(0 0 0)
(0 0 0)
(0 0 0)
(0 0 0)
(0 0 0)
(0 0 0)
(0 0 0)
(0 0 0)
(0 0 0)
(0 0 0)
(0 0 0)
(0 0 0)
(0 0 0)
(0 0 0)
(0 0 0)
(0 0 0)
(0 0 0)
(0 0 0)
(0 0 0)
(0 0 0)
(0 0 0)
(0 0 0)
(0 0 0)
(0 0 0)
(0 0 0)
(0 0 0)
(0 0 0)
(0 0 0)
(0 0 0)
(0 0 0)
(0 0 0)
(0 0 0)
(0 0 0)
(0 0 0)
(0 0 0)
(0 0 0)
(0 0 0)
(0 0 0)
(0 0 0)
(0 0 0)
(0 0 0)
(0 0 0)
(0 0 0)
(0 0 0)
(0 0 0)
(0 0 0)
(0 0 0)
(0 0 0)
(0 0 0)
(0 0 0)
(0 0 0)
(0 0 0)
(0 0 0)
(0 0 0)
(0 0 0)
(0 0 0)
(0 0 0)
(0 0 0)
(0 0 0)
(0 0 0)
(0 0 0)
(0 0 0)
(0 0 0)
(0 0 0)
(0 0 0)
(0 0 0)
(0 0 0)
(0 0 0)
(0 0 0)
(0 0 0)
(0 0 0)
(0 0 0)
(0 0 0)
(0 0 0)
(0 0 0)
(0 0 0)
(0 0 0)
(0 0 0)
(0 0 0)
(0 0 0)
(0 0 0)
(0 0 0)
(0 0 0)
(0 0 0)
(0 0 0)
(0 0 0)
(0 0 0)
(0 0 0)
(0 0 0)
(0 0 0)
(0 0 0)
(0 0 0)
(0 0 0)
(0 0 0)
(0 0 0)
(0 0 0)
(0 0 0)
(0 0 0)
(0 0 0)
(0 0 0)
(0 0 0)
(0 0 0)
(0 0 0)
(0 0 0)
(0 0 0)
(0 0 0)
(0 0 0)
(0 0 0)
(0 0 0)
(0 0 0)
(0 0 0)
(0 0 0)
(0 0 0)
(0 0 0)
(0 0 0)
(0 0 0)
(0 0 0)
(0 0 0)
(0 0 0)
(0 0 0)
(0 0 0)
(0 0 0)
(0 0 0)
(0 0 0)
(0 0 0)
(0 0 0)
(0 0 0)
(0 0 0)
(0 0 0)
(0 0 0)
(0 0 0)
(0 0 0)
(0 0 0)
(0 0 0)
(0 0 0)
(0 0 0)
(0 0 0)
(0 0 0)
(0 0 0)
(0 0 0)
(0 0 0)
(0 0 0)
(0 0 0)
(0 0 0)
(0 0 0)
(0 0 0)
(0 0 0)
(0 0 0)
(0 0 0)
(0 0 0)
(0 0 0)
(0 0 0)
(0 0 0)
(0 0 0)
(0 0 0)
(0 0 0)
(0 0 0)
(0 0 0)
(0 0 0)
(0 0 0)
(0 0 0)
(0 0 0)
(0 0 0)
(0 0 0)
(0 0 0)
(0 0 0)
(0 0 0)
(0 0 0)
(0 0 0)
(0 0 0)
(0 0 0)
(0 0 0)
(0 0 0)
(0 0 0)
(0 0 0)
(0 0 0)
(0 0 0)
(0 0 0)
(0 0 0)
(0 0 0)
(0 0 0)
(0 0 0)
(0 0 0)
(0 0 0)
(0 0 0)
(0 0 0)
(0 0 0)
(0 0 0)
(0 0 0)
(0 0 0)
(0 0 0)
(0 0 0)
(0 0 0)
(0 0 0)
(0 0 0)
(0 0 0)
(0 0 0)
(0 0 0)
(0 0 0)
(0 0 0)
(0 0 0)
(0 0 0)
(0 0 0)
(0 0 0)
(0 0 0)
(0 0 0)
(0 0 0)
(0 0 0)
(0 0 0)
(0 0 0)
(0 0 0)
(0 0 0)
(0 0 0)
(0 0 0)
(0 0 0)
(0 0 0)
(0 0 0)
(0 0 0)
(0 0 0)
(0 0 0)
(0 0 0)
(0 0 0)
(0 0 0)
(0 0 0)
(0 0 0)
(0 0 0)
(0 0 0)
(0 0 0)
(0 0 0)
(0 0 0)
(0 0 0)
(0 0 0)
(0 0 0)
(0 0 0)
(0 0 0)
(0 0 0)
(0 0 0)
(0 0 0)
(0 0 0)
(0 0 0)
(0 0 0)
(0 0 0)
(0 0 0)
(0 0 0)
(0 0 0)
(0 0 0)
(0 0 0)
(0 0 0)
(0 0 0)
(0 0 0)
(0 0 0)
(0 0 0)
(0 0 0)
(0 0 0)
(0 0 0)
(0 0 0)
(0 0 0)
(0 0 0)
(0 0 0)
(0 0 0)
(0 0 0)
(0 0 0)
(0 0 0)
(0 0 0)
(0 0 0)
(0 0 0)
(0 0 0)
(0 0 0)
(0 0 0)
(0 0 0)
(0 0 0)
(0 0 0)
(0 0 0)
(0 0 0)
(0 0 0)
(0 0 0)
(0 0 0)
(0 0 0)
(0 0 0)
(0 0 0)
(0 0 0)
(0 0 0)
(0 0 0)
(0 0 0)
(0 0 0)
(0 0 0)
(0 0 0)
(0 0 0)
(0 0 0)
(0 0 0)
(0 0 0)
(0 0 0)
(0 0 0)
(0 0 0)
(0 0 0)
(0 0 0)
(0 0 0)
(0 0 0)
(0 0 0)
(0 0 0)
(0 0 0)
(0 0 0)
(0 0 0)
(0 0 0)
(0 0 0)
(0 0 0)
(0 0 0)
(0 0 0)
(0 0 0)
(0 0 0)
(0 0 0)
(0 0 0)
(0 0 0)
(0 0 0)
(0 0 0)
(0 0 0)
(0 0 0)
(0 0 0)
(0 0 0)
(0 0 0)
(0 0 0)
(0 0 0)
(0 0 0)
(0 0 0)
(0 0 0)
(0 0 0)
(0 0 0)
(0 0 0)
(0 0 0)
(0 0 0)
(0 0 0)
(0 0 0)
(0 0 0)
(0 0 0)
(0 0 0)
(0 0 0)
(0 0 0)
(0 0 0)
(0 0 0)
(0 0 0)
(0 0 0)
(0 0 0)
(0 0 0)
(0 0 0)
(0 0 0)
(0 0 0)
(0 0 0)
(0 0 0)
(0 0 0)
(0 0 0)
(0 0 0)
(0 0 0)
(0 0 0)
(0 0 0)
(0 0 0)
(0 0 0)
(0 0 0)
(0 0 0)
(0 0 0)
(0 0 0)
(0 0 0)
(0 0 0)
(0 0 0)
(0 0 0)
(0 0 0)
(0 0 0)
(0 0 0)
(0 0 0)
(0 0 0)
(0 0 0)
(0 0 0)
(0 0 0)
(0 0 0)
(0 0 0)
(0 0 0)
(0 0 0)
(0 0 0)
(0 0 0)
(0 0 0)
(0 0 0)
(0 0 0)
(0 0 0)
(0 0 0)
(0 0 0)
(0 0 0)
(0 0 0)
(0 0 0)
(0 0 0)
(0 0 0)
(0 0 0)
(0 0 0)
(0 0 0)
(0 0 0)
(0 0 0)
(0 0 0)
(0 0 0)
(0 0 0)
(0 0 0)
(0 0 0)
(0 0 0)
(0 0 0)
(0 0 0)
(0 0 0)
(0 0 0)
(0 0 0)
(0 0 0)
(0 0 0)
(0 0 0)
(0 0 0)
(0 0 0)
(0 0 0)
(0 0 0)
(0 0 0)
(0 0 0)
(0 0 0)
(0 0 0)
(0 0 0)
(0 0 0)
(0 0 0)
(0 0 0)
(0 0 0)
(0 0 0)
(0 0 0)
(0 0 0)
(0 0 0)
(0 0 0)
(0 0 0)
(0 0 0)
(0 0 0)
(0 0 0)
(0 0 0)
(0 0 0)
(0 0 0)
(0 0 0)
(0 0 0)
(0 0 0)
(0 0 0)
(0 0 0)
(0 0 0)
(0 0 0)
(0 0 0)
(0 0 0)
(0 0 0)
(0 0 0)
(0 0 0)
(0 0 0)
(0 0 0)
(0 0 0)
(0 0 0)
(0 0 0)
(0 0 0)
(0 0 0)
(0 0 0)
(0 0 0)
(0 0 0)
(0 0 0)
(0 0 0)
(0 0 0)
(0 0 0)
(0 0 0)
(0 0 0)
(0 0 0)
(0 0 0)
(0 0 0)
(0 0 0)
(0 0 0)
(0 0 0)
(0 0 0)
(0 0 0)
(0 0 0)
(0 0 0)
(0 0 0)
(0 0 0)
(0 0 0)
(0 0 0)
(0 0 0)
(0 0 0)
(0 0 0)
(0 0 0)
(0 0 0)
(0 0 0)
(0 0 0)
(0 0 0)
(0 0 0)
(0 0 0)
(0 0 0)
(0 0 0)
(0 0 0)
(0 0 0)
(0 0 0)
(0 0 0)
(0 0 0)
(0 0 0)
(0 0 0)
(0 0 0)
(0 0 0)
(0 0 0)
(0 0 0)
(0 0 0)
(0 0 0)
(0 0 0)
(0 0 0)
(0 0 0)
(0 0 0)
(0 0 0)
(0 0 0)
(0 0 0)
(0 0 0)
(0 0 0)
(0 0 0)
(0 0 0)
(0 0 0)
(0 0 0)
(0 0 0)
(0 0 0)
(0 0 0)
(0 0 0)
(0 0 0)
(0 0 0)
(0 0 0)
(0 0 0)
(0 0 0)
(0 0 0)
(0 0 0)
(0 0 0)
(0 0 0)
(0 0 0)
(0 0 0)
(0 0 0)
(0 0 0)
(0 0 0)
(0 0 0)
(0 0 0)
(0 0 0)
(0 0 0)
(0 0 0)
(0 0 0)
(0 0 0)
(0 0 0)
(0 0 0)
(0 0 0)
(0 0 0)
(0 0 0)
(0 0 0)
(0 0 0)
(0 0 0)
(0 0 0)
(0 0 0)
(0 0 0)
(0 0 0)
(0 0 0)
(0 0 0)
(0 0 0)
(0 0 0)
(0 0 0)
(0 0 0)
(0 0 0)
(0 0 0)
(0 0 0)
(0 0 0)
(0 0 0)
(0 0 0)
(0 0 0)
(0 0 0)
(0 0 0)
(0 0 0)
(0 0 0)
(0 0 0)
(0 0 0)
(0 0 0)
(0 0 0)
(0 0 0)
(0 0 0)
(0 0 0)
(0 0 0)
(0 0 0)
(0 0 0)
(0 0 0)
(0 0 0)
(0 0 0)
(0 0 0)
(0 0 0)
(0 0 0)
(0 0 0)
(0 0 0)
(0 0 0)
(0 0 0)
(0 0 0)
(0 0 0)
(0 0 0)
(0 0 0)
(0 0 0)
(0 0 0)
(0 0 0)
(0 0 0)
(0 0 0)
(0 0 0)
(0 0 0)
(0 0 0)
(0 0 0)
(0 0 0)
(0 0 0)
(0 0 0)
(0 0 0)
(0 0 0)
(0 0 0)
(0 0 0)
(0 0 0)