/*--------------------------------*- C++ -*----------------------------------*\
| =========                 |                                                 |
| \\      /  F ield         | OpenFOAM: The Open Source CFD Toolbox           |
|  \\    /   O peration     | Version:  v2106                                 |
|   \\  /    A nd           | Website:  www.openfoam.com                      |
|    \\/     M anipulation  |                                                 |
\*---------------------------------------------------------------------------*/
FoamFile
{
    version     2.0;
    format      ascii;
    arch        "LSB;label=32;scalar=64";
    class       volScalarField;
    location    "0";
    object      p;
}
// * * * * * * * * * * * * * * * * * * * * * * * * * * * * * * * * * * * * * //

dimensions      [0 2 -2 0 0 0 0];

internalField   nonuniform List<scalar> 
11644
(
0.0352548
0.0356775
0.036576
0.0379725
0.0398666
0.0422723
0.0452099
0.0486983
0.052749
0.0573606
0.0625162
0.0681606
0.074207
0.0805378
0.0869608
0.0932956
0.0992739
0.104606
0.109054
0.1124
0.114465
0.115221
0.114793
0.113343
0.110884
0.107601
0.103845
0.0998164
0.0956909
0.0916544
0.0878185
0.0842671
0.0810623
0.0782376
0.0758132
0.0737965
0.0721879
0.0709924
0.0702164
0.0698491
0.0345522
0.0349699
0.0358311
0.0371628
0.0389887
0.0413311
0.0442122
0.0476572
0.0516879
0.0563171
0.0615363
0.0673152
0.0735921
0.0802086
0.0870365
0.0938146
0.100239
0.106001
0.110813
0.114393
0.116532
0.117184
0.116483
0.114679
0.111903
0.108341
0.104237
0.0998894
0.0955174
0.0912752
0.0872898
0.0836437
0.0803818
0.0775321
0.0751057
0.0731033
0.0715242
0.0703621
0.0696069
0.069241
0.0328943
0.0333238
0.034169
0.0354426
0.0371811
0.0394218
0.0422033
0.0455656
0.0495525
0.0542011
0.0595431
0.0655909
0.0723004
0.0795925
0.0872472
0.0949999
0.1025
0.109331
0.114978
0.119046
0.121362
0.121876
0.120625
0.117945
0.114214
0.109784
0.104944
0.0999434
0.0950411
0.0904114
0.0861524
0.0823297
0.0789707
0.0760775
0.073645
0.0716585
0.0701025
0.0689551
0.0681924
0.0678051
0.0303711
0.0307794
0.0315813
0.0327819
0.0344126
0.0365185
0.0391541
0.0423823
0.0462752
0.0509182
0.0563984
0.0627862
0.0701359
0.0783474
0.0873472
0.0967306
0.105993
0.114689
0.121841
0.126889
0.129487
0.12952
0.127216
0.123081
0.117817
0.111891
0.105753
0.0997529
0.0940782
0.0888882
0.0842679
0.0802249
0.0767509
0.0738186
0.0713883
0.0694243
0.0678899
0.0667533
0.0659919
0.0656025
0.0270808
0.0274396
0.0281496
0.0292227
0.0306905
0.0325986
0.035011
0.0380128
0.041711
0.0462397
0.0517553
0.0584674
0.0665536
0.0761805
0.087176
0.0990549
0.110978
0.122622
0.13218
0.138739
0.141689
0.140732
0.136581
0.129983
0.122246
0.114078
0.106158
0.0987881
0.0921939
0.0863823
0.0813665
0.0771299
0.0735875
0.0706572
0.0682684
0.0663588
0.0648777
0.0637866
0.0630623
0.0626992
0.0231345
0.0234111
0.0239766
0.0248479
0.0260591
0.0276591
0.0297191
0.0323368
0.0356433
0.0398432
0.0452401
0.0521899
0.0610911
0.072026
0.0854864
0.101091
0.117127
0.133269
0.14702
0.156475
0.159935
0.156949
0.149176
0.138257
0.126695
0.115244
0.104798
0.0959757
0.0885132
0.0822913
0.0770807
0.0727809
0.0692869
0.0664682
0.064213
0.0624365
0.0610765
0.0600899
0.0594426
0.0591188
0.0186288
0.0188153
0.0191901
0.0197785
0.0206151
0.0217542
0.0232693
0.025263
0.0278968
0.0314895
0.0364422
0.0431871
0.0520924
0.0644532
0.0807301
0.100586
0.117346
0.138675
0.15888
0.174174
0.180668
0.177335
0.166155
0.150635
0.129894
0.113839
0.100381
0.0899466
0.0820248
0.0758307
0.0708879
0.0668872
0.0636727
0.0611489
0.0591802
0.0576619
0.0565199
0.0556999
0.0551729
0.054911
0.0137311
0.0137952
0.0139321
0.0141595
0.0145065
0.0150165
0.0157569
0.016829
0.0184403
0.0209531
0.0247075
0.0302099
0.0384519
0.050312
0.0667333
0.087911
0.117339
0.151604
0.185869
0.212367
0.222237
0.213022
0.190122
0.162322
0.135815
0.112871
0.0967035
0.0794128
0.0717193
0.0662874
0.0622476
0.0591106
0.0565992
0.054648
0.0531766
0.0520725
0.0512641
0.0507002
0.0503385
0.0501659
0.00864168
0.00856279
0.00842182
0.00821545
0.0079661
0.00769227
0.00744146
0.00727856
0.00741159
0.00812314
0.00967822
0.0124378
0.0170624
0.0308837
0.0451691
0.0692764
0.102414
0.150566
0.208519
0.260279
0.282682
0.264661
0.220524
0.172571
0.131751
0.0989882
0.0811055
0.0622789
0.0569062
0.0534172
0.051032
0.0493435
0.048042
0.047034
0.0463141
0.045804
0.0454441
0.0452019
0.0450493
0.0449708
0.00357839
0.00337534
0.00292988
0.00225767
0.00134086
0.000168793
-0.00126326
-0.00295061
-0.00478709
-0.00670844
-0.00859418
-0.0102703
-0.0117745
-0.00200968
0.0050605
0.0263042
0.0608598
0.121097
0.218822
0.337379
0.397749
0.347237
0.243668
0.15871
0.099707
0.0630648
0.0510878
0.0380184
0.0374457
0.0373666
0.0375904
0.0379453
0.0382926
0.0385614
0.038815
0.0390508
0.0392471
0.0393909
0.0394933
0.0395437
-0.00107229
-0.00146059
-0.00221725
-0.00337098
-0.00496845
-0.00706368
-0.00976694
-0.013157
-0.0172917
-0.022416
-0.028741
-0.0365145
-0.0458997
-0.0467982
-0.0547941
-0.0550063
-0.0461691
-0.0188857
0.0920935
0.362165
0.593005
0.394925
0.156125
0.0500458
0.0131145
0.00228169
0.00792541
0.00819184
0.0143004
0.0191239
0.0228277
0.0257208
0.0279853
0.0297069
0.0310656
0.0321372
0.0329492
0.0335312
0.0338994
0.0340743
-0.00510708
-0.00561541
-0.0066302
-0.00822626
-0.0104528
-0.0134119
-0.017305
-0.022337
-0.0287395
-0.0370435
-0.0478821
-0.0623064
-0.0813547
-0.0905975
-0.123996
-0.153963
-0.211393
-0.331752
-0.64123
-0.416556
-0.200662
-0.114483
-0.0708625
-0.0403136
-0.023322
-0.00923505
0.000896257
0.00831831
0.0138402
0.0180005
0.02115
0.0235948
0.0254796
0.0268676
0.0278568
0.0284938
0.0288298
-0.00827745
-0.00884019
-0.0100606
-0.0119643
-0.0146671
-0.0182851
-0.0230438
-0.0292953
-0.0374274
-0.0481314
-0.0622998
-0.0814739
-0.107062
-0.128321
-0.176536
-0.231386
-0.328672
-0.517792
-0.741692
-0.51439
-0.360696
-0.208515
-0.125723
-0.0788616
-0.0464514
-0.0274788
-0.0138128
-0.0037507
0.00371698
0.00935326
0.0136528
0.016972
0.0195112
0.0213739
0.0226978
0.0235656
0.0239575
-0.0102036
-0.0108561
-0.0121915
-0.0142581
-0.0171795
-0.0211156
-0.0262373
-0.0329783
-0.0418715
-0.0535966
-0.069092
-0.0898362
-0.117088
-0.144636
-0.196001
-0.256494
-0.347309
-0.471547
-0.521409
-0.440337
-0.357581
-0.221947
-0.136519
-0.0918105
-0.0555608
-0.0365367
-0.0223822
-0.0116428
-0.00343612
0.00292462
0.0078841
0.0117273
0.0146421
0.0167839
0.0183058
0.0192912
0.0197665
-0.0108323
-0.011486
-0.0127912
-0.0148341
-0.0176961
-0.0215366
-0.0264812
-0.0329145
-0.041415
-0.0526249
-0.0671387
-0.0862092
-0.111088
-0.139843
-0.187055
-0.246968
-0.333787
-0.454371
-0.518566
-0.576962
-0.57505
-0.453461
-0.379864
-0.262461
-0.163911
-0.107638
-0.0796036
-0.0508748
-0.0362392
-0.024354
-0.0147991
-0.00707216
-0.000838473
0.00421028
0.00819292
0.0111992
0.0134187
0.0149817
0.0159933
0.0165838
-0.010376
-0.010876
-0.0120301
-0.0138121
-0.0162913
-0.0195865
-0.0237967
-0.0292278
-0.0362552
-0.0452969
-0.0568715
-0.0718736
-0.0912462
-0.117779
-0.156325
-0.212739
-0.296424
-0.446892
-0.676743
-0.815721
-0.79154
-0.475721
-0.155058
-0.0462891
-0.0655365
-0.0614659
-0.0545618
-0.03812
-0.0295812
-0.0212182
-0.0137922
-0.00738947
-0.00194535
0.00269842
0.00642532
0.00926165
0.0114245
0.0129791
0.0139639
0.0142698
-0.00860517
-0.00907522
-0.00996986
-0.0113291
-0.0131923
-0.0156158
-0.0186601
-0.0224031
-0.0271053
-0.0329914
-0.040394
-0.049881
-0.0623844
-0.0771534
-0.108646
-0.144593
-0.209821
-0.310497
-0.492279
-0.672442
-0.651194
-0.36812
-0.0491891
0.0394348
-0.0152364
-0.0313066
-0.0310061
-0.0266769
-0.0217119
-0.0158577
-0.0103509
-0.00532326
-0.000831357
0.00308792
0.00623041
0.00870696
0.0106141
0.0119583
0.0127748
0.0131106
-0.00579222
-0.00615463
-0.00671361
-0.00756372
-0.00868478
-0.0101038
-0.011826
-0.0136604
-0.0157188
-0.0181789
-0.0210748
-0.0246152
-0.0293592
-0.0341132
-0.0546301
-0.0682563
-0.10493
-0.148457
-0.224032
-0.311754
-0.332991
-0.235986
-0.0942449
-0.0486862
-0.049934
-0.0381744
-0.0274864
-0.0215259
-0.0159596
-0.0107405
-0.00614769
-0.00197208
0.00165811
0.00471906
0.0071863
0.00917947
0.0107004
0.0117735
0.0124822
0.0128813
-0.00241409
-0.00254329
-0.00277567
-0.00312536
-0.00353693
-0.00397928
-0.00441968
-0.00464738
-0.00454128
-0.00401124
-0.00289308
-0.00119552
0.00139542
0.00373388
-0.00331133
-0.00432092
-0.0232966
-0.0519355
-0.112879
-0.210009
-0.294931
-0.304746
-0.255452
-0.18949
-0.10304
-0.0580057
-0.0306131
-0.0197582
-0.0118866
-0.00612144
-0.00175865
0.00181783
0.0046967
0.0070432
0.00893341
0.0104701
0.0116571
0.0125373
0.0131463
0.0134793
0.00122317
0.00124415
0.00125328
0.00131508
0.00148411
0.00185929
0.0025013
0.00351029
0.00518057
0.0078077
0.0117969
0.0169877
0.0255775
0.0320303
0.0326729
0.0391319
0.0282061
-0.00999562
-0.107295
-0.259825
-0.384842
-0.416155
-0.355816
-0.236858
-0.111259
-0.0598448
-0.0277532
-0.0145908
-0.00634186
-0.000800126
0.0030464
0.00594555
0.00819125
0.00998576
0.0113865
0.0125019
0.0133666
0.0140086
0.014439
0.0146587
0.00468217
0.00479396
0.00500308
0.0053676
0.00595655
0.00688044
0.00825294
0.0101795
0.0128868
0.016697
0.0220609
0.0292165
0.0397172
0.0491977
0.052471
0.0616008
0.0494293
-0.000857119
-0.107241
-0.248222
-0.341463
-0.339788
-0.261555
-0.159368
-0.0742592
-0.0417788
-0.0140183
-0.0038678
0.002356
0.00623722
0.00895795
0.0109095
0.0123977
0.0135307
0.0143719
0.0150218
0.0155144
0.0158688
0.0161021
0.0162305
0.00775473
0.00794094
0.00829884
0.00885954
0.0096821
0.0108525
0.0124886
0.0147403
0.0177537
0.021728
0.0268803
0.0332362
0.0417059
0.0516595
0.0501868
0.0473174
0.0288812
-0.0183427
-0.0852069
-0.142854
-0.165999
-0.147355
-0.106377
-0.0680245
-0.0394251
-0.00827476
0.00208925
0.00867786
0.0125128
0.0145717
0.0157689
0.016473
0.0169335
0.0172565
0.0174926
0.0176776
0.0178096
0.017895
0.0179405
0.0179701
0.0105247
0.0107289
0.0111363
0.0117551
0.0126191
0.0137722
0.0152852
0.017241
0.0197467
0.0228966
0.0267304
0.0308867
0.035293
0.0414018
0.0332206
0.00561115
-0.035319
-0.083837
-0.114918
-0.121671
-0.112193
-0.0859648
-0.0537398
-0.0275841
-0.00691573
0.00689465
0.0153146
0.019824
0.0218111
0.0223546
0.0221502
0.0216553
0.0211034
0.0206513
0.0203247
0.0201032
0.0199492
0.0198455
0.019761
0.0196825
0.0130511
0.0132467
0.0136116
0.0141662
0.0149193
0.015884
0.0170802
0.0184874
0.0201076
0.0217738
0.0232772
0.0240537
0.0218606
0.0163927
-0.0037591
-0.0449897
-0.0903743
-0.139331
-0.173206
-0.175029
-0.147166
-0.102965
-0.0570004
-0.0224814
0.00286102
0.0178168
0.0253017
0.0286564
0.0292042
0.0284382
0.0271753
0.0257858
0.0245017
0.0234597
0.0226761
0.0221034
0.0216985
0.0214345
0.0212724
0.0211677
0.0152759
0.0154239
0.0157307
0.0161943
0.0168078
0.0175516
0.0184008
0.0192889
0.0200811
0.0203731
0.0196161
0.0170693
0.00952579
-0.00520762
-0.0343815
-0.0788268
-0.136866
-0.201873
-0.251091
-0.254584
-0.208762
-0.147805
-0.083995
-0.0325617
0.00307298
0.0237979
0.0329328
0.0353459
0.0345977
0.0327571
0.0306519
0.0286444
0.0269535
0.0255753
0.0244991
0.0236714
0.0230686
0.0226525
0.0224086
0.0223665
0.0172005
0.0172996
0.017562
0.0179551
0.0184637
0.01905
0.0196499
0.0201935
0.0204266
0.019997
0.018046
0.0140814
0.00522598
-0.010787
-0.0420476
-0.0868275
-0.143675
-0.202448
-0.251958
-0.258517
-0.211634
-0.152441
-0.0888817
-0.03779
-0.00115241
0.0224299
0.0350432
0.0390398
0.0377957
0.0351983
0.0326186
0.030321
0.0284463
0.0269511
0.0257642
0.0248562
0.0241839
0.0237338
0.0234631
0.0234093
0.0188385
0.0189592
0.0192148
0.0195833
0.0200457
0.0205591
0.0210496
0.0214292
0.0215503
0.0210704
0.0195396
0.0160767
0.00925917
-0.00350628
-0.0266607
-0.0614919
-0.100832
-0.142705
-0.177287
-0.186897
-0.162492
-0.125361
-0.0792244
-0.0372532
-0.005426
0.0172721
0.0312063
0.0375482
0.0376866
0.0354719
0.0330154
0.0308579
0.0290726
0.0276231
0.0264737
0.0256064
0.0249807
0.024567
0.024319
0.0241766
0.0201613
0.0203457
0.0206266
0.0210069
0.021465
0.0219756
0.022486
0.0229294
0.0232046
0.0231791
0.0225552
0.0206751
0.0169118
0.00986924
-0.00433605
-0.0276808
-0.0558909
-0.0857151
-0.108512
-0.120745
-0.121182
-0.105444
-0.0772819
-0.0436971
-0.0141881
0.00898681
0.0240462
0.0314174
0.033576
0.0328472
0.0314592
0.0299999
0.0286466
0.0274642
0.0265143
0.0257779
0.0252232
0.024826
0.0245668
0.0244274
0.0212107
0.0214139
0.0216801
0.0220479
0.0225188
0.0230822
0.02372
0.0243914
0.0250168
0.0254677
0.025512
0.0247473
0.0224301
0.0180902
0.00989356
-0.00547603
-0.0293375
-0.055998
-0.0808525
-0.0989109
-0.106519
-0.101656
-0.081707
-0.0552372
-0.028426
-0.0061695
0.0103426
0.0208471
0.0260862
0.0277048
0.0281073
0.0277573
0.0271566
0.0264987
0.0259073
0.0253889
0.0249661
0.0246454
0.0244368
0.0243475
0.0219936
0.0220941
0.022352
0.0227342
0.0232498
0.0238943
0.0246727
0.0255732
0.0265511
0.0274486
0.0279477
0.0275689
0.025564
0.0208498
0.0127146
-0.000428417
-0.0228186
-0.0504571
-0.0819091
-0.107125
-0.117236
-0.115821
-0.101409
-0.0795878
-0.0531776
-0.0285937
-0.0073026
0.00864197
0.017727
0.0221652
0.0242379
0.0250154
0.0252743
0.0252306
0.0250635
0.0248303
0.0246015
0.0244091
0.0242722
0.0241898
0.0225591
0.0225737
0.0228026
0.0231903
0.0237416
0.0244382
0.0252891
0.0263246
0.0274976
0.0287138
0.0296701
0.0300304
0.0283782
0.0231241
0.012216
-0.0050096
-0.0302461
-0.061434
-0.10002
-0.132876
-0.153521
-0.153498
-0.137341
-0.112862
-0.0790458
-0.0460201
-0.0187783
-0.000271985
0.0114014
0.0178189
0.0210606
0.0227599
0.0237016
0.024133
0.024288
0.0242884
0.0242182
0.0241215
0.0240293
0.0239352
0.0229387
0.0229936
0.0231833
0.0235209
0.0240224
0.0246846
0.0255
0.0265224
0.0276693
0.028983
0.0301774
0.0308668
0.0290112
0.0229152
0.0108842
-0.00857419
-0.0352403
-0.0676989
-0.10971
-0.144767
-0.175584
-0.172415
-0.149735
-0.121385
-0.0832918
-0.0496124
-0.0225298
-0.00361639
0.00841426
0.0153692
0.0193104
0.0214748
0.0227096
0.0233002
0.0236044
0.0237194
0.0237449
0.0237204
0.0236825
0.0236155
0.0229719
0.0231028
0.0232911
0.0235809
0.0240022
0.0245716
0.0252863
0.0261741
0.0271913
0.0283633
0.0292845
0.0291996
0.0263082
0.0194276
0.0075776
-0.0104175
-0.0350249
-0.0649373
-0.0989767
-0.127382
-0.148139
-0.143047
-0.121439
-0.0953356
-0.064376
-0.0382222
-0.016472
-0.000809436
0.00940315
0.0154906
0.0190622
0.0211067
0.0222591
0.0228554
0.0231836
0.0233235
0.0233706
0.0233641
0.0233469
0.0233254
0.0226066
0.022717
0.0229011
0.0231676
0.0235228
0.0239772
0.0245332
0.0251987
0.0259002
0.0265916
0.0268215
0.0254551
0.0214357
0.0132064
0.000519175
-0.016313
-0.0374432
-0.0617119
-0.084486
-0.0984815
-0.103614
-0.0973107
-0.0819511
-0.0611811
-0.0397318
-0.0211462
-0.00500769
0.0063883
0.0135214
0.0177166
0.0201636
0.0215672
0.022379
0.0228373
0.0230903
0.0231866
0.0232014
0.0231734
0.023141
0.0231282
0.0220501
0.0220947
0.0222053
0.0223903
0.0226327
0.0229226
0.0232244
0.0235112
0.0236267
0.0233632
0.0223929
0.0196261
0.0141009
0.00475967
-0.00877274
-0.0250653
-0.0432964
-0.062137
-0.0768773
-0.0818668
-0.0787352
-0.0696725
-0.0560017
-0.0383097
-0.0209896
-0.00570493
0.00656591
0.0141094
0.0181994
0.0204206
0.0217054
0.0223952
0.0227973
0.0230021
0.0230901
0.0230989
0.0230802
0.0230475
0.0230133
0.0229613
0.0214612
0.0214574
0.0215062
0.021589
0.0216771
0.0217387
0.0216927
0.0214775
0.0208909
0.019553
0.0169808
0.0119358
0.00363498
-0.00746073
-0.0215532
-0.0374752
-0.0539222
-0.0689189
-0.0800272
-0.0816783
-0.0772316
-0.0641135
-0.0455759
-0.026483
-0.00876519
0.00461249
0.013562
0.018593
0.0213166
0.0226622
0.0232123
0.0233227
0.0232683
0.0231441
0.0230199
0.0229021
0.022808
0.0227385
0.0226849
0.022659
0.0208561
0.0208735
0.0208947
0.0208996
0.0208446
0.0206949
0.0203395
0.0196754
0.0184883
0.0163243
0.0124539
0.00564164
-0.00531217
-0.0202085
-0.0384924
-0.0573413
-0.0747525
-0.0885368
-0.0982494
-0.0993581
-0.0898623
-0.0706162
-0.0464876
-0.0249877
-0.00627768
0.006957
0.0160461
0.0211378
0.0236801
0.0244865
0.024371
0.0239843
0.0235226
0.023111
0.0228035
0.0225582
0.0223773
0.0222662
0.0222124
0.0222506
0.0202396
0.0202991
0.0202973
0.0202425
0.0200859
0.0198274
0.019305
0.0184144
0.0169124
0.0143743
0.00988229
0.00235527
-0.0095187
-0.0260985
-0.0476525
-0.0701899
-0.0922496
-0.107762
-0.120277
-0.120746
-0.103112
-0.0786928
-0.0505239
-0.0275356
-0.00834082
0.00598991
0.0161652
0.0219075
0.0245593
0.025178
0.0245416
0.0239711
0.0233491
0.0228505
0.0224609
0.0221724
0.0219674
0.0218488
0.0218025
0.021838
0.0196387
0.0196863
0.0196605
0.0195884
0.0194215
0.0191375
0.0186175
0.0177453
0.0162388
0.0137498
0.00955093
0.002675
-0.00799608
-0.0225937
-0.0413763
-0.062813
-0.0848148
-0.101484
-0.116793
-0.119889
-0.0993575
-0.0772668
-0.0502756
-0.0284099
-0.00960123
0.00440575
0.0143157
0.0200889
0.0231024
0.0240306
0.0237089
0.0232351
0.0226851
0.0222594
0.021918
0.0216691
0.0214996
0.0213987
0.0213436
0.0213037
0.0191214
0.0191181
0.019109
0.0190725
0.0189601
0.0187427
0.0183453
0.0176749
0.0165269
0.0146144
0.0113425
0.00597176
-0.00209359
-0.0129207
-0.02647
-0.0428043
-0.0605951
-0.0757844
-0.0879064
-0.0913988
-0.0824364
-0.0684599
-0.0488408
-0.0298232
-0.0132032
-7.96373e-05
0.00948956
0.0159391
0.0197345
0.0215197
0.0219498
0.0217924
0.0214943
0.0212296
0.0210083
0.020843
0.0207235
0.0206363
0.0205676
0.0204989
0.0187738
0.0187672
0.0187721
0.0187618
0.0187082
0.0185917
0.0183641
0.0179581
0.017292
0.0162012
0.0142517
0.0109464
0.00533979
-0.00281787
-0.0131123
-0.0251247
-0.0382479
-0.0508957
-0.0603105
-0.0657125
-0.0663929
-0.0604447
-0.0480161
-0.0333385
-0.0195589
-0.00760975
0.00238058
0.0100576
0.0150748
0.0178344
0.0191456
0.019605
0.0197577
0.0197678
0.0197209
0.019664
0.019615
0.0195768
0.0195533
0.0195468
0.0184574
0.01849
0.018503
0.0185093
0.0185077
0.0184989
0.0184556
0.0183494
0.0181309
0.0177079
0.0168522
0.0152182
0.0119459
0.00630362
-0.00237739
-0.013162
-0.0257496
-0.0383592
-0.0498067
-0.0571985
-0.0598413
-0.0587633
-0.0502777
-0.0391026
-0.0271539
-0.0159446
-0.00568527
0.00259299
0.00879566
0.0130386
0.0155766
0.016962
0.0177325
0.0181147
0.0183164
0.0184194
0.0184757
0.0185138
0.0185539
0.018603
0.0180164
0.0180038
0.0180338
0.0180876
0.0181709
0.0182938
0.0184451
0.0186398
0.0188255
0.0189462
0.0188361
0.0179908
0.0158996
0.0119467
0.00437219
-0.00625751
-0.0198729
-0.0346483
-0.0496412
-0.0608175
-0.0658727
-0.0664812
-0.0601736
-0.0508364
-0.0396396
-0.0279691
-0.016343
-0.00619644
0.00213169
0.00830653
0.0122141
0.0145007
0.0158307
0.0166056
0.0170844
0.017363
0.0175233
0.0176111
0.0176661
0.0177194
0.0175145
0.0174543
0.0174773
0.0175556
0.017698
0.0179077
0.0182005
0.0185946
0.0190609
0.0195666
0.0200055
0.0194534
0.0174158
0.0135979
0.00631668
-0.00405706
-0.0180042
-0.0341598
-0.0525556
-0.0686164
-0.0810832
-0.082941
-0.0763751
-0.0671258
-0.0544478
-0.0403386
-0.0255466
-0.0123483
-0.00198027
0.00529598
0.00992479
0.0127171
0.0143651
0.0154126
0.0160859
0.0164959
0.0167399
0.0168605
0.0169172
0.0169042
0.0169937
0.0169716
0.0169935
0.0170656
0.0172034
0.0174087
0.0177085
0.0180971
0.0186298
0.0191728
0.0195222
0.0189506
0.0168027
0.0127561
0.00562838
-0.00445818
-0.017789
-0.0337142
-0.0536425
-0.0710148
-0.0892597
-0.0900962
-0.0816256
-0.0717704
-0.0571946
-0.0418758
-0.0260727
-0.0128687
-0.00275106
0.00430717
0.00894885
0.0117147
0.013494
0.0146046
0.0153078
0.0157284
0.0159993
0.0161394
0.0162027
0.0161587
0.0163206
0.0163652
0.0164028
0.0164559
0.0165453
0.0166827
0.0168832
0.0171344
0.0174685
0.0176603
0.0174679
0.0164074
0.0139165
0.00956262
0.00252717
-0.00714016
-0.019657
-0.0341577
-0.0507901
-0.0644051
-0.0756546
-0.0758715
-0.0685364
-0.0585312
-0.0445575
-0.0311373
-0.0184339
-0.00818335
-0.00020549
0.00555225
0.00943206
0.0118059
0.0133018
0.014205
0.0147703
0.0151121
0.0153231
0.0154343
0.0154871
0.0154772
0.0154496
0.0154783
0.0155018
0.0155197
0.0155417
0.0155728
0.0156104
0.0156315
0.015599
0.0152922
0.0141946
0.0122059
0.00871863
0.00345701
-0.00375016
-0.0127999
-0.0235671
-0.035204
-0.0461111
-0.0534786
-0.0563804
-0.0538822
-0.04741
-0.038485
-0.0278096
-0.0179089
-0.00892073
-0.0016972
0.00423058
0.00837487
0.0110092
0.0126153
0.0135901
0.0141617
0.0145169
0.0147282
0.0148487
0.0149036
0.0149251
0.0149569
0.014525
0.0144884
0.014444
0.0143925
0.014327
0.0142278
0.014057
0.0137527
0.0131842
0.012177
0.0102714
0.00720794
0.00259882
-0.00346447
-0.0109477
-0.019396
-0.0285376
-0.0373987
-0.0439246
-0.046255
-0.0454703
-0.0407562
-0.033589
-0.0249845
-0.0160041
-0.00779124
-0.000778172
0.00476794
0.00900375
0.0114537
0.0128003
0.0135614
0.0139933
0.0142625
0.0144223
0.0145163
0.0145708
0.0145997
0.0146106
0.0146057
0.0136548
0.0135792
0.0134987
0.0133956
0.0132431
0.0130005
0.0126013
0.0119281
0.0107735
0.00884794
0.00576321
0.00137129
-0.00436704
-0.0114229
-0.0195646
-0.0281159
-0.0364534
-0.0434493
-0.0475338
-0.0468542
-0.0441599
-0.0376724
-0.0284315
-0.0181655
-0.00834282
-0.000155299
0.00617215
0.0102877
0.0126994
0.0137471
0.0141983
0.0143427
0.0143738
0.0143488
0.014315
0.0142832
0.0142651
0.0142512
0.0142381
0.0142167
0.0128751
0.0128315
0.0127583
0.0126309
0.0124063
0.0120322
0.0114341
0.0104742
0.00888432
0.00627553
0.00210629
-0.00383056
-0.0115808
-0.0207839
-0.0306317
-0.0403193
-0.0490227
-0.0554061
-0.0585464
-0.0556824
-0.048283
-0.0382785
-0.0259235
-0.0138373
-0.00330326
0.0046927
0.0102364
0.0132448
0.0148627
0.0153247
0.0151172
0.014821
0.0144961
0.0142111
0.0140015
0.0138519
0.0137534
0.013698
0.0136777
0.0137071
0.0121781
0.0122089
0.0121491
0.0120055
0.0117339
0.0112879
0.0105852
0.00948886
0.00772658
0.0048903
0.000333137
-0.00625235
-0.0151953
-0.0261868
-0.0378537
-0.048895
-0.0588348
-0.0652955
-0.0684469
-0.0646399
-0.0522343
-0.0385013
-0.0239962
-0.0112903
-0.00122098
0.00617382
0.0111017
0.013746
0.0152829
0.0156239
0.0151932
0.0147018
0.0141887
0.0138032
0.0135191
0.0133251
0.0132016
0.0131426
0.0131326
0.0131812
0.0115553
0.011598
0.0115383
0.0114076
0.0111555
0.010749
0.0100957
0.00906319
0.00744098
0.00488518
0.000840968
-0.00502363
-0.0128142
-0.0226089
-0.0337108
-0.0445523
-0.0548589
-0.0616937
-0.0654047
-0.0626414
-0.0504321
-0.0373503
-0.0237273
-0.0120715
-0.00279741
0.00432351
0.00918288
0.012063
0.0137331
0.014286
0.0141463
0.0138265
0.0134386
0.0131355
0.0129126
0.0127654
0.0126741
0.0126316
0.0126155
0.0126156
0.0110203
0.0110146
0.0109786
0.0109015
0.0107437
0.0104712
0.0100148
0.00927501
0.00806303
0.00609446
0.0030988
-0.00115403
-0.00671708
-0.0137725
-0.0222331
-0.031108
-0.0396954
-0.0461426
-0.0498878
-0.0493256
-0.0438294
-0.0353588
-0.0255473
-0.0161304
-0.0077465
-0.000849978
0.00438035
0.007971
0.0102354
0.0114712
0.0120792
0.0122197
0.0121678
0.0120842
0.0120192
0.0119771
0.0119539
0.0119375
0.0119163
0.0118785
0.0106567
0.0106333
0.0106232
0.0105927
0.0105234
0.0103943
0.0101678
0.0097697
0.0091198
0.00797703
0.00609619
0.00319052
-0.000767994
-0.00556875
-0.0114888
-0.0181403
-0.0247442
-0.0307772
-0.0354018
-0.0377419
-0.0370193
-0.0336334
-0.0278861
-0.020861
-0.0137991
-0.00732014
-0.00185994
0.00244356
0.0056735
0.00790638
0.00931036
0.0100479
0.0104314
0.0106505
0.010789
0.0108782
0.0109413
0.0109838
0.0110079
0.0110167
0.0103948
0.010414
0.0104151
0.0104108
0.0103956
0.0103738
0.0103265
0.0102449
0.0100601
0.00966242
0.00884866
0.00732572
0.00460848
0.00102339
-0.00377785
-0.0097084
-0.0161773
-0.0229189
-0.0288241
-0.032837
-0.0343517
-0.0347993
-0.0320908
-0.0267411
-0.0205845
-0.0143095
-0.00845996
-0.00333748
0.000844897
0.0039828
0.00623276
0.00770095
0.0085955
0.00916821
0.00952007
0.00974465
0.00989904
0.0100142
0.0101033
0.0101708
0.0100415
0.0100504
0.010073
0.0101078
0.0101654
0.0102531
0.0103761
0.0105251
0.0106905
0.0108188
0.0108602
0.0104509
0.00893023
0.0063178
0.00210507
-0.00375752
-0.0109843
-0.0193225
-0.0272245
-0.0332904
-0.0378253
-0.0410233
-0.0400278
-0.0356811
-0.0297726
-0.0229442
-0.0161374
-0.00970448
-0.00419718
0.000161864
0.00345127
0.00569066
0.00710284
0.00797629
0.00852182
0.00887123
0.00909374
0.009239
0.00934011
0.00942049
0.00959522
0.00955648
0.00957085
0.00962278
0.00973047
0.00989502
0.0101449
0.0104698
0.0108944
0.011334
0.0118175
0.0118319
0.010958
0.00927446
0.00593682
0.000698128
-0.00639377
-0.0158625
-0.0259427
-0.0353361
-0.0441055
-0.0500718
-0.0500635
-0.0453606
-0.0393504
-0.0314665
-0.0231823
-0.0150486
-0.00788141
-0.00233633
0.00167494
0.00438236
0.00606615
0.00713433
0.00781505
0.00825343
0.00852283
0.00867571
0.00875567
0.00877338
0.00914106
0.00910438
0.00910697
0.00914738
0.0092463
0.0094083
0.00965523
0.00998847
0.0104829
0.0108974
0.0113032
0.0113018
0.0105327
0.00915414
0.0063576
0.00172282
-0.00469575
-0.0140773
-0.0250754
-0.0361036
-0.0459385
-0.0529623
-0.0524559
-0.0471652
-0.0410353
-0.0328086
-0.0240536
-0.0155675
-0.0083023
-0.0028493
0.00110943
0.00380431
0.00551819
0.00661271
0.00730418
0.00775802
0.00804054
0.00819895
0.00826532
0.00822567
0.00862312
0.00863364
0.00863983
0.00865521
0.00870035
0.00878329
0.00891524
0.00909515
0.00933422
0.00945115
0.00938614
0.0089142
0.00771961
0.00575736
0.00256822
-0.00211541
-0.00811288
-0.0158948
-0.0246643
-0.033356
-0.0400369
-0.0442442
-0.043173
-0.0385795
-0.032601
-0.0252029
-0.0177881
-0.0109376
-0.00540089
-0.00114066
0.00204819
0.00419176
0.00559151
0.00646545
0.00702162
0.00737883
0.00760168
0.00772299
0.00777868
0.00775653
0.00795964
0.00797583
0.00797042
0.00794755
0.00791503
0.00787104
0.00781825
0.00772935
0.00755726
0.00715353
0.00631685
0.00496884
0.00292963
5.84553e-05
-0.00370818
-0.0083516
-0.0137464
-0.0193233
-0.0246675
-0.0291828
-0.0317757
-0.0320095
-0.0294815
-0.0254677
-0.020403
-0.0147805
-0.0094872
-0.00484472
-0.00118644
0.00172131
0.00386737
0.00524671
0.00615551
0.00668525
0.00700285
0.00719695
0.00730533
0.00735535
0.00737618
0.00739895
0.00723503
0.00719824
0.00713747
0.00704627
0.00692252
0.0067457
0.0064842
0.00608088
0.00546833
0.00446768
0.00290419
0.000699646
-0.00223346
-0.00590828
-0.0101663
-0.0148254
-0.0195689
-0.0237021
-0.0260584
-0.0265952
-0.0263581
-0.0239388
-0.0203082
-0.0161433
-0.011424
-0.00685925
-0.00295195
0.00022917
0.00273535
0.00460067
0.0057605
0.00641371
0.0067933
0.00698568
0.00709684
0.00715514
0.00718102
0.007189
0.00719143
0.00720034
0.00657123
0.00649243
0.00638282
0.00623745
0.00603479
0.00573745
0.00528776
0.00458402
0.00348227
0.00181573
-0.000517747
-0.00360496
-0.00756386
-0.012267
-0.0173305
-0.0223469
-0.0266918
-0.029744
-0.0301783
-0.0277843
-0.0250301
-0.0210199
-0.0161497
-0.010694
-0.00555664
-0.00107987
0.00231139
0.0046842
0.00624142
0.0069544
0.00721083
0.00728488
0.00726144
0.00720674
0.00715599
0.00711322
0.00708209
0.0070617
0.00704956
0.00702415
0.00601677
0.00595119
0.00584626
0.00568826
0.00544314
0.0050591
0.00446786
0.00354326
0.00205756
-0.000192943
-0.00336534
-0.00761794
-0.0129633
-0.0190912
-0.0254069
-0.0312879
-0.0357557
-0.0381503
-0.0372731
-0.0321789
-0.0261147
-0.0196505
-0.0126699
-0.0058945
-0.000439277
0.00370391
0.00642729
0.00796293
0.00857899
0.00844346
0.00813577
0.00776924
0.00745697
0.00720805
0.00702155
0.00688648
0.00679805
0.00674698
0.00672196
0.00672659
0.00556246
0.00555648
0.00548393
0.0053344
0.00506683
0.00463856
0.00397302
0.00294142
0.00132105
-0.00121025
-0.00480935
-0.00976408
-0.0160871
-0.0232249
-0.0302974
-0.0367468
-0.0411713
-0.0436247
-0.0422614
-0.0355816
-0.0274081
-0.0185881
-0.00982951
-0.00223598
0.00288587
0.00629718
0.00815655
0.00898465
0.00912036
0.00872317
0.00825492
0.00772174
0.00727071
0.00691871
0.00667007
0.00649829
0.00639397
0.00634631
0.00633734
0.00638634
0.00521721
0.00524777
0.0051867
0.00504467
0.00479031
0.00439653
0.00377863
0.00282351
0.00134346
-0.000940483
-0.00420051
-0.00856775
-0.0141713
-0.0206571
-0.0272209
-0.0333919
-0.0378627
-0.0403047
-0.0396579
-0.0338135
-0.0266481
-0.0184069
-0.0103757
-0.00359508
0.00120697
0.00457771
0.00643699
0.00742413
0.00778172
0.00765929
0.00741913
0.00706035
0.00668642
0.00640929
0.00621643
0.00610079
0.00603419
0.00601312
0.00601541
0.00604028
0.00496289
0.00496863
0.00492338
0.00482803
0.00466008
0.00438735
0.00394931
0.00324841
0.00216631
0.000549541
-0.00175496
-0.00481431
-0.00873878
-0.0135062
-0.0185107
-0.0234801
-0.0273932
-0.0300044
-0.030649
-0.028199
-0.0241721
-0.0189673
-0.0136087
-0.00861527
-0.00428678
-0.000830184
0.00168333
0.0035055
0.00467843
0.0053432
0.0056544
0.0057293
0.00569975
0.0056514
0.00561427
0.00560255
0.00560392
0.00561384
0.00561821
0.00560564
0.0048157
0.00479855
0.0047836
0.00475505
0.00469053
0.00457648
0.00437261
0.00401845
0.00342331
0.00250166
0.00108653
-0.000849919
-0.00329783
-0.00640905
-0.00989312
-0.0137076
-0.0171578
-0.0202109
-0.0221671
-0.0228143
-0.0219287
-0.0201879
-0.0174508
-0.0139605
-0.0102217
-0.00673189
-0.00370484
-0.00117887
0.000802224
0.00229341
0.00330956
0.0039498
0.00434074
0.00458929
0.00475825
0.00487368
0.00495775
0.00501426
0.00504482
0.00504982
0.00477594
0.00478606
0.00479298
0.00479841
0.00479803
0.00478903
0.00477082
0.0047131
0.00455427
0.0042213
0.00359609
0.00255534
0.0010199
-0.00114479
-0.00386284
-0.00728183
-0.0109291
-0.0144812
-0.0173036
-0.0197361
-0.0214237
-0.0226546
-0.0221036
-0.0197312
-0.0164166
-0.0126856
-0.00903566
-0.00569126
-0.00289176
-0.000705619
0.000921675
0.00211212
0.00291591
0.00345631
0.00381669
0.00406105
0.00423363
0.00435687
0.0044446
0.00450036
0.00470227
0.00472946
0.00475332
0.00478622
0.00483472
0.00490775
0.00501134
0.00514972
0.00531356
0.00546498
0.00553763
0.00536308
0.00462827
0.00314026
0.000879098
-0.00239022
-0.00645811
-0.0109606
-0.015194
-0.019523
-0.0235601
-0.0271447
-0.0282647
-0.0269068
-0.0237018
-0.0193969
-0.01481
-0.0103527
-0.00647604
-0.00339476
-0.00106761
0.000651628
0.00183461
0.00261959
0.00312616
0.00346506
0.0036984
0.00386014
0.00397662
0.00404994
0.00451689
0.00450371
0.0045274
0.00457781
0.00466766
0.00480417
0.00499584
0.00526127
0.00562996
0.0060809
0.0065306
0.00695401
0.00699947
0.00634419
0.00484412
0.0021896
-0.00193274
-0.00732523
-0.0135057
-0.0201302
-0.0264822
-0.0321294
-0.0343763
-0.0335756
-0.0301398
-0.0254137
-0.0199404
-0.0143667
-0.00934407
-0.00527664
-0.00230258
-0.000159955
0.00125307
0.00218155
0.00277438
0.00316287
0.00341261
0.00356037
0.00364819
0.00369204
0.00430852