/*--------------------------------*- C++ -*----------------------------------*\
| =========                 |                                                 |
| \\      /  F ield         | OpenFOAM: The Open Source CFD Toolbox           |
|  \\    /   O peration     | Version:  v2106                                 |
|   \\  /    A nd           | Website:  www.openfoam.com                      |
|    \\/     M anipulation  |                                                 |
\*---------------------------------------------------------------------------*/
FoamFile
{
    version     2.0;
    format      ascii;
    arch        "LSB;label=32;scalar=64";
    class       volScalarField;
    location    "0";
    object      p;
}
// * * * * * * * * * * * * * * * * * * * * * * * * * * * * * * * * * * * * * //

dimensions      [0 2 -2 0 0 0 0];

internalField   nonuniform List<scalar> 
11644
(
-0.119946
-0.119158
-0.117595
-0.115387
-0.112272
-0.108107
-0.102848
-0.0965744
-0.0895793
-0.0822482
-0.0749587
-0.0682249
-0.0624959
-0.0586098
-0.0563924
-0.0554643
-0.055123
-0.0547315
-0.0518323
-0.0447556
-0.0352912
-0.0253667
-0.0151422
-0.00400148
0.00640338
0.0146572
0.0193541
0.0213386
0.0207212
0.0179474
0.0138299
0.00884893
0.00358178
-0.00152477
-0.00625454
-0.010389
-0.0136788
-0.0161851
-0.0180268
-0.0190683
-0.123233
-0.12268
-0.121143
-0.118654
-0.115304
-0.111222
-0.10624
-0.100269
-0.0935011
-0.086184
-0.0784811
-0.0710668
-0.0647094
-0.0583694
-0.0542283
-0.0520359
-0.0495549
-0.0482723
-0.0447083
-0.0387387
-0.029329
-0.0187883
-0.00798163
0.00301306
0.0119937
0.0181908
0.0221001
0.0224238
0.0199018
0.0160008
0.0112955
0.00605983
0.000659963
-0.00451551
-0.00929146
-0.0134871
-0.0170912
-0.0199855
-0.0219024
-0.0227079
-0.12383
-0.12379
-0.123231
-0.121726
-0.119294
-0.116103
-0.112221
-0.107631
-0.102246
-0.0958746
-0.0889051
-0.081083
-0.0722626
-0.0640563
-0.0562531
-0.0507249
-0.0469718
-0.0422502
-0.0365684
-0.0292448
-0.0247275
-0.0164511
-0.00750791
0.00300239
0.0122731
0.0178261
0.0188575
0.0180698
0.0152485
0.0106442
0.00523869
-0.000130477
-0.00533815
-0.0101522
-0.0144785
-0.0181941
-0.0212632
-0.0235106
-0.024637
-0.0246984
-0.123169
-0.123375
-0.123328
-0.122915
-0.1222
-0.120921
-0.119069
-0.116606
-0.11338
-0.109178
-0.102852
-0.0936457
-0.0835655
-0.0705614
-0.0578451
-0.0487825
-0.0419409
-0.031604
-0.0233169
-0.0193231
-0.0156508
-0.0105084
-0.0040455
0.00209366
0.00890559
0.0123428
0.0127736
0.00947897
0.00565665
0.00153678
-0.00351037
-0.00873186
-0.0133373
-0.0173328
-0.0206568
-0.0232577
-0.0250464
-0.0260034
-0.0264677
-0.0266237
-0.12182
-0.122026
-0.122216
-0.122994
-0.123892
-0.124598
-0.124938
-0.124727
-0.123585
-0.120842
-0.115723
-0.108268
-0.0970123
-0.0846255
-0.0682649
-0.0536739
-0.0470947
-0.023055
-0.00525798
0.002137
0.00670574
0.00448192
0.00220249
-0.00204376
0.00151653
0.00101388
-0.00185634
-0.00412126
-0.00828551
-0.0122105
-0.0152929
-0.0187502
-0.0220207
-0.0245622
-0.0264254
-0.0276394
-0.028346
-0.0289132
-0.0292797
-0.0296469
-0.120648
-0.120183
-0.120654
-0.121545
-0.123118
-0.125189
-0.127429
-0.129406
-0.130401
-0.130221
-0.128921
-0.124626
-0.11719
-0.0983419
-0.0728007
-0.0451012
-0.0297463
0.00378451
0.0268095
0.0355353
0.0345292
0.0283941
0.0140884
-0.00508348
-0.0189478
-0.0196803
-0.0213188
-0.0257227
-0.0251238
-0.0266257
-0.0283424
-0.0293435
-0.0302208
-0.0311073
-0.0316168
-0.0317797
-0.0317022
-0.0315341
-0.0317848
-0.0316539
-0.115033
-0.116193
-0.116753
-0.11787
-0.119582
-0.121986
-0.125239
-0.129091
-0.13281
-0.136016
-0.136298
-0.131789
-0.121216
-0.11642
-0.0938741
-0.0455729
0.00899347
0.0014888
0.0110937
0.0263774
0.0330135
0.0187219
-0.00165805
-0.0197131
-0.0570896
-0.0648356
-0.0633648
-0.0511006
-0.0430537
-0.0394998
-0.0379475
-0.0373935
-0.0363762
-0.0355736
-0.0347507
-0.0339384
-0.0333863
-0.0329635
-0.0327114
-0.0333759
-0.108058
-0.107195
-0.107942
-0.109411
-0.111316
-0.113863
-0.1174
-0.121783
-0.126899
-0.130377
-0.128354
-0.121762
-0.1191
-0.100922
-0.0756153
-0.0709751
-0.0270674
0.00766821
0.0225353
0.0280967
0.0141301
-0.00645766
-0.0264092
-0.0361508
-0.0428303
-0.0867587
-0.0698526
-0.0714264
-0.0554485
-0.0468422
-0.0405061
-0.0380717
-0.0363826
-0.0347481
-0.0338051
-0.0330458
-0.032571
-0.0325583
-0.032365
-0.0315194
-0.0968635
-0.0973495
-0.0973541
-0.097223
-0.0979934
-0.0996265
-0.102087
-0.104906
-0.10789
-0.107785
-0.104268
-0.0970396
-0.0853653
-0.0633076
-0.0500564
-0.0173271
-0.0129835
0.0328175
0.0682884
0.0750471
0.0602418
0.018601
-0.0224185
-0.0316054
-0.0746528
-0.0545193
-0.0551226
-0.0602138
-0.0514671
-0.0441737
-0.035627
-0.0308144
-0.0295507
-0.0287073
-0.0288499
-0.0291319
-0.0289438
-0.0282502
-0.0278292
-0.0278404
-0.0837303
-0.0836475
-0.0828741
-0.0824832
-0.0819513
-0.081513
-0.0807534
-0.0795296
-0.0776004
-0.071457
-0.06306
-0.0577912
-0.0547936
-0.0463888
-0.0427614
0.00201513
0.0256507
0.0618832
0.108227
0.134682
0.0980521
0.0220528
-0.0324822
-0.0542207
-0.05448
-0.0534549
-0.0399195
-0.023806
-0.022739
-0.0207422
-0.0181215
-0.0174646
-0.0186234
-0.0193426
-0.0208265
-0.0225052
-0.0237994
-0.0246176
-0.0250361
-0.0252497
-0.0750539
-0.0714143
-0.0691378
-0.0665429
-0.0638737
-0.0610405
-0.0573049
-0.0523086
-0.0459468
-0.0383993
-0.0305133
-0.022945
-0.0314395
-0.0480296
-0.0394256
-0.0598862
-0.0325736
0.0087856
0.109849
0.246421
0.173047
-0.0561295
-0.101993
-0.0725252
-0.0508165
-0.0230883
-0.00256183
0.0176392
0.0207912
0.0129235
0.00310843
-0.00331
-0.0078068
-0.0120165
-0.0159643
-0.0189572
-0.0207143
-0.0217802
-0.0220031
-0.0210371
-0.0588925
-0.0606636
-0.0586559
-0.0555802
-0.0514505
-0.0464086
-0.041291
-0.0352384
-0.02867
-0.0241118
-0.0233654
-0.0168
-0.0254611
-0.0457816
-0.0640514
-0.100045
-0.146535
-0.222489
-0.39299
-0.0738568
-0.0130232
0.02546
0.0571249
0.0695588
0.0649341
0.0522804
0.0289113
0.0126128
0.00274634
-0.00484252
-0.0111114
-0.015425
-0.0180364
-0.0194113
-0.0206393
-0.0215675
-0.0241962
-0.0496494
-0.0463954
-0.0461752
-0.0462138
-0.0442221
-0.0405175
-0.0376422
-0.0362735
-0.0369666
-0.0389732
-0.0499183
-0.0583013
-0.0773219
-0.118526
-0.167915
-0.226305
-0.315392
-0.494257
-0.79088
0.364809
0.14322
0.0804759
0.0823178
0.0740673
0.0666746
0.036151
0.0103662
-0.0018023
-0.0100303
-0.0169819
-0.0208575
-0.0225009
-0.023861
-0.0256782
-0.0279931
-0.0300864
-0.0284561
-0.0375751
-0.0461806
-0.0466708
-0.0464993
-0.0470807
-0.0471607
-0.0489543
-0.0573734
-0.069101
-0.0805289
-0.107743
-0.140312
-0.179714
-0.24603
-0.295281
-0.367506
-0.447104
-0.56817
-0.655989
0.336796
0.156197
0.106567
0.0417134
0.0156464
-0.0171115
-0.0394578
-0.0433522
-0.0440711
-0.0427924
-0.0428418
-0.03989
-0.0371605
-0.0360815
-0.035939
-0.0360803
-0.0358564
-0.0443735
-0.0454469
-0.0510377
-0.0559134
-0.0588093
-0.0618988
-0.0651653
-0.0722151
-0.0836386
-0.102153
-0.131129
-0.163796
-0.212589
-0.247871
-0.274565
-0.344126
-0.423169
-0.58426
-0.824606
-1.04301
-0.834289
-0.145597
0.438211
0.618285
0.221611
0.165449
0.0581378
-0.0296909
-0.11345
-0.128685
-0.113903
-0.0967485
-0.0821443
-0.0721047
-0.0596085
-0.0527496
-0.0489587
-0.0462154
-0.0460776
-0.0466223
-0.0476186
-0.0623685
-0.0576176
-0.0605326
-0.0664881
-0.073234
-0.0806122
-0.0869823
-0.0956596
-0.111095
-0.137376
-0.172762
-0.211818
-0.254471
-0.269704
-0.352603
-0.481875
-0.656778
-0.915485
-0.795285
-0.263404
0.488856
0.235919
0.260486
0.511321
0.254962
0.0649972
-0.0343472
-0.147812
-0.157352
-0.150621
-0.132952
-0.113144
-0.095023
-0.0769591
-0.0651816
-0.0600836
-0.0566278
-0.0553098
-0.0540229
-0.0499523
-0.0714227
-0.0712833
-0.0720272
-0.0742676
-0.0777081
-0.0818765
-0.085613
-0.0897594
-0.10107
-0.114593
-0.136346
-0.17391
-0.197367
-0.243047
-0.320193
-0.373195
-0.528116
-0.701073
-0.54304
-0.00974402
0.540783
0.713855
0.984643
0.674575
0.112252
-0.0453174
-0.155777
-0.162487
-0.151268
-0.15477
-0.145092
-0.128412
-0.108747
-0.0895669
-0.0739554
-0.064288
-0.0575827
-0.0527178
-0.051374
-0.0508224
-0.0825937
-0.0834121
-0.0825227
-0.0810431
-0.079688
-0.0792025
-0.0779305
-0.0749553
-0.0770949
-0.0831325
-0.0893625
-0.109734
-0.128495
-0.145486
-0.170723
-0.133366
-0.177651
0.197532
0.319995
0.270129
0.487932
0.723262
1.23586
0.382043
-0.205642
-0.255191
-0.232217
-0.170574
-0.157042
-0.150736
-0.141373
-0.12854
-0.108374
-0.0927159
-0.0803434
-0.069056
-0.0582588
-0.0515297
-0.0478698
-0.0464713
-0.0895996
-0.0870736
-0.0839217
-0.0807179
-0.076816
-0.0732983
-0.0702438
-0.0598584
-0.0505868
-0.041954
-0.0363367
-0.0280009
0.00414621
0.046448
0.118644
0.187254
0.311461
0.650507
1.19803
1.20308
0.83527
0.39521
-0.145453
-0.799863
-0.597854
-0.457231
-0.291463
-0.213083
-0.192904
-0.164654
-0.14347
-0.123531
-0.108526
-0.0958751
-0.0866347
-0.0773763
-0.068043
-0.0607658
-0.0549605
-0.0499792
-0.0798327
-0.0771374
-0.0743061
-0.072249
-0.069206
-0.0626948
-0.0573924
-0.0478281
-0.032485
-0.00889435
0.0183913
0.030938
0.143227
0.243144
0.324165
0.463171
0.625739
0.725897
0.669556
0.467307
-0.20286
-1.06333
-1.35507
-0.82966
-0.597801
-0.521449
-0.359199
-0.272554
-0.238517
-0.185836
-0.152694
-0.127636
-0.111999
-0.0998851
-0.0917598
-0.085299
-0.0787031
-0.0729601
-0.0680935
-0.0644964
-0.0692252
-0.0682641
-0.0674817
-0.0660486
-0.0625194
-0.0553933
-0.0447683
-0.0306602
-0.00891055
0.0263947
0.070574
0.114974
0.228289
0.358612
0.468014
0.683245
0.951604
1.01478
0.677911
0.115498
-0.474502
-0.813054
-0.607516
-0.515475
-0.656092
-0.466982
-0.328419
-0.280486
-0.226789
-0.168914
-0.139591
-0.11657
-0.102503
-0.0954585
-0.0893589
-0.0848416
-0.0807375
-0.0782192
-0.0757492
-0.0742926
-0.0741248
-0.0742878
-0.0732853
-0.0711533
-0.0658185
-0.0557485
-0.0421388
-0.0227962
0.00111423
0.0383441
0.0775298
0.119601
0.236668
0.349046
0.544001
0.648225
0.767986
0.735243
0.454819
0.0839083
-0.468128
-1.06315
-1.29787
-1.0595
-0.698463
-0.350618
-0.15184
-0.182573
-0.135234
-0.111823
-0.095269
-0.0828143
-0.078695
-0.0763172
-0.0742683
-0.072697
-0.0715449
-0.0713391
-0.0704475
-0.0689678
-0.0882933
-0.0866001
-0.0839354
-0.0798055
-0.0742006
-0.0646025
-0.0547005
-0.0395937
-0.0212493
0.0049754
0.0316331
0.0221532
0.0764177
0.181984
0.0929556
0.441381
0.406686
0.28836
-0.551333
-0.921271
-0.710291
-0.907584
-0.911715
-0.584226
-0.316065
-0.104098
-0.00571781
-0.0415027
-0.0334606
-0.0362106
-0.0406095
-0.0430894
-0.0502566
-0.053333
-0.0544942
-0.0551218
-0.0550599
-0.0551897
-0.055594
-0.0547113
-0.0953698
-0.0939214
-0.0919322
-0.0883964
-0.0839389
-0.079349
-0.0740914
-0.0688834
-0.0622802
-0.0537973
-0.0425256
-0.0562373
-0.064919
-0.0492794
-0.222433
-0.314819
-0.275174
-0.143373
0.0638146
-0.0455343
0.217204
0.294103
0.222073
0.114531
0.0242784
-0.061176
0.0403101
0.0518552
0.0315572
0.01194
-0.00223287
-0.0132768
-0.0277891
-0.0337345
-0.0380805
-0.0403683
-0.0411883
-0.0409176
-0.0403089
-0.0405509
-0.0965341
-0.096245
-0.0964175
-0.0956062
-0.0954769
-0.0960967
-0.0955211
-0.0979909
-0.100374
-0.110257
-0.118274
-0.147125
-0.215732
-0.242029
-0.276948
-0.471283
-0.64708
-0.597436
-0.562456
-0.338589
-0.336138
0.0173292
0.147609
0.262482
0.319718
0.274902
0.174533
0.112353
0.0812758
0.0445851
0.0227347
0.00416101
-0.0117481
-0.019878
-0.0257551
-0.0300506
-0.0338296
-0.0362316
-0.0373822
-0.0368339
-0.0964186
-0.0970556
-0.0989808
-0.101718
-0.106803
-0.112694
-0.1205
-0.131196
-0.145104
-0.161942
-0.196148
-0.261641
-0.374463
-0.548987
-0.673648
-0.636597
-0.599105
-0.365431
-0.433598
-0.309182
-0.302845
-0.0371729
0.258034
0.447017
0.490797
0.351115
0.244291
0.204953
0.108685
0.0747332
0.0430132
0.0173107
0.000546582
-0.0108505
-0.0183756
-0.0236587
-0.0279731
-0.0315086
-0.0329793
-0.0331877
-0.098771
-0.0998743
-0.103157
-0.108162
-0.114458
-0.124452
-0.138708
-0.159839
-0.187699
-0.202808
-0.256746
-0.32034
-0.430523
-0.584737
-0.81629
-0.912143
-0.812135
-0.218465
0.205118
0.489104
0.537699
0.768853
0.72413
0.710089
0.539634
0.364974
0.305469
0.238298
0.140173
0.110577
0.0658222
0.0340183
0.0172218
0.00371466
-0.00541399
-0.0117056
-0.0152787
-0.018595
-0.0210156
-0.0221541
-0.102708
-0.104016
-0.105995
-0.110283
-0.117213
-0.128101
-0.14375
-0.167937
-0.196078
-0.222887
-0.271347
-0.303458
-0.378241
-0.439934
-0.471156
-0.602827
-0.693034
-0.513417
-0.22137
0.0559158
0.497266
0.616753
0.710065
0.671204
0.629899
0.544116
0.392078
0.274248
0.158011
0.117713
0.0743662
0.0497582
0.0314982
0.0181686
0.00831101
0.000576373
-0.00453824
-0.0080039
-0.0105752
-0.0116632
-0.0982455
-0.099582
-0.102397
-0.107427
-0.115811
-0.127108
-0.142066
-0.163037
-0.188366
-0.210823
-0.242865
-0.27866
-0.319307
-0.364457
-0.427158
-0.467914
-0.482891
-0.4372
-0.36041
-0.183941
0.537355
0.674352
0.755627
0.745491
0.642812
0.539767
0.392373
0.24218
0.141866
0.0951482
0.0633997
0.0454266
0.0295884
0.0193109
0.0100391
0.00383489
-0.00111741
-0.00438806
-0.00606573
-0.00650287
-0.0900786
-0.0901042
-0.0937912
-0.0991353
-0.106823
-0.116559
-0.129205
-0.144784
-0.163302
-0.182099
-0.207775
-0.261685
-0.288366
-0.305751
-0.318603
-0.301969
-0.342972
-0.280926
-0.0567073
0.0897208
0.642094
0.813717
0.974712
0.967998
0.691816
0.458335
0.253807
0.169042
0.118526
0.0711973
0.0459024
0.0273568
0.0163552
0.0116775
0.00644067
0.00220574
-0.00113862
-0.00326685
-0.00447297
-0.00499684
-0.0830812
-0.0853712
-0.0861149
-0.0878548
-0.092306
-0.0988624
-0.107537
-0.118123
-0.130949
-0.147172
-0.168099
-0.18458
-0.176095
-0.19203
-0.210298
-0.259155
-0.273302
-0.17723
-0.0733632
0.140367
0.497579
0.624326
0.575694
0.509976
0.317009
0.200879
0.164766
0.142947
0.093792
0.0548344
0.0297748
0.0169711
0.00854711
0.00629725
0.00342389
0.00114884
-0.000812578
-0.00235874
-0.00380556
-0.00525656
-0.0724673
-0.0731695
-0.0743286
-0.0761813
-0.0787174
-0.0819449
-0.087632
-0.0913262
-0.0965048
-0.102906
-0.111787
-0.0581263
0.00249479
0.0332488
-0.0121901
-0.160295
-0.213724
-0.202285
-0.153742
-0.00549177
-0.0837833
0.135989
0.174684
0.167474
0.170324
0.136849
0.0678064
0.0268795
0.000996755
0.00920497
0.00211996
0.00577374
0.00114675
-0.000983238
-0.00299539
-0.00337939
-0.00407935
-0.00495443
-0.0056244
-0.00703048
-0.0596017
-0.0592599
-0.0588703
-0.0584139
-0.0583853
-0.0577049
-0.056113
-0.054069
-0.0480968
-0.0302287
-0.0250491
0.0314124
0.0892909
0.160722
0.214358
0.203775
0.0778378
-0.0268381
-0.0743575
-0.168249
0.0899758
0.15081
0.261646
0.174194
0.080578
-0.0850799
-0.205321
-0.17411
-0.0825996
-0.028494
-0.0454839
-0.0237433
-0.0180276
-0.0145165
-0.013463
-0.0117047
-0.010755
-0.00961814
-0.00936802
-0.00856132
-0.0462617
-0.0455878
-0.0438604
-0.0412753
-0.0362565
-0.0297706
-0.0223816
-0.0110369
0.0106139
0.0471984
0.0620026
0.152349
0.219974
0.312857
0.335918
0.309327
0.238971
0.118853
0.0380966
-0.14292
0.0182597
-0.0127162
-0.138911
-0.233361
-0.34618
-0.344051
-0.281224
-0.18588
-0.128499
-0.0767696
-0.0677281
-0.0470117
-0.0304775
-0.0247491
-0.0213644
-0.0169644
-0.0138598
-0.0115699
-0.011067
-0.010728
-0.0332022
-0.0330761
-0.0312957
-0.0279064
-0.0211726
-0.0113822
0.00280308
0.0222322
0.0456915
0.0840373
0.142145
0.235628
0.318034
0.374786
0.417042
0.352045
0.32496
0.149692
-0.0642326
-0.302373
-0.451417
-0.542479
-0.587176
-0.588276
-0.546058
-0.442956
-0.326107
-0.243974
-0.17253
-0.123114
-0.0762368
-0.0537222
-0.0400113
-0.0290803
-0.0231648
-0.0179988
-0.0146612
-0.0124464
-0.0113664
-0.0109685
-0.0273474
-0.0267854
-0.0244872
-0.0200912
-0.0126165
-0.00268314
0.012168
0.0311116
0.0582204
0.0944948
0.156462
0.240166
0.349066
0.458089
0.56756
0.587259
0.538676
0.352557
0.126983
-0.159962
-0.536586
-0.592368
-0.683052
-0.656725
-0.594305
-0.512961
-0.404788
-0.285991
-0.203306
-0.139833
-0.0922791
-0.0616701
-0.043237
-0.0318704
-0.0257133
-0.0204308
-0.0158896
-0.0122361
-0.00996253
-0.010514
-0.0262546
-0.025915
-0.0226065
-0.0183259
-0.0117104
-0.00286162
0.00988089
0.0282219
0.0556079
0.0916256
0.148494
0.208022
0.280229
0.391028
0.530477
0.618649
0.645485
0.508432
0.357913
0.142399
-0.370219
-0.578289
-0.698631
-0.698159
-0.57899
-0.49401
-0.397662
-0.295085
-0.208249
-0.132345
-0.0792546
-0.0538429
-0.036503
-0.0291586
-0.0213628
-0.0167169
-0.0144324
-0.0134744
-0.0133302
-0.0125443
-0.0241133
-0.0230995
-0.0216685
-0.0193469
-0.0153074
-0.00793056
0.00174881
0.014731
0.0332725
0.0632022
0.0977461
0.150863
0.20559
0.245644
0.309485
0.36832
0.42936
0.417435
0.270614
0.0686991
-0.421084
-0.557039
-0.654771
-0.675317
-0.645964
-0.472957
-0.326724
-0.195812
-0.131111
-0.0843024
-0.0638544
-0.0418312
-0.0272273
-0.020154
-0.0144282
-0.0118847
-0.0109623
-0.0105061
-0.0100858
-0.00945031
-0.0258192
-0.0248472
-0.0245425
-0.0238108
-0.0222795
-0.0194031
-0.0163861
-0.0121187
-0.00971715
0.00186667
-0.0141335
-0.00104617
0.039708
0.120742
0.208228
0.225058
0.27038
0.292473
0.103714
-0.054405
-0.285857
-0.474004
-0.471744
-0.484233
-0.35085
-0.275164
-0.125049
-0.0724727
-0.0489933
-0.0319247
-0.0278455
-0.0128181
-0.00712483
-0.00600635
-0.00471961
-0.00321077
-0.00191158
-0.000920239
-0.000633182
-0.00231931
-0.031551
-0.0322064
-0.0326941
-0.0334821
-0.0357386
-0.0378994
-0.0409614
-0.0476601
-0.0584817
-0.0743931
-0.101901
-0.140607
-0.195857
-0.173084
-0.103943
-0.00956306
0.0892664
0.119632
0.189413
0.15849
-0.172415
-0.156168
-0.169642
-0.115664
-0.0343531
0.041537
0.0339568
0.0434343
0.0543876
0.0566085
0.0351846
0.0267822
0.0181428
0.0142809
0.0114192
0.00916564
0.00723963
0.00447586
0.00311835
0.00336316
-0.0363532
-0.0354481
-0.0370453
-0.0398082
-0.0448166
-0.0529918
-0.0669505
-0.0805345
-0.102856
-0.136921
-0.193367
-0.258268
-0.337434
-0.415944
-0.45737
-0.441626
-0.36273
-0.257115
-0.184639
-0.0931849
-0.0532805
0.0404615
0.108993
0.147883
0.187162
0.214825
0.231817
0.220643
0.195004
0.155451
0.0846964
0.0635395
0.0437746
0.0328826
0.0233139
0.0161994
0.0120444
0.0093675
0.00805245
0.00798673
-0.0337773
-0.0339564
-0.0366762
-0.0419615
-0.0501864
-0.0626731
-0.0813308
-0.107172
-0.146688
-0.195607
-0.276559
-0.36596
-0.469772
-0.578366
-0.645726
-0.671265
-0.653578
-0.534436
-0.451686
-0.353536
0.111391
0.303971
0.425478
0.503255
0.514667
0.497757
0.444958
0.375365
0.295057
0.20629
0.132335
0.0921974
0.0628093
0.042543
0.0304977
0.0219195
0.0163367
0.0139405
0.0126716
0.011937
-0.0316571
-0.0322418
-0.0353186
-0.0408398
-0.0498347
-0.0646076
-0.0841329
-0.11232
-0.159553
-0.214248
-0.305614
-0.415552
-0.521786
-0.638117
-0.711585
-0.750518
-0.746769
-0.627756
-0.390129
-0.0875881
0.31811
0.54897
0.750437
0.856357
0.847832
0.775613
0.643843
0.485768
0.34107
0.224234
0.150624
0.103355
0.0665159
0.0454245
0.0327949
0.0239225
0.0174874
0.0133248
0.0108407
0.0103503
-0.0282123
-0.0307125
-0.0324093
-0.0360437
-0.0430407
-0.0550437
-0.073037
-0.099898
-0.143024
-0.184455
-0.261439
-0.365715
-0.483147
-0.622301
-0.72602
-0.775505
-0.735457
-0.594584
-0.303708
0.0166942
0.45813
0.772619
0.88518
0.952138
0.86059
0.738397
0.579889
0.433272
0.320031
0.22509
0.141877
0.0934117
0.0585953
0.037441
0.0258507
0.0180875
0.0129872
0.00959538
0.00757571
0.00778319
-0.0165408
-0.0168082
-0.0189332
-0.0227862
-0.0285961
-0.0370723
-0.0486999
-0.0678601
-0.0965529
-0.121875
-0.158263
-0.229933
-0.321628
-0.438438
-0.577751
-0.632034
-0.613675
-0.494085
-0.289932
0.00310361
0.350907
0.631456
0.798194
0.803239
0.703986
0.587737
0.481397
0.361599
0.243807
0.152562
0.0898185
0.0568795
0.0362311
0.0228748
0.0147126
0.00882931
0.00628972
0.00611208
0.00597194
0.00511359
-0.000890538
-0.000931566
-0.000654643
-0.00149439
-0.00301924
-0.00509742
-0.00837001
-0.0200197
-0.0198102
-0.0347081
-0.0461511
-0.0533227
-0.0854851
-0.14082
-0.207394
-0.276101
-0.300476
-0.229996
-0.204374
-0.0738754
0.329238
0.498415
0.580828
0.55767
0.508248
0.412022
0.285139
0.166655
0.0689048
0.0212416
0.00927046
0.0107274
0.00204202
-0.00232673
-0.00429413
-0.00439887
-0.00447868
-0.00427674
-0.00396912
-0.00360183
0.0127102
0.0130276
0.0152246
0.0175601
0.0219415
0.0282479
0.0357938
0.0461883
0.0648326
0.0714099
0.12697
0.157029
0.159347
0.160426
0.131297
0.0797064
0.0112063
-0.0144251
0.0003469
0.0162942
0.230399
0.258809
0.16543
0.124184
0.0357903
0.00523827
-0.080974
-0.100903
-0.107186
-0.0811637
-0.0691134
-0.0519472
-0.042701
-0.032458
-0.0262741
-0.0218917
-0.018174
-0.0169154
-0.01523
-0.0142012
0.026646
0.0273492
0.0295894
0.0341616
0.0419494
0.0543736
0.0712331
0.0998267
0.140853
0.19431
0.272743
0.340741
0.398115
0.443343
0.469697
0.459666
0.419093
0.329393
0.21447
0.0451654
-0.11053
-0.218791
-0.351029
-0.419618
-0.471468
-0.467343
-0.421946
-0.345213
-0.279441
-0.210147
-0.153148
-0.112571
-0.0743601
-0.0560484
-0.0425915
-0.0338149
-0.0263427
-0.0228661
-0.0208344
-0.0200376
0.0354694
0.0372722
0.0406909
0.047315
0.0584347
0.0756364
0.101249
0.139517
0.194471
0.275097
0.3809
0.50936
0.644189
0.767417
0.855493
0.883438
0.861436
0.702233
0.438646
0.164019
-0.321892
-0.531488
-0.720372
-0.818667
-0.798608
-0.739079
-0.646466
-0.527968
-0.420101
-0.307576
-0.213505
-0.152082
-0.104177
-0.0750899
-0.0543802
-0.0405147
-0.0308661
-0.0250726
-0.0216753
-0.0216061
0.0376569
0.0383463
0.0437257
0.0525398
0.0655855
0.0848916
0.114126
0.157087
0.219549
0.303827
0.415621
0.5623
0.740883
0.912323
1.05723
1.12971
1.1018
0.933941
0.64061
0.251449
-0.24948
-0.626775
-0.902898
-1.02553
-0.996301
-0.893653
-0.763129
-0.601366
-0.467692
-0.341807
-0.232693
-0.161127
-0.109109
-0.0774068
-0.0556657
-0.0414498
-0.0326302
-0.0274704
-0.0248645
-0.0238098
0.0372794
0.0385663
0.0420552
0.0484917
0.059353
0.076185
0.102156
0.140768
0.196568
0.275736
0.377703
0.500589
0.644563
0.80782
0.967221
1.07861
1.07815
0.93771
0.637548
0.224126
-0.336514
-0.704789
-0.965921
-1.07354
-1.04457
-0.909747
-0.756669
-0.579967
-0.416586
-0.287585
-0.199635
-0.136973
-0.093591
-0.0662704
-0.0479743
-0.0361313
-0.0293794
-0.0254333
-0.0231717
-0.0212347
0.0319906
0.0329375
0.0344088
0.0385978
0.0454296
0.0566499
0.0733305
0.0967694
0.135845
0.178975
0.248163
0.351415
0.483571
0.610873
0.726914
0.812147
0.807833
0.69561
0.428849
0.046839
-0.305696
-0.65214
-0.862843
-0.913484
-0.858598
-0.712553
-0.561347
-0.395402
-0.269892
-0.182187
-0.127823
-0.0852851
-0.0570569
-0.0395454
-0.0274172
-0.0200537
-0.015624
-0.0122599
-0.0104408
-0.010799
0.017803
0.0178517
0.0183041
0.0188383
0.0210879
0.0250169
0.0315831
0.0372857
0.043835
0.0519502
0.0701391
0.10296
0.179235
0.26062
0.340935
0.402733
0.399179
0.351302
0.18691
-0.0359651
-0.290503
-0.483756
-0.582623
-0.572327
-0.480229
-0.345761
-0.230603
-0.125991
-0.0672684
-0.0356614
-0.0136651
-0.0083369
-0.00240198
0.0015845
0.00346028
0.00371414
0.00330217
0.00196985
0.000785644
0.000608087
0.00316394
0.00287787
0.00123485
-0.00105143
-0.00470383
-0.0111305
-0.0205788
-0.0294771
-0.052419
-0.0782412
-0.118053
-0.165265
-0.196967
-0.213547
-0.195837
-0.166844
-0.176061
-0.142049
-0.171809
-0.206032
-0.188766
-0.20531
-0.158346
-0.0955709
-0.0376031
0.0633936
0.109947
0.137033
0.148781
0.130305
0.103834
0.0770046
0.0559764
0.0393068
0.0296952
0.022737
0.0175766
0.0133251
0.0112624
0.011
-0.00630153
-0.00657643
-0.00933657
-0.015162
-0.0248631
-0.0396244
-0.0619821
-0.0934756
-0.143381
-0.209584
-0.310034
-0.410543
-0.515116
-0.614855
-0.677152
-0.707321
-0.713478
-0.634174
-0.528512
-0.32133
-0.0393039
0.201455
0.378369
0.485894
0.526546
0.541181
0.501512
0.435169
0.362933
0.284939
0.20855
0.146628
0.0992789
0.0695216
0.0503433
0.0370959
0.0290201
0.0243002
0.0219851
0.0210109
-0.0126736
-0.0125049
-0.0167783
-0.0247631
-0.0386041
-0.0582885
-0.088983
-0.134552
-0.202573
-0.296042
-0.42559
-0.569085
-0.712437
-0.870264
-0.991771
-1.04701
-1.05292
-0.912918
-0.602353
-0.210962
0.222619
0.589827
0.844422
0.976201
1.00445
0.960957
0.832617
0.685481
0.535383
0.39309
0.27585
0.190973
0.13168
0.092235
0.0665305
0.0482427
0.0367487
0.0294641
0.0255617
0.0241076
-0.0164272
-0.0181541
-0.0218756
-0.0290022
-0.0417415
-0.0621351
-0.0931674
-0.13988
-0.21233
-0.31045
-0.441128
-0.599672
-0.771984
-0.950601
-1.09295
-1.1595
-1.12282
-0.962745
-0.598622
-0.0940215
0.399151
0.856196
1.1517
1.23875
1.2291
1.0993
0.921838
0.726378
0.551035
0.406095
0.285991
0.196393
0.134052
0.0927763
0.0651295
0.0471165
0.0355128
0.0282383
0.0237381
0.0230767
-0.0110258
-0.0123519
-0.0160814
-0.0229178
-0.0334712
-0.0505336
-0.0775828
-0.116763
-0.171411
-0.253863
-0.359081
-0.496947
-0.663556
-0.82563
-0.960939
-1.04372
-0.991456
-0.875629
-0.539052
-0.00247721
0.47988
0.855891
1.0954
1.23481
1.17049
1.01854
0.829236
0.632871
0.471272
0.334883
0.226109
0.152538
0.101778
0.0710216
0.0480531
0.0353509
0.0271178
0.0231232
0.0214556
0.0202968
0.00209285
0.00292638
0.0012348
-0.00252415
-0.00896811
-0.0185169
-0.035129
-0.060385
-0.0950708
-0.141157
-0.20703
-0.277176
-0.390174
-0.503058
-0.617369
-0.700461
-0.676233
-0.598232
-0.376456
0.109115
0.432703
0.736049
0.890743
0.926762
0.880404
0.73818
0.586253
0.433627
0.292795
0.183441
0.118924
0.0751558
0.0473665
0.0361771
0.0230624
0.0169947
0.0129514
0.0110067
0.0106583
0.0109401
0.0171003
0.0170934
0.0188564
0.0209965
0.0220236
0.0217794
0.0207769
0.0199841
0.0182167
0.012764
0.010416
-0.0165324
-0.0582309
-0.112339
-0.1784
-0.22863
-0.236675
-0.149536
-0.0353584
0.14521
0.266915
0.45239
0.479431
0.452808
0.3893
0.275122
0.179222
0.0960729
0.0296262
-0.00178591
-0.00431695
-0.0153161
-0.0127877
-0.0116129
-0.0106766
-0.00769578
-0.00688207
-0.00578484
-0.00454306
-0.00315886
0.031311
0.0322155
0.0351024
0.0395992
0.0459208
0.05592
0.070429
0.0902691
0.126484
0.166153
0.218173
0.256084
0.292998
0.333712
0.361844
0.366328
0.363887
0.36923
0.311924
0.201197
0.0621901
-0.0282757
-0.124228
-0.145063
-0.224901
-0.273877
-0.291308
-0.270832
-0.236342
-0.191037
-0.139963
-0.10428
-0.0756379
-0.0548272
-0.0410206
-0.0294321
-0.0219409
-0.0173707
-0.0149655
-0.0149656
0.0430766
0.044351
0.0478778
0.05464
0.0656192
0.0834072
0.111569
0.152041
0.21328
0.298218
0.408053
0.530233
0.664642
0.796235
0.895199
0.914227
0.888381
0.804232
0.605747
0.309094
-0.0401033
-0.370508
-0.59619
-0.715883
-0.758561
-0.73816
-0.669761
-0.556335
-0.450864
-0.346526
-0.250834
-0.178492
-0.126147
-0.0883429
-0.0621367
-0.0434594
-0.0314135
-0.0240794
-0.0204601
-0.020139
0.0466033
0.047682
0.0528488
0.0622503
0.0774549
0.100741
0.135287
0.187322
0.264663
0.370431
0.509923
0.682272
0.869225
1.04946
1.1913
1.26611
1.23562
1.11721
0.821702
0.361834
-0.108374
-0.559187
-0.863448
-1.02251
-1.06057
-1.00287
-0.875124
-0.718659
-0.560645
-0.41699
-0.302542
-0.212514
-0.145474
-0.100664
-0.0699925
-0.0497538
-0.0363674
-0.0283016
-0.0239967
-0.0230012
0.0453553
0.0458183
0.0503542
0.0588442
0.0730761
0.0954498
0.12926
0.180233
0.258215
0.36036
0.490039
0.653424
0.848652
1.05045
1.22198
1.32781
1.3055
1.13801
0.819961
0.307425
-0.189831
-0.665222
-0.963096
-1.11394
-1.13404
-1.04984
-0.893895
-0.71958
-0.546735
-0.396473
-0.280723
-0.192515
-0.130649
-0.0902093
-0.0621777
-0.0447309
-0.0337991
-0.027456
-0.0238954
-0.0216502
0.0381848
0.0385441
0.0405942
0.0458964
0.0559037
0.071677
0.0965642
0.134003
0.192179
0.273258
0.381967
0.524004
0.685778
0.852065
0.992843
1.07632
1.0547
0.885294
0.606774
0.197102
-0.233345
-0.610465
-0.872293
-0.99325
-0.983078
-0.874139
-0.720531
-0.56217
-0.410491
-0.288485
-0.197356
-0.128639
-0.0877614
-0.0570284
-0.0385366
-0.0265507
-0.0192113
-0.0141901
-0.0114363
-0.0108029
0.0219772
0.0211449
0.021534
0.0239146
0.0285153
0.0353747
0.0477051
0.0666775
0.0908258
0.134219
0.192362
0.281004
0.386756
0.49357
0.577037
0.625954
0.605207
0.49098
0.309042
0.0398264
-0.215939
-0.462045
-0.619541
-0.688931
-0.621341
-0.528139
-0.403409
-0.287739
-0.184703
-0.114683
-0.068843
-0.035095
-0.015906
-0.00373293
0.00148252
0.00426189
0.00556076
0.00598951
0.00561044
0.00389009
0.0026918
0.00197364
0.000409504
-0.00191851
-0.00433936
-0.00767792
-0.0122977
-0.0154464
-0.020416
-0.0258391
-0.0317016
-0.0317567
-0.0130057
0.00705365
0.0249837
0.0365638
0.0229307
-0.0184611
-0.101725
-0.096136
-0.131794
-0.174591
-0.194963
-0.18312
-0.115881
-0.0718553
-0.0236384
0.0209321
0.0600198
0.0722746
0.0721131
0.06641
0.0579089
0.0492001
0.0398893
0.0329369
0.0275182
0.0229922
0.0198993
0.0180111
-0.0123333
-0.0126876
-0.0159159
-0.0216703
-0.0321858
-0.046197
-0.0646139
-0.0934247
-0.134166
-0.190457
-0.255001
-0.330972
-0.411159
-0.487263
-0.546958
-0.582916
-0.571179
-0.536953
-0.46883
-0.23701
-0.0224413
0.18777
0.318731
0.409424
0.464185
0.463534
0.428673
0.375342
0.32041
0.256801
0.199308
0.152506
0.115406
0.0876639
0.0669647
0.0523984
0.0427291
0.0364306
0.0325133
0.0305172
-0.0210137
-0.0221542
-0.0272741
-0.0366663
-0.0517304
-0.073926
-0.10644
-0.153355
-0.219216
-0.310778
-0.416628
-0.550789
-0.697562
-0.837057
-0.952365
-1.01624
-0.991812
-0.85064
-0.610906
-0.234695
0.14489
0.505784
0.733772
0.862712
0.90492
0.870297
0.779083
0.660818
0.532429
0.405935
0.301671
0.217668
0.156874
0.114308
0.0852109
0.0651746
0.0517963
0.0434627
0.0388058
0.0372904
-0.0252361
-0.0271834
-0.0329128
-0.0429627
-0.0590447
-0.0832989
-0.120591
-0.174124
-0.251443
-0.356763
-0.484164
-0.645291
-0.821793
-0.984591
-1.10462
-1.1471
-1.14488
-0.947846
-0.641175
-0.187488
0.296806
0.736807
1.00629
1.13248
1.15414
1.07346
0.926778
0.75587
0.588342
0.443219
0.330256
0.235182
0.167915
0.120511
0.0878554
0.0659415
0.0512483
0.0423181
0.0373645
0.0370311
-0.0215169
-0.0234249
-0.0282895
-0.0369395
-0.0512448
-0.0734161
-0.10702
-0.155622
-0.226932
-0.326206
-0.450187
-0.602166
-0.777629
-0.940339
-1.05528
-1.10226
-1.04815
-0.852941
-0.535541
-0.0645203
0.396336
0.821087
1.05328
1.15771
1.16097
1.05559
0.89374
0.709125
0.530031
0.39142
0.283929
0.198578
0.139308
0.0984569
0.0703436
0.0522462
0.0404859
0.0335847
0.0303169
0.0307409
-0.00564494
-0.00581156
-0.00891478
-0.0154094
-0.0256834
-0.0413761
-0.0655394
-0.102059
-0.154957
-0.228944
-0.322446
-0.44147
-0.582495
-0.711812
-0.816143
-0.856956
-0.770604
-0.613241
-0.318361
0.0528288
0.405493
0.730606
0.90972
0.971152
0.943516
0.840862
0.696155
0.542796
0.394516
0.278067
0.187521
0.124188
0.0837405
0.0569718
0.0399384
0.0285344
0.0221217
0.0185025
0.0169701
0.0172048
0.015976
0.016545
0.0169854
0.0156702
0.0125517
0.00659638
-0.00430784
-0.0223438