/*--------------------------------*- C++ -*----------------------------------*\
| =========                 |                                                 |
| \\      /  F ield         | OpenFOAM: The Open Source CFD Toolbox           |
|  \\    /   O peration     | Version:  v2106                                 |
|   \\  /    A nd           | Website:  www.openfoam.com                      |
|    \\/     M anipulation  |                                                 |
\*---------------------------------------------------------------------------*/
FoamFile
{
    version     2.0;
    format      ascii;
    arch        "LSB;label=32;scalar=64";
    class       volVectorField;
    location    "0";
    object      U;
}
// * * * * * * * * * * * * * * * * * * * * * * * * * * * * * * * * * * * * * //

dimensions      [0 1 -1 0 0 0 0];

internalField   nonuniform List<vector> 
11644
(
(-0.000793596 -1.74944e-05 -1.09687e-21)
(-0.000798978 -4.34803e-05 -3.02485e-21)
(-0.000815026 -7.80829e-05 -1.62291e-21)
(-0.000827529 -8.79497e-05 0)
(-0.000834509 -8.49113e-05 0)
(-0.000833606 -2.20428e-05 0)
(-0.000807857 -4.48248e-06 0)
(-0.000797701 2.6257e-05 0)
(-0.000798866 6.96545e-05 0)
(-0.000806461 0.000139005 0)
(-0.000846705 0.000213364 0)
(-0.000818751 0.000334672 0)
(-0.00087851 0.000460406 0)
(-0.000767986 0.000587549 0)
(-0.000674046 0.000673057 0)
(-0.000501469 0.000977638 0)
(-0.00102321 0.000730921 0)
(-0.00353613 0.00119634 0)
(-0.00221649 0.00399213 0)
(0.00261516 0.00356409 9.18954e-31)
(0.0027877 -0.000358961 -9.10689e-31)
(-0.00187602 -0.00111985 0)
(-0.00329524 0.00128453 0)
(-0.000882041 0.00162816 0)
(-0.000394856 0.00119228 0)
(-0.000630174 0.00127931 0)
(-0.000653423 0.00110387 0)
(-0.000834373 0.00103311 0)
(-0.000757633 0.000912819 0)
(-0.00073606 0.000829413 0)
(-0.000787194 0.000738595 0)
(-0.000783683 0.000652033 0)
(-0.000780733 0.000556072 0)
(-0.000784778 0.000463091 0)
(-0.000792955 0.000365462 0)
(-0.000770259 0.000305078 0)
(-0.000762455 0.000216857 0)
(-0.000765057 0.000153243 0)
(-0.000766294 0.000108664 0)
(-0.000767843 3.64952e-05 -2.12672e-22)
(-0.000757219 6.43437e-07 -1.40892e-21)
(-0.000739313 1.77709e-06 -1.30512e-21)
(-0.000726711 2.68856e-05 -7.00936e-22)
(-0.000751696 2.5152e-05 0)
(-0.000816087 2.68362e-05 0)
(-0.00086264 3.68053e-05 0)
(-0.00091571 0.000150793 0)
(-0.000968183 0.000308355 0)
(-0.00101687 0.000499448 0)
(-0.00107342 0.000712676 0)
(-0.00114213 0.000943576 0)
(-0.00126466 0.00120126 0)
(-0.00117877 0.00148228 0)
(-0.00127235 0.00175764 0)
(-0.00144168 0.00215912 0)
(-0.00177763 0.00247554 -1.56568e-22)
(-0.00177976 0.00371341 1.05193e-21)
(-0.000690533 0.00238617 4.81672e-22)
(-0.000837624 7.42731e-05 3.85373e-22)
(-0.00117843 0.001554 -1.69566e-20)
(-0.000932221 0.00539197 1.51475e-20)
(-0.000338248 0.00663749 4.90186e-22)
(-0.000156878 0.00398182 4.78998e-22)
(-0.00138687 0.00198256 -9.2831e-22)
(-0.00138254 0.00267981 -3.18535e-23)
(-0.000847749 0.00248403 0)
(-0.000817238 0.00231154 0)
(-0.000616989 0.00194674 0)
(-0.000665211 0.00167714 0)
(-0.000697319 0.00144522 0)
(-0.000632888 0.00122684 0)
(-0.000628179 0.00105611 0)
(-0.000624183 0.000917504 0)
(-0.000620287 0.000790579 0)
(-0.000614795 0.000680688 0)
(-0.000633272 0.000532636 0)
(-0.000656612 0.000442732 0)
(-0.00065957 0.000330284 0)
(-0.000646996 0.000191485 0)
(-0.000637794 7.35666e-05 0)
(-0.000768062 -1.79157e-05 0)
(-0.000775678 -1.91465e-06 0)
(-0.00079471 4.17485e-05 0)
(-0.000838614 0.000122419 0)
(-0.000888207 0.000254432 -1.28703e-21)
(-0.000974273 0.000370614 0)
(-0.00110373 0.000512615 0)
(-0.00124823 0.000702225 0)
(-0.00141572 0.000951663 0)
(-0.00155799 0.0012773 0)
(-0.00165168 0.00168072 0)
(-0.00170936 0.0021077 0)
(-0.00190493 0.00256976 -1.33581e-22)
(-0.00198545 0.00307816 7.67321e-21)
(-0.00193439 0.0037048 5.45539e-21)
(-0.00173271 0.00407168 1.99775e-21)
(-0.00088469 0.0038888 -2.80004e-20)
(-0.00030638 0.00420028 4.03275e-20)
(-0.00094099 0.0040154 -7.32772e-21)
(-0.00282389 0.00455013 5.88678e-20)
(-0.00248602 0.00589179 -6.43684e-20)
(-9.07491e-05 0.00644158 1.89611e-20)
(0.000984475 0.00576103 -4.64332e-20)
(0.000683337 0.00513028 5.34494e-21)
(-0.00018849 0.00387023 1.84401e-20)
(-0.000575113 0.00317579 -3.86192e-21)
(-0.000377833 0.00278215 -6.84995e-21)
(-0.000474712 0.00242889 1.15798e-22)
(-0.000483636 0.0020863 0)
(-0.000501698 0.00176854 0)
(-0.000519082 0.00151215 0)
(-0.000523632 0.00125919 0)
(-0.000526923 0.00104178 0)
(-0.000533581 0.000848905 0)
(-0.000517366 0.000684859 0)
(-0.000518033 0.000535874 0)
(-0.000496229 0.000397796 0)
(-0.000491 0.000251572 0)
(-0.00048921 0.000121076 0)
(-0.000491031 2.80759e-06 0)
(-0.000730456 3.25415e-05 0)
(-0.000778232 3.37327e-05 0)
(-0.000871986 1.83795e-05 0)
(-0.000989766 7.94007e-05 0)
(-0.00111951 0.000182632 0)
(-0.00128416 0.000368551 0)
(-0.00147187 0.000605205 0)
(-0.00172075 0.000888089 0)
(-0.00199648 0.00124053 0)
(-0.00232609 0.00164167 0)
(-0.00270573 0.00208968 -3.04901e-23)
(-0.00302422 0.00267739 1.00853e-21)
(-0.00320308 0.00337847 1.27947e-20)
(-0.0032096 0.00422885 -2.01944e-21)
(-0.00292443 0.00480612 -2.8058e-21)
(-0.00221201 0.00514571 -1.25775e-20)
(-0.00242081 0.00609985 2.85684e-20)
(-0.00102438 0.00820302 1.72892e-20)
(-0.000295236 0.00783776 -3.64631e-20)
(-0.00265366 0.00694383 -5.78879e-20)
(-0.00238917 0.00698516 6.82907e-20)
(0.000995815 0.00591088 -5.54157e-20)
(0.00101134 0.00493061 6.73771e-20)
(0.000275377 0.00579497 -6.76117e-20)
(0.000684505 0.00534195 4.90005e-20)
(0.000236327 0.0042847 6.18694e-21)
(-0.000365652 0.00356232 -5.81538e-21)
(-0.000349825 0.00290332 -7.01844e-21)
(-0.000236963 0.00227524 -2.98781e-21)
(-0.000264963 0.00180568 3.67433e-23)
(-0.000266597 0.0014015 0)
(-0.000275049 0.00103888 0)
(-0.000278122 0.000753273 0)
(-0.000284344 0.000529476 0)
(-0.0002819 0.000333857 0)
(-0.000290752 0.000211628 0)
(-0.000309215 0.00011638 0)
(-0.000333474 6.99944e-05 0)
(-0.000355764 8.25597e-05 0)
(-0.000359363 7.65486e-05 0)
(-0.000682597 -3.58345e-08 0)
(-0.000727217 3.65531e-06 0)
(-0.000800622 0.000154127 0)
(-0.000928923 0.000215883 0)
(-0.00111223 0.00025885 0)
(-0.00137348 0.000318288 0)
(-0.00170638 0.000450584 0)
(-0.00210212 0.000687429 0)
(-0.00257252 0.00101985 0)
(-0.00304001 0.00150707 -1.30102e-21)
(-0.00340202 0.00221999 -7.68813e-21)
(-0.00382448 0.00297539 -2.56551e-20)
(-0.0041303 0.00380388 4.40936e-20)
(-0.00438529 0.0045422 -2.00871e-20)
(-0.00411412 0.00553458 -7.97921e-20)
(-0.00419335 0.00656339 7.16924e-20)
(-0.00403657 0.0080989 2.78686e-21)
(-0.00235718 0.0090511 -8.13686e-20)
(-0.00114323 0.00922598 -7.31988e-21)
(-0.000138614 0.00876463 1.76076e-19)
(0.000443608 0.00801547 -1.07733e-19)
(0.000963738 0.00713451 2.16613e-21)
(0.00089535 0.00652521 3.27406e-20)
(0.000887524 0.00605214 -9.0762e-20)
(0.00127828 0.0056557 2.35888e-21)
(0.00145931 0.00499304 7.65498e-20)
(0.00131991 0.00381756 1.59856e-20)
(0.000866996 0.00285613 -1.38898e-20)
(0.000518718 0.0021039 1.21568e-21)
(0.000396954 0.00133236 1.03405e-20)
(0.000258952 0.00077863 -7.37891e-23)
(0.000117157 0.000456175 0)
(5.18694e-06 0.000249063 0)
(-8.04411e-05 0.000126993 0)
(-0.000174314 8.65584e-05 0)
(-0.000237849 9.07981e-05 0)
(-0.000274719 0.00011747 0)
(-0.000304411 0.000133037 0)
(-0.000296642 3.75586e-05 0)
(-0.000281014 2.45602e-06 0)
(-0.000564829 -0.000188161 0)
(-0.000640658 -0.000308527 0)
(-0.000793399 -0.000529426 0)
(-0.00099219 -0.00059065 0)
(-0.00120804 -0.000505893 0)
(-0.00150508 -0.000398764 0)
(-0.00188788 -0.000237041 0)
(-0.00236092 -2.12383e-05 0)
(-0.00291222 0.000322765 -2.15647e-22)
(-0.00357663 0.000843066 1.13824e-20)
(-0.00438413 0.00148305 -4.1368e-20)
(-0.00513109 0.00232968 4.70645e-21)
(-0.00580417 0.00316795 1.67509e-21)
(-0.00604975 0.00436205 1.79536e-20)
(-0.00654106 0.00576534 -6.11852e-20)
(-0.00627439 0.00714762 -1.10877e-20)
(-0.0052423 0.00804345 -4.53052e-20)
(-0.00398083 0.00875694 9.09151e-20)
(-0.00209016 0.00950997 -7.85061e-20)
(0.00116268 0.00933232 6.87052e-20)
(0.00222669 0.00910873 8.35421e-20)
(0.00109993 0.00863055 4.07374e-20)
(0.0011994 0.00835647 -1.94326e-19)
(0.00213533 0.007304 1.55428e-19)
(0.00251253 0.00580354 -1.18857e-19)
(0.00291341 0.00478751 5.87642e-20)
(0.00288791 0.00386017 -1.15786e-20)
(0.00245726 0.00248497 3.08482e-20)
(0.00192154 0.00133286 -3.19883e-21)
(0.00126685 0.000574579 2.06397e-21)
(0.000780529 -3.97114e-05 -1.41991e-21)
(0.000496759 -0.000419676 5.82446e-22)
(0.00026634 -0.000553652 0)
(0.000100939 -0.000582581 0)
(-3.37395e-05 -0.00059788 0)
(-0.000128473 -0.000615477 0)
(-0.000181898 -0.000638268 0)
(-0.000248895 -0.000588851 0)
(-0.000310399 -0.000321273 0)
(-0.0003272 -0.000178724 0)
(-0.000251536 0.000177147 0)
(-0.00034854 -7.49999e-05 0)
(-0.00049004 -0.000256022 0)
(-0.000693759 -0.000474245 0)
(-0.000979563 -0.000793921 0)
(-0.00133875 -0.000994608 0)
(-0.00180414 -0.00108113 0)
(-0.00237091 -0.00106811 -2.5086e-22)
(-0.00314529 -0.000909118 6.31021e-21)
(-0.00418684 -0.000501908 -9.45157e-21)
(-0.00546309 0.000100407 7.57737e-21)
(-0.00677064 0.000721404 1.16235e-20)
(-0.00750444 0.00188895 -2.63287e-20)
(-0.00805081 0.0034529 -4.44359e-20)
(-0.00803615 0.00512101 -1.31044e-20)
(-0.0074712 0.00661323 5.79133e-20)
(-0.00528832 0.00786953 8.89356e-20)
(-0.00467327 0.00882268 -2.54727e-19)
(-0.00328505 0.00929647 -9.61177e-20)
(-0.00037589 0.00983063 5.90393e-20)
(0.00146685 0.00970692 2.29785e-20)
(0.00175731 0.0102106 -1.10847e-19)
(0.00235737 0.0089874 -2.49206e-19)
(0.00325526 0.0072238 -5.98176e-20)
(0.00515896 0.00628307 -2.63304e-20)
(0.0053859 0.00439195 -1.22849e-22)
(0.00536522 0.00265223 4.21188e-20)
(0.00464852 0.00160244 8.21044e-21)
(0.00348952 0.000296194 -2.37112e-20)
(0.00246275 -0.000644614 3.13271e-20)
(0.00151877 -0.00121953 -1.61878e-20)
(0.000816999 -0.0014575 3.99522e-21)
(0.000375528 -0.00152614 -1.4939e-22)
(9.96504e-05 -0.00143003 0)
(-0.000111755 -0.00122 0)
(-0.000275609 -0.000916784 0)
(-0.000394385 -0.000557992 0)
(-0.000486313 -0.000232497 0)
(-0.000543002 -5.82662e-05 0)
(-0.000573607 0.000198191 0)
(0.000131055 -0.000629979 0)
(7.71806e-05 -0.000856644 0)
(-8.09967e-05 -0.00103169 0)
(-0.000294104 -0.00130693 0)
(-0.00056898 -0.00153098 0)
(-0.000950168 -0.00178383 0)
(-0.00144582 -0.00204719 0)
(-0.00213479 -0.0022595 -1.17355e-21)
(-0.00325464 -0.0023045 9.46772e-21)
(-0.00470881 -0.00213338 -9.51069e-21)
(-0.00628871 -0.00152433 -2.95876e-20)
(-0.00779092 -0.000165521 3.07485e-23)
(-0.00901486 0.00137373 5.70271e-20)
(-0.00928351 0.00243335 -2.02872e-20)
(-0.00867165 0.00476132 -8.77322e-20)
(-0.00876644 0.00545596 -6.55385e-20)
(-0.00922403 0.00667575 -4.14367e-20)
(-0.00645856 0.00924084 -7.84519e-20)
(-0.00466605 0.0103741 5.79783e-20)
(-0.00328412 0.0109349 -2.13939e-19)
(-0.000686371 0.0112972 4.65221e-20)
(0.00203145 0.0112561 -8.02532e-21)
(0.00465971 0.0097269 -7.39352e-20)
(0.00559961 0.00761186 -5.76539e-20)
(0.00710283 0.00671878 1.30303e-19)
(0.00729093 0.00409541 -1.22816e-19)
(0.00744383 0.00164347 -4.19323e-20)
(0.0064544 -0.000261155 1.2239e-20)
(0.0052879 -0.00140367 -1.28286e-20)
(0.00398076 -0.00230457 -1.17541e-21)
(0.00246977 -0.00266463 -1.14305e-20)
(0.00124258 -0.00270226 6.17012e-21)
(0.000372412 -0.00252246 1.05461e-21)
(-9.75933e-05 -0.00219037 0)
(-0.00039973 -0.00182492 0)
(-0.00059751 -0.00150639 0)
(-0.000747326 -0.00124654 0)
(-0.000859762 -0.00100714 0)
(-0.000899681 -0.000823277 0)
(-0.00087277 -0.000551638 0)
(0.000821052 0.000250295 0)
(0.000675719 -0.00050306 0)
(0.000563976 -0.00131238 0)
(0.000388449 -0.00197721 0)
(0.00014144 -0.00245437 0)
(-0.000258554 -0.00290284 0)
(-0.000792933 -0.00334659 7.54499e-22)
(-0.00172716 -0.00375835 1.73763e-21)
(-0.00327754 -0.0038967 6.97913e-21)
(-0.0051559 -0.00370359 -8.77849e-21)
(-0.00715986 -0.00305633 -1.039e-20)
(-0.00902281 -0.00213484 2.36079e-21)
(-0.0109801 -0.00114338 1.00265e-20)
(-0.00905627 0.00034074 -2.02488e-20)
(-0.0119271 0.00214553 2.44964e-20)
(-0.0116888 0.00359745 6.66081e-20)
(-0.00938115 0.00670387 -9.4029e-20)
(-0.00860554 0.00883788 1.23991e-19)
(-0.00621472 0.012207 -1.59261e-19)
(-0.00480255 0.0140645 6.24375e-20)
(-0.000772146 0.014264 -6.62018e-20)
(0.0035891 0.0127578 2.99144e-19)
(0.00727896 0.0108994 1.44898e-19)
(0.00978545 0.00772752 1.10026e-19)
(0.0106702 0.00556592 3.34749e-20)
(0.0109924 0.00346605 6.87754e-20)
(0.0087486 0.0012183 -2.71448e-20)
(0.00905221 -0.00107005 1.49779e-20)
(0.00727498 -0.0028882 -4.63531e-21)
(0.00531026 -0.00366428 7.80638e-22)
(0.00326392 -0.00415502 -2.68613e-21)
(0.00153947 -0.00415756 -8.14876e-21)
(0.000187812 -0.00377773 4.21409e-21)
(-0.000576209 -0.00325963 -2.67032e-22)
(-0.000953112 -0.00273158 0)
(-0.00118154 -0.00223691 0)
(-0.00130532 -0.00170848 0)
(-0.00132374 -0.0011568 0)
(-0.00133043 -0.000317824 0)
(-0.0013662 7.81589e-05 0)
(0.00163642 -0.000611002 0)
(0.00152914 -0.000912245 0)
(0.0013417 -0.00131586 0)
(0.00111159 -0.00176183 0)
(0.000877743 -0.00255444 0)
(0.000589329 -0.00338679 0)
(0.000124339 -0.00422838 1.81858e-21)
(-0.00111684 -0.00486983 -3.42378e-21)
(-0.00307364 -0.00534729 -4.7822e-22)
(-0.00533981 -0.00542396 -3.8861e-21)
(-0.00803928 -0.00468867 -2.61093e-21)
(-0.0107974 -0.00333084 1.01423e-21)
(-0.0126999 -0.00255013 8.19419e-21)
(-0.0149655 0.000594722 -6.30735e-21)
(-0.0137016 0.00154564 8.08855e-21)
(-0.0129255 0.00127876 -1.74044e-20)
(-0.0140375 0.00611406 2.16831e-20)
(-0.0144606 0.00954014 2.37414e-20)
(-0.012064 0.0137371 5.65348e-20)
(-0.00699231 0.0180148 6.5033e-20)
(0.000538856 0.0192754 -8.46769e-20)
(0.00701177 0.0168895 -3.9247e-20)
(0.0105078 0.0126668 -3.26566e-20)
(0.0130555 0.00834535 -1.171e-19)
(0.0145304 0.00410719 -2.51204e-20)
(0.0150655 0.0011132 7.63385e-20)
(0.0142237 -0.00221319 2.38494e-20)
(0.0108499 -0.00404912 -1.2785e-20)
(0.00835524 -0.00475671 2.01656e-20)
(0.0061072 -0.00490942 -6.67831e-21)
(0.00378725 -0.00519668 -9.36033e-21)
(0.00160499 -0.00513221 7.75204e-21)
(-0.000203789 -0.00464378 -1.36434e-21)
(-0.00127453 -0.00385556 1.43642e-21)
(-0.00157392 -0.00290441 0)
(-0.00166132 -0.00195138 0)
(-0.00174577 -0.00115136 0)
(-0.00185048 -0.000605296 0)
(-0.00193744 -0.000588514 0)
(-0.00193609 -8.2454e-05 0)
(0.00246794 -0.000635637 0)
(0.0025429 -0.0015999 0)
(0.0025217 -0.00228946 0)
(0.00256119 -0.00303378 0)
(0.00237947 -0.00369778 0)
(0.00213318 -0.0044014 0)
(0.00153377 -0.00525052 1.02539e-21)
(-4.41205e-05 -0.00594223 3.25642e-22)
(-0.00254114 -0.00621379 -3.04627e-21)
(-0.00526229 -0.00640552 -1.15347e-21)
(-0.00814387 -0.00666872 6.57244e-21)
(-0.0119751 -0.00600536 -8.66837e-21)
(-0.0149684 -0.00317611 5.33862e-21)
(-0.0129793 -0.00341223 -1.91058e-20)
(-0.0175308 -0.00279057 -3.88693e-21)
(-0.0180308 -0.000672121 5.19875e-21)
(-0.0192405 0.00198316 9.68008e-24)
(-0.0217925 0.00811203 -1.83041e-21)
(-0.0211659 0.0161928 1.76903e-21)
(-0.0139952 0.0270043 -1.97756e-19)
(0.000349493 0.0309565 7.81141e-20)
(0.0143283 0.0252272 5.11593e-20)
(0.0200669 0.0150877 4.78562e-21)
(0.0213253 0.0061233 3.53768e-21)
(0.0200061 0.00222 -9.17084e-22)
(0.0170954 -0.00236208 -4.29047e-21)
(0.0152094 -0.00194055 2.51827e-22)
(0.0111565 -0.0079059 1.97059e-21)
(0.00898268 -0.00522029 3.93225e-21)
(0.00720238 -0.00517986 -7.30805e-21)
(0.00434962 -0.00566658 3.22707e-21)
(0.00157048 -0.00576804 -5.271e-22)
(-0.000808151 -0.00523145 -7.42658e-23)
(-0.00235205 -0.0043184 8.56104e-23)
(-0.00287219 -0.00347385 0)
(-0.00302439 -0.00280497 0)
(-0.00308066 -0.00230873 0)
(-0.0029684 -0.00175295 0)
(-0.00276505 -0.00103063 0)
(-0.00264859 -0.000676304 0)
(0.00321616 0.000493037 0)
(0.00294697 -0.000486772 0)
(0.00312448 -0.00153396 0)
(0.00322029 -0.00264716 0)
(0.00336446 -0.00364356 0)
(0.00343073 -0.00465343 0)
(0.00280757 -0.00557329 -1.57086e-22)
(0.0009171 -0.0063266 -1.82142e-22)
(-0.00193737 -0.0066707 -4.86966e-22)
(-0.0047852 -0.00671131 6.18793e-22)
(-0.00724498 -0.00764705 -1.16483e-21)
(-0.0109254 -0.00784426 1.26849e-21)
(-0.0146316 -0.00619021 -5.12983e-22)
(-0.0167355 -0.00638234 8.89228e-21)
(-0.0186278 -0.00687066 6.58143e-21)
(-0.0217625 -0.005955 -1.23957e-20)
(-0.0258637 -0.0042296 7.61729e-21)
(-0.0319405 0.00026189 -1.87515e-21)
(-0.0452119 0.017998 1.47525e-19)
(0.0447463 0.0162767 1.96032e-19)
(0.0313827 -0.00320025 -1.64997e-21)
(0.023663 -0.0088152 1.07373e-20)
(0.0185013 -0.0106995 3.92625e-21)
(0.0143037 -0.00889842 -6.22059e-21)
(0.0107107 -0.00996743 2.75465e-22)
(0.0100025 -0.0067891 3.50106e-22)
(0.00797725 -0.00607764 -8.80929e-22)
(0.00471061 -0.00602453 -4.86207e-24)
(0.00135794 -0.00572189 -1.73564e-22)
(-0.00159031 -0.00512949 1.16571e-23)
(-0.00359001 -0.00420933 1.25737e-25)
(-0.00385575 -0.00300853 0)
(-0.00361381 -0.00196633 0)
(-0.00335071 -0.000955482 0)
(-0.00320509 -0.00028544 0)
(-0.00324822 0.000284483 0)
(-0.00343244 0.000604894 0)
(0.00421675 -0.00185631 0)
(0.00439414 -0.00242529 0)
(0.00437935 -0.00278666 0)
(0.00437159 -0.0031584 0)
(0.00447717 -0.0038261 0)
(0.00451962 -0.0046005 0)
(0.00387094 -0.00538804 4.58637e-22)
(0.00163536 -0.0061297 -4.24909e-22)
(-0.00109872 -0.00694729 -2.49775e-22)
(-0.00425917 -0.00742714 1.29201e-21)
(-0.00668584 -0.0089844 1.44223e-21)
(-0.00890315 -0.0109451 4.07904e-21)
(-0.0130746 -0.0109433 -3.56624e-21)
(-0.0135756 -0.00744592 -2.03814e-21)
(-0.0144911 -0.0101037 1.49891e-20)
(-0.0192613 -0.014033 5.66521e-21)
(-0.0250556 -0.0163314 1.90113e-21)
(-0.0353422 -0.0194283 -2.83682e-21)
(-0.00249332 -0.00441378 1.75007e-18)
(0.000982061 -0.00533205 -1.30697e-20)
(0.0376596 -0.0198036 -1.30094e-22)
(0.0238639 -0.018474 -1.14261e-21)
(0.0184798 -0.0182754 3.31075e-21)
(0.0143266 -0.0168011 -2.08839e-21)
(0.0108067 -0.0106247 3.36694e-21)
(0.010415 -0.00596274 1.53088e-21)
(0.00762114 -0.00549952 -4.6877e-21)
(0.00437329 -0.00524028 4.70468e-21)
(0.00135846 -0.00473927 -7.93394e-22)
(-0.00220284 -0.00425378 -6.46738e-22)
(-0.0049661 -0.00347126 -1.60413e-22)
(-0.00558736 -0.0023517 0)
(-0.00503638 -0.00137208 0)
(-0.00471691 -0.000843118 0)
(-0.00456818 -0.00044489 0)
(-0.00446365 -0.000760903 0)
(-0.00435059 -0.000882976 0)
(0.00379072 0.000621485 2.69382e-23)
(0.00470445 -0.000616862 0)
(0.00479416 -0.00147958 0)
(0.005102 -0.0022214 0)
(0.00539131 -0.00290901 0)
(0.00545289 -0.00376751 0)
(0.00439312 -0.00475045 -7.4274e-23)
(0.00177764 -0.00529724 3.35826e-21)
(-0.00099326 -0.00597666 -5.17651e-21)
(-0.00370855 -0.00650601 6.63713e-22)
(-0.00644623 -0.00693104 1.61445e-20)
(-0.0114101 -0.00893606 4.58466e-21)
(-0.0182905 -0.0130247 -2.05149e-20)
(-0.0235314 -0.0107187 8.76987e-21)
(-0.0135763 -0.0125976 2.17648e-20)
(-0.00580854 -0.0193516 -1.34956e-20)
(-0.0158491 -0.0275922 -5.2106e-20)
(-0.0547048 -0.0425837 -7.58348e-21)
(-0.0160773 -0.0313161 1.50026e-19)
(0.0770572 0.0235832 1.03271e-19)
(0.0420751 -0.0243754 2.20116e-20)
(0.0191239 -0.0285743 2.14062e-20)
(0.0101637 -0.0256352 -1.62377e-20)
(0.00099295 -0.0203753 2.28066e-20)
(-0.00464291 -0.0101907 5.46082e-21)
(0.0016178 -0.00898339 1.02649e-20)
(0.00506503 -0.00769744 3.37955e-21)
(0.00296031 -0.00490919 -6.4254e-21)
(-2.50966e-05 -0.00365731 1.59496e-21)
(-0.00382236 -0.00299124 2.14959e-21)
(-0.0070207 -0.00221722 2.08367e-22)
(-0.0075116 -0.00171322 0)
(-0.00696991 -0.00125541 0)
(-0.00654375 -0.000970922 0)
(-0.00605113 -0.000709443 0)
(-0.00527398 -8.72725e-05 0)
(-0.00540567 0.000318488 0)
(0.00286902 -0.0009255 3.49658e-24)
(0.00335641 0.000137693 0)
(0.00454386 -0.000248633 0)
(0.00518893 -0.001421 0)
(0.00564984 -0.00264486 0)
(0.00600242 -0.00338633 0)
(0.00410858 -0.00405718 4.66593e-22)
(0.00103755 -0.00414129 -1.39261e-21)
(-0.00263209 -0.0045577 1.10221e-22)
(-0.00496607 -0.0044743 2.02431e-21)
(-0.0107183 -0.00296895 -1.11296e-20)
(-0.0139087 -0.00638481 4.0169e-20)
(-0.00931933 -0.0123814 -3.33751e-20)
(0.00339363 -0.0111318 5.04905e-20)
(-0.0014911 -0.0144818 1.05336e-19)
(-0.0042366 -0.0147156 1.27306e-19)
(0.00990958 -0.0308325 2.91476e-20)
(-0.0313726 -0.0852536 1.2707e-20)
(-0.321043 -0.160375 4.93812e-20)
(-0.21056 0.370228 8.55952e-20)
(0.372085 0.167144 -3.06864e-21)
(-0.181428 -0.188236 1.41781e-20)
(0.213531 0.209024 5.29121e-22)
(0.079317 -0.00240601 -6.24459e-20)
(0.0180628 -0.0542546 -1.47196e-20)
(0.00885631 -0.043167 -7.46705e-20)
(0.00733515 -0.0260123 7.97127e-20)
(-0.00410047 -0.00909154 2.89646e-20)
(-0.00660984 -0.00816506 -2.68314e-20)
(-0.00310385 -0.00676247 4.43908e-21)
(-0.000728714 -0.0031048 -2.04679e-21)
(-0.00279432 -0.00173318 -1.67391e-21)
(-0.00558702 -0.000996137 -3.45337e-21)
(-0.0083891 0.000145781 7.39792e-22)
(-0.00775992 0.000862729 0)
(-0.0065562 0.00130525 0)
(-0.00540515 0.00109955 0)
(-0.00492378 0.000609723 0)
(-0.00538825 0.000347804 0)
(-0.00565581 0.00132611 0)
(0.00692487 0.000765032 -1.45079e-21)
(0.00611586 -0.00120089 0)
(0.00528707 -0.00241416 0)
(0.00560677 -0.00281202 0)
(0.00587013 -0.00316338 0)
(0.00583149 -0.0040274 0)
(0.00447731 -0.00390566 2.53763e-23)
(0.000807788 -0.00443398 1.99648e-21)
(-0.00438094 -0.00622853 3.97531e-21)
(-0.0110131 -0.00718143 5.47666e-22)
(-0.0128983 -0.0157184 1.02738e-20)
(-0.0105353 -0.014877 -5.09426e-20)
(-0.00409345 0.0146877 3.99197e-20)
(0.00277204 0.00383298 -5.39824e-21)
(-0.00449109 -0.0249711 -2.07877e-20)
(-0.00523214 -0.051442 9.79926e-20)
(0.0339143 0.0212096 2.38709e-21)
(0.041642 -0.134948 5.48056e-19)
(-0.810688 0.0545874 2.09413e-19)
(0.351686 -0.580848 -4.99467e-19)
(-0.0785068 -0.100492 1.86405e-19)
(0.422741 0.250692 7.06495e-20)
(0.211409 -0.582566 -1.92233e-19)
(0.358164 -0.0269606 4.2125e-20)
(-0.0335553 -0.0955193 -5.69403e-21)
(-0.0358176 -0.0190456 -7.31286e-20)
(0.00019402 -0.00352179 2.68857e-20)
(-0.00979257 -0.031058 4.82722e-20)
(-0.0111249 0.00800665 2.45279e-20)
(-0.0112477 0.0132358 -1.14612e-20)
(-0.00984395 0.00513057 -2.08246e-21)
(-0.00630478 0.00572219 -3.65507e-21)
(-0.00720819 0.00383513 6.72223e-23)
(-0.0091238 0.00346811 1.05275e-23)
(-0.0089945 0.00375376 0)
(-0.0073027 0.00330824 0)
(-0.00630337 0.00306091 0)
(-0.0058411 0.00250102 0)
(-0.00492133 0.000713668 0)
(-0.00383897 -0.0014016 -1.99411e-21)
(0.00739674 -0.00226545 3.21647e-21)
(0.00664625 -0.00151811 0)
(0.00752865 -0.0018894 0)
(0.00713652 -0.00266518 0)
(0.00710645 -0.00309646 0)
(0.0076289 -0.0032301 0)
(0.00554787 -0.00336297 0)
(-0.000940665 -0.00514888 -1.79752e-22)
(-0.0062354 -0.0083449 -2.36772e-21)
(-0.0070406 -0.0142538 -3.19274e-21)
(-0.0115598 -0.0131766 1.23594e-20)
(-0.0168328 -0.0160024 1.63758e-20)
(-0.02473 -0.0205477 -2.75691e-20)
(-0.00346893 0.0195108 -4.86293e-21)
(-9.68108e-05 -0.00224103 -7.26791e-21)
(-0.000823729 -0.0401042 7.61185e-20)
(-0.130835 -0.000399454 1.06823e-19)
(-0.692407 0.578129 -6.42143e-19)
(3.17983 0.0434007 5.24385e-19)
(-0.289033 -2.29446 2.17572e-19)
(-4.14612 0.00649385 5.73919e-19)
(1.87357 1.62951 -1.11346e-18)
(1.43434 -0.586763 -8.62161e-20)
(-0.155127 -0.613633 3.01958e-19)
(-0.176451 0.0241908 1.08292e-19)
(-0.0551588 -0.0360512 -2.12374e-20)
(-0.0428677 -0.0247261 1.6635e-20)
(-0.0428487 0.0278861 -1.46553e-20)
(-0.0230618 0.0232456 3.71373e-21)
(-0.0113408 0.0201471 -4.43993e-21)
(-0.00671852 0.0202344 5.46061e-22)
(-0.00958499 0.0133317 -1.16597e-22)
(-0.0101674 0.00874472 4.76947e-22)
(-0.00901555 0.00638072 0)
(-0.00818797 0.00533191 0)
(-0.00735327 0.00430822 0)
(-0.00620393 0.0030146 0)
(-0.0049766 0.00169119 0)
(-0.00530871 0.00123337 0)
(-0.00404304 0.00186499 -2.74854e-21)
(0.00782284 0.00219023 -2.05491e-22)
(0.00835128 -0.000648215 0)
(0.00664131 -0.00170117 0)
(0.00720656 -0.00204941 0)
(0.00833833 -0.00222657 0)
(0.00920251 -0.00195802 0)
(0.010518 0.000266783 0)
(0.0110643 6.59153e-05 0)
(0.00760904 -0.00151237 1.09507e-22)
(0.00170386 -0.00375469 -2.74542e-21)
(0.0018984 -0.00526634 5.12849e-21)
(-0.00646708 -0.00547771 -1.28782e-20)
(-0.00275235 -0.0270907 2.01184e-20)
(-0.0728242 -0.058576 -4.42051e-21)
(0.0546788 0.00448215 -4.11264e-20)
(0.0792006 0.0344326 -3.85876e-20)
(-0.278738 -0.222805 3.72308e-20)
(0.379622 -0.676309 -1.75687e-19)
(0.0911125 0.796582 1.90251e-19)
(0.339349 3.58203 5.69309e-19)
(-0.767262 -0.80997 -4.02542e-19)
(0.572662 -3.86914 -1.58457e-19)
(0.0204456 -0.261266 1.53112e-19)
(-0.32487 0.375341 -2.0052e-18)
(-0.112878 0.0643704 -7.68011e-21)
(-0.0281238 -0.000708511 5.18695e-20)
(-0.121151 0.098455 -1.76746e-20)
(-0.0214796 0.0604528 1.3451e-20)
(-0.00855054 0.0305871 -1.86706e-21)
(0.00556749 0.0241616 -9.33076e-21)
(0.00603712 0.0177536 4.04687e-22)
(0.00780585 0.0129181 3.37191e-22)
(0.00443691 0.00832678 0)
(-0.00213955 0.00679153 0)
(-0.00452104 0.00701049 0)
(-0.00399543 0.00556093 0)
(-0.00369176 0.00408807 -2.03163e-21)
(-0.00317772 0.0027907 -2.80962e-21)
(-0.000952676 0.00151267 -1.6754e-21)
(-0.00163715 -0.00186734 0)
(0.00580091 -0.000966464 0)
(0.00838149 -0.000303311 0)
(0.00920149 -0.00102105 0)
(0.00856091 -0.00156326 0)
(0.00775404 -0.00196623 0)
(0.0062196 -0.00292246 0)
(0.00317746 -0.00321752 0)
(0.000452726 0.000339284 0)
(0.00145956 0.00486764 2.39366e-24)
(0.00339098 0.00760098 -3.22881e-22)
(0.00554637 0.00772119 -2.91934e-23)
(0.0145037 0.00925627 1.46555e-22)
(0.0152878 0.0181782 -5.22801e-21)
(0.0625338 -0.0255052 -1.92859e-20)
(-0.0925506 -0.0482928 -2.84883e-19)
(0.146449 -0.0204123 -4.50746e-20)
(1.07212 -0.213542 4.50588e-21)
(-1.63716 -0.379356 1.52299e-19)
(-1.69493 -0.749131 9.05103e-20)
(1.54581 -1.22979 1.63015e-21)
(3.34618 0.133393 -1.20189e-19)
(0.718721 1.27973 1.29795e-19)
(-2.34197 0.685548 4.66536e-20)
(-1.17003 0.584012 -9.93256e-21)
(0.555053 -0.0720823 2.94679e-20)
(-0.154112 0.157162 1.54753e-20)
(0.0319341 0.105677 -9.05021e-21)
(0.010143 0.0425123 -7.23491e-21)
(0.0249559 0.0360836 -2.4207e-21)
(0.0181899 0.0246129 3.26747e-22)
(0.0136173 0.0165772 3.38635e-22)
(0.00646961 0.013112 1.07096e-24)
(-0.00200931 0.0134334 0)
(-0.00540818 0.0139163 0)
(-0.0036543 0.0105656 0)
(-0.00131997 0.00739447 0)
(0.000548434 0.00537355 0)
(0.00197976 0.00332032 0)
(0.00135002 0.0016549 0)
(-0.00166634 0.0016496 3.01742e-22)
(0.0101162 -0.00142992 0)
(0.00916038 -0.00128978 0)
(0.0100131 -0.00025354 0)
(0.0105967 -0.000782876 0)
(0.0104451 -0.00258844 0)
(0.010452 -0.00459876 0)
(0.00739577 -0.00941751 0)
(-0.00239375 -0.0137353 0)
(-0.00855774 -0.0107913 0)
(-0.00973676 -0.00291512 0)
(-0.00993382 0.00837003 -9.83771e-23)
(-0.00316768 0.0162928 -1.10913e-21)
(-0.000867492 0.0362278 -4.43097e-22)
(-0.0104353 0.0777917 -3.63315e-21)
(-0.0141645 0.0353919 -6.90755e-19)
(-0.541811 0.192555 -1.12895e-20)
(0.732215 1.15226 -4.1423e-19)
(1.95668 -0.428307 -5.16384e-20)
(-0.212158 -2.42648 2.05915e-19)
(-1.32798 -1.71466 1.32886e-19)
(-1.80362 0.534738 -1.08422e-20)
(-1.37618 2.51776 -3.92946e-19)
(-0.0412273 2.49046 -8.06439e-21)
(2.12549 -0.00630196 9.01872e-20)
(-0.623186 -0.514219 2.56115e-20)
(-0.200443 0.0440083 -9.40666e-21)
(-0.00668531 0.0405228 -6.91056e-22)
(0.0241776 0.0452403 1.55817e-21)
(0.0284181 0.0437074 -1.57818e-21)
(0.0193787 0.0336322 2.82041e-22)
(0.013512 0.0334515 0)
(0.00438852 0.0321068 0)
(0.00107955 0.0295146 0)
(0.00381621 0.0207768 0)
(0.00415773 0.0125664 0)
(0.00386947 0.0082469 0)
(0.00405057 0.0049078 0)
(0.00339567 0.00310435 0)
(0.00250688 0.00287252 0)
(0.00317039 0.00194384 0)
(0.0126198 0.00153919 0)
(0.010278 0.000859882 0)
(0.0102623 5.2959e-05 0)
(0.0115916 -0.000383027 0)
(0.0133025 -0.000968479 0)
(0.0152967 -0.000848008 0)
(0.0172334 -0.000353125 0)
(0.012809 -0.00637347 0)
(0.00036302 -0.0145312 0)
(-0.011049 -0.0193545 0)
(-0.0171761 -0.022244 0)
(-0.0257988 -0.0232231 2.82958e-23)
(0.000164092 -0.0139596 1.87525e-21)
(-0.0256112 -0.0383612 1.9141e-21)
(-0.0346021 -0.0555069 -2.38965e-19)
(-0.493154 -0.433153 -8.87677e-22)
(-1.01879 0.179937 -2.224e-19)
(1.32477 3.53764 -1.26624e-20)
(0.726791 4.48039 1.17786e-20)
(-0.330319 2.6847 -1.93899e-19)
(-0.44795 -0.0342001 1.23011e-19)
(-0.139021 -2.63543 2.54574e-19)
(1.13654 -4.23335 -4.00301e-20)
(0.987851 -2.54726 1.19433e-19)
(-1.88398 0.715135 4.19644e-20)
(-0.073272 0.34731 9.55338e-20)
(0.0419403 0.169574 2.84277e-20)
(0.0687519 0.10246 5.04004e-22)
(0.0335969 0.0848394 5.58387e-23)
(0.0325143 0.0645037 0)
(0.0259039 0.0482106 0)
(0.022709 0.0344044 0)
(0.0229238 0.0201103 0)
(0.0180818 0.00980891 0)
(0.0119032 0.00747403 0)
(0.00825276 0.0056101 0)
(0.00558831 0.00381353 0)
(0.00368567 0.00246985 0)
(0.00373114 0.000566681 0)
(0.00612358 -0.00107967 0)
(0.00625394 -0.000934542 0)
(0.00945826 -0.00161116 0)
(0.0108184 -0.00223557 0)
(0.0107644 -0.00172914 0)
(0.0109623 -0.000768042 0)
(0.0108451 0.000175773 0)
(0.0111466 0.00349676 0)
(0.0127624 0.00808427 0)
(0.00921837 0.0067703 0)
(0.00175954 0.00271756 0)
(-0.00304889 -0.00803153 2.31271e-21)
(2.25807e-05 -0.00697783 0)
(0.0032998 -0.0237167 0)
(0.10242 0.0202807 7.68483e-21)
(0.401825 0.0798646 -2.63643e-19)
(0.337939 -0.373022 -3.90439e-19)
(-2.09054 -2.10649 2.69046e-21)
(-1.32115 -2.77689 -4.28558e-20)
(0.384967 -1.59033 2.23424e-20)
(1.09842 -0.505038 -1.10046e-18)
(1.18209 0.33418 -1.3166e-19)
(0.889368 1.40857 2.65036e-19)
(-0.454937 2.89255 6.5539e-20)
(-2.19698 3.41715 -1.0016e-20)
(-0.868635 1.55059 -3.19984e-21)
(0.57441 0.0614116 -1.18409e-19)
(0.229092 0.0806467 7.67495e-20)
(0.113816 0.0951994 0)
(0.0900851 0.0533985 0)
(0.0677528 0.0400266 3.82277e-21)
(0.0524656 0.0187982 0)
(0.0417279 0.00720236 0)
(0.0294001 0.00122682 0)
(0.0162229 0.00269232 0)
(0.010545 0.00402256 0)
(0.00824444 0.00363035 0)
(0.0067635 0.00369143 0)
(0.00587427 0.00359822 3.34371e-22)
(0.00401536 0.00235533 2.39881e-22)
(0.000577581 0.00110376 0)
(0.0149443 -0.00162482 0)
(0.0132522 -0.00235013 0)
(0.0113052 -0.00262233 0)
(0.00983565 -0.00375123 0)
(0.00896573 -0.0043923 0)
(0.00808354 -0.00532905 0)
(0.00533914 -0.00642327 0)
(0.00154074 -0.00174806 0)
(-0.00134639 0.00680293 0)
(-0.00650313 0.0138497 0)
(-0.016644 0.0221064 -6.36877e-21)
(-0.0168116 0.0435571 0)
(-0.0298838 0.054028 0)
(-0.107747 0.124593 -1.53801e-20)
(0.0995265 0.380855 -1.38343e-19)
(1.4501 1.12387 -6.4022e-20)
(1.25168 1.0496 0)
(0.242561 0.349138 -7.70177e-20)
(-0.114875 -0.264045 1.91245e-20)
(-0.508485 0.222802 7.86294e-19)
(-0.397956 -0.0136258 6.14056e-19)