/*--------------------------------*- C++ -*----------------------------------*\
| =========                 |                                                 |
| \\      /  F ield         | OpenFOAM: The Open Source CFD Toolbox           |
|  \\    /   O peration     | Version:  v2106                                 |
|   \\  /    A nd           | Website:  www.openfoam.com                      |
|    \\/     M anipulation  |                                                 |
\*---------------------------------------------------------------------------*/
FoamFile
{
    version     2.0;
    format      ascii;
    arch        "LSB;label=32;scalar=64";
    class       volScalarField;
    location    "0";
    object      p;
}
// * * * * * * * * * * * * * * * * * * * * * * * * * * * * * * * * * * * * * //

dimensions      [0 2 -2 0 0 0 0];

internalField   nonuniform List<scalar> 
11644
(
0.0273092
0.02775
0.0286823
0.0301303
0.032102
0.0346163
0.0376995
0.0413759
0.0456611
0.0505568
0.056049
0.0620834
0.0685753
0.0754128
0.082416
0.0893936
0.0960977
0.102258
0.107664
0.112108
0.11537
0.117307
0.117974
0.117611
0.116257
0.113976
0.111056
0.107722
0.104155
0.100551
0.097043
0.0937313
0.090694
0.0879827
0.0856308
0.0836586
0.0820773
0.0808958
0.0801242
0.0797564
0.0265446
0.026977
0.0278708
0.0292544
0.031154
0.0335967
0.0366121
0.0402313
0.0444805
0.0493773
0.0549184
0.0610797
0.0678014
0.0749441
0.0823573
0.0897999
0.0969995
0.103674
0.109506
0.114174
0.117458
0.119331
0.11985
0.119181
0.117466
0.114871
0.111609
0.107945
0.104113
0.100287
0.0966085
0.0931814
0.0900697
0.0873166
0.0849471
0.0829752
0.0814079
0.0802466
0.0794886
0.079122
0.0248534
0.025285
0.0261437
0.027448
0.0292348
0.0315455
0.0344233
0.037916
0.0420746
0.0469454
0.0525677
0.0589647
0.0661055
0.0739105
0.0821917
0.0906756
0.0990367
0.106829
0.113499
0.118692
0.122215
0.124046
0.124146
0.122744
0.120142
0.116674
0.112635
0.108291
0.103893
0.0996363
0.0956467
0.0920077
0.0887656
0.0859413
0.0835428
0.0815678
0.0800093
0.0788555
0.0780903
0.0777051
0.0223192
0.0227197
0.0235141
0.0247097
0.0263428
0.0284637
0.0311317
0.034418
0.0384058
0.0431938
0.0488861
0.0555782
0.0633379
0.0721202
0.0818142
0.091991
0.10213
0.111789
0.120027
0.126312
0.130266
0.131782
0.130932
0.128197
0.124175
0.119267
0.113948
0.108565
0.103343
0.0984636
0.094042
0.0901224
0.0867158
0.0838104
0.0813818
0.0794044
0.0778524
0.0767005
0.0759298
0.0755376
0.0190457
0.0193892
0.0200697
0.0210996
0.0225141
0.0243653
0.026726
0.0296908
0.0333816
0.0379544
0.043606
0.0505807
0.0590853
0.0692514
0.0809623
0.0936542
0.106386
0.119138
0.130036
0.138043
0.142513
0.143189
0.140597
0.135446
0.129083
0.122012
0.114925
0.108186
0.102008
0.0964478
0.091553
0.0873498
0.0837973
0.0808323
0.0783971
0.0764392
0.0749145
0.0737882
0.0730373
0.0726594
0.015168
0.0154207
0.0159351
0.0167266
0.0178289
0.0192966
0.0212079
0.0236727
0.0268463
0.0309756
0.0364136
0.0435528
0.0527787
0.0643068
0.0785066
0.0949436
0.111863
0.129408
0.144692
0.155742
0.1609
0.159743
0.153726
0.14438
0.134167
0.123913
0.114341
0.106063
0.0989968
0.0929653
0.0877956
0.0834311
0.0798229
0.076883
0.0745143
0.0726382
0.0711938
0.0701381
0.0694411
0.0690902
0.0108191
0.0109707
0.0112724
0.0117448
0.0124231
0.0133604
0.0146313
0.0163501
0.0187111
0.0220933
0.0269527
0.0337484
0.0429184
0.0555931
0.0724911
0.0935188
0.111858
0.134031
0.155504
0.17246
0.180858
0.179545
0.170348
0.15667
0.138076
0.12336
0.110783
0.100989
0.0933473
0.0872185
0.0822088
0.0780398
0.074603
0.0718515
0.0696813
0.0679914
0.0667088
0.0657803
0.0651779
0.0648784
0.0061875
0.00620676
0.00625433
0.00633993
0.00648914
0.00674033
0.00715871
0.00784939
0.00905763
0.0112055
0.0146883
0.0200389
0.028212
0.0408432
0.0576658
0.0794733
0.110169
0.14577
0.181333
0.209514
0.221437
0.214793
0.194606
0.169385
0.144982
0.123055
0.108158
0.0917944
0.0842378
0.0786146
0.0743022
0.0708347
0.0679667
0.0656634
0.0638803
0.0625188
0.0615046
0.0607871
0.0603203
0.0600949
0.00148174
0.00136213
0.00112331
0.000763105
0.000290905
-0.000280081
-0.000909341
-0.00152645
-0.00188718
-0.00167387
-0.000596447
0.00176508
0.00609283
0.0205797
0.0350642
0.0598052
0.0939764
0.143051
0.203027
0.256056
0.280559
0.265612
0.225025
0.181045
0.142643
0.11254
0.0953124
0.0769143
0.0709705
0.0669311
0.0639797
0.0617007
0.0598437
0.0583344
0.05718
0.056321
0.05569
0.0552461
0.0549619
0.0548116
-0.00305339
-0.00330302
-0.00384401
-0.00467511
-0.00582212
-0.00730509
-0.00913997
-0.011305
-0.0136774
-0.0161846
-0.0186905
-0.0209999
-0.023165
-0.0133672
-0.00660531
0.0154817
0.050926
0.112642
0.212085
0.331356
0.392553
0.346035
0.249225
0.170278
0.115616
0.0811494
0.069056
0.0552334
0.0534792
0.0522928
0.0514477
0.0508678
0.0504181
0.0500208
0.0497254
0.0495317
0.0494068
0.0493175
0.0492637
0.0492386
-0.00708205
-0.00750927
-0.00835004
-0.00965573
-0.011467
-0.0138577
-0.0169487
-0.0208006
-0.0254712
-0.0312309
-0.0383244
-0.0469628
-0.0576137
-0.0591198
-0.068204
-0.0687756
-0.0589006
-0.0288148
0.0872669
0.358856
0.582453
0.390032
0.167153
0.0714017
0.038088
0.0269655
0.030568
0.0280731
0.0322366
0.035065
0.0372063
0.0388819
0.0401518
0.0410826
0.0418209
0.0424201
0.0428858
0.0432253
0.0434336
0.0435257
-0.0104501
-0.0109774
-0.012079
-0.0137977
-0.0162012
-0.0194068
-0.0236245
-0.0290501
-0.0359535
-0.0448859
-0.0565762
-0.0720782
-0.0927638
-0.103689
-0.139493
-0.171532
-0.230764
-0.350362
-0.649039
-0.36303
-0.153655
-0.0744336
-0.0374556
-0.0135293
-0.00122706
0.00928721
0.0168206
0.0224373
0.0265977
0.029707
0.0320582
0.0338929
0.0353274
0.036393
0.0371572
0.037659
0.0379169
-0.0128774
-0.0135085
-0.0148087
-0.0168081
-0.0196364
-0.0234212
-0.0284101
-0.034942
-0.0434696
-0.0547014
-0.0696581
-0.0899547
-0.117265
-0.141345
-0.193364
-0.253521
-0.359022
-0.563042
-0.812991
-0.403841
-0.279739
-0.153623
-0.087647
-0.0502854
-0.0261278
-0.0107827
0.000493586
0.00890203
0.0151576
0.0199183
0.0235893
0.0264359
0.0286255
0.0302502
0.031425
0.0322218
0.0326173
-0.0141499
-0.0149022
-0.0162994
-0.0184439
-0.0214402
-0.0254498
-0.0306938
-0.0375787
-0.046672
-0.058671
-0.0746552
-0.0961399
-0.124922
-0.1556
-0.210681
-0.278614
-0.382643
-0.532647
-0.607357
-0.32077
-0.258624
-0.164723
-0.104282
-0.0695678
-0.0414285
-0.0245973
-0.0117121
-0.00185435
0.0057107
0.0116365
0.0163214
0.0199743
0.0227394
0.0247883
0.0262555
0.0272191
0.0277701
-0.0145202
-0.0151313
-0.0164704
-0.0185399
-0.0214125
-0.0252647
-0.0301967
-0.0365831
-0.0450513
-0.0561177
-0.0707119
-0.0897249
-0.114404
-0.145257
-0.193276
-0.258312
-0.356836
-0.508622
-0.643243
-0.690588
-0.609565
-0.385594
-0.238692
-0.172799
-0.132577
-0.0966972
-0.0717811
-0.0467908
-0.0314884
-0.0189598
-0.00893683
-0.000963478
0.00548161
0.0107247
0.0148639
0.017976
0.020284
0.0219153
0.0229674
0.0234497
-0.0138704
-0.014323
-0.0154664
-0.0172277
-0.0196792
-0.0229198
-0.0269383
-0.0320364
-0.0386823
-0.0471158
-0.0578075
-0.0714052
-0.0883556
-0.115199
-0.149027
-0.199645
-0.283744
-0.431995
-0.68045
-0.832108
-0.719049
-0.357143
-0.116101
-0.0851329
-0.101625
-0.0855295
-0.0676175
-0.0456662
-0.0325846
-0.0214036
-0.0121634
-0.00448108
0.00188525
0.0071858
0.0113662
0.0145489
0.016954
0.0186495
0.0196692
0.0199604
-0.0119224
-0.0123812
-0.0132423
-0.01455
-0.0163297
-0.0185805
-0.021284
-0.0244415
-0.0283529
-0.0331193
-0.0387946
-0.0457267
-0.0538833
-0.0616689
-0.0883348
-0.111207
-0.164261
-0.233633
-0.35701
-0.486665
-0.469915
-0.286299
-0.148293
-0.137583
-0.114687
-0.0866815
-0.0584444
-0.0422355
-0.0302808
-0.0201678
-0.0118575
-0.00484607
0.00104046
0.0058606
0.0096589
0.0126252
0.0148581
0.0164056
0.0173583
0.0177895
-0.00885207
-0.00922235
-0.00972873
-0.0104621
-0.0113989
-0.0125278
-0.0138547
-0.0150886
-0.016313
-0.0175449
-0.0184564
-0.0188852
-0.0183301
-0.017316
-0.0258336
-0.0254109
-0.0441125
-0.0725145
-0.134472
-0.244912
-0.340245
-0.344389
-0.304367
-0.239271
-0.142948
-0.0934936
-0.054826
-0.038107
-0.0259962
-0.0164137
-0.00890852
-0.00273302
0.00234987
0.00643835
0.00965862
0.0121758
0.0140781
0.0154426
0.0163636
0.0168824
-0.00505548
-0.00514479
-0.00532407
-0.00554277
-0.00574045
-0.00586775
-0.00588036
-0.0055629
-0.00475639
-0.00316386
-0.000389486
0.00404539
0.0112678
0.0185925
0.0218883
0.0364997
0.035682
0.0152285
-0.0834609
-0.262007
-0.409353
-0.444428
-0.375716
-0.249814
-0.135067
-0.0850851
-0.0462132
-0.0300971
-0.0186962
-0.0102642
-0.00387534
0.00120864
0.00529924
0.00854672
0.0110906
0.0130849
0.014612
0.015738
0.0165159
0.0169408
-0.00103161
-0.000953254
-0.000856933
-0.000676974
-0.000346215
0.000215286
0.00114598
0.00259086
0.00482472
0.00818169
0.0130674
0.0199348
0.0305468
0.0415002
0.0484876
0.0655342
0.0662872
0.0284743
-0.0749524
-0.234382
-0.344658
-0.343573
-0.262602
-0.166655
-0.0914777
-0.0587006
-0.0275312
-0.0158315
-0.0075496
-0.00146985
0.00309393
0.00668676
0.0095456
0.01181
0.0135971
0.015016
0.0161056
0.0169029
0.0174373
0.0177142
0.00275699
0.00290144
0.00319813
0.00364881
0.0042999
0.00524483
0.00658613
0.00849022
0.0112058
0.0150069
0.0201276
0.0265636
0.0356806
0.0447515
0.0515162
0.057287
0.0469878
0.00451443
-0.0672386
-0.144479
-0.184554
-0.172141
-0.130365
-0.0892076
-0.0484535
-0.0276896
-0.00581663
0.00103144
0.00574735
0.00906868
0.0113438
0.0131104
0.0145315
0.0157185
0.0167065
0.0175122
0.0181382
0.0185832
0.0188593
0.0189984
0.00629326
0.0064628
0.00682167
0.00737309
0.00814174
0.00918306
0.0105501
0.012317
0.0146176
0.0175773
0.0212147
0.0253798
0.0296901
0.0347871
0.0222438
0.0140428
-0.00881078
-0.0566327
-0.107477
-0.127885
-0.121718
-0.0968765
-0.0649428
-0.036803
-0.0162085
0.00562684
0.0128508
0.0166949
0.0186037
0.019264
0.0194704
0.0195278
0.0195728
0.0196881
0.0198776
0.0200966
0.020304
0.0204658
0.0205543
0.0205685
0.00957163
0.00973911
0.0100826
0.010619
0.0113466
0.0122868
0.0134596
0.0148468
0.0164055
0.0180344
0.0193837
0.0207589
0.0186825
0.0138979
-0.000753759
-0.0575065
-0.11119
-0.162982
-0.206645
-0.201864
-0.156446
-0.100042
-0.0473906
-0.0105474
0.0107124
0.0233714
0.0271629
0.0291521
0.0289167
0.027561
0.0262239
0.0249705
0.0239574
0.023204
0.0227269
0.0224238
0.0222502
0.0221693
0.0221372
0.0221091
0.0125478
0.0126918
0.0130062
0.0134893
0.0141298
0.0149163
0.0158303
0.0168271
0.0177498
0.0183272
0.0179123
0.0161694
0.0101252
-0.00271842
-0.0271136
-0.0788373
-0.138279
-0.205049
-0.267159
-0.276825
-0.214322
-0.142946
-0.071666
-0.0177262
0.0152122
0.0321574
0.0378068
0.0379251
0.036051
0.0334722
0.0310409
0.0289107
0.0272626
0.0259851
0.0250794
0.0243899
0.0239161
0.0236201
0.0234647
0.023456
0.0152146
0.0153443
0.0156367
0.0160792
0.0166608
0.0173494
0.0180858
0.0188012
0.0193067
0.0193206
0.0181116
0.0149463
0.00801813
-0.00658667
-0.0329389
-0.0748227
-0.12814
-0.184924
-0.234813
-0.242361
-0.193317
-0.132975
-0.0718864
-0.0223231
0.0109675
0.0323911
0.0426703
0.0437747
0.0405715
0.0372203
0.0340932
0.031515
0.0295467
0.0280268
0.026866
0.0259929
0.025383
0.0249817
0.0247513
0.0247043
0.0174886
0.0176381
0.0179605
0.0184207
0.0190039
0.0196712
0.0203574
0.0209764
0.0214134
0.0214682
0.020668
0.0181667
0.0131776
0.0030863
-0.015573
-0.0453839
-0.0832758
-0.121893
-0.152534
-0.161398
-0.141206
-0.10681
-0.0646535
-0.0238082
0.00777404
0.0285147
0.0403142
0.0437238
0.0416589
0.0384744
0.0353834
0.0328703
0.0308812
0.0293076
0.0280836
0.0271739
0.0265279
0.0260948
0.0258333
0.0257015
0.0193935
0.0196009
0.0199512
0.0204299
0.0210227
0.0217142
0.0224652
0.0232065
0.0238834
0.0243934
0.0244054
0.0234874
0.0210691
0.0163362
0.00646374
-0.0124067
-0.0388371
-0.0672379
-0.0906786
-0.10445
-0.105837
-0.092425
-0.0648824
-0.0321531
-0.00300997
0.0178795
0.0305898
0.0365697
0.0374464
0.0360987
0.0343009
0.0325409
0.0309536
0.0296177
0.0285507
0.0277333
0.0271236
0.0266868
0.0264029
0.0262622
0.0210265
0.0212564
0.0215779
0.022037
0.0226375
0.0233824
0.024265
0.0252573
0.026329
0.0273458
0.0280681
0.0280176
0.0265584
0.0227126
0.0164595
0.00505273
-0.0148987
-0.0401427
-0.0663709
-0.0869677
-0.0952224
-0.0921588
-0.0739973
-0.0490676
-0.0241402
-0.0028829
0.0137231
0.0247735
0.0295289
0.0310044
0.0311341
0.0305753
0.0297963
0.029016
0.0283135
0.0277141
0.0272358
0.0268801
0.0266451
0.0265215
0.0223034
0.0224326
0.0227525
0.0232376
0.0238896
0.0247159
0.0257242
0.0269245
0.0282907
0.029675
0.0308156
0.031278
0.0301811
0.0260215
0.0176888
0.00440836
-0.0167185
-0.0443654
-0.0770429
-0.105719
-0.119391
-0.12008
-0.105994
-0.082139
-0.0528536
-0.0254158
-0.00241816
0.0134443
0.0215793
0.0256484
0.0274585
0.0280472
0.0281738
0.0280324
0.0277526
0.0274327
0.0271412
0.0268962
0.026713
0.0266012
0.0232696
0.0233084
0.0236046
0.0240945
0.0247761
0.0256407
0.0266964
0.0279668
0.0294055
0.030896
0.0320839
0.0337265
0.0326039
0.0281127
0.0175778
-0.000591417
-0.0267058
-0.0592324
-0.100441
-0.137016
-0.160371
-0.160713
-0.139517
-0.111897
-0.0735647
-0.0397158
-0.0122464
0.00563527
0.0160446
0.0215947
0.024563
0.0260696
0.0268215
0.0270559
0.0271071
0.0270301
0.0269003
0.0267644
0.0266453
0.0265491
0.0240084
0.0241018
0.024348
0.0247632
0.0253709
0.0261683
0.0271547
0.0283424
0.0297176
0.0312779
0.0326301
0.0338554
0.0321828
0.0262377
0.0151805
-0.00279257
-0.0283396
-0.0608312
-0.101859
-0.13824
-0.16522
-0.161786
-0.138047
-0.10846
-0.0718783
-0.0403608
-0.0148303
0.00245365
0.0134606
0.0196037
0.0230287
0.0249051
0.0259139
0.0263789
0.0265787
0.0266324
0.0266049
0.0265494
0.026493
0.0264355
0.024371
0.0245287
0.0247777
0.0251454
0.0256615
0.0263408
0.0271876
0.0282058
0.0293823
0.0307377
0.0318246
0.0321196
0.0294493
0.0224998
0.0107738
-0.00616159
-0.0287266
-0.0565796
-0.0866316
-0.110615
-0.127946
-0.122685
-0.103673
-0.0788511
-0.0511498
-0.0277107
-0.00785991
0.00598299
0.0149151
0.0200333
0.0230414
0.0247133
0.0256417
0.0261162
0.0263502
0.0264323
0.0264298
0.0263873
0.0263429
0.0263221
0.0243137
0.0244446
0.0246698
0.024999
0.0254363
0.025988
0.0266547
0.0274207
0.0282102
0.0289336
0.0292245
0.0281977
0.0244369
0.0165097
0.00376098
-0.0131285
-0.0331729
-0.0553345
-0.0744489
-0.0847738
-0.0867163
-0.0798558
-0.0663017
-0.0470497
-0.0276683
-0.0101351
0.00419821
0.0135834
0.0190956
0.0222332
0.0241283
0.025213
0.0258457
0.0261932
0.0263577
0.0264042
0.0263911
0.0263477
0.026306
0.0262722
0.0240241
0.0240863
0.0242311
0.0244614
0.0247661
0.0251285
0.0255165
0.0258741
0.0260536
0.0257693
0.0246507
0.0217295
0.0158998
0.00660403
-0.00621114
-0.0218591
-0.0389845
-0.0562697
-0.0689893
-0.0720562
-0.0670872
-0.0565044
-0.0419144
-0.0242746
-0.00805577
0.00539617
0.014558
0.0200597
0.0230044
0.0246493
0.0255923
0.0260612
0.026295
0.0263911
0.026401
0.0263733
0.0263354
0.0262926
0.0262534
0.0261965
0.0236458
0.0236629
0.0237536
0.0238815
0.0240219
0.0241356
0.0241602
0.0240004
0.0234788
0.0222018
0.0195635
0.0144424
0.00564221
-0.00639383
-0.0210857
-0.0375106
-0.0529852
-0.0670332
-0.0764878
-0.0766576
-0.0696674
-0.0541842
-0.0347535
-0.0153058
0.000992121
0.0126096
0.0196642
0.0238385
0.0260005
0.0269067
0.0271692
0.0270368
0.0268121
0.0265872
0.026397
0.0262421
0.0261209
0.0260318
0.0259715
0.025972
0.0232348
0.0232818
0.0233253
0.0233554
0.0233304
0.0232145
0.0229325
0.0223439
0.0212454
0.0192393
0.0155352
0.00909051
-0.0017745
-0.0171259
-0.0366404
-0.0576272
-0.0761396
-0.0900243
-0.0999814
-0.099777
-0.0871652
-0.0653765
-0.0402536
-0.0185141
-0.000523688
0.0125387
0.0214657
0.0263299
0.0283317
0.0286533
0.0282077
0.0276561
0.0271014
0.0266375
0.0262801
0.026006
0.0258033
0.0256781
0.025625
0.0256665
0.0227887
0.0228614
0.0228623
0.0228221
0.0226973
0.0224651
0.0220141
0.0212058
0.0197733
0.0173368
0.013197
0.00630898
-0.00469742
-0.0205953
-0.0412884
-0.0642406
-0.0867064
-0.102949
-0.115797
-0.116851
-0.0982448
-0.0729578
-0.0443538
-0.0213233
-0.00225365
0.011745
0.0211374
0.0261714
0.0285033
0.0288699
0.0281852
0.0275769
0.0269258
0.0264131
0.0260161
0.0257128
0.0255022
0.0253823
0.0253331
0.0253411
0.0223131
0.0223457
0.0223378
0.0222891
0.0221566
0.0219154
0.0214673
0.0206978
0.0193403
0.0170839
0.0132516
0.00699846
-0.00257892
-0.0157119
-0.0323842
-0.0518442
-0.0731273
-0.0893683
-0.102192
-0.104515
-0.0879278
-0.0668537
-0.0427554
-0.0214567
-0.00363108
0.0093447
0.0181983
0.0236217
0.0266022
0.0275779
0.0272587
0.0267981
0.0262681
0.0258493
0.0255204
0.0252687
0.02509
0.0249741
0.0248971
0.024845
0.0219503
0.0219423
0.0219401
0.0219177
0.0218331
0.0216502
0.0213141
0.0207408
0.0197641
0.0181664
0.0154229
0.0109591
0.0038721
-0.00603558
-0.018298
-0.0326245
-0.0481879
-0.0617162
-0.0715347
-0.0748673
-0.0691159
-0.0576963
-0.0414229
-0.0241463
-0.00894185
0.00339022
0.0128129
0.019469
0.0233394
0.0250577
0.0254812
0.0253648
0.0251128
0.024876
0.0246633
0.0244907
0.024357
0.0242544
0.0241751
0.0241139
0.021755
0.0217676
0.0217657
0.02175
0.0217032
0.0216063
0.021421
0.0210959
0.0205564
0.0196873
0.0182308
0.0158313
0.0114884
0.0046455
-0.00451715
-0.0154824
-0.027345
-0.0390865
-0.0480169
-0.0537522
-0.0556022
-0.0515738
-0.0413114
-0.0281147
-0.0153328
-0.0038051
0.0060323
0.013487
0.0184025
0.0212007
0.0226037
0.0231961
0.0234334
0.0234787
0.0234435
0.0233878
0.0233362
0.0233004
0.0232828
0.0232734
0.0215251
0.0215476
0.0215633
0.0215762
0.0215877
0.0215989
0.0215913
0.0215589
0.021456
0.0211973
0.0206159
0.0195011
0.0173327
0.0132061
0.0061687
-0.00364566
-0.0155331
-0.0282853
-0.0398146
-0.0481796
-0.0517686
-0.0515843
-0.0447719
-0.0343924
-0.0233112
-0.0124235
-0.00252539
0.00562368
0.0119553
0.0164549
0.0191907
0.0206731
0.0214979
0.0219199
0.0221352
0.0222451
0.0222956
0.0223255
0.0223544
0.0223976
0.0211763
0.0211452
0.0211727
0.0212319
0.021329
0.021469
0.0216505
0.0218957
0.0222021
0.0224871
0.0225837
0.0220723
0.0203942
0.016886
0.010214
0.000482692
-0.0122693
-0.0270088
-0.041893
-0.0546141
-0.0612215
-0.0622701
-0.0572836
-0.0482248
-0.0373906
-0.0253905
-0.0131837
-0.00239974
0.0061964
0.0123941
0.0161941
0.0183988
0.0197252
0.0205102
0.0209846
0.0212634
0.0214138
0.0214909
0.0215305
0.0215689
0.020816
0.0207667
0.0207841
0.0208568
0.0209975
0.0212071
0.0214961
0.0218782
0.0224595
0.0229706
0.0235118
0.0232781
0.0214304
0.0176456
0.0106272
0.000567721
-0.0128841
-0.028642
-0.0470655
-0.0640835
-0.0765715
-0.0780063
-0.0717056
-0.0625479
-0.049408
-0.0350156
-0.0200951
-0.00702984
0.00294045
0.00985992
0.0141577
0.0167903
0.0183954
0.0194159
0.0200283
0.0204382
0.0206812
0.0208174
0.0208768
0.0208438
0.0204054
0.020406
0.0204384
0.0205106
0.0206417
0.0208399
0.0211209
0.0214912
0.0219747
0.022359
0.0227866
0.0221764
0.0202319
0.016688
0.010051
0.00026041
-0.0127683
-0.028299
-0.0467339
-0.0637829
-0.0783021
-0.0792068
-0.0714663
-0.0614645
-0.0473333
-0.0323886
-0.0180929
-0.00621387
0.00277985
0.00918096
0.0134159
0.0160571
0.0176437
0.0186695
0.0193226
0.0197394
0.0200008
0.0201366
0.0202011
0.0201596
0.0198148
0.0198585
0.0199117
0.0199788
0.0200725
0.0202038
0.0203792
0.0205966
0.020854
0.0209548
0.0206622
0.0194361
0.01684
0.0125665
0.00607647
-0.00308013
-0.0146747
-0.0279566
-0.0419275
-0.053425
-0.0622774
-0.0615308
-0.0544989
-0.0452323
-0.0330199
-0.020987
-0.0100511
-0.00120352
0.00575168
0.0107885
0.0141569
0.0162685
0.0175488
0.0183526
0.0188624
0.0191808
0.0193708
0.0194691
0.0195164
0.0195292
0.0190701
0.019093
0.0191125
0.0191341
0.0191592
0.0191859
0.0192038
0.0191768
0.0190507
0.0186566
0.0175766
0.0154318
0.0117217
0.00629345
-0.000737559
-0.00928385
-0.0190213
-0.029225
-0.037974
-0.0433071
-0.0443585
-0.0409624
-0.0346462
-0.026509
-0.0174073
-0.00864057
-0.00097233
0.0054107
0.0104154
0.0137665
0.0158187
0.0170737
0.0178453
0.0183443
0.0186617
0.0188599
0.0189772
0.0190396
0.0190746
0.0191033
0.0182767
0.0182421
0.018198
0.0181495
0.018087
0.0179849
0.0178049
0.0174472
0.0167912
0.0156482
0.0136735
0.010458
0.00590979
-3.05147e-05
-0.00733307
-0.0154879
-0.0239627
-0.0318641
-0.0370749
-0.0379196
-0.0357934
-0.0304022
-0.0229812
-0.0143452
-0.00583603
0.00171473
0.00766349
0.0120753
0.0149504
0.016571
0.0174922
0.0179909
0.0183036
0.0185094
0.0186395
0.0187213
0.0187783
0.0188127
0.0188308
0.0188202
0.0174949
0.017427
0.017367
0.0172826
0.0171457
0.0169077
0.0165161
0.0158392
0.0146901
0.012754
0.00963506
0.00508091
-0.000756341
-0.00786163
-0.0159776
-0.0243876
-0.0323173
-0.0388718
-0.0420922
-0.0405496
-0.0366281
-0.0289496
-0.0190908
-0.00873328
0.000833111
0.00828615
0.013615
0.016678
0.0181374
0.0187017
0.0188644
0.0188146
0.0187264
0.0186335
0.0185679
0.0185192
0.0184903
0.0184701
0.0184562
0.0184589
0.0168184
0.0167976
0.0167384
0.0166218
0.0164072
0.0160432
0.0154593
0.0145544
0.0130548
0.0106228
0.0066642
0.000832429
-0.00696762
-0.0164546
-0.0265358
-0.036134
-0.0447226
-0.0507626
-0.0539559
-0.0512163
-0.0424653
-0.0311322
-0.0181882
-0.00639032
0.00359742
0.0109398
0.015931
0.018568
0.0199469
0.0201491
0.0197441
0.0192709
0.0188333
0.0185195
0.0182963
0.0181401
0.0180395
0.0179897
0.0179771
0.018018
0.0162513
0.0162951
0.016232
0.0160883
0.0158229
0.015403
0.0147347
0.0137237
0.0120584
0.00952088
0.00541108
-0.000616987
-0.00882495
-0.019182
-0.0307114
-0.0415718
-0.0512646
-0.0576585
-0.0615432
-0.0584056
-0.0459155
-0.031989
-0.0175645
-0.0053422
0.00434956
0.0114612
0.0162504
0.0186925
0.0199728
0.0201365
0.0196155
0.0190742
0.0185751
0.0181887
0.0179163
0.0177297
0.0176147
0.0175622
0.0175537
0.017587
0.0157053
0.0157362
0.0156859
0.0155672
0.0153441
0.0149838
0.0144119
0.0135115
0.0120554
0.00978903
0.00629373
0.00121786
-0.00540233
-0.0140418
-0.0240622
-0.0341999
-0.0440466
-0.05056
-0.0543497
-0.0522369
-0.0419682
-0.0301266
-0.0175937
-0.00666092
0.00238436
0.00919595
0.0138725
0.0165543
0.0180004
0.0185352
0.0184646
0.0182173
0.0178768
0.0176027
0.0173982
0.0172596
0.0171681
0.0171153
0.0170836
0.0170682
0.0152609
0.0152378
0.0152053
0.015141
0.0150098
0.0147819
0.0144093
0.0138101
0.0128336
0.011235
0.00880547
0.00516279
0.000420148
-0.00554584
-0.0127288
-0.0204003
-0.0280266
-0.0339347
-0.0378839
-0.0384129
-0.0346262
-0.0276846
-0.0192797
-0.0108654
-0.00313555
0.0033437
0.00839453
0.0119755
0.0143812
0.0157941
0.0164526
0.0166725
0.0166519
0.0165987
0.0165473
0.0165062
0.0164754
0.0164478
0.0164188
0.0163855
0.015015
0.0149999
0.0149809
0.0149471
0.0148855
0.0147811
0.0146072
0.0143286
0.0138727
0.013105
0.0117721
0.00959563
0.00643557
0.00243637
-0.00253622
-0.00824843
-0.014359
-0.0200771
-0.0250217
-0.0283626
-0.0287577
-0.0264185
-0.021858
-0.0157341
-0.00920068
-0.00307754
0.00230044
0.00667409
0.0100054
0.0123263
0.0137523
0.0145651
0.0149884
0.0152435
0.0153846
0.0154697
0.0155278
0.0155727
0.0156036
0.0156142
0.0148152
0.0148342
0.0148408
0.014846
0.0148503
0.0148581
0.0148566
0.0148534
0.0148021
0.0146838
0.0142929
0.0134952
0.0117939
0.0089543
0.00479619
-0.000582929
-0.0071663
-0.0138001
-0.0200674
-0.0249185
-0.0271003
-0.0280993
-0.0262088
-0.0216024
-0.0156224
-0.0095333
-0.00369214
0.00137544
0.00543562
0.00860063
0.0109065
0.0124094
0.013333
0.0139125
0.0142446
0.0144518
0.0145871
0.014688
0.0147666
0.0148296
0.0145029
0.0144952
0.0145231
0.014572
0.0146523
0.0147714
0.0149453
0.0151651
0.0154467
0.0157785
0.0160623
0.01596
0.0150443
0.0130295
0.00935384
0.00410266
-0.00294446
-0.0110496
-0.0192879
-0.0263762
-0.031715
-0.034989
-0.0343114
-0.030501
-0.0247459
-0.0180775
-0.0111275
-0.00464419
0.000923401
0.00533681
0.00856052
0.0106879
0.0120283
0.0128475
0.0133492
0.0136664
0.0138575
0.0139725
0.0140455
0.0141126
0.0141353
0.0140994
0.0141142
0.0141726
0.0142886
0.0144712
0.0147431
0.0151105
0.0156121
0.0161497
0.0168246
0.0169447
0.0162355
0.0148301
0.0117568
0.00698091
0.000256923
-0.00886427
-0.0191979
-0.029058
-0.0380057
-0.0429696
-0.04262
-0.0386175
-0.0326038
-0.0251425
-0.0167436
-0.00885853
-0.00192887
0.00333133
0.0070516
0.00954562
0.0110911
0.0120666
0.012683
0.0130807
0.0133331
0.0134741
0.0135409
0.0135345
0.0137536
0.0137377
0.0137538
0.0138063
0.0139138
0.0140842
0.0143428
0.0146839
0.0151448
0.0155767
0.0160897
0.0161962
0.015571
0.0142337
0.0114646
0.0069615
0.000653717
-0.00792788
-0.0183139
-0.0287813
-0.0377548
-0.0429099
-0.0423601
-0.0377068
-0.03151
-0.0237444
-0.0155924
-0.00788276
-0.00150097
0.00326175
0.00678208
0.00917132
0.0106311
0.0116069
0.012238
0.0126375
0.012887
0.0130229
0.0130824
0.0130346
0.0132626
0.0132847
0.0133168
0.0133609
0.0134271
0.0135244
0.0136659
0.0138407
0.014041
0.0141193
0.0140164
0.0134872
0.0123314
0.0103483
0.00717982
0.0027112
-0.00306082
-0.00965954
-0.0173506
-0.0249308
-0.0301738
-0.0328968
-0.0313646
-0.0269663
-0.0214797
-0.0150318
-0.00861413
-0.00284985
0.00168033
0.005228
0.00790155
0.00966628
0.0108082
0.0115447
0.0120029
0.012284
0.0124498
0.0125364
0.0125738
0.0125653
0.0126391
0.0126574
0.0126651
0.0126624
0.0126508
0.0126287
0.0125882
0.0125041
0.0123211
0.0118833
0.0110274
0.00954037
0.00739371
0.00449671
0.000834114
-0.00352159
-0.0084853
-0.0133098
-0.0175404
-0.0209276
-0.022209
-0.0210455
-0.0180211
-0.0141694
-0.00967668
-0.00509105
-0.000827311
0.00282161
0.0057421
0.00810912
0.00973128
0.0107171
0.0113444
0.011731
0.0119587
0.0120931
0.0121664
0.0122009
0.012219
0.0122424
0.0119633
0.0119327
0.0118758
0.0117984
0.0116974
0.0115513
0.0113161
0.0109322
0.010321
0.00932318
0.00778044
0.00558606
0.00269048
-0.000914119
-0.00509459
-0.0095524
-0.01401
-0.0176627
-0.0192022
-0.0189114
-0.017749
-0.0144982
-0.0105101
-0.00609705
-0.00164242
0.00233228
0.00551392
0.00791976
0.0096776
0.0108523
0.0114732
0.0117837
0.0119353
0.0120057
0.0120471
0.0120684
0.0120769
0.012079
0.0120788
0.0120726
0.0112986
0.0112287
0.0111457
0.0110371
0.010881
0.0106389
0.0102507
0.00961598
0.00858021
0.00700563
0.00475382
0.00175168
-0.00208257
-0.00668036
-0.0117336
-0.0166363
-0.0209145
-0.0235709
-0.0235422
-0.0207385
-0.0171722
-0.0124493
-0.00717547
-0.00168189
0.00329542
0.00729424
0.0101171
0.0118136
0.0126938
0.0128784
0.0127497
0.0125635
0.0123715
0.0122098
0.0120895
0.0120039
0.0119452
0.011902
0.0118737
0.0118533
0.0107337
0.0106864
0.0106192
0.0105041
0.0103087
0.00999093
0.00949317
0.00867568
0.00735756
0.0052825
0.00229573
-0.00178786
-0.00698158
-0.0128649
-0.0189319
-0.0245553
-0.0286967
-0.0310976
-0.0303531
-0.0253989
-0.0188162
-0.0118615
-0.00445933
0.00228016
0.00735878
0.0109078
0.0130678
0.0140377
0.014302
0.0139639
0.0134427
0.0129242
0.0124746
0.0121369
0.0118912
0.0117169
0.0116032
0.0115357
0.0115051
0.0115207
0.0102964
0.0103206
0.0102649
0.0101351
0.00990317
0.00953707
0.00899282
0.00810059
0.00670649
0.00445586
0.0012354
-0.00316065
-0.00890634
-0.0153912
-0.0219271
-0.0278664
-0.0320101
-0.034805
-0.0339122
-0.0278299
-0.0197954
-0.0111892
-0.00267325
0.00446043
0.00923784
0.0123223
0.0139252
0.0144878
0.0144617
0.0139266
0.0133163
0.0127227
0.012196
0.0118084
0.0115216
0.0113264
0.0112037
0.0111455
0.0111297
0.0111571
0.00990203
0.00993908
0.00989924
0.00979717
0.00960236
0.00928484
0.00878615
0.00801199
0.00681891
0.00494975
0.00227581
-0.00132766
-0.00600156
-0.0115573
-0.0173264
-0.0228122
-0.0268454
-0.0295432
-0.029187
-0.0246558
-0.0182478
-0.0107749
-0.0036173
0.00231169
0.00667131
0.0097662
0.0115653
0.0124724
0.0127407
0.0125858
0.0122943
0.0119179
0.0115583
0.0112771
0.0110624
0.0109178
0.0108251
0.0107751
0.0107519
0.0107533
0.00955121
0.00954897
0.0095278
0.00948015
0.00938108
0.00920232
0.00890462
0.00841336
0.00762865
0.00644468
0.00467673
0.00231697
-0.000680498
-0.0043678
-0.00840021
-0.012437
-0.0157973
-0.0183439
-0.0196258
-0.0183088
-0.0154065
-0.0112835
-0.00690935
-0.00276062
0.000974672
0.00403965
0.0063978
0.00812264
0.00928669
0.0100307
0.0103969
0.0105012
0.0104873
0.0104326
0.010375
0.0103332
0.010302
0.0102767
0.0102515
0.0102277
0.00934178
0.00933074
0.00932827
0.00932546
0.00930717
0.00926351
0.00917995
0.00902459
0.00871187
0.00819079
0.00730659
0.00602889
0.00438959
0.00226727
-0.000316121
-0.00331337
-0.00631092
-0.00928666
-0.011765
-0.0130405
-0.0131765
-0.0124904
-0.0108475
-0.00808413
-0.00494665
-0.00183143
0.00102864
0.00345621
0.00543429
0.00695038
0.00799369
0.00864331
0.00902466
0.00925286
0.00939517
0.00948711
0.00954754
0.00958548
0.00960415
0.00960396
0.00921211
0.00923193
0.00925296
0.00928299
0.00932199
0.00937795
0.00945275
0.00954632
0.00963057
0.00964848
0.00954807
0.00916083
0.00834615
0.00698354
0.00495164
0.00211942
-0.00113366
-0.00454731
-0.00768612
-0.0105205
-0.0128718
-0.0148294
-0.0152596
-0.0136475
-0.0109006
-0.00744578
-0.00392001
-0.00069749
0.00201726
0.00411624
0.00570593
0.00683897
0.00759397
0.00808539
0.00839711
0.00860147
0.00873981
0.00884146
0.00891668
0.00896525
0.00899573
0.00901423
0.00905397
0.00911788
0.00921065
0.0093499
0.0095401
0.00979678
0.0101397
0.0105427
0.0109582
0.0112503
0.011124
0.0104186
0.0089302
0.00644983
0.00305342
-0.0011608
-0.00568635
-0.0105335
-0.0151621
-0.0192567
-0.0209353
-0.0202525
-0.0176504
-0.0137747
-0.00942659
-0.00513446
-0.00136389
0.00162854
0.00386968
0.00547137
0.00655415
0.00723809
0.00766886
0.00794265
0.0081167
0.00823254
0.00831413
0.00837855
0.00868097
0.00866752
0.00869599
0.00876372
0.00888301
0.00906441
0.00932438
0.00968185
0.0101622
0.0107731
0.0114384
0.012154
0.0126589
0.0126539
0.0118754
0.0100569
0.0068085
0.00170452
-0.00441251
-0.010945
-0.017688
-0.0230935
-0.0255193
-0.0253266
-0.0225441
-0.0184845
-0.0135937
-0.00849264
-0.00386256
-8.42485e-05
0.00264537
0.00459215
0.00589154
0.00666721
0.00718092
0.00750911
0.00771155
0.0078307
0.00789426
0.00791132
0.00833937
0.00831653
0.00833122
0.00838141
0.00848228
0.0086433
0.00889472
0.00923038
0.00967859
0.0102546
0.0108801
0.0116085
0.0121589
0.0122448
0.0115873
0.00993373
0.00699515
0.00218318
-0.00394346
-0.0105159
-0.0169088
-0.0220848
-0.0244644
-0.0242213
-0.0212632
-0.0174878
-0.0127869
-0.00801224
-0.00362634
-8.87101e-05
0.00245997
0.00434288
0.00557875
0.00636443
0.00687649
0.00720135
0.0074085
0.00752033
0.00756607
0.00753611
0.00794661
0.0079492
0.00796593
0.00799715
0.00805514
0.00814737
0.00828698
0.00847294
0.00869438
0.00894173
0.00910879
0.00918807
0.00901444
0.00842766
0.00730071
0.0054862
0.00298068
-0.000442673
-0.00464546
-0.00911308
-0.0131876
-0.0161293
-0.0170649
-0.0162303
-0.0139215
-0.010902
-0.00735624
-0.00386281