/*--------------------------------*- C++ -*----------------------------------*\
| =========                 |                                                 |
| \\      /  F ield         | OpenFOAM: The Open Source CFD Toolbox           |
|  \\    /   O peration     | Version:  v2106                                 |
|   \\  /    A nd           | Website:  www.openfoam.com                      |
|    \\/     M anipulation  |                                                 |
\*---------------------------------------------------------------------------*/
FoamFile
{
    version     2.0;
    format      ascii;
    arch        "LSB;label=32;scalar=64";
    class       pointVectorField;
    location    "0";
    object      pointDisplacement;
}
// * * * * * * * * * * * * * * * * * * * * * * * * * * * * * * * * * * * * * //

dimensions      [0 1 0 0 0 0 0];

internalField   nonuniform List<vector> 
24440
(
(0 0 0)
(0 0 0)
(0 0 0)
(0 0 0)
(0 0 0)
(0 0 0)
(0 0 0)
(0 0 0)
(0 0 0)
(0 0 0)
(0 0 0)
(0 0 0)
(0 0 0)
(0 0 0)
(0 0 0)
(0 0 0)
(0 0 0)
(0 0 0)
(0 0 0)
(0 0 0)
(0 0 0)
(0 0 0)
(0 0 0)
(0 0 0)
(0 0 0)
(0 0 0)
(0 0 0)
(0 0 0)
(0 0 0)
(0 0 0)
(0 0 0)
(0 0 0)
(0 0 0)
(0 0 0)
(0 0 0)
(0 0 0)
(0 0 0)
(0 0 0)
(0 0 0)
(0 0 0)
(0 0 0)
(0 0 0)
(0 0 0)
(0 0 0)
(0 0 0)
(0 0 0)
(0 0 0)
(0 0 0)
(0 0 0)
(0 0 0)
(0 0 0)
(0 0 0)
(0 0 0)
(0 0 0)
(0 0 0)
(0 0 0)
(0 0 0)
(0 0 0)
(0 0 0)
(0 0 0)
(0 0 0)
(0 0 0)
(0 0 0)
(0 0 0)
(0 0 0)
(0 0 0)
(0 0 0)
(0 0 0)
(0 0 0)
(0 0 0)
(0 0 0)
(0 0 0)
(0 0 0)
(0 0 0)
(0 0 0)
(0 0 0)
(0 0 0)
(0 0 0)
(0 0 0)
(0 0 0)
(0 0 0)
(0 0 0)
(0 0 0)
(0 0 0)
(0 0 0)
(0 0 0)
(0 0 0)
(0 0 0)
(0 0 0)
(0 0 0)
(0 0 0)
(0 0 0)
(0 0 0)
(0 0 0)
(0 0 0)
(0 0 0)
(0 0 0)
(0 0 0)
(0 -1.69003e-06 0)
(0 -1.06575e-05 0)
(0 -2.93057e-05 0)
(0 -4.51587e-05 0)
(0 -5.12426e-05 0)
(0 -4.51587e-05 0)
(0 -2.93057e-05 0)
(0 -1.06575e-05 0)
(0 -1.69003e-06 0)
(0 0 0)
(0 0 0)
(0 0 0)
(0 0 0)
(0 0 0)
(0 0 0)
(0 0 0)
(0 0 0)
(0 0 0)
(0 0 0)
(0 0 0)
(0 0 0)
(0 0 0)
(0 0 0)
(0 0 0)
(0 0 0)
(0 0 0)
(0 0 0)
(0 0 0)
(0 0 0)
(0 0 0)
(0 0 0)
(0 0 0)
(0 0 0)
(0 0 0)
(0 0 0)
(0 0 0)
(0 0 0)
(0 0 0)
(0 -2.83035e-06 0)
(0 -3.74408e-05 0)
(0 -0.000110185 0)
(0 -0.000198492 0)
(0 -0.00028313 0)
(0 -0.000342135 0)
(0 -0.000396986 0)
(0 -0.000416286 0)
(0 -0.000396986 0)
(0 -0.000342135 0)
(0 -0.00028313 0)
(0 -0.000198492 0)
(0 -0.000110185 0)
(0 -3.74408e-05 0)
(0 -2.83035e-06 0)
(0 0 0)
(0 0 0)
(0 0 0)
(0 0 0)
(0 0 0)
(0 0 0)
(0 0 0)
(0 0 0)
(0 0 0)
(0 0 0)
(0 0 0)
(0 0 0)
(0 0 0)
(0 0 0)
(0 0 0)
(0 0 0)
(0 0 0)
(0 0 0)
(0 0 0)
(0 0 0)
(0 0 0)
(0 0 0)
(0 0 0)
(0 0 0)
(0 -1.18834e-06 0)
(0 -4.92382e-05 0)
(0 -0.000167918 0)
(0 -0.000331132 0)
(0 -0.000499241 0)
(0 -0.00068679 0)
(0 -0.000849223 0)
(0 -0.000949821 0)
(0 -0.00104601 0)
(0 -0.00107926 0)
(0 -0.00104601 0)
(0 -0.000949821 0)
(0 -0.000849223 0)
(0 -0.00068679 0)
(0 -0.000499241 0)
(0 -0.000331132 0)
(0 -0.000167918 0)
(0 -4.92382e-05 0)
(0 -1.18834e-06 0)
(0 0 0)
(0 0 0)
(0 0 0)
(0 0 0)
(0 0 0)
(0 0 0)
(0 0 0)
(0 0 0)
(0 0 0)
(0 0 0)
(0 0 0)
(0 0 0)
(0 0 0)
(0 0 0)
(0 0 0)
(0 0 0)
(0 0 0)
(0 0 0)
(0 0 0)
(0 0 0)
(0 0 0)
(0 -1.12364e-05 0)
(0 -0.000116852 0)
(0 -0.00031054 0)
(0 -0.000544847 0)
(0 -0.000835762 0)
(0 -0.00112918 0)
(0 -0.00138337 0)
(0 -0.00162148 0)
(0 -0.00179045 0)
(0 -0.00189141 0)
(0 -0.00193775 0)
(0 -0.00189141 0)
(0 -0.00179045 0)
(0 -0.00162148 0)
(0 -0.00138337 0)
(0 -0.00112918 0)
(0 -0.000835762 0)
(0 -0.000544847 0)
(0 -0.00031054 0)
(0 -0.000116852 0)
(0 -1.18956e-05 0)
(0 0 0)
(0 0 0)
(0 0 0)
(0 0 0)
(0 0 0)
(0 0 0)
(0 0 0)
(0 0 0)
(0 0 0)
(0 0 0)
(0 0 0)
(0 0 0)
(0 0 0)
(0 0 0)
(0 0 0)
(0 0 0)
(0 0 0)
(0 0 0)
(0 0 0)
(0 -2.20994e-05 0)
(0 -0.000154961 0)
(0 -0.000386763 0)
(0 -0.000710036 0)
(0 -0.00109424 0)
(0 -0.00149348 0)
(0 -0.00185985 0)
(0 -0.00220718 0)
(0 -0.0023377 0)
(0 -0.00247884 0)
(0 -0.00259689 0)
(0 -0.00268991 0)
(0 -0.00275642 0)
(0 -0.00280242 0)
(0 -0.00284491 0)
(0 -0.00285914 0)
(0 -0.00284491 0)
(0 -0.00280242 0)
(0 -0.00275642 0)
(0 -0.00268991 0)
(0 -0.00259689 0)
(0 -0.00247884 0)
(0 -0.0023377 0)
(0 -0.00220718 0)
(0 -0.00185985 0)
(0 -0.00149348 0)
(0 -0.00109424 0)
(0 -0.000710036 0)
(0 -0.000378735 0)
(0 -0.000140023 0)
(0 -1.76589e-05 0)
(0 0 0)
(0 0 0)
(0 0 0)
(0 0 0)
(0 0 0)
(0 0 0)
(0 0 0)
(0 0 0)
(0 0 0)
(0 0 0)
(0 0 0)
(0 0 0)
(0 0 0)
(0 0 0)
(0 0 0)
(0 0 0)
(0 0 0)
(0 -1.29985e-05 0)
(0 -0.000148754 0)
(0 -0.000414456 0)
(0 -0.000779883 0)
(0 -0.00120792 0)
(0 -0.00171154 0)
(0 -0.00195235 0)
(0 -0.00216579 0)
(0 -0.00240203 0)
(0 -0.00262346 0)
(0 -0.00282605 0)
(0 -0.00299816 0)
(0 -0.00261294 0)
(0 -0.00277248 0)
(0 -0.00289838 0)
(0 -0.00302537 0)
(0 -0.003125 0)
(0 -0.00319599 0)
(0 -0.00323855 0)
(0 -0.00328366 0)
(0 -0.00329874 0)
(0 -0.00328366 0)
(0 -0.00323855 0)
(0 -0.00319599 0)
(0 -0.003125 0)
(0 -0.00302537 0)
(0 -0.00289838 0)
(0 -0.00277248 0)
(0 -0.00261294 0)
(0 -0.00299816 0)
(0 -0.00282605 0)
(0 -0.00262346 0)
(0 -0.00240203 0)
(0 -0.00216579 0)
(0 -0.00195235 0)
(0 -0.00171154 0)
(0 -0.00120792 0)
(0 -0.000779883 0)
(0 -0.000399337 0)
(0 -0.000142282 0)
(0 -1.18045e-05 0)
(0 0 0)
(0 0 0)
(0 0 0)
(0 0 0)
(0 0 0)
(0 0 0)
(0 0 0)
(0 0 0)
(0 0 0)
(0 0 0)
(0 0 0)
(0 0 0)
(0 0 0)
(0 0 0)
(0 0 0)
(0 0 0)
(0 -8.22439e-05 0)
(0 -0.000336102 0)
(0 -0.00071854 0)
(0 -0.00119892 0)
(0 -0.00173396 0)
(0 -0.00227762 0)
(0 -0.00200472 0)
(0 -0.00226659 0)
(0 -0.00251857 0)
(0 -0.00275583 0)
(0 -0.00296663 0)
(0 -0.00318041 0)
(0 -0.00336932 0)
(0 -0.0035254 0)
(0 -0.00316768 0)
(0 -0.00331046 0)
(0 -0.00367256 0)
(0 -0.00377853 0)
(0 -0.00342406 0)
(0 -0.00352799 0)
(0 -0.00388392 0)
(0 -0.0039581 0)
(0 -0.00360172 0)
(0 -0.00363908 0)
(0 -0.00400109 0)
(0 -0.00403522 0)
(0 -0.0036856 0)
(0 -0.00370112 0)
(0 -0.00405063 0)
(0 -0.00403522 0)
(0 -0.0036856 0)
(0 -0.00363908 0)
(0 -0.00400109 0)
(0 -0.0039581 0)
(0 -0.00360172 0)
(0 -0.00352799 0)
(0 -0.00388392 0)
(0 -0.00377853 0)
(0 -0.00342406 0)
(0 -0.00331046 0)
(0 -0.00367256 0)
(0 -0.0035254 0)
(0 -0.00316768 0)
(0 -0.00336932 0)
(0 -0.00318041 0)
(0 -0.00296663 0)
(0 -0.00275583 0)
(0 -0.00251857 0)
(0 -0.00226659 0)
(0 -0.00200472 0)
(0 -0.00227762 0)
(0 -0.00173396 0)
(0 -0.00118449 0)
(0 -0.000712868 0)
(0 -0.000335743 0)
(0 -8.94123e-05 0)
(0 0 0)
(0 0 0)
(0 0 0)
(0 0 0)
(0 0 0)
(0 0 0)
(0 0 0)
(0 0 0)
(0 0 0)
(0 0 0)
(0 0 0)
(0 0 0)
(0 0 0)
(0 0 0)
(0 0 0)
(0 -1.79414e-05 0)
(0 -0.000184325 0)
(0 -0.000531313 0)
(0 -0.000995467 0)
(0 -0.00154727 0)
(0 -0.00217946 0)
(0 -0.00278841 0)
(0 -0.00255142 0)
(0 -0.00282729 0)
(0 -0.00253867 0)
(0 -0.0028226 0)
(0 -0.00308659 0)
(0 -0.00334671 0)
(0 -0.00307248 0)
(0 -0.00330068 0)
(0 -0.00358125 0)
(0 -0.00368819 0)
(0 -0.00378773 0)
(0 -0.00365238 0)
(0 -0.00349331 0)
(0 -0.00368716 0)
(0 -0.00382618 0)
(0 -0.00391207 0)
(0 -0.003773 0)
(0 -0.00398179 0)
(0 -0.00411366 0)
(0 -0.00417468 0)
(0 -0.00404374 0)
(0 -0.00418026 0)
(0 -0.00430927 0)
(0 -0.00434143 0)
(0 -0.00422 0)
(0 -0.00429302 0)
(0 -0.00441124 0)
(0 -0.00442807 0)
(0 -0.00431258 0)
(0 -0.00433361 0)
(0 -0.00444659 0)
(0 -0.00444319 0)
(0 -0.00432999 0)
(0 -0.00429302 0)
(0 -0.00441124 0)
(0 -0.00439529 0)
(0 -0.00427625 0)
(0 -0.00418026 0)
(0 -0.00430927 0)
(0 -0.00427234 0)
(0 -0.00414365 0)
(0 -0.00398179 0)
(0 -0.00411366 0)
(0 -0.00405979 0)
(0 -0.00391184 0)
(0 -0.00368716 0)
(0 -0.00382618 0)
(0 -0.00373251 0)
(0 -0.00359385 0)
(0 -0.00330068 0)
(0 -0.00358125 0)
(0 -0.00334671 0)
(0 -0.00307248 0)
(0 -0.0028226 0)
(0 -0.00308659 0)
(0 -0.00282729 0)
(0 -0.00253867 0)
(0 -0.00255142 0)
(0 -0.00277584 0)
(0 -0.00217795 0)
(0 -0.0015722 0)
(0 -0.000987108 0)
(0 -0.00052614 0)
(0 -0.000193563 0)
(0 -2.05169e-05 0)
(0 0 0)
(0 0 0)
(0 0 0)
(0 0 0)
(0 0 0)
(0 0 0)
(0 0 0)
(0 0 0)
(0 0 0)
(0 0 0)
(0 0 0)
(0 0 0)
(0 0 0)
(0 0 0)
(0 -5.87002e-05 0)
(0 -0.000297085 0)
(0 -0.000698016 0)
(0 -0.00122651 0)
(0 -0.00183726 0)
(0 -0.00250902 0)
(0 -0.00313597 0)
(0 -0.00298128 0)
(0 -0.00327631 0)
(0 -0.00307552 0)
(0 -0.00334359 0)
(0 -0.00354993 0)
(0 -0.00379705 0)
(0 -0.00358777 0)
(0 -0.00380407 0)
(0 -0.00391611 0)
(0 -0.00401248 0)
(0 -0.00391598 0)
(0 -0.00418825 0)
(0 -0.0042346 0)
(0 -0.00427201 0)
(0 -0.00422607 0)
(0 -0.00443368 0)
(0 -0.00447075 0)
(0 -0.00449482 0)
(0 -0.00445851 0)
(0 -0.00457896 0)
(0 -0.00460598 0)
(0 -0.00461824 0)
(0 -0.00459102 0)
(0 -0.00464263 0)
(0 -0.00466245 0)
(0 -0.00466528 0)
(0 -0.00464603 0)
(0 -0.00465891 0)
(0 -0.00467488 0)
(0 -0.00467461 0)
(0 -0.00465853 0)
(0 -0.00464263 0)
(0 -0.00466245 0)
(0 -0.00465854 0)
(0 -0.00463799 0)
(0 -0.00457896 0)
(0 -0.00460598 0)
(0 -0.0045957 0)
(0 -0.00456445 0)
(0 -0.00443368 0)
(0 -0.00447075 0)
(0 -0.0044498 0)
(0 -0.00440666 0)
(0 -0.00418825 0)
(0 -0.0042346 0)
(0 -0.00427702 0)
(0 -0.0041963 0)
(0 -0.00410605 0)
(0 -0.00380407 0)
(0 -0.00391611 0)
(0 -0.00401344 0)
(0 -0.00379705 0)
(0 -0.00358777 0)
(0 -0.00334359 0)
(0 -0.00354182 0)
(0 -0.0032742 0)
(0 -0.00307552 0)
(0 -0.00298485 0)
(0 -0.00314526 0)
(0 -0.00250271 0)
(0 -0.00185556 0)
(0 -0.00123937 0)
(0 -0.000706103 0)
(0 -0.000301324 0)
(0 -6.01482e-05 0)
(0 0 0)
(0 0 0)
(0 0 0)
(0 0 0)
(0 0 0)
(0 0 0)
(0 0 0)
(0 0 0)
(0 0 0)
(0 0 0)
(0 0 0)
(0 0 0)
(0 0 0)
(0 0 0)
(0 -9.05141e-05 0)
(0 -0.000369062 0)
(0 -0.000812163 0)
(0 -0.0013824 0)
(0 -0.00203175 0)
(0 -0.00270564 0)
(0 -0.00334768 0)
(0 -0.00326813 0)
(0 -0.00356083 0)
(0 -0.00342495 0)
(0 -0.00368993 0)
(0 -0.00382749 0)
(0 -0.00406288 0)
(0 -0.00394918 0)
(0 -0.00416346 0)
(0 -0.00421639 0)
(0 -0.00430861 0)
(0 -0.0042569 0)
(0 -0.00447895 0)
(0 -0.00450341 0)
(0 -0.004531 0)
(0 -0.00450731 0)
(0 -0.00464913 0)
(0 -0.00466094 0)
(0 -0.0046708 0)
(0 -0.00466038 0)
(0 -0.00468988 0)
(0 -0.00468988 0)
(0 -0.00468988 0)
(0 -0.00468988 0)
(0 -0.00468988 0)
(0 -0.00468988 0)
(0 -0.00468988 0)
(0 -0.00468988 0)
(0 -0.00468988 0)
(0 -0.00468988 0)
(0 -0.00468988 0)
(0 -0.00468988 0)
(0 -0.00468988 0)
(0 -0.00468988 0)
(0 -0.00468988 0)
(0 -0.00468988 0)
(0 -0.00468988 0)
(0 -0.00468988 0)
(0 -0.00468988 0)
(0 -0.00468988 0)
(0 -0.00464913 0)
(0 -0.00466094 0)
(0 -0.00464794 0)
(0 -0.00463561 0)
(0 -0.00447895 0)
(0 -0.0045034 0)
(0 -0.0045243 0)
(0 -0.00446051 0)
(0 -0.00441481 0)
(0 -0.00416104 0)
(0 -0.00422254 0)
(0 -0.0042695 0)
(0 -0.00405724 0)
(0 -0.0039527 0)
(0 -0.00371095 0)
(0 -0.00382273 0)
(0 -0.00355705 0)
(0 -0.00344009 0)
(0 -0.00326536 0)
(0 -0.00334935 0)
(0 -0.00270453 0)
(0 -0.00202852 0)
(0 -0.00137797 0)
(0 -0.000807538 0)
(0 -0.000365236 0)
(0 -8.83411e-05 0)
(0 0 0)
(0 0 0)
(0 0 0)
(0 0 0)
(0 0 0)
(0 0 0)
(0 0 0)
(0 0 0)
(0 0 0)
(0 0 0)
(0 0 0)
(0 0 0)
(0 0 0)
(0 0 0)
(0 -9.59653e-05 0)
(0 -0.000380859 0)
(0 -0.00083076 0)
(0 -0.00140786 0)
(0 -0.00206368 0)
(0 -0.0027431 0)
(0 -0.00338906 0)
(0 -0.00339025 0)
(0 -0.00368324 0)
(0 -0.00363982 0)
(0 -0.0039045 0)
(0 -0.00394798 0)
(0 -0.00417886 0)
(0 -0.00413634 0)
(0 -0.00433814 0)
(0 -0.00435764 0)
(0 -0.00443855 0)
(0 -0.00442097 0)
(0 -0.0046036 0)
(0 -0.00461112 0)
(0 -0.00463109 0)
(0 -0.00462414 0)
(0 -0.00468988 0)
(0 -0.00468988 0)
(0 -0.00468988 0)
(0 -0.00468988 0)
(0 -0.00468988 0)
(0 -0.00468988 0)
(0 -0.00468988 0)
(0 -0.00468988 0)
(0 -0.00468988 0)
(0 -0.00468988 0)
(0 -0.00468988 0)
(0 -0.00468988 0)
(0 -0.00468988 0)
(0 -0.00468988 0)
(0 -0.00468988 0)
(0 -0.00468988 0)
(0 -0.00468988 0)
(0 -0.00468969 0)
(0 -0.00468902 0)
(0 -0.0046036 0)
(0 -0.00461112 0)
(0 -0.00461608 0)
(0 -0.00456918 0)
(0 -0.00455263 0)
(0 -0.00433787 0)
(0 -0.00435792 0)
(0 -0.00437104 0)
(0 -0.00417886 0)
(0 -0.00414235 0)
(0 -0.00390916 0)
(0 -0.00393803 0)
(0 -0.00367183 0)
(0 -0.00364299 0)
(0 -0.0033776 0)
(0 -0.00338148 0)
(0 -0.00273467 0)
(0 -0.00205511 0)
(0 -0.00139991 0)
(0 -0.000824106 0)
(0 -0.000376087 0)
(0 -9.34923e-05 0)
(0 0 0)
(0 0 0)
(0 0 0)
(0 0 0)
(0 0 0)
(0 0 0)
(0 0 0)
(0 0 0)
(0 0 0)
(0 0 0)
(0 0 0)
(0 0 0)
(0 0 0)
(0 0 0)
(0 -7.84259e-05 0)
(0 -0.000342753 0)
(0 -0.000771115 0)
(0 -0.00132697 0)
(0 -0.00196326 0)
(0 -0.00262649 0)
(0 -0.00326143 0)
(0 -0.00335308 0)
(0 -0.00364559 0)
(0 -0.00368228 0)
(0 -0.00394727 0)
(0 -0.00391054 0)
(0 -0.00414251 0)
(0 -0.00417842 0)
(0 -0.00437086 0)
(0 -0.00436057 0)
(0 -0.00444146 0)
(0 -0.00445127 0)
(0 -0.00462431 0)
(0 -0.00462186 0)
(0 -0.00464058 0)
(0 -0.0046428 0)
(0 -0.00468988 0)
(0 -0.00468988 0)
(0 -0.00468988 0)
(0 -0.00468988 0)
(0 -0.00468988 0)
(0 -0.00468988 0)
(0 -0.00468988 0)
(0 -0.00468988 0)
(0 -0.00468988 0)
(0 -0.00468988 0)
(0 -0.00468988 0)
(0 -0.00468988 0)
(0 -0.00468988 0)
(0 -0.00468988 0)
(0 -0.00468988 0)
(0 -0.00468988 0)
(0 -0.00462431 0)
(0 -0.00461986 0)
(0 -0.00461743 0)
(0 -0.00457064 0)
(0 -0.00457596 0)
(0 -0.0043668 0)
(0 -0.00436024 0)
(0 -0.00434035 0)
(0 -0.00414534 0)
(0 -0.0041733 0)
(0 -0.0039412 0)
(0 -0.0039126 0)
(0 -0.00364682 0)
(0 -0.00367539 0)
(0 -0.00335348 0)
(0 -0.00326973 0)
(0 -0.00263258 0)
(0 -0.00196724 0)
(0 -0.00132916 0)
(0 -0.000771986 0)
(0 -0.000342838 0)
(0 -7.82546e-05 0)
(0 0 0)
(0 0 0)
(0 0 0)
(0 0 0)
(0 0 0)
(0 0 0)
(0 0 0)
(0 0 0)
(0 0 0)
(0 0 0)
(0 0 0)
(0 0 0)
(0 0 0)
(0 0 0)
(0 -3.96666e-05 0)
(0 -0.000249153 0)
(0 -0.000619719 0)
(0 -0.00111808 0)
(0 -0.0017383 0)
(0 -0.00237252 0)
(0 -0.00299114 0)
(0 -0.00315519 0)
(0 -0.00344845 0)
(0 -0.00355182 0)
(0 -0.0038336 0)
(0 -0.00371754 0)
(0 -0.00395737 0)
(0 -0.00407263 0)
(0 -0.00427564 0)
(0 -0.00422699 0)
(0 -0.00431522 0)
(0 -0.00436246 0)
(0 -0.00456058 0)
(0 -0.00454673 0)
(0 -0.0045719 0)
(0 -0.00458668 0)
(0 -0.00468421 0)
(0 -0.0046794 0)
(0 -0.00468514 0)
(0 -0.00468812 0)
(0 -0.00468988 0)
(0 -0.00468988 0)
(0 -0.00468988 0)
(0 -0.00468988 0)
(0 -0.00468988 0)
(0 -0.00468988 0)
(0 -0.00468988 0)
(0 -0.00468988 0)
(0 -0.00468421 0)
(0 -0.0046787 0)
(0 -0.00467107 0)
(0 -0.00467789 0)
(0 -0.00456058 0)
(0 -0.00454673 0)
(0 -0.00452792 0)
(0 -0.00446828 0)
(0 -0.00450511 0)
(0 -0.00427564 0)
(0 -0.00422699 0)
(0 -0.00417174 0)
(0 -0.00395737 0)
(0 -0.00407263 0)
(0 -0.00382646 0)
(0 -0.00371754 0)
(0 -0.00344845 0)
(0 -0.00356114 0)
(0 -0.00315519 0)
(0 -0.00299114 0)
(0 -0.00237252 0)
(0 -0.0017159 0)
(0 -0.00112907 0)
(0 -0.000626926 0)
(0 -0.000253099 0)
(0 -4.09997e-05 0)
(0 0 0)
(0 0 0)
(0 0 0)
(0 0 0)
(0 0 0)
(0 0 0)
(0 0 0)
(0 0 0)
(0 0 0)
(0 0 0)
(0 0 0)
(0 0 0)
(0 0 0)
(0 0 0)
(0 -4.90816e-06 0)
(0 -0.000145697 0)
(0 -0.000443665 0)
(0 -0.000872428 0)
(0 -0.00139278 0)
(0 -0.00195907 0)
(0 -0.0025533 0)
(0 -0.00277862 0)
(0 -0.00308076 0)
(0 -0.00327888 0)
(0 -0.00355877 0)
(0 -0.00334528 0)
(0 -0.0036102 0)
(0 -0.00380216 0)
(0 -0.0040258 0)
(0 -0.00393613 0)
(0 -0.00403491 0)
(0 -0.00412383 0)
(0 -0.00436384 0)
(0 -0.00432391 0)
(0 -0.00436022 0)
(0 -0.00439339 0)
(0 -0.00457596 0)
(0 -0.0045497 0)
(0 -0.00456887 0)
(0 -0.00459411 0)
(0 -0.00467081 0)
(0 -0.00465612 0)
(0 -0.00466257 0)
(0 -0.00467599 0)
(0 -0.00468988 0)
(0 -0.00468727 0)
(0 -0.00468829 0)
(0 -0.00468988 0)
(0 -0.00468988 0)
(0 -0.00468988 0)
(0 -0.00468988 0)
(0 -0.00468988 0)
(0 -0.00468988 0)
(0 -0.00468988 0)
(0 -0.00468727 0)
(0 -0.00468584 0)
(0 -0.00468972 0)
(0 -0.00468984 0)
(0 -0.00467081 0)
(0 -0.00465612 0)
(0 -0.00464815 0)
(0 -0.00466415 0)
(0 -0.00457596 0)
(0 -0.0045497 0)
(0 -0.00452833 0)
(0 -0.00455555 0)
(0 -0.00436706 0)
(0 -0.0043304 0)
(0 -0.00428634 0)
(0 -0.0042135 0)
(0 -0.0042927 0)
(0 -0.00401475 0)
(0 -0.00393157 0)
(0 -0.0038344 0)
(0 -0.00360524 0)
(0 -0.00380216 0)
(0 -0.00355877 0)
(0 -0.00334528 0)
(0 -0.00308076 0)
(0 -0.00327888 0)
(0 -0.00277862 0)
(0 -0.0025533 0)
(0 -0.00195907 0)
(0 -0.00139278 0)
(0 -0.000872428 0)
(0 -0.000443665 0)
(0 -0.000135907 0)
(0 -5.89558e-06 0)
(0 0 0)
(0 0 0)
(0 0 0)
(0 0 0)
(0 0 0)
(0 0 0)
(0 0 0)
(0 0 0)
(0 0 0)
(0 0 0)
(0 0 0)
(0 0 0)
(0 0 0)
(0 0 0)
(0 0 0)
(0 -4.47832e-05 0)
(0 -0.000235991 0)
(0 -0.000555233 0)
(0 -0.000969212 0)
(0 -0.00148645 0)
(0 -0.00202125 0)
(0 -0.00227353 0)
(0 -0.00257123 0)
(0 -0.0028258 0)
(0 -0.00310179 0)
(0 -0.00283924 0)
(0 -0.00308981 0)
(0 -0.00336119 0)
(0 -0.00359606 0)
(0 -0.00331856 0)
(0 -0.00351006 0)
(0 -0.00366907 0)
(0 -0.00380272 0)
(0 -0.00370311 0)
(0 -0.00398044 0)
(0 -0.00384149 0)
(0 -0.00392738 0)
(0 -0.00405903 0)
(0 -0.00425576 0)
(0 -0.00413663 0)
(0 -0.00418428 0)
(0 -0.00430777 0)
(0 -0.00443009 0)
(0 -0.00432451 0)
(0 -0.00435553 0)
(0 -0.00445935 0)
(0 -0.00452051 0)
(0 -0.00442308 0)
(0 -0.00444027 0)
(0 -0.00453248 0)
(0 -0.00454851 0)
(0 -0.00445854 0)
(0 -0.00445389 0)
(0 -0.00454484 0)
(0 -0.00452051 0)
(0 -0.00442308 0)
(0 -0.00439869 0)
(0 -0.00450172 0)
(0 -0.00443009 0)
(0 -0.00432451 0)
(0 -0.00428575 0)
(0 -0.00439321 0)
(0 -0.00425576 0)
(0 -0.00413663 0)
(0 -0.00407502 0)
(0 -0.00419547 0)
(0 -0.00398044 0)
(0 -0.00384149 0)
(0 -0.00376083 0)
(0 -0.0038946 0)
(0 -0.00359606 0)
(0 -0.00331856 0)
(0 -0.00308981 0)
(0 -0.00336119 0)
(0 -0.00310179 0)
(0 -0.00283924 0)
(0 -0.00257123 0)
(0 -0.0028258 0)
(0 -0.00227353 0)
(0 -0.00202125 0)
(0 -0.00148645 0)
(0 -0.000969212 0)
(0 -0.000555233 0)
(0 -0.000235991 0)
(0 -4.47832e-05 0)
(0 0 0)
(0 0 0)
(0 0 0)
(0 0 0)
(0 0 0)
(0 0 0)
(0 0 0)
(0 0 0)
(0 0 0)
(0 0 0)
(0 0 0)
(0 0 0)
(0 0 0)
(0 0 0)
(0 0 0)
(0 0 0)
(0 0 0)
(0 -6.74864e-05 0)
(0 -0.000278668 0)
(0 -0.000597385 0)
(0 -0.000992656 0)
(0 -0.00142561 0)
(0 -0.001853 0)
(0 -0.00218466 0)
(0 -0.00253733 0)
(0 -0.0022843 0)
(0 -0.00242201 0)
(0 -0.00277551 0)
(0 -0.00298558 0)
(0 -0.00264441 0)
(0 -0.00284782 0)
(0 -0.00319998 0)
(0 -0.00338935 0)
(0 -0.00321411 0)
(0 -0.00328175 0)
(0 -0.00347382 0)
(0 -0.00368933 0)
(0 -0.00351703 0)
(0 -0.00358096 0)
(0 -0.00375376 0)
(0 -0.00390059 0)
(0 -0.0037273 0)
(0 -0.00375587 0)
(0 -0.00393394 0)
(0 -0.00402728 0)
(0 -0.00386086 0)
(0 -0.0038803 0)
(0 -0.00404656 0)
(0 -0.00406922 0)
(0 -0.00390385 0)
(0 -0.00389585 0)
(0 -0.00406195 0)
(0 -0.00402728 0)
(0 -0.00386086 0)
(0 -0.00383364 0)
(0 -0.00400023 0)
(0 -0.00390059 0)
(0 -0.0037273 0)
(0 -0.00368618 0)
(0 -0.00385944 0)
(0 -0.00368933 0)
(0 -0.00351703 0)
(0 -0.00344572 0)
(0 -0.0036173 0)
(0 -0.00338935 0)
(0 -0.00321411 0)
(0 -0.00301158 0)
(0 -0.00284782 0)
(0 -0.00319998 0)
(0 -0.00298558 0)
(0 -0.00264441 0)
(0 -0.00242201 0)
(0 -0.00277551 0)
(0 -0.00253733 0)
(0 -0.00218466 0)
(0 -0.001853 0)
(0 -0.00142561 0)
(0 -0.0022843 0)
(0 -0.000992656 0)
(0 -0.000597385 0)
(0 -0.000278668 0)
(0 -6.74864e-05 0)
(0 0 0)
(0 0 0)
(0 0 0)
(0 0 0)
(0 0 0)
(0 0 0)
(0 0 0)
(0 0 0)
(0 0 0)
(0 0 0)
(0 0 0)
(0 0 0)
(0 0 0)
(0 0 0)
(0 0 0)
(0 0 0)
(0 0 0)
(0 0 0)
(0 -8.55813e-07 0)
(0 -7.66668e-05 0)
(0 -0.000259799 0)
(0 -0.000509113 0)
(0 -0.000833308 0)
(0 -0.00117906 0)
(0 -0.00151335 0)
(0 -0.00170851 0)
(0 -0.00207074 0)
(0 -0.00227611 0)
(0 -0.00187301 0)
(0 -0.00205861 0)
(0 -0.00244532 0)
(0 -0.00263086 0)
(0 -0.00243149 0)
(0 -0.00251309 0)
(0 -0.0027157 0)
(0 -0.00293441 0)
(0 -0.00272402 0)
(0 -0.00278207 0)
(0 -0.00299444 0)
(0 -0.00313047 0)
(0 -0.00291981 0)
(0 -0.00296671 0)
(0 -0.00317874 0)
(0 -0.00327988 0)
(0 -0.00306515 0)
(0 -0.00308353 0)
(0 -0.00329874 0)
(0 -0.00332358 0)
(0 -0.00310838 0)
(0 -0.00309826 0)
(0 -0.00331385 0)
(0 -0.00327988 0)
(0 -0.00306515 0)
(0 -0.0030395 0)
(0 -0.00325355 0)
(0 -0.00313047 0)
(0 -0.00291981 0)
(0 -0.0028661 0)
(0 -0.00309392 0)
(0 -0.00293441 0)
(0 -0.00272402 0)
(0 -0.00265967 0)
(0 -0.00286777 0)
(0 -0.00263086 0)
(0 -0.00243149 0)
(0 -0.00222851 0)
(0 -0.00205861 0)
(0 -0.00244532 0)
(0 -0.00227611 0)
(0 -0.00187301 0)
(0 -0.00170851 0)
(0 -0.00207074 0)
(0 -0.00151335 0)
(0 -0.00117906 0)
(0 -0.000833308 0)
(0 -0.000509113 0)
(0 -0.000259799 0)
(0 -7.66668e-05 0)
(0 -8.55813e-07 0)
(0 0 0)
(0 0 0)
(0 0 0)
(0 0 0)
(0 0 0)
(0 0 0)
(0 0 0)
(0 0 0)
(0 0 0)
(0 0 0)
(0 0 0)
(0 0 0)
(0 0 0)
(0 0 0)
(0 0 0)
(0 0 0)
(0 0 0)
(0 0 0)
(0 0 0)
(0 0 0)
(0 -4.02628e-05 0)
(0 -0.000167693 0)
(0 -0.000339714 0)
(0 -0.000572014 0)
(0 -0.000845808 0)
(0 -0.000997348 0)
(0 -0.00132896 0)
(0 -0.001503 0)
(0 -0.00114585 0)
(0 -0.00128759 0)
(0 -0.00166767 0)
(0 -0.00181938 0)
(0 -0.00161715 0)
(0 -0.00168272 0)
(0 -0.00188935 0)
(0 -0.00207155 0)
(0 -0.00185387 0)
(0 -0.0018851 0)
(0 -0.00209969 0)
(0 -0.00225812 0)
(0 -0.0020347 0)
(0 -0.00207384 0)
(0 -0.00229949 0)
(0 -0.00238666 0)
(0 -0.0021564 0)
(0 -0.00217188 0)
(0 -0.00240299 0)
(0 -0.00242678 0)
(0 -0.00219498 0)
(0 -0.00218431 0)
(0 -0.0024161 0)
(0 -0.00238666 0)
(0 -0.0021564 0)
(0 -0.00213483 0)
(0 -0.0023639 0)
(0 -0.00225812 0)
(0 -0.0020347 0)
(0 -0.00199005 0)
(0 -0.00221089 0)
(0 -0.00207155 0)
(0 -0.00185387 0)
(0 -0.00180139 0)
(0 -0.00201575 0)
(0 -0.00181938 0)
(0 -0.00161715 0)
(0 -0.00141911 0)
(0 -0.00128759 0)
(0 -0.00166767 0)
(0 -0.001503 0)
(0 -0.00114585 0)
(0 -0.000997348 0)
(0 -0.00132896 0)
(0 -0.000845808 0)
(0 -0.000572014 0)
(0 -0.000339714 0)
(0 -0.000167693 0)
(0 -4.02628e-05 0)
(0 0 0)
(0 0 0)
(0 0 0)
(0 0 0)
(0 0 0)
(0 0 0)
(0 0 0)
(0 0 0)
(0 0 0)
(0 0 0)
(0 0 0)
(0 0 0)
(0 0 0)
(0 0 0)
(0 0 0)
(0 0 0)
(0 0 0)
(0 0 0)
(0 0 0)
(0 0 0)
(0 0 0)
(0 0 0)
(0 0 0)
(0 -3.42869e-06 0)
(0 -5.81588e-05 0)
(0 -0.000162313 0)
(0 -0.000340497 0)
(0 -0.000433198 0)
(0 -0.000694398 0)
(0 -0.000816036 0)
(0 -0.000527328 0)
(0 -0.000619703 0)
(0 -0.000933453 0)
(0 -0.00104342 0)
(0 -0.000869535 0)
(0 -0.000915791 0)
(0 -0.00109469 0)
(0 -0.00121816 0)
(0 -0.00103097 0)
(0 -0.00107437 0)
(0 -0.00126585 0)
(0 -0.00138602 0)
(0 -0.00118404 0)
(0 -0.00121297 0)
(0 -0.00141765 0)
(0 -0.00148463 0)
(0 -0.00127433 0)
(0 -0.00128588 0)
(0 -0.00149722 0)
(0 -0.00151734 0)
(0 -0.00130474 0)
(0 -0.00129517 0)
(0 -0.00150735 0)
(0 -0.00148463 0)
(0 -0.00127433 0)
(0 -0.00125826 0)
(0 -0.00146709 0)
(0 -0.00138602 0)
(0 -0.00118404 0)
(0 -0.00115115 0)
(0 -0.00135004 0)
(0 -0.00121816 0)
(0 -0.00103097 0)
(0 -0.0009846 0)
(0 -0.00116712 0)
(0 -0.00104342 0)
(0 -0.000869535 0)
(0 -0.000707346 0)
(0 -0.000619703 0)
(0 -0.000933453 0)
(0 -0.000816036 0)
(0 -0.000527328 0)
(0 -0.000433198 0)
(0 -0.000694398 0)
(0 -0.000340497 0)
(0 -0.000162313 0)
(0 -5.81588e-05 0)
(0 -3.42869e-06 0)
(0 0 0)
(0 0 0)
(0 0 0)
(0 0 0)
(0 0 0)
(0 0 0)
(0 0 0)
(0 0 0)
(0 0 0)
(0 0 0)
(0 0 0)
(0 0 0)
(0 0 0)
(0 0 0)
(0 0 0)
(0 0 0)
(0 0 0)
(0 0 0)
(0 0 0)
(0 0 0)
(0 0 0)
(0 0 0)
(0 0 0)
(0 0 0)
(0 0 0)
(0 0 0)
(0 -6.21521e-07 0)
(0 -4.66945e-05 0)
(0 -8.13334e-05 0)
(0 -0.000225529 0)
(0 -0.000292203 0)
(0 -0.000121277 0)
(0 -0.000163993 0)
(0 -0.000359469 0)
(0 -0.000424624 0)
(0 -0.000292293 0)
(0 -0.000322216 0)
(0 -0.000440668 0)
(0 -0.000541065 0)
(0 -0.000407197 0)
(0 -0.000432993 0)
(0 -0.000571268 0)
(0 -0.000648505 0)
(0 -0.000499365 0)
(0 -0.000517138 0)
(0 -0.000669083 0)
(0 -0.000712993 0)
(0 -0.000555176 0)
(0 -0.000562388 0)
(0 -0.0007213 0)
(0 -0.000735745 0)
(0 -0.000575192 0)
(0 -0.000568197 0)
(0 -0.000727986 0)
(0 -0.000712993 0)
(0 -0.000555176 0)
(0 -0.000545168 0)
(0 -0.000701457 0)
(0 -0.000648505 0)
(0 -0.000499365 0)
(0 -0.000479292 0)
(0 -0.000625212 0)
(0 -0.000541065 0)
(0 -0.000407197 0)
(0 -0.000379957 0)
(0 -0.000509044 0)
(0 -0.000424624 0)
(0 -0.000292293 0)
(0 -0.000196555 0)
(0 -0.000163993 0)
(0 -0.000359469 0)
(0 -0.000292203 0)
(0 -0.000121277 0)
(0 -8.13334e-05 0)
(0 -0.000225529 0)
(0 -4.66945e-05 0)
(0 -6.21521e-07 0)
(0 0 0)
(0 0 0)
(0 0 0)
(0 0 0)
(0 0 0)
(0 0 0)
(0 0 0)
(0 0 0)
(0 0 0)
(0 0 0)
(0 0 0)
(0 0 0)
(0 0 0)
(0 0 0)
(0 0 0)
(0 0 0)
(0 0 0)
(0 0 0)
(0 0 0)
(0 0 0)
(0 0 0)
(0 0 0)
(0 0 0)
(0 0 0)
(0 0 0)
(0 0 0)
(0 0 0)
(0 0 0)
(0 0 0)
(0 0 0)
(0 0 0)
(0 -2.2826e-05 0)
(0 -8.25591e-06 0)
(0 0 0)
(0 -3.58938e-05 0)
(0 -5.99652e-05 0)
(0 -1.83583e-06 0)
(0 -8.02432e-06 0)
(0 -8.64147e-05 0)
(0 -0.000113216 0)
(0 -1.69203e-05 0)
(0 -2.69421e-05 0)
(0 -0.00013854 0)
(0 -0.000160799 0)
(0 -3.67085e-05 0)
(0 -4.50731e-05 0)
(0 -0.00017868 0)
(0 -0.000191173 0)
(0 -5.11519e-05 0)
(0 -5.43438e-05 0)
(0 -0.000197594 0)
(0 -0.000202731 0)
(0 -5.70705e-05 0)
(0 -5.43438e-05 0)
(0 -0.000197594 0)
(0 -0.000191173 0)
(0 -5.11519e-05 0)
(0 -4.50731e-05 0)
(0 -0.00017868 0)
(0 -0.000160799 0)
(0 -3.67085e-05 0)
(0 -2.69421e-05 0)
(0 -0.00013854 0)
(0 -0.000113216 0)
(0 -1.69203e-05 0)
(0 -8.02432e-06 0)
(0 -8.64147e-05 0)
(0 -5.99652e-05 0)
(0 -1.83583e-06 0)
(0 0 0)
(0 -3.58938e-05 0)
(0 -2.2826e-05 0)
(0 0 0)
(0 0 0)
(0 0 0)
(0 -8.25591e-06 0)
(0 0 0)
(0 0 0)
(0 0 0)
(0 0 0)
(0 0 0)
(0 0 0)
(0 0 0)
(0 0 0)
(0 0 0)
(0 0 0)
(0 0 0)
(0 0 0)
(0 0 0)
(0 0 0)
(0 0 0)
(0 0 0)
(0 0 0)
(0 0 0)
(0 0 0)
(0 0 0)
(0 0 0)
(0 0 0)
(0 0 0)
(0 0 0)
(0 0 0)
(0 0 0)
(0 0 0)
(0 0 0)
(0 0 0)
(0 0 0)
(0 0 0)
(0 0 0)
(0 0 0)
(0 0 0)
(0 0 0)
(0 0 0)
(0 0 0)
(0 0 0)
(0 0 0)
(0 0 0)
(0 -1.64984e-07 0)
(0 0 0)
(0 0 0)
(0 -6.34914e-07 0)
(0 -3.77763e-07 0)
(0 0 0)
(0 -1.64984e-07 0)
(0 -3.77763e-07 0)
(0 0 0)
(0 0 0)
(0 0 0)
(0 0 0)
(0 0 0)
(0 0 0)
(0 0 0)
(0 0 0)
(0 0 0)
(0 0 0)
(0 0 0)
(0 0 0)
(0 0 0)
(0 0 0)
(0 0 0)
(0 0 0)
(0 0 0)
(0 0 0)
(0 0 0)
(0 0 0)
(0 0 0)
(0 0 0)
(0 0 0)
(0 0 0)
(0 0 0)
(0 0 0)
(0 0 0)
(0 0 0)
(0 0 0)
(0 0 0)
(0 0 0)
(0 0 0)
(0 0 0)
(0 0 0)
(0 0 0)
(0 0 0)
(0 0 0)
(0 0 0)
(0 0 0)
(0 0 0)
(0 0 0)
(0 0 0)
(0 0 0)
(0 0 0)
(0 0 0)
(0 0 0)
(0 0 0)
(0 0 0)
(0 0 0)
(0 0 0)
(0 0 0)
(0 0 0)
(0 0 0)
(0 0 0)
(0 0 0)
(0 0 0)
(0 0 0)
(0 0 0)
(0 0 0)
(0 0 0)
(0 0 0)
(0 0 0)
(0 0 0)
(0 0 0)
(0 0 0)
(0 0 0)
(0 0 0)
(0 0 0)
(0 0 0)
(0 0 0)
(0 0 0)
(0 0 0)
(0 0 0)
(0 0 0)
(0 0 0)
(0 0 0)
(0 0 0)
(0 0 0)
(0 0 0)
(0 0 0)
(0 0 0)
(0 0 0)
(0 0 0)
(0 0 0)
(0 0 0)
(0 0 0)
(0 0 0)
(0 0 0)
(0 0 0)
(0 0 0)
(0 0 0)
(0 0 0)
(0 0 0)
(0 0 0)
(0 0 0)
(0 0 0)
(0 0 0)
(0 0 0)
(0 0 0)
(0 0 0)
(0 0 0)
(0 0 0)
(0 0 0)
(0 0 0)
(0 0 0)
(0 0 0)
(0 0 0)
(0 0 0)
(0 0 0)
(0 0 0)
(0 0 0)
(0 0 0)
(0 0 0)
(0 0 0)
(0 0 0)
(0 0 0)
(0 0 0)
(0 0 0)
(0 0 0)
(0 0 0)
(0 0 0)
(0 0 0)
(0 0 0)
(0 0 0)
(0 0 0)
(0 0 0)
(0 0 0)
(0 0 0)
(0 0 0)
(0 0 0)
(0 0 0)
(0 0 0)
(0 0 0)
(0 0 0)
(0 0 0)
(0 0 0)
(0 0 0)
(0 0 0)
(0 0 0)
(0 0 0)
(0 0 0)
(0 0 0)
(0 0 0)
(0 0 0)
(0 0 0)
(0 0 0)
(0 0 0)
(0 0 0)
(0 0 0)
(0 0 0)
(0 0 0)
(0 0 0)
(0 0 0)
(0 0 0)
(0 0 0)
(0 0 0)
(0 0 0)
(0 0 0)
(0 0 0)
(0 0 0)
(0 0 0)
(0 0 0)
(0 0 0)
(0 0 0)
(0 0 0)
(0 0 0)
(0 0 0)
(0 0 0)
(0 0 0)
(0 0 0)
(0 0 0)
(0 0 0)
(0 0 0)
(0 0 0)
(0 0 0)
(0 0 0)
(0 0 0)
(0 0 0)
(0 0 0)
(0 0 0)
(0 0 0)
(0 0 0)
(0 0 0)
(0 0 0)
(0 0 0)
(0 0 0)
(0 0 0)
(0 0 0)
(0 0 0)
(0 0 0)
(0 0 0)
(0 0 0)
(0 0 0)
(0 0 0)
(0 0 0)
(0 0 0)
(0 0 0)
(0 0 0)
(0 0 0)
(0 0 0)
(0 0 0)
(0 0 0)
(0 0 0)
(0 0 0)
(0 0 0)
(0 0 0)
(0 0 0)
(0 0 0)
(0 0 0)
(0 0 0)
(0 0 0)
(0 0 0)
(0 0 0)
(0 0 0)
(0 0 0)
(0 0 0)
(0 0 0)
(0 0 0)
(0 0 0)
(0 0 0)
(0 0 0)
(0 0 0)
(0 0 0)
(0 0 0)
(0 0 0)
(0 0 0)
(0 0 0)
(0 0 0)
(0 0 0)
(0 0 0)
(0 0 0)
(0 0 0)
(0 0 0)
(0 0 0)
(0 0 0)
(0 0 0)
(0 0 0)
(0 0 0)
(0 0 0)
(0 0 0)
(0 0 0)
(0 0 0)
(0 0 0)
(0 0 0)
(0 0 0)
(0 0 0)
(0 0 0)
(0 0 0)
(0 0 0)
(0 0 0)
(0 0 0)
(0 0 0)
(0 0 0)
(0 0 0)
(0 0 0)
(0 0 0)
(0 0 0)
(0 0 0)
(0 0 0)
(0 0 0)
(0 0 0)
(0 0 0)
(0 0 0)
(0 0 0)
(0 0 0)
(0 0 0)
(0 0 0)
(0 0 0)
(0 0 0)
(0 0 0)
(0 0 0)
(0 0 0)
(0 0 0)
(0 0 0)
(0 0 0)
(0 0 0)
(0 0 0)
(0 0 0)
(0 0 0)
(0 0 0)
(0 0 0)
(0 0 0)
(0 0 0)
(0 0 0)
(0 0 0)
(0 0 0)
(0 0 0)
(0 0 0)
(0 0 0)
(0 0 0)
(0 0 0)
(0 0 0)
(0 0 0)
(0 0 0)
(0 0 0)
(0 0 0)
(0 0 0)
(0 0 0)
(0 0 0)
(0 0 0)
(0 0 0)
(0 0 0)
(0 0 0)
(0 0 0)
(0 0 0)
(0 0 0)
(0 0 0)
(0 0 0)
(0 0 0)
(0 0 0)
(0 0 0)
(0 0 0)
(0 0 0)
(0 0 0)
(0 0 0)
(0 0 0)
(0 0 0)
(0 0 0)
(0 0 0)
(0 0 0)
(0 0 0)
(0 0 0)
(0 0 0)
(0 0 0)
(0 0 0)
(0 0 0)
(0 0 0)
(0 0 0)
(0 0 0)
(0 0 0)
(0 0 0)
(0 0 0)
(0 0 0)
(0 0 0)
(0 0 0)
(0 0 0)
(0 0 0)
(0 0 0)
(0 0 0)
(0 0 0)
(0 0 0)
(0 0 0)
(0 0 0)
(0 0 0)
(0 0 0)
(0 0 0)
(0 0 0)
(0 0 0)
(0 0 0)
(0 0 0)
(0 0 0)
(0 0 0)
(0 0 0)
(0 0 0)
(0 0 0)
(0 0 0)
(0 0 0)
(0 0 0)
(0 0 0)
(0 0 0)
(0 0 0)
(0 0 0)
(0 0 0)
(0 0 0)
(0 0 0)
(0 0 0)
(0 0 0)
(0 0 0)
(0 0 0)
(0 0 0)
(0 0 0)
(0 0 0)
(0 0 0)
(0 0 0)
(0 0 0)
(0 0 0)
(0 0 0)
(0 0 0)
(0 0 0)
(0 0 0)
(0 0 0)
(0 0 0)
(0 0 0)
(0 0 0)
(0 0 0)
(0 0 0)
(0 0 0)
(0 0 0)
(0 0 0)
(0 0 0)
(0 0 0)
(0 0 0)
(0 0 0)
(0 0 0)
(0 0 0)
(0 0 0)
(0 0 0)
(0 0 0)
(0 0 0)
(0 0 0)
(0 0 0)
(0 0 0)
(0 0 0)
(0 0 0)
(0 0 0)
(0 0 0)
(0 0 0)
(0 0 0)
(0 0 0)
(0 0 0)
(0 0 0)
(0 0 0)
(0 0 0)
(0 0 0)
(0 0 0)
(0 0 0)
(0 0 0)
(0 0 0)
(0 0 0)
(0 0 0)
(0 0 0)
(0 0 0)
(0 0 0)
(0 0 0)
(0 0 0)
(0 0 0)
(0 0 0)
(0 0 0)
(0 0 0)
(0 0 0)
(0 0 0)
(0 0 0)
(0 0 0)
(0 0 0)
(0 0 0)
(0 0 0)
(0 0 0)
(0 0 0)
(0 0 0)
(0 0 0)
(0 0 0)
(0 0 0)
(0 0 0)
(0 0 0)
(0 0 0)
(0 0 0)
(0 0 0)
(0 0 0)
(0 0 0)
(0 0 0)
(0 0 0)
(0 0 0)
(0 0 0)
(0 0 0)
(0 0 0)
(0 0 0)
(0 0 0)
(0 0 0)
(0 0 0)
(0 0 0)
(0 0 0)
(0 0 0)
(0 0 0)
(0 0 0)
(0 0 0)
(0 0 0)
(0 0 0)
(0 0 0)
(0 0 0)
(0 0 0)
(0 0 0)
(0 0 0)
(0 0 0)
(0 0 0)
(0 0 0)
(0 0 0)
(0 0 0)
(0 0 0)
(0 0 0)
(0 0 0)
(0 0 0)
(0 0 0)
(0 0 0)
(0 0 0)
(0 0 0)
(0 0 0)
(0 0 0)
(0 0 0)
(0 0 0)
(0 0 0)
(0 0 0)
(0 0 0)
(0 0 0)
(0 0 0)
(0 0 0)
(0 0 0)
(0 0 0)
(0 0 0)
(0 0 0)
(0 0 0)
(0 0 0)
(0 0 0)
(0 0 0)
(0 0 0)
(0 0 0)
(0 0 0)
(0 0 0)
(0 0 0)
(0 0 0)
(0 0 0)
(0 0 0)
(0 0 0)
(0 0 0)
(0 0 0)
(0 0 0)
(0 0 0)
(0 0 0)
(0 0 0)
(0 0 0)
(0 0 0)
(0 0 0)
(0 0 0)
(0 0 0)
(0 0 0)
(0 0 0)
(0 0 0)
(0 0 0)
(0 0 0)
(0 0 0)
(0 0 0)
(0 0 0)
(0 0 0)
(0 0 0)
(0 0 0)
(0 0 0)
(0 0 0)
(0 0 0)
(0 0 0)
(0 0 0)
(0 0 0)
(0 0 0)
(0 0 0)
(0 0 0)
(0 0 0)
(0 0 0)
(0 0 0)
(0 0 0)
(0 0 0)
(0 0 0)
(0 0 0)
(0 0 0)
(0 0 0)
(0 0 0)
(0 0 0)
(0 0 0)
(0 0 0)
(0 0 0)
(0 0 0)
(0 0 0)
(0 0 0)
(0 0 0)
(0 0 0)
(0 0 0)
(0 0 0)
(0 0 0)
(0 0 0)
(0 0 0)
(0 0 0)
(0 0 0)
(0 0 0)
(0 0 0)
(0 0 0)
(0 0 0)
(0 0 0)
(0 0 0)
(0 0 0)
(0 0 0)
(0 0 0)
(0 0 0)
(0 0 0)
(0 0 0)
(0 0 0)
(0 0 0)
(0 0 0)
(0 0 0)
(0 0 0)
(0 0 0)
(0 0 0)
(0 0 0)
(0 0 0)
(0 0 0)
(0 0 0)
(0 0 0)
(0 0 0)
(0 0 0)
(0 0 0)
(0 0 0)
(0 0 0)
(0 0 0)
(0 0 0)
(0 0 0)
(0 0 0)
(0 0 0)
(0 0 0)
(0 0 0)
(0 0 0)
(0 0 0)
(0 0 0)
(0 0 0)
(0 0 0)
(0 0 0)
(0 0 0)
(0 0 0)
(0 0 0)
(0 0 0)
(0 0 0)
(0 0 0)
(0 0 0)
(0 0 0)
(0 0 0)
(0 0 0)
(0 0 0)
(0 0 0)
(0 0 0)
(0 0 0)
(0 0 0)
(0 0 0)
(0 0 0)
(0 0 0)
(0 0 0)
(0 0 0)
(0 0 0)
(0 0 0)
(0 0 0)
(0 0 0)
(0 0 0)
(0 0 0)
(0 0 0)
(0 0 0)
(0 0 0)
(0 0 0)
(0 0 0)
(0 0 0)
(0 0 0)
(0 0 0)
(0 0 0)
(0 0 0)
(0 0 0)
(0 0 0)
(0 0 0)
(0 0 0)
(0 0 0)
(0 0 0)
(0 0 0)
(0 0 0)
(0 0 0)
(0 0 0)
(0 0 0)
(0 0 0)
(0 0 0)
(0 0 0)
(0 0 0)
(0 0 0)
(0 0 0)
(0 0 0)
(0 0 0)
(0 0 0)
(0 0 0)
(0 0 0)
(0 0 0)
(0 0 0)
(0 0 0)
(0 0 0)
(0 0 0)
(0 0 0)
(0 0 0)
(0 0 0)
(0 0 0)
(0 0 0)
(0 0 0)
(0 0 0)
(0 0 0)
(0 0 0)
(0 0 0)
(0 0 0)
(0 0 0)
(0 0 0)
(0 0 0)