/*--------------------------------*- C++ -*----------------------------------*\
| =========                 |                                                 |
| \\      /  F ield         | OpenFOAM: The Open Source CFD Toolbox           |
|  \\    /   O peration     | Version:  v2106                                 |
|   \\  /    A nd           | Website:  www.openfoam.com                      |
|    \\/     M anipulation  |                                                 |
\*---------------------------------------------------------------------------*/
FoamFile
{
    version     2.0;
    format      ascii;
    arch        "LSB;label=32;scalar=64";
    class       volVectorField;
    location    "0";
    object      U;
}
// * * * * * * * * * * * * * * * * * * * * * * * * * * * * * * * * * * * * * //

dimensions      [0 1 -1 0 0 0 0];

internalField   nonuniform List<vector> 
11644
(
(0.993003 -0.000248102 1.64062e-23)
(0.992887 -0.000661814 4.52436e-23)
(0.992813 -0.000983058 2.42743e-23)
(0.992794 -0.00131293 0)
(0.992791 -0.00166759 0)
(0.992788 -0.0020464 0)
(0.992785 -0.00244472 0)
(0.992782 -0.00285621 0)
(0.992778 -0.00327159 0)
(0.992777 -0.00367732 0)
(0.992773 -0.00405256 0)
(0.992735 -0.00438966 0)
(0.992759 -0.00463914 0)
(0.992943 -0.004785 0)
(0.992816 -0.00482779 0)
(0.992814 -0.00473277 0)
(0.992796 -0.00447911 0)
(0.992668 -0.00405334 0)
(0.992707 -0.00354795 0)
(0.992802 -0.0030137 3.39737e-30)
(0.992682 -0.00239438 -3.39449e-30)
(0.992326 -0.00147438 0)
(0.992131 -0.00024952 0)
(0.992375 0.000825001 0)
(0.992683 0.00144039 0)
(0.99276 0.00184213 0)
(0.992921 0.00222991 0)
(0.992797 0.0024132 0)
(0.992748 0.00251418 0)
(0.992762 0.00250909 0)
(0.992772 0.00242091 0)
(0.992776 0.00226779 0)
(0.992776 0.00206775 0)
(0.992776 0.00183549 0)
(0.992776 0.00158406 0)
(0.99278 0.00132602 0)
(0.992787 0.0010647 0)
(0.992804 0.00080906 0)
(0.992865 0.000554752 0)
(0.992968 0.000212191 3.181e-24)
(0.993851 -0.000498377 2.10737e-23)
(0.993779 -0.00151424 1.9521e-23)
(0.993734 -0.00256302 1.04841e-23)
(0.993745 -0.00362238 0)
(0.993791 -0.00471418 0)
(0.993854 -0.00585652 0)
(0.993919 -0.00705635 0)
(0.993975 -0.00830379 0)
(0.994009 -0.00957897 0)
(0.99401 -0.0108443 0)
(0.993935 -0.01206 0)
(0.99385 -0.0131241 0)
(0.993634 -0.0139979 0)
(0.993068 -0.0146264 0)
(0.992796 -0.0147607 0)
(0.992216 -0.0144793 -4.57544e-24)
(0.991581 -0.0136764 -1.03606e-24)
(0.991316 -0.0125249 -1.75638e-23)
(0.991 -0.0109462 -3.65573e-23)
(0.990514 -0.00874181 1.57029e-23)
(0.989998 -0.00592991 2.17522e-23)
(0.989768 -0.00291833 1.17622e-24)
(0.990004 -0.000219578 1.3522e-23)
(0.990541 0.0020653 2.51286e-24)
(0.991137 0.00408213 2.48379e-24)
(0.991661 0.00568929 0)
(0.991868 0.00675087 0)
(0.992433 0.00743687 0)
(0.992826 0.0076971 0)
(0.99306 0.00763027 0)
(0.99322 0.00731602 0)
(0.99335 0.00680946 0)
(0.993436 0.00617024 0)
(0.993488 0.00544224 0)
(0.993515 0.00465889 0)
(0.993526 0.00384505 0)
(0.993533 0.00301725 0)
(0.993554 0.00217367 0)
(0.993615 0.0013089 0)
(0.993696 0.000435541 0)
(0.995527 -0.000758906 0)
(0.99551 -0.0023421 0)
(0.99555 -0.00399647 0)
(0.995653 -0.00572313 0)
(0.995808 -0.0075223 1.92504e-23)
(0.995994 -0.00941498 0)
(0.996189 -0.011409 0)
(0.996366 -0.0134979 0)
(0.996491 -0.015655 0)
(0.996501 -0.0178436 0)
(0.996401 -0.0199464 0)
(0.995984 -0.0219274 0)
(0.995272 -0.023573 1.88976e-24)
(0.994582 -0.0246497 4.11637e-23)
(0.993015 -0.0252011 2.03041e-22)
(0.991533 -0.024907 -7.61664e-22)
(0.990196 -0.0238159 2.3415e-22)
(0.988514 -0.0216099 2.80643e-22)
(0.986788 -0.0181239 -4.91028e-22)
(0.985293 -0.013564 1.0356e-21)
(0.984509 -0.0085092 -1.00933e-21)
(0.984607 -0.00349564 3.91249e-22)
(0.985518 0.000971315 -2.30827e-22)
(0.986781 0.00484142 5.66066e-22)
(0.988145 0.00819864 1.34557e-23)
(0.989525 0.0107888 -2.19515e-22)
(0.99116 0.0125806 -5.37046e-23)
(0.992075 0.0134798 -3.21951e-24)
(0.992905 0.0137412 0)
(0.99365 0.0134422 0)
(0.99422 0.0127265 0)
(0.994576 0.0117327 0)
(0.994809 0.0105429 0)
(0.994943 0.00923205 0)
(0.99501 0.00785204 0)
(0.995036 0.00643579 0)
(0.995047 0.00500374 0)
(0.995066 0.00355822 0)
(0.995114 0.00210301 0)
(0.995177 0.000686951 0)
(0.997993 -0.00103358 0)
(0.998029 -0.00311724 0)
(0.998164 -0.00531159 0)
(0.998402 -0.00759666 0)
(0.998727 -0.0100084 0)
(0.99911 -0.0125757 0)
(0.999517 -0.0153129 0)
(0.999897 -0.0182216 0)
(1.00018 -0.0212867 0)
(1.00029 -0.024431 0)
(1.00002 -0.0276376 -1.23588e-24)
(0.999391 -0.0306779 -1.95121e-23)
(0.998199 -0.0333663 3.35763e-22)
(0.995959 -0.0355811 -5.18701e-22)
(0.993811 -0.0364664 1.55709e-22)
(0.990683 -0.0362145 1.27337e-22)
(0.986901 -0.0342598 -2.79458e-22)
(0.982917 -0.0303703 -2.41847e-22)
(0.979458 -0.0245562 6.18489e-22)
(0.976853 -0.0176379 -2.0104e-23)
(0.975655 -0.0101951 -9.68667e-23)
(0.976068 -0.00267109 -1.45682e-22)
(0.978047 0.0042433 -1.65881e-22)
(0.9806 0.0100805 -2.52328e-23)
(0.983421 0.0148164 1.82467e-22)
(0.986415 0.0182455 -1.18152e-22)
(0.988857 0.0203594 5.16829e-22)
(0.991718 0.0212427 -3.24481e-22)
(0.99369 0.0211446 2.1842e-23)
(0.995027 0.0203192 1.58609e-24)
(0.995953 0.0189543 0)
(0.99663 0.0172182 0)
(0.997026 0.0152928 0)
(0.997246 0.0132577 0)
(0.997346 0.0111796 0)
(0.997374 0.00909452 0)
(0.997371 0.00702428 0)
(0.997371 0.0049732 0)
(0.997395 0.00295614 0)
(0.997449 0.00097264 0)
(1.00111 -0.00121748 0)
(1.00121 -0.0037533 0)
(1.00148 -0.00636484 0)
(1.0019 -0.00911479 0)
(1.00245 -0.0120547 0)
(1.00311 -0.015214 0)
(1.00381 -0.0186284 0)
(1.0045 -0.0223211 0)
(1.00507 -0.0262898 0)
(1.00531 -0.0305517 -6.26757e-24)
(1.00521 -0.0350128 -4.74095e-23)
(1.00449 -0.0395447 1.60745e-22)
(1.00271 -0.0437866 -6.57183e-23)
(1.0004 -0.0469134 -2.56528e-22)
(0.99531 -0.0491358 4.21545e-22)
(0.989718 -0.048932 2.55683e-23)
(0.983248 -0.0464494 5.86103e-22)
(0.975167 -0.0408607 7.07338e-22)
(0.968717 -0.0323138 -2.33633e-21)
(0.964079 -0.0215352 -3.30919e-21)
(0.962371 -0.00972758 4.00321e-21)
(0.96381 0.00170677 1.52798e-22)
(0.967669 0.0116956 9.8114e-22)
(0.972453 0.0195229 -2.51582e-22)
(0.977501 0.0253481 -4.7514e-22)
(0.982875 0.0292077 -4.43329e-22)
(0.988205 0.030989 2.77033e-22)
(0.991718 0.0313488 2.3415e-22)
(0.994896 0.0304251 -4.43916e-22)
(0.997359 0.0285594 1.01029e-22)
(0.998893 0.0261397 -1.76945e-23)
(0.999766 0.0233937 0)
(1.0003 0.0204811 0)
(1.00054 0.0175595 0)
(1.00061 0.0146763 0)
(1.00059 0.0118624 0)
(1.00053 0.00912518 0)
(1.00048 0.00645851 0)
(1.00047 0.00382874 0)
(1.0005 0.00127441 0)
(1.00472 -0.00144088 0)
(1.0049 -0.00427616 0)
(1.00532 -0.00722768 0)
(1.00597 -0.0103333 0)
(1.00682 -0.013658 0)
(1.00784 -0.0172809 0)
(1.00896 -0.0212632 0)
(1.01011 -0.0256603 0)
(1.01114 -0.0305433 3.10987e-24)
(1.012 -0.0359891 -8.61687e-23)
(1.01251 -0.0419823 -3.90162e-23)
(1.01206 -0.0483401 -1.80276e-22)
(1.00997 -0.054604 8.17785e-22)
(1.00476 -0.0610966 -6.78372e-22)
(0.998212 -0.0640742 3.3006e-22)
(0.987777 -0.0643299 5.46529e-23)
(0.975372 -0.0618127 -1.49814e-21)
(0.962353 -0.0541593 1.39765e-21)
(0.951402 -0.0408227 -1.48327e-21)
(0.944336 -0.0245464 3.43621e-21)
(0.942072 -0.00689202 -1.41262e-21)
(0.945207 0.0102588 1.62835e-21)
(0.952415 0.0250251 -3.88819e-21)
(0.961728 0.0354362 1.71907e-21)
(0.971626 0.0414863 2.4823e-22)
(0.980111 0.0449084 -5.49862e-22)
(0.986665 0.0459181 8.74272e-22)
(0.993506 0.0440228 -8.50935e-22)
(0.997817 0.0413793 2.96745e-22)
(1.00101 0.0380781 -1.5795e-22)
(1.00325 0.0342289 5.42286e-24)
(1.00442 0.03014 1.44605e-23)
(1.00488 0.0260458 0)
(1.00502 0.0220584 0)
(1.00495 0.0182555 0)
(1.00478 0.0146346 0)
(1.00459 0.0111802 0)
(1.00442 0.00787417 0)
(1.00432 0.00467592 0)
(1.00431 0.00153161 0)
(1.00866 -0.00145825 0)
(1.00893 -0.00455621 0)
(1.00953 -0.00774059 0)
(1.01045 -0.0111008 0)
(1.01167 -0.0147226 0)
(1.01314 -0.0186979 0)
(1.01482 -0.0231144 0)
(1.01662 -0.0280958 -4.46715e-24)
(1.01862 -0.0338838 1.53439e-23)
(1.02066 -0.0406761 1.45301e-23)
(1.0221 -0.0485478 -1.22188e-23)
(1.02214 -0.0573993 -3.13706e-22)
(1.01975 -0.0671354 5.62721e-22)
(1.01564 -0.0747297 3.52465e-22)
(1.00365 -0.0838279 -1.8094e-21)
(0.988569 -0.0871177 1.62095e-21)
(0.974124 -0.0780884 -2.28218e-23)
(0.95615 -0.070425 2.12299e-21)
(0.938537 -0.054914 -4.05139e-22)
(0.926023 -0.0323637 -8.85236e-22)
(0.921539 -0.00618118 -2.12595e-21)
(0.92608 0.0184123 -1.17106e-22)
(0.936532 0.0379461 3.4005e-22)
(0.950393 0.0512731 1.97899e-21)
(0.966218 0.0665487 -1.7633e-21)
(0.980255 0.0674635 2.35463e-21)
(0.99195 0.0639621 -7.1815e-22)
(0.997934 0.0596893 -7.12273e-24)
(1.00309 0.0541075 -7.41192e-22)
(1.00674 0.0483971 4.61104e-22)
(1.00929 0.0427453 6.14613e-23)
(1.01068 0.0371205 -1.06583e-24)
(1.01107 0.0316749 -6.89101e-24)
(1.01086 0.0265076 0)
(1.01045 0.0217097 0)
(1.00998 0.0172653 0)
(1.00952 0.0131261 0)
(1.00915 0.00920439 0)
(1.00891 0.0054717 0)
(1.00882 0.00181715 0)
(1.01278 -0.00161791 0)
(1.01315 -0.00471663 0)
(1.01395 -0.00795868 0)
(1.01518 -0.011395 0)
(1.01681 -0.0151401 0)
(1.01883 -0.0192823 0)
(1.02119 -0.0239582 0)
(1.02401 -0.0294025 2.27537e-23)
(1.02762 -0.036047 -3.84865e-23)
(1.0313 -0.0442447 -5.52497e-23)
(1.03426 -0.0540393 -2.17687e-23)
(1.0357 -0.065244 9.5105e-23)
(1.03495 -0.0771804 -5.56523e-22)
(1.02495 -0.0896386 -5.96563e-22)
(1.01552 -0.0970224 8.99321e-22)
(0.999936 -0.105073 1.50778e-22)
(0.97223 -0.109701 -6.30236e-22)
(0.94097 -0.102562 -2.06989e-21)
(0.908407 -0.0827507 -4.99964e-21)
(0.883965 -0.0473442 1.53582e-21)
(0.875441 -0.00275403 -2.24619e-23)
(0.886074 0.039118 5.60264e-21)
(0.908466 0.0694246 -2.85479e-21)
(0.935451 0.085584 -3.21628e-21)
(0.959335 0.0917838 4.98623e-22)
(0.980318 0.0885014 3.80851e-23)
(0.994213 0.0816313 -8.72387e-23)
(1.00758 0.0762035 -1.20068e-22)
(1.01251 0.0671514 -1.58839e-22)
(1.01553 0.0585839 -1.2619e-22)
(1.01758 0.0507852 2.84986e-22)
(1.01863 0.0435863 -3.01447e-23)
(1.01886 0.0368031 -1.01011e-22)
(1.01815 0.0305004 0)
(1.01713 0.0247396 0)
(1.01614 0.0195304 0)
(1.01528 0.0147584 0)
(1.01459 0.0103364 0)
(1.01414 0.00606709 0)
(1.01395 0.00202966 0)
(1.01691 -0.00147014 0)
(1.01737 -0.00459937 0)
(1.01839 -0.00782402 0)
(1.01993 -0.011221 0)
(1.02202 -0.0149128 0)
(1.02465 -0.0190263 0)
(1.02784 -0.0237358 5.98941e-24)
(1.03219 -0.0294531 1.18823e-24)
(1.03787 -0.0367615 -7.14477e-23)
(1.04362 -0.0459259 7.91924e-23)
(1.04888 -0.0570547 -5.32482e-23)
(1.05296 -0.0705735 -9.01124e-24)
(1.05463 -0.0885231 4.83319e-23)
(1.04428 -0.104471 3.06481e-22)
(1.03489 -0.119525 -1.61776e-22)
(1.01531 -0.138366 5.06824e-22)
(0.983034 -0.148689 6.33406e-22)
(0.934805 -0.153815 3.9953e-22)
(0.875979 -0.133293 -1.93057e-21)
(0.824675 -0.0810517 -3.23383e-22)
(0.804149 -0.00300184 2.02334e-22)
(0.824817 0.0697817 7.03605e-22)
(0.870473 0.11623 -2.16324e-21)
(0.919509 0.13433 2.30292e-21)
(0.959742 0.132552 1.04777e-21)
(0.990454 0.124616 5.09114e-22)
(1.00669 0.108918 7.82016e-22)
(1.02303 0.0944659 -5.12334e-22)
(1.02648 0.0796527 3.71975e-22)
(1.02778 0.0675274 4.05122e-23)
(1.02846 0.0572382 9.90948e-23)
(1.02848 0.0484563 -6.2298e-23)
(1.02808 0.0405935 -3.79075e-24)
(1.02679 0.0333476 -2.03796e-24)
(1.02489 0.0268027 0)
(1.02314 0.0209646 0)
(1.02169 0.0157053 0)
(1.02058 0.0108962 0)
(1.01985 0.00646396 0)
(1.01951 0.00206861 0)
(1.02087 -0.00142691 0)
(1.02144 -0.00434926 0)
(1.02263 -0.00730698 0)
(1.0245 -0.0105103 0)
(1.02705 -0.0139699 0)
(1.03031 -0.0178436 0)
(1.03453 -0.0223265 1.37968e-24)
(1.04081 -0.0279769 -8.49252e-24)
(1.04873 -0.0353528 -1.06265e-23)
(1.05697 -0.044641 3.97856e-23)
(1.06529 -0.0560429 -1.51142e-22)
(1.07349 -0.0704492 8.74776e-23)
(1.08079 -0.090704 6.46234e-23)
(1.07609 -0.113057 -8.57438e-23)
(1.07076 -0.138001 -1.04241e-22)
(1.04909 -0.173676 3.39401e-23)
(1.01359 -0.205173 -2.96758e-22)
(0.948841 -0.240175 5.01942e-22)
(0.840545 -0.247144 -9.7583e-23)
(0.711124 -0.174376 2.11514e-21)
(0.647917 -0.0113628 -4.33829e-22)
(0.707377 0.147027 -8.48345e-22)
(0.823605 0.217376 -4.76894e-22)
(0.917936 0.217912 7.7172e-22)
(0.982028 0.194443 1.60734e-22)
(1.02101 0.164053 -1.38291e-21)
(1.03392 0.133984 -2.78106e-22)
(1.04683 0.109341 8.81258e-24)
(1.04595 0.0890282 2.61417e-23)
(1.04384 0.0733778 8.78549e-23)
(1.04197 0.0610264 -1.14887e-22)
(1.04008 0.050872 5.33645e-23)
(1.03842 0.0422434 -3.0146e-23)
(1.03639 0.034521 2.55689e-23)
(1.03345 0.0275797 0)
(1.03074 0.0214807 0)
(1.02854 0.0160886 0)
(1.02688 0.0111609 0)
(1.02578 0.00656242 0)
(1.02527 0.00224763 0)
(1.02454 -0.00141146 0)
(1.02519 -0.00395363 0)
(1.02659 -0.00668793 0)
(1.02873 -0.00946314 0)
(1.03167 -0.0124647 0)
(1.0355 -0.0157848 0)
(1.04093 -0.0197074 1.37982e-24)
(1.04917 -0.0247734 -7.67369e-25)
(1.05913 -0.0312136 -2.80023e-23)
(1.06999 -0.0392157 -1.9924e-23)
(1.08199 -0.0493552 2.78904e-23)
(1.09548 -0.0624606 -1.79302e-23)
(1.10959 -0.0792651 1.9513e-23)
(1.11555 -0.10722 1.46412e-22)
(1.12378 -0.140888 3.61578e-22)
(1.12298 -0.192217 8.07592e-23)
(1.10482 -0.262617 7.32769e-23)
(1.04972 -0.373142 3.39958e-23)
(0.877529 -0.501456 -7.67152e-22)
(0.487797 -0.498182 -4.3429e-20)
(0.186189 -0.0177862 -1.5694e-20)
(0.486757 0.439095 -2.05923e-20)
(0.835204 0.446384 1.49895e-21)
(0.99195 0.341156 4.43909e-23)
(1.05154 0.255029 2.1416e-23)
(1.07499 0.191695 -4.86033e-23)
(1.07446 0.150128 -4.00227e-23)
(1.07781 0.112812 7.76326e-23)
(1.07037 0.0913034 -8.3057e-23)
(1.06341 0.0743949 -1.329e-23)
(1.05767 0.0608415 3.53201e-23)
(1.05294 0.0498818 -1.00635e-23)
(1.04937 0.0409926 -2.99696e-24)
(1.04629 0.0333693 6.08318e-24)
(1.04227 0.0265218 0)
(1.03843 0.0205139 0)
(1.03537 0.0152594 0)
(1.03311 0.0105707 0)
(1.03161 0.00617634 0)
(1.03089 0.00196732 0)
(1.0278 -0.000969623 0)
(1.02849 -0.00330327 0)
(1.02998 -0.00555945 0)
(1.03233 -0.00790795 0)
(1.03559 -0.0103924 0)
(1.0399 -0.0130047 0)
(1.04647 -0.0160351 -1.12108e-23)
(1.05621 -0.0198312 -1.78497e-23)
(1.0677 -0.0242985 -2.43278e-23)
(1.08064 -0.0294609 -2.16536e-23)
(1.09596 -0.0359376 -3.129e-23)
(1.11459 -0.0443029 -9.90494e-23)
(1.13715 -0.0551059 2.09284e-22)
(1.15152 -0.0810912 1.54986e-22)
(1.18352 -0.11018 -1.19026e-22)
(1.21203 -0.163872 9.50006e-23)
(1.25151 -0.246609 7.93211e-23)
(1.31123 -0.402984 1.78467e-21)
(1.02591 -0.562059 -1.17507e-19)
(0.985027 0.50939 1.71796e-20)
(1.19295 0.384373 4.1258e-23)
(1.16132 0.258352 1.77164e-22)
(1.14265 0.184373 -7.27444e-24)
(1.12299 0.147298 -5.06543e-23)
(1.11164 0.104678 2.52769e-23)
(1.09723 0.0852451 4.46879e-24)
(1.08473 0.0689636 7.25478e-24)
(1.07437 0.0555717 -1.31918e-23)
(1.06627 0.0449798 -4.82408e-24)
(1.06029 0.036594 -1.23648e-23)
(1.0558 0.0296308 -1.22329e-23)
(1.05073 0.0234945 0)
(1.04575 0.0181159 0)
(1.04182 0.0134524 0)
(1.03895 0.0093245 0)
(1.03707 0.00554897 0)
(1.03615 0.00193124 0)
(1.03054 -0.000942618 0)
(1.0313 -0.00273977 0)
(1.03286 -0.00446506 0)
(1.03532 -0.00630032 0)
(1.03875 -0.00810844 0)
(1.0433 -0.00987425 0)
(1.05048 -0.0117016 3.68473e-24)
(1.06091 -0.0136535 -1.01382e-23)
(1.07291 -0.015285 -1.57395e-23)
(1.08675 -0.0164889 -2.98226e-23)
(1.10331 -0.0175725 8.09367e-23)
(1.12443 -0.0186413 -3.22899e-23)
(1.15141 -0.0188431 -1.85944e-22)
(1.17794 -0.0356683 -2.14953e-23)
(1.22486 -0.0468046 -1.65106e-21)
(1.278 -0.0778256 5.82945e-23)
(1.36213 -0.118806 4.83663e-23)
(1.50261 -0.164736 2.85496e-21)
(0.0230813 -0.0158539 4.72359e-19)
(0.0316881 -0.0236463 -1.09074e-19)
(1.32023 0.247666 -1.8096e-22)
(1.24701 0.197118 5.68497e-23)
(1.1997 0.149116 -2.4503e-22)
(1.16668 0.122355 -3.19743e-22)
(1.14321 0.0863892 5.35066e-23)
(1.12262 0.0705631 -5.12296e-23)
(1.10496 0.0567141 2.52018e-23)
(1.09031 0.0452173 -4.6632e-24)
(1.07888 0.0361551 -3.7447e-24)
(1.07036 0.029051 2.93158e-24)
(1.06423 0.023346 -4.98808e-24)
(1.05813 0.0185031 0)
(1.05214 0.0142803 0)
(1.04744 0.0106169 0)
(1.04396 0.00729746 0)
(1.04165 0.00424746 0)
(1.04043 0.0012182 0)
(1.03279 -0.000829572 4.61703e-25)
(1.03359 -0.00214303 0)
(1.03525 -0.00357406 0)
(1.03771 -0.00479908 0)
(1.04106 -0.00589287 0)
(1.04552 -0.00678897 0)
(1.05259 -0.00736948 7.40085e-24)
(1.06251 -0.00719659 4.00922e-23)
(1.0735 -0.00584105 -5.30944e-23)
(1.0864 -0.0029783 -9.25865e-23)
(1.10234 0.00183758 -5.18984e-23)
(1.12238 0.00905123 -3.73616e-22)
(1.14875 0.02108 6.54986e-22)
(1.18075 0.0186286 -1.60446e-22)
(1.22869 0.0287125 -6.0907e-22)
(1.28979 0.0275136 -3.36724e-22)
(1.37589 0.0308451 -1.41578e-21)
(1.46109 0.0532491 3.62815e-23)
(0.251123 -0.00285011 -6.07182e-21)
(0.0490338 -0.0248918 5.68161e-21)
(1.22811 0.104337 2.26912e-22)
(1.27531 0.123618 4.52675e-22)
(1.23041 0.103897 -7.97808e-22)
(1.19693 0.0874266 7.239e-22)
(1.16721 0.0600183 8.97489e-23)
(1.14282 0.0488927 -2.92992e-22)
(1.12172 0.0389258 -2.91928e-24)
(1.10385 0.0306204 -2.68564e-23)
(1.08956 0.0239922 1.56719e-23)
(1.07861 0.0188002 -7.72259e-26)
(1.07073 0.0148657 3.92521e-24)
(1.0636 0.0117582 0)
(1.05688 0.00913487 0)
(1.05165 0.00684568 0)
(1.04781 0.00476324 0)
(1.04523 0.0028388 0)
(1.04397 0.00117458 0)
(1.03475 -0.000359911 -2.85491e-26)
(1.03539 -0.00142211 0)
(1.03689 -0.00234298 0)
(1.03919 -0.003155 0)
(1.04236 -0.00381276 0)
(1.04651 -0.00416352 0)
(1.0526 -0.0037371 -1.55266e-24)
(1.06077 -0.0018128 -4.77442e-23)
(1.06961 0.00208047 5.10023e-23)
(1.07991 0.00845529 -1.47046e-22)
(1.09225 0.0182121 5.48919e-22)
(1.10685 0.0318253 -5.05081e-22)
(1.12601 0.0518743 -7.68489e-23)
(1.15659 0.0672654 1.45578e-21)
(1.19476 0.0952539 -1.64558e-21)
(1.2509 0.125187 -5.08818e-22)
(1.33063 0.164669 3.70229e-22)
(1.41974 0.217403 -5.6757e-22)
(0.654897 0.0684657 7.23758e-22)
(0.221029 -0.262603 2.83781e-22)
(-0.107572 -0.354423 -1.57131e-22)
(-0.203972 -0.148766 -2.00661e-22)
(0.000305927 -0.079326 -3.49889e-22)
(1.04915 0.0275459 8.06374e-22)
(1.27337 0.0764246 4.20547e-22)
(1.24534 0.0648704 -5.82684e-22)
(1.2144 0.0514856 7.54975e-22)
(1.18262 0.0295388 -2.43793e-22)
(1.15632 0.0228511 4.33675e-22)
(1.13314 0.0172582 -1.96577e-22)
(1.11334 0.0128541 -2.95185e-23)
(1.09709 0.0093439 -9.61742e-25)
(1.08436 0.00667786 -2.49316e-23)
(1.07496 0.00490147 -1.76469e-24)
(1.06672 0.00388534 0)
(1.05957 0.00315201 0)
(1.05408 0.00242355 0)
(1.05018 0.00168839 0)
(1.04776 0.000905385 0)
(1.04658 0.000111945 0)
(1.03626 -0.000249379 7.1412e-23)
(1.03692 -0.000939749 0)
(1.03828 -0.00147308 0)
(1.0404 -0.00204377 0)
(1.04327 -0.00238801 0)
(1.04684 -0.0024395 0)
(1.05108 -0.00158793 -1.49593e-25)
(1.05659 0.00109387 2.03995e-23)
(1.06225 0.00619943 3.78192e-23)
(1.06807 0.0142182 -2.14395e-22)
(1.07458 0.0255056 4.50385e-22)
(1.08132 0.041273 -1.45328e-22)
(1.08858 0.0662774 -3.26069e-24)
(1.10962 0.0934967 -8.78192e-22)
(1.12989 0.136323 -1.24298e-21)
(1.15642 0.203521 -1.55243e-21)
(1.21218 0.284415 3.15026e-21)
(1.28278 0.431068 3.12244e-21)
(1.03693 0.528254 -1.62301e-21)
(0.445514 0.348939 7.32319e-20)
(-0.134818 0.274452 -2.14054e-21)
(-0.329738 0.216478 -1.98051e-21)
(0.130046 0.138263 1.04001e-21)
(0.977446 0.0731512 -9.48132e-22)
(1.28897 0.0569362 -1.08551e-21)
(1.26458 0.0256075 -1.49538e-21)
(1.22725 0.0121669 -1.03745e-21)
(1.1898 -0.00584465 -3.15762e-22)
(1.16181 -0.00637597 2.05274e-22)
(1.1377 -0.00700619 -4.96558e-22)
(1.11712 -0.00689475 2.43312e-22)
(1.10002 -0.00673557 -1.19068e-22)
(1.08663 -0.00649455 1.14308e-23)
(1.07606 -0.00582038 -6.34546e-27)
(1.06702 -0.00448015 0)
(1.05984 -0.0032405 0)
(1.05441 -0.00235214 0)
(1.05054 -0.00165278 0)
(1.04796 -0.00100371 0)
(1.04652 -0.000339792 -9.14825e-24)
(1.03739 -0.000504143 1.70592e-23)
(1.03814 -0.000846912 0)
(1.03953 -0.00128916 0)
(1.04146 -0.00167352 0)
(1.04387 -0.00188476 0)
(1.04657 -0.00191184 0)
(1.04894 -0.00122225 0)
(1.05104 0.00132953 1.42328e-24)
(1.05313 0.00572232 5.757e-23)
(1.05478 0.0122496 5.41039e-23)
(1.05499 0.0217911 -1.7397e-22)
(1.05324 0.0351273 7.60917e-23)
(1.04923 0.0547438 6.68626e-22)
(1.03856 0.090191 -8.13595e-22)
(1.04656 0.139264 1.24359e-21)
(1.03505 0.203655 3.44287e-22)
(1.03051 0.313763 7.81689e-22)
(0.984862 0.481617 -8.38684e-21)
(0.893058 0.697555 -1.23874e-21)
(0.525711 0.849649 6.02404e-22)
(-0.00808996 0.831362 -4.03935e-23)
(-0.103087 0.616901 -1.00106e-20)
(0.40972 0.337904 1.54334e-21)
(1.08055 0.0894508 -1.30867e-20)
(1.35016 -0.0127562 3.98451e-22)
(1.287 -0.0347719 -4.32371e-22)
(1.22551 -0.0513691 5.61681e-22)
(1.18777 -0.0463595 -2.0724e-22)
(1.1583 -0.0383279 -2.68935e-22)
(1.13447 -0.0326247 -5.99477e-24)
(1.11434 -0.0272301 -1.96849e-23)
(1.09783 -0.0230211 -2.3771e-23)
(1.08444 -0.0194499 3.90225e-25)
(1.07311 -0.0158208 0)
(1.06411 -0.0121139 0)
(1.05744 -0.00901806 0)
(1.05245 -0.00651515 0)
(1.04886 -0.00435107 0)
(1.04652 -0.00236605 0)
(1.0453 -0.000702898 1.40367e-24)
(1.03831 -0.00018923 -9.79063e-25)
(1.0389 -0.000666145 0)
(1.04005 -0.00108488 0)
(1.04176 -0.00140911 0)
(1.04392 -0.00168905 0)
(1.04608 -0.00196493 0)
(1.04706 -0.00202986 0)
(1.04678 -0.00120461 0)
(1.04612 0.00083215 -1.05408e-23)
(1.04501 0.00374394 2.99747e-23)
(1.04141 0.00800619 3.83742e-23)
(1.03307 0.0139926 -4.85204e-23)
(1.01812 0.0234258 -2.50985e-22)
(0.991865 0.0371875 3.28055e-22)
(0.974538 0.0856437 2.33189e-24)
(0.924259 0.136464 3.63269e-22)
(0.866684 0.225094 -1.32792e-21)
(0.751791 0.33284 -4.55853e-22)
(0.567723 0.538389 -2.92031e-21)
(0.321742 0.761637 2.31966e-21)
(0.171246 0.763862 4.68949e-21)
(0.325585 0.499009 -6.97802e-21)
(0.801392 0.159147 -4.2967e-21)
(1.32936 -0.08143 1.12904e-21)
(1.37043 -0.145508 -7.30165e-22)
(1.28469 -0.122557 5.12299e-22)
(1.20882 -0.112363 -2.58963e-22)
(1.17139 -0.0891273 5.06457e-22)
(1.1439 -0.0706911 -1.24708e-23)
(1.12219 -0.0572139 -1.30122e-22)
(1.10448 -0.0460303 3.25634e-23)
(1.08988 -0.0374521 4.20266e-25)
(1.07721 -0.0302193 0)
(1.06632 -0.0237453 0)
(1.05828 -0.0180438 0)
(1.05272 -0.0134012 0)
(1.0486 -0.00960623 3.03878e-23)
(1.04563 -0.00639752 4.20243e-23)
(1.0437 -0.00359949 2.50595e-23)
(1.04269 -0.00111881 0)
(1.03842 2.18819e-05 0)
(1.03912 -0.000297808 0)
(1.04026 -0.000632369 0)
(1.04197 -0.00103801 0)
(1.04416 -0.00153689 0)
(1.0463 -0.00223364 0)
(1.04698 -0.0032609 0)
(1.04605 -0.0044272 0)
(1.04476 -0.00567276 -4.41983e-26)
(1.04295 -0.00765006 2.08111e-24)
(1.03867 -0.010579 -7.74216e-24)
(1.02908 -0.0155876 -1.829e-23)
(1.01009 -0.0200847 -3.34731e-23)
(0.975117 -0.03478 -2.79041e-22)
(0.933811 -0.00593885 3.4448e-21)
(0.854837 0.013214 -2.02082e-23)
(0.774416 0.0706871 6.33796e-22)
(0.538939 0.175671 -2.68563e-22)
(0.291553 0.305475 1.73925e-21)
(0.23532 0.335689 -9.36736e-21)
(0.424217 0.204111 -3.5842e-21)
(0.774564 -0.0497089 -1.30495e-20)
(1.18264 -0.291693 5.37249e-22)
(1.3946 -0.360499 6.49136e-22)
(1.29495 -0.276428 -5.93443e-22)
(1.23256 -0.210525 -9.4003e-22)
(1.16416 -0.161814 5.99223e-22)
(1.13636 -0.12459 -4.24972e-23)
(1.11664 -0.0968667 1.70176e-22)
(1.10079 -0.0761367 -1.76722e-23)
(1.08773 -0.0596295 -3.1803e-24)
(1.0763 -0.0470848 -1.78683e-26)
(1.06576 -0.036949 0)
(1.05661 -0.0286175 0)
(1.05031 -0.0216865 0)
(1.04626 -0.0161021 0)
(1.0433 -0.0115471 0)
(1.04115 -0.00773906 0)
(1.03975 -0.00440504 0)
(1.03909 -0.00140381 -4.51325e-24)
(1.03831 0.000104524 0)
(1.03918 0.000172353 0)
(1.04053 0.000105961 0)
(1.04245 -0.000217731 0)
(1.04495 -0.000807998 0)
(1.04758 -0.00180247 0)
(1.04897 -0.00353021 0)
(1.04885 -0.00632004 0)
(1.04903 -0.0104354 0)
(1.04958 -0.0168664 0)
(1.049 -0.026571 -1.12063e-24)
(1.04526 -0.0423732 -5.38053e-23)
(1.03346 -0.061873 9.94208e-23)
(1.00437 -0.0992976 -1.32887e-22)
(0.943115 -0.10905 1.09728e-20)
(0.845428 -0.137315 -2.81672e-23)
(0.658176 -0.0759672 4.5706e-21)
(0.465695 -0.0407063 -3.71667e-22)
(0.371019 -0.167471 -2.61497e-22)
(0.447976 -0.379925 -1.21468e-21)
(0.699246 -0.576485 2.97488e-21)
(0.99312 -0.679933 1.0831e-20)
(1.2085 -0.639767 -3.93564e-21)
(1.23871 -0.483434 -1.68131e-21)
(1.15921 -0.334943 -2.38209e-21)
(1.14281 -0.257865 6.92724e-22)
(1.09824 -0.185674 1.13523e-23)
(1.08721 -0.142373 4.73151e-24)
(1.0789 -0.109944 -2.5811e-23)
(1.07209 -0.0849081 5.38138e-24)
(1.06566 -0.065346 0)
(1.05901 -0.0505902 0)
(1.05195 -0.039031 0)
(1.04541 -0.0299488 0)
(1.04121 -0.0227067 0)
(1.03886 -0.0169064 0)
(1.03719 -0.0121282 0)
(1.03596 -0.00814506 0)
(1.03521 -0.00466125 0)
(1.03492 -0.00149323 0)
(1.03795 0.000209948 0)
(1.03894 0.000672359 0)
(1.04055 0.00101515 0)
(1.04285 0.00109932 0)
(1.0459 0.000830368 0)
(1.04944 4.94865e-05 0)
(1.05239 -0.00169522 0)
(1.05451 -0.00514949 0)
(1.05795 -0.0107782 0)
(1.06337 -0.0194791 0)
(1.0702 -0.0325281 0)
(1.07801 -0.0534424 5.96846e-25)
(1.08398 -0.0824184 -1.66978e-23)
(1.07703 -0.129482 -1.1481e-23)
(1.02123 -0.183039 3.5436e-21)
(0.858726 -0.250962 -3.0238e-21)
(0.617389 -0.261946 2.6988e-21)
(0.622303 -0.366487 2.59143e-22)
(0.645991 -0.516911 1.35304e-21)
(0.707708 -0.66489 -1.46464e-21)
(0.823523 -0.737404 -6.19733e-22)
(0.937919 -0.708729 9.43758e-22)
(0.998798 -0.593407 1.45568e-21)
(1.01126 -0.452335 -7.40234e-22)
(1.03982 -0.333817 -1.14932e-22)
(1.04773 -0.258344 1.88418e-23)
(1.02716 -0.185499 -4.17429e-22)
(1.03318 -0.139771 -8.77035e-24)
(1.03712 -0.10784 2.00744e-24)
(1.03999 -0.0823757 0)
(1.04092 -0.0627418 0)
(1.03994 -0.047792 0)
(1.03721 -0.036205 0)
(1.03396 -0.0274255 0)
(1.03214 -0.0208104 0)
(1.03148 -0.0156151 0)
(1.03104 -0.0113038 0)
(1.03071 -0.00766922 0)
(1.03057 -0.00445733 0)
(1.03062 -0.00146026 0)
(1.03717 0.000399669 0)
(1.03813 0.00133138 0)
(1.0399 0.00222797 0)
(1.04255 0.0029912 0)
(1.04619 0.00350165 0)
(1.05079 0.00362617 0)
(1.05575 0.00293941 0)
(1.06092 0.000472348 0)
(1.06832 -0.00428751 0)
(1.07923 -0.0118576 0)
(1.09441 -0.0231361 1.19471e-22)
(1.11487 -0.0406496 0)
(1.14244 -0.0678656 0)
(1.16784 -0.103539 3.41363e-22)
(1.16622 -0.190128 -2.64957e-23)
(0.9763 -0.295407 5.86598e-21)
(0.805101 -0.453191 -2.88847e-23)
(0.780152 -0.582491 -9.15767e-22)
(0.765417 -0.642674 -7.14572e-22)
(0.756732 -0.644541 -1.38563e-20)
(0.780147 -0.600855 -1.81383e-21)
(0.814135 -0.51702 2.87481e-21)
(0.85544 -0.43358 -5.26754e-22)
(0.901464 -0.369621 4.98631e-23)
(0.939624 -0.31108 -2.70984e-23)
(0.935105 -0.21077 -1.16416e-21)
(0.961365 -0.158363 3.59151e-22)
(0.982192 -0.118533 0)
(0.998121 -0.0905753 0)
(1.00957 -0.0681872 -2.00192e-23)
(1.01731 -0.0511701 0)
(1.02174 -0.0381437 0)
(1.02346 -0.0281545 0)
(1.02387 -0.0209576 0)
(1.02455 -0.0159477 0)
(1.02539 -0.0121182 0)
(1.02591 -0.008921 0)
(1.02617 -0.00617087 -5.00128e-24)
(1.02634 -0.00366502 -3.58798e-24)
(1.02653 -0.00126851 0)
(1.03559 0.000730791 0)
(1.03644 0.00221219 0)
(1.03823 0.00376024 0)
(1.04103 0.00534216 0)
(1.045 0.00695014 0)
(1.05028 0.00853437 0)
(1.05681 0.00988254 0)
(1.06462 0.0101459 0)
(1.0752 0.00885721 0)
(1.08997 0.00599784 0)
(1.11071 0.0013693 7.11177e-22)
(1.13945 -0.00479691 0)
(1.18082 -0.0168623 0)
(1.23575 -0.0280482 1.24247e-21)
(1.28354 -0.0616328 -2.40352e-20)
(1.21742 -0.156379 -3.2611e-22)
(1.08358 -0.303039 0)
(0.958794 -0.43193 -1.25749e-21)
(0.838323 -0.534007 -5.07751e-21)
(0.728397 -0.553612 8.25032e-21)
(0.657022 -0.550526 2.92744e-22)
(0.644021 -0.488411 -4.98127e-22)
(0.686137 -0.400046 -3.57532e-24)
(0.754138 -0.300313 0)
(0.808048 -0.2058 -1.08324e-21)
(0.864859 -0.14431 2.13757e-21)
(0.909962 -0.107027 2.64021e-23)
(0.941948 -0.0778204 0)
(0.967527 -0.0575811 0)
(0.986107 -0.042139 -1.32235e-22)
(0.999178 -0.0307096 0)
(1.00786 -0.0221141 0)
(1.01333 -0.0157188 0)
(1.01697 -0.011518 0)
(1.01971 -0.00891163 0)
(1.02158 -0.00694145 9.04801e-24)
(1.02267 -0.00522456 -1.17578e-23)
(1.02323 -0.00366786 0)
(1.02349 -0.00218882 0)
(1.02361 -0.000710822 -2.76303e-23)
(1.03304 0.000976918 0)
(1.03385 0.00304909 0)
(1.03551 0.00524833 0)
(1.03812 0.00770873 0)
(1.04186 0.0105397 0)
(1.04698 0.0138046 0)
(1.05385 0.0175463 -4.44899e-24)
(1.06278 0.0213219 0)
(1.07455 0.0249019 0)
(1.09019 0.0287582 0)
(1.11145 0.0333847 0)
(1.14079 0.0413508 0)
(1.18137 0.0510067 0)
(1.24148 0.0692612 3.21452e-22)
(1.31954 0.094157 -9.3914e-24)
(1.32128 0.0986923 4.42607e-23)
(1.23002 0.0417601 0)
(1.10019 -0.0229421 0)
(0.945852 -0.107724 -1.83991e-20)
(0.791494 -0.120272 -2.00162e-19)
(0.662244 -0.161634 -1.69195e-20)
(0.595823 -0.169465 2.23971e-21)
(0.59689 -0.161018 0)
(0.639314 -0.134326 0)
(0.709065 -0.0923145 0)
(0.798782 -0.0520065 -2.59429e-23)
(0.87287 -0.0297215 2.29345e-21)
(0.915859 -0.0163484 7.13535e-23)
(0.950042 -0.0102403 0)
(0.973886 -0.00662474 0)
(0.990204 -0.00414853 0)
(1.0013 -0.00229957 0)
(1.00897 -0.00116122 3.97055e-23)
(1.01446 -0.000891065 1.62713e-23)
(1.01818 -0.00109941 8.19731e-25)
(1.0203 -0.00122524 0)
(1.02145 -0.00114544 0)
(1.02205 -0.000887238 0)
(1.02234 -0.000556229 0)
(1.0225 -0.00010567 0)
(1.02995 0.00107841 0)
(1.03057 0.00362997 0)
(1.03182 0.00638586 0)
(1.03382 0.00963243 0)
(1.03673 0.0134968 0)
(1.04085 0.0181743 0)
(1.04678 0.023878 0)
(1.05499 0.0305806 0)
(1.06563 0.0384893 1.7268e-24)
(1.07888 0.0484661 0)
(1.09569 0.061599 0)
(1.11805 0.0807867 0)
(1.14626 0.107933 3.45883e-22)
(1.18722 0.147662 1.54105e-21)
(1.24822 0.209097 0)
(1.28025 0.281843 0)
(1.24262 0.324141 0)
(1.14478 0.352912 0)
(1.00685 0.33156 3.39374e-20)
(0.858865 0.335516 8.75613e-20)
(0.722731 0.286736 -1.70342e-21)
(0.652653 0.239663 1.66976e-21)
(0.642988 0.180648 0)
(0.661987 0.127564 0)
(0.702277 0.082677 0)
(0.777988 0.0707281 0)
(0.854552 0.0717439 -1.49462e-20)
(0.914448 0.0585816 -3.02995e-21)
(0.954133 0.0448159 0)
(0.978131 0.0322906 -1.13789e-24)
(0.993623 0.0234243 -2.28393e-24)
(1.00401 0.0172036 -2.18174e-25)
(1.01137 0.0125385 0)
(1.01676 0.00884468 0)
(1.02008 0.00591176 0)
(1.02157 0.00377028 0)
(1.02216 0.00229391 0)
(1.02241 0.0013176 0)
(1.02254 0.000626205 0)
(1.0227 0.000165398 0)
(1.02659 0.00133197 0)
(1.02673 0.00405324 0)
(1.02733 0.00712837 0)
(1.02848 0.010743 0)
(1.03024 0.0150681 0)
(1.03287 0.0204025 0)
(1.03706 0.0270571 0)
(1.04322 0.0352481 0)
(1.05081 0.0455795 0)
(1.05926 0.0590609 0)
(1.0687 0.0771051 -1.01049e-22)
(1.07998 0.101561 5.57664e-23)
(1.09168 0.135655 1.40032e-23)
(1.10467 0.181084 -2.00011e-21)
(1.12735 0.245792 0)
(1.14967 0.334141 0)
(1.13274 0.419507 0)
(1.0768 0.493773 0)
(0.983579 0.525779 2.57112e-21)
(0.880346 0.544232 -1.63731e-20)
(0.786066 0.517858 -4.64383e-21)
(0.747793 0.473079 2.22821e-20)
(0.747375 0.407386 0)
(0.766856 0.339408 0)