/*--------------------------------*- C++ -*----------------------------------*\
| =========                 |                                                 |
| \\      /  F ield         | OpenFOAM: The Open Source CFD Toolbox           |
|  \\    /   O peration     | Version:  v2106                                 |
|   \\  /    A nd           | Website:  www.openfoam.com                      |
|    \\/     M anipulation  |                                                 |
\*---------------------------------------------------------------------------*/
FoamFile
{
    version     2.0;
    format      ascii;
    arch        "LSB;label=32;scalar=64";
    class       volScalarField;
    location    "0";
    object      p;
}
// * * * * * * * * * * * * * * * * * * * * * * * * * * * * * * * * * * * * * //

dimensions      [0 2 -2 0 0 0 0];

internalField   nonuniform List<scalar> 
11644
(
-0.0968987
-0.0974694
-0.0984776
-0.0998234
-0.101559
-0.103584
-0.105807
-0.108157
-0.110347
-0.111961
-0.112468
-0.111462
-0.108703
-0.103421
-0.095522
-0.0857799
-0.0742275
-0.0606711
-0.0469228
-0.0280045
-0.0142702
-0.00644461
0.00652407
0.0191213
0.0282731
0.0349866
0.0408244
0.0459595
0.0503434
0.0538927
0.0569732
0.0597018
0.062058
0.0639791
0.0654568
0.0665962
0.0674896
0.0681256
0.0685405
0.0688225
-0.0954614
-0.0959898
-0.0970744
-0.0986904
-0.100709
-0.103093
-0.105706
-0.108334
-0.110739
-0.112578
-0.113535
-0.113179
-0.110821
-0.106692
-0.0999668
-0.0901443
-0.0773181
-0.0606915
-0.0467633
-0.0327473
-0.0182793
-0.00427249
0.00969768
0.0201654
0.0290301
0.0364651
0.0426597
0.0478728
0.0521097
0.055627
0.0585031
0.0609179
0.0629237
0.0646186
0.0661464
0.0674014
0.068377
0.069073
0.0696211
0.0700094
-0.0938037
-0.094339
-0.0953834
-0.0969661
-0.0991331
-0.101815
-0.10486
-0.108036
-0.111122
-0.113898
-0.115855
-0.11657
-0.115525
-0.112187
-0.106314
-0.0958194
-0.0813408
-0.0656242
-0.0512594
-0.0381529
-0.0219128
-0.00329115
0.0145635
0.0247935
0.034205
0.0423616
0.0488976
0.0534936
0.0570216
0.0598947
0.0622331
0.064002
0.0655296
0.0669043
0.0680914
0.0690966
0.0698877
0.0705299
0.0709031
0.0710666
-0.0916334
-0.0922521
-0.0933308
-0.0949826
-0.0971497
-0.0998354
-0.103078
-0.106774
-0.110816
-0.114865
-0.118754
-0.121733
-0.122253
-0.119664
-0.113075
-0.102823
-0.0890533
-0.0742034
-0.0563455
-0.0376334
-0.0158749
-0.00744905
0.0136641
0.0265909
0.0381245
0.0481033
0.0562405
0.0619762
0.0654166
0.067361
0.0685957
0.0695715
0.0702546
0.0707496
0.071112
0.0714055
0.0715617
0.0716414
0.0715722
0.0713569
-0.0899994
-0.090155
-0.0911331
-0.0927309
-0.0949258
-0.0976998
-0.101122
-0.105269
-0.110244
-0.116019
-0.122081
-0.126505
-0.127853
-0.124555
-0.117199
-0.106847
-0.0922349
-0.0761224
-0.0557315
-0.0370377
-0.0144815
-0.00553158
0.0145486
0.0259942
0.0394293
0.0508168
0.0611139
0.0692403
0.0747359
0.0769265
0.0768926
0.0764347
0.0757807
0.0748936
0.0740812
0.0732998
0.072698
0.0721323
0.0719049
0.0718543
-0.0869333
-0.0879784
-0.0892808
-0.0908512
-0.0929572
-0.095677
-0.0991694
-0.103743
-0.109796
-0.117006
-0.123526
-0.12802
-0.128986
-0.128506
-0.123363
-0.113951
-0.0970695
-0.0797421
-0.0581047
-0.0372698
-0.0227412
-0.00523807
0.00703144
0.0157168
0.0342971
0.0467865
0.0600022
0.0723799
0.0794238
0.0839752
0.0844959
0.0823398
0.0796829
0.0773162
0.075216
0.0735936
0.072584
0.0721917
0.0719341
0.0717884
-0.0840766
-0.0849196
-0.0860898
-0.088256
-0.0905999
-0.093497
-0.0970851
-0.101851
-0.108022
-0.113732
-0.117951
-0.120472
-0.124005
-0.122821
-0.123022
-0.124761
-0.118401
-0.0868609
-0.0651531
-0.0440454
-0.0324154
-0.0170295
-0.00265859
0.0103746
0.0248162
0.0375025
0.0572376
0.0705796
0.0804246
0.0868489
0.0884866
0.0862289
0.0817666
0.0780115
0.0751462
0.0730674
0.0713602
0.0702998
0.0695265
0.0692553
-0.0828994
-0.0825988
-0.0840627
-0.0854175
-0.0875117
-0.0903112
-0.0937093
-0.0981638
-0.102768
-0.104905
-0.105122
-0.106565
-0.10157
-0.123699
-0.119408
-0.109717
-0.0958462
-0.0791406
-0.0573783
-0.0372125
-0.0235065
-0.0155093
-0.0102188
0.00533309
0.0101681
0.0391216
0.0472478
0.0741469
0.080159
0.0866264
0.0877341
0.0856023
0.0804979
0.0752348
0.0715139
0.0689084
0.0675253
0.0666233
0.0668726
0.0668863
-0.0773244
-0.0801242
-0.0824602
-0.0843973
-0.0864547
-0.0882159
-0.0904492
-0.0931649
-0.0946509
-0.0929916
-0.0870861
-0.080584
-0.0759519
-0.0933371
-0.08353
-0.073008
-0.0776373
-0.0666888
-0.0509446
-0.0415818
-0.0394827
-0.0359135
-0.0220807
-0.0242516
0.0122048
0.0392088
0.0490631
0.0751214
0.0833967
0.0841683
0.0815774
0.0782566
0.0738689
0.068402
0.0645936
0.0621947
0.0613358
0.0612143
0.0614151
0.0616317
-0.0783814
-0.0794964
-0.0800754
-0.0821812
-0.083499
-0.0847984
-0.0866071
-0.088077
-0.0862657
-0.0830256
-0.0764818
-0.0670946
-0.0653398
-0.0663738
-0.0473527
-0.0516626
-0.0347584
-0.0154132
-0.0132261
-0.0176628
-0.0465752
-0.0621904
-0.0499555
-0.0158915
0.0123617
0.0390638
0.0445851
0.0652697
0.0722519
0.0701725
0.0668873
0.0643581
0.0615622
0.0576385
0.0548645
0.0531614
0.0514799
0.0513817
0.0510445
0.0528887
-0.0807754
-0.0809452
-0.0826726
-0.0825025
-0.082361
-0.0828104
-0.0832705
-0.0831849
-0.0798096
-0.0755416
-0.071549
-0.0641558
-0.054576
-0.0313907
-0.0162809
-0.0164869
-0.0114544
0.0350996
0.0860161
0.0957625
-0.0464675
-0.141869
-0.0920523
-0.0312859
0.0122339
0.0433173
0.0589059
0.0493585
0.0462321
0.0447448
0.0438516
0.0435243
0.0427978
0.041269
0.0401734
0.0402395
0.0404229
0.0407402
0.0427082
0.0412955
-0.0774346
-0.0811503
-0.0823229
-0.0816114
-0.0812212
-0.0800624
-0.0791054
-0.0775011
-0.0758283
-0.0721639
-0.0663615
-0.059319
-0.0375841
-0.032012
-0.016897
0.00209747
0.0187379
0.0561191
0.245118
-0.209422
-0.0329435
0.036334
0.0507053
0.0485879
0.0369193
0.020534
0.0174705
0.0181613
0.0199738
0.0222908
0.024519
0.0260395
0.0273705
0.0286814
0.0285631
0.0293539
0.0321514
-0.0906456
-0.0866364
-0.077584
-0.0740599
-0.0719707
-0.070945
-0.0703748
-0.0698913
-0.0693188
-0.0682047
-0.0601405
-0.0533954
-0.036452
-0.0282828
-0.0358251
-0.0143471
-0.0124934
-0.0430087
-0.246492
-0.219225
-0.0355616
0.0418918
0.0373325
0.0244389
0.0145719
-0.00350322
-0.00627744
-0.00488835
-0.000646691
0.0041045
0.00897845
0.0134534
0.01622
0.0169004
0.0169573
0.0129681
0.0130035
-0.114952
-0.0817394
-0.0730852
-0.067476
-0.0625958
-0.0593436
-0.0567608
-0.0576054
-0.056638
-0.0657082
-0.0571324
-0.0646535
-0.0253995
0.00075171
0.0185425
0.0207707
0.0480994
0.0290709
-0.257879
-0.198381
0.00776741
0.0386025
0.0677845
-0.0122703
-0.00386457
-0.0274338
-0.0227641
-0.0199658
-0.0102275
-0.00525233
-0.000354563
0.0064352
0.010136
0.0119259
0.0120882
0.0072973
-0.0175719
-0.0523239
-0.0600504
-0.058721
-0.0510913
-0.0460321
-0.0460973
-0.0432251
-0.0402976
-0.0349186
-0.0358862
-0.0629707
-0.035885
-0.00986221
0.036938
0.0077238
0.047139
0.158247
0.427454
0.0108131
-0.475488
-0.493169
-1.46132
-0.422316
-0.114266
-0.0842987
-0.0557105
-0.00414508
0.0685333
0.0302085
-0.00890919
0.0148287
-0.00645474
-1.5452e-05
-0.000385254
0.00642458
0.0121338
0.0134059
0.0103401
0.00599262
0.00839809
0.00409156
-0.0121217
-0.0117726
-0.0131633
-0.0147326
-0.0224626
-0.0249623
-0.0151878
-0.0180043
-0.0245422
-0.0384627
-0.0565499
-0.039939
-0.022369
-0.14152
-0.0991613
-0.0444049
0.161765
1.12496
0.706795
0.718956
-0.995412
-0.418788
-0.554688
-0.270162
-0.129807
-0.115798
0.0293372
0.0292831
0.0423262
0.0348428
0.0218699
0.0204229
0.0123005
0.0157793
0.0251539
0.0307764
0.0319738
0.031833
0.0468806
0.0255159
0.0165431
0.0131204
0.00681451
-0.00181727
-0.0105467
-0.00889181
0.000715092
0.00560104
-0.00043568
-0.0134579
-0.0416763
-0.104354
-0.204438
-0.115602
-0.268238
-0.620511
-0.421892
1.35453
1.41807
0.369657
1.19724
-0.762439
-0.718731
-0.23634
0.0227834
-0.026524
0.0166654
0.0662684
0.0777972
0.0624699
0.0484587
0.037095
0.0300874
0.0289621
0.0366621
0.0473286
0.0557513
0.064885
0.0757063
0.0225687
0.0191524
0.00921449
0.00211664
-0.00174651
-0.00145751
0.00617533
-0.00197684
-0.00860948
-0.012015
-0.0167523
-0.0299512
-0.0414451
-0.168557
-0.189703
-0.367051
-0.615808
-0.778198
-0.640374
0.817623
1.20641
-0.933811
-0.55812
-0.0503311
-0.00642939
-0.137739
0.083205
0.148617
0.0903588
0.0751468
0.0597454
0.0488485
0.0476881
0.0513152
0.049118
0.0472588
0.0488167
0.0559652
0.066423
0.0676121
0.0159303
0.0204191
0.0191674
0.0175505
0.0178474
0.019983
0.0211973
0.0186486
0.00401358
-0.0241554
-0.0519475
-0.0569221
-0.0183285
-0.166572
-0.185168
-0.211955
-0.424997
0.364636
-0.183771
-0.929008
-0.453326
0.190105
1.39084
-0.307975
-0.0923825
0.22899
0.130908
0.18443
0.091749
0.0546236
0.0573842
0.0616708
0.0726973
0.0729144
0.0688877
0.0653939
0.0602232
0.0576491
0.0573933
0.0525591
0.0370904
0.0396901
0.0358375
0.0311287
0.027214
0.0213081
0.0156083
0.0228618
0.0161005
-0.00484105
-0.028564
-0.21993
0.112113
0.0353293
0.00494275
0.14257
0.312188
-0.570488
0.424067
1.11043
0.973068
0.913056
-0.856709
-0.351618
0.763324
0.161072
0.286364
0.207329
0.117418
0.0832647
0.0809609
0.0820441
0.0832684
0.0701452
0.0670681
0.0683405
0.0652318
0.0626946
0.0627424
0.059711
0.04291
0.045091
0.0446816
0.0424096
0.0355612
0.0249475
0.0133533
0.00619684
0.00408632
-0.011344
-0.0388806
-0.044644
-0.0348217
-0.0382647
0.155173
0.328379
0.504029
0.826712
-0.0571752
-0.429249
-0.106089
-0.401139
0.75218
1.25882
-0.209178
0.193065
0.186309
0.106812
0.12923
0.118121
0.0980671
0.0870838
0.0758435
0.0615269
0.0626356
0.065769
0.0695533
0.0696776
0.0673714
0.064148
0.0486058
0.0474628
0.0472125
0.0470755
0.0424942
0.0371304
0.0257272
0.00892119
0.00539996
-0.00128865
-0.00495546
-0.0451522
0.0422648
-0.181039
-0.476807
0.0563161
0.0873697
-0.392343
0.126539
0.535187
-0.604349
-1.4363
-1.76698
-0.941804
-0.151978
-0.37243
-0.00866381
0.150904
0.141879
0.126004
0.0991496
0.081191
0.0687074
0.0694982
0.0710557
0.0713827
0.0712157
0.0706515
0.0701511
0.072026
0.0579288
0.0633248
0.0614663
0.0567773
0.0509314
0.0421197
0.0373776
0.0263874
0.0215356
-0.0081482
-0.0474653
-0.0547604
-0.133604
-0.224106
0.968304
-0.0555172
-0.124238
-0.955138
1.90289
1.55131
0.681263
0.83416
0.220805
0.0764562
0.0322098
0.690712
0.126609
0.180176
0.162477
0.064602
0.0764393
0.081738
0.0725192
0.0725458
0.0692053
0.0720006
0.0740049
0.0757671
0.0775024
0.0771825
0.0709578
0.0717321
0.0734344
0.0725768
0.0692361
0.0653453
0.0551874
0.0423058
0.0438912
0.0374566
0.0316784
0.0356571
-0.0506563
-0.123552
-0.471906
0.931394
1.83075
1.08377
-0.74467
-2.38743
-0.157184
0.062171
0.914408
1.61289
1.11651
0.177696
0.0843256
0.114231
0.0965322
0.0841262
0.0749645
0.0703187
0.0669819
0.066907
0.0726998
0.0756446
0.078171
0.0810664
0.0801372
0.0794768
0.0925269
0.090597
0.0887442
0.0889682
0.0899297
0.0897864
0.0878464
0.0803807
0.0942842
0.0938022
0.101222
0.115306
0.11628
0.360636
0.0974144
-0.768686
-0.828338
0.373188
0.67249
0.801795
1.77535
1.79378
1.39292
-0.0864189
-0.542877
-0.137997
0.160069
0.102477
0.0743705
0.0469968
0.0528287
0.0617227
0.0571866
0.0700989
0.0777688
0.0821731
0.0813294
0.0840364
0.0861509
0.0862406
0.120481
0.117443
0.116909
0.117181
0.118506
0.120339
0.126093
0.139988
0.15911
0.19262
0.226974
0.255957
0.370245
0.175614
0.808398
1.43481
1.09841
0.762364
-0.173315
0.0664388
0.34217
-0.249087
-0.504076
-0.168155
0.53893
0.502026
0.111482
-0.00238331
-0.0157794
-0.0268221
0.0167845
0.04106
0.0605843
0.0721239
0.0836141
0.0876953
0.0915111
0.0944172
0.0957323
0.100844
0.130615
0.135713
0.136349
0.139172
0.144875
0.14972
0.15621
0.179909
0.194987
0.25334
0.299175
0.361111
0.493357
0.509996
0.191976
0.256404
1.28376
1.14479
1.50339
0.640589
-0.290668
0.245265
-0.20498
0.00541565
-0.33171
-0.521319
-0.277131
-0.0567753
-0.0598689
-0.024236
0.0178495
0.0251851
0.0537585
0.0736503
0.0867105
0.0967247
0.101124
0.104165
0.10812
0.104874
0.143157
0.143366
0.146346
0.152439
0.161088
0.172743
0.187293
0.209232
0.229596
0.277144
0.305755
0.394022
0.463265
0.872412
1.25509
1.18187
1.09747
0.922315
0.302978
0.148817
-0.311892
-0.255627
-0.967351
-0.687082
-0.422956
-0.050541
0.008301
-0.107394
-0.0492716
-0.0474937
0.0154252
0.0419219
0.0662934
0.0804185
0.0914675
0.100555
0.105879
0.10902
0.111308
0.113688
0.154121
0.159818
0.164248
0.169917
0.179029
0.190836
0.204649
0.227048
0.248035
0.298324
0.345795
0.419779
0.50513
0.370064
0.619155
1.19207
1.63086
1.4933
1.13983
1.07682
-1.3476
-0.974099
-0.308187
-0.163407
-0.237543
-0.341905
-0.273645
-0.0147895
0.0282441
0.0520262
0.0692766
0.0801627
0.0941829
0.102678
0.108059
0.114472
0.119546
0.122807
0.124466
0.123189
0.164096
0.170164
0.171922
0.176152
0.183213
0.193209
0.206451
0.230948
0.242099
0.257741
0.245491
0.463674
0.574006
0.814596
0.593056
0.516189
0.745568
0.9148
0.699119
0.521278
-0.537802
-0.483015
-0.283759
-0.26527
-0.0469932
0.117752
0.361081
0.142485
0.0932336
0.0955969
0.107689
0.116958
0.120289
0.124489
0.127257
0.129707
0.131247
0.132256
0.133643
0.137172
0.167002
0.164053
0.169951
0.177249
0.184557
0.195086
0.210335
0.23231
0.253309
0.280974
0.310813
0.346248
0.311004
0.349949
0.646861
0.876664
0.872803
0.60487
0.136223
0.18263
0.134121
-0.0871114
0.295188
0.391149
0.324114
0.0472505
-0.121992
0.133394
0.186278
0.172916
0.172077
0.157915
0.150342
0.146607
0.14672
0.147171
0.148352
0.149623
0.150462
0.153929
0.172148
0.172105
0.171858
0.175704
0.183249
0.193504
0.205527
0.228978
0.24415
0.268661
0.306118
0.389646
0.502859
0.434523
0.1761
0.011781
0.0810235
0.157304
0.429738
0.109468
-0.157439
0.0494649
-0.201825
-0.26265
-0.1302
0.0917508
0.386403
0.379984
0.253079
0.20694
0.190843
0.183446
0.179099
0.177293
0.174175
0.170523
0.169533
0.169737
0.171009
0.170062
0.175936
0.172503
0.175823
0.180075
0.187035
0.196215
0.20788
0.225292
0.24778
0.263858
0.307526
0.321933
0.323901
0.394786
0.40694
0.191077
-0.151563
-0.349016
-0.855104
-0.920478
-0.572472
-0.847639
-0.213043
0.03967
0.392291
0.459749
0.298639
0.221805
0.260729
0.264415
0.212728
0.216409
0.206131
0.199307
0.194988
0.19148
0.188013
0.184328
0.182818
0.184507
0.173646
0.175073
0.175403
0.177704
0.183439
0.19086
0.197952
0.205977
0.217716
0.219103
0.309948
0.320054
0.310196
0.200979
0.116181
0.113242
0.119742
0.0952768
0.05315
-0.434914
-0.415845
-0.0678574
-0.0197526
0.105739
0.209261
0.132868
0.340683
0.45517
0.360354
0.277957
0.235218
0.235848
0.224767
0.220011
0.214802
0.211105
0.20626
0.200871
0.202045
0.201936
0.163545
0.168374
0.171361
0.17453
0.17608
0.178977
0.184391
0.193892
0.212787
0.230874
0.250058
0.221207
0.230007
0.346318
0.378052
0.333043
0.13698
0.0480096
-0.128826
0.0449005
-0.0125608
-0.0311549
0.354243
0.468699
0.77363
0.811067
0.544456
0.354436
0.316632
0.307766
0.279649
0.267272
0.249812
0.239231
0.23334
0.228632
0.22391
0.217108
0.212533
0.21014
0.156508
0.156338
0.157444
0.159487
0.160926
0.159999
0.167006
0.176784
0.186649
0.183785
0.170511
0.187097
0.139351
0.0418006
0.0330947
0.00996506
0.0970099
0.021741
0.489617
0.749678
0.554066
0.824028
0.615498
0.659055
0.522313
0.401231
0.34077
0.404259
0.399663
0.339757
0.315999
0.286787
0.255226
0.241537
0.238455
0.234365
0.229486
0.225788
0.22388
0.223345
0.148769
0.149967
0.148985
0.147411
0.146095
0.145814
0.147733
0.151426
0.156973
0.141614
0.0555392
0.0421483
0.00437384
0.0868871
0.00906261
-0.0925747
-0.269034
-0.344897
-0.327468
0.10395
0.484261
0.406485
0.387292
0.467366
0.521033
0.602106
0.596785
0.479483
0.376417
0.323886
0.30773
0.28959
0.26922
0.263281
0.250487
0.244405
0.240156
0.235915
0.234449
0.231009
0.143296
0.138701
0.138163
0.137438
0.135765
0.133731
0.130936
0.125554
0.109922
0.0840565
0.0348602
-0.0526773
-0.274378
-0.518824
-0.654418
-0.741011
-0.486258
-0.663134
-0.758094
-1.09101
0.0657789
0.15052
0.151464
0.248408
0.293011
0.295973
0.290139
0.311333
0.359746
0.359747
0.319928
0.30073
0.280746
0.26863
0.257015
0.247881
0.240238
0.233461
0.229335
0.235613
0.136698
0.141646
0.138267
0.135237
0.131366
0.126526
0.118817
0.104178
0.0783514
0.0421773
-0.0256994
-0.087944
-0.18353
-0.462309
-0.850179
-1.11486
-1.35174
-1.30807
-2.37452
-2.57266
-0.574397
-0.857474
-0.275574
-0.173915
0.0682204
0.164787
0.429919
0.47596
0.434283
0.383968
0.334974
0.301733
0.288747
0.272308
0.26001
0.251477
0.246386
0.243627
0.245322
0.242156
0.134914
0.133275
0.13414
0.133141
0.128567
0.120977
0.111525
0.0938407
0.0664796
0.0345014
-0.0374942
-0.281422
-0.479135
-0.738774
-0.790201
-1.09005
-1.29407
-1.47666
-1.94194
-2.06492
-1.37695
-0.834018
-0.21481
0.0846416
0.235641
0.38939
0.330407
0.318353
0.302786
0.37278
0.369812
0.323572
0.302757
0.286182
0.273505
0.266203
0.258814
0.251436
0.246622
0.24969
0.130415
0.134687
0.131932
0.127739
0.122144
0.113885
0.10782
0.0790288
0.0479298
0.00142496
-0.0648067
-0.152331
-0.277245
-0.502834
-0.696096
-0.877395
-1.05406
-1.11248
-1.0684
-0.811625
-0.470943
-0.136452
0.213346
0.491539
0.645113
0.63814
0.605637
0.540262
0.477991
0.403975
0.347743
0.323918
0.300689
0.289304
0.276275
0.265227
0.259665
0.256741
0.254607
0.247906
0.123654
0.121761
0.124488
0.125621
0.121792
0.114144
0.0990875
0.0805075
0.053547
-0.00994822
-0.0953896
-0.235332
-0.345831
-0.386989
-0.420361
-0.49371
-0.452997
-0.354569
-0.0854507
0.347203
0.190767
0.529604
0.833166
0.948894
0.925067
0.859298
0.704127
0.518486
0.421559
0.386272
0.346835
0.343016
0.306287
0.287353
0.270199
0.260281
0.253769
0.249122
0.242491
0.241811
0.125525
0.127855
0.123043
0.116463
0.108461
0.0995456
0.0860044
0.0579696
0.0219571
-0.0377231
-0.0798473
-0.11309
-0.255224
-0.40316
-0.451606
-0.415084
-0.433642
-0.248115
0.0888432
0.450852
0.785063
0.964029
0.967977
1.03612
1.02507
0.872071
0.710371
0.592139
0.49933
0.402626
0.325783
0.300169
0.2806
0.267109
0.245698
0.241192
0.236028
0.236161
0.237424
0.234217
0.122717
0.121255
0.120565
0.118044
0.111891
0.100873
0.0876692
0.0662321
0.0398414
-0.0419433
-0.116532
-0.190236
-0.236405
-0.326258
-0.459358
-0.590726
-0.676986
-0.589166
-0.538766
-0.139975
0.457582
0.629393
0.819964
0.83301
0.821293
0.736941
0.595057
0.41109
0.286591
0.264631
0.27179
0.269473
0.25193
0.235635
0.232242
0.229249
0.226891
0.225596
0.223717
0.22921
0.126959
0.121012
0.117018
0.112734
0.108367
0.100994
0.0907374
0.0687127
0.0485042
0.0265462
-0.0072204
-0.11801
-0.302017
-0.453938
-0.642979
-0.799938
-0.931252
-0.935313
-1.03841
-0.87937
-0.577984
-0.112476
0.138283
0.203735
0.197193
0.132601
0.152564
0.191889
0.285242
0.267719
0.233039
0.203998
0.212836
0.218721
0.220222
0.21758
0.217298
0.218624
0.220435
0.224743
0.135963
0.137673
0.134184
0.130023
0.125401
0.119568
0.112159
0.103959
0.101759
0.0903801
0.0593503
-0.0175177
-0.107496
-0.274796
-0.490249
-0.66562
-0.928802
-0.978791
-1.19945
-1.36787
-0.903133
-0.865834
-0.535902
-0.465479
-0.237754
-0.144419
0.015942
0.121398
0.144913
0.149341
0.187445
0.190837
0.200824
0.212196
0.216695
0.218005
0.218952
0.219363
0.218163
0.216807
0.150408
0.151443
0.152046
0.150445
0.150573
0.151576
0.150343
0.154791
0.160282
0.205792
0.152125
0.145253
0.106602
0.0805854
0.0814877
0.0273722
-0.0742757
-0.211503
-0.317999
-0.567524
-0.888304
-0.758671
-0.328716
-0.25546
-0.136755
-0.146839
-0.0997258
-0.0244756
0.130264
0.18827
0.177081
0.187506
0.196154
0.202012
0.207144
0.210016
0.208193
0.212585
0.211983
0.209959
0.155699
0.163228
0.166249
0.168778
0.170717
0.174013
0.178799
0.199465
0.209813
0.237905
0.286828
0.386159
0.45553
0.502055
0.527152
0.539951
0.511758
0.473947
0.421963
0.439951
0.232769
0.0396169
0.133924
0.0285411
0.04545
0.0590702
0.104787
0.148273
0.15243
0.1463
0.177775
0.189194
0.188132
0.196288
0.202284
0.206915
0.202693
0.203136
0.202104
0.195916
0.16333
0.161943
0.165823
0.170308
0.176149
0.183984
0.197436
0.218282
0.243952
0.286141
0.361821
0.429142
0.540951
0.674321
0.777359
0.820162
1.04072
0.963738
0.978981
0.741995
0.679535
0.610091
0.33395
0.265435
0.0797107
0.0716399
0.0457128
0.0431042
0.0945369
0.153611
0.173368
0.182389
0.17985
0.187709
0.189797
0.191038
0.188888
0.18978
0.186634
0.188508
0.162798
0.166268
0.165032
0.170557
0.176521
0.187879
0.198482
0.227455
0.254552
0.291365
0.382843
0.504642
0.631916
0.746443
0.747313
0.801546
0.713804
0.653927
0.524748
0.471239
0.471042
0.189302
-0.124818
-0.204866
-0.184751
-0.0921373
0.01808
0.0980909
0.136322
0.1358
0.156632
0.162416
0.165837
0.174861
0.177511
0.179161
0.180842
0.183309
0.185697
0.181773
0.165862
0.160456
0.163554
0.170417
0.178624
0.191011
0.205402
0.22864
0.2533
0.281737
0.316536
0.347492
0.409887
0.487987
0.501406
0.490605
0.256073
0.0947786
-0.241417
-0.671247
-0.631684
-0.707854
-0.720652
-0.653004
-0.526692
-0.335818
-0.155631
-0.0301839
0.0357202
0.0921229
0.141392
0.160124
0.169441
0.173279
0.172456
0.172413
0.169543
0.166459
0.163481
0.168863
0.168849
0.170798
0.170389
0.176907
0.183542
0.193543
0.206281
0.22675
0.244623
0.278404
0.313234
0.307584
0.21496
0.130564
-0.0537814
-0.189953
-0.539835
-0.814256
-1.19383
-1.48116
-1.01511
-1.21236
-1.11125
-0.921101
-0.683804
-0.429955
-0.246992
-0.0574344
0.0811483
0.148068
0.172111
0.166626
0.162213
0.161387
0.160294
0.157829
0.155323
0.156859
0.159592
0.159992
0.166839
0.170339
0.175725
0.182721
0.189282
0.196466
0.205415
0.220357
0.241059
0.240838
0.202772
0.186015
0.135079
0.00338377
-0.081521
-0.279025
-0.499966
-0.769163
-1.14747
-1.41414
-1.22103
-1.02889
-0.712298
-0.457694
-0.32164
-0.164014
-0.0768043
0.0360403
0.104703
0.117853
0.18807
0.168989
0.182768
0.171037
0.16661
0.162327
0.158846
0.155277
0.152597
0.151962
0.158391
0.165757
0.167711
0.170231
0.175838
0.184254
0.196715
0.195902
0.218013
0.243202
0.255013
0.240563
0.227155
0.219768
0.18851
0.134446
-0.0251323
-0.112863
-0.198169
-0.209348
-0.1778
-0.254387
-0.0986612
0.0452995
0.126052
0.2559
0.256084
0.230232
0.230072
0.227472
0.217588
0.193923
0.187218
0.168764
0.164184
0.157812
0.153145
0.148767
0.146187
0.141683
0.144447
0.146629
0.151411
0.157787
0.165314
0.172144
0.183742
0.19414
0.210778
0.227099
0.214305
0.254097
0.340481
0.382525
0.4335
0.549859
0.687828
0.805858
0.877335
0.689989
0.575686
0.559238
0.55265
0.498243
0.446676
0.398215
0.342293
0.30372
0.24016
0.20964
0.197074
0.181017
0.174926
0.158827
0.149193
0.142437
0.137797
0.132139
0.126316
0.120777
0.137274
0.136186
0.136231
0.137267
0.141758
0.147461
0.154978
0.164523
0.182237
0.211049
0.230437
0.247883
0.316422
0.421408
0.507039
0.595185
0.659438
0.808489
0.881333
0.920907
0.945261
0.787097
0.626437
0.504193
0.487278
0.417406
0.350644
0.274168
0.215286
0.210852
0.186233
0.147252
0.131656
0.120658
0.114028
0.106501
0.103344
0.103408
0.104196
0.10384
0.126638
0.128102
0.127794
0.128459
0.128666
0.131442
0.137606
0.141339
0.140647
0.143183
0.178314
0.237626
0.268434
0.270778
0.258002
0.265881
0.212872
0.270512
0.275843
0.353052
0.523427
0.464958
0.389934
0.155805
0.184797
0.121281
0.143023
0.157823
0.133602
0.0845513
0.0715984
0.0811223
0.0880966
0.0863669
0.0835102
0.0801751
0.0784782
0.0776872
0.0780191
0.0805982
0.113343
0.108801
0.109012
0.110348
0.112441
0.11578
0.119499
0.12286
0.13519
0.136193
0.146792
0.149542
0.139107
0.134538
0.0867607
0.0116666
-0.0751951
-0.185697
-0.266786
-0.216338
-0.219806
-0.508273
-0.488901
-0.31964
-0.311304
-0.256661
-0.191854
-0.134793
-0.0653995
-0.0102666
0.0317648
0.0445113
0.0518816
0.0559355
0.0540969
0.0555548
0.0545021
0.0556073
0.0567681
0.0620225
0.103772
0.104734
0.102242
0.100514
0.0994999
0.100977
0.108009
0.113936
0.126259
0.138248
0.154892
0.179787
0.164192
0.157387
0.152837
0.16929
0.152763
0.00334519
-0.215957
-0.364268
-0.568596
-0.816439
-0.822613
-0.744413
-0.745794
-0.634833
-0.491212
-0.318
-0.163964
-0.098093
-0.0496254
-0.000525104
0.0200393
0.0331783
0.0373817
0.0415172
0.0452807
0.047976
0.0485142
0.0434635
0.0966439
0.096754
0.0989619
0.101136
0.103387
0.104746
0.11165
0.126876
0.146554
0.173334
0.184221
0.23463
0.327442
0.444393
0.560359
0.641098
0.66274
0.6641
0.449685
0.053281
-0.10853
-0.670526
-0.606176
-0.597901
-0.556603
-0.448563
-0.371005
-0.285418
-0.215238
-0.132068
-0.0478841
-0.0238234
-0.00704524
0.00879839
0.018453
0.0205088
0.026486
0.0280806
0.0267486
0.0238535
0.08585
0.0913418
0.0941007
0.0960114
0.0994253
0.103779
0.109616
0.1237
0.157738
0.200504
0.253077
0.335905
0.443324
0.559399
0.696381
0.833749
0.93728
1.0236
0.972038
0.77186
0.661641
0.371724
0.195145
-0.0140205
-0.106376
-0.12474
-0.139174
-0.125777
-0.0974967
-0.0726379
-0.0507988
-0.0359301
-0.0226287
-0.0141621
-0.00508642
-0.00358179
-0.000619499
0.000292511
0.00199335
0.000619611
0.0725007
0.0732541
0.0758575
0.077986
0.0796772
0.0843188
0.0934216
0.113803
0.132697
0.174889
0.23078
0.312644
0.455788
0.622965
0.788812
0.977516
1.08893
1.12271
1.15352
0.959545
0.856434
0.729866
0.534303
0.320113
0.194056
0.0985056
0.0315692
-0.0553421
-0.083361
-0.0652697
-0.0466551
-0.0416498
-0.0352841
-0.029444
-0.0264304
-0.0255255
-0.0235144
-0.0243799
-0.0244313
-0.019127
0.0586652
0.05747
0.0529502
0.0506603
0.0504816
0.054772
0.0698451
0.081257
0.108954
0.148845
0.213421
0.319028
0.420721
0.524421
0.611884
0.701038
0.804563
0.710096
0.793255
0.851983
0.768091
0.561064
0.271019
0.0637256
-0.0317652
-0.0376769
-0.0370167
-0.046414
-0.0410251
-0.0432389
-0.0562159
-0.0547487
-0.0532606
-0.0482935
-0.047347
-0.0430435
-0.0397652
-0.035435
-0.0310919
-0.0298884
0.0437826
0.0359035
0.0362947
0.0390578
0.0423544
0.0480377
0.0561213
0.0632487
0.074076
0.0907065
0.12913
0.181873
0.234266
0.273666
0.286203
0.305377
0.298662
0.281591
0.228395
0.123053
0.0851146
-0.0717768
-0.193611
-0.241093
-0.27264
-0.216
-0.156596
-0.115684
-0.0928971
-0.0831344
-0.084144
-0.0698899
-0.0632814
-0.055473
-0.0511135
-0.0488471
-0.0475829
-0.0464573
-0.0477398
-0.0449683
0.0352371
0.0357284
0.0351492
0.0353552
0.0366029
0.0381674
0.041623
0.0467268
0.055705
0.0620467
0.0550681
0.0429264
-0.0145918
-0.0962627
-0.163642
-0.240627
-0.271334
-0.296511
-0.344257
-0.23958
-0.234051
-0.271841
-0.288476
-0.290249
-0.277118
-0.230073
-0.200526
-0.148529
-0.107023
-0.0864485
-0.0780917
-0.0692162
-0.07925
-0.075534
-0.0729037
-0.0686757
-0.0661503
-0.0625516
-0.060204
-0.0592108
0.0283517
0.0358038
0.0378375
0.0381985
0.0367876
0.0347174
0.0339362
0.0298883
0.0299673
0.0155576
0.00299328
-0.0289545
-0.092253
-0.164036
-0.202108
-0.234654
-0.259295
-0.314034
-0.396145
-0.34345
-0.267716
-0.133299
0.0106512
0.0485316
0.0839568
0.0128861
-0.0606743
-0.0944095
-0.108491
-0.0932139
-0.0895217
-0.0837586
-0.0834122
-0.0831525
-0.0817841
-0.0781836
-0.0749086
-0.0729276
-0.0716462
-0.0741262
0.0130989
0.0153421
0.0169061
0.0180915
0.0165092
0.0158704
0.018381
0.0190426
0.031195
0.043473
0.0485525
0.0570131
0.0757347
0.0994672
0.117995
0.143185
0.167499
0.232308
0.268579
0.261712
0.263212
0.303669
0.304274
0.19504
0.197276
0.117993
0.0554065
-0.00320417
-0.0604587
-0.0730276
-0.0709237
-0.0781058
-0.0870025
-0.0909573
-0.0920221
-0.089738
-0.0868316
-0.0868392
-0.0868719
-0.0870766
-0.00339675
-0.0071685
-0.0082162
-0.00776132
-0.00383995
0.0010177
0.00316635
0.0114342
0.0299846
0.0624717
0.114616
0.174769
0.263286
0.383113
0.546091
0.714461
0.837337
0.890296
0.913109
0.671798
0.629296
0.589461
0.446653
0.313341
0.204796
0.0822991
-0.00549566
-0.0732973
-0.107418
-0.106563
-0.102906
-0.107393
-0.108338
-0.107882
-0.106785
-0.104168
-0.101633
-0.10043
-0.0987615
-0.0988871
-0.00981509
-0.016638
-0.0181304
-0.018075
-0.0155891
-0.0102614
-0.0014164
0.0134088
0.0375267
0.0804541
0.120987
0.201321
0.323028
0.459149
0.581104
0.698153
0.843119
0.898863
0.986639
0.948194
0.740093
0.557507
0.291716
0.115953
0.0388142
-0.00739584
-0.0417445
-0.0780717
-0.121972
-0.136252
-0.132424
-0.130993
-0.132462
-0.131272
-0.128932
-0.126252
-0.122324
-0.117762
-0.113741
-0.106345
-0.0113023
-0.01222
-0.0135398
-0.0149485
-0.0149663
-0.0121611
-0.00480783
0.00485517
0.0126003
0.052142
0.106965
0.153868
0.198077
0.245265
0.299929
0.344876
0.524342
0.535823
0.580704
0.520022
0.409891
0.237989
0.0411794
-0.134231
-0.2001
-0.229728
-0.226757
-0.196618
-0.165965
-0.160352
-0.166189
-0.169427
-0.14217
-0.138612
-0.135875
-0.135071
-0.132899
-0.127179
-0.123587
-0.11818
-0.0233682
-0.0200633
-0.0171803
-0.0161918
-0.0157668
-0.0158976
-0.0146598
-0.0103831
-0.00624825
0.00830734
0.0275878
0.0427123
0.0695135
0.079312
0.0810793
0.0660148
0.105647
0.113643
0.0901573
0.0379408
-0.108579
-0.310262
-0.484553
-0.59418
-0.579053
-0.514914
-0.4291
-0.338017
-0.273802
-0.229748
-0.192883
-0.169163
-0.150095
-0.139859
-0.13474
-0.129624
-0.126489
-0.125239
-0.125684
-0.124859
-0.0358151
-0.031238
-0.0316003
-0.0333371
-0.0356178
-0.0397856
-0.0416585
-0.0420417
-0.0442856
-0.0408914
-0.0249414
-0.0214489
-0.0109383
0.00412157
0.0408957
0.103822
0.108347
0.0386665
-0.145862
-0.315421
-0.489704
-0.649577
-0.742403
-0.780807
-0.710902
-0.702114
-0.594654
-0.469763
-0.3476
-0.257288
-0.219827
-0.185829
-0.155061
-0.147127
-0.134545
-0.127683
-0.119649
-0.115377
-0.114821
-0.125879
-0.0509171
-0.0474308
-0.0487066
-0.0500694
-0.0530514
-0.0593549
-0.0632659
-0.0667996
-0.0690471
-0.0749961
-0.0699715
-0.0472326
0.00355659
0.064733
0.117015
0.143359
0.145237
0.0637251
-0.0790125
-0.232556
-0.394441
-0.598317
-0.663818
-0.647428
-0.523492
-0.477304
-0.408497
-0.350345
-0.296419
-0.239148
-0.214491
-0.17461
-0.159472
-0.150759
-0.140141
-0.131889
-0.12768
-0.127755
-0.130805
-0.135485
-0.0572997
-0.0612291
-0.0636005
-0.0669384
-0.071654
-0.0771252
-0.0820941
-0.0876064
-0.0909498
-0.093508
-0.0943867
-0.0884519
-0.0800383
-0.0524785
-0.00139823
0.0733996
0.128547
0.170886
0.142604
0.0730394
-0.00194012
-0.0270474
-0.0590164
-0.0562283
-0.107574
-0.132343
-0.13102
-0.133323
-0.127205
-0.136274
-0.150661
-0.153266
-0.158003
-0.158306
-0.157731
-0.156576
-0.154686
-0.153661
-0.150856
-0.144373
-0.0569158
-0.0630236
-0.068238
-0.0745147
-0.0815822
-0.0891482
-0.0966916
-0.110635
-0.124155
-0.137403
-0.159298
-0.173193
-0.170004
-0.126461
-0.0443034
-0.0271804
0.0868379
0.160029
0.251474
0.323069
0.340781
0.387397
0.361987
0.343374
0.259701
0.196595
0.137793
0.0482794
-0.0288915
-0.0739884
-0.0985809
-0.123152
-0.14313
-0.151549
-0.154791
-0.157622
-0.157201
-0.155181
-0.150067
-0.139653
-0.0547956
-0.0639932
-0.0689797
-0.0758737
-0.0833481
-0.0923824
-0.10239
-0.115553
-0.127016
-0.140038
-0.155248
-0.16975
-0.213889