/*--------------------------------*- C++ -*----------------------------------*\
| =========                 |                                                 |
| \\      /  F ield         | OpenFOAM: The Open Source CFD Toolbox           |
|  \\    /   O peration     | Version:  v2106                                 |
|   \\  /    A nd           | Website:  www.openfoam.com                      |
|    \\/     M anipulation  |                                                 |
\*---------------------------------------------------------------------------*/
FoamFile
{
    version     2.0;
    format      ascii;
    arch        "LSB;label=32;scalar=64";
    class       volVectorField;
    location    "0";
    object      U;
}
// * * * * * * * * * * * * * * * * * * * * * * * * * * * * * * * * * * * * * //

dimensions      [0 1 -1 0 0 0 0];

internalField   nonuniform List<vector> 
11644
(
(-4.5587e-05 0.00018188 5.46683e-21)
(9.1091e-06 0.000487358 1.50759e-20)
(3.93976e-05 0.000750315 8.08859e-21)
(-1.22065e-05 0.000990765 0)
(8.86487e-06 0.00129268 0)
(5.94593e-05 0.00161733 0)
(8.79306e-05 0.00191532 0)
(2.50906e-05 0.00212401 0)
(0.000106591 0.00217438 0)
(0.000298209 0.00202832 0)
(0.000464094 0.00155948 0)
(0.000807292 0.000845093 0)
(0.000525011 -0.000227316 0)
(0.00220807 -0.00166077 0)
(0.00211671 -0.00287325 0)
(0.000350337 -0.00366006 0)
(0.000902932 -0.00431237 0)
(0.00144938 -0.00444919 0)
(0.000509626 -0.00475775 0)
(2.56866e-05 -0.00328068 3.82118e-30)
(0.000197615 -0.00257706 -3.79922e-30)
(0.000578995 -0.00109043 0)
(0.000853503 -0.00172426 0)
(0.000379509 -0.00105562 0)
(0.000194122 -0.000725486 0)
(0.00111552 -0.000429648 0)
(0.00183696 -0.000760721 0)
(0.000442021 -0.00139162 0)
(0.000644521 -0.00179291 0)
(0.000385459 -0.00198429 0)
(1.42369e-05 -0.00195291 0)
(-0.000125737 -0.00184622 0)
(-8.7808e-05 -0.0016739 0)
(-6.41865e-05 -0.00143526 0)
(-9.41365e-05 -0.00114771 0)
(-9.5443e-05 -0.00092076 0)
(-0.000114651 -0.000647502 0)
(-0.000151101 -0.000475587 0)
(-0.000142574 -0.000303117 0)
(-7.72529e-05 -0.000137843 1.05996e-21)
(-0.000458715 0.000269726 7.0221e-21)
(-0.000524021 0.000878683 6.50472e-21)
(-0.000594639 0.00154082 3.49348e-21)
(-0.000759857 0.002209 0)
(-0.00079536 0.00296727 0)
(-0.000881154 0.00380316 0)
(-0.000994189 0.00460921 0)
(-0.00107518 0.00529646 0)
(-0.00122314 0.00567818 0)
(-0.00141787 0.00567383 0)
(-0.00128244 0.00526626 0)
(-0.00141711 0.00401723 0)
(-0.000389103 0.00254203 0)
(-0.00148378 4.19791e-05 0)
(-0.00108733 -0.0021694 0)
(0.00187524 -0.00447059 4.48135e-22)
(0.00233977 -0.00601937 -9.22627e-22)
(0.00198245 -0.00656739 1.52327e-20)
(0.00210158 -0.00512847 -1.46102e-20)
(0.00249431 -0.00393589 -4.31857e-20)
(0.00200781 -0.00261731 5.08963e-20)
(0.000958529 -0.00200376 -7.1192e-21)
(0.000782596 -0.000760109 -9.95771e-22)
(0.000521977 -0.000954873 7.8826e-22)
(-2.33594e-05 -0.000617916 -2.1571e-22)
(-0.00204742 -0.00141718 0)
(-0.00360916 -0.00210829 0)
(-0.00234452 -0.00286837 0)
(-0.00272084 -0.00339029 0)
(-0.00254125 -0.00363453 0)
(-0.0019693 -0.00367822 0)
(-0.00164892 -0.0034666 0)
(-0.00145046 -0.00307785 0)
(-0.00124516 -0.00264194 0)
(-0.000980113 -0.00221373 0)
(-0.000850944 -0.00173081 0)
(-0.000635463 -0.00134968 0)
(-0.00061372 -0.000978211 0)
(-0.000512799 -0.000610219 0)
(-0.000389961 -0.00016646 0)
(-0.000710243 0.00047694 0)
(-0.00088721 0.00136829 0)
(-0.00123564 0.00247827 0)
(-0.00162462 0.00364309 0)
(-0.0018948 0.00489264 6.41456e-21)
(-0.00234311 0.00615999 0)
(-0.00293614 0.00749768 0)
(-0.0036743 0.00872292 0)
(-0.00428255 0.00973249 0)
(-0.00469402 0.0103011 0)
(-0.00473903 0.0100642 0)
(-0.00353969 0.00921425 0)
(-0.00321446 0.0068538 5.38355e-23)
(0.000967792 0.00377489 2.19236e-21)
(0.00407863 -0.000508435 1.06492e-20)
(0.00337758 -0.00431695 -1.12692e-19)
(0.00554855 -0.00705977 1.87174e-19)
(0.00658374 -0.00787093 -4.20463e-20)
(0.00628211 -0.00598235 -1.01292e-19)
(0.00571665 -0.00460994 1.0396e-20)
(0.00442574 -0.00307923 3.82219e-20)
(0.00233093 -0.00143804 -2.97619e-20)
(0.00105998 0.000235816 1.24104e-19)
(0.000351133 0.000745895 -4.22144e-20)
(-0.00153587 -0.000103202 -2.34292e-20)
(-0.00283462 -0.00154176 -2.04834e-20)
(-0.00347306 -0.00314009 -1.08811e-21)
(-0.00611885 -0.00488218 -1.8822e-22)
(-0.00628349 -0.00590738 0)
(-0.00617667 -0.00627065 0)
(-0.00573292 -0.0060866 0)
(-0.00490582 -0.00571157 0)
(-0.00405191 -0.00517412 0)
(-0.00317601 -0.00449206 0)
(-0.00249228 -0.00373515 0)
(-0.00189424 -0.00294472 0)
(-0.0014217 -0.00216411 0)
(-0.00113164 -0.00138844 0)
(-0.000806323 -0.00071663 0)
(-0.00049011 -0.000310184 0)
(-0.00114426 0.000280815 0)
(-0.00132985 0.00142633 0)
(-0.00172959 0.00289538 0)
(-0.00226981 0.00446938 0)
(-0.00293664 0.00606292 0)
(-0.00386439 0.00770878 0)
(-0.00509574 0.00947095 0)
(-0.00645031 0.0112278 0)
(-0.0078734 0.0127953 0)
(-0.00904019 0.013951 0)
(-0.00939015 0.0145556 -4.74985e-22)
(-0.00905412 0.0136254 -8.41429e-21)
(-0.00585132 0.0123814 -2.97432e-20)
(-0.00434107 0.00803606 3.31175e-20)
(-0.00170849 0.0020856 -1.17598e-19)
(0.00544831 -0.0035888 2.87164e-19)
(0.00635105 -0.0065552 -1.57239e-19)
(0.00862202 -0.00643437 2.6402e-19)
(0.0115941 -0.00679902 -3.19183e-19)
(0.0105893 -0.00661629 1.93432e-19)
(0.00810995 -0.00337911 -1.81344e-19)
(0.00607494 -0.00150124 1.75485e-19)
(0.00234266 -0.000629645 -1.28164e-19)
(-0.00148382 -0.000678886 -2.56752e-19)
(-0.00405076 -0.00156741 1.1022e-19)
(-0.00869143 -0.0044765 1.40985e-19)
(-0.0129973 -0.00640223 -3.99817e-20)
(-0.0122127 -0.00793352 3.7251e-20)
(-0.0124005 -0.00843924 -2.14271e-21)
(-0.011319 -0.00871603 4.50084e-22)
(-0.00986036 -0.00861705 0)
(-0.00837597 -0.00802233 0)
(-0.00687304 -0.00708572 0)
(-0.00533994 -0.00598693 0)
(-0.0040377 -0.00485931 0)
(-0.00285768 -0.00385089 0)
(-0.0019309 -0.00292224 0)
(-0.00142489 -0.00201381 0)
(-0.00106105 -0.00106079 0)
(-0.000733173 -8.84365e-05 0)
(-0.00159255 0.000658832 0)
(-0.00180578 0.00168206 0)
(-0.00220497 0.00318922 0)
(-0.00291188 0.00470318 0)
(-0.00377005 0.00636866 0)
(-0.00506378 0.00816343 0)
(-0.00674897 0.0101034 0)
(-0.00862976 0.0122515 0)
(-0.0104691 0.0145715 0)
(-0.0118858 0.0170751 -2.0093e-21)
(-0.0120046 0.0194159 -1.51148e-20)
(-0.0102837 0.0207525 5.08932e-20)
(-0.00913558 0.0182377 -5.23703e-20)
(-0.00367099 0.0141305 1.54036e-19)
(0.00316403 0.00752789 2.03834e-20)
(0.00360322 -0.00185885 -1.00196e-19)
(0.00708386 -0.00386735 7.35308e-20)
(0.0152915 -0.00366074 -3.39023e-19)
(0.0178388 -0.00486749 5.90027e-19)
(0.0176192 -0.00546917 -7.10636e-19)
(0.0151622 -0.00546039 5.92613e-19)
(0.0121782 -0.00329272 -3.69922e-19)
(0.00674522 -0.0024084 2.46435e-19)
(0.000406023 -0.00157616 -1.5363e-19)
(-0.00468328 -0.00301921 1.68274e-19)
(-0.00797364 -0.00801024 7.67081e-22)
(-0.010716 -0.0112758 -1.48582e-19)
(-0.0161903 -0.0120528 -4.99512e-20)
(-0.0168931 -0.0116547 2.99994e-20)
(-0.0158232 -0.0107883 1.6515e-20)
(-0.0136225 -0.0100911 -7.76247e-22)
(-0.0113714 -0.00912444 0)
(-0.00910267 -0.00787464 0)
(-0.00680686 -0.00663823 0)
(-0.00495422 -0.00542245 0)
(-0.00343922 -0.00431557 0)
(-0.00239117 -0.00317901 0)
(-0.00180455 -0.00200554 0)
(-0.00137213 -0.000841087 0)
(-0.00105076 -0.000493981 0)
(-0.00200557 0.000435968 0)
(-0.00218074 0.00216413 0)
(-0.00253007 0.00358311 0)
(-0.00310036 0.00513369 0)
(-0.00403428 0.00658132 0)
(-0.00538474 0.00833296 0)
(-0.00712811 0.0104582 0)
(-0.00913782 0.0130453 0)
(-0.0111295 0.0161684 9.06738e-22)
(-0.0129887 0.0195625 4.86775e-22)
(-0.0146954 0.0217441 9.36445e-20)
(-0.0163193 0.021353 -6.12989e-20)
(-0.0157063 0.0222835 2.45257e-19)
(-0.0128277 0.0215787 -4.42212e-19)
(-0.00952068 0.0138033 5.41806e-20)
(0.00275651 0.00474876 1.5251e-19)
(0.0104844 0.00624357 2.42838e-21)
(0.0157086 0.00776351 -2.73375e-19)
(0.019916 -0.0002915 1.78654e-19)
(0.0216614 -0.00510026 -6.16892e-19)
(0.0200472 -0.0016201 4.70688e-19)
(0.0160362 -0.00224678 1.8774e-19)
(0.00837616 -0.00749655 5.11767e-20)
(0.00122148 -0.00757827 -2.04553e-19)
(-0.00739787 -0.00662658 7.42916e-20)
(-0.0128716 -0.0105827 -6.95433e-20)
(-0.0190967 -0.0144927 4.38708e-19)
(-0.0188957 -0.0166725 -2.18375e-19)
(-0.0192584 -0.0147343 -8.56157e-20)
(-0.0186731 -0.0124784 8.18394e-21)
(-0.0160918 -0.0104028 1.60692e-20)
(-0.0125929 -0.00910437 -4.42098e-21)
(-0.00959378 -0.00774886 0)
(-0.00702676 -0.00640339 0)
(-0.00501553 -0.00520604 0)
(-0.00349609 -0.00406524 0)
(-0.00242374 -0.00318403 0)
(-0.00180591 -0.00233149 0)
(-0.00145824 -0.0014984 0)
(-0.00128166 2.58329e-06 0)
(-0.00232156 0.000788148 0)
(-0.00243371 0.00187696 0)
(-0.00265886 0.00369839 0)
(-0.00303208 0.00508129 0)
(-0.00362862 0.00665998 0)
(-0.00470998 0.00850258 0)
(-0.00624311 0.0106743 0)
(-0.00813192 0.0136523 7.18591e-22)
(-0.0101008 0.0168537 -5.91923e-21)
(-0.0127165 0.0195303 -1.31281e-20)
(-0.0156166 0.0223835 -2.50587e-20)
(-0.0173955 0.0262802 8.99291e-20)
(-0.016863 0.0278457 6.02384e-20)
(-0.0155403 0.0272766 7.09025e-20)
(-0.00846004 0.031601 -1.73442e-19)
(-8.50171e-05 0.0264119 -6.97298e-20)
(0.0129728 0.0131127 -1.60745e-19)
(0.0125619 0.0117988 -8.64046e-19)
(0.0140594 0.0074602 2.15126e-19)
(0.0160986 0.00333612 -3.94965e-20)
(0.0170064 2.38354e-05 6.09797e-19)
(0.0137581 -0.00396648 6.66143e-19)
(0.0083981 -0.00764145 -1.0428e-19)
(0.00319137 -0.00891693 -1.13094e-18)
(-0.00822619 -0.00879687 -2.58247e-19)
(-0.0151924 -0.0150229 2.79184e-19)
(-0.0119886 -0.0180251 -1.61535e-19)
(-0.0174404 -0.0177869 -2.93152e-20)
(-0.0172286 -0.0163433 8.17668e-20)
(-0.0164575 -0.0143534 -1.02166e-19)
(-0.0144587 -0.0110132 2.36565e-21)
(-0.0114263 -0.00832602 7.12174e-21)
(-0.00796682 -0.007139 -2.84608e-22)
(-0.00540777 -0.00638777 0)
(-0.00370726 -0.00563024 0)
(-0.00246437 -0.00488079 0)
(-0.00180109 -0.00397006 0)
(-0.00145506 -0.0029162 0)
(-0.00127729 -0.00152192 0)
(-0.00116437 -0.000940561 0)
(-0.00224682 0.00105058 0)
(-0.00232981 0.00316297 0)
(-0.00239007 0.00453354 0)
(-0.00248828 0.00579756 0)
(-0.0027725 0.00736709 0)
(-0.00338598 0.00903064 0)
(-0.00448645 0.0114102 0)
(-0.00574051 0.014069 -2.07879e-20)
(-0.00737048 0.0162066 -2.29507e-20)
(-0.0102427 0.0183377 1.1281e-19)
(-0.0135309 0.0218904 1.0289e-19)
(-0.016091 0.0266703 -2.0114e-19)
(-0.0189145 0.0319783 -1.09775e-19)
(-0.011804 0.0349282 1.43988e-19)
(-0.00897955 0.0349399 1.73675e-19)
(-0.0115743 0.0332603 3.70633e-19)
(-0.00156 0.033024 2.47869e-20)
(0.00678834 0.0193797 -1.51586e-19)
(0.0123806 0.0170874 1.11388e-18)
(0.0120176 0.0114092 -8.42291e-19)
(0.0113228 0.00534712 5.59704e-19)
(0.0103632 0.000300598 -1.17658e-19)
(0.00919246 -0.00493518 5.09835e-19)
(0.00648843 -0.00747432 -3.88839e-19)
(0.000252578 -0.0158785 3.20789e-19)
(-0.0128004 -0.0151232 3.55778e-19)
(-0.0135619 -0.00911634 2.27654e-19)
(-0.0140546 -0.0154633 -1.60538e-19)
(-0.0102889 -0.0163215 7.87131e-20)
(-0.00946558 -0.0162411 9.17404e-20)
(-0.00794824 -0.0128838 -1.13501e-20)
(-0.00627913 -0.0095759 5.33305e-21)
(-0.0040948 -0.00770664 4.33752e-21)
(-0.00224114 -0.00725325 0)
(-0.00135558 -0.00659504 0)
(-0.000874735 -0.00562781 0)
(-0.000684352 -0.00454937 0)
(-0.000660893 -0.0037099 0)
(-0.000665374 -0.00242409 0)
(-0.000770662 -0.000554137 0)
(-0.00208635 0.000557183 0)
(-0.001964 0.00246447 0)
(-0.00177442 0.0046614 0)
(-0.00167871 0.00696805 0)
(-0.0016444 0.00869261 0)
(-0.00179298 0.0107351 0)
(-0.00209318 0.0127856 1.10008e-22)
(-0.00211342 0.0148049 -2.57945e-21)
(-0.00297357 0.0162929 3.10008e-20)
(-0.00485559 0.0191436 -7.08441e-20)
(-0.0066348 0.024859 2.80103e-20)
(-0.00816415 0.0295549 2.05468e-20)
(-0.00793112 0.0450542 -1.69059e-20)
(0.00128626 0.0514495 1.7142e-19)
(-0.00368529 0.0405179 1.3472e-19)
(0.00763644 0.0407373 9.79103e-20)
(0.0030326 0.0442425 4.60182e-20)
(0.0150694 0.0384026 7.84557e-20)
(0.017054 0.0238351 -6.32808e-19)
(0.0161011 0.0188038 1.63927e-19)
(0.0166941 0.0117705 3.67009e-20)
(0.0190506 0.00774322 2.45432e-19)
(0.0188681 0.00139386 -8.54973e-19)
(0.0237198 -0.00840228 5.13363e-19)
(0.00702365 -0.0128038 2.79204e-19)
(0.0195382 -0.0161558 -1.27568e-20)
(0.00570178 -0.00952971 1.67729e-19)
(0.00714181 -0.0185312 -8.53504e-20)
(0.00336966 -0.0116523 6.74381e-20)
(0.0025967 -0.015116 -1.6288e-22)
(0.00231693 -0.0151812 -1.98025e-20)
(0.0017312 -0.0132164 2.9463e-22)
(0.0014774 -0.0108236 6.90411e-21)
(0.00194989 -0.0101812 -6.30208e-23)
(0.00162129 -0.00967972 0)
(0.0011447 -0.00837846 0)
(0.000645419 -0.00695639 0)
(0.000223959 -0.00486747 0)
(-7.48532e-05 -0.00311535 0)
(-0.00024887 -0.000860624 0)
(-0.00235184 0.00173132 0)
(-0.00216554 0.00455046 0)
(-0.00184232 0.0064655 0)
(-0.00118322 0.0079601 0)
(-0.000550701 0.009792 0)
(0.000149172 0.011749 0)
(0.000905222 0.0142757 -5.47545e-22)
(0.00182915 0.0168933 -2.89703e-21)
(0.00163587 0.0196385 4.08448e-21)
(0.00161184 0.0241286 7.02574e-22)
(0.00171088 0.0301441 2.4432e-20)
(-0.000494672 0.0406725 -4.73613e-20)
(-0.00399067 0.0628588 1.71251e-20)
(0.000136812 0.0589965 -2.95692e-20)
(0.00285545 0.0550281 -1.08865e-21)
(0.0162916 0.0614653 1.32586e-19)
(0.0195974 0.0468535 9.6666e-20)
(0.021306 0.039324 2.19007e-19)
(0.018623 0.0311096 -1.46553e-19)
(0.0161208 0.0249055 -1.95993e-19)
(0.0169176 0.0250226 7.87441e-20)
(0.0284008 0.0223344 -1.67647e-19)
(0.0370909 0.0148579 -1.03917e-19)
(0.0417105 0.00315869 5.10994e-20)
(0.0408362 -0.00662798 8.89087e-20)
(0.0397075 -0.020373 -2.99567e-19)
(0.0271636 -0.0155563 5.63484e-20)
(0.0304584 -0.0289151 -1.05548e-20)
(0.02524 -0.0200872 2.64306e-20)
(0.0199467 -0.0195435 -1.68469e-20)
(0.0152875 -0.018966 7.99022e-21)
(0.0108822 -0.0190453 1.09233e-20)
(0.00742863 -0.0171308 -1.18996e-20)
(0.0059669 -0.0151602 1.70941e-21)
(0.00435686 -0.014098 0)
(0.00279073 -0.0123384 0)
(0.00155061 -0.0101457 0)
(0.000606352 -0.00800611 0)
(1.2371e-07 -0.00509983 0)
(-0.000351464 -0.0022859 0)
(-0.0032526 0.00200262 0)
(-0.00293956 0.00388514 0)
(-0.00278151 0.0070596 0)
(-0.00186074 0.00914245 0)
(-0.000926058 0.011523 0)
(2.18363e-05 0.0143335 0)
(0.00157456 0.0178585 7.31803e-22)
(0.00343586 0.0209411 2.45446e-21)
(0.00286892 0.0253163 -5.46006e-21)
(0.00214336 0.0331701 1.14264e-21)
(0.00337354 0.0391451 6.23007e-21)
(0.0043836 0.0446409 1.57098e-21)
(0.00155009 0.0587296 -5.49264e-21)
(-0.00184249 0.0645471 -4.51974e-20)
(0.0110061 0.068215 -5.4641e-20)
(0.00792182 0.0614471 1.18898e-20)
(0.0191509 0.0554922 -1.3525e-20)
(0.0319235 0.0378984 2.08952e-20)
(0.0300532 0.0205956 -2.02162e-20)
(0.0116048 0.0144611 -6.7715e-20)
(0.00716998 0.0292278 6.17652e-19)
(0.0320927 0.0441677 -1.15434e-19)
(0.0618222 0.0327336 2.63785e-20)
(0.0686872 0.00998299 2.88277e-21)
(0.0638544 -0.0136663 2.02167e-21)
(0.0608315 -0.0286304 3.91414e-20)
(0.053961 -0.0228447 5.72535e-21)
(0.0495041 -0.0306454 1.45475e-20)
(0.0446989 -0.0276545 5.6104e-21)
(0.0371383 -0.0273233 -2.58734e-21)
(0.0268201 -0.0287387 -2.02844e-21)
(0.0186253 -0.0283892 4.65605e-21)
(0.0119104 -0.0255465 -6.71082e-22)
(0.00757258 -0.0226311 -3.01405e-21)
(0.00505561 -0.0200131 0)
(0.00292856 -0.0167267 0)
(0.00123916 -0.0129722 0)
(-0.000307194 -0.00970026 0)
(-0.00123453 -0.00563284 0)
(-0.00203974 -0.00172394 0)
(-0.0054463 0.000433502 0)
(-0.00599612 0.00532438 0)
(-0.00542409 0.00733194 0)
(-0.00529434 0.0104928 0)
(-0.00452502 0.0134685 0)
(-0.0031195 0.0167247 0)
(-0.00161434 0.0211972 6.20539e-23)
(-0.0020466 0.0260896 6.87521e-23)
(-0.00298694 0.0314186 2.13026e-21)
(-0.00441877 0.040007 -4.4268e-22)
(-0.00688406 0.049748 7.73988e-21)
(-0.00659367 0.0539092 -2.68407e-21)
(-0.00747363 0.0656925 -7.33448e-21)
(-0.00530945 0.0775112 -1.8151e-20)
(0.0110836 0.0783962 8.13401e-21)
(0.0249016 0.0819 1.38825e-20)
(0.0460375 0.0706877 -2.04204e-20)
(0.0669276 0.047605 6.81301e-21)
(0.118771 -0.0415942 2.42903e-19)
(0.108664 0.0494049 4.84249e-19)
(0.109062 0.00218899 9.98177e-21)
(0.0943162 -0.0140882 -1.69096e-20)
(0.083814 -0.0230916 -4.43385e-21)
(0.0792824 -0.0358782 4.5636e-21)
(0.0633919 -0.0327101 1.1435e-20)
(0.0580343 -0.0343442 -4.50846e-21)
(0.0451282 -0.0413244 -2.89911e-21)
(0.0317776 -0.0420078 -1.01496e-21)
(0.0211524 -0.0396001 -6.23154e-22)
(0.0118644 -0.0356967 -9.48141e-22)
(0.00521392 -0.0314789 -1.36732e-22)
(0.0010331 -0.0274902 0)
(-0.00148479 -0.0225689 0)
(-0.00313175 -0.0175439 0)
(-0.0041538 -0.0123911 0)
(-0.00516402 -0.00870645 0)
(-0.00513508 -0.00258931 0)
(-0.00890469 0.00271225 0)
(-0.0102522 0.00462983 0)
(-0.0112546 0.00821621 0)
(-0.0113016 0.0115152 0)
(-0.0108641 0.0147994 0)
(-0.010892 0.0184458 0)
(-0.0116301 0.023389 8.96882e-22)
(-0.0144273 0.0292376 -4.46827e-21)
(-0.0208099 0.0374161 4.11139e-21)
(-0.025659 0.046478 4.10206e-21)
(-0.0340152 0.060034 -3.47199e-21)
(-0.0335351 0.0677045 2.27652e-20)
(-0.0398882 0.080221 1.26239e-20)
(-0.0352425 0.0934217 1.07572e-20)
(-0.0163915 0.0976407 1.00094e-19)
(0.00527112 0.107988 1.28077e-20)
(0.0448423 0.112615 1.29716e-20)
(0.115482 0.104484 1.08477e-20)
(0.00622025 0.00330907 9.54865e-18)
(0.0250548 0.00191213 4.3677e-19)
(0.140132 -0.047716 6.22339e-21)
(0.0987114 -0.0503414 -1.45061e-20)
(0.0816856 -0.0378077 5.21303e-20)
(0.0753376 -0.0512729 5.4928e-20)
(0.0675249 -0.0400825 4.37298e-21)
(0.0577131 -0.0459434 -1.54507e-20)
(0.0419397 -0.0541015 7.79122e-21)
(0.0273304 -0.053698 2.46453e-21)
(0.0156299 -0.0507078 -9.82313e-22)
(0.00497009 -0.0463153 8.60753e-22)
(-0.00357283 -0.0403936 2.26488e-22)
(-0.0074116 -0.0346121 0)
(-0.00992213 -0.0282376 0)
(-0.0116519 -0.0223365 0)
(-0.0127994 -0.0168397 0)
(-0.0128022 -0.010023 0)
(-0.0122124 -0.00389214 0)
(-0.0214951 0.000314442 -6.78281e-23)
(-0.0197799 0.00380815 0)
(-0.0205847 0.00705522 0)
(-0.0222552 0.00974238 0)
(-0.0244231 0.0129455 0)
(-0.025919 0.0167604 0)
(-0.0306962 0.0224051 1.80024e-21)
(-0.0400841 0.0283871 2.87622e-21)
(-0.054557 0.0391301 -4.14353e-21)
(-0.0673682 0.0499704 7.2243e-21)
(-0.085061 0.0680316 2.64512e-20)
(-0.0981791 0.0741053 -7.507e-21)
(-0.101665 0.0799721 9.59689e-21)
(-0.0911035 0.0998124 1.41437e-19)
(-0.0737829 0.126971 2.7424e-19)
(-0.0397513 0.150747 1.2073e-19)
(0.0207319 0.177647 1.3443e-19)
(0.277048 0.159601 2.34514e-20)
(0.15197 -0.0385924 2.23062e-20)
(0.115132 -0.0329906 2.83547e-19)
(0.161773 -0.118182 9.66297e-20)
(0.0751222 -0.0935098 -5.82487e-20)
(0.0459278 -0.0652355 5.83558e-20)
(0.0436161 -0.0552001 -7.93028e-20)
(0.035757 -0.0378018 5.11144e-20)
(0.0323295 -0.0575579 -5.52411e-20)
(0.0235766 -0.0652875 -5.78631e-20)
(0.014843 -0.0610923 1.16969e-20)
(0.000387856 -0.0588842 -6.54634e-21)
(-0.0118181 -0.0548051 -5.61293e-21)
(-0.0196583 -0.0479411 -2.04463e-22)
(-0.0234871 -0.0393693 0)
(-0.0241677 -0.0310562 0)
(-0.0241199 -0.0232157 0)
(-0.023893 -0.0163254 0)
(-0.0235021 -0.00912351 0)
(-0.0237824 -0.00355303 0)
(-0.0282247 -0.000882954 -1.48707e-23)
(-0.0303766 3.28177e-05 0)
(-0.0324407 0.00208089 0)
(-0.0346116 0.0047678 0)
(-0.0385752 0.00794352 0)
(-0.0440588 0.0102074 0)
(-0.0557288 0.01374 1.03262e-21)
(-0.0731724 0.0180062 1.99467e-21)
(-0.096418 0.0310214 -5.67102e-21)
(-0.120425 0.0397211 -5.27656e-21)
(-0.148427 0.0576937 3.62966e-20)
(-0.170548 0.0697308 -1.47306e-19)
(-0.173053 0.0802613 1.75362e-19)
(-0.160758 0.125338 -4.09568e-20)
(-0.133241 0.156118 1.72918e-19)
(-0.0840786 0.204154 -2.95162e-19)
(-0.0335275 0.253897 3.37476e-19)
(0.461101 0.233302 2.69384e-21)
(0.232434 0.176307 -1.03007e-19)
(-0.296412 0.1229 2.10782e-19)
(-0.150704 0.274019 6.25864e-21)
(0.0755937 0.240371 5.34245e-19)
(0.444159 -0.136149 -3.62062e-21)
(0.165005 -0.15782 1.36683e-20)
(0.0275536 -0.12986 -3.53757e-21)
(0.00142523 -0.0866175 -3.13165e-20)
(0.0121664 -0.0642357 -8.57961e-20)
(-0.00229933 -0.0344075 5.87993e-20)
(-0.0128487 -0.0466456 1.14357e-20)
(-0.00929865 -0.055261 -2.8042e-20)
(-0.0113126 -0.058498 7.20944e-21)
(-0.0230791 -0.0620848 1.96904e-21)
(-0.0353013 -0.0571895 -2.20217e-21)
(-0.0450747 -0.0511461 -6.73616e-22)
(-0.0469426 -0.0425039 0)
(-0.0458429 -0.0330503 0)
(-0.0451412 -0.0243185 0)
(-0.0443849 -0.0165262 0)
(-0.0433415 -0.010278 0)
(-0.0422293 -0.00275957 0)
(-0.0348742 -2.69314e-06 1.42722e-21)
(-0.0375362 -0.000679231 0)
(-0.0414841 -0.00124718 0)
(-0.0462938 -0.00209272 0)
(-0.0524688 -0.00237999 0)
(-0.060671 -0.00315792 0)
(-0.0745958 -0.00326828 3.01999e-23)
(-0.0995531 -0.000792809 -1.15339e-21)
(-0.13334 0.0088331 -1.21509e-20)
(-0.168041 0.0172192 2.06313e-20)
(-0.201509 0.0367984 -6.93542e-20)
(-0.223984 0.07326 6.35942e-20)
(-0.236628 0.101579 -1.46207e-20)
(-0.23003 0.121654 -6.59936e-20)
(-0.214099 0.188663 -2.26837e-19)
(-0.167719 0.250517 -2.31759e-20)
(-0.141443 0.305063 3.23397e-19)
(0.518436 0.413889 -8.26666e-19)
(0.81901 0.289914 -9.50467e-19)
(-0.554076 0.408293 -4.74689e-18)
(-0.149194 -0.0473959 -2.05688e-19)
(-0.617873 -0.523335 -1.61695e-18)
(0.901857 0.105043 1.41428e-19)
(0.0358533 -0.179242 -4.98517e-19)
(-0.0406708 -0.149742 3.34186e-19)
(-0.0157399 -0.116978 2.06672e-19)
(-0.042076 -0.0719773 -7.86661e-20)
(-0.00442067 -0.0410852 -1.98804e-19)
(-0.00222773 -0.0468305 -5.58419e-20)
(-0.0184397 -0.0365868 7.43507e-21)
(-0.0372123 -0.0473203 -5.3056e-21)
(-0.0479545 -0.0507778 2.78985e-20)
(-0.0595028 -0.0509831 -2.16574e-21)
(-0.0706198 -0.0468189 2.84418e-24)
(-0.0716084 -0.0396332 0)
(-0.0683505 -0.0320196 0)
(-0.065929 -0.0241756 0)
(-0.0633789 -0.0164646 0)
(-0.0609012 -0.00969306 0)
(-0.0586977 -0.00324578 1.55065e-21)
(-0.0375454 -0.00177464 1.0322e-21)
(-0.0380729 -0.00519478 0)
(-0.0418141 -0.00853577 0)
(-0.0476215 -0.012337 0)
(-0.0561655 -0.0159515 0)
(-0.0651717 -0.0193973 0)
(-0.0811698 -0.0206357 0)
(-0.114327 -0.0218253 -4.47227e-22)
(-0.158283 -0.0133497 4.25952e-21)
(-0.201925 -0.00589385 -5.81114e-21)
(-0.244299 0.0186675 -4.26973e-20)
(-0.283149 0.0485916 8.3841e-20)
(-0.297629 0.109247 -3.69696e-20)
(-0.278396 0.14032 -5.36537e-20)
(-0.289073 0.165917 1.98258e-19)
(-0.307607 0.205636 -1.02929e-19)
(-0.111215 0.28304 -2.64644e-19)
(0.739799 0.178689 1.12967e-18)
(0.115817 1.20094 7.41282e-19)
(1.58234 0.263562 1.42119e-18)
(-1.61556 0.165322 1.85703e-18)
(2.41247 0.548192 1.1239e-18)
(-0.253527 -0.944133 3.81644e-19)
(0.368375 0.0525806 -3.03305e-18)
(-0.103152 -0.16431 9.37705e-20)
(-0.0879484 -0.049044 2.11398e-19)
(0.000379272 -0.0578544 -8.53149e-20)
(-0.00954249 -0.0440266 -3.57319e-20)
(-0.00431749 -0.013858 6.86471e-20)
(-0.0147511 -0.0258954 1.65195e-20)
(-0.0302228 -0.028267 -7.93412e-21)
(-0.0520477 -0.038914 -8.20527e-22)
(-0.0726852 -0.0426169 2.87131e-21)
(-0.0856338 -0.0389238 0)
(-0.0862492 -0.0301081 0)
(-0.0818667 -0.0244212 0)
(-0.0761735 -0.0188751 0)
(-0.0722249 -0.0129575 0)
(-0.0706058 -0.0070386 0)
(-0.0705655 -0.00182923 -2.26441e-21)
(-0.0314116 -0.00212541 2.27953e-22)
(-0.0326038 -0.010289 0)
(-0.0362394 -0.0170589 0)
(-0.0413495 -0.0227699 0)
(-0.0484656 -0.0287862 0)
(-0.0591714 -0.0352749 0)
(-0.0793083 -0.039091 0)
(-0.113319 -0.041224 0)
(-0.158925 -0.030115 4.071e-22)
(-0.206677 -0.0182857 -5.02795e-22)
(-0.24954 -0.0015425 2.40685e-21)
(-0.303021 0.0308092 2.7703e-20)
(-0.349451 0.0658024 -4.79114e-20)
(-0.367459 0.100578 -3.63589e-20)
(-0.347305 0.154099 8.81269e-20)
(-0.361236 0.221979 2.77385e-19)
(-0.126092 0.202178 4.35803e-21)
(0.844323 0.0843122 -4.64718e-19)
(-1.4401 -0.365603 3.60955e-19)
(0.256331 1.51923 2.17248e-18)
(3.06731 0.272279 4.29911e-19)
(-0.125282 -0.739236 -1.04125e-18)
(0.113942 0.841319 1.43535e-18)
(-0.116135 -0.113273 -7.63591e-19)
(-0.255857 0.0314467 2.35102e-20)
(-0.0851421 -0.0557644 -2.36965e-19)
(-0.0281241 -0.00505255 1.07687e-20)
(-9.91866e-06 0.00764318 1.10578e-20)
(0.0236277 -0.0100554 1.60488e-20)
(0.0187206 -0.0229854 -9.84838e-21)
(-0.00745018 -0.0291159 6.21365e-21)
(-0.0396927 -0.0333855 -1.51839e-21)
(-0.0711988 -0.0304127 0)
(-0.0931427 -0.0253348 0)
(-0.0947795 -0.0186761 0)
(-0.0891894 -0.0150563 0)
(-0.0837595 -0.0109448 1.01257e-20)
(-0.079652 -0.00713799 1.40032e-20)
(-0.0768264 -0.00433442 8.35023e-21)
(-0.0752743 -0.00168213 0)
(-0.0204336 -0.00364178 0)
(-0.0209503 -0.013349 0)
(-0.0220935 -0.0237142 0)
(-0.0256942 -0.0336439 0)
(-0.0310741 -0.0424304 0)
(-0.0399767 -0.0512563 0)
(-0.0624973 -0.0595133 0)
(-0.108455 -0.0675955 0)
(-0.162574 -0.0600286 5.17598e-25)
(-0.215993 -0.0473228 -7.76858e-22)
(-0.263238 -0.028385 6.11235e-21)
(-0.310631 -0.00583386 8.35005e-21)
(-0.370365 0.0211437 -1.9084e-20)
(-0.413944 0.0600648 2.36464e-20)
(-0.386448 0.0730282 1.05234e-18)
(-0.401838 0.161907 -1.32699e-19)
(0.0546895 0.0908616 1.36304e-19)
(-0.38632 0.69464 -1.43747e-19)
(1.74382 0.569798 1.07392e-20)
(0.141841 -0.244641 -2.93532e-18)
(-0.881902 0.365434 9.99232e-19)
(1.17128 0.667239 -5.25607e-19)
(2.36932 -0.0777027 2.98779e-19)
(-0.52527 -0.330699 4.13082e-20)
(-0.460475 -0.0693526 -1.99305e-20)
(-0.0919275 0.10454 4.73458e-21)
(-0.0217011 0.0486408 -6.67295e-21)
(0.0156834 0.0281436 -3.70883e-20)
(0.0403379 0.000875926 -3.16371e-20)
(0.0277027 -0.0119045 -1.48923e-21)
(-0.00226528 -0.0111131 2.81076e-22)
(-0.0386106 -0.0129921 1.42715e-23)
(-0.0706812 -0.00896872 0)
(-0.0909685 -0.0100436 0)
(-0.0961032 -0.00748513 0)
(-0.0928174 -0.00541171 0)
(-0.0878165 -0.00272804 0)
(-0.0841118 -0.00208848 0)
(-0.081765 -0.0019011 0)
(-0.0789874 -0.000749235 -1.50389e-21)
(-0.0041903 -0.00574412 0)
(-0.00505268 -0.0180389 0)
(-0.00572334 -0.0289197 0)
(-0.00701683 -0.0399784 0)
(-0.0100643 -0.0507886 0)
(-0.0171823 -0.0621893 0)
(-0.0390311 -0.0707336 0)
(-0.0852331 -0.08195 0)
(-0.144265 -0.0845478 0)
(-0.205204 -0.0849222 0)
(-0.262636 -0.0740765 -4.55939e-22)
(-0.307274 -0.0630903 -1.12127e-20)
(-0.365077 -0.0390641 -9.60008e-21)
(-0.429031 -0.00401131 1.87027e-20)
(-0.460299 0.0600317 3.56908e-18)
(-0.270064 0.041344 2.10787e-19)
(0.182663 -0.209386 1.32351e-18)
(-0.646124 0.15094 5.25511e-19)
(-0.319919 0.669407 1.44188e-18)
(1.22901 0.457541 6.72374e-19)
(1.9074 -0.142393 -9.62367e-19)
(1.46576 -0.376332 2.40448e-18)
(-0.0812895 -0.0338668 9.72114e-21)
(-0.409106 0.704062 -3.0444e-19)
(0.0638959 0.277477 -5.07133e-20)
(-0.0275969 0.0880122 -9.62947e-20)
(-0.00764749 0.0796 -1.91709e-21)
(0.0320855 0.0523418 -1.71874e-20)
(0.050687 0.0359125 1.16796e-20)
(0.0389844 0.0246307 -5.23011e-22)
(0.0134577 0.0155874 0)
(-0.0221325 0.00448463 0)
(-0.0578446 0.000825705 0)
(-0.0868204 -0.00212035 0)
(-0.0963896 0.000926293 0)
(-0.0941387 0.00156412 0)
(-0.090188 0.00312008 0)
(-0.0873103 0.00314858 0)
(-0.0838867 0.00232599 0)
(-0.0817757 0.000395837 0)
(0.0177805 -0.00630395 0)
(0.0157722 -0.01954 0)
(0.0135007 -0.0334538 0)
(0.0111539 -0.0467766 0)
(0.00883114 -0.0593538 0)
(0.00197917 -0.0725659 0)
(-0.0198413 -0.0834615 0)
(-0.0683867 -0.0957711 0)
(-0.133706 -0.101211 0)
(-0.199502 -0.11032 0)
(-0.258551 -0.108674 0)
(-0.311933 -0.113014 -2.23609e-22)
(-0.339503 -0.109661 -2.35788e-21)
(-0.404987 -0.100343 -5.97827e-21)
(-0.476724 -0.0639115 1.16586e-18)
(-0.7246 -0.103387 8.00372e-20)
(0.0655053 0.557437 7.73334e-19)
(0.490955 -0.182923 -1.42835e-19)
(0.0421586 -0.514353 7.63082e-19)
(0.224887 -0.148596 1.5219e-18)
(0.615157 0.225989 2.62051e-19)
(0.523569 0.5108 -3.55561e-19)
(0.41137 0.997128 -1.21057e-19)
(0.851228 0.271504 -7.6443e-19)
(-0.608652 -0.0445818 6.0217e-20)
(-0.0521871 0.107418 -2.21565e-19)
(0.0568152 0.0639758 -1.33726e-19)
(0.0691012 0.0744178 1.77253e-21)
(0.0532095 0.062144 -2.4802e-22)
(0.0470593 0.0490135 0)
(0.0174088 0.0347049 0)
(-0.0170805 0.0229147 0)
(-0.0535805 0.0184138 0)
(-0.0863424 0.014308 0)
(-0.0971854 0.014618 0)
(-0.0937901 0.0130259 0)
(-0.0881086 0.0124725 0)
(-0.082812 0.00963663 0)
(-0.0783562 0.00537484 0)
(-0.0763328 0.00171798 0)
(0.0320656 -0.00637448 0)
(0.0328768 -0.0195414 0)
(0.0334673 -0.0333609 0)
(0.0322299 -0.0483292 0)
(0.0300728 -0.0641456 0)
(0.0230775 -0.0813674 0)
(-0.00133692 -0.0964893 0)
(-0.0509087 -0.111714 0)
(-0.113102 -0.122127 0)
(-0.178711 -0.140836 0)
(-0.242822 -0.154758 4.12017e-21)
(-0.300769 -0.157156 0)
(-0.35192 -0.200105 0)
(-0.445259 -0.188105 5.42531e-20)
(-0.473379 -0.139722 -1.24454e-19)
(-0.365776 -0.117797 1.95454e-18)
(-1.32505 -0.834974 -1.93282e-20)
(-0.244667 0.394088 1.38549e-19)
(0.999178 1.03434 1.22337e-18)
(1.60337 0.526336 6.79815e-18)
(1.82622 -0.509766 2.82813e-19)
(1.56879 -1.21308 -6.39946e-21)
(0.573064 -0.934753 8.95692e-22)
(-0.91584 0.510619 -9.39184e-20)
(-0.601851 0.671648 1.16274e-20)
(0.0826166 0.0476886 3.06568e-19)
(0.0222612 0.0997402 3.26553e-19)
(0.0620186 0.0995826 0)
(0.0839414 0.0840131 0)
(0.0706826 0.0803394 -3.19905e-21)
(0.0411616 0.0623857 0)
(0.000553372 0.0495483 0)
(-0.0456178 0.0431557 0)
(-0.0811465 0.03608 0)
(-0.0904271 0.0306417 0)
(-0.0856759 0.0238722 0)
(-0.0795384 0.0182822 0)
(-0.0754867 0.0123677 -1.66651e-21)
(-0.0737091 0.00736344 -1.19557e-21)
(-0.0729135 0.00245448 0)
(0.0544669 -0.00721058 0)
(0.0530332 -0.0225739 0)
(0.0527314 -0.0372131 0)
(0.0532514 -0.0520313 0)
(0.0528753 -0.0678711 0)
(0.0476842 -0.0857426 0)
(0.0233454 -0.104367 0)
(-0.0308669 -0.126182 0)
(-0.0958262 -0.142984 0)
(-0.15979 -0.167322 0)
(-0.213068 -0.192997 -2.94164e-20)
(-0.275971 -0.201143 0)
(-0.319489 -0.263834 0)
(-0.47319 -0.325675 1.30877e-19)
(-0.826535 -0.294104 5.05166e-19)
(-0.207841 -0.0693268 -3.62676e-20)
(0.771597 0.0645081 0)
(1.06822 -0.335996 -3.54213e-19)
(0.75785 -0.748813 -1.65184e-18)
(0.654394 -0.305597 -1.13106e-18)
(0.833848 -0.180053 3.44821e-20)
(1.0923 0.201956 3.3173e-19)
(1.34397 -0.22334 -9.8602e-20)
(0.86277 -0.582769 0)
(0.0846418 -0.128757 1.27689e-19)
(-0.230657 0.178612 4.93765e-19)
(0.0300822 0.10897 3.47002e-20)
(0.104901 0.112963 0)
(0.112036 0.100445 0)
(0.101012 0.0960323 -5.36034e-20)
(0.0620612 0.0839498 0)
(0.0165044 0.0760601 0)
(-0.0306214 0.0678824 0)
(-0.0648668 0.0547934 0)
(-0.0762654 0.0447342 0)
(-0.0735662 0.0354106 3.01495e-21)
(-0.0686594 0.0277142 -3.91788e-21)
(-0.0653535 0.020164 0)
(-0.0622919 0.0127151 0)
(-0.0589158 0.00419222 -9.20687e-21)
(0.0717567 -0.00717362 0)
(0.0740874 -0.0213015 0)
(0.0753095 -0.036608 0)
(0.0759535 -0.0532898 0)
(0.0762483 -0.0706159 0)
(0.0719453 -0.0897028 0)
(0.0496367 -0.108735 -1.48248e-21)
(0.000142092 -0.133451 0)
(-0.0626819 -0.162352 0)
(-0.127076 -0.198574 0)
(-0.177432 -0.245407 0)
(-0.231965 -0.283958 0)
(-0.337607 -0.342863 0)