/*--------------------------------*- C++ -*----------------------------------*\
| =========                 |                                                 |
| \\      /  F ield         | OpenFOAM: The Open Source CFD Toolbox           |
|  \\    /   O peration     | Version:  v2106                                 |
|   \\  /    A nd           | Website:  www.openfoam.com                      |
|    \\/     M anipulation  |                                                 |
\*---------------------------------------------------------------------------*/
FoamFile
{
    version     2.0;
    format      ascii;
    arch        "LSB;label=32;scalar=64";
    class       volScalarField;
    location    "0";
    object      p;
}
// * * * * * * * * * * * * * * * * * * * * * * * * * * * * * * * * * * * * * //

dimensions      [0 2 -2 0 0 0 0];

internalField   nonuniform List<scalar> 
11644
(
0.0238269
0.0242853
0.0252501
0.026745
0.0287823
0.0313819
0.0345705
0.0383721
0.0428013
0.0478581
0.0535259
0.059747
0.0664327
0.0734659
0.0806691
0.0878441
0.0947483
0.10112
0.106757
0.111449
0.114958
0.117134
0.118014
0.117822
0.116608
0.114418
0.111526
0.108165
0.10453
0.100822
0.0971891
0.0937411
0.0905642
0.0877185
0.0852428
0.0831623
0.0814923
0.0802422
0.079423
0.0790303
0.0230062
0.0234551
0.0243829
0.0258186
0.0277872
0.0303161
0.0334377
0.0371836
0.0415794
0.0466406
0.052363
0.0587196
0.0656418
0.0730019
0.0806263
0.0882849
0.0957147
0.102624
0.108689
0.113591
0.117131
0.119271
0.12002
0.119533
0.117941
0.115413
0.112164
0.108454
0.104527
0.100577
0.0967552
0.0931766
0.0899143
0.0870179
0.0845171
0.0824308
0.0807672
0.0795306
0.0787212
0.078329
0.0212707
0.0217111
0.0225941
0.0239412
0.0257881
0.0281777
0.0311541
0.0347666
0.0390669
0.0441026
0.0499103
0.0565117
0.063878
0.0719128
0.080443
0.0891853
0.0978071
0.10584
0.112754
0.118206
0.122007
0.124108
0.124439
0.123246
0.120787
0.117376
0.113313
0.10889
0.104362
0.0999413
0.0957757
0.0919593
0.0885469
0.085566
0.0830273
0.0809322
0.0792754
0.0780478
0.0772354
0.0768295
0.0186878
0.0190928
0.0199005
0.0211203
0.0227925
0.0249705
0.0277159
0.0311023
0.035216
0.0401566
0.0460326
0.0529507
0.0609681
0.0700714
0.0800903
0.0905764
0.101025
0.110934
0.119448
0.126018
0.130262
0.132059
0.131435
0.128895
0.124992
0.120115
0.114749
0.109232
0.103832
0.0987438
0.094104
0.0899764
0.0863793
0.0833042
0.0807304
0.0786326
0.076987
0.0757681
0.0749556
0.0745435
0.0153665
0.0157081
0.0163886
0.0174222
0.018847
0.0207208
0.0231221
0.0261501
0.0299329
0.0346351
0.0404732
0.0477029
0.0565462
0.067077
0.079192
0.092268
0.105364
0.118485
0.129806
0.138152
0.142917
0.14383
0.141389
0.136333
0.130044
0.122922
0.115705
0.108801
0.102402
0.0966057
0.0914711
0.0870344
0.0832753
0.0801356
0.0775575
0.0754869
0.0738782
0.0726932
0.0719044
0.0715083
0.0114512
0.0116974
0.0121973
0.0129699
0.0140505
0.015499
0.0173993
0.0198695
0.0230804
0.0273024
0.0329125
0.0403247
0.0499022
0.0619723
0.0767525
0.0936963
0.11109
0.129334
0.14521
0.156621
0.162034
0.161018
0.155025
0.145563
0.135211
0.124785
0.115001
0.106433
0.0991323
0.0928557
0.0874502
0.0828582
0.0790453
0.0759373
0.0734387
0.0714665
0.0699523
0.068848
0.0681201
0.0677538
0.00710033
0.00723536
0.00750718
0.00793492
0.00855857
0.009432
0.0106336
0.0122873
0.0146126
0.018024
0.0230139
0.0300434
0.039626
0.0527886
0.0703848
0.0924222
0.111503
0.134308
0.156465
0.173931
0.182625
0.181331
0.171968
0.157995
0.138937
0.123881
0.110964
0.100902
0.0930169
0.0866695
0.0814605
0.0771046
0.0735013
0.0706102
0.0683364
0.0665722
0.0652371
0.0642731
0.0636486
0.06334
0.0025067
0.00250476
0.00250748
0.00252961
0.00259334
0.00273921
0.00303289
0.00358893
0.00468127
0.00676891
0.0102933
0.0158193
0.0241756
0.0375716
0.0550572
0.0777985
0.109828
0.146578
0.183155
0.21208
0.224235
0.217306
0.196527
0.170726
0.145649
0.123177
0.10798
0.0909809
0.0833321
0.0775224
0.0730662
0.0694714
0.0664977
0.064104
0.0622502
0.06084
0.0597929
0.059054
0.0585762
0.0583456
-0.00210081
-0.00225073
-0.00254407
-0.00298291
-0.00356212
-0.00426824
-0.0050652
-0.00586956
-0.00641638
-0.0063597
-0.00538394
-0.00301904
0.00144311
0.0167266
0.0318407
0.0575592
0.0931381
0.144006
0.205993
0.260341
0.28511
0.269241
0.227284
0.182157
0.142842
0.11199
0.0945017
0.0754582
0.069388
0.0652545
0.0622477
0.0599131
0.0580084
0.0564592
0.0552668
0.054383
0.0537388
0.0532892
0.053005
0.0528553
-0.00648823
-0.0067706
-0.00736797
-0.00828412
-0.00954192
-0.0111711
-0.0131907
-0.0155666
-0.0181731
-0.0209212
-0.0236529
-0.0261272
-0.0284154
-0.0181311
-0.011147
0.0121648
0.0491155
0.113381
0.216336
0.338598
0.400017
0.350808
0.251083
0.170363
0.114756
0.0796222
0.0675066
0.0531481
0.0513734
0.0501547
0.0492886
0.048702
0.0482475
0.0478493
0.0475449
0.0473462
0.0472231
0.047141
0.047095
0.0470828
-0.0103425
-0.0107971
-0.011684
-0.0130579
-0.0149639
-0.0174861
-0.0207481
-0.0248074
-0.0297311
-0.0357916
-0.0432556
-0.052259
-0.0634632
-0.0651871
-0.0744932
-0.0748294
-0.0638406
-0.0314034
0.0903766
0.370549
0.595081
0.392449
0.164487
0.0683709
0.0355482
0.0246584
0.0283585
0.0256197
0.0298057
0.0325426
0.0346827
0.0363874
0.0376808
0.0386388
0.0393939
0.040008
0.0404908
0.0408439
0.0410665
0.0411654
-0.0135196
-0.0140534
-0.0151814
-0.0169403
-0.0194066
-0.0227031
-0.0270492
-0.0326465
-0.0397986
-0.0490573
-0.0612272
-0.0773404
-0.0990011
-0.110754
-0.148018
-0.18148
-0.242537
-0.364564
-0.667237
-0.380378
-0.160518
-0.0779485
-0.0399633
-0.0161681
-0.00383034
0.00649592
0.0139473
0.0195803
0.0237777
0.026937
0.0293513
0.0312348
0.0327056
0.0338031
0.0345862
0.0350995
0.035359
-0.015756
-0.016367
-0.0176477
-0.0196489
-0.0224945
-0.0263185
-0.0313804
-0.0380287
-0.046772
-0.0583344
-0.0738232
-0.0948976
-0.123467
-0.149186
-0.203689
-0.267244
-0.378151
-0.591993
-0.854397
-0.408677
-0.282693
-0.155823
-0.0902776
-0.053183
-0.0294997
-0.0141879
-0.00287014
0.00560084
0.0119413
0.016811
0.0206051
0.0235542
0.025814
0.0274887
0.0286934
0.0294958
0.0298964
-0.0168494
-0.0175335
-0.0188858
-0.0209932
-0.0239646
-0.0279565
-0.0332164
-0.0401532
-0.0493893
-0.061664
-0.0781305
-0.100336
-0.130391
-0.163003
-0.220844
-0.293294
-0.40473
-0.567629
-0.65193
-0.313769
-0.253683
-0.165685
-0.108006
-0.0739039
-0.046166
-0.0290295
-0.0158494
-0.00578097
0.00201849
0.00816059
0.0130514
0.0168797
0.0197666
0.0218973
0.0234048
0.0243746
0.0248835
-0.0169273
-0.0175088
-0.0188128
-0.0208342
-0.0236567
-0.0274461
-0.0323289
-0.0386854
-0.0471925
-0.0583812
-0.0732416
-0.092689
-0.118092
-0.150596
-0.200363
-0.26917
-0.374531
-0.541454
-0.702177
-0.747606
-0.634217
-0.384237
-0.223164
-0.16867
-0.138863
-0.104849
-0.0790794
-0.0534262
-0.0372444
-0.0240364
-0.0135337
-0.00511424
0.00167938
0.00722427
0.0115921
0.0148622
0.0172774
0.0189656
0.0200389
0.0204878
-0.0159313
-0.0164429
-0.0175807
-0.0193049
-0.0217058
-0.0248706
-0.0287819
-0.0337403
-0.0402939
-0.0486407
-0.0592532
-0.0727599
-0.0896117
-0.117509
-0.150707
-0.200709
-0.287136
-0.438736
-0.696992
-0.853157
-0.708662
-0.342639
-0.1273
-0.113637
-0.123211
-0.101211
-0.0793048
-0.0545365
-0.0397178
-0.0273577
-0.017279
-0.00895998
-0.0021049
0.00355995
0.00800136
0.011368
0.0138965
0.0156685
0.0167449
0.0171269
-0.0138403
-0.0143384
-0.0151961
-0.016479
-0.0182091
-0.0203869
-0.0229865
-0.0259726
-0.0296631
-0.0341565
-0.0394438
-0.0458599
-0.0529598
-0.059243
-0.0845264
-0.1036
-0.152816
-0.214501
-0.327998
-0.457041
-0.453388
-0.303324
-0.204736
-0.196213
-0.147172
-0.107355
-0.0714613
-0.0521852
-0.0381069
-0.0265625
-0.0172004
-0.00944945
-0.00301469
0.00219436
0.00628921
0.00946547
0.0118519
0.0135239
0.0145777
0.0150977
-0.0107817
-0.0111212
-0.0116193
-0.012348
-0.0132679
-0.0143433
-0.0155735
-0.0166527
-0.0176309
-0.0185212
-0.018917
-0.0185245
-0.0164355
-0.0137749
-0.0187048
-0.0129607
-0.0253183
-0.0471505
-0.113824
-0.251341
-0.378778
-0.408425
-0.37701
-0.289719
-0.169103
-0.111361
-0.0660327
-0.0468782
-0.0331739
-0.0224102
-0.0140368
-0.00722748
-0.00163866
0.00283033
0.00633636
0.0090662
0.0111426
0.0126375
0.0136431
0.0141884
-0.0070394
-0.0071011
-0.00727825
-0.00750601
-0.00770734
-0.00780964
-0.0077443
-0.00729596
-0.00628455
-0.00440037
-0.00119055
0.0040658
0.0128244
0.0220149
0.028285
0.0482389
0.0538936
0.0345927
-0.0764092
-0.281301
-0.447643
-0.485528
-0.404763
-0.264823
-0.145338
-0.0947187
-0.0530735
-0.0359851
-0.024064
-0.0151347
-0.00831583
-0.00284702
0.00157721
0.00509963
0.00785356
0.0100121
0.0116736
0.0128896
0.0137173
0.014142
-0.00312007
-0.003042
-0.00294931
-0.00277932
-0.00246275
-0.00191493
-0.000986395
0.000492052
0.00279535
0.00630097
0.0113721
0.0187837
0.0297733
0.0424409
0.0517331
0.071112
0.075349
0.0371029
-0.0680857
-0.226647
-0.333564
-0.32848
-0.247101
-0.158426
-0.09212
-0.0618831
-0.0302941
-0.0190697
-0.0109342
-0.004948
-0.000376235
0.00328442
0.00622738
0.00858253
0.0104668
0.0119706
0.0131323
0.0139799
0.0145428
0.0148251
0.000591876
0.000720553
0.00100435
0.00143896
0.00205858
0.00295186
0.00421187
0.00601381
0.00859782
0.0122602
0.0171501
0.0233403
0.0315962
0.0406443
0.0483275
0.0518024
0.0426442
0.00112509
-0.0662658
-0.133554
-0.165237
-0.152529
-0.116827
-0.0842728
-0.0487017
-0.0283805
-0.00679783
-0.000594359
0.00371834
0.00672968
0.00872763
0.0103088
0.0115901
0.0127021
0.0136798
0.014499
0.0151506
0.0156228
0.0159187
0.0160636
0.00415385
0.00430199
0.00463464
0.00515891
0.00588056
0.00685149
0.00811588
0.00971451
0.0117626
0.0143418
0.0174352
0.0208488
0.0237791
0.0265853
0.0115613
0.00025093
-0.029334
-0.0812139
-0.133285
-0.150869
-0.138405
-0.107534
-0.0712331
-0.0393477
-0.0170579
0.00552069
0.0126468
0.0158654
0.0172956
0.0174993
0.0173039
0.0170546
0.0168684
0.0168336
0.0169398
0.0171158
0.0173116
0.0174816
0.0175886
0.0176165
0.00752618
0.00768115
0.00800422
0.0085133
0.00920189
0.0100751
0.0111679
0.0124225
0.0137566
0.0149639
0.0156422
0.0160793
0.0122597
0.00388376
-0.0134368
-0.0776026
-0.139935
-0.198867
-0.254678
-0.25196
-0.195875
-0.125673
-0.0616703
-0.0159772
0.00962881
0.0237804
0.0274256
0.0286259
0.0278521
0.025937
0.024172
0.0225916
0.0213561
0.0204496
0.0198704
0.0194954
0.0192816
0.0191828
0.0191524
0.0191499
0.0106136
0.0107524
0.0110665
0.0115493
0.0121846
0.0129456
0.0138339
0.0147684
0.0155952
0.0159613
0.0151834
0.0128511
0.00599969
-0.00896545
-0.0346684
-0.0885825
-0.152977
-0.224286
-0.292691
-0.306349
-0.239058
-0.16168
-0.0841112
-0.0237963
0.0127152
0.0318837
0.0383624
0.037682
0.0350422
0.0318457
0.0289877
0.0265612
0.024718
0.0233106
0.0223076
0.0215499
0.0210368
0.0207177
0.0205554
0.0205576
0.0133751
0.0135165
0.0138292
0.0143021
0.0149174
0.0156404
0.0164275
0.0171706
0.0177308
0.0177958
0.0166774
0.0136368
0.00716895
-0.00703382
-0.0319587
-0.0729814
-0.124463
-0.179218
-0.22731
-0.237453
-0.195366
-0.136785
-0.0771101
-0.0261725
0.00818452
0.0307961
0.0418733
0.0428352
0.0392099
0.0354269
0.0319856
0.0291898
0.0270615
0.0254314
0.0241879
0.023264
0.0226276
0.0222072
0.0219658
0.0218967
0.0157208
0.0159022
0.0162586
0.016763
0.0174003
0.0181394
0.0189255
0.0196595
0.0202671
0.0205541
0.0201356
0.0181677
0.0142485
0.00545223
-0.00946754
-0.0354249
-0.0704389
-0.106795
-0.135232
-0.14687
-0.1361
-0.108179
-0.0702727
-0.0297564
0.00269679
0.0242971
0.0368386
0.040876
0.0391363
0.036071
0.0329664
0.0304134
0.0283697
0.026731
0.0254581
0.0245099
0.0238382
0.0233839
0.0231038
0.0229499
0.0176806
0.0179148
0.018292
0.0188106
0.0194656
0.0202408
0.021112
0.0220323
0.0229284
0.0237282
0.0241046
0.0236921
0.0219495
0.0182404
0.0101399
-0.00602223
-0.0306472
-0.0593123
-0.0825847
-0.100314
-0.108488
-0.0989728
-0.0751603
-0.0428896
-0.0128678
0.00957362
0.0240043
0.0314327
0.0334509
0.0327852
0.0313737
0.0298047
0.0283107
0.0270037
0.0259444
0.0251126
0.0244832
0.0240252
0.0237243
0.0235787
0.019344
0.0195683
0.0199107
0.0204107
0.021077
0.0219146
0.0229269
0.0240943
0.0253883
0.0266662
0.0276578
0.0279533
0.0267199
0.0230192
0.0168664
0.00549254
-0.0152127
-0.0428622
-0.0740594
-0.0992366
-0.111213
-0.109738
-0.0921876
-0.0660303
-0.0383703
-0.0143517
0.00490523
0.0182857
0.0247382
0.0272174
0.0279415
0.027709
0.0271121
0.0264351
0.0257744
0.0251822
0.0246975
0.0243328
0.0240883
0.0239564
0.020642
0.0207431
0.0210805
0.0216074
0.0223206
0.0232243
0.0243376
0.0256638
0.0271994
0.0287442
0.0301292
0.0309038
0.0298462
0.0254925
0.0160062
0.00061986
-0.0227763
-0.0544217
-0.0924087
-0.126541
-0.146459
-0.14682
-0.130883
-0.103913
-0.0698124
-0.0376303
-0.0108818
0.00745592
0.0171335
0.0222126
0.0245298
0.0253614
0.0256542
0.0256003
0.0253434
0.0250264
0.0247288
0.0244768
0.0242826
0.024159
0.0216188
0.0216646
0.0219629
0.0224691
0.0231793
0.02409
0.025209
0.026533
0.028066
0.0296858
0.0310392
0.0329871
0.0319318
0.0270889
0.0156216
-0.00479195
-0.0331684
-0.0694635
-0.114474
-0.156019
-0.183783
-0.18429
-0.159608
-0.12785
-0.0851362
-0.0475639
-0.0177232
0.00131213
0.0126411
0.0189027
0.0221496
0.0237748
0.0245777
0.0248199
0.0248471
0.0247458
0.0245908
0.0244357
0.0243027
0.0241995
0.0223039
0.0224236
0.0226854
0.0231129
0.0237332
0.0245471
0.0255568
0.0267622
0.0281793
0.0297837
0.0311612
0.0325028
0.0307853
0.0244121
0.0128584
-0.00613272
-0.0326964
-0.0671316
-0.108983
-0.146009
-0.17294
-0.16862
-0.143512
-0.111669
-0.0744392
-0.0427681
-0.0171949
0.000263515
0.0114451
0.0177064
0.0211327
0.0229749
0.0239187
0.0243315
0.0244719
0.0244758
0.0244061
0.0243218
0.0242464
0.0241873
0.0225766
0.0227492
0.0230128
0.0233925
0.0239192
0.0246052
0.0254593
0.026464
0.0276407
0.0289319
0.0299104
0.0300297
0.0270659
0.0196431
0.00722631
-0.0104554
-0.0335149
-0.0619967
-0.089766
-0.111635
-0.124735
-0.118626
-0.100736
-0.0755529
-0.0494329
-0.0266153
-0.00743239
0.00563996
0.0139571
0.0187705
0.0214973
0.0230203
0.0238119
0.0242208
0.0243749
0.0243997
0.0243456
0.0242694
0.0241988
0.0241639
0.0224774
0.0225957
0.0228234
0.0231566
0.0235946
0.0241363
0.0247812
0.0254909
0.0261885
0.0266705
0.0266535
0.0250782
0.0205885
0.0118168
-0.00180031
-0.0194201
-0.039905
-0.0621476
-0.0796792
-0.0881248
-0.086561
-0.0787173
-0.0649482
-0.0450841
-0.0261201
-0.00881006
0.00459263
0.0132979
0.018264
0.0210878
0.0226646
0.023588
0.0240756
0.0243297
0.0244098
0.0244002
0.0243413
0.0242669
0.0242014
0.0241518
0.0221835
0.0222411
0.0223844
0.0226109
0.022907
0.0232385
0.0235667
0.0238076
0.0237965
0.0231644
0.0215304
0.0177514
0.0107483
0.00011822
-0.0140597
-0.0311341
-0.0491274
-0.0666692
-0.0790319
-0.0820126
-0.0762258
-0.0633812
-0.0465961
-0.0273453
-0.00985243
0.00430065
0.0135467
0.0190402
0.0218459
0.0233391
0.0241021
0.0244048
0.0244964
0.0244792
0.0244037
0.0243167
0.0242356
0.0241647
0.024112
0.0240547
0.0218031
0.0218344
0.0219309
0.0220566
0.0221834
0.0222621
0.0222248
0.0219426
0.0212408
0.0196426
0.016353
0.0103563
6.72766e-05
-0.0140255
-0.0310556
-0.0501043
-0.0676386
-0.0829664
-0.0933005
-0.094258
-0.086341
-0.0676332
-0.0444455
-0.0222858
-0.00402703
0.00923615
0.0170767
0.0218865
0.0243884
0.0253383
0.0255154
0.025264
0.0249203
0.0245986
0.0243308
0.0241213
0.023958
0.0238424
0.023773
0.0237925
0.0213679
0.0214358
0.0214871
0.0215182
0.0214884
0.0213586
0.0210492
0.0203919
0.0191714
0.0169411
0.0128156
0.00576191
-0.00606288
-0.0232984
-0.0452172
-0.0691284
-0.0909875
-0.107013
-0.119008
-0.120057
-0.104764
-0.0796342
-0.0514787
-0.0270422
-0.00704104
0.00778911
0.0179955
0.0238286
0.0262978
0.0267504
0.0262409
0.0256478
0.0250363
0.0245234
0.0241278
0.0238255
0.0236041
0.0234718
0.0234219
0.0234657
0.020876
0.0209544
0.0209652
0.0209377
0.0208286
0.0206081
0.020174
0.0193745
0.0179242
0.0154372
0.0111748
0.00400329
-0.00718289
-0.0234759
-0.0447985
-0.0693783
-0.0941653
-0.112727
-0.127711
-0.130019
-0.110203
-0.0840137
-0.0536432
-0.029089
-0.00841271
0.00686384
0.0171738
0.0229707
0.0258198
0.0264101
0.0258687
0.0253005
0.0246801
0.0241612
0.0237729
0.0234749
0.0232674
0.0231452
0.0230871
0.0230748
0.020378
0.0204033
0.0204044
0.0203735
0.0202722
0.0200558
0.0196538
0.0189376
0.0176751
0.0155221
0.0118254
0.00579888
-0.00347521
-0.0163501
-0.0323958
-0.0516577
-0.0729322
-0.0903403
-0.103671
-0.107186
-0.0939895
-0.0740009
-0.0506759
-0.0287286
-0.0104565
0.00365331
0.0134151
0.0197194
0.0232579
0.0246037
0.0246142
0.0242774
0.0238363
0.0234537
0.023152
0.0229189
0.0227462
0.0226287
0.0225444
0.0224761
0.0199962
0.019988
0.019996
0.019987
0.0199286
0.0197768
0.0194894
0.0189884
0.018142
0.0166832
0.0142107
0.010138
0.00366983
-0.00575094
-0.0175374
-0.0315388
-0.0468964
-0.0612386
-0.0706956
-0.0749834
-0.0732732
-0.0638743
-0.0494387
-0.0320374
-0.0165031
-0.00344389
0.00707122
0.0146745
0.0192885
0.0216073
0.0224651
0.0225959
0.0224935
0.0223226
0.0221552
0.0220085
0.0218892
0.0217953
0.0217222
0.0216651
0.0197331
0.0197472
0.0197487
0.0197387
0.0197116
0.0196423
0.0195054
0.0192573
0.0188253
0.0181186
0.0169151
0.0147576
0.0108198
0.00414164
-0.00494247
-0.0162008
-0.0285418
-0.0414099
-0.0514604
-0.0588336
-0.0624684
-0.0595745
-0.0503082
-0.037168
-0.0240404
-0.0116717
-0.000878077
0.00770909
0.0135945
0.0172733
0.019268
0.0202184
0.0206768
0.0208403
0.020872
0.0208518
0.0208174
0.0207889
0.0207801
0.020787
0.019385
0.019398
0.0194124
0.0194308
0.0194603
0.0195004
0.0195487
0.0195809
0.0195696
0.0194369
0.0189904
0.0179848
0.0158962
0.0116215
0.00408875
-0.00670839
-0.0200358
-0.0346057
-0.0483127
-0.0586095
-0.0636562
-0.063895
-0.0571409
-0.046399
-0.034425
-0.0220953
-0.0105489
-0.000801488
0.00682951
0.0123553
0.0157581
0.0176612
0.0187179
0.0192767
0.0195707
0.0197195
0.0197883
0.0198229
0.0198503
0.0198903
0.0189335
0.0188855
0.018907
0.0189679
0.019077
0.0192371
0.0194493
0.0197398
0.02011
0.0204356
0.020574
0.0200565
0.0180967
0.0140932
0.00682705
-0.00398691
-0.018303
-0.0350924
-0.0521461
-0.067394
-0.0770303
-0.0778233
-0.072206
-0.0621587
-0.0497762
-0.0356925
-0.0213726
-0.00862953
0.00142726
0.00857289
0.0129585
0.0154927
0.0170104
0.0178935
0.0184338
0.018747
0.0189118
0.0189921
0.0190248
0.0190405
0.0184844
0.0184398
0.01845
0.018515
0.0186463
0.0188526
0.0191312
0.0195086
0.0200723
0.0205428
0.0210332
0.0206554
0.0184785
0.0140839
0.00644764
-0.00452438
-0.018986
-0.0361335
-0.0563206
-0.0754714
-0.0899756
-0.0917283
-0.084206
-0.073632
-0.0586111
-0.0422492
-0.0257323
-0.0114267
-0.000704883
0.00661769
0.0112535
0.0140719
0.0157805
0.0168527
0.0174801
0.0178959
0.0181363
0.0182684
0.0183186
0.0182623
0.0179485
0.0179632
0.0179991
0.0180652
0.01818
0.0183553
0.0185982
0.0189211
0.019314
0.019616
0.0197656
0.0188704
0.0165459
0.0123007
0.00503305
-0.00547081
-0.0191261
-0.0353502
-0.0539506
-0.0712668
-0.0851017
-0.0855255
-0.0771969
-0.0661418
-0.0510691
-0.0354027
-0.020897
-0.00896817
7.50639e-05
0.00655112
0.0108831
0.0135437
0.0151341
0.0161338
0.016753
0.0171451
0.0173849
0.0175073
0.0175606
0.0175215
0.017227
0.0172755
0.0173225
0.017376
0.0174467
0.0175458
0.017671
0.0178094
0.0179552
0.0178592
0.0172243
0.0155398
0.0123587
0.00731585
6.29082e-05
-0.00966772
-0.0216253
-0.0352015
-0.0481281
-0.0585097
-0.0647572
-0.0633659
-0.0565528
-0.0465474
-0.0342963
-0.0222627
-0.011807
-0.00307347
0.0037444
0.0086441
0.011882
0.0138661
0.0150619
0.0158045
0.0162676
0.0165557
0.0167216
0.0168032
0.0168435
0.0168633
0.0163879
0.0163946
0.0164008
0.0164065
0.016408
0.0163975
0.0163568
0.0162126
0.0159114
0.0152243
0.0136975
0.0109244
0.00650543
0.000299866
-0.00750605
-0.0166552
-0.0264971
-0.0367979
-0.0448001
-0.0494266
-0.0485171
-0.0444328
-0.0376235
-0.0286637
-0.0194587
-0.0104095
-0.00276981
0.00362667
0.00840906
0.0115734
0.0134914
0.0146027
0.0152926
0.0157388
0.0160167
0.0161897
0.0162892
0.0163413
0.01637
0.0163988
0.0155266
0.0154819
0.0154311
0.015374
0.0152944
0.0151567
0.0149073
0.0144306
0.0135506
0.0120455
0.00948907
0.00552131
6.39072e-05
-0.00691624
-0.0151701
-0.0241859
-0.0331938
-0.0413326
-0.0462439
-0.0465228
-0.0437212
-0.0376404
-0.0288228
-0.0190285
-0.00957124
-0.00132054
0.00508578
0.00976931
0.0126371
0.0141707
0.014959
0.0153748
0.0156169
0.0157746
0.0158718
0.015934
0.0159769
0.0160099
0.01603
0.0160188
0.0146916
0.0146366
0.0145815
0.0144951
0.0143417
0.0140675
0.0136038
0.0128329
0.0114679
0.00914786
0.00535628
-0.000102478
-0.00717
-0.0157456
-0.0252513
-0.0349201
-0.0437679
-0.0508283
-0.0543402
-0.0525981
-0.047199
-0.03804
-0.0265303
-0.0147066
-0.00404947
0.00441803
0.0102893
0.0137255
0.0153107
0.015941
0.0160866
0.0160059
0.0158763
0.0157482
0.0156561
0.0155916
0.0155521
0.0155288
0.0155192
0.0155354
0.0139533
0.0139585
0.0139066
0.0137877
0.0135631
0.0131784
0.0125427
0.0115656
0.00991712
0.00722904
0.00282377
-0.00375384
-0.012601
-0.0234913
-0.0350268
-0.046083
-0.0559424
-0.0628153
-0.066734
-0.0641531
-0.0530533
-0.0400463
-0.0255732
-0.0125724
-0.00186077
0.00629451
0.0117915
0.0148795
0.0165601
0.0169386
0.0166401
0.0162113
0.0157888
0.0154735
0.0152487
0.0150941
0.0149984
0.0149541
0.0149532
0.0150059
0.0132947
0.0133491
0.0132971
0.013161
0.0129033
0.0124876
0.0118192
0.0107833
0.00905813
0.00640331
0.00210642
-0.00418043
-0.0126872
-0.0236396
-0.035959
-0.0478561
-0.0585444
-0.065725
-0.0701721
-0.0674586
-0.0546097
-0.0399397
-0.0248225
-0.0120552
-0.00179958
0.00594623
0.0112831
0.0143212
0.0159444
0.0164148
0.0161398
0.015745
0.0153292
0.0149924
0.0147563
0.0145942
0.0145
0.0144591
0.0144552
0.0144803
0.0126784
0.0126984
0.0126514
0.0125409
0.0123357
0.011999
0.011458
0.0105832
0.00915439
0.00690594
0.00342379
-0.00165797
-0.00818318
-0.016635
-0.026558
-0.0368879
-0.0469321
-0.0540216
-0.0582743
-0.0568967
-0.0484565
-0.0373337
-0.0252199
-0.0141822
-0.00477975
0.00266711
0.00800235
0.011386
0.0133608
0.0143556
0.0146438
0.0146146
0.01442
0.0142374
0.0140961
0.013995
0.0139306
0.0138912
0.0138634
0.01384
0.0121804
0.0121514
0.0121206
0.0120588
0.0119391
0.0117299
0.0113883
0.0108341
0.00989515
0.00838608
0.00603811
0.00253837
-0.00208502
-0.00794741
-0.0149015
-0.0226018
-0.030195
-0.036556
-0.0408784
-0.0421451
-0.040309
-0.034689
-0.0270959
-0.0187203
-0.0107981
-0.00380809
0.00187087
0.00619372
0.00924635
0.0112012
0.0123138
0.0128134
0.0129939
0.013062
0.0130843
0.0130914
0.0130934
0.0130895
0.013076
0.0130503
0.011856
0.0118412
0.0118192
0.0117842
0.011722
0.0116235
0.011463
0.0112169
0.0108061
0.0100998
0.00883261
0.00672015
0.00358796
-0.000531983
-0.00557547
-0.0116117
-0.0181663
-0.0246082
-0.0302365
-0.0341601
-0.0353925
-0.0341618
-0.0302234
-0.0241386
-0.0173321
-0.0106541
-0.00464719
0.000480842
0.00452055
0.00746228
0.00942812
0.0105671
0.0112325
0.011625
0.0118479
0.0119803
0.0120667
0.01213
0.0121779
0.0122078
0.0115395
0.0115551
0.0115516
0.0115487
0.0115466
0.0115518
0.0115582
0.011565
0.0115359
0.0114285
0.0110953
0.0102915
0.00852956
0.0054402
0.000967064
-0.00495896
-0.0122182
-0.0199655
-0.0271442
-0.0326228
-0.0359461
-0.037871
-0.0363146
-0.0316144
-0.0252151
-0.0182897
-0.0115093
-0.00540216
-0.000350742
0.00361121
0.00649273
0.00840057
0.00958187
0.0102897
0.0107074
0.0109592
0.011117
0.0112257
0.0113101
0.0113766
0.011122
0.0110934
0.0111075
0.0111487
0.0112178
0.0113221
0.0114898
0.011708
0.0119671
0.0122602
0.0124962
0.0122559
0.0112126
0.00902902
0.00509498
-0.000680219
-0.00823491
-0.0175224
-0.0271403
-0.0352231
-0.0420839
-0.0458889
-0.0452818
-0.0411705
-0.0347941
-0.0271901
-0.0191085
-0.0114457
-0.00480161
0.000472008
0.00425781
0.00675331
0.00829292
0.00923481
0.00981323
0.0101699
0.0103839
0.0105068
0.0105772
0.0106274
0.0106827
0.0106365
0.010633
0.0106695
0.0107606
0.0109137
0.0111456
0.0114627
0.011889
0.0122935
0.012811
0.0126583
0.0117088
0.0100481
0.00668191
0.00154052
-0.00556556
-0.0152725
-0.0264237
-0.0371256
-0.047111
-0.0523771
-0.0519475
-0.0474248
-0.0407202
-0.0324147
-0.0230707
-0.0143289
-0.00672404
-0.0009946
0.0030412
0.00574409
0.00741797
0.0084723
0.0091327
0.00955314
0.00981719
0.00996092
0.010023
0.00999422
0.0102166
0.0102052
0.0102117
0.010243
0.0103157
0.010439
0.0106258
0.0108759
0.0111878
0.0114154
0.0116046
0.0113203
0.0102976
0.00844955
0.00520216
0.000286379
-0.00627483
-0.0149959
-0.0252963
-0.035521
-0.0442647
-0.0487636
-0.047844
-0.0428125
-0.0362367
-0.0281263
-0.0197067
-0.011844
-0.0054142
-0.000564307
0.00305585
0.00551149
0.00702602
0.00802187
0.00865322
0.00904997
0.00929555
0.00942809
0.00948347
0.00943903
0.00963395
0.00965704
0.00967579
0.00969339
0.00971931
0.00975789
0.00980464
0.00985683
0.00986136
0.00968127
0.00917871
0.00813656
0.00642351
0.00379563
4.96806e-05
-0.00489214
-0.0109105
-0.0173954
-0.0243475
-0.0308137
-0.0351195
-0.0365803
-0.0347404
-0.0304351
-0.0246594
-0.0182059
-0.0118567
-0.00626769
-0.00183573
0.0017262
0.00437614
0.0061041
0.00722969
0.00794359
0.00838364
0.00865375
0.00881425
0.00889894
0.00893944
0.00894275
0.00894721
0.0089528
0.00893957
0.00890646
0.00885046
0.00876695
0.00862331
0.00838367
0.0079758
0.00723214
0.00591406
0.00389777
0.00114956
-0.00240641
-0.00664446
-0.0114882
-0.0166852
-0.0214001
-0.0250297
-0.0270429
-0.0276979
-0.0258444
-0.0224447
-0.01829
-0.013474
-0.00870828
-0.00436858
-0.000705686
0.00222942
0.00455526
0.00613359
0.00710226
0.00770878
0.00807549
0.00830632
0.00843894
0.00851118
0.00854867
0.00857014
0.00859986
0.00824444
0.00819745
0.00812471
0.00802717
0.00788975
0.00768372
0.00735207
0.00681722
0.00595957
0.00460417
0.00258032
-0.000243984
-0.00388826
-0.00831266
-0.0132829
-0.0183697
-0.023207
-0.0267626
-0.027814
-0.026505
-0.0244959
-0.021071
-0.0165
-0.011511
-0.00648422
-0.00207767
0.00142841
0.00403058
0.00590829
0.00709608
0.00771018
0.00802815
0.00816907
0.00824964
0.00830701
0.00833834
0.00835969
0.00837584
0.00838809
0.00838305
0.00757681
0.00750804
0.00741952
0.00729529
0.00710743
0.00680914
0.00633107
0.00554695
0.00427081
0.0022985
-0.000520442
-0.00429309
-0.00907985
-0.0146838
-0.0206792
-0.0263426
-0.031054
-0.0337943
-0.0335218
-0.0299095
-0.0252949
-0.0198373
-0.0135756
-0.00739354
-0.0017731
0.00260756
0.00575741
0.00766397
0.00866622
0.00887919
0.00878427
0.00864306
0.00848355
0.00834837
0.00825096
0.00818743
0.00814963
0.00812539
0.00811264
0.00810342
0.00701198
0.006981
0.00691329
0.00678451
0.00656002
0.00619042
0.00562255
0.00468535
0.00317561
0.000792603
-0.00266988
-0.00740158
-0.013422
-0.0202227
-0.0272172
-0.0336559
-0.0383462
-0.0410925
-0.0402466
-0.0346875
-0.0270874
-0.0191857
-0.0109097
-0.00356523
0.00195206
0.00582564
0.00823138
0.00938034
0.00981669
0.00962909
0.00925553
0.00884431
0.00847315
0.00818696
0.00798054
0.00784224
0.00776139
0.0077139
0.00770101
0.00773744
0.00656152
0.00659605
0.00654366
0.00640696
0.00615996
0.00576228
0.00516865
0.00419919
0.00268276
0.000273381
-0.00317869
-0.00785847
-0.0140182
-0.0210205
-0.0281035
-0.0345547
-0.039139
-0.0421108
-0.0414773
-0.0355612
-0.0273603
-0.0184692
-0.0096619
-0.00226581
0.00285276
0.00624678
0.00819827
0.00909838
0.00941766
0.00923594
0.00887747
0.00848049
0.00808788
0.00779213
0.00757741
0.00743695
0.00735887
0.00733179
0.00733674
0.00736983
0.00618095
0.00621416
0.00616822
0.00605585
0.00585023
0.00551832
0.00500125
0.00419153
0.00294064
0.00102946
-0.00173518
-0.00536983
-0.010046
-0.0156153
-0.0214926
-0.0271397
-0.0315073
-0.0343576
-0.0345203
-0.0309005
-0.0251003
-0.0182072
-0.0114336
-0.00559719
-0.000900246
0.00260145
0.00497973
0.00645688
0.00724681
0.00756766
0.00763278
0.00752967
0.00735611
0.00720562
0.0070934
0.00701891
0.00697569
0.0069564
0.0069483
0.00694478
0.00586023
0.00584721
0.00581856
0.00576217
0.00565197
0.00545939
0.00514805
0.00464264
0.00383316
0.00263494
0.000867379
-0.00152849
-0.00454129
-0.00820267
-0.0123093
-0.0164501
-0.0201533
-0.0230074
-0.0246787
-0.0243842
-0.0222327
-0.0188246
-0.0150719
-0.0110584
-0.00700289
-0.00349977
-0.000537932
0.0018103
0.00354472
0.00479619
0.00558131
0.00599324
0.00619569
0.00629971
0.00635474
0.00638987
0.00641302
0.00642357
0.00641953
0.00640183
0.00567314
0.00565476
0.00564308
0.00562681
0.00558827
0.00552303
0.00541424
0.00522716
0.00489862
0.00432672
0.00341049
0.00203733
0.000250292
-0.00202789
-0.00489471
-0.00823906
-0.0117833
-0.0151068
-0.0179808
-0.0198361
-0.0206209
-0.0206874
-0.0195347
-0.0168196
-0.0132163
-0.00953781
-0.00600761
-0.00291393
-0.000337835
0.00168862
0.00314887
0.00412573
0.00474504
0.00513721
0.00538805
0.0055528
0.0056653
0.00573913
0.00578286
0.0058018
0.00556371
0.00557401
0.00557614
0.00558089
0.00558887
0.00561079
0.00564936
0.00569108
0.00571634
0.00566951
0.00550906
0.0050309
0.00400941
0.00241782
3.79995e-05
-0.00316854
-0.00698132
-0.0109221
-0.0146661
-0.0182788
-0.0214284
-0.0241098
-0.0248679
-0.0232491
-0.0199806
-0.0158446
-0.0114691
-0.00736334
-0.00384866
-0.00111112
0.000945737
0.00242589
0.00343126
0.00408033
0.00449288
0.00476128
0.00494283
0.00507274
0.00516706
0.00522909
0.00537743
0.0053733
0.00539013
0.00542491
0.00548466
0.00558261
0.00572742
0.00591094
0.00616507
0.00645492
0.00675011
0.00693234
0.00662432
0.00572612
0.00394983
0.00114323
-0.00280774
-0.00767485
-0.0131166
-0.0188989
-0.024305
-0.0289028
-0.0307406
-0.0299124
-0.0266912
-0.0220803
-0.0168511
-0.0116832
-0.00709335
-0.00341895
-0.000721967
0.00122957
0.00255177
0.00337664
0.0038959
0.00422584
0.00443655
0.00457266
0.00466176
0.00472338
0.00513086
0.00509557
0.0050985
0.00513145
0.00520738
0.00533479
0.00552502
0.00578293
0.00613579
0.00656022
0.00701725
0.00744637
0.00766473
0.00737824
0.00626005
0.00410679
0.000415406
-0.00511598
-0.0117988
-0.0189266
-0.0262004
-0.0317521
-0.0340862
-0.033543
-0.030067
-0.0253756
-0.0197709
-0.0140069
-0.00881004
-0.00458119
-0.00154365
0.000628814
0.0020813
0.00294878
0.00353464
0.00390757
0.00413441
0.00426466
0.00432681
0.00433518
0.00489017
0.00486384
0.00485282
0.00486377
0.00490964
0.00499723
0.00515072
0.0053539
0.00562845
0.00593738
0.00622669
0.00647781
0.00652069
0.00607924
0.00485972
0.00273061
-0.000786849
-0.00576559
-0.0118515
-0.0182388
-0.0243849
-0.028907
-0.0307077
-0.0298518
-0.0263694
-0.0222086
-0.0171703
-0.0121669
-0.00762024
-0.00397098
-0.00132723
0.000649589
0.00194449
0.00278879
0.00334372
0.00369571
0.00392215
0.00404552
0.00409894
0.00406603
0.00458777
0.00459041
0.00458711
0.0045822
0.00458291
0.00459351
0.00461979