/*--------------------------------*- C++ -*----------------------------------*\
| =========                 |                                                 |
| \\      /  F ield         | OpenFOAM: The Open Source CFD Toolbox           |
|  \\    /   O peration     | Version:  v2106                                 |
|   \\  /    A nd           | Website:  www.openfoam.com                      |
|    \\/     M anipulation  |                                                 |
\*---------------------------------------------------------------------------*/
FoamFile
{
    version     2.0;
    format      ascii;
    arch        "LSB;label=32;scalar=64";
    class       volScalarField;
    location    "0";
    object      p;
}
// * * * * * * * * * * * * * * * * * * * * * * * * * * * * * * * * * * * * * //

dimensions      [0 2 -2 0 0 0 0];

internalField   nonuniform List<scalar> 
11644
(
0.0767464
0.0771236
0.0779107
0.0791115
0.0807157
0.082712
0.0850852
0.08781
0.0908487
0.0941441
0.0976138
0.101153
0.104621
0.107819
0.110558
0.11263
0.113755
0.113833
0.112832
0.110603
0.107053
0.102275
0.0965055
0.0900044
0.0829862
0.0756963
0.0683831
0.061256
0.0544989
0.048225
0.0425194
0.0374358
0.0329879
0.0291724
0.0259726
0.0233629
0.0213169
0.0198142
0.0188446
0.0183835
0.0760772
0.0764548
0.0772329
0.0784221
0.0800215
0.0820257
0.0844257
0.0872038
0.09033
0.0937555
0.0974105
0.101183
0.104921
0.108458
0.111553
0.113949
0.115432
0.115795
0.114912
0.112674
0.109095
0.104173
0.0980234
0.0909873
0.0834289
0.0756579
0.0679445
0.0605074
0.0535068
0.0470906
0.0413236
0.0362289
0.0318094
0.0280459
0.0249103
0.0223702
0.0203931
0.0189506
0.0180168
0.0175634
0.074633
0.0750267
0.0758124
0.0769978
0.078596
0.080617
0.0830643
0.085936
0.0892198
0.0928889
0.0968868
0.101125
0.105473
0.10971
0.11359
0.116843
0.119163
0.120214
0.119742
0.1175
0.113575
0.108047
0.101085
0.0930186
0.0843256
0.0755029
0.0669019
0.0588001
0.0513732
0.0447057
0.0388365
0.033751
0.0294102
0.0257668
0.0227666
0.0203594
0.0184987
0.0171408
0.0162484
0.015803
0.0724223
0.0728237
0.0736145
0.0747983
0.0763953
0.0784311
0.080929
0.0839103
0.0873927
0.0913796
0.0958599
0.100782
0.106001
0.111343
0.116529
0.121207
0.12494
0.127265
0.127686
0.125715
0.121285
0.114555
0.105933
0.0960093
0.0855634
0.0750633
0.0650391
0.0559156
0.0478425
0.0408663
0.0349202
0.0299128
0.0257428
0.0223099
0.0195288
0.0173236
0.0156313
0.014398
0.0135828
0.0131726
0.0694812
0.0698661
0.0706348
0.0717915
0.0733626
0.0753851
0.0779036
0.0809682
0.0846318
0.0889492
0.0939519
0.0996021
0.105863
0.112618
0.11964
0.126514
0.132599
0.137338
0.139511
0.138293
0.133269
0.124716
0.113273
0.100123
0.0870112
0.0739499
0.0618681
0.0513432
0.0424908
0.035225
0.0293403
0.0245725
0.0207258
0.0176459
0.0152046
0.0133018
0.0118582
0.0108149
0.0101307
0.00978842
0.065827
0.0661847
0.066895
0.0679793
0.0694673
0.0714059
0.073859
0.0769086
0.0806537
0.085164
0.0904676
0.0966622
0.103897
0.112388
0.122068
0.132237
0.142169
0.151263
0.156889
0.157362
0.151553
0.139756
0.123713
0.105394
0.0879096
0.071005
0.0563664
0.0443851
0.0348268
0.0274268
0.0218125
0.0175536
0.0142918
0.0117781
0.00984999
0.00838773
0.0073038
0.00653511
0.00604151
0.00579972
0.0615246
0.0618215
0.0624324
0.0633781
0.0646957
0.0664398
0.0686859
0.0715408
0.0751128
0.0794408
0.0846493
0.0910205
0.0989749
0.109102
0.121986
0.136919
0.146934
0.161954
0.173562
0.17884
0.174735
0.160928
0.140181
0.116806
0.085867
0.0640361
0.0465586
0.0334487
0.0240188
0.0170929
0.0121757
0.00878083
0.0064491
0.00479131
0.00359849
0.00274355
0.00214168
0.00173466
0.00148078
0.00135632
0.0566196
0.0568487
0.0573165
0.0580472
0.0590873
0.06049
0.0623335
0.0647232
0.0677175
0.0713678
0.0759579
0.0819536
0.0897433
0.0997701
0.113746
0.132131
0.156392
0.181339
0.205073
0.219102
0.215651
0.193349
0.158437
0.120985
0.0847863
0.0586461
0.0389384
0.017098
0.00899086
0.00371425
0.000383056
-0.00158773
-0.00260551
-0.00309083
-0.0033209
-0.00340534
-0.00341526
-0.00339118
-0.00335912
-0.00333544
0.0512209
0.0513577
0.0516368
0.0520904
0.0527404
0.0536368
0.0548472
0.0564426
0.058432
0.0609248
0.0641861
0.0686316
0.0750417
0.0874244
0.102063
0.123138
0.150538
0.192318
0.236262
0.272862
0.277814
0.242174
0.183572
0.120758
0.0747758
0.0341859
0.0146793
-0.00686718
-0.0108026
-0.0127991
-0.0134357
-0.0132112
-0.0124655
-0.0114932
-0.0105649
-0.00974996
-0.00907995
-0.00856915
-0.00822395
-0.00805131
0.0455087
0.0455186
0.0455655
0.0456559
0.0458061
0.0460496
0.0464192
0.046926
0.0475263
0.0483274
0.0495048
0.0511128
0.0532762
0.0643509
0.0735303
0.0942835
0.125795
0.179206
0.262729
0.358863
0.393134
0.316926
0.192145
0.0929535
0.0253944
-0.015529
-0.0254399
-0.0378337
-0.0349239
-0.0319048
-0.0286684
-0.0254879
-0.0225458
-0.019901
-0.0176822
-0.0159024
-0.0145231
-0.0135138
-0.0128481
-0.0125171
0.0396174
0.0395087
0.0393053
0.0389938
0.0385812
0.0380554
0.0374207
0.0366206
0.0355185
0.0340569
0.032205
0.0299023
0.0262609
0.0300665
0.0291849
0.0351423
0.0479982
0.0770368
0.175382
0.409803
0.588448
0.339936
0.0677412
-0.0506814
-0.087116
-0.0926272
-0.0803636
-0.0735968
-0.0616991
-0.0520049
-0.0439653
-0.0373915
-0.0320377
-0.0276476
-0.0241406
-0.0214294
-0.0193784
-0.0178995
-0.0169402
-0.0164457
0.0337962
0.0335654
0.0330944
0.032385
0.031394
0.0300605
0.028352
0.0261328
0.023181
0.0192455
0.013881
0.00678405
-0.00294112
-0.00688756
-0.0240798
-0.0416353
-0.0775655
-0.160765
-0.39164
-0.662513
-0.372315
-0.249836
-0.184653
-0.139111
-0.108924
-0.0866409
-0.0698758
-0.0572059
-0.0474758
-0.0399003
-0.0339615
-0.0293538
-0.0258554
-0.0232458
-0.0213999
-0.0202186
-0.0196711
0.0282751
0.0279655
0.0272731
0.0261905
0.0246612
0.0225824
0.0198421
0.0162641
0.011584
0.00543697
-0.00286663
-0.0140878
-0.0292221
-0.038703
-0.0679736
-0.101051
-0.163103
-0.28269
-0.396027
-0.881393
-0.59387
-0.3701
-0.25169
-0.183657
-0.131894
-0.103094
-0.0816522
-0.0659051
-0.0540446
-0.0449997
-0.0380652
-0.0327659
-0.0287738
-0.0258182
-0.0237505
-0.0224464
-0.021825
0.0233228
0.022923
0.022096
0.0207551
0.0188021
0.0161271
0.0125247
0.00787004
0.00188366
-0.00583506
-0.0159261
-0.0293067
-0.0468475
-0.0608084
-0.0904611
-0.123651
-0.175194
-0.250356
-0.294037
-0.688976
-0.569892
-0.391437
-0.265969
-0.195649
-0.136054
-0.106499
-0.084394
-0.0681245
-0.0557777
-0.0464376
-0.0393475
-0.0339333
-0.0298403
-0.0268179
-0.0246925
-0.0233657
-0.0227719
0.0192411
0.018902
0.0179349
0.0163725
0.0141136
0.0110777
0.0069616
0.00166769
-0.00496648
-0.013459
-0.0240724
-0.0379433
-0.0554155
-0.0704932
-0.0974312
-0.125055
-0.15736
-0.178433
-0.226134
-0.381956
-0.627138
-0.784993
-0.7325
-0.529357
-0.348745
-0.232973
-0.174343
-0.119801
-0.0956326
-0.0772188
-0.0630646
-0.0522473
-0.0438862
-0.0375539
-0.0326838
-0.0289176
-0.0261316
-0.024171
-0.0229288
-0.0224035
0.016376
0.0158872
0.0148616
0.013219
0.0108551
0.00769651
0.00352837
-0.00185216
-0.00857164
-0.0169944
-0.027481
-0.0407918
-0.0578121
-0.0741368
-0.100695
-0.135588
-0.162401
-0.171696
-0.194835
-0.379479
-0.689702
-0.797057
-0.593795
-0.366608
-0.246029
-0.163209
-0.128648
-0.087851
-0.0731136
-0.0610454
-0.0514677
-0.0438061
-0.0376439
-0.032919
-0.0291732
-0.0261853
-0.023919
-0.022288
-0.0211881
-0.0205954
0.0144967
0.0139175
0.0128791
0.0112937
0.00905649
0.00605752
0.00215176
-0.00285824
-0.0091511
-0.0169887
-0.0267576
-0.039234
-0.055098
-0.0774976
-0.102392
-0.145615
-0.200867
-0.284742
-0.319093
-0.391352
-0.450154
-0.375837
-0.235081
-0.148244
-0.088564
-0.0759513
-0.05226
-0.0498596
-0.0448943
-0.0400613
-0.0358265
-0.032083
-0.0289195
-0.0262386
-0.0238631
-0.021884
-0.0203144
-0.0191277
-0.0183055
-0.0177245
0.0134921
0.013
0.0120348
0.0105709
0.00855596
0.00591443
0.0025109
-0.00185258
-0.00731676
-0.0141267
-0.022664
-0.0338812
-0.0484821
-0.0683485
-0.0958547
-0.142717
-0.212027
-0.344106
-0.464208
-0.504313
-0.43156
-0.237277
-0.0558973
0.00546228
0.016628
0.00205506
-0.00666937
-0.011823
-0.0167455
-0.0188557
-0.0195234
-0.0194599
-0.0191006
-0.0184045
-0.0174653
-0.0165531
-0.0157279
-0.015063
-0.0145995
-0.0143873
0.0132135
0.0128409
0.0120595
0.0108594
0.00921115
0.0070755
0.00437018
0.000916865
-0.00337338
-0.00868407
-0.0153285
-0.0239153
-0.0352455
-0.0509161
-0.0748664
-0.109084
-0.163263
-0.262357
-0.395105
-0.47438
-0.427819
-0.238069
-0.0354915
0.0603553
0.0754263
0.0502177
0.028658
0.0166225
0.00532502
-0.00140801
-0.00562507
-0.00822599
-0.00983516
-0.010666
-0.0110045
-0.0110428
-0.0109085
-0.010741
-0.0106243
-0.0106687
0.0135908
0.0133243
0.0127759
0.0119336
0.010775
0.00929362
0.00745316
0.00520321
0.00245336
-0.00087124
-0.0049763
-0.0100345
-0.0172809
-0.0261674
-0.0445837
-0.0647323
-0.0974754
-0.139991
-0.208543
-0.269949
-0.266641
-0.172846
-0.0452488
0.0458925
0.0766449
0.0624315
0.0426828
0.0287985
0.0172959
0.00931507
0.00374559
-8.25893e-05
-0.00263921
-0.00427067
-0.00536187
-0.00603282
-0.00644205
-0.00669392
-0.00685663
-0.00695045
0.0144876
0.0143474
0.0140393
0.0135561
0.0129126
0.0121308
0.0112506
0.0103285
0.00931027
0.0081237
0.0066416
0.00460727
0.00112543
-0.00312516
-0.0154028
-0.0287933
-0.0519986
-0.077115
-0.109224
-0.143261
-0.15557
-0.12963
-0.0670629
-0.00423013
0.0255677
0.0381133
0.0332364
0.0251103
0.0185049
0.0125781
0.00807746
0.0046935
0.00222812
0.000449512
-0.00086641
-0.00182769
-0.00251136
-0.00298707
-0.00327473
-0.00337867
0.0156976
0.0156438
0.0155191
0.0153618
0.0152005
0.0150835
0.0150883
0.015298
0.0157219
0.0163347
0.0170713
0.0176543
0.0173171
0.0147967
0.0108459
-0.00331025
-0.0205224
-0.0537523
-0.102932
-0.160003
-0.203473
-0.210944
-0.171771
-0.108721
-0.0528029
-0.00628272
0.0123766
0.0131582
0.0134963
0.0113739
0.00919627
0.00714426
0.00535929
0.00387476
0.00266177
0.00171494
0.000997725
0.000485064
0.000178647
5.74552e-05
0.0169793
0.0169461
0.0169816
0.017108
0.0173699
0.017783
0.0184515
0.0194486
0.0208385
0.0227232
0.0250813
0.0277038
0.0296893
0.0299193
0.0266901
0.015653
-0.0163707
-0.074417
-0.161751
-0.262055
-0.339771
-0.339416
-0.265322
-0.184829
-0.103769
-0.0325714
-0.0109019
0.00185342
0.00819933
0.00927484
0.00948007
0.00874953
0.00769468
0.0066172
0.0056461
0.00484436
0.00420287
0.00372832
0.00342776
0.00328729
0.0182339
0.0182472
0.0184223
0.0187545
0.0192856
0.0200372
0.0211334
0.0226093
0.0246182
0.0273152
0.030739
0.0348096
0.0386771
0.0404415
0.0336128
0.0142551
-0.02177
-0.0808241
-0.157271
-0.240048
-0.308005
-0.298692
-0.236068
-0.165094
-0.0967136
-0.0444886
-0.0170736
-0.00113769
0.00630113
0.00934971
0.0105942
0.0105618
0.00998583
0.0092253
0.00843923
0.00772837
0.00713222
0.00667748
0.0063821
0.00624975
0.0193394
0.019453
0.0197049
0.0201303
0.0207747
0.0216938
0.0230015
0.0247199
0.0270041
0.0299605
0.0336893
0.0379954
0.0419829
0.0413323
0.0313145
0.00897385
-0.0260285
-0.0761509
-0.129146
-0.176997
-0.211555
-0.200144
-0.160291
-0.111308
-0.0643548
-0.0297541
-0.00886562
0.00306263
0.00891602
0.0117727
0.012881
0.0129113
0.0124803
0.0118415
0.0111181
0.0104161
0.00981355
0.0093291
0.00899548
0.00885028
0.0201014
0.0202633
0.0205494
0.0210022
0.0216587
0.0225735
0.0238101
0.0254209
0.0274135
0.0298084
0.0325277
0.0349996
0.0359546
0.0304726
0.0189747
-0.0025215
-0.0349804
-0.074644
-0.109415
-0.129759
-0.132757
-0.11802
-0.0912466
-0.0583165
-0.0284008
-0.00777116
0.00405463
0.0109491
0.0143646
0.0158151
0.0160556
0.0156826
0.0150507
0.0143037
0.0135231
0.012792
0.0121692
0.0116753
0.0113084
0.0110922
0.0204902
0.0206286
0.0209059
0.0213239
0.0219026
0.0226305
0.0235219
0.0246117
0.025757
0.0268063
0.027392
0.0267191
0.0229633
0.0126186
-0.00497157
-0.0299034
-0.0583371
-0.0915262
-0.111283
-0.119342
-0.112652
-0.0900603
-0.0628534
-0.0336941
-0.00957798
0.00485496
0.0129721
0.017444
0.019711
0.0200488
0.0195262
0.0185491
0.0175146
0.0164836
0.0155576
0.0147614
0.0141146
0.0136169
0.013265
0.0130078
0.0206553
0.0207793
0.0209972
0.0213067
0.0217017
0.0221456
0.0225861
0.0229474
0.0230496
0.0226499
0.0210678
0.0175029
0.00955063
-0.00574297
-0.0303534
-0.0619241
-0.0978135
-0.129762
-0.150909
-0.15268
-0.139459
-0.10665
-0.0683589
-0.0347779
-0.00856332
0.00740924
0.0166782
0.0215786
0.0236374
0.0234587
0.0224701
0.0210569
0.0196113
0.01831
0.0172063
0.0163044
0.0155903
0.0150625
0.0147172
0.0145574
0.0207003
0.0208019
0.0209455
0.021123
0.0213225
0.0214896
0.0215496
0.0213574
0.0206866
0.0192475
0.0163205
0.010644
-0.00028963
-0.0191437
-0.0490502
-0.0870802
-0.131942
-0.168533
-0.193768
-0.197241
-0.170968
-0.128873
-0.0822122
-0.0446536
-0.0152004
0.00573068
0.0183644
0.0244432
0.026384
0.0256179
0.0243695
0.0226598
0.0210521
0.0196443
0.0184495
0.0174711
0.0167056
0.0161614
0.0158311
0.0157795
0.0206289
0.0206951
0.0207737
0.0208622
0.0209328
0.0209343
0.0208023
0.0203867
0.0194391
0.0176143
0.0141666
0.0076881
-0.0036153
-0.022305
-0.0517021
-0.0888764
-0.133141
-0.170024
-0.200579
-0.205497
-0.173374
-0.132529
-0.0868515
-0.0481536
-0.0179991
0.00477124
0.0182667
0.0253089
0.027619
0.0264991
0.0251058
0.0233412
0.0217815
0.0204423
0.0192886
0.0183496
0.0176279
0.0171285
0.0168287
0.016734
0.0205146
0.0205385
0.0206007
0.0206697
0.0207128
0.0206715
0.0204843
0.0200432
0.0191495
0.0174333
0.0142868
0.0090178
-0.000197923
-0.0151346
-0.0380809
-0.0671023
-0.101059
-0.133166
-0.158994
-0.166403
-0.147139
-0.117972
-0.0826813
-0.0484405
-0.0205542
0.00093983
0.0151514
0.0232778
0.0264511
0.0261072
0.0247946
0.0232417
0.0218653
0.0206813
0.0196662
0.0188487
0.0182273
0.0177908
0.0175014
0.0173156
0.0204617
0.0205081
0.0205626
0.0206211
0.0206616
0.0206453
0.0205075
0.0201681
0.019548
0.018378
0.0163384
0.0129911
0.00703633
-0.00282473
-0.0184355
-0.0389523
-0.0625149
-0.0875389
-0.106064
-0.116153
-0.116126
-0.102167
-0.0793126
-0.0513689
-0.02659
-0.00612653
0.00890208
0.0179692
0.0223897
0.0235598
0.0230858
0.0221931
0.0211853
0.0202695
0.0194416
0.018768
0.0182357
0.0178472
0.0175761
0.017404
0.0203981
0.0204582
0.0205209
0.0205902
0.020656
0.0207094
0.0207185
0.0206368
0.0204364
0.0199007
0.0189512
0.0170584
0.0135763
0.00719387
-0.0033421
-0.0188517
-0.0380478
-0.0598986
-0.0776943
-0.0919535
-0.0989231
-0.0954708
-0.0799768
-0.0582509
-0.0369485
-0.0178853
-0.00249086
0.00869602
0.0155111
0.0188438
0.0198102
0.0200041
0.0196572
0.0191552
0.0186336
0.0181612
0.0177552
0.0174444
0.0172395
0.0171615
0.0201673
0.02019
0.0202621
0.0203742
0.0205276
0.020714
0.020933
0.0211737
0.0213975
0.0214977
0.0213148
0.020226
0.0179393
0.0128589
0.00390174
-0.0107831
-0.0307232
-0.0540553
-0.0775488
-0.0972246
-0.106196
-0.105328
-0.0937674
-0.0762645
-0.0562648
-0.0354713
-0.0167164
-0.00212428
0.0077512
0.0132456
0.015936
0.0171926
0.0176418
0.0177086
0.017596
0.017393
0.0171745
0.0169859
0.016865
0.0168253
0.0198309
0.0197906
0.0198603
0.0200098
0.0202496
0.0205696
0.0209799
0.0214912
0.0220971
0.0226085
0.0229129
0.0223344
0.0198327
0.0142236
0.00439238
-0.0111733
-0.0328435
-0.0593637
-0.0896663
-0.116024
-0.131586
-0.130699
-0.117905
-0.100264
-0.0768623
-0.0515338
-0.0288271
-0.0111803
0.00121396
0.00837917
0.0125242
0.0146321
0.0157597
0.0163448
0.0165958
0.0166607
0.0166327
0.0165622
0.0164922
0.0164266
0.0194335
0.0194191
0.0194943
0.0196555
0.0199237
0.0202957
0.0207638
0.0213687
0.0220829
0.0227425
0.02338
0.0227821
0.0199536
0.0136569
0.00271924
-0.0131979
-0.0363555
-0.0634287
-0.0959155
-0.125987
-0.148021
-0.146449
-0.130606
-0.111003
-0.0844044
-0.0571883
-0.0333517
-0.0148597
-0.00207223
0.00575615
0.0104113
0.0129612
0.0144086
0.0152208
0.0156868
0.0159186
0.0160192
0.016038
0.0160149
0.0159326
0.018873
0.0189372
0.0190425
0.0192014
0.0194389
0.0197593
0.020173
0.0206877
0.0213055
0.0218712
0.0222642
0.0210768
0.0175713
0.0109502
-3.63115e-05
-0.016087
-0.0372353
-0.0624568
-0.0911589
-0.11674
-0.134948
-0.133276
-0.117034
-0.0976388
-0.0717009
-0.0483333
-0.0281285
-0.0123237
-0.00129752
0.00565821
0.009947
0.0123568
0.0137994
0.0145534
0.0150277
0.0152837
0.0154082
0.0154431
0.0154416
0.0154002
0.0180684
0.0181573
0.0182567
0.0183871
0.018566
0.0187938
0.0190815
0.0194
0.0197497
0.0199182
0.0194349
0.0175037
0.0130593
0.00522777
-0.0061645
-0.0212686
-0.0397797
-0.0609366
-0.081125
-0.09551
-0.104303
-0.0991299
-0.0861088
-0.0689265
-0.0500848
-0.0320687
-0.0170491
-0.00531904
0.00270323
0.007734
0.010855
0.0126659
0.0137486
0.014346
0.0146997
0.0148928
0.0149724
0.0149935
0.0149969
0.0149965
0.0170571
0.0170815
0.0171298
0.017204
0.0173018
0.0174094
0.0175009
0.0175317
0.0173741
0.0167097
0.0151202
0.0118249
0.00622488
-0.00246942
-0.0141134
-0.028368
-0.0447297
-0.0619441
-0.0743826
-0.0803452
-0.0774524
-0.0707107
-0.060197
-0.0450232
-0.0300997
-0.0168657
-0.00563344
0.00240243
0.00756717
0.0106352
0.0124448
0.0135068
0.014102
0.0144308
0.0146226
0.0147165
0.0147545
0.0147625
0.0147545
0.0147338
0.0159934
0.0159427
0.0159301
0.0159291
0.0159185
0.0158491
0.0156752
0.0153008
0.0144929
0.0129576
0.0100651
0.00476217
-0.00288061
-0.0132982
-0.025462
-0.0392199
-0.0530269
-0.0666025
-0.0757661
-0.0774253
-0.0728476
-0.0625741
-0.048913
-0.0333271
-0.0189445
-0.00675208
0.00236565
0.00832612
0.0115246
0.013271
0.0141167
0.0144412
0.0145817
0.0146157
0.0146042
0.0145703
0.0145373
0.0144995
0.0144691
0.0144447
0.014996
0.0149643
0.0149239
0.0148485
0.0147059
0.0144375
0.0139785
0.013166
0.0117666
0.0094069
0.00523164
-0.00170206
-0.0117246
-0.0248275
-0.040042
-0.0553586
-0.0695047
-0.0815652
-0.0894159
-0.0892262
-0.0828297
-0.067775
-0.0490167
-0.0311035
-0.0150833
-0.00245477
0.00658861
0.0117224
0.0142317
0.0152502
0.0153595
0.0152045
0.0149338
0.0146631
0.014438
0.0142568
0.014133
0.0140532
0.0140151
0.014034
0.0140672
0.014099
0.0140479
0.0139233
0.0136763
0.0132605
0.0125929
0.0115001
0.00972455
0.00678659
0.00189769
-0.0057739
-0.0172503
-0.0323905
-0.0502509
-0.0681634
-0.0847648
-0.0973036
-0.106685
-0.106609
-0.0918888
-0.0723311
-0.0505114
-0.0309409
-0.0141882
-0.00152127
0.00729456
0.0124157
0.0151744
0.016084
0.015907
0.0154437
0.0149279
0.0144525
0.0141028
0.0138376
0.0136562
0.0135534
0.0135174
0.0135634
0.0131565
0.0132015
0.0131383
0.0129924
0.0127128
0.0122854
0.0115818
0.0104701
0.00868441
0.00574845
0.00110431
-0.00619531
-0.0169884
-0.0313253
-0.048587
-0.0667055
-0.0846147
-0.097485
-0.107822
-0.10811
-0.0913678
-0.0724714
-0.0500333
-0.0310409
-0.0151406
-0.00278035
0.00589491
0.0112636
0.0142724
0.0152873
0.0153001
0.0149259
0.0144024
0.0139794
0.0136358
0.0133752
0.0131914
0.0130797
0.0130217
0.0130133
0.0123217
0.0123091
0.0122516
0.0121378
0.0119235
0.0115766
0.0110119
0.0101271
0.0086519
0.00639711
0.00251215
-0.00326898
-0.0116303
-0.022814
-0.0363595
-0.0513948
-0.0668246
-0.0789969
-0.0882608
-0.0904959
-0.0809743
-0.0672477
-0.0499312
-0.0334981
-0.0191397
-0.00747319
0.00127008
0.00731636
0.0110779
0.0129468
0.0135984
0.0135792
0.0133259
0.0130689
0.0128383
0.0126607
0.0125299
0.0124381
0.0123638
0.0122965
0.0116931
0.0116645
0.0116192
0.0115438
0.0114073
0.0111827
0.0108248
0.0102478
0.0093717
0.00789316
0.00539779
0.00147481
-0.00433136
-0.0120824
-0.0216423
-0.0327892
-0.0446446
-0.0556634
-0.0637618
-0.0682788
-0.0683586
-0.0620631
-0.0514175
-0.0381476
-0.0255354
-0.0144252
-0.0054345
0.00165774
0.00645287
0.00932746
0.0108664
0.011402
0.0115976
0.0116408
0.0116036
0.01155
0.0115046
0.0114603
0.0114274
0.0113822
0.0112133
0.0112146
0.0112007
0.011166
0.0111027
0.0110058
0.0108582
0.0105914
0.0102276
0.00953813
0.00826309
0.00598662
0.00223726
-0.00333141
-0.0108464
-0.0202146
-0.0303013
-0.0413002
-0.0507509
-0.058228
-0.060841
-0.060157
-0.0536827
-0.0434131
-0.0328447
-0.0223065
-0.0129574
-0.00527268
0.000539498
0.00467816
0.00734999
0.00873529
0.00952287
0.00993219
0.01012
0.0102103
0.0102513
0.010275
0.0103015
0.010345
0.0106864
0.0106942
0.0107033
0.0107176
0.0107415
0.0107848
0.0108353
0.010897
0.0109319
0.0108928
0.0103953
0.00932426
0.00686833
0.00231525
-0.00458077
-0.0139616
-0.0253946
-0.0378543
-0.0498034
-0.0592821
-0.0639349
-0.0658511
-0.0611689
-0.0530617
-0.0431993
-0.0329011
-0.0225833
-0.0133036
-0.00557442
0.000154342
0.00385561
0.00615963
0.00749843
0.00826468
0.00870878
0.00896842
0.00911004
0.0092047
0.00927282
0.00934677
0.010069
0.0100359
0.0100459
0.0100969
0.0101966
0.010355
0.0105688
0.0108893
0.0112064
0.0114964
0.0114923
0.0108626
0.00883642
0.00504787
-0.00147309
-0.0108179
-0.0230332
-0.0369963
-0.052005
-0.065101
-0.0750353
-0.0779643
-0.0737997
-0.0662967
-0.0558922
-0.0437525
-0.0314877
-0.019905
-0.0104725
-0.00352592
0.00115224
0.0040884
0.00584709
0.00692909
0.0075945
0.00800869
0.00825076
0.00838876
0.00845824
0.0084672
0.0094177
0.00937617
0.00938996
0.00945271
0.00958264
0.00978496
0.0100737
0.0104451
0.0108656
0.0112036
0.0114078
0.0106993
0.00864289
0.0051797
-0.000759679
-0.0096223
-0.0211744
-0.0353382
-0.0518176
-0.0671651
-0.0816181
-0.0850967
-0.0810327
-0.0730999
-0.0610753
-0.0478878
-0.0344494
-0.0220589
-0.0123274
-0.00520216
-0.00026228
0.00283095
0.00476401
0.00594977
0.00671372
0.00719644
0.00749877
0.00764652
0.00771735
0.00767284
0.0086913
0.00870104
0.00874097
0.00880234
0.00890684
0.00905603
0.00927288
0.00952202
0.00978888
0.00983682
0.00951674
0.00834826
0.00593264
0.00200255
-0.00389973
-0.0123298
-0.022811
-0.035489
-0.0497397
-0.0633876
-0.0747351
-0.0771798
-0.0725821
-0.0646589
-0.0532547
-0.0410914
-0.0291143
-0.0185828
-0.010468
-0.00430083
-9.09164e-05
0.00259871
0.00431264
0.0053713
0.00604747
0.00645954
0.00672745
0.00687024
0.00693632
0.00691257
0.00782845
0.00787134
0.00789715
0.00791406
0.00793766
0.00796709
0.00799589
0.0079772
0.00786262
0.00739721
0.00624285
0.00410956
0.000688728
-0.00416596
-0.0105852
-0.0186991
-0.0279059
-0.0380655
-0.0478663
-0.0556402
-0.0603252
-0.0593135
-0.0542818
-0.0467857
-0.0375698
-0.028066
-0.019282
-0.011909
-0.00606389
-0.00161708
0.00134849
0.0032652
0.00445761
0.00519367
0.00565354
0.00593155
0.00610491
0.00620049
0.00625663
0.00628798
0.00681257
0.00681312
0.0067828
0.00672964
0.00665532
0.00654093
0.00634641
0.00599435
0.00533138
0.0042145
0.00215736
-0.000914866
-0.00526941
-0.0110637
-0.0179991
-0.0259913
-0.0342375
-0.0419576
-0.0471971
-0.0493601
-0.0486931
-0.0448753
-0.0388225
-0.0314271
-0.0239335
-0.0166015
-0.0103161
-0.0052131
-0.00127348
0.00144471
0.00323795
0.00428152
0.00492769
0.00530391
0.00553123
0.00567445
0.00576314
0.00581633
0.00584638
0.00586866
0.00576302
0.00568203
0.00559574
0.0054887
0.00532664
0.00507383
0.00465796
0.00397356
0.00281621
0.000873139
-0.00215405
-0.00639734
-0.0118292
-0.0184767
-0.0258666
-0.0338053
-0.0413138
-0.0474288
-0.0499783
-0.0485662
-0.0457142
-0.0399624
-0.0323344
-0.0240238
-0.0161259
-0.00932317
-0.00403404
-6.74919e-05
0.00258454
0.00403271
0.00491679
0.00519808
0.00538584
0.00545338
0.00549377
0.00551193
0.00552429
0.00552702
0.00552449
0.00551225
0.00483524
0.00476425
0.00466032
0.00450483
0.00425871
0.00386896
0.00326146
0.00227622
0.000676208
-0.00196934
-0.00590127
-0.0114598
-0.0185726
-0.026818
-0.0354989
-0.0440598
-0.0512601
-0.0567982
-0.0581584
-0.0542622
-0.0484103
-0.0404976
-0.0306332
-0.0206282
-0.0120392
-0.00503664
-4.57332e-05
0.0031668
0.00508854
0.00578656
0.00585379
0.00574515
0.00558617
0.0053939
0.00527065
0.00517451
0.00511366
0.00507356
0.0050604
0.00506411
0.00406947
0.00406344
0.00397407
0.00380685
0.00349533
0.00299889
0.00223774
0.00110619
-0.000794902
-0.00382044
-0.00837173
-0.0146914
-0.0230426
-0.0327284
-0.0427515
-0.0526679
-0.0602626
-0.0660899
-0.0676932
-0.0616984
-0.0514603
-0.0403142
-0.0283354
-0.0172735
-0.00879741
-0.00236114
0.00195844
0.00442121
0.00586504
0.00629162
0.00606191
0.0057917
0.00536222
0.00506217
0.00482909
0.00466276
0.00455835
0.00450811
0.00450191
0.00454971
0.00338238
0.00342029
0.003339
0.00315858
0.00284958
0.00236598
0.00160288
0.000428904
-0.00141225
-0.00433291
-0.00861289
-0.0145718
-0.0224449
-0.0319738
-0.0420046
-0.0518024
-0.0598075
-0.0655081
-0.0670995
-0.0614558
-0.0511103
-0.0393411
-0.027436
-0.0169023
-0.0090862
-0.00303568
0.000900317
0.00324129
0.00478062
0.00536473
0.00529896
0.00511589
0.00479325
0.00451134
0.0042895
0.00413283
0.0040306
0.00398235
0.00396957
0.00399329
0.0027637
0.00276062
0.00268972
0.00255089
0.00231289
0.00193746
0.00134149
0.000413062
-0.00104192
-0.00329416
-0.00669186
-0.0112941
-0.0171766
-0.0244893
-0.0325379
-0.0406214
-0.0476323
-0.0531854
-0.0555475
-0.0529761
-0.0473442
-0.0388216
-0.0298054
-0.0211661
-0.0142406
-0.00831476
-0.00396301
-0.00083637
0.0013748
0.00272794
0.00339053
0.00366381
0.00367697
0.00360844
0.00352842
0.00347427
0.00343641
0.00341243
0.00338815
0.00336661
0.00231414
0.00227805
0.00222467
0.00213912
0.00200316
0.00178466
0.00142131
0.000868806
-1.43039e-05
-0.00139913
-0.00358129
-0.00666347
-0.0104934
-0.0153027
-0.0209045
-0.0269651
-0.0328377
-0.0379692
-0.0416176
-0.0428406
-0.042099
-0.0387045
-0.0339307
-0.0281406
-0.0216903
-0.0157744
-0.0106382
-0.00646197
-0.00322024
-0.000860539
0.000659333
0.00152248
0.00200327
0.00226182
0.00240979
0.00251017
0.00257962
0.00262164
0.00263689
0.00261269
0.0020403
0.00203125
0.00201105
0.00197533
0.00191456
0.00182832
0.00167439
0.00143736
0.00105595
0.000426196
-0.000737781
-0.0025184
-0.00507262
-0.00843926
-0.0126754
-0.0178461
-0.0233925
-0.0287847
-0.0338577
-0.0369304
-0.0391501
-0.0403231
-0.0388063
-0.0344188
-0.0287037
-0.0226992
-0.01699
-0.0119365
-0.00785619
-0.00472787
-0.0024076
-0.000850392
0.000131259
0.000731584
0.00112544
0.00136474
0.00152471
0.00163779
0.00171595
0.00176427
0.0017758
0.00178619
0.00179285
0.00180147
0.00180373
0.00181163
0.00182539
0.00185262
0.0018326
0.00171136
0.00135542
0.000465851
-0.00132927
-0.00401414
-0.00786064
-0.0129051
-0.0189444
-0.025387
-0.0316506
-0.0367044
-0.0408332
-0.0450956
-0.0451022
-0.0418471
-0.0365695
-0.0303284
-0.0238321
-0.0177457
-0.0125058
-0.00830933
-0.00513597
-0.00291417
-0.00149007
-0.000581339
-9.4062e-06
0.00035156
0.000590545
0.000756209
0.000878105
0.000975115
0.001415
0.00139701
0.00140026
0.00142126
0.00147174
0.00155967
0.00169741
0.00186785
0.00209531
0.00227156
0.00234976
0.00209626
0.00100297
-0.000942657
-0.00416271
-0.00885191
-0.0149503
-0.0227352
-0.0309876
-0.0385982
-0.0459527
-0.0520227
-0.0529267
-0.050136
-0.0449364
-0.0380713
-0.0304646
-0.0229683
-0.0163124
-0.0110507
-0.00714235
-0.00438698
-0.00260777
-0.00148376
-0.000767611
-0.000295291
7.91368e-06
0.000196848
0.000311454
0.000364293
0.00100762
0.000960205
0.000948809
0.000968778
0.00103309
0.00114381
0.00132837
0.00156214
0.0018355
0.00209958
0.00224196
0.00219853
0.00153415
0.00013079
-0.00246704
-0.00667634
-0.0123781
-0.0206305
-0.0299528
-0.0394638
-0.0482879
-0.0551339
-0.0563871
-0.0536199
-0.0483612
-0.0409577
-0.032844
-0.0247423
-0.0176306
-0.0121016
-0.00798678
-0.00508621
-0.00323279
-0.0020144
-0.00122244
-0.000699305
-0.000365315
-0.000182382
-9.09516e-05
-9.94689e-05
0.000582013
0.000558191
0.000556839
0.000566347
0.000604916
0.000662867
0.00074907
0.000861884
0.00095243
0.000933896
0.000683711
0.000115905
-0.00104187
-0.0029069
-0.00566191
-0.00969627
-0.0150515
-0.0216344
-0.0297424
-0.0380107
-0.0449591
-0.0499127
-0.0501234
-0.0470394
-0.0420203
-0.0354006
-0.028316
-0.0214387
-0.0154973
-0.0108352
-0.00735251
-0.00489745
-0.00326502
-0.00218898
-0.00149055
-0.00102703
-0.00072622
-0.000551958
-0.00046825
-0.000487684
0.000107321
0.000124189
0.000113802
7.72946e-05
2.30065e-05
-5.12983e-05
-0.000150972
-0.000323892
-0.000640882
-0.00121673
-0.00226832
-0.00385061
-0.00605578
-0.00889747
-0.0123974
-0.0166746
-0.0215775
-0.0263691
-0.0312652
-0.035717
-0.0386185
-0.039741
-0.0380128
-0.03456
-0.0300578
-0.0249286
-0.0197486
-0.014987
-0.0110503
-0.00791312
-0.0055053
-0.00383945
-0.00271476
-0.00199043
-0.00150361
-0.00118914
-0.000988339
-0.000865817
-0.000796225
-0.000770685
-0.000461552
-0.000468938
-0.00052544
-0.000629044
-0.000787566
-0.00101473
-0.00134878
-0.00185029
-0.00262661
-0.00382049
-0.00557362
-0.0080839
-0.0112699
-0.0150879
-0.0194188
-0.0239598
-0.0285273
-0.0319523
-0.0336702
-0.0341943
-0.0337054
-0.0312897
-0.0282377
-0.0243577
-0.0200758
-0.0158578
-0.0121467
-0.00901825
-0.00658726
-0.00471064
-0.00330898
-0.00242483
-0.00186049
-0.00150819
-0.00127646
-0.00111735
-0.00101454
-0.000947894
-0.000905154
-0.000870896
-0.00105603
-0.00113163
-0.00124375
-0.00140785
-0.00164522
-0.00198873
-0.00250816
-0.00331335
-0.00448775
-0.00626312
-0.008683
-0.0119169
-0.0159659
-0.0207106
-0.0258412
-0.0308129
-0.0351118
-0.0374426
-0.0373338
-0.0348724
-0.0318889
-0.0279815
-0.023788
-0.0191977
-0.0143714
-0.0102997
-0.00713989
-0.00478686
-0.00316056
-0.0021052
-0.00153936
-0.00122646
-0.0010688
-0.000994261
-0.000953006
-0.000917011
-0.000883647
-0.000862387
-0.000853265
-0.000854632
-0.00151366
-0.00160643
-0.00174463
-0.00194509
-0.00223896
-0.00266868
-0.00330775
-0.00432284
-0.00588124
-0.00814569
-0.0112769
-0.0154202
-0.0206464
-0.0265515
-0.0326268
-0.0381163
-0.0422198
-0.0439924
-0.0426222
-0.0382591
-0.0329156
-0.0271134
-0.0211396
-0.015447
-0.0102851
-0.0063838
-0.00361153
-0.00179707
-0.000783965
-0.000416339
-0.000417795
-0.000508175
-0.000616829
-0.000718271
-0.000791768
-0.000844151
-0.000867104
-0.000876482
-0.000879503
-0.000884821
-0.00178368
-0.00182577
-0.00194211
-0.00214712
-0.00246646
-0.00296126
-0.00367491
-0.00481614
-0.00658645
-0.00923133
-0.0128453
-0.017751
-0.0239298
-0.0307906
-0.0376927
-0.0437275
-0.0482273
-0.049545
-0.0475551
-0.0415795
-0.0340978
-0.0262759
-0.0185032
-0.0117492
-0.00657132
-0.00311163
-0.000953342
0.000149085
0.000468204
0.000316186
-7.97271e-06
-0.000293871
-0.000532626
-0.000728878
-0.000872299
-0.000974138
-0.00102748
-0.00104531
-0.00103812
-0.000999836
-0.00192544
-0.00191848
-0.00200877
-0.00219586
-0.00251244
-0.00299822
-0.00373299
-0.0048625
-0.00656667
-0.0091383
-0.012572
-0.0173548
-0.0233303
-0.029967
-0.0366248
-0.0424627
-0.0470044
-0.0484796
-0.0467024
-0.0412603
-0.0339953
-0.026215
-0.0184302
-0.0118098
-0.00681728
-0.00351987
-0.00144617
-0.000371055
-5.68108e-05
-0.000103213
-0.000259358
-0.000516888
-0.000739552
-0.000922726
-0.00105295
-0.0011377
-0.00118263
-0.00119243
-0.00117841
-0.00113125