/*--------------------------------*- C++ -*----------------------------------*\
| =========                 |                                                 |
| \\      /  F ield         | OpenFOAM: The Open Source CFD Toolbox           |
|  \\    /   O peration     | Version:  v2106                                 |
|   \\  /    A nd           | Website:  www.openfoam.com                      |
|    \\/     M anipulation  |                                                 |
\*---------------------------------------------------------------------------*/
FoamFile
{
    version     2.0;
    format      ascii;
    arch        "LSB;label=32;scalar=64";
    class       pointVectorField;
    location    "0";
    object      pointDisplacement;
}
// * * * * * * * * * * * * * * * * * * * * * * * * * * * * * * * * * * * * * //

dimensions      [0 1 0 0 0 0 0];

internalField   nonuniform List<vector> 
24440
(
(0 0 0)
(0 0 0)
(0 0 0)
(0 0 0)
(0 0 0)
(0 0 0)
(0 0 0)
(0 0 0)
(0 0 0)
(0 0 0)
(0 0 0)
(0 0 0)
(0 0 0)
(0 0 0)
(0 0 0)
(0 0 0)
(0 0 0)
(0 0 0)
(0 0 0)
(0 0 0)
(0 0 0)
(0 0 0)
(0 0 0)
(0 0 0)
(0 0 0)
(0 0 0)
(0 0 0)
(0 0 0)
(0 0 0)
(0 0 0)
(0 0 0)
(0 0 0)
(0 0 0)
(0 0 0)
(0 0 0)
(0 0 0)
(0 0 0)
(0 0 0)
(0 0 0)
(0 0 0)
(0 0 0)
(0 0 0)
(0 0 0)
(0 0 0)
(0 0 0)
(0 0 0)
(0 0 0)
(0 0 0)
(0 0 0)
(0 0 0)
(0 0 0)
(0 0 0)
(0 0 0)
(0 0 0)
(0 0 0)
(0 0 0)
(0 0 0)
(0 0 0)
(0 0 0)
(0 0 0)
(0 0 0)
(0 0 0)
(0 0 0)
(0 0 0)
(0 0 0)
(0 0 0)
(0 0 0)
(0 0 0)
(0 0 0)
(0 0 0)
(0 0 0)
(0 0 0)
(0 0 0)
(0 0 0)
(0 0 0)
(0 0 0)
(0 0 0)
(0 0 0)
(0 0 0)
(0 0 0)
(0 0 0)
(0 0 0)
(0 0 0)
(0 0 0)
(0 0 0)
(0 0 0)
(0 0 0)
(0 0 0)
(0 0 0)
(0 0 0)
(0 0 0)
(0 0 0)
(0 0 0)
(0 0 0)
(0 0 0)
(0 0 0)
(0 0 0)
(0 0 0)
(0 2.82881e-06 0)
(0 1.78386e-05 0)
(0 4.90524e-05 0)
(0 7.55873e-05 0)
(0 8.57707e-05 0)
(0 7.55873e-05 0)
(0 4.90524e-05 0)
(0 1.78386e-05 0)
(0 2.82881e-06 0)
(0 0 0)
(0 0 0)
(0 0 0)
(0 0 0)
(0 0 0)
(0 0 0)
(0 0 0)
(0 0 0)
(0 0 0)
(0 0 0)
(0 0 0)
(0 0 0)
(0 0 0)
(0 0 0)
(0 0 0)
(0 0 0)
(0 0 0)
(0 0 0)
(0 0 0)
(0 0 0)
(0 0 0)
(0 0 0)
(0 0 0)
(0 0 0)
(0 0 0)
(0 0 0)
(0 0 0)
(0 0 0)
(0 0 0)
(0 4.73749e-06 0)
(0 6.2669e-05 0)
(0 0.00018443 0)
(0 0.000332239 0)
(0 0.000473908 0)
(0 0.000572671 0)
(0 0.000664482 0)
(0 0.000696786 0)
(0 0.000664482 0)
(0 0.000572671 0)
(0 0.000473908 0)
(0 0.000332239 0)
(0 0.00018443 0)
(0 6.2669e-05 0)
(0 4.73749e-06 0)
(0 0 0)
(0 0 0)
(0 0 0)
(0 0 0)
(0 0 0)
(0 0 0)
(0 0 0)
(0 0 0)
(0 0 0)
(0 0 0)
(0 0 0)
(0 0 0)
(0 0 0)
(0 0 0)
(0 0 0)
(0 0 0)
(0 0 0)
(0 0 0)
(0 0 0)
(0 0 0)
(0 0 0)
(0 0 0)
(0 0 0)
(0 0 0)
(0 1.98907e-06 0)
(0 8.24157e-05 0)
(0 0.000281063 0)
(0 0.000554254 0)
(0 0.000835638 0)
(0 0.00114956 0)
(0 0.00142144 0)
(0 0.00158983 0)
(0 0.00175083 0)
(0 0.00180648 0)
(0 0.00175083 0)
(0 0.00158983 0)
(0 0.00142144 0)
(0 0.00114956 0)
(0 0.000835638 0)
(0 0.000554254 0)
(0 0.000281063 0)
(0 8.24157e-05 0)
(0 1.98907e-06 0)
(0 0 0)
(0 0 0)
(0 0 0)
(0 0 0)
(0 0 0)
(0 0 0)
(0 0 0)
(0 0 0)
(0 0 0)
(0 0 0)
(0 0 0)
(0 0 0)
(0 0 0)
(0 0 0)
(0 0 0)
(0 0 0)
(0 0 0)
(0 0 0)
(0 0 0)
(0 0 0)
(0 0 0)
(0 1.88076e-05 0)
(0 0.000195589 0)
(0 0.000519787 0)
(0 0.000911974 0)
(0 0.00139891 0)
(0 0.00189004 0)
(0 0.0023155 0)
(0 0.00271406 0)
(0 0.00299689 0)
(0 0.00316587 0)
(0 0.00324343 0)
(0 0.00316587 0)
(0 0.00299689 0)
(0 0.00271406 0)
(0 0.0023155 0)
(0 0.00189004 0)
(0 0.00139891 0)
(0 0.000911974 0)
(0 0.000519787 0)
(0 0.000195589 0)
(0 1.9911e-05 0)
(0 0 0)
(0 0 0)
(0 0 0)
(0 0 0)
(0 0 0)
(0 0 0)
(0 0 0)
(0 0 0)
(0 0 0)
(0 0 0)
(0 0 0)
(0 0 0)
(0 0 0)
(0 0 0)
(0 0 0)
(0 0 0)
(0 0 0)
(0 0 0)
(0 0 0)
(0 3.69904e-05 0)
(0 0.000259376 0)
(0 0.00064737 0)
(0 0.00118847 0)
(0 0.00183155 0)
(0 0.00249981 0)
(0 0.00311305 0)
(0 0.00369442 0)
(0 0.00391288 0)
(0 0.00414912 0)
(0 0.00434672 0)
(0 0.00450241 0)
(0 0.00461375 0)
(0 0.00469073 0)
(0 0.00476186 0)
(0 0.00478567 0)
(0 0.00476186 0)
(0 0.00469073 0)
(0 0.00461375 0)
(0 0.00450241 0)
(0 0.00434672 0)
(0 0.00414912 0)
(0 0.00391288 0)
(0 0.00369442 0)
(0 0.00311305 0)
(0 0.00249981 0)
(0 0.00183155 0)
(0 0.00118847 0)
(0 0.000633933 0)
(0 0.000234373 0)
(0 2.95577e-05 0)
(0 0 0)
(0 0 0)
(0 0 0)
(0 0 0)
(0 0 0)
(0 0 0)
(0 0 0)
(0 0 0)
(0 0 0)
(0 0 0)
(0 0 0)
(0 0 0)
(0 0 0)
(0 0 0)
(0 0 0)
(0 0 0)
(0 0 0)
(0 2.17571e-05 0)
(0 0.000248987 0)
(0 0.000693723 0)
(0 0.00130538 0)
(0 0.00202184 0)
(0 0.00286481 0)
(0 0.00326787 0)
(0 0.00362514 0)
(0 0.00402055 0)
(0 0.00439119 0)
(0 0.00473028 0)
(0 0.00501837 0)
(0 0.00437358 0)
(0 0.00464062 0)
(0 0.00485136 0)
(0 0.00506392 0)
(0 0.00523067 0)
(0 0.0053495 0)
(0 0.00542074 0)
(0 0.00549624 0)
(0 0.00552149 0)
(0 0.00549624 0)
(0 0.00542074 0)
(0 0.0053495 0)
(0 0.00523067 0)
(0 0.00506392 0)
(0 0.00485136 0)
(0 0.00464062 0)
(0 0.00437358 0)
(0 0.00501837 0)
(0 0.00473028 0)
(0 0.00439119 0)
(0 0.00402055 0)
(0 0.00362514 0)
(0 0.00326787 0)
(0 0.00286481 0)
(0 0.00202184 0)
(0 0.00130538 0)
(0 0.000668417 0)
(0 0.000238154 0)
(0 1.97586e-05 0)
(0 0 0)
(0 0 0)
(0 0 0)
(0 0 0)
(0 0 0)
(0 0 0)
(0 0 0)
(0 0 0)
(0 0 0)
(0 0 0)
(0 0 0)
(0 0 0)
(0 0 0)
(0 0 0)
(0 0 0)
(0 0 0)
(0 0.000137661 0)
(0 0.000562573 0)
(0 0.0012027 0)
(0 0.00200678 0)
(0 0.00290234 0)
(0 0.00381232 0)
(0 0.00335554 0)
(0 0.00379385 0)
(0 0.00421562 0)
(0 0.00461275 0)
(0 0.00496559 0)
(0 0.00532342 0)
(0 0.00563963 0)
(0 0.00590087 0)
(0 0.00530211 0)
(0 0.0055411 0)
(0 0.00614719 0)
(0 0.00632456 0)
(0 0.00573124 0)
(0 0.00590521 0)
(0 0.00650097 0)
(0 0.00662513 0)
(0 0.00602861 0)
(0 0.00609116 0)
(0 0.00669709 0)
(0 0.00675422 0)
(0 0.00616901 0)
(0 0.006195 0)
(0 0.00678001 0)
(0 0.00675422 0)
(0 0.00616901 0)
(0 0.00609116 0)
(0 0.00669709 0)
(0 0.00662513 0)
(0 0.00602861 0)
(0 0.00590521 0)
(0 0.00650097 0)
(0 0.00632456 0)
(0 0.00573124 0)
(0 0.0055411 0)
(0 0.00614719 0)
(0 0.00590087 0)
(0 0.00530211 0)
(0 0.00563963 0)
(0 0.00532342 0)
(0 0.00496559 0)
(0 0.00461275 0)
(0 0.00421562 0)
(0 0.00379385 0)
(0 0.00335554 0)
(0 0.00381232 0)
(0 0.00290234 0)
(0 0.00198262 0)
(0 0.00119321 0)
(0 0.000561972 0)
(0 0.00014966 0)
(0 0 0)
(0 0 0)
(0 0 0)
(0 0 0)
(0 0 0)
(0 0 0)
(0 0 0)
(0 0 0)
(0 0 0)
(0 0 0)
(0 0 0)
(0 0 0)
(0 0 0)
(0 0 0)
(0 0 0)
(0 3.00306e-05 0)
(0 0.000308526 0)
(0 0.000889321 0)
(0 0.00166623 0)
(0 0.00258984 0)
(0 0.00364801 0)
(0 0.00466728 0)
(0 0.00427061 0)
(0 0.00473236 0)
(0 0.00424926 0)
(0 0.00472451 0)
(0 0.00516638 0)
(0 0.00560178 0)
(0 0.00514276 0)
(0 0.00552473 0)
(0 0.00599435 0)
(0 0.00617335 0)
(0 0.00633997 0)
(0 0.00611342 0)
(0 0.00584717 0)
(0 0.00617163 0)
(0 0.00640433 0)
(0 0.00654808 0)
(0 0.0063153 0)
(0 0.00666479 0)
(0 0.00688551 0)
(0 0.00698765 0)
(0 0.00676848 0)
(0 0.00699699 0)
(0 0.00721293 0)
(0 0.00726675 0)
(0 0.0070635 0)
(0 0.00718573 0)
(0 0.0073836 0)
(0 0.00741178 0)
(0 0.00721847 0)
(0 0.00725367 0)
(0 0.00744278 0)
(0 0.00743708 0)
(0 0.0072476 0)
(0 0.00718573 0)
(0 0.0073836 0)
(0 0.0073569 0)
(0 0.00715766 0)
(0 0.00699699 0)
(0 0.00721293 0)
(0 0.00715112 0)
(0 0.00693571 0)
(0 0.00666479 0)
(0 0.00688551 0)
(0 0.00679534 0)
(0 0.0065477 0)
(0 0.00617163 0)
(0 0.00640433 0)
(0 0.00624753 0)
(0 0.00601544 0)
(0 0.00552473 0)
(0 0.00599435 0)
(0 0.00560178 0)
(0 0.00514276 0)
(0 0.00472451 0)
(0 0.00516638 0)
(0 0.00473236 0)
(0 0.00424926 0)
(0 0.00427061 0)
(0 0.00464625 0)
(0 0.00364549 0)
(0 0.00263158 0)
(0 0.00165224 0)
(0 0.000880662 0)
(0 0.000323989 0)
(0 3.43416e-05 0)
(0 0 0)
(0 0 0)
(0 0 0)
(0 0 0)
(0 0 0)
(0 0 0)
(0 0 0)
(0 0 0)
(0 0 0)
(0 0 0)
(0 0 0)
(0 0 0)
(0 0 0)
(0 0 0)
(0 9.82533e-05 0)
(0 0.000497266 0)
(0 0.00116835 0)
(0 0.00205295 0)
(0 0.00307523 0)
(0 0.00419963 0)
(0 0.00524904 0)
(0 0.00499012 0)
(0 0.00548394 0)
(0 0.00514786 0)
(0 0.00559655 0)
(0 0.00594193 0)
(0 0.00635556 0)
(0 0.00600526 0)
(0 0.00636731 0)
(0 0.00655485 0)
(0 0.00671616 0)
(0 0.00655463 0)
(0 0.00701036 0)
(0 0.00708795 0)
(0 0.00715055 0)
(0 0.00707367 0)
(0 0.00742116 0)
(0 0.00748322 0)
(0 0.00752351 0)
(0 0.00746272 0)
(0 0.00766434 0)
(0 0.00770956 0)
(0 0.00773009 0)
(0 0.00768453 0)
(0 0.00777091 0)
(0 0.00780408 0)
(0 0.00780882 0)
(0 0.00777661 0)
(0 0.00779817 0)
(0 0.00782489 0)
(0 0.00782444 0)
(0 0.00779752 0)
(0 0.00777091 0)
(0 0.00780408 0)
(0 0.00779753 0)
(0 0.00776315 0)
(0 0.00766434 0)
(0 0.00770956 0)
(0 0.00769236 0)
(0 0.00764004 0)
(0 0.00742116 0)
(0 0.00748322 0)
(0 0.00744815 0)
(0 0.00737594 0)
(0 0.00701036 0)
(0 0.00708795 0)
(0 0.00715894 0)
(0 0.00702384 0)
(0 0.00687277 0)
(0 0.00636731 0)
(0 0.00655485 0)
(0 0.00671776 0)
(0 0.00635556 0)
(0 0.00600526 0)
(0 0.00559655 0)
(0 0.00592836 0)
(0 0.00548041 0)
(0 0.00514786 0)
(0 0.00499609 0)
(0 0.00526459 0)
(0 0.00418908 0)
(0 0.00310586 0)
(0 0.00207447 0)
(0 0.00118189 0)
(0 0.000504361 0)
(0 0.000100677 0)
(0 0 0)
(0 0 0)
(0 0 0)
(0 0 0)
(0 0 0)
(0 0 0)
(0 0 0)
(0 0 0)
(0 0 0)
(0 0 0)
(0 0 0)
(0 0 0)
(0 0 0)
(0 0 0)
(0 0.000151504 0)
(0 0.000617742 0)
(0 0.00135941 0)
(0 0.00231388 0)
(0 0.00340077 0)
(0 0.00452875 0)
(0 0.0056034 0)
(0 0.00547026 0)
(0 0.00596018 0)
(0 0.00573273 0)
(0 0.00617626 0)
(0 0.00640651 0)
(0 0.00680051 0)
(0 0.00661021 0)
(0 0.00696887 0)
(0 0.00705747 0)
(0 0.00721182 0)
(0 0.00712528 0)
(0 0.00749694 0)
(0 0.00753787 0)
(0 0.00758406 0)
(0 0.00754441 0)
(0 0.0077818 0)
(0 0.00780155 0)
(0 0.00781806 0)
(0 0.00780062 0)
(0 0.00785 0)
(0 0.00785 0)
(0 0.00785 0)
(0 0.00785 0)
(0 0.00785 0)
(0 0.00785 0)
(0 0.00785 0)
(0 0.00785 0)
(0 0.00785 0)
(0 0.00785 0)
(0 0.00785 0)
(0 0.00785 0)
(0 0.00785 0)
(0 0.00785 0)
(0 0.00785 0)
(0 0.00785 0)
(0 0.00785 0)
(0 0.00785 0)
(0 0.00785 0)
(0 0.00785 0)
(0 0.0077818 0)
(0 0.00780155 0)
(0 0.00777979 0)
(0 0.00775916 0)
(0 0.00749694 0)
(0 0.00753787 0)
(0 0.00757285 0)
(0 0.00746607 0)
(0 0.00738959 0)
(0 0.00696482 0)
(0 0.00706776 0)
(0 0.00714636 0)
(0 0.00679107 0)
(0 0.00661609 0)
(0 0.00621146 0)
(0 0.00639855 0)
(0 0.00595385 0)
(0 0.00575807 0)
(0 0.00546561 0)
(0 0.00560619 0)
(0 0.00452689 0)
(0 0.00339537 0)
(0 0.00230646 0)
(0 0.00135167 0)
(0 0.000611337 0)
(0 0.000147867 0)
(0 0 0)
(0 0 0)
(0 0 0)
(0 0 0)
(0 0 0)
(0 0 0)
(0 0 0)
(0 0 0)
(0 0 0)
(0 0 0)
(0 0 0)
(0 0 0)
(0 0 0)
(0 0 0)
(0 0.000160628 0)
(0 0.000637489 0)
(0 0.00139054 0)
(0 0.0023565 0)
(0 0.00345422 0)
(0 0.00459145 0)
(0 0.00567266 0)
(0 0.00567465 0)
(0 0.00616507 0)
(0 0.00609239 0)
(0 0.00653542 0)
(0 0.00660819 0)
(0 0.00699465 0)
(0 0.00692348 0)
(0 0.00726125 0)
(0 0.00729389 0)
(0 0.00742932 0)
(0 0.00739989 0)
(0 0.00770557 0)
(0 0.00771816 0)
(0 0.00775159 0)
(0 0.00773996 0)
(0 0.00785 0)
(0 0.00785 0)
(0 0.00785 0)
(0 0.00785 0)
(0 0.00785 0)
(0 0.00785 0)
(0 0.00785 0)
(0 0.00785 0)
(0 0.00785 0)
(0 0.00785 0)
(0 0.00785 0)
(0 0.00785 0)
(0 0.00785 0)
(0 0.00785 0)
(0 0.00785 0)
(0 0.00785 0)
(0 0.00785 0)
(0 0.00784968 0)
(0 0.00784855 0)
(0 0.00770557 0)
(0 0.00771816 0)
(0 0.00772647 0)
(0 0.00764798 0)
(0 0.00762027 0)
(0 0.00726081 0)
(0 0.00729435 0)
(0 0.00731633 0)
(0 0.00699465 0)
(0 0.00693354 0)
(0 0.00654321 0)
(0 0.00659154 0)
(0 0.00614596 0)
(0 0.0060977 0)
(0 0.00565348 0)
(0 0.00565997 0)
(0 0.00457733 0)
(0 0.00343988 0)
(0 0.00234319 0)
(0 0.0013794 0)
(0 0.0006295 0)
(0 0.000156489 0)
(0 0 0)
(0 0 0)
(0 0 0)
(0 0 0)
(0 0 0)
(0 0 0)
(0 0 0)
(0 0 0)
(0 0 0)
(0 0 0)
(0 0 0)
(0 0 0)
(0 0 0)
(0 0 0)
(0 0.00013127 0)
(0 0.000573706 0)
(0 0.00129071 0)
(0 0.00222111 0)
(0 0.00328614 0)
(0 0.00439626 0)
(0 0.00545904 0)
(0 0.00561244 0)
(0 0.00610204 0)
(0 0.00616347 0)
(0 0.00660701 0)
(0 0.00654552 0)
(0 0.0069338 0)
(0 0.00699391 0)
(0 0.00731602 0)
(0 0.00729879 0)
(0 0.00743418 0)
(0 0.0074506 0)
(0 0.00774024 0)
(0 0.00773615 0)
(0 0.00776748 0)
(0 0.00777119 0)
(0 0.00785 0)
(0 0.00785 0)
(0 0.00785 0)
(0 0.00785 0)
(0 0.00785 0)
(0 0.00785 0)
(0 0.00785 0)
(0 0.00785 0)
(0 0.00785 0)
(0 0.00785 0)
(0 0.00785 0)
(0 0.00785 0)
(0 0.00785 0)
(0 0.00785 0)
(0 0.00785 0)
(0 0.00785 0)
(0 0.00774024 0)
(0 0.0077328 0)
(0 0.00772872 0)
(0 0.00765041 0)
(0 0.00765931 0)
(0 0.00730922 0)
(0 0.00729825 0)
(0 0.00726495 0)
(0 0.00693854 0)
(0 0.00698534 0)
(0 0.00659684 0)
(0 0.00654898 0)
(0 0.00610411 0)
(0 0.00615192 0)
(0 0.00561311 0)
(0 0.00547292 0)
(0 0.00440646 0)
(0 0.0032928 0)
(0 0.00222477 0)
(0 0.00129216 0)
(0 0.000573848 0)
(0 0.000130984 0)
(0 0 0)
(0 0 0)
(0 0 0)
(0 0 0)
(0 0 0)
(0 0 0)
(0 0 0)
(0 0 0)
(0 0 0)
(0 0 0)
(0 0 0)
(0 0 0)
(0 0 0)
(0 0 0)
(0 6.63946e-05 0)
(0 0.000417037 0)
(0 0.0010373 0)
(0 0.00187147 0)
(0 0.0029096 0)
(0 0.00397116 0)
(0 0.00500661 0)
(0 0.00528121 0)
(0 0.00577207 0)
(0 0.00594509 0)
(0 0.00641675 0)
(0 0.00622248 0)
(0 0.00662391 0)
(0 0.00681683 0)
(0 0.00715663 0)
(0 0.0070752 0)
(0 0.00722288 0)
(0 0.00730196 0)
(0 0.00763357 0)
(0 0.0076104 0)
(0 0.00765252 0)
(0 0.00767725 0)
(0 0.00784051 0)
(0 0.00783246 0)
(0 0.00784207 0)
(0 0.00784705 0)
(0 0.00785 0)
(0 0.00785 0)
(0 0.00785 0)
(0 0.00785 0)
(0 0.00785 0)
(0 0.00785 0)
(0 0.00785 0)
(0 0.00785 0)
(0 0.00784051 0)
(0 0.00783128 0)
(0 0.00781852 0)
(0 0.00782992 0)
(0 0.00763357 0)
(0 0.0076104 0)
(0 0.00757891 0)
(0 0.00747908 0)
(0 0.00754072 0)
(0 0.00715663 0)
(0 0.0070752 0)
(0 0.00698272 0)
(0 0.00662391 0)
(0 0.00681683 0)
(0 0.00640479 0)
(0 0.00622248 0)
(0 0.00577207 0)
(0 0.00596069 0)
(0 0.00528121 0)
(0 0.00500661 0)
(0 0.00397116 0)
(0 0.00287211 0)
(0 0.00188986 0)
(0 0.00104936 0)
(0 0.000423641 0)
(0 6.8626e-05 0)
(0 0 0)
(0 0 0)
(0 0 0)
(0 0 0)
(0 0 0)
(0 0 0)
(0 0 0)
(0 0 0)
(0 0 0)
(0 0 0)
(0 0 0)
(0 0 0)
(0 0 0)
(0 0 0)
(0 8.21535e-06 0)
(0 0.000243871 0)
(0 0.000742614 0)
(0 0.00146028 0)
(0 0.00233126 0)
(0 0.00327913 0)
(0 0.00427376 0)
(0 0.00465089 0)
(0 0.00515662 0)
(0 0.00548824 0)
(0 0.00595672 0)
(0 0.00559939 0)
(0 0.00604281 0)
(0 0.00636412 0)
(0 0.00673846 0)
(0 0.00658836 0)
(0 0.00675371 0)
(0 0.00690253 0)
(0 0.00730427 0)
(0 0.00723743 0)
(0 0.00729821 0)
(0 0.00735373 0)
(0 0.00765932 0)
(0 0.00761536 0)
(0 0.00764744 0)
(0 0.0076897 0)
(0 0.00781808 0)
(0 0.00779349 0)
(0 0.00780429 0)
(0 0.00782675 0)
(0 0.00785 0)
(0 0.00784564 0)
(0 0.00784734 0)
(0 0.00785 0)
(0 0.00785 0)
(0 0.00785 0)
(0 0.00785 0)
(0 0.00785 0)
(0 0.00785 0)
(0 0.00785 0)
(0 0.00784564 0)
(0 0.00784324 0)
(0 0.00784973 0)
(0 0.00784993 0)
(0 0.00781808 0)
(0 0.00779349 0)
(0 0.00778015 0)
(0 0.00780692 0)
(0 0.00765932 0)
(0 0.00761536 0)
(0 0.0075796 0)
(0 0.00762516 0)
(0 0.00730965 0)
(0 0.00724829 0)
(0 0.00717455 0)
(0 0.00705262 0)
(0 0.00718519 0)
(0 0.00671995 0)
(0 0.00658072 0)
(0 0.00641809 0)
(0 0.00603451 0)
(0 0.00636412 0)
(0 0.00595672 0)
(0 0.00559939 0)
(0 0.00515662 0)
(0 0.00548824 0)
(0 0.00465089 0)
(0 0.00427376 0)
(0 0.00327913 0)
(0 0.00233126 0)
(0 0.00146028 0)
(0 0.000742614 0)
(0 0.000227483 0)
(0 9.86812e-06 0)
(0 0 0)
(0 0 0)
(0 0 0)
(0 0 0)
(0 0 0)
(0 0 0)
(0 0 0)
(0 0 0)
(0 0 0)
(0 0 0)
(0 0 0)
(0 0 0)
(0 0 0)
(0 0 0)
(0 0 0)
(0 7.49589e-05 0)
(0 0.000395005 0)
(0 0.000929359 0)
(0 0.00162228 0)
(0 0.00248805 0)
(0 0.0033832 0)
(0 0.00380548 0)
(0 0.00430377 0)
(0 0.00472987 0)
(0 0.00519183 0)
(0 0.00475236 0)
(0 0.00517178 0)
(0 0.00562602 0)
(0 0.00601915 0)
(0 0.00555467 0)
(0 0.0058752 0)
(0 0.00614134 0)
(0 0.00636506 0)
(0 0.00619833 0)
(0 0.00666253 0)
(0 0.00642994 0)
(0 0.00657371 0)
(0 0.00679407 0)
(0 0.00712336 0)
(0 0.00692395 0)
(0 0.00700371 0)
(0 0.00721041 0)
(0 0.00741516 0)
(0 0.00723844 0)
(0 0.00729035 0)
(0 0.00746413 0)
(0 0.0075665 0)
(0 0.00740343 0)
(0 0.0074322 0)
(0 0.00758655 0)
(0 0.00761338 0)
(0 0.00746278 0)
(0 0.00745499 0)
(0 0.00760722 0)
(0 0.0075665 0)
(0 0.00740343 0)
(0 0.0073626 0)
(0 0.00753505 0)
(0 0.00741516 0)
(0 0.00723844 0)
(0 0.00717356 0)
(0 0.00735342 0)
(0 0.00712336 0)
(0 0.00692395 0)
(0 0.00682083 0)
(0 0.00702244 0)
(0 0.00666253 0)
(0 0.00642994 0)
(0 0.00629494 0)
(0 0.00651884 0)
(0 0.00601915 0)
(0 0.00555467 0)
(0 0.00517178 0)
(0 0.00562602 0)
(0 0.00519183 0)
(0 0.00475236 0)
(0 0.00430377 0)
(0 0.00472987 0)
(0 0.00380548 0)
(0 0.0033832 0)
(0 0.00248805 0)
(0 0.00162228 0)
(0 0.000929359 0)
(0 0.000395005 0)
(0 7.49589e-05 0)
(0 0 0)
(0 0 0)
(0 0 0)
(0 0 0)
(0 0 0)
(0 0 0)
(0 0 0)
(0 0 0)
(0 0 0)
(0 0 0)
(0 0 0)
(0 0 0)
(0 0 0)
(0 0 0)
(0 0 0)
(0 0 0)
(0 0 0)
(0 0.00011296 0)
(0 0.000466439 0)
(0 0.000999913 0)
(0 0.00166152 0)
(0 0.00238621 0)
(0 0.00310158 0)
(0 0.00365672 0)
(0 0.00424703 0)
(0 0.0038235 0)
(0 0.004054 0)
(0 0.00464569 0)
(0 0.00499732 0)
(0 0.00442626 0)
(0 0.00476672 0)
(0 0.00535617 0)
(0 0.00567315 0)
(0 0.00537983 0)
(0 0.00549305 0)
(0 0.00581453 0)
(0 0.00617526 0)
(0 0.00588686 0)
(0 0.00599388 0)
(0 0.00628311 0)
(0 0.00652888 0)
(0 0.00623881 0)
(0 0.00628664 0)
(0 0.00658469 0)
(0 0.00674093 0)
(0 0.00646237 0)
(0 0.00649491 0)
(0 0.00677319 0)
(0 0.00681112 0)
(0 0.00653433 0)
(0 0.00652093 0)
(0 0.00679897 0)
(0 0.00674093 0)
(0 0.00646237 0)
(0 0.00641681 0)
(0 0.00669564 0)
(0 0.00652888 0)
(0 0.00623881 0)
(0 0.00617 0)
(0 0.00645999 0)
(0 0.00617526 0)
(0 0.00588686 0)
(0 0.00576751 0)
(0 0.0060547 0)
(0 0.00567315 0)
(0 0.00537983 0)
(0 0.00504083 0)
(0 0.00476672 0)
(0 0.00535617 0)
(0 0.00499732 0)
(0 0.00442626 0)
(0 0.004054 0)
(0 0.00464569 0)
(0 0.00424703 0)
(0 0.00365672 0)
(0 0.00310158 0)
(0 0.00238621 0)
(0 0.0038235 0)
(0 0.00166152 0)
(0 0.000999913 0)
(0 0.000466439 0)
(0 0.00011296 0)
(0 0 0)
(0 0 0)
(0 0 0)
(0 0 0)
(0 0 0)
(0 0 0)
(0 0 0)
(0 0 0)
(0 0 0)
(0 0 0)
(0 0 0)
(0 0 0)
(0 0 0)
(0 0 0)
(0 0 0)
(0 0 0)
(0 0 0)
(0 0 0)
(0 1.43247e-06 0)
(0 0.000128326 0)
(0 0.000434856 0)
(0 0.000852161 0)
(0 0.0013948 0)
(0 0.00197353 0)
(0 0.00253308 0)
(0 0.00285972 0)
(0 0.00346603 0)
(0 0.00380978 0)
(0 0.00313507 0)
(0 0.00344573 0)
(0 0.00409302 0)
(0 0.00440358 0)
(0 0.00406986 0)
(0 0.00420646 0)
(0 0.00454558 0)
(0 0.00491166 0)
(0 0.00455951 0)
(0 0.00465668 0)
(0 0.00501215 0)
(0 0.00523984 0)
(0 0.00488722 0)
(0 0.00496572 0)
(0 0.00532064 0)
(0 0.00548992 0)
(0 0.00513049 0)
(0 0.00516126 0)
(0 0.00552148 0)
(0 0.00556306 0)
(0 0.00520286 0)
(0 0.00518593 0)
(0 0.00554678 0)
(0 0.00548992 0)
(0 0.00513049 0)
(0 0.00508756 0)
(0 0.00544585 0)
(0 0.00523984 0)
(0 0.00488722 0)
(0 0.00479733 0)
(0 0.00517865 0)
(0 0.00491166 0)
(0 0.00455951 0)
(0 0.00445179 0)
(0 0.00480012 0)
(0 0.00440358 0)
(0 0.00406986 0)
(0 0.00373011 0)
(0 0.00344573 0)
(0 0.00409302 0)
(0 0.00380978 0)
(0 0.00313507 0)
(0 0.00285972 0)
(0 0.00346603 0)
(0 0.00253308 0)
(0 0.00197353 0)
(0 0.0013948 0)
(0 0.000852161 0)
(0 0.000434856 0)
(0 0.000128326 0)
(0 1.43247e-06 0)
(0 0 0)
(0 0 0)
(0 0 0)
(0 0 0)
(0 0 0)
(0 0 0)
(0 0 0)
(0 0 0)
(0 0 0)
(0 0 0)
(0 0 0)
(0 0 0)
(0 0 0)
(0 0 0)
(0 0 0)
(0 0 0)
(0 0 0)
(0 0 0)
(0 0 0)
(0 0 0)
(0 6.73926e-05 0)
(0 0.000280687 0)
(0 0.000568618 0)
(0 0.000957446 0)
(0 0.00141573 0)
(0 0.00166938 0)
(0 0.00222443 0)
(0 0.00251574 0)
(0 0.00191794 0)
(0 0.00215518 0)
(0 0.00279137 0)
(0 0.0030453 0)
(0 0.00270681 0)
(0 0.00281656 0)
(0 0.00316243 0)
(0 0.00346739 0)
(0 0.00310304 0)
(0 0.00315532 0)
(0 0.0035145 0)
(0 0.00377968 0)
(0 0.00340572 0)
(0 0.00347122 0)
(0 0.00384892 0)
(0 0.00399483 0)
(0 0.00360942 0)
(0 0.00363533 0)
(0 0.00402216 0)
(0 0.00406198 0)
(0 0.00367399 0)
(0 0.00365614 0)
(0 0.0040441 0)
(0 0.00399483 0)
(0 0.00360942 0)
(0 0.00357331 0)
(0 0.00395673 0)
(0 0.00377968 0)
(0 0.00340572 0)
(0 0.00333099 0)
(0 0.00370062 0)
(0 0.00346739 0)
(0 0.00310304 0)
(0 0.0030152 0)
(0 0.003374 0)
(0 0.0030453 0)
(0 0.00270681 0)
(0 0.00237534 0)
(0 0.00215518 0)
(0 0.00279137 0)
(0 0.00251574 0)
(0 0.00191794 0)
(0 0.00166938 0)
(0 0.00222443 0)
(0 0.00141573 0)
(0 0.000957446 0)
(0 0.000568618 0)
(0 0.000280687 0)
(0 6.73926e-05 0)
(0 0 0)
(0 0 0)
(0 0 0)
(0 0 0)
(0 0 0)
(0 0 0)
(0 0 0)
(0 0 0)
(0 0 0)
(0 0 0)
(0 0 0)
(0 0 0)
(0 0 0)
(0 0 0)
(0 0 0)
(0 0 0)
(0 0 0)
(0 0 0)
(0 0 0)
(0 0 0)
(0 0 0)
(0 0 0)
(0 0 0)
(0 5.739e-06 0)
(0 9.73471e-05 0)
(0 0.000271682 0)
(0 0.00056993 0)
(0 0.000725094 0)
(0 0.0011623 0)
(0 0.00136589 0)
(0 0.00088265 0)
(0 0.00103727 0)
(0 0.00156243 0)
(0 0.0017465 0)
(0 0.00145544 0)
(0 0.00153287 0)
(0 0.0018323 0)
(0 0.00203898 0)
(0 0.00172565 0)
(0 0.00179829 0)
(0 0.0021188 0)
(0 0.00231995 0)
(0 0.00198186 0)
(0 0.00203029 0)
(0 0.00237288 0)
(0 0.00248499 0)
(0 0.002133 0)
(0 0.00215233 0)
(0 0.00250608 0)
(0 0.00253975 0)
(0 0.0021839 0)
(0 0.00216788 0)
(0 0.00252302 0)
(0 0.00248499 0)
(0 0.002133 0)
(0 0.00210609 0)
(0 0.00245565 0)
(0 0.00231995 0)
(0 0.00198186 0)
(0 0.00192681 0)
(0 0.00225971 0)
(0 0.00203898 0)
(0 0.00172565 0)
(0 0.00164804 0)
(0 0.00195355 0)
(0 0.0017465 0)
(0 0.00145544 0)
(0 0.00118397 0)
(0 0.00103727 0)
(0 0.00156243 0)
(0 0.00136589 0)
(0 0.00088265 0)
(0 0.000725094 0)
(0 0.0011623 0)
(0 0.00056993 0)
(0 0.000271682 0)
(0 9.73471e-05 0)
(0 5.739e-06 0)
(0 0 0)
(0 0 0)
(0 0 0)
(0 0 0)
(0 0 0)
(0 0 0)
(0 0 0)
(0 0 0)
(0 0 0)
(0 0 0)
(0 0 0)
(0 0 0)
(0 0 0)
(0 0 0)
(0 0 0)
(0 0 0)
(0 0 0)
(0 0 0)
(0 0 0)
(0 0 0)
(0 0 0)
(0 0 0)
(0 0 0)
(0 0 0)
(0 0 0)
(0 0 0)
(0 1.04031e-06 0)
(0 7.8158e-05 0)
(0 0.000136137 0)
(0 0.000377494 0)
(0 0.000489094 0)
(0 0.000202996 0)
(0 0.000274495 0)
(0 0.000601684 0)
(0 0.000710742 0)
(0 0.000489246 0)
(0 0.00053933 0)
(0 0.000737597 0)
(0 0.000905644 0)
(0 0.000681573 0)
(0 0.000724751 0)
(0 0.000956198 0)
(0 0.00108548 0)
(0 0.000835846 0)
(0 0.000865595 0)
(0 0.00111992 0)
(0 0.00119342 0)
(0 0.000929262 0)
(0 0.000941334 0)
(0 0.00120732 0)
(0 0.0012315 0)
(0 0.000962766 0)
(0 0.000951057 0)
(0 0.00121852 0)
(0 0.00119342 0)
(0 0.000929262 0)
(0 0.000912511 0)
(0 0.00117411 0)
(0 0.00108548 0)
(0 0.000835846 0)
(0 0.000802246 0)
(0 0.00104649 0)
(0 0.000905644 0)
(0 0.000681573 0)
(0 0.000635978 0)
(0 0.000852046 0)
(0 0.000710742 0)
(0 0.000489246 0)
(0 0.000328997 0)
(0 0.000274495 0)
(0 0.000601684 0)
(0 0.000489094 0)
(0 0.000202996 0)
(0 0.000136137 0)
(0 0.000377494 0)
(0 7.8158e-05 0)
(0 1.04031e-06 0)
(0 0 0)
(0 0 0)
(0 0 0)
(0 0 0)
(0 0 0)
(0 0 0)
(0 0 0)
(0 0 0)
(0 0 0)
(0 0 0)
(0 0 0)
(0 0 0)
(0 0 0)
(0 0 0)
(0 0 0)
(0 0 0)
(0 0 0)
(0 0 0)
(0 0 0)
(0 0 0)
(0 0 0)
(0 0 0)
(0 0 0)
(0 0 0)
(0 0 0)
(0 0 0)
(0 0 0)
(0 0 0)
(0 0 0)
(0 0 0)
(0 0 0)
(0 3.82066e-05 0)
(0 1.38189e-05 0)
(0 0 0)
(0 6.00796e-05 0)
(0 0.000100371 0)
(0 3.07284e-06 0)
(0 1.34312e-05 0)
(0 0.000144642 0)
(0 0.000189502 0)
(0 2.83215e-05 0)
(0 4.50961e-05 0)
(0 0.000231891 0)
(0 0.000269148 0)
(0 6.14432e-05 0)
(0 7.54441e-05 0)
(0 0.000299078 0)
(0 0.000319989 0)
(0 8.5619e-05 0)
(0 9.09615e-05 0)
(0 0.000330736 0)
(0 0.000339334 0)
(0 9.55256e-05 0)
(0 9.09615e-05 0)
(0 0.000330736 0)
(0 0.000319989 0)
(0 8.5619e-05 0)
(0 7.54441e-05 0)
(0 0.000299078 0)
(0 0.000269148 0)
(0 6.14432e-05 0)
(0 4.50961e-05 0)
(0 0.000231891 0)
(0 0.000189502 0)
(0 2.83215e-05 0)
(0 1.34312e-05 0)
(0 0.000144642 0)
(0 0.000100371 0)
(0 3.07284e-06 0)
(0 0 0)
(0 6.00796e-05 0)
(0 3.82066e-05 0)
(0 0 0)
(0 0 0)
(0 0 0)
(0 1.38189e-05 0)
(0 0 0)
(0 0 0)
(0 0 0)
(0 0 0)
(0 0 0)
(0 0 0)
(0 0 0)
(0 0 0)
(0 0 0)
(0 0 0)
(0 0 0)
(0 0 0)
(0 0 0)
(0 0 0)
(0 0 0)
(0 0 0)
(0 0 0)
(0 0 0)
(0 0 0)
(0 0 0)
(0 0 0)
(0 0 0)
(0 0 0)
(0 0 0)
(0 0 0)
(0 0 0)
(0 0 0)
(0 0 0)
(0 0 0)
(0 0 0)
(0 0 0)
(0 0 0)
(0 0 0)
(0 0 0)
(0 0 0)
(0 0 0)
(0 0 0)
(0 0 0)
(0 0 0)
(0 0 0)
(0 2.76153e-07 0)
(0 0 0)
(0 0 0)
(0 1.06273e-06 0)
(0 6.32307e-07 0)
(0 0 0)
(0 2.76153e-07 0)
(0 6.32307e-07 0)
(0 0 0)
(0 0 0)
(0 0 0)
(0 0 0)
(0 0 0)
(0 0 0)
(0 0 0)
(0 0 0)
(0 0 0)
(0 0 0)
(0 0 0)
(0 0 0)
(0 0 0)
(0 0 0)
(0 0 0)
(0 0 0)
(0 0 0)
(0 0 0)
(0 0 0)
(0 0 0)
(0 0 0)
(0 0 0)
(0 0 0)
(0 0 0)
(0 0 0)
(0 0 0)
(0 0 0)
(0 0 0)
(0 0 0)
(0 0 0)
(0 0 0)
(0 0 0)
(0 0 0)
(0 0 0)
(0 0 0)
(0 0 0)
(0 0 0)
(0 0 0)
(0 0 0)
(0 0 0)
(0 0 0)
(0 0 0)
(0 0 0)
(0 0 0)
(0 0 0)
(0 0 0)
(0 0 0)
(0 0 0)
(0 0 0)
(0 0 0)
(0 0 0)
(0 0 0)
(0 0 0)
(0 0 0)
(0 0 0)
(0 0 0)
(0 0 0)
(0 0 0)
(0 0 0)
(0 0 0)
(0 0 0)
(0 0 0)
(0 0 0)
(0 0 0)
(0 0 0)
(0 0 0)
(0 0 0)
(0 0 0)
(0 0 0)
(0 0 0)
(0 0 0)
(0 0 0)
(0 0 0)
(0 0 0)
(0 0 0)
(0 0 0)
(0 0 0)
(0 0 0)
(0 0 0)
(0 0 0)
(0 0 0)
(0 0 0)
(0 0 0)
(0 0 0)
(0 0 0)
(0 0 0)
(0 0 0)
(0 0 0)
(0 0 0)
(0 0 0)
(0 0 0)
(0 0 0)
(0 0 0)
(0 0 0)
(0 0 0)
(0 0 0)
(0 0 0)
(0 0 0)
(0 0 0)
(0 0 0)
(0 0 0)
(0 0 0)
(0 0 0)
(0 0 0)
(0 0 0)
(0 0 0)
(0 0 0)
(0 0 0)
(0 0 0)
(0 0 0)
(0 0 0)
(0 0 0)
(0 0 0)
(0 0 0)
(0 0 0)
(0 0 0)
(0 0 0)
(0 0 0)
(0 0 0)
(0 0 0)
(0 0 0)
(0 0 0)
(0 0 0)
(0 0 0)
(0 0 0)
(0 0 0)
(0 0 0)
(0 0 0)
(0 0 0)
(0 0 0)
(0 0 0)
(0 0 0)
(0 0 0)
(0 0 0)
(0 0 0)
(0 0 0)
(0 0 0)
(0 0 0)
(0 0 0)
(0 0 0)
(0 0 0)
(0 0 0)
(0 0 0)
(0 0 0)
(0 0 0)
(0 0 0)
(0 0 0)
(0 0 0)
(0 0 0)
(0 0 0)
(0 0 0)
(0 0 0)
(0 0 0)
(0 0 0)
(0 0 0)
(0 0 0)
(0 0 0)
(0 0 0)
(0 0 0)
(0 0 0)
(0 0 0)
(0 0 0)
(0 0 0)
(0 0 0)
(0 0 0)
(0 0 0)
(0 0 0)
(0 0 0)
(0 0 0)
(0 0 0)
(0 0 0)
(0 0 0)
(0 0 0)
(0 0 0)
(0 0 0)
(0 0 0)
(0 0 0)
(0 0 0)
(0 0 0)
(0 0 0)
(0 0 0)
(0 0 0)
(0 0 0)
(0 0 0)
(0 0 0)
(0 0 0)
(0 0 0)
(0 0 0)
(0 0 0)
(0 0 0)
(0 0 0)
(0 0 0)
(0 0 0)
(0 0 0)
(0 0 0)
(0 0 0)
(0 0 0)
(0 0 0)
(0 0 0)
(0 0 0)
(0 0 0)
(0 0 0)
(0 0 0)
(0 0 0)
(0 0 0)
(0 0 0)
(0 0 0)
(0 0 0)
(0 0 0)
(0 0 0)
(0 0 0)
(0 0 0)
(0 0 0)
(0 0 0)
(0 0 0)
(0 0 0)
(0 0 0)
(0 0 0)
(0 0 0)
(0 0 0)
(0 0 0)
(0 0 0)
(0 0 0)
(0 0 0)
(0 0 0)
(0 0 0)
(0 0 0)
(0 0 0)
(0 0 0)
(0 0 0)
(0 0 0)
(0 0 0)
(0 0 0)
(0 0 0)
(0 0 0)
(0 0 0)
(0 0 0)
(0 0 0)
(0 0 0)
(0 0 0)
(0 0 0)
(0 0 0)
(0 0 0)
(0 0 0)
(0 0 0)
(0 0 0)
(0 0 0)
(0 0 0)
(0 0 0)
(0 0 0)
(0 0 0)
(0 0 0)
(0 0 0)
(0 0 0)
(0 0 0)
(0 0 0)
(0 0 0)
(0 0 0)
(0 0 0)
(0 0 0)
(0 0 0)
(0 0 0)
(0 0 0)
(0 0 0)
(0 0 0)
(0 0 0)
(0 0 0)
(0 0 0)
(0 0 0)
(0 0 0)
(0 0 0)
(0 0 0)
(0 0 0)
(0 0 0)
(0 0 0)
(0 0 0)
(0 0 0)
(0 0 0)
(0 0 0)
(0 0 0)
(0 0 0)
(0 0 0)
(0 0 0)
(0 0 0)
(0 0 0)
(0 0 0)
(0 0 0)
(0 0 0)
(0 0 0)
(0 0 0)
(0 0 0)
(0 0 0)
(0 0 0)
(0 0 0)
(0 0 0)
(0 0 0)
(0 0 0)
(0 0 0)
(0 0 0)
(0 0 0)
(0 0 0)
(0 0 0)
(0 0 0)
(0 0 0)
(0 0 0)
(0 0 0)
(0 0 0)
(0 0 0)
(0 0 0)
(0 0 0)
(0 0 0)
(0 0 0)
(0 0 0)
(0 0 0)
(0 0 0)
(0 0 0)
(0 0 0)
(0 0 0)
(0 0 0)
(0 0 0)
(0 0 0)
(0 0 0)
(0 0 0)
(0 0 0)
(0 0 0)
(0 0 0)
(0 0 0)
(0 0 0)
(0 0 0)
(0 0 0)
(0 0 0)
(0 0 0)
(0 0 0)
(0 0 0)
(0 0 0)
(0 0 0)
(0 0 0)
(0 0 0)
(0 0 0)
(0 0 0)
(0 0 0)
(0 0 0)
(0 0 0)
(0 0 0)
(0 0 0)
(0 0 0)
(0 0 0)
(0 0 0)
(0 0 0)
(0 0 0)
(0 0 0)
(0 0 0)
(0 0 0)
(0 0 0)
(0 0 0)
(0 0 0)
(0 0 0)
(0 0 0)
(0 0 0)
(0 0 0)
(0 0 0)
(0 0 0)
(0 0 0)
(0 0 0)
(0 0 0)
(0 0 0)
(0 0 0)
(0 0 0)
(0 0 0)
(0 0 0)
(0 0 0)
(0 0 0)
(0 0 0)
(0 0 0)
(0 0 0)
(0 0 0)
(0 0 0)
(0 0 0)
(0 0 0)
(0 0 0)
(0 0 0)
(0 0 0)
(0 0 0)
(0 0 0)
(0 0 0)
(0 0 0)
(0 0 0)
(0 0 0)
(0 0 0)
(0 0 0)
(0 0 0)
(0 0 0)
(0 0 0)
(0 0 0)
(0 0 0)
(0 0 0)
(0 0 0)
(0 0 0)
(0 0 0)
(0 0 0)
(0 0 0)
(0 0 0)
(0 0 0)
(0 0 0)
(0 0 0)
(0 0 0)
(0 0 0)
(0 0 0)
(0 0 0)
(0 0 0)
(0 0 0)
(0 0 0)
(0 0 0)
(0 0 0)
(0 0 0)
(0 0 0)
(0 0 0)
(0 0 0)
(0 0 0)
(0 0 0)
(0 0 0)
(0 0 0)
(0 0 0)
(0 0 0)
(0 0 0)
(0 0 0)
(0 0 0)
(0 0 0)
(0 0 0)
(0 0 0)
(0 0 0)
(0 0 0)
(0 0 0)
(0 0 0)
(0 0 0)
(0 0 0)
(0 0 0)
(0 0 0)
(0 0 0)
(0 0 0)
(0 0 0)
(0 0 0)
(0 0 0)
(0 0 0)
(0 0 0)
(0 0 0)
(0 0 0)
(0 0 0)
(0 0 0)
(0 0 0)
(0 0 0)
(0 0 0)
(0 0 0)
(0 0 0)
(0 0 0)
(0 0 0)
(0 0 0)
(0 0 0)
(0 0 0)
(0 0 0)
(0 0 0)
(0 0 0)
(0 0 0)
(0 0 0)
(0 0 0)
(0 0 0)
(0 0 0)
(0 0 0)
(0 0 0)
(0 0 0)
(0 0 0)
(0 0 0)
(0 0 0)
(0 0 0)
(0 0 0)
(0 0 0)
(0 0 0)
(0 0 0)
(0 0 0)
(0 0 0)
(0 0 0)
(0 0 0)
(0 0 0)
(0 0 0)
(0 0 0)
(0 0 0)
(0 0 0)
(0 0 0)
(0 0 0)
(0 0 0)
(0 0 0)
(0 0 0)
(0 0 0)
(0 0 0)
(0 0 0)
(0 0 0)
(0 0 0)
(0 0 0)
(0 0 0)
(0 0 0)
(0 0 0)
(0 0 0)
(0 0 0)
(0 0 0)
(0 0 0)
(0 0 0)
(0 0 0)
(0 0 0)
(0 0 0)
(0 0 0)
(0 0 0)
(0 0 0)
(0 0 0)
(0 0 0)
(0 0 0)
(0 0 0)
(0 0 0)
(0 0 0)
(0 0 0)
(0 0 0)
(0 0 0)
(0 0 0)
(0 0 0)
(0 0 0)
(0 0 0)
(0 0 0)
(0 0 0)
(0 0 0)
(0 0 0)
(0 0 0)
(0 0 0)
(0 0 0)
(0 0 0)
(0 0 0)
(0 0 0)
(0 0 0)
(0 0 0)
(0 0 0)
(0 0 0)
(0 0 0)
(0 0 0)
(0 0 0)
(0 0 0)
(0 0 0)
(0 0 0)
(0 0 0)
(0 0 0)
(0 0 0)
(0 0 0)
(0 0 0)
(0 0 0)
(0 0 0)
(0 0 0)
(0 0 0)
(0 0 0)
(0 0 0)
(0 0 0)
(0 0 0)
(0 0 0)
(0 0 0)
(0 0 0)
(0 0 0)
(0 0 0)
(0 0 0)
(0 0 0)
(0 0 0)
(0 0 0)
(0 0 0)
(0 0 0)
(0 0 0)
(0 0 0)
(0 0 0)
(0 0 0)
(0 0 0)
(0 0 0)
(0 0 0)
(0 0 0)
(0 0 0)
(0 0 0)
(0 0 0)
(0 0 0)
(0 0 0)
(0 0 0)
(0 0 0)
(0 0 0)
(0 0 0)
(0 0 0)
(0 0 0)
(0 0 0)
(0 0 0)
(0 0 0)
(0 0 0)
(0 0 0)
(0 0 0)
(0 0 0)
(0 0 0)
(0 0 0)
(0 0 0)
(0 0 0)
(0 0 0)
(0 0 0)
(0 0 0)
(0 0 0)
(0 0 0)
(0 0 0)
(0 0 0)
(0 0 0)
(0 0 0)
(0 0 0)
(0 0 0)
(0 0 0)
(0 0 0)
(0 0 0)
(0 0 0)
(0 0 0)
(0 0 0)
(0 0 0)
(0 0 0)
(0 0 0)
(0 0 0)
(0 0 0)
(0 0 0)
(0 0 0)
(0 0 0)
(0 0 0)
(0 0 0)
(0 0 0)
(0 0 0)
(0 0 0)
(0 0 0)
(0 0 0)
(0 0 0)
(0 0 0)
(0 0 0)
(0 0 0)
(0 0 0)
(0 0 0)
(0 0 0)
(0 0 0)
(0 0 0)
(0 0 0)
(0 0 0)
(0 0 0)
(0 0 0)
(0 0 0)
(0 0 0)
(0 0 0)
(0 0 0)
(0 0 0)
(0 0 0)
(0 0 0)
(0 0 0)
(0 0 0)
(0 0 0)
(0 0 0)
(0 0 0)
(0 0 0)
(0 0 0)
(0 0 0)
(0 0 0)
(0 0 0)
(0 0 0)
(0 0 0)
(0 0 0)
(0 0 0)
(0 0 0)
(0 0 0)
(0 0 0)
(0 0 0)
(0 0 0)
(0 0 0)
(0 0 0)
(0 0 0)
(0 0 0)
(0 0 0)
(0 0 0)
(0 0 0)
(0 0 0)
(0 0 0)
(0 0 0)
(0 0 0)
(0 0 0)
(0 0 0)
(0 0 0)
(0 0 0)
(0 0 0)
(0 0 0)
(0 0 0)
(0 0 0)
(0 0 0)
(0 0 0)
(0 0 0)
(0 0 0)
(0 0 0)
(0 0 0)
(0 0 0)
(0 0 0)
(0 0 0)
(0 0 0)
(0 0 0)
(0 0 0)
(0 0 0)
(0 0 0)
(0 0 0)
(0 0 0)
(0 0 0)
(0 0 0)
(0 0 0)
(0 0 0)
(0 0 0)
(0 0 0)
(0 0 0)
(0 0 0)
(0 0 0)
(0 0 0)
(0 0 0)
(0 0 0)
(0 0 0)
(0 0 0)
(0 0 0)
(0 0 0)
(0 0 0)
(0 0 0)
(0 0 0)
(0 0 0)
(0 0 0)
(0 0 0)
(0 0 0)
(0 0 0)
(0 0 0)
(0 0 0)
(0 0 0)
(0 0 0)
(0 0 0)
(0 0 0)
(0 0 0)
(0 0 0)
(0 0 0)
(0 0 0)
(0 0 0)
(0 0 0)
(0 0 0)
(0 0 0)
(0 0 0)
(0 0 0)
(0 0 0)
(0 0 0)
(0 0 0)
(0 0 0)
(0 0 0)
(0 0 0)
(0 0 0)
(0 0 0)
(0 0 0)
(0 0 0)
(0 0 0)
(0 0 0)
(0 0 0)
(0 0 0)
(0 0 0)
(0 0 0)
(0 0 0)
(0 0 0)
(0 0 0)
(0 0 0)
(0 0 0)
(0 0 0)
(0 0 0)
(0 0 0)
(0 0 0)
(0 0 0)
(0 0 0)
(0 0 0)
(0 0 0)
(0 0 0)
(0 0 0)
(0 0 0)
(0 0 0)
(0 0 0)
(0 0 0)
(0 0 0)
(0 0 0)
(0 0 0)
(0 0 0)
(0 0 0)
(0 0 0)
(0 0 0)
(0 0 0)
(0 0 0)
(0 0 0)
(0 0 0)
(0 0 0)
(0 0 0)
(0 0 0)
(0 0 0)
(0 0 0)
(0 0 0)
(0 0 0)
(0 0 0)
(0 0 0)
(0 0 0)
(0 0 0)
(0 0 0)
(0 0 0)
(0 0 0)
(0 0 0)
(0 0 0)
(0 0 0)
(0 0 0)
(0 0 0)
(0 0 0)
(0 0 0)
(0 0 0)
(0 0 0)
(0 0 0)
(0 0 0)
(0 0 0)
(0 0 0)
(0 0 0)
(0 0 0)
(0 0 0)
(0 0 0)
(0 0 0)
(0 0 0)
(0 0 0)
(0 0 0)
(0 0 0)
(0 0 0)
(0 0 0)
(0 0 0)
(0 0 0)
(0 0 0)
(0 0 0)
(0 0 0)
(0 0 0)
(0 0 0)
(0 0 0)
(0 0 0)
(0 0 0)
(0 0 0)
(0 0 0)
(0 0 0)
(0 0 0)
(0 0 0)
(0 0 0)
(0 0 0)
(0 0 0)
(0 0 0)
(0 0 0)
(0 0 0)
(0 0 0)
(0 0 0)
(0 0 0)
(0 0 0)