/*--------------------------------*- C++ -*----------------------------------*\
| =========                 |                                                 |
| \\      /  F ield         | OpenFOAM: The Open Source CFD Toolbox           |
|  \\    /   O peration     | Version:  v2106                                 |
|   \\  /    A nd           | Website:  www.openfoam.com                      |
|    \\/     M anipulation  |                                                 |
\*---------------------------------------------------------------------------*/
FoamFile
{
    version     2.0;
    format      ascii;
    arch        "LSB;label=32;scalar=64";
    class       volScalarField;
    location    "0";
    object      p;
}
// * * * * * * * * * * * * * * * * * * * * * * * * * * * * * * * * * * * * * //

dimensions      [0 2 -2 0 0 0 0];

internalField   nonuniform List<scalar> 
11644
(
0.08087
0.0812519
0.0820493
0.0832659
0.0848914
0.0869144
0.0893192
0.0920797
0.0951564
0.0984896
0.101994
0.105561
0.109046
0.112246
0.11497
0.117004
0.118069
0.118082
0.117009
0.114686
0.111033
0.106158
0.100301
0.0937188
0.0866263
0.0792749
0.0719086
0.0647361
0.0579413
0.0516353
0.0459032
0.0407983
0.0363338
0.032506
0.0292973
0.0266816
0.0246319
0.0231271
0.0221564
0.021695
0.0801928
0.0805748
0.0813627
0.0825673
0.0841877
0.0862183
0.0886498
0.0914636
0.094628
0.0980923
0.101784
0.105588
0.109348
0.112894
0.115979
0.118341
0.119773
0.120072
0.119111
0.116781
0.113098
0.108063
0.101814
0.0946881
0.0870502
0.0792086
0.0714358
0.0639515
0.0569139
0.0504697
0.0446819
0.0395714
0.0351404
0.0313685
0.0282271
0.0256836
0.0237045
0.0222613
0.0213274
0.0208745
0.0787333
0.0791319
0.079927
0.0811274
0.082746
0.0847924
0.0872695
0.0901751
0.093496
0.0972041
0.101241
0.105516
0.109893
0.114151
0.118035
0.121271
0.123547
0.124539
0.123988
0.12165
0.117612
0.111959
0.10488
0.0966946
0.0878997
0.0789904
0.0703185
0.0621665
0.0547075
0.0480216
0.0421434
0.0370543
0.0327125
0.0290697
0.026071
0.0236658
0.0218069
0.0204508
0.0195602
0.0191158
0.0765019
0.0769084
0.0777098
0.0789091
0.0805262
0.0825864
0.0851128
0.0881267
0.091646
0.0956744
0.1002
0.105166
0.110424
0.115793
0.120996
0.125671
0.129361
0.131647
0.131996
0.12992
0.125366
0.118498
0.109739
0.0996649
0.0890886
0.0784785
0.0683683
0.0591901
0.0510909
0.0441096
0.0381695
0.0331728
0.0290151
0.0255942
0.0228237
0.0206271
0.0189414
0.0177127
0.0169002
0.0164919
0.0735319
0.0739241
0.0747057
0.0758799
0.0774725
0.0795207
0.0820691
0.0851688
0.0888738
0.0932401
0.0982964
0.103996
0.110292
0.117069
0.124107
0.130992
0.137036
0.141771
0.143875
0.142574
0.137419
0.128712
0.117102
0.103777
0.0905171
0.0773313
0.0651479
0.0545586
0.0456786
0.0384136
0.0325475
0.0278046
0.0239826
0.0209249
0.0185018
0.0166128
0.0151786
0.0141408
0.0134592
0.0131174
0.0698408
0.070207
0.0709333
0.0720389
0.0735529
0.0755223
0.0780116
0.0811044
0.0849012
0.0894683
0.0948234
0.101056
0.108313
0.116809
0.126498
0.1367
0.146639
0.155718
0.161284
0.161704
0.155764
0.143826
0.127591
0.109087
0.0914349
0.0744059
0.0596601
0.0476112
0.0380192
0.030612
0.0250152
0.0207886
0.0175606
0.0150749
0.0131679
0.0117199
0.0106446
0.0098798
0.00938691
0.00914552
0.0654925
0.0657997
0.0664294
0.0674014
0.0687516
0.0705349
0.0728276
0.0757375
0.0793711
0.0837541
0.0890004
0.0953996
0.10337
0.113474
0.126352
0.141303
0.151422
0.166369
0.177914
0.183158
0.17897
0.165037
0.144121
0.120597
0.0894509
0.067491
0.0499212
0.0367662
0.0273014
0.0203502
0.0154347
0.0120639
0.00976542
0.00813452
0.00695899
0.0061135
0.00551548
0.00510866
0.00485282
0.00472566
0.060534
0.0607748
0.0612648
0.0620253
0.0631036
0.0645533
0.0664535
0.0689096
0.0719697
0.0756698
0.0802923
0.0863065
0.094126
0.104159
0.118152
0.136486
0.160739
0.185709
0.209428
0.22342
0.219898
0.197523
0.162502
0.124922
0.0885846
0.0621937
0.042477
0.0206004
0.0124321
0.0071189
0.00377113
0.00180102
0.000797502
0.000327094
0.000103437
1.9102e-05
5.28e-06
2.30071e-05
4.83174e-05
6.81198e-05
0.0550704
0.0552225
0.0555256
0.0560117
0.0567026
0.0576488
0.0589197
0.0605849
0.0626407
0.0651873
0.0684902
0.0729662
0.0794011
0.0918158
0.106457
0.127546
0.154891
0.196661
0.240618
0.277234
0.28223
0.246591
0.187893
0.125003
0.0787748
0.038193
0.018521
-0.00311881
-0.00714024
-0.00919166
-0.00986673
-0.00967221
-0.00894422
-0.0079797
-0.00706117
-0.00625829
-0.00560125
-0.005103
-0.00476927
-0.00460438
0.0492889
0.0493133
0.0493843
0.0495045
0.0496901
0.0499772
0.0504011
0.0509703
0.0516337
0.0524989
0.0537375
0.0553877
0.0575779
0.068639
0.0778287
0.0986096
0.130093
0.183437
0.266934
0.363202
0.397734
0.321692
0.19685
0.0975034
0.0297759
-0.011286
-0.0213609
-0.0338425
-0.0310278
-0.0280862
-0.0249151
-0.0217941
-0.0188998
-0.016287
-0.0140937
-0.0123366
-0.0109777
-0.00998698
-0.00933793
-0.00902037
0.0433195
0.0432273
0.0430404
0.0427472
0.0423559
0.0418569
0.0412577
0.0405016
0.0394486
0.0380435
0.0362565
0.0340101
0.0304042
0.0342221
0.0333759
0.0393103
0.0521624
0.0811453
0.179338
0.413771
0.59322
0.345233
0.0728201
-0.0459277
-0.0826443
-0.0883609
-0.0761666
-0.0695017
-0.0576621
-0.0480414
-0.0400827
-0.0335835
-0.0282933
-0.0239512
-0.020481
-0.0177998
-0.0157721
-0.0143114
-0.0133675
-0.0128848
0.0374294
0.0371946
0.036721
0.0360102
0.0350194
0.0336867
0.0319836
0.029778
0.0268474
0.0229416
0.0176214
0.0105894
0.000947654
-0.00292253
-0.0199835
-0.0374392
-0.0732175
-0.156163
-0.386425
-0.657618
-0.367623
-0.245407
-0.180424
-0.134957
-0.104901
-0.0826298
-0.065913
-0.053302
-0.0436291
-0.0361113
-0.0302247
-0.0256571
-0.0221883
-0.0195974
-0.0177619
-0.0165861
-0.0160428
0.0318372
0.031493
0.0307644
0.0296504
0.0280921
0.025982
0.0232092
0.0196028
0.0149057
0.00876107
0.000478161
-0.0106824
-0.0256972
-0.0349922
-0.06409
-0.0969183
-0.158621
-0.277503
-0.389438
-0.876065
-0.58907
-0.365974
-0.247862
-0.179877
-0.12814
-0.0992913
-0.0778377
-0.0620907
-0.0502498
-0.0412401
-0.0343489
-0.0290856
-0.025115
-0.0221675
-0.0200973
-0.0187776
-0.0181307
0.0267625
0.0262865
0.0254013
0.0240021
0.0219909
0.0192516
0.0155765
0.0108418
0.00479717
-0.00294645
-0.0130409
-0.0264069
-0.0438075
-0.0575984
-0.0869474
-0.119727
-0.170782
-0.245525
-0.289024
-0.682681
-0.565135
-0.387955
-0.262978
-0.192522
-0.132785
-0.103079
-0.0808618
-0.064501
-0.0521404
-0.0428012
-0.0357321
-0.0303414
-0.0262553
-0.0232249
-0.0210765
-0.0197149
-0.0190625
0.0223684
0.022
0.0209766
0.0193474
0.0170132
0.0138808
0.00965255
0.00423836
-0.00250119
-0.011051
-0.0217353
-0.035603
-0.0529323
-0.0677486
-0.094252
-0.121246
-0.152637
-0.172509
-0.221076
-0.380192
-0.624455
-0.77746
-0.726791
-0.526426
-0.346621
-0.230826
-0.171935
-0.1172
-0.0927972
-0.0741301
-0.0597876
-0.0488968
-0.0404819
-0.0341405
-0.0292653
-0.0254836
-0.0226774
-0.0206873
-0.019419
-0.0188787
0.0190916
0.0186544
0.0176063
0.0158988
0.0134485
0.0101797
0.00588235
0.000353454
-0.00649814
-0.0150233
-0.0255819
-0.0389016
-0.0557518
-0.0717627
-0.0979627
-0.132105
-0.157638
-0.164044
-0.188082
-0.378657
-0.692162
-0.797564
-0.595079
-0.367291
-0.245611
-0.161838
-0.126589
-0.0855537
-0.0705825
-0.0583106
-0.0485629
-0.0407827
-0.0345449
-0.0297851
-0.0260069
-0.0229807
-0.0206885
-0.0190397
-0.0179423
-0.017397
0.0169403
0.0163832
0.0153356
0.0137133
0.0114058
0.00831405
0.00430579
-0.000835066
-0.00726277
-0.0152082
-0.0250407
-0.0375469
-0.0533785
-0.0756957
-0.10054
-0.143764
-0.19858
-0.27943
-0.308685
-0.381625
-0.445738
-0.375457
-0.236714
-0.150102
-0.0888384
-0.0750715
-0.0502055
-0.0474567
-0.0423087
-0.0373727
-0.0330651
-0.0292479
-0.0260373
-0.0233319
-0.0209311
-0.0189235
-0.0173315
-0.0161388
-0.0153269
-0.0147889
0.015844
0.0153269
0.0143385
0.0128546
0.0108066
0.00811168
0.00464026
0.00019549
-0.00536876
-0.012263
-0.0208775
-0.0321595
-0.0468481
-0.0669693
-0.0946855
-0.142351
-0.213084
-0.346698
-0.461089
-0.496397
-0.422398
-0.230173
-0.054619
0.00484984
0.0171975
0.00335799
-0.00448153
-0.00934077
-0.0140654
-0.0161119
-0.0167391
-0.0166524
-0.0162749
-0.0155672
-0.0146125
-0.0136981
-0.01288
-0.0122215
-0.0117607
-0.0115306
0.0155863
0.0151869
0.0143883
0.0131797
0.011521
0.00936336
0.00661966
0.00312354
-0.00123351
-0.00661648
-0.0133325
-0.0220402
-0.0335934
-0.0495499
-0.073654
-0.108722
-0.164595
-0.268422
-0.403564
-0.479267
-0.427155
-0.233232
-0.0301717
0.0646314
0.0775527
0.0523212
0.0309716
0.0191609
0.00807361
0.00143301
-0.00274226
-0.00534263
-0.0069317
-0.00776276
-0.00810086
-0.00815443
-0.00804054
-0.00788385
-0.00776212
-0.00777769
0.0160416
0.0157697
0.0152201
0.0143778
0.0132194
0.011731
0.00987741
0.00760047
0.00481013
0.00142713
-0.00275044
-0.00795253
-0.0151823
-0.0243605
-0.0430958
-0.0634163
-0.0965853
-0.14034
-0.211887
-0.274276
-0.267854
-0.168255
-0.0369593
0.0527131
0.0810224
0.0657392
0.0455799
0.0317487
0.020263
0.01234
0.00678655
0.00295179
0.000384735
-0.00127134
-0.0023778
-0.00306164
-0.00348251
-0.00374029
-0.00390053
-0.00398837
0.0170345
0.0168992
0.0165985
0.0161203
0.0154798
0.0146977
0.0138116
0.0128709
0.0118285
0.0106084
0.0090705
0.0069967
0.00351723
-0.000810962
-0.0135271
-0.0272081
-0.0506023
-0.0743873
-0.104173
-0.135493
-0.145692
-0.118749
-0.0577907
0.00282606
0.0315764
0.0427377
0.0367581
0.0285177
0.0217125
0.0157672
0.01122
0.00780158
0.00531039
0.00351407
0.00218757
0.00122015
0.000532618
5.12857e-05
-0.000245554
-0.000359223
0.0183188
0.0182742
0.0181573
0.0180009
0.0178419
0.0177248
0.0177236
0.0179255
0.01834
0.0189425
0.0196407
0.020164
0.0197386
0.017184
0.0127915
-0.00167667
-0.0196413
-0.0521159
-0.0980279
-0.150763
-0.190381
-0.197272
-0.159427
-0.0983544
-0.0448458
-0.00165256
0.0165178
0.01683
0.0168506
0.0145939
0.0123333
0.0102485
0.00845737
0.00697503
0.00576305
0.00481411
0.00409402
0.00357491
0.00325672
0.00312578
0.0196335
0.0196064
0.0196418
0.019767
0.020027
0.0204465
0.021109
0.0221028
0.0234802
0.0253528
0.027658
0.0301804
0.0320503
0.0321471
0.028378
0.0167156
-0.0150256
-0.0719318
-0.155324
-0.250734
-0.325027
-0.32494
-0.253278
-0.1764
-0.0982351
-0.0279256
-0.0069593
0.005455
0.0115945
0.0124765
0.0126163
0.0118675
0.010817
0.00974356
0.00877468
0.00797246
0.00732978
0.00685137
0.00654606
0.00640116
0.0208858
0.020893
0.0210658
0.0213977
0.0219284
0.0226872
0.0237687
0.02523
0.0272039
0.0298711
0.0332309
0.0371563
0.040861
0.042585
0.035654
0.0163087
-0.0202314
-0.0799223
-0.15641
-0.237368
-0.304676
-0.29429
-0.230666
-0.159792
-0.0923211
-0.0403933
-0.013592
0.00220397
0.00957876
0.0125493
0.0137656
0.0137143
0.0131358
0.0123668
0.0115826
0.0108727
0.0102767
0.00982222
0.00952662
0.0093932
0.0219958
0.0220999
0.022348
0.0227684
0.0234062
0.0243203
0.0256039
0.0272909
0.0295275
0.0324402
0.0361247
0.0403124
0.0442074
0.0435128
0.0331457
0.0109615
-0.0236178
-0.0731874
-0.126665
-0.174864
-0.208553
-0.19726
-0.156479
-0.10764
-0.0609124
-0.026432
-0.00564895
0.00630793
0.0121007
0.0149622
0.0160656
0.0160796
0.0156459
0.0149956
0.0142724
0.0135711
0.0129658
0.0124853
0.0121559
0.0120143
0.022769
0.0229303
0.0232097
0.0236536
0.0243001
0.0252019
0.0264209
0.0280038
0.0299673
0.0323332
0.0350527
0.0375261
0.0384455
0.0331365
0.021342
0.000101314
-0.0314619
-0.06973
-0.103278
-0.122745
-0.125335
-0.11092
-0.0850406
-0.053107
-0.0241018
-0.00368118
0.00786669
0.0144293
0.0176003
0.0190703
0.0192596
0.0188676
0.0182288
0.0174808
0.0167003
0.0159663
0.0153373
0.0148372
0.0144705
0.0142606
0.0231569
0.0232937
0.0235698
0.0239846
0.0245547
0.0252766
0.0261652
0.0272394
0.028387
0.0294452
0.0300609
0.0294517
0.0258193
0.0158054
-0.00133178
-0.0255336
-0.0537697
-0.0850911
-0.10448
-0.110687
-0.102614
-0.0808591
-0.0546128
-0.0266098
-0.00348939
0.0101705
0.0174932
0.0213476
0.0231494
0.0233537
0.0227403
0.0217451
0.0207038
0.0196764
0.0187492
0.0179501
0.0172971
0.0167915
0.0164311
0.0161738
0.0233293
0.0234483
0.0236644
0.0239714
0.0243635
0.0248048
0.0252442
0.0256064
0.025727
0.0253443
0.0238002
0.0202613
0.0124177
-0.00273902
-0.0266465
-0.0570431
-0.0912651
-0.121356
-0.140595
-0.141594
-0.127768
-0.0958787
-0.0587956
-0.0266598
-0.00187541
0.0127182
0.0210806
0.0254532
0.0270942
0.0267776
0.025693
0.0242565
0.0227995
0.0214957
0.0203925
0.0194932
0.018782
0.0182546
0.0179065
0.0177345
0.0233943
0.0234982
0.023641
0.0238162
0.0240109
0.0241763
0.0242293
0.0240334
0.0233709
0.0219806
0.0190637
0.0133967
0.00257854
-0.0164097
-0.045877
-0.0828418
-0.125809
-0.160317
-0.183665
-0.186112
-0.159746
-0.118591
-0.0732002
-0.0369084
-0.00887206
0.0106966
0.0225528
0.0281672
0.0298048
0.0289011
0.0275718
0.0258669
0.0242361
0.0228191
0.0216256
0.020653
0.0198914
0.0193474
0.0190156
0.0189571
0.0233446
0.0234148
0.0234952
0.0235825
0.0236488
0.023643
0.0234988
0.0230889
0.0221254
0.0202864
0.0168236
0.0103885
-0.00097137
-0.0197958
-0.0493828
-0.0864099
-0.130144
-0.165628
-0.194919
-0.19839
-0.166342
-0.12506
-0.0795968
-0.0417014
-0.0123146
0.00967513
0.0226792
0.0291859
0.0311277
0.0296898
0.028262
0.026514
0.0249425
0.0235931
0.022444
0.0215085
0.0207874
0.0202862
0.0199859
0.0199027
0.023244
0.0232701
0.0233291
0.0233937
0.0234297
0.0233816
0.0231874
0.0227379
0.0218128
0.0200571
0.0168647
0.0114474
0.00198626
-0.0131645
-0.0363404
-0.0654367
-0.0994833
-0.13095
-0.156017
-0.162435
-0.141327
-0.111128
-0.0753307
-0.0415928
-0.0145045
0.00611214
0.0195327
0.0271749
0.029938
0.0293071
0.0279439
0.0263734
0.0249922
0.0238067
0.0228006
0.0219914
0.021377
0.0209475
0.0206657
0.0204886
0.0232007
0.0232407
0.0232937
0.0233508
0.023387
0.023363
0.0232143
0.0228599
0.0222056
0.020989
0.0188605
0.0153101
0.00909081
-0.0010243
-0.0166449
-0.0366842
-0.0596671
-0.0837764
-0.10147
-0.11039
-0.108109
-0.0936373
-0.0708077
-0.0437322
-0.0200949
-0.000819925
0.013265
0.0218701
0.0259257
0.0268363
0.0262827
0.0253373
0.0243208
0.0234005
0.0225842
0.0219238
0.0214055
0.0210255
0.0207591
0.0205872
0.0231611
0.0232203
0.0232813
0.023348
0.0234082
0.0234506
0.0234406
0.0233275
0.0230818
0.0225223
0.0214904
0.0195602
0.0160264
0.00957185
-0.000934529
-0.0159475
-0.0340005
-0.0544798
-0.0705042
-0.083108
-0.0894331
-0.0860155
-0.0712959
-0.050576
-0.030384
-0.0123058
0.00230928
0.0128672
0.0192273
0.0222475
0.0231179
0.0232117
0.0228316
0.022318
0.0217956
0.0213288
0.0209309
0.0206252
0.0204223
0.0203422
0.0229703
0.0229986
0.0230674
0.0231701
0.0233076
0.0234766
0.0236735
0.0238814
0.0240641
0.0241272
0.0238634
0.0228488
0.0206398
0.0157896
0.00720287
-0.00686133
-0.0257625
-0.0476837
-0.0692727
-0.0873038
-0.0955532
-0.0949117
-0.0840563
-0.067499
-0.0487242
-0.0291549
-0.011578
0.00214938
0.0114874
0.0166812
0.0192303
0.0204223
0.020831
0.0208791
0.0207547
0.0205523
0.0203381
0.020157
0.0200409
0.0200057
0.0226563
0.0226183
0.0226856
0.0228252
0.0230504
0.0233516
0.0237414
0.0242288
0.0247988
0.0252904
0.0255981
0.0250116
0.0226667
0.017447
0.00826521
-0.00642857
-0.027254
-0.0524549
-0.0812237
-0.106059
-0.119849
-0.119279
-0.107396
-0.0908854
-0.0689838
-0.0452942
-0.0238593
-0.00706471
0.00485822
0.011811
0.015794
0.0178559
0.0189494
0.019519
0.0197664
0.0198335
0.0198092
0.0197436
0.0196784
0.0196203
0.0222766
0.0222548
0.0223237
0.0224778
0.0227359
0.0230926
0.0235509
0.0241465
0.0248483
0.025519
0.0261882
0.0256796
0.0230046
0.017012
0.0065184
-0.00882368
-0.0308013
-0.0569503
-0.0884
-0.117322
-0.138131
-0.136792
-0.121843
-0.103423
-0.0782472
-0.052071
-0.0289798
-0.0110012
0.00148939
0.00912488
0.0136798
0.0161764
0.0176047
0.0184209
0.0188908
0.0191285
0.0192337
0.0192546
0.0192322
0.0191522
0.0217585
0.0218143
0.0219088
0.0220569
0.0222841
0.0225954
0.0229999
0.0235054
0.02412
0.0246883
0.0251515
0.0241786
0.0208912
0.0145731
0.00395994
-0.0114973
-0.03194
-0.0564756
-0.0845575
-0.109569
-0.128081
-0.12641
-0.11111
-0.0923413
-0.06725
-0.0442194
-0.0242863
-0.00870183
0.00208725
0.00893754
0.0131422
0.0155535
0.0169976
0.017779
0.0182582
0.0185202
0.0186513
0.0186904
0.0186928
0.0186466
0.0210035
0.0210918
0.0211854
0.021306
0.0214732
0.0216914
0.0219692
0.0222822
0.0226218
0.022811
0.0224408
0.020663
0.0164833
0.00914662
-0.00156765
-0.0159725
-0.0338603
-0.0543606
-0.0742034
-0.0887215
-0.0975519
-0.0930033
-0.0805694
-0.0639999
-0.0452753
-0.027869
-0.0133542
-0.00196292
0.00593948
0.0109538
0.0140443
0.015867
0.0169639
0.0175758
0.0179394
0.0181361
0.0182226
0.0182478
0.0182535
0.0182524
0.0200352
0.0200638
0.0201121
0.0201824
0.0202732
0.0203722
0.0204615
0.0204909
0.0203437
0.0197673
0.0182821
0.0151697
0.00983773
0.00157687
-0.00942297
-0.0229498
-0.0384035
-0.0547145
-0.0667551
-0.072341
-0.0693866
-0.0632808
-0.0534842
-0.0391238
-0.0249221
-0.0123745
-0.00190916
0.00584971
0.0108991
0.0139038
0.0156759
0.0167299
0.0173359
0.0176785
0.0178795
0.0179779
0.0180172
0.0180254
0.0180174
0.0180065
0.0190171
0.0189686
0.0189533
0.018949
0.018934
0.0188642
0.0186957
0.0183313
0.0175565
0.0160901
0.013318
0.00834704
0.00105683
-0.00882304
-0.0204598
-0.0334536
-0.0464707
-0.0591682
-0.0674743
-0.0685138
-0.0637967
-0.0540957
-0.0415424
-0.0269619
-0.0135544
-0.00215481
0.00647805
0.0120718
0.0150756
0.016619
0.0173749
0.0176981
0.0178431
0.017892
0.0178939
0.0178698
0.0178432
0.0178123
0.0177847
0.0177618
0.0180699
0.0180321
0.0179864
0.0179084
0.0177653
0.0174993
0.0170417
0.016253
0.0148862
0.0125669
0.00853004
0.00184843
-0.00770131
-0.020055
-0.0343563
-0.0487551
-0.0619488
-0.0731599
-0.0803515
-0.0798625
-0.0734477
-0.0591154
-0.0414126
-0.0243871
-0.00922441
0.00268695
0.0110949
0.0156788
0.0178333
0.018652
0.018688
0.0185054
0.0182362
0.0179773
0.0177677
0.0176031
0.01749
0.017418
0.0173826
0.0173953
0.0171969
0.01722
0.0171677
0.0170439
0.0167977
0.0163823
0.0157175
0.0146342
0.0128801
0.0100009
0.00521465
-0.00235644
-0.0134418
-0.0279763
-0.0450084
-0.0619685
-0.0774114
-0.0890474
-0.0977774
-0.09747
-0.0831853
-0.0642077
-0.0429883
-0.024157
-0.00814317
0.00384701
0.0120391
0.0166011
0.0189467
0.0196254
0.019329
0.0188101
0.0182771
0.0178136
0.017467
0.0172099
0.0170345
0.0169356
0.0169018
0.016949
0.0163536
0.0164007
0.0163381
0.0161899
0.0159076
0.0154707
0.0147646
0.0136421
0.0118841
0.00896781
0.00435105
-0.00288327
-0.0135396
-0.0276671
-0.0445276
-0.0620382
-0.0791998
-0.0913406
-0.100885
-0.100682
-0.0839367
-0.0647329
-0.0428128
-0.0243486
-0.00908001
0.00264788
0.010758
0.0156291
0.0182677
0.0190408
0.0188445
0.0183805
0.0178166
0.0173791
0.0170288
0.0167714
0.0165918
0.0164857
0.016435
0.0164369
0.0155823
0.0155782
0.0155185
0.0153996
0.0151776
0.01482
0.0142438
0.0133354
0.0118649
0.00955015
0.00570246
-5.67393e-05
-0.00835188
-0.0193768
-0.0327501
-0.0475506
-0.0625752
-0.0741971
-0.0829466
-0.0844892
-0.0739168
-0.0596586
-0.042449
-0.0263886
-0.0126263
-0.00157008
0.00653015
0.0119743
0.0152564
0.0168148
0.0172278
0.0171092
0.0168031
0.0165291
0.0162962
0.01612
0.0159933
0.0159072
0.0158401
0.0157801
0.0150001
0.0149686
0.0149238
0.0148478
0.0147084
0.0144782
0.0141085
0.0135169
0.0126007
0.0110917
0.00858859
0.00467945
-0.00101114
-0.00851027
-0.0176736
-0.0285195
-0.0400062
-0.0503842
-0.05789
-0.0617364
-0.0607374
-0.0541328
-0.0434508
-0.0306606
-0.0187062
-0.00828284
3.18589e-05
0.00645738
0.0107461
0.0132708
0.0145861
0.0150426
0.0151733
0.0151895
0.0151426
0.0150882
0.0150436
0.0150037
0.0149696
0.0149213
0.014581
0.014575
0.01456
0.0145251
0.0144603
0.0143584
0.0141965
0.013926
0.0135321
0.0128368
0.011581
0.00936694
0.00572147
0.000415734
-0.00657044
-0.0153528
-0.0248962
-0.0350795
-0.0435758
-0.0501294
-0.0528232
-0.0518837
-0.0456799
-0.03598
-0.0259894
-0.0161669
-0.00750036
-0.000380957
0.0049735
0.00877716
0.0111954
0.0124675
0.0131755
0.013547
0.0137198
0.0138068
0.0138483
0.0138735
0.0138992
0.0139371
0.0141384
0.0141475
0.0141544
0.0141651
0.014182
0.0142146
0.0142522
0.014294
0.0143182
0.0142777
0.0138835
0.0129203
0.010658
0.00642837
-2.24308e-05
-0.0088047
-0.0194883
-0.0311223
-0.0421996
-0.050946
-0.0552275
-0.056955
-0.0527983
-0.0451576
-0.035983
-0.0263163
-0.0167602
-0.00817647
-0.00104363
0.004295
0.00777258
0.00993358
0.0112034
0.0119346
0.0123585
0.0126091
0.0127507
0.0128455
0.012917
0.0129925
0.0135927
0.0135647
0.0135757
0.0136236
0.0137174
0.0138679
0.0140779
0.0143745
0.0147045
0.0150307
0.0151655
0.0147144
0.013024
0.00961445
0.00350304
-0.0053663
-0.0170092
-0.0303058
-0.0445418
-0.0569152
-0.0659914
-0.0688451
-0.0650719
-0.058057
-0.0483283
-0.0370709
-0.0256148
-0.014809
-0.00597329
0.000618175
0.00509347
0.00791261
0.00961052
0.0106553
0.0113005
0.0117027
0.0119397
0.012076
0.0121474
0.0121666
0.0130002
0.012956
0.012969
0.0130317
0.0131607
0.0133613
0.0136605
0.014042
0.0145047
0.0149356
0.0153047
0.0148442
0.0131259
0.0100777
0.0045552
-0.00382064
-0.0149257
-0.0286091
-0.0445019
-0.0593244
-0.0736864
-0.0770647
-0.0732521
-0.0659147
-0.0544763
-0.0420558
-0.0292719
-0.0173943
-0.00801801
-0.00108697
0.00369956
0.00670096
0.00857209
0.0097346
0.0104867
0.0109627
0.0112587
0.0114051
0.0114727
0.0114322
0.0123503
0.0123542
0.0123886
0.0124488
0.0125555
0.0127132
0.0129441
0.01323
0.0135627
0.0137505
0.0136827
0.012824
0.0107743
0.00733877
0.00187315
-0.00599977
-0.0160313
-0.0283816
-0.0425123
-0.0562589
-0.0679335
-0.0706161
-0.06644
-0.0589826
-0.0480456
-0.0362981
-0.0246054
-0.0142942
-0.00632153
-0.000278102
0.00384704
0.00646798
0.00815386
0.00920844
0.00988355
0.0102968
0.0105647
0.0107081
0.010772
0.0107414
0.0115741
0.011617
0.0116434
0.0116638
0.0116938
0.0117364
0.0117897
0.0118222
0.0117948
0.011479
0.0105904
0.00882815
0.00589466
0.00158409
-0.00430741
-0.0119028
-0.0207625
-0.030631
-0.0405152
-0.0487231
-0.0536321
-0.0531527
-0.048581
-0.0415445
-0.0326027
-0.0233943
-0.0148124
-0.00761875
-0.00195706
0.00236962
0.00527014
0.00715871
0.0083468
0.00908257
0.00954272
0.0098231
0.00999689
0.0100918
0.0101455
0.01017
0.0106393
0.0106439
0.0106207
0.0105773
0.0105144
0.0104179
0.0102549
0.00995712
0.00940976
0.00843755
0.00664373
0.00392073
2.57538e-05
-0.00525053
-0.0116722
-0.0191374
-0.0269959
-0.0343904
-0.0396363
-0.0420974
-0.0415143
-0.0380782
-0.0325235
-0.0256623
-0.018513
-0.011564
-0.00560397
-0.000821035
0.00289722
0.00551637
0.00722533
0.00824962
0.00887967
0.00924822
0.00947268
0.00961073
0.00969477
0.00974143
0.00976836
0.00979442
0.00966243
0.00958671
0.00950535
0.00940349
0.00925432
0.00902261
0.00864458
0.00801409
0.00695947
0.00520228
0.00245218
-0.0014309
-0.00642034
-0.0125605
-0.0194534
-0.0268385
-0.0339068
-0.0396504
-0.0421265
-0.0409251
-0.0382422
-0.0327046
-0.0255473
-0.0178123
-0.010433
-0.00410789
0.000812756
0.00445626
0.00690941
0.00824814
0.00900148
0.00926028
0.00941004
0.00946612
0.00949819
0.00951075
0.0095179
0.00951788
0.00951365
0.0095043
0.00879767
0.00872256
0.00862063
0.00847289
0.00824334
0.00787869
0.00730678
0.00638234
0.00487334
0.00241227
-0.00126057
-0.00640929
-0.0129763
-0.0206335
-0.0287338
-0.0367184
-0.0435733
-0.0486638
-0.0499512
-0.0464055
-0.0409134
-0.0332441
-0.0238694
-0.0143905
-0.00617059
0.000388946
0.00505136
0.00798702
0.00963564
0.0101327
0.0100832
0.00989878
0.00969465
0.00949311
0.0093564
0.00925453
0.00918986
0.00914849
0.00913116
0.00912822
0.00808493
0.00807504
0.00799195
0.00783377
0.00754363
0.00707783
0.00635327
0.00526638
0.00345362
0.000570767
-0.00375173
-0.00974224
-0.0176228
-0.0268254
-0.0363292
-0.045631
-0.0529455
-0.0582362
-0.0595692
-0.0540033
-0.0441247
-0.0333054
-0.0216413
-0.0109525
-0.00270053
0.00341524
0.00742394
0.00956273
0.0106804
0.0108388
0.0104428
0.0100513
0.00957711
0.00924016
0.00898417
0.00880439
0.00869031
0.00863228
0.00861935
0.00866135
0.00745631
0.00749901
0.00742756
0.00726031
0.00696653
0.00650271
0.00576838
0.0046395
0.00286831
5.48992e-05
-0.00411443
-0.0098978
-0.0175358
-0.0268111
-0.036517
-0.0459056
-0.0535897
-0.0588594
-0.0602137
-0.0546679
-0.044086
-0.032197
-0.0203339
-0.0100574
-0.00247915
0.00318055
0.0067632
0.00868585
0.00985427
0.0101545
0.00985635
0.00951226
0.00909136
0.00875161
0.00849279
0.00831166
0.00819479
0.00813824
0.00812157
0.00814868
0.00689279
0.00690214
0.00684026
0.00671166
0.00648352
0.00611964
0.00554063
0.00463302
0.00322659
0.00103119
-0.002277
-0.0067544
-0.0125228
-0.019723
-0.0276228
-0.0354907
-0.0423289
-0.0474736
-0.0495918
-0.0467584
-0.0404228
-0.0313843
-0.0221525
-0.0138088
-0.00707434
-0.00159724
0.00231945
0.00496674
0.00674467
0.00773143
0.00810208
0.00818589
0.0080663
0.00792328
0.00779978
0.0077146
0.00765745
0.00762332
0.00759641
0.00757652
0.00647416
0.00644436
0.00640042
0.0063278
0.00620416
0.00600041
0.00565964
0.0051256
0.00427018
0.00293631
0.000846165
-0.002087
-0.00573927
-0.0103887
-0.0158296
-0.0216672
-0.0273516
-0.0320583
-0.0354145
-0.036338
-0.0350392
-0.0311693
-0.0261882
-0.0204259
-0.0142886
-0.00880675
-0.0041608
-0.000481516
0.00229056
0.00425659
0.00548358
0.00615001
0.00649196
0.00666808
0.00676615
0.00682944
0.0068722
0.00689761
0.00690166
0.00687243
0.00622579
0.00621385
0.00620237
0.00618224
0.00614155
0.00607546
0.00595369
0.00575669
0.00541575
0.00484597
0.0038005
0.00213798
-0.000188734
-0.00327766
-0.00722378
-0.012008
-0.0172463
-0.0221871
-0.0269007
-0.0301045
-0.0318921
-0.0325183
-0.0308446
-0.0266512
-0.0212541
-0.0157624
-0.01055
-0.00598678
-0.00233536
0.000452284
0.00248947
0.00383321
0.00467435
0.00519502
0.00552549
0.00572819
0.00586231
0.0059564
0.00602078
0.00605954
0.00600017
0.00601486
0.00602968
0.00605024
0.00607122
0.00610528
0.00615159
0.00622095
0.00626386
0.00622922
0.0060029
0.00527625
0.00371851
0.00133406
-0.0021685
-0.00683965
-0.0125074
-0.0186167
-0.0245539
-0.029474
-0.0332892
-0.0368807
-0.0368926
-0.0337924
-0.0288777
-0.0231734
-0.0172247
-0.0116761
-0.00691063
-0.00309543
-0.000227025
0.00177575
0.0030671
0.00388707
0.00439965
0.00472444
0.00493748
0.00508702
0.00519963
0.0052912
0.00566907
0.00566211
0.00567686
0.00571435
0.00578504
0.00590157
0.00607653
0.00630339
0.00660392
0.00690293
0.00715784
0.0071238
0.00630219
0.00465857
0.0017281
-0.0026551
-0.00847521
-0.0159616
-0.0238603
-0.0312142
-0.0381122
-0.0438248
-0.0447513
-0.0420425
-0.0372403
-0.0308685
-0.023821
-0.0168851
-0.0107378
-0.00586352
-0.00224727
0.000304695
0.00195098
0.00298841
0.00364534
0.00407589
0.00435063
0.00452245
0.00462897
0.00468429
0.00526544
0.00522433
0.00522666
0.00526617
0.0053582
0.00550896
0.00574014
0.00604599
0.0064347
0.00686154
0.00722821
0.00746718
0.00713941
0.00611179
0.00386932
2.64214e-06
-0.00544302
-0.0134643
-0.0226179
-0.0320669
-0.0407725
-0.0475248
-0.0488349
-0.046305
-0.0413971
-0.0344547
-0.0267857
-0.0190946
-0.0123424
-0.00705775
-0.00315953
-0.000414291
0.00132134
0.00245955
0.00319542
0.00367795
0.00398095
0.00414593
0.00422473
0.00421504
0.00483786
0.00481424
0.00482293
0.00485186
0.00491986
0.00502643
0.00518255
0.00538988
0.00564029
0.00582962
0.00586191
0.00566309
0.00495611
0.00359882
0.00132369
-0.00226694
-0.00729317
-0.0139142
-0.0221252
-0.0306474
-0.0378783
-0.0430507
-0.0435216
-0.0407641
-0.0360809
-0.0297608
-0.0229438
-0.0163034
-0.010532
-0.00600662
-0.00265623
-0.000300547
0.00124558
0.00226424
0.00291643
0.00334868
0.00362479
0.00378007
0.00384899
0.00381914
0.00435888
0.00437838
0.00438019
0.00436776
0.00435106
0.00433196
0.00431122
0.00425788
0.00411882
0.00378161
0.00306827
0.00190169
0.000210231
-0.00208878
-0.00507575
-0.00888979
-0.0134754
-0.0182662
-0.0233228
-0.0281924
-0.0314926
-0.0330349
-0.0316905
-0.0286192
-0.0244451
-0.0195266
-0.0145572
-0.00998687
-0.006202
-0.0032023
-0.000914138
0.000670531
0.00173725
0.00242341
0.00287034
0.00315837
0.00333772
0.00344213
0.00349822
0.00351052
0.00376954
0.00377184
0.00373432
0.00365995
0.00354411
0.0033762
0.00312743
0.00274734
0.00214866
0.00119919
-0.00023277
-0.00232921
-0.00502934
-0.00831822
-0.0121402
-0.0162116
-0.0204
-0.0236963
-0.0255377
-0.026392
-0.0262303
-0.0242149
-0.0214663
-0.0179722
-0.0141081
-0.0102336
-0.00680548
-0.0039421
-0.00173432
-2.46916e-05
0.00124483
0.00204327
0.00255998
0.00286561
0.00305688
0.00318213
0.00325794
0.0033024
0.00333107
0.00335988
0.00313201
0.00306855
0.0029753
0.00284005
0.00264448
0.00235743
0.00192075
0.00124169
0.000229647
-0.00129501
-0.00340626
-0.00622938
-0.00978784
-0.0139665
-0.0185428
-0.0229747
-0.0268397
-0.0290626
-0.0290012
-0.0268281
-0.0241271
-0.0205074
-0.0166297
-0.0124304
-0.00816196
-0.00451535
-0.00171564
0.000314255
0.00168702
0.0025685
0.00301805
0.003235
0.00331942
0.00333609
0.00333338
0.00333298
0.00333617
0.00333498
0.00333027
0.00332574
0.00260701
0.00252073
0.00239803
0.00222384
0.00197078
0.00159629
0.00103271
0.000139271
-0.00124187
-0.00326058
-0.00606126
-0.00976238
-0.014437
-0.0197392
-0.0252316
-0.0301887
-0.0338754
-0.0354529
-0.0341471
-0.0299074
-0.0248943
-0.0194515
-0.0139813
-0.00874867
-0.00408931
-0.00057865
0.00184198
0.00333638
0.00409661
0.00427828
0.0041389
0.00393877
0.00373972
0.00357366
0.00345115
0.0033642
0.00331323
0.00328288
0.0032646
0.00324942
0.00224968
0.0022103
0.00210874
0.00193162
0.00165288
0.00121718
0.000576644
-0.000448578
-0.00205554
-0.00446223
-0.00777074
-0.0122814
-0.017958
-0.0242696
-0.0306265
-0.0361413
-0.0401369
-0.0412132
-0.0391655
-0.0332117
-0.0259938
-0.0184996
-0.0111572
-0.00488743
-0.000206867
0.00283422
0.00461261
0.00537821
0.00542143
0.00504278
0.0045654
0.00413317
0.00378322
0.00351293
0.00331524
0.00317475
0.00309021
0.00304926
0.00303935
0.00306448
0.00200991
0.0020225
0.00194984
0.00179131
0.00151437
0.00108246
0.000420275
-0.000607946
-0.00218316
-0.0045727
-0.0078
-0.0123021
-0.0179258
-0.024133
-0.0303183
-0.0356643
-0.039676
-0.04079
-0.0388021
-0.0331945
-0.02587
-0.0181308
-0.0105362
-0.0043002
0.000132345
0.002895
0.00446516
0.00508394
0.00502083
0.00466844
0.00429211
0.00386009
0.00351165
0.00324028
0.00304392
0.00291129
0.002831
0.00279737
0.0027967
0.00283793
0.00185085
0.00186255
0.00179952
0.00167292
0.00145008
0.0011034
0.00056318
-0.000258973
-0.00149153
-0.00334965
-0.00587352
-0.00926301
-0.0134796
-0.0182303
-0.0231177
-0.0274745
-0.0313214
-0.0330892
-0.0326985
-0.0294298
-0.0246547
-0.019074
-0.0134907
-0.00851544
-0.00456977
-0.00165093
0.000381525
0.00168907
0.00242786
0.00282679
0.00297093
0.00294184
0.00284261
0.00275161
0.00267819
0.00263344