/*--------------------------------*- C++ -*----------------------------------*\
| =========                 |                                                 |
| \\      /  F ield         | OpenFOAM: The Open Source CFD Toolbox           |
|  \\    /   O peration     | Version:  v2106                                 |
|   \\  /    A nd           | Website:  www.openfoam.com                      |
|    \\/     M anipulation  |                                                 |
\*---------------------------------------------------------------------------*/
FoamFile
{
    version     2.0;
    format      ascii;
    arch        "LSB;label=32;scalar=64";
    class       pointVectorField;
    location    "0";
    object      pointDisplacement;
}
// * * * * * * * * * * * * * * * * * * * * * * * * * * * * * * * * * * * * * //

dimensions      [0 1 0 0 0 0 0];

internalField   nonuniform List<vector> 
24440
(
(0 0 0)
(0 0 0)
(0 0 0)
(0 0 0)
(0 0 0)
(0 0 0)
(0 0 0)
(0 0 0)
(0 0 0)
(0 0 0)
(0 0 0)
(0 0 0)
(0 0 0)
(0 0 0)
(0 0 0)
(0 0 0)
(0 0 0)
(0 0 0)
(0 0 0)
(0 0 0)
(0 0 0)
(0 0 0)
(0 0 0)
(0 0 0)
(0 0 0)
(0 0 0)
(0 0 0)
(0 0 0)
(0 0 0)
(0 0 0)
(0 0 0)
(0 0 0)
(0 0 0)
(0 0 0)
(0 0 0)
(0 0 0)
(0 0 0)
(0 0 0)
(0 0 0)
(0 0 0)
(0 0 0)
(0 0 0)
(0 0 0)
(0 0 0)
(0 0 0)
(0 0 0)
(0 0 0)
(0 0 0)
(0 0 0)
(0 0 0)
(0 0 0)
(0 0 0)
(0 0 0)
(0 0 0)
(0 0 0)
(0 0 0)
(0 0 0)
(0 0 0)
(0 0 0)
(0 0 0)
(0 0 0)
(0 0 0)
(0 0 0)
(0 0 0)
(0 0 0)
(0 0 0)
(0 0 0)
(0 0 0)
(0 0 0)
(0 0 0)
(0 0 0)
(0 0 0)
(0 0 0)
(0 0 0)
(0 0 0)
(0 0 0)
(0 0 0)
(0 0 0)
(0 0 0)
(0 0 0)
(0 0 0)
(0 0 0)
(0 0 0)
(0 0 0)
(0 0 0)
(0 0 0)
(0 0 0)
(0 0 0)
(0 0 0)
(0 0 0)
(0 0 0)
(0 0 0)
(0 0 0)
(0 0 0)
(0 0 0)
(0 0 0)
(0 0 0)
(0 0 0)
(0 -2.78345e-08 0)
(0 -1.75526e-07 0)
(0 -4.8266e-07 0)
(0 -7.43755e-07 0)
(0 -8.43956e-07 0)
(0 -7.43755e-07 0)
(0 -4.8266e-07 0)
(0 -1.75526e-07 0)
(0 -2.78345e-08 0)
(0 0 0)
(0 0 0)
(0 0 0)
(0 0 0)
(0 0 0)
(0 0 0)
(0 0 0)
(0 0 0)
(0 0 0)
(0 0 0)
(0 0 0)
(0 0 0)
(0 0 0)
(0 0 0)
(0 0 0)
(0 0 0)
(0 0 0)
(0 0 0)
(0 0 0)
(0 0 0)
(0 0 0)
(0 0 0)
(0 0 0)
(0 0 0)
(0 0 0)
(0 0 0)
(0 0 0)
(0 0 0)
(0 0 0)
(0 -4.66153e-08 0)
(0 -6.16643e-07 0)
(0 -1.81473e-06 0)
(0 -3.26913e-06 0)
(0 -4.6631e-06 0)
(0 -5.6349e-06 0)
(0 -6.53829e-06 0)
(0 -6.85615e-06 0)
(0 -6.53829e-06 0)
(0 -5.6349e-06 0)
(0 -4.6631e-06 0)
(0 -3.26913e-06 0)
(0 -1.81473e-06 0)
(0 -6.16643e-07 0)
(0 -4.66153e-08 0)
(0 0 0)
(0 0 0)
(0 0 0)
(0 0 0)
(0 0 0)
(0 0 0)
(0 0 0)
(0 0 0)
(0 0 0)
(0 0 0)
(0 0 0)
(0 0 0)
(0 0 0)
(0 0 0)
(0 0 0)
(0 0 0)
(0 0 0)
(0 0 0)
(0 0 0)
(0 0 0)
(0 0 0)
(0 0 0)
(0 0 0)
(0 0 0)
(0 -1.95718e-08 0)
(0 -8.10944e-07 0)
(0 -2.76557e-06 0)
(0 -5.45368e-06 0)
(0 -8.22241e-06 0)
(0 -1.13113e-05 0)
(0 -1.39865e-05 0)
(0 -1.56434e-05 0)
(0 -1.72277e-05 0)
(0 -1.77752e-05 0)
(0 -1.72277e-05 0)
(0 -1.56434e-05 0)
(0 -1.39865e-05 0)
(0 -1.13113e-05 0)
(0 -8.22241e-06 0)
(0 -5.45368e-06 0)
(0 -2.76557e-06 0)
(0 -8.10944e-07 0)
(0 -1.95718e-08 0)
(0 0 0)
(0 0 0)
(0 0 0)
(0 0 0)
(0 0 0)
(0 0 0)
(0 0 0)
(0 0 0)
(0 0 0)
(0 0 0)
(0 0 0)
(0 0 0)
(0 0 0)
(0 0 0)
(0 0 0)
(0 0 0)
(0 0 0)
(0 0 0)
(0 0 0)
(0 0 0)
(0 0 0)
(0 -1.85061e-07 0)
(0 -1.92453e-06 0)
(0 -5.11454e-06 0)
(0 -8.97353e-06 0)
(0 -1.37648e-05 0)
(0 -1.85974e-05 0)
(0 -2.27838e-05 0)
(0 -2.67055e-05 0)
(0 -2.94884e-05 0)
(0 -3.11511e-05 0)
(0 -3.19143e-05 0)
(0 -3.11511e-05 0)
(0 -2.94884e-05 0)
(0 -2.67055e-05 0)
(0 -2.27838e-05 0)
(0 -1.85974e-05 0)
(0 -1.37648e-05 0)
(0 -8.97353e-06 0)
(0 -5.11454e-06 0)
(0 -1.92453e-06 0)
(0 -1.95918e-07 0)
(0 0 0)
(0 0 0)
(0 0 0)
(0 0 0)
(0 0 0)
(0 0 0)
(0 0 0)
(0 0 0)
(0 0 0)
(0 0 0)
(0 0 0)
(0 0 0)
(0 0 0)
(0 0 0)
(0 0 0)
(0 0 0)
(0 0 0)
(0 0 0)
(0 0 0)
(0 -3.63973e-07 0)
(0 -2.55218e-06 0)
(0 -6.36992e-06 0)
(0 -1.16942e-05 0)
(0 -1.80219e-05 0)
(0 -2.45973e-05 0)
(0 -3.06314e-05 0)
(0 -3.63519e-05 0)
(0 -3.85014e-05 0)
(0 -4.0826e-05 0)
(0 -4.27703e-05 0)
(0 -4.43023e-05 0)
(0 -4.53978e-05 0)
(0 -4.61553e-05 0)
(0 -4.68551e-05 0)
(0 -4.70895e-05 0)
(0 -4.68551e-05 0)
(0 -4.61553e-05 0)
(0 -4.53978e-05 0)
(0 -4.43023e-05 0)
(0 -4.27703e-05 0)
(0 -4.0826e-05 0)
(0 -3.85014e-05 0)
(0 -3.63519e-05 0)
(0 -3.06314e-05 0)
(0 -2.45973e-05 0)
(0 -1.80219e-05 0)
(0 -1.16942e-05 0)
(0 -6.2377e-06 0)
(0 -2.30615e-06 0)
(0 -2.90838e-07 0)
(0 0 0)
(0 0 0)
(0 0 0)
(0 0 0)
(0 0 0)
(0 0 0)
(0 0 0)
(0 0 0)
(0 0 0)
(0 0 0)
(0 0 0)
(0 0 0)
(0 0 0)
(0 0 0)
(0 0 0)
(0 0 0)
(0 0 0)
(0 -2.14083e-07 0)
(0 -2.44995e-06 0)
(0 -6.82601e-06 0)
(0 -1.28445e-05 0)
(0 -1.98943e-05 0)
(0 -2.81888e-05 0)
(0 -3.21548e-05 0)
(0 -3.56702e-05 0)
(0 -3.9561e-05 0)
(0 -4.32079e-05 0)
(0 -4.65445e-05 0)
(0 -4.93791e-05 0)
(0 -4.30346e-05 0)
(0 -4.56622e-05 0)
(0 -4.77358e-05 0)
(0 -4.98274e-05 0)
(0 -5.14681e-05 0)
(0 -5.26374e-05 0)
(0 -5.33383e-05 0)
(0 -5.40812e-05 0)
(0 -5.43296e-05 0)
(0 -5.40812e-05 0)
(0 -5.33383e-05 0)
(0 -5.26374e-05 0)
(0 -5.14681e-05 0)
(0 -4.98274e-05 0)
(0 -4.77358e-05 0)
(0 -4.56622e-05 0)
(0 -4.30346e-05 0)
(0 -4.93791e-05 0)
(0 -4.65445e-05 0)
(0 -4.32079e-05 0)
(0 -3.9561e-05 0)
(0 -3.56702e-05 0)
(0 -3.21548e-05 0)
(0 -2.81888e-05 0)
(0 -1.98943e-05 0)
(0 -1.28445e-05 0)
(0 -6.57701e-06 0)
(0 -2.34336e-06 0)
(0 -1.94418e-07 0)
(0 0 0)
(0 0 0)
(0 0 0)
(0 0 0)
(0 0 0)
(0 0 0)
(0 0 0)
(0 0 0)
(0 0 0)
(0 0 0)
(0 0 0)
(0 0 0)
(0 0 0)
(0 0 0)
(0 0 0)
(0 0 0)
(0 -1.35454e-06 0)
(0 -5.53554e-06 0)
(0 -1.18342e-05 0)
(0 -1.97461e-05 0)
(0 -2.85581e-05 0)
(0 -3.7512e-05 0)
(0 -3.30174e-05 0)
(0 -3.73303e-05 0)
(0 -4.14804e-05 0)
(0 -4.5388e-05 0)
(0 -4.88598e-05 0)
(0 -5.23808e-05 0)
(0 -5.54921e-05 0)
(0 -5.80626e-05 0)
(0 -5.2171e-05 0)
(0 -5.45227e-05 0)
(0 -6.04864e-05 0)
(0 -6.22316e-05 0)
(0 -5.63936e-05 0)
(0 -5.81053e-05 0)
(0 -6.39674e-05 0)
(0 -6.51892e-05 0)
(0 -5.93196e-05 0)
(0 -5.9935e-05 0)
(0 -6.58973e-05 0)
(0 -6.64593e-05 0)
(0 -6.07011e-05 0)
(0 -6.09568e-05 0)
(0 -6.67131e-05 0)
(0 -6.64593e-05 0)
(0 -6.07011e-05 0)
(0 -5.9935e-05 0)
(0 -6.58973e-05 0)
(0 -6.51892e-05 0)
(0 -5.93196e-05 0)
(0 -5.81053e-05 0)
(0 -6.39674e-05 0)
(0 -6.22316e-05 0)
(0 -5.63936e-05 0)
(0 -5.45227e-05 0)
(0 -6.04864e-05 0)
(0 -5.80626e-05 0)
(0 -5.2171e-05 0)
(0 -5.54921e-05 0)
(0 -5.23808e-05 0)
(0 -4.88598e-05 0)
(0 -4.5388e-05 0)
(0 -4.14804e-05 0)
(0 -3.73303e-05 0)
(0 -3.30174e-05 0)
(0 -3.7512e-05 0)
(0 -2.85581e-05 0)
(0 -1.95084e-05 0)
(0 -1.17408e-05 0)
(0 -5.52963e-06 0)
(0 -1.4726e-06 0)
(0 0 0)
(0 0 0)
(0 0 0)
(0 0 0)
(0 0 0)
(0 0 0)
(0 0 0)
(0 0 0)
(0 0 0)
(0 0 0)
(0 0 0)
(0 0 0)
(0 0 0)
(0 0 0)
(0 0 0)
(0 -2.95492e-07 0)
(0 -3.03579e-06 0)
(0 -8.75063e-06 0)
(0 -1.63952e-05 0)
(0 -2.54832e-05 0)
(0 -3.58953e-05 0)
(0 -4.59245e-05 0)
(0 -4.20215e-05 0)
(0 -4.65649e-05 0)
(0 -4.18114e-05 0)
(0 -4.64876e-05 0)
(0 -5.08356e-05 0)
(0 -5.51198e-05 0)
(0 -5.06031e-05 0)
(0 -5.43616e-05 0)
(0 -5.89825e-05 0)
(0 -6.07437e-05 0)
(0 -6.23832e-05 0)
(0 -6.01541e-05 0)
(0 -5.75342e-05 0)
(0 -6.07269e-05 0)
(0 -6.30165e-05 0)
(0 -6.4431e-05 0)
(0 -6.21406e-05 0)
(0 -6.55794e-05 0)
(0 -6.77512e-05 0)
(0 -6.87562e-05 0)
(0 -6.65996e-05 0)
(0 -6.88481e-05 0)
(0 -7.09729e-05 0)
(0 -7.15025e-05 0)
(0 -6.95026e-05 0)
(0 -7.07053e-05 0)
(0 -7.26523e-05 0)
(0 -7.29295e-05 0)
(0 -7.10274e-05 0)
(0 -7.13737e-05 0)
(0 -7.32346e-05 0)
(0 -7.31785e-05 0)
(0 -7.13141e-05 0)
(0 -7.07053e-05 0)
(0 -7.26523e-05 0)
(0 -7.23896e-05 0)
(0 -7.0429e-05 0)
(0 -6.88481e-05 0)
(0 -7.09729e-05 0)
(0 -7.03647e-05 0)
(0 -6.82451e-05 0)
(0 -6.55794e-05 0)
(0 -6.77512e-05 0)
(0 -6.68639e-05 0)
(0 -6.44273e-05 0)
(0 -6.07269e-05 0)
(0 -6.30165e-05 0)
(0 -6.14737e-05 0)
(0 -5.919e-05 0)
(0 -5.43616e-05 0)
(0 -5.89825e-05 0)
(0 -5.51198e-05 0)
(0 -5.06031e-05 0)
(0 -4.64876e-05 0)
(0 -5.08356e-05 0)
(0 -4.65649e-05 0)
(0 -4.18114e-05 0)
(0 -4.20215e-05 0)
(0 -4.57176e-05 0)
(0 -3.58705e-05 0)
(0 -2.58939e-05 0)
(0 -1.62575e-05 0)
(0 -8.66543e-06 0)
(0 -3.18795e-06 0)
(0 -3.3791e-07 0)
(0 0 0)
(0 0 0)
(0 0 0)
(0 0 0)
(0 0 0)
(0 0 0)
(0 0 0)
(0 0 0)
(0 0 0)
(0 0 0)
(0 0 0)
(0 0 0)
(0 0 0)
(0 0 0)
(0 -9.66781e-07 0)
(0 -4.89293e-06 0)
(0 -1.14962e-05 0)
(0 -2.02003e-05 0)
(0 -3.02593e-05 0)
(0 -4.1323e-05 0)
(0 -5.16488e-05 0)
(0 -4.91011e-05 0)
(0 -5.39602e-05 0)
(0 -5.06533e-05 0)
(0 -5.50682e-05 0)
(0 -5.84667e-05 0)
(0 -6.25366e-05 0)
(0 -5.90899e-05 0)
(0 -6.26523e-05 0)
(0 -6.44976e-05 0)
(0 -6.60848e-05 0)
(0 -6.44954e-05 0)
(0 -6.89796e-05 0)
(0 -6.97431e-05 0)
(0 -7.03591e-05 0)
(0 -6.96026e-05 0)
(0 -7.30218e-05 0)
(0 -7.36325e-05 0)
(0 -7.40289e-05 0)
(0 -7.34308e-05 0)
(0 -7.54146e-05 0)
(0 -7.58596e-05 0)
(0 -7.60616e-05 0)
(0 -7.56133e-05 0)
(0 -7.64633e-05 0)
(0 -7.67897e-05 0)
(0 -7.68362e-05 0)
(0 -7.65193e-05 0)
(0 -7.67314e-05 0)
(0 -7.69944e-05 0)
(0 -7.699e-05 0)
(0 -7.67251e-05 0)
(0 -7.64633e-05 0)
(0 -7.67897e-05 0)
(0 -7.67252e-05 0)
(0 -7.63869e-05 0)
(0 -7.54146e-05 0)
(0 -7.58596e-05 0)
(0 -7.56903e-05 0)
(0 -7.51756e-05 0)
(0 -7.30218e-05 0)
(0 -7.36325e-05 0)
(0 -7.32874e-05 0)
(0 -7.25769e-05 0)
(0 -6.89796e-05 0)
(0 -6.97431e-05 0)
(0 -7.04417e-05 0)
(0 -6.91123e-05 0)
(0 -6.76258e-05 0)
(0 -6.26523e-05 0)
(0 -6.44976e-05 0)
(0 -6.61006e-05 0)
(0 -6.25366e-05 0)
(0 -5.90899e-05 0)
(0 -5.50682e-05 0)
(0 -5.83331e-05 0)
(0 -5.39255e-05 0)
(0 -5.06533e-05 0)
(0 -4.91599e-05 0)
(0 -5.18018e-05 0)
(0 -4.12192e-05 0)
(0 -3.05607e-05 0)
(0 -2.04122e-05 0)
(0 -1.16294e-05 0)
(0 -4.96275e-06 0)
(0 -9.9063e-07 0)
(0 0 0)
(0 0 0)
(0 0 0)
(0 0 0)
(0 0 0)
(0 0 0)
(0 0 0)
(0 0 0)
(0 0 0)
(0 0 0)
(0 0 0)
(0 0 0)
(0 0 0)
(0 0 0)
(0 -1.49075e-06 0)
(0 -6.07838e-06 0)
(0 -1.33762e-05 0)
(0 -2.27679e-05 0)
(0 -3.34625e-05 0)
(0 -4.45615e-05 0)
(0 -5.51357e-05 0)
(0 -5.38256e-05 0)
(0 -5.86462e-05 0)
(0 -5.64082e-05 0)
(0 -6.07724e-05 0)
(0 -6.3038e-05 0)
(0 -6.69148e-05 0)
(0 -6.50423e-05 0)
(0 -6.85714e-05 0)
(0 -6.94432e-05 0)
(0 -7.0962e-05 0)
(0 -7.01104e-05 0)
(0 -7.37675e-05 0)
(0 -7.41702e-05 0)
(0 -7.46247e-05 0)
(0 -7.42346e-05 0)
(0 -7.65704e-05 0)
(0 -7.67647e-05 0)
(0 -7.69272e-05 0)
(0 -7.67556e-05 0)
(0 -7.72415e-05 0)
(0 -7.72415e-05 0)
(0 -7.72415e-05 0)
(0 -7.72415e-05 0)
(0 -7.72415e-05 0)
(0 -7.72415e-05 0)
(0 -7.72415e-05 0)
(0 -7.72415e-05 0)
(0 -7.72415e-05 0)
(0 -7.72415e-05 0)
(0 -7.72415e-05 0)
(0 -7.72415e-05 0)
(0 -7.72415e-05 0)
(0 -7.72415e-05 0)
(0 -7.72415e-05 0)
(0 -7.72415e-05 0)
(0 -7.72415e-05 0)
(0 -7.72415e-05 0)
(0 -7.72415e-05 0)
(0 -7.72415e-05 0)
(0 -7.65704e-05 0)
(0 -7.67647e-05 0)
(0 -7.65506e-05 0)
(0 -7.63477e-05 0)
(0 -7.37675e-05 0)
(0 -7.41702e-05 0)
(0 -7.45144e-05 0)
(0 -7.34638e-05 0)
(0 -7.27111e-05 0)
(0 -6.85316e-05 0)
(0 -6.95445e-05 0)
(0 -7.03179e-05 0)
(0 -6.6822e-05 0)
(0 -6.51002e-05 0)
(0 -6.11187e-05 0)
(0 -6.29597e-05 0)
(0 -5.8584e-05 0)
(0 -5.66576e-05 0)
(0 -5.37798e-05 0)
(0 -5.51631e-05 0)
(0 -4.45432e-05 0)
(0 -3.34093e-05 0)
(0 -2.26948e-05 0)
(0 -1.33e-05 0)
(0 -6.01536e-06 0)
(0 -1.45496e-06 0)
(0 0 0)
(0 0 0)
(0 0 0)
(0 0 0)
(0 0 0)
(0 0 0)
(0 0 0)
(0 0 0)
(0 0 0)
(0 0 0)
(0 0 0)
(0 0 0)
(0 0 0)
(0 0 0)
(0 -1.58053e-06 0)
(0 -6.27268e-06 0)
(0 -1.36825e-05 0)
(0 -2.31872e-05 0)
(0 -3.39884e-05 0)
(0 -4.51784e-05 0)
(0 -5.58171e-05 0)
(0 -5.58367e-05 0)
(0 -6.06623e-05 0)
(0 -5.99472e-05 0)
(0 -6.43064e-05 0)
(0 -6.50224e-05 0)
(0 -6.88251e-05 0)
(0 -6.81248e-05 0)
(0 -7.14484e-05 0)
(0 -7.17696e-05 0)
(0 -7.31021e-05 0)
(0 -7.28126e-05 0)
(0 -7.58204e-05 0)
(0 -7.59442e-05 0)
(0 -7.62731e-05 0)
(0 -7.61588e-05 0)
(0 -7.72415e-05 0)
(0 -7.72415e-05 0)
(0 -7.72415e-05 0)
(0 -7.72415e-05 0)
(0 -7.72415e-05 0)
(0 -7.72415e-05 0)
(0 -7.72415e-05 0)
(0 -7.72415e-05 0)
(0 -7.72415e-05 0)
(0 -7.72415e-05 0)
(0 -7.72415e-05 0)
(0 -7.72415e-05 0)
(0 -7.72415e-05 0)
(0 -7.72415e-05 0)
(0 -7.72415e-05 0)
(0 -7.72415e-05 0)
(0 -7.72415e-05 0)
(0 -7.72383e-05 0)
(0 -7.72272e-05 0)
(0 -7.58204e-05 0)
(0 -7.59442e-05 0)
(0 -7.6026e-05 0)
(0 -7.52536e-05 0)
(0 -7.4981e-05 0)
(0 -7.1444e-05 0)
(0 -7.17741e-05 0)
(0 -7.19903e-05 0)
(0 -6.88251e-05 0)
(0 -6.82237e-05 0)
(0 -6.43831e-05 0)
(0 -6.48586e-05 0)
(0 -6.04743e-05 0)
(0 -5.99994e-05 0)
(0 -5.56284e-05 0)
(0 -5.56923e-05 0)
(0 -4.50395e-05 0)
(0 -3.38473e-05 0)
(0 -2.30562e-05 0)
(0 -1.35729e-05 0)
(0 -6.19407e-06 0)
(0 -1.5398e-06 0)
(0 0 0)
(0 0 0)
(0 0 0)
(0 0 0)
(0 0 0)
(0 0 0)
(0 0 0)
(0 0 0)
(0 0 0)
(0 0 0)
(0 0 0)
(0 0 0)
(0 0 0)
(0 0 0)
(0 -1.29166e-06 0)
(0 -5.64508e-06 0)
(0 -1.27001e-05 0)
(0 -2.1855e-05 0)
(0 -3.23346e-05 0)
(0 -4.32578e-05 0)
(0 -5.37152e-05 0)
(0 -5.52245e-05 0)
(0 -6.00421e-05 0)
(0 -6.06465e-05 0)
(0 -6.50108e-05 0)
(0 -6.44058e-05 0)
(0 -6.82263e-05 0)
(0 -6.88178e-05 0)
(0 -7.19873e-05 0)
(0 -7.18178e-05 0)
(0 -7.315e-05 0)
(0 -7.33115e-05 0)
(0 -7.61615e-05 0)
(0 -7.61212e-05 0)
(0 -7.64295e-05 0)
(0 -7.6466e-05 0)
(0 -7.72415e-05 0)
(0 -7.72415e-05 0)
(0 -7.72415e-05 0)
(0 -7.72415e-05 0)
(0 -7.72415e-05 0)
(0 -7.72415e-05 0)
(0 -7.72415e-05 0)
(0 -7.72415e-05 0)
(0 -7.72415e-05 0)
(0 -7.72415e-05 0)
(0 -7.72415e-05 0)
(0 -7.72415e-05 0)
(0 -7.72415e-05 0)
(0 -7.72415e-05 0)
(0 -7.72415e-05 0)
(0 -7.72415e-05 0)
(0 -7.61615e-05 0)
(0 -7.60883e-05 0)
(0 -7.60481e-05 0)
(0 -7.52775e-05 0)
(0 -7.53652e-05 0)
(0 -7.19204e-05 0)
(0 -7.18124e-05 0)
(0 -7.14847e-05 0)
(0 -6.8273e-05 0)
(0 -6.87335e-05 0)
(0 -6.49108e-05 0)
(0 -6.44398e-05 0)
(0 -6.00625e-05 0)
(0 -6.05329e-05 0)
(0 -5.52312e-05 0)
(0 -5.38518e-05 0)
(0 -4.33581e-05 0)
(0 -3.24001e-05 0)
(0 -2.1891e-05 0)
(0 -1.27145e-05 0)
(0 -5.64648e-06 0)
(0 -1.28884e-06 0)
(0 0 0)
(0 0 0)
(0 0 0)
(0 0 0)
(0 0 0)
(0 0 0)
(0 0 0)
(0 0 0)
(0 0 0)
(0 0 0)
(0 0 0)
(0 0 0)
(0 0 0)
(0 0 0)
(0 -6.53302e-07 0)
(0 -4.10351e-06 0)
(0 -1.02066e-05 0)
(0 -1.84146e-05 0)
(0 -2.86296e-05 0)
(0 -3.90749e-05 0)
(0 -4.92635e-05 0)
(0 -5.19654e-05 0)
(0 -5.67953e-05 0)
(0 -5.84978e-05 0)
(0 -6.31387e-05 0)
(0 -6.12272e-05 0)
(0 -6.51771e-05 0)
(0 -6.70754e-05 0)
(0 -7.04189e-05 0)
(0 -6.96177e-05 0)
(0 -7.10708e-05 0)
(0 -7.18489e-05 0)
(0 -7.51118e-05 0)
(0 -7.48839e-05 0)
(0 -7.52983e-05 0)
(0 -7.55417e-05 0)
(0 -7.71481e-05 0)
(0 -7.70688e-05 0)
(0 -7.71634e-05 0)
(0 -7.72125e-05 0)
(0 -7.72415e-05 0)
(0 -7.72415e-05 0)
(0 -7.72415e-05 0)
(0 -7.72415e-05 0)
(0 -7.72415e-05 0)
(0 -7.72415e-05 0)
(0 -7.72415e-05 0)
(0 -7.72415e-05 0)
(0 -7.71481e-05 0)
(0 -7.70572e-05 0)
(0 -7.69317e-05 0)
(0 -7.70439e-05 0)
(0 -7.51118e-05 0)
(0 -7.48839e-05 0)
(0 -7.4574e-05 0)
(0 -7.35917e-05 0)
(0 -7.41983e-05 0)
(0 -7.04189e-05 0)
(0 -6.96177e-05 0)
(0 -6.87077e-05 0)
(0 -6.51771e-05 0)
(0 -6.70754e-05 0)
(0 -6.3021e-05 0)
(0 -6.12272e-05 0)
(0 -5.67953e-05 0)
(0 -5.86513e-05 0)
(0 -5.19654e-05 0)
(0 -4.92635e-05 0)
(0 -3.90749e-05 0)
(0 -2.82606e-05 0)
(0 -1.85956e-05 0)
(0 -1.03254e-05 0)
(0 -4.16849e-06 0)
(0 -6.75257e-07 0)
(0 0 0)
(0 0 0)
(0 0 0)
(0 0 0)
(0 0 0)
(0 0 0)
(0 0 0)
(0 0 0)
(0 0 0)
(0 0 0)
(0 0 0)
(0 0 0)
(0 0 0)
(0 0 0)
(0 -8.08364e-08 0)
(0 -2.39961e-06 0)
(0 -7.30709e-06 0)
(0 -1.43687e-05 0)
(0 -2.29389e-05 0)
(0 -3.22655e-05 0)
(0 -4.20524e-05 0)
(0 -4.57633e-05 0)
(0 -5.07395e-05 0)
(0 -5.40025e-05 0)
(0 -5.86122e-05 0)
(0 -5.50962e-05 0)
(0 -5.94593e-05 0)
(0 -6.26209e-05 0)
(0 -6.63043e-05 0)
(0 -6.48273e-05 0)
(0 -6.64543e-05 0)
(0 -6.79187e-05 0)
(0 -7.18717e-05 0)
(0 -7.1214e-05 0)
(0 -7.18121e-05 0)
(0 -7.23584e-05 0)
(0 -7.53652e-05 0)
(0 -7.49327e-05 0)
(0 -7.52484e-05 0)
(0 -7.56642e-05 0)
(0 -7.69274e-05 0)
(0 -7.66854e-05 0)
(0 -7.67917e-05 0)
(0 -7.70127e-05 0)
(0 -7.72415e-05 0)
(0 -7.71985e-05 0)
(0 -7.72153e-05 0)
(0 -7.72415e-05 0)
(0 -7.72415e-05 0)
(0 -7.72415e-05 0)
(0 -7.72415e-05 0)
(0 -7.72415e-05 0)
(0 -7.72415e-05 0)
(0 -7.72415e-05 0)
(0 -7.71985e-05 0)
(0 -7.71749e-05 0)
(0 -7.72389e-05 0)
(0 -7.72408e-05 0)
(0 -7.69274e-05 0)
(0 -7.66854e-05 0)
(0 -7.65542e-05 0)
(0 -7.68176e-05 0)
(0 -7.53652e-05 0)
(0 -7.49327e-05 0)
(0 -7.45808e-05 0)
(0 -7.50291e-05 0)
(0 -7.19246e-05 0)
(0 -7.13208e-05 0)
(0 -7.05952e-05 0)
(0 -6.93955e-05 0)
(0 -7.06999e-05 0)
(0 -6.61222e-05 0)
(0 -6.47522e-05 0)
(0 -6.31519e-05 0)
(0 -5.93776e-05 0)
(0 -6.26209e-05 0)
(0 -5.86122e-05 0)
(0 -5.50962e-05 0)
(0 -5.07395e-05 0)
(0 -5.40025e-05 0)
(0 -4.57633e-05 0)
(0 -4.20524e-05 0)
(0 -3.22655e-05 0)
(0 -2.29389e-05 0)
(0 -1.43687e-05 0)
(0 -7.30709e-06 0)
(0 -2.23836e-06 0)
(0 -9.70992e-08 0)
(0 0 0)
(0 0 0)
(0 0 0)
(0 0 0)
(0 0 0)
(0 0 0)
(0 0 0)
(0 0 0)
(0 0 0)
(0 0 0)
(0 0 0)
(0 0 0)
(0 0 0)
(0 0 0)
(0 0 0)
(0 -7.37571e-07 0)
(0 -3.88673e-06 0)
(0 -9.14459e-06 0)
(0 -1.59627e-05 0)
(0 -2.44816e-05 0)
(0 -3.32896e-05 0)
(0 -3.74446e-05 0)
(0 -4.23477e-05 0)
(0 -4.65404e-05 0)
(0 -5.10859e-05 0)
(0 -4.67617e-05 0)
(0 -5.08886e-05 0)
(0 -5.53582e-05 0)
(0 -5.92265e-05 0)
(0 -5.46561e-05 0)
(0 -5.78101e-05 0)
(0 -6.04288e-05 0)
(0 -6.26301e-05 0)
(0 -6.09895e-05 0)
(0 -6.55571e-05 0)
(0 -6.32685e-05 0)
(0 -6.46832e-05 0)
(0 -6.68515e-05 0)
(0 -7.00916e-05 0)
(0 -6.81294e-05 0)
(0 -6.89142e-05 0)
(0 -7.09481e-05 0)
(0 -7.29628e-05 0)
(0 -7.12239e-05 0)
(0 -7.17347e-05 0)
(0 -7.34446e-05 0)
(0 -7.44519e-05 0)
(0 -7.28473e-05 0)
(0 -7.31305e-05 0)
(0 -7.46492e-05 0)
(0 -7.49132e-05 0)
(0 -7.34314e-05 0)
(0 -7.33547e-05 0)
(0 -7.48526e-05 0)
(0 -7.44519e-05 0)
(0 -7.28473e-05 0)
(0 -7.24456e-05 0)
(0 -7.41425e-05 0)
(0 -7.29628e-05 0)
(0 -7.12239e-05 0)
(0 -7.05856e-05 0)
(0 -7.23553e-05 0)
(0 -7.00916e-05 0)
(0 -6.81294e-05 0)
(0 -6.71148e-05 0)
(0 -6.90986e-05 0)
(0 -6.55571e-05 0)
(0 -6.32685e-05 0)
(0 -6.19401e-05 0)
(0 -6.41433e-05 0)
(0 -5.92265e-05 0)
(0 -5.46561e-05 0)
(0 -5.08886e-05 0)
(0 -5.53582e-05 0)
(0 -5.10859e-05 0)
(0 -4.67617e-05 0)
(0 -4.23477e-05 0)
(0 -4.65404e-05 0)
(0 -3.74446e-05 0)
(0 -3.32896e-05 0)
(0 -2.44816e-05 0)
(0 -1.59627e-05 0)
(0 -9.14459e-06 0)
(0 -3.88673e-06 0)
(0 -7.37571e-07 0)
(0 0 0)
(0 0 0)
(0 0 0)
(0 0 0)
(0 0 0)
(0 0 0)
(0 0 0)
(0 0 0)
(0 0 0)
(0 0 0)
(0 0 0)
(0 0 0)
(0 0 0)
(0 0 0)
(0 0 0)
(0 0 0)
(0 0 0)
(0 -1.11149e-06 0)
(0 -4.58961e-06 0)
(0 -9.83882e-06 0)
(0 -1.63489e-05 0)
(0 -2.34795e-05 0)
(0 -3.05185e-05 0)
(0 -3.5981e-05 0)
(0 -4.17894e-05 0)
(0 -3.7622e-05 0)
(0 -3.98901e-05 0)
(0 -4.57121e-05 0)
(0 -4.9172e-05 0)
(0 -4.35529e-05 0)
(0 -4.6903e-05 0)
(0 -5.2703e-05 0)
(0 -5.5822e-05 0)
(0 -5.29358e-05 0)
(0 -5.40498e-05 0)
(0 -5.72131e-05 0)
(0 -6.07626e-05 0)
(0 -5.79248e-05 0)
(0 -5.89778e-05 0)
(0 -6.18238e-05 0)
(0 -6.42421e-05 0)
(0 -6.13879e-05 0)
(0 -6.18585e-05 0)
(0 -6.47913e-05 0)
(0 -6.63286e-05 0)
(0 -6.35877e-05 0)
(0 -6.39078e-05 0)
(0 -6.6646e-05 0)
(0 -6.70193e-05 0)
(0 -6.42957e-05 0)
(0 -6.41639e-05 0)
(0 -6.68996e-05 0)
(0 -6.63286e-05 0)
(0 -6.35877e-05 0)
(0 -6.31394e-05 0)
(0 -6.5883e-05 0)
(0 -6.42421e-05 0)
(0 -6.13879e-05 0)
(0 -6.07108e-05 0)
(0 -6.35643e-05 0)
(0 -6.07626e-05 0)
(0 -5.79248e-05 0)
(0 -5.67504e-05 0)
(0 -5.95763e-05 0)
(0 -5.5822e-05 0)
(0 -5.29358e-05 0)
(0 -4.96001e-05 0)
(0 -4.6903e-05 0)
(0 -5.2703e-05 0)
(0 -4.9172e-05 0)
(0 -4.35529e-05 0)
(0 -3.98901e-05 0)
(0 -4.57121e-05 0)
(0 -4.17894e-05 0)
(0 -3.5981e-05 0)
(0 -3.05185e-05 0)
(0 -2.34795e-05 0)
(0 -3.7622e-05 0)
(0 -1.63489e-05 0)
(0 -9.83882e-06 0)
(0 -4.58961e-06 0)
(0 -1.11149e-06 0)
(0 0 0)
(0 0 0)
(0 0 0)
(0 0 0)
(0 0 0)
(0 0 0)
(0 0 0)
(0 0 0)
(0 0 0)
(0 0 0)
(0 0 0)
(0 0 0)
(0 0 0)
(0 0 0)
(0 0 0)
(0 0 0)
(0 0 0)
(0 0 0)
(0 -1.40951e-08 0)
(0 -1.26269e-06 0)
(0 -4.27884e-06 0)
(0 -8.38499e-06 0)
(0 -1.37244e-05 0)
(0 -1.94189e-05 0)
(0 -2.49247e-05 0)
(0 -2.81388e-05 0)
(0 -3.41047e-05 0)
(0 -3.7487e-05 0)
(0 -3.08481e-05 0)
(0 -3.39049e-05 0)
(0 -4.0274e-05 0)
(0 -4.33298e-05 0)
(0 -4.00461e-05 0)
(0 -4.13902e-05 0)
(0 -4.47271e-05 0)
(0 -4.83291e-05 0)
(0 -4.48641e-05 0)
(0 -4.58202e-05 0)
(0 -4.93179e-05 0)
(0 -5.15583e-05 0)
(0 -4.80887e-05 0)
(0 -4.88611e-05 0)
(0 -5.23533e-05 0)
(0 -5.40191e-05 0)
(0 -5.04824e-05 0)
(0 -5.07851e-05 0)
(0 -5.43296e-05 0)
(0 -5.47387e-05 0)
(0 -5.11944e-05 0)
(0 -5.10278e-05 0)
(0 -5.45785e-05 0)
(0 -5.40191e-05 0)
(0 -5.04824e-05 0)
(0 -5.00599e-05 0)
(0 -5.35854e-05 0)
(0 -5.15583e-05 0)
(0 -4.80887e-05 0)
(0 -4.72041e-05 0)
(0 -5.09562e-05 0)
(0 -4.83291e-05 0)
(0 -4.48641e-05 0)
(0 -4.38042e-05 0)
(0 -4.72316e-05 0)
(0 -4.33298e-05 0)
(0 -4.00461e-05 0)
(0 -3.67031e-05 0)
(0 -3.39049e-05 0)
(0 -4.0274e-05 0)
(0 -3.7487e-05 0)
(0 -3.08481e-05 0)
(0 -2.81388e-05 0)
(0 -3.41047e-05 0)
(0 -2.49247e-05 0)
(0 -1.94189e-05 0)
(0 -1.37244e-05 0)
(0 -8.38499e-06 0)
(0 -4.27884e-06 0)
(0 -1.26269e-06 0)
(0 -1.40951e-08 0)
(0 0 0)
(0 0 0)
(0 0 0)
(0 0 0)
(0 0 0)
(0 0 0)
(0 0 0)
(0 0 0)
(0 0 0)
(0 0 0)
(0 0 0)
(0 0 0)
(0 0 0)
(0 0 0)
(0 0 0)
(0 0 0)
(0 0 0)
(0 0 0)
(0 0 0)
(0 0 0)
(0 -6.63121e-07 0)
(0 -2.76187e-06 0)
(0 -5.59502e-06 0)
(0 -9.42096e-06 0)
(0 -1.39303e-05 0)
(0 -1.64261e-05 0)
(0 -2.18877e-05 0)
(0 -2.47541e-05 0)
(0 -1.8872e-05 0)
(0 -2.12063e-05 0)
(0 -2.74662e-05 0)
(0 -2.99648e-05 0)
(0 -2.66341e-05 0)
(0 -2.77141e-05 0)
(0 -3.11173e-05 0)
(0 -3.4118e-05 0)
(0 -3.05329e-05 0)
(0 -3.10473e-05 0)
(0 -3.45816e-05 0)
(0 -3.71909e-05 0)
(0 -3.35112e-05 0)
(0 -3.41557e-05 0)
(0 -3.78721e-05 0)
(0 -3.93078e-05 0)
(0 -3.55155e-05 0)
(0 -3.57705e-05 0)
(0 -3.95767e-05 0)
(0 -3.99686e-05 0)
(0 -3.61509e-05 0)
(0 -3.59752e-05 0)
(0 -3.97926e-05 0)
(0 -3.93078e-05 0)
(0 -3.55155e-05 0)
(0 -3.51602e-05 0)
(0 -3.89329e-05 0)
(0 -3.71909e-05 0)
(0 -3.35112e-05 0)
(0 -3.27758e-05 0)
(0 -3.64129e-05 0)
(0 -3.4118e-05 0)
(0 -3.05329e-05 0)
(0 -2.96686e-05 0)
(0 -3.31991e-05 0)
(0 -2.99648e-05 0)
(0 -2.66341e-05 0)
(0 -2.33726e-05 0)
(0 -2.12063e-05 0)
(0 -2.74662e-05 0)
(0 -2.47541e-05 0)
(0 -1.8872e-05 0)
(0 -1.64261e-05 0)
(0 -2.18877e-05 0)
(0 -1.39303e-05 0)
(0 -9.42096e-06 0)
(0 -5.59502e-06 0)
(0 -2.76187e-06 0)
(0 -6.63121e-07 0)
(0 0 0)
(0 0 0)
(0 0 0)
(0 0 0)
(0 0 0)
(0 0 0)
(0 0 0)
(0 0 0)
(0 0 0)
(0 0 0)
(0 0 0)
(0 0 0)
(0 0 0)
(0 0 0)
(0 0 0)
(0 0 0)
(0 0 0)
(0 0 0)
(0 0 0)
(0 0 0)
(0 0 0)
(0 0 0)
(0 0 0)
(0 -5.64699e-08 0)
(0 -9.57864e-07 0)
(0 -2.67326e-06 0)
(0 -5.60793e-06 0)
(0 -7.13469e-06 0)
(0 -1.14366e-05 0)
(0 -1.344e-05 0)
(0 -8.68499e-06 0)
(0 -1.02064e-05 0)
(0 -1.53738e-05 0)
(0 -1.7185e-05 0)
(0 -1.43211e-05 0)
(0 -1.50829e-05 0)
(0 -1.80293e-05 0)
(0 -2.00629e-05 0)
(0 -1.69798e-05 0)
(0 -1.76946e-05 0)
(0 -2.08483e-05 0)
(0 -2.28275e-05 0)
(0 -1.95009e-05 0)
(0 -1.99774e-05 0)
(0 -2.33484e-05 0)
(0 -2.44515e-05 0)
(0 -2.0988e-05 0)
(0 -2.11783e-05 0)
(0 -2.4659e-05 0)
(0 -2.49903e-05 0)
(0 -2.14889e-05 0)
(0 -2.13313e-05 0)
(0 -2.48257e-05 0)
(0 -2.44515e-05 0)
(0 -2.0988e-05 0)
(0 -2.07232e-05 0)
(0 -2.41628e-05 0)
(0 -2.28275e-05 0)
(0 -1.95009e-05 0)
(0 -1.89592e-05 0)
(0 -2.22348e-05 0)
(0 -2.00629e-05 0)
(0 -1.69798e-05 0)
(0 -1.62162e-05 0)
(0 -1.92223e-05 0)
(0 -1.7185e-05 0)
(0 -1.43211e-05 0)
(0 -1.16499e-05 0)
(0 -1.02064e-05 0)
(0 -1.53738e-05 0)
(0 -1.344e-05 0)
(0 -8.68499e-06 0)
(0 -7.13469e-06 0)
(0 -1.14366e-05 0)
(0 -5.60793e-06 0)
(0 -2.67326e-06 0)
(0 -9.57864e-07 0)
(0 -5.64699e-08 0)
(0 0 0)
(0 0 0)
(0 0 0)
(0 0 0)
(0 0 0)
(0 0 0)
(0 0 0)
(0 0 0)
(0 0 0)
(0 0 0)
(0 0 0)
(0 0 0)
(0 0 0)
(0 0 0)
(0 0 0)
(0 0 0)
(0 0 0)
(0 0 0)
(0 0 0)
(0 0 0)
(0 0 0)
(0 0 0)
(0 0 0)
(0 0 0)
(0 0 0)
(0 0 0)
(0 -1.02363e-08 0)
(0 -7.69049e-07 0)
(0 -1.33955e-06 0)
(0 -3.71442e-06 0)
(0 -4.81253e-06 0)
(0 -1.99742e-06 0)
(0 -2.70094e-06 0)
(0 -5.92038e-06 0)
(0 -6.99347e-06 0)
(0 -4.81402e-06 0)
(0 -5.30683e-06 0)
(0 -7.25772e-06 0)
(0 -8.91125e-06 0)
(0 -6.70646e-06 0)
(0 -7.13131e-06 0)
(0 -9.40868e-06 0)
(0 -1.06808e-05 0)
(0 -8.22445e-06 0)
(0 -8.51717e-06 0)
(0 -1.10197e-05 0)
(0 -1.17429e-05 0)
(0 -9.14364e-06 0)
(0 -9.26242e-06 0)
(0 -1.18797e-05 0)
(0 -1.21176e-05 0)
(0 -9.4733e-06 0)
(0 -9.3581e-06 0)
(0 -1.19898e-05 0)
(0 -1.17429e-05 0)
(0 -9.14364e-06 0)
(0 -8.97881e-06 0)
(0 -1.15529e-05 0)
(0 -1.06808e-05 0)
(0 -8.22445e-06 0)
(0 -7.89384e-06 0)
(0 -1.02971e-05 0)
(0 -8.91125e-06 0)
(0 -6.70646e-06 0)
(0 -6.25782e-06 0)
(0 -8.38385e-06 0)
(0 -6.99347e-06 0)
(0 -4.81402e-06 0)
(0 -3.23722e-06 0)
(0 -2.70094e-06 0)
(0 -5.92038e-06 0)
(0 -4.81253e-06 0)
(0 -1.99742e-06 0)
(0 -1.33955e-06 0)
(0 -3.71442e-06 0)
(0 -7.69049e-07 0)
(0 -1.02363e-08 0)
(0 0 0)
(0 0 0)
(0 0 0)
(0 0 0)
(0 0 0)
(0 0 0)
(0 0 0)
(0 0 0)
(0 0 0)
(0 0 0)
(0 0 0)
(0 0 0)
(0 0 0)
(0 0 0)
(0 0 0)
(0 0 0)
(0 0 0)
(0 0 0)
(0 0 0)
(0 0 0)
(0 0 0)
(0 0 0)
(0 0 0)
(0 0 0)
(0 0 0)
(0 0 0)
(0 0 0)
(0 0 0)
(0 0 0)
(0 0 0)
(0 0 0)
(0 -3.7594e-07 0)
(0 -1.35973e-07 0)
(0 0 0)
(0 -5.91164e-07 0)
(0 -9.87616e-07 0)
(0 -3.02357e-08 0)
(0 -1.32159e-07 0)
(0 -1.42323e-06 0)
(0 -1.86464e-06 0)
(0 -2.78675e-07 0)
(0 -4.43731e-07 0)
(0 -2.28173e-06 0)
(0 -2.64833e-06 0)
(0 -6.04581e-07 0)
(0 -7.42346e-07 0)
(0 -2.94283e-06 0)
(0 -3.14859e-06 0)
(0 -8.42463e-07 0)
(0 -8.95032e-07 0)
(0 -3.25433e-06 0)
(0 -3.33894e-06 0)
(0 -9.39941e-07 0)
(0 -8.95032e-07 0)
(0 -3.25433e-06 0)
(0 -3.14859e-06 0)
(0 -8.42463e-07 0)
(0 -7.42346e-07 0)
(0 -2.94283e-06 0)
(0 -2.64833e-06 0)
(0 -6.04581e-07 0)
(0 -4.43731e-07 0)
(0 -2.28173e-06 0)
(0 -1.86464e-06 0)
(0 -2.78675e-07 0)
(0 -1.32159e-07 0)
(0 -1.42323e-06 0)
(0 -9.87616e-07 0)
(0 -3.02357e-08 0)
(0 0 0)
(0 -5.91164e-07 0)
(0 -3.7594e-07 0)
(0 0 0)
(0 0 0)
(0 0 0)
(0 -1.35973e-07 0)
(0 0 0)
(0 0 0)
(0 0 0)
(0 0 0)
(0 0 0)
(0 0 0)
(0 0 0)
(0 0 0)
(0 0 0)
(0 0 0)
(0 0 0)
(0 0 0)
(0 0 0)
(0 0 0)
(0 0 0)
(0 0 0)
(0 0 0)
(0 0 0)
(0 0 0)
(0 0 0)
(0 0 0)
(0 0 0)
(0 0 0)
(0 0 0)
(0 0 0)
(0 0 0)
(0 0 0)
(0 0 0)
(0 0 0)
(0 0 0)
(0 0 0)
(0 0 0)
(0 0 0)
(0 0 0)
(0 0 0)
(0 0 0)
(0 0 0)
(0 0 0)
(0 0 0)
(0 0 0)
(0 -2.71726e-09 0)
(0 0 0)
(0 0 0)
(0 -1.04569e-08 0)
(0 -6.22169e-09 0)
(0 0 0)
(0 -2.71726e-09 0)
(0 -6.22169e-09 0)
(0 0 0)
(0 0 0)
(0 0 0)
(0 0 0)
(0 0 0)
(0 0 0)
(0 0 0)
(0 0 0)
(0 0 0)
(0 0 0)
(0 0 0)
(0 0 0)
(0 0 0)
(0 0 0)
(0 0 0)
(0 0 0)
(0 0 0)
(0 0 0)
(0 0 0)
(0 0 0)
(0 0 0)
(0 0 0)
(0 0 0)
(0 0 0)
(0 0 0)
(0 0 0)
(0 0 0)
(0 0 0)
(0 0 0)
(0 0 0)
(0 0 0)
(0 0 0)
(0 0 0)
(0 0 0)
(0 0 0)
(0 0 0)
(0 0 0)
(0 0 0)
(0 0 0)
(0 0 0)
(0 0 0)
(0 0 0)
(0 0 0)
(0 0 0)
(0 0 0)
(0 0 0)
(0 0 0)
(0 0 0)
(0 0 0)
(0 0 0)
(0 0 0)
(0 0 0)
(0 0 0)
(0 0 0)
(0 0 0)
(0 0 0)
(0 0 0)
(0 0 0)
(0 0 0)
(0 0 0)
(0 0 0)
(0 0 0)
(0 0 0)
(0 0 0)
(0 0 0)
(0 0 0)
(0 0 0)
(0 0 0)
(0 0 0)
(0 0 0)
(0 0 0)
(0 0 0)
(0 0 0)
(0 0 0)
(0 0 0)
(0 0 0)
(0 0 0)
(0 0 0)
(0 0 0)
(0 0 0)
(0 0 0)
(0 0 0)
(0 0 0)
(0 0 0)
(0 0 0)
(0 0 0)
(0 0 0)
(0 0 0)
(0 0 0)
(0 0 0)
(0 0 0)
(0 0 0)
(0 0 0)
(0 0 0)
(0 0 0)
(0 0 0)
(0 0 0)
(0 0 0)
(0 0 0)
(0 0 0)
(0 0 0)
(0 0 0)
(0 0 0)
(0 0 0)
(0 0 0)
(0 0 0)
(0 0 0)
(0 0 0)
(0 0 0)
(0 0 0)
(0 0 0)
(0 0 0)
(0 0 0)
(0 0 0)
(0 0 0)
(0 0 0)
(0 0 0)
(0 0 0)
(0 0 0)
(0 0 0)
(0 0 0)
(0 0 0)
(0 0 0)
(0 0 0)
(0 0 0)
(0 0 0)
(0 0 0)
(0 0 0)
(0 0 0)
(0 0 0)
(0 0 0)
(0 0 0)
(0 0 0)
(0 0 0)
(0 0 0)
(0 0 0)
(0 0 0)
(0 0 0)
(0 0 0)
(0 0 0)
(0 0 0)
(0 0 0)
(0 0 0)
(0 0 0)
(0 0 0)
(0 0 0)
(0 0 0)
(0 0 0)
(0 0 0)
(0 0 0)
(0 0 0)
(0 0 0)
(0 0 0)
(0 0 0)
(0 0 0)
(0 0 0)
(0 0 0)
(0 0 0)
(0 0 0)
(0 0 0)
(0 0 0)
(0 0 0)
(0 0 0)
(0 0 0)
(0 0 0)
(0 0 0)
(0 0 0)
(0 0 0)
(0 0 0)
(0 0 0)
(0 0 0)
(0 0 0)
(0 0 0)
(0 0 0)
(0 0 0)
(0 0 0)
(0 0 0)
(0 0 0)
(0 0 0)
(0 0 0)
(0 0 0)
(0 0 0)
(0 0 0)
(0 0 0)
(0 0 0)
(0 0 0)
(0 0 0)
(0 0 0)
(0 0 0)
(0 0 0)
(0 0 0)
(0 0 0)
(0 0 0)
(0 0 0)
(0 0 0)
(0 0 0)
(0 0 0)
(0 0 0)
(0 0 0)
(0 0 0)
(0 0 0)
(0 0 0)
(0 0 0)
(0 0 0)
(0 0 0)
(0 0 0)
(0 0 0)
(0 0 0)
(0 0 0)
(0 0 0)
(0 0 0)
(0 0 0)
(0 0 0)
(0 0 0)
(0 0 0)
(0 0 0)
(0 0 0)
(0 0 0)
(0 0 0)
(0 0 0)
(0 0 0)
(0 0 0)
(0 0 0)
(0 0 0)
(0 0 0)
(0 0 0)
(0 0 0)
(0 0 0)
(0 0 0)
(0 0 0)
(0 0 0)
(0 0 0)
(0 0 0)
(0 0 0)
(0 0 0)
(0 0 0)
(0 0 0)
(0 0 0)
(0 0 0)
(0 0 0)
(0 0 0)
(0 0 0)
(0 0 0)
(0 0 0)
(0 0 0)
(0 0 0)
(0 0 0)
(0 0 0)
(0 0 0)
(0 0 0)
(0 0 0)
(0 0 0)
(0 0 0)
(0 0 0)
(0 0 0)
(0 0 0)
(0 0 0)
(0 0 0)
(0 0 0)
(0 0 0)
(0 0 0)
(0 0 0)
(0 0 0)
(0 0 0)
(0 0 0)
(0 0 0)
(0 0 0)
(0 0 0)
(0 0 0)
(0 0 0)
(0 0 0)
(0 0 0)
(0 0 0)
(0 0 0)
(0 0 0)
(0 0 0)
(0 0 0)
(0 0 0)
(0 0 0)
(0 0 0)
(0 0 0)
(0 0 0)
(0 0 0)
(0 0 0)
(0 0 0)
(0 0 0)
(0 0 0)
(0 0 0)
(0 0 0)
(0 0 0)
(0 0 0)
(0 0 0)
(0 0 0)
(0 0 0)
(0 0 0)
(0 0 0)
(0 0 0)
(0 0 0)
(0 0 0)
(0 0 0)
(0 0 0)
(0 0 0)
(0 0 0)
(0 0 0)
(0 0 0)
(0 0 0)
(0 0 0)
(0 0 0)
(0 0 0)
(0 0 0)
(0 0 0)
(0 0 0)
(0 0 0)
(0 0 0)
(0 0 0)
(0 0 0)
(0 0 0)
(0 0 0)
(0 0 0)
(0 0 0)
(0 0 0)
(0 0 0)
(0 0 0)
(0 0 0)
(0 0 0)
(0 0 0)
(0 0 0)
(0 0 0)
(0 0 0)
(0 0 0)
(0 0 0)
(0 0 0)
(0 0 0)
(0 0 0)
(0 0 0)
(0 0 0)
(0 0 0)
(0 0 0)
(0 0 0)
(0 0 0)
(0 0 0)
(0 0 0)
(0 0 0)
(0 0 0)
(0 0 0)
(0 0 0)
(0 0 0)
(0 0 0)
(0 0 0)
(0 0 0)
(0 0 0)
(0 0 0)
(0 0 0)
(0 0 0)
(0 0 0)
(0 0 0)
(0 0 0)
(0 0 0)
(0 0 0)
(0 0 0)
(0 0 0)
(0 0 0)
(0 0 0)
(0 0 0)
(0 0 0)
(0 0 0)
(0 0 0)
(0 0 0)
(0 0 0)
(0 0 0)
(0 0 0)
(0 0 0)
(0 0 0)
(0 0 0)
(0 0 0)
(0 0 0)
(0 0 0)
(0 0 0)
(0 0 0)
(0 0 0)
(0 0 0)
(0 0 0)
(0 0 0)
(0 0 0)
(0 0 0)
(0 0 0)
(0 0 0)
(0 0 0)
(0 0 0)
(0 0 0)
(0 0 0)
(0 0 0)
(0 0 0)
(0 0 0)
(0 0 0)
(0 0 0)
(0 0 0)
(0 0 0)
(0 0 0)
(0 0 0)
(0 0 0)
(0 0 0)
(0 0 0)
(0 0 0)
(0 0 0)
(0 0 0)
(0 0 0)
(0 0 0)
(0 0 0)
(0 0 0)
(0 0 0)
(0 0 0)
(0 0 0)
(0 0 0)
(0 0 0)
(0 0 0)
(0 0 0)
(0 0 0)
(0 0 0)
(0 0 0)
(0 0 0)
(0 0 0)
(0 0 0)
(0 0 0)
(0 0 0)
(0 0 0)
(0 0 0)
(0 0 0)
(0 0 0)
(0 0 0)
(0 0 0)
(0 0 0)
(0 0 0)
(0 0 0)
(0 0 0)
(0 0 0)
(0 0 0)
(0 0 0)
(0 0 0)
(0 0 0)
(0 0 0)
(0 0 0)
(0 0 0)
(0 0 0)
(0 0 0)
(0 0 0)
(0 0 0)
(0 0 0)
(0 0 0)
(0 0 0)
(0 0 0)
(0 0 0)
(0 0 0)
(0 0 0)
(0 0 0)
(0 0 0)
(0 0 0)
(0 0 0)
(0 0 0)
(0 0 0)
(0 0 0)
(0 0 0)
(0 0 0)
(0 0 0)
(0 0 0)
(0 0 0)
(0 0 0)
(0 0 0)
(0 0 0)
(0 0 0)
(0 0 0)
(0 0 0)
(0 0 0)
(0 0 0)
(0 0 0)
(0 0 0)
(0 0 0)
(0 0 0)
(0 0 0)
(0 0 0)
(0 0 0)
(0 0 0)
(0 0 0)
(0 0 0)
(0 0 0)
(0 0 0)
(0 0 0)
(0 0 0)
(0 0 0)
(0 0 0)
(0 0 0)
(0 0 0)
(0 0 0)
(0 0 0)
(0 0 0)
(0 0 0)
(0 0 0)
(0 0 0)
(0 0 0)
(0 0 0)
(0 0 0)
(0 0 0)
(0 0 0)
(0 0 0)
(0 0 0)
(0 0 0)
(0 0 0)
(0 0 0)
(0 0 0)
(0 0 0)
(0 0 0)
(0 0 0)
(0 0 0)
(0 0 0)
(0 0 0)
(0 0 0)
(0 0 0)
(0 0 0)
(0 0 0)
(0 0 0)
(0 0 0)
(0 0 0)
(0 0 0)
(0 0 0)
(0 0 0)
(0 0 0)
(0 0 0)
(0 0 0)
(0 0 0)
(0 0 0)
(0 0 0)
(0 0 0)
(0 0 0)
(0 0 0)
(0 0 0)
(0 0 0)
(0 0 0)
(0 0 0)
(0 0 0)
(0 0 0)
(0 0 0)
(0 0 0)
(0 0 0)
(0 0 0)
(0 0 0)
(0 0 0)
(0 0 0)
(0 0 0)
(0 0 0)
(0 0 0)
(0 0 0)
(0 0 0)
(0 0 0)
(0 0 0)
(0 0 0)
(0 0 0)
(0 0 0)
(0 0 0)
(0 0 0)
(0 0 0)
(0 0 0)
(0 0 0)
(0 0 0)
(0 0 0)
(0 0 0)
(0 0 0)
(0 0 0)
(0 0 0)
(0 0 0)
(0 0 0)
(0 0 0)
(0 0 0)
(0 0 0)
(0 0 0)
(0 0 0)
(0 0 0)
(0 0 0)
(0 0 0)
(0 0 0)
(0 0 0)
(0 0 0)
(0 0 0)
(0 0 0)
(0 0 0)
(0 0 0)
(0 0 0)