/*--------------------------------*- C++ -*----------------------------------*\
| =========                 |                                                 |
| \\      /  F ield         | OpenFOAM: The Open Source CFD Toolbox           |
|  \\    /   O peration     | Version:  v2106                                 |
|   \\  /    A nd           | Website:  www.openfoam.com                      |
|    \\/     M anipulation  |                                                 |
\*---------------------------------------------------------------------------*/
FoamFile
{
    version     2.0;
    format      ascii;
    arch        "LSB;label=32;scalar=64";
    class       volScalarField;
    location    "0";
    object      p;
}
// * * * * * * * * * * * * * * * * * * * * * * * * * * * * * * * * * * * * * //

dimensions      [0 2 -2 0 0 0 0];

internalField   nonuniform List<scalar> 
11644
(
0.0375863
0.0388187
0.0409578
0.0437981
0.0476782
0.0526411
0.0585133
0.0648775
0.0711967
0.0767836
0.080754
0.0823763
0.0807718
0.0748867
0.0648044
0.0518791
0.0391837
0.0247798
0.00736898
-0.00414879
-0.0100542
-0.0139268
-0.0176971
-0.0154489
-0.0105709
-0.00822141
-0.00928542
-0.0117577
-0.0156975
-0.021335
-0.027901
-0.0349546
-0.0421252
-0.0489516
-0.0551621
-0.0605667
-0.0649155
-0.0682653
-0.0707125
-0.0721254
0.0326423
0.0337579
0.0361753
0.0398394
0.0444987
0.0499089
0.056113
0.0629036
0.0698287
0.076105
0.0811752
0.0840545
0.0832496
0.0803052
0.0731095
0.0623053
0.0475555
0.0270669
0.00763127
-0.00107651
-0.00154465
-0.00143579
-0.0063944
-0.00943273
-0.00855843
-0.0068125
-0.00664608
-0.0100355
-0.015785
-0.0223811
-0.029625
-0.0372465
-0.0447729
-0.0519679
-0.0585849
-0.0643255
-0.0692278
-0.0731667
-0.0759334
-0.0772909
0.0307298
0.0311861
0.0327667
0.0357736
0.0399809
0.0452574
0.0513361
0.0580804
0.0651388
0.072218
0.0784961
0.0832054
0.0862532
0.0850528
0.0801643
0.0679871
0.0491843
0.0313297
0.019632
0.00707565
-0.00286803
-0.00853987
-0.00817982
-0.00686087
-0.00764274
-0.00907481
-0.0117994
-0.0151822
-0.0208881
-0.0283835
-0.0363464
-0.0442871
-0.0519151
-0.0589487
-0.065292
-0.0706938
-0.0751438
-0.0784322
-0.0803049
-0.0808427
0.0298025
0.0299914
0.0309044
0.0326236
0.035358
0.0392531
0.0442152
0.0501499
0.0570289
0.0644272
0.0723584
0.0809221
0.0870976
0.09295
0.0911793
0.0806372
0.0666316
0.0514402
0.0345296
0.0135425
-0.00337798
-0.0140681
-0.0160629
-0.0126445
-0.0124979
-0.0158686
-0.0203021
-0.0271828
-0.0340386
-0.0414135
-0.0493293
-0.0569545
-0.0637946
-0.0698268
-0.0748234
-0.0788646
-0.0817967
-0.0836215
-0.0844753
-0.0847081
0.0295573
0.02961
0.029913
0.0304747
0.0314612
0.0332967
0.0363151
0.0407308
0.0468343
0.0549643
0.0658313
0.0776501
0.089926
0.0951185
0.096818
0.0919603
0.077535
0.0642851
0.0487609
0.0280546
0.00807045
-0.00920002
-0.0214578
-0.0272807
-0.027027
-0.0315072
-0.0402606
-0.0475999
-0.0560354
-0.0627846
-0.0683189
-0.0742097
-0.0792485
-0.0830075
-0.085692
-0.0874405
-0.088385
-0.0887825
-0.0889506
-0.0890074
0.0303506
0.0303956
0.0302407
0.0299847
0.0296505
0.0295544
0.0301945
0.0322471
0.0369845
0.0451243
0.0557683
0.0689132
0.080187
0.100832
0.115784
0.116918
0.100344
0.101198
0.0880699
0.0601062
0.0335941
0.0107368
-0.0092862
-0.0292349
-0.0479746
-0.0539433
-0.0628816
-0.0777707
-0.0838873
-0.0897563
-0.0928817
-0.0945583
-0.0957758
-0.0963732
-0.0960458
-0.095066
-0.093908
-0.0929302
-0.0923663
-0.0920317
0.034394
0.0339411
0.0333112
0.0321719
0.030875
0.0294075
0.0280433
0.0275774
0.0296398
0.0341977
0.0421528
0.052829
0.0735967
0.0870094
0.105858
0.146998
0.163263
0.123592
0.100947
0.0709867
0.0474703
0.0131504
-0.018407
-0.047234
-0.0958474
-0.107024
-0.117173
-0.115822
-0.117198
-0.119033
-0.11829
-0.115331
-0.110775
-0.106836
-0.103012
-0.0994822
-0.0966386
-0.0945389
-0.0932549
-0.0927293
0.0413899
0.0412665
0.0403794
0.0391935
0.0372778
0.0350417
0.0324029
0.0302375
0.0288579
0.0285889
0.0332826
0.0446762
0.0443729
0.0886972
0.108603
0.125376
0.142378
0.140998
0.112875
0.0740224
0.0298986
-0.0187973
-0.058502
-0.0781805
-0.0974095
-0.148171
-0.137137
-0.161139
-0.146482
-0.142874
-0.135796
-0.128395
-0.119223
-0.110633
-0.104107
-0.0987696
-0.0946707
-0.091928
-0.0900681
-0.0891373
0.0528865
0.052224
0.0515137
0.0504429
0.0488022
0.0467304
0.0440578
0.041818
0.0391366
0.0373793
0.0379362
0.0434059
0.0583237
0.100666
0.120152
0.133924
0.157162
0.159867
0.164263
0.120649
0.0594972
-0.0207697
-0.0874777
-0.11291
-0.154956
-0.167293
-0.162035
-0.183014
-0.167528
-0.154916
-0.139383
-0.126673
-0.115382
-0.104594
-0.0970938
-0.0914319
-0.0869906
-0.0836165
-0.0814822
-0.080538
0.0661444
0.066013
0.0659684
0.0654301
0.0650652
0.0642752
0.0636031
0.0637673
0.0632212
0.0636139
0.0663101
0.0706851
0.0740436
0.12493
0.125975
0.179148
0.196725
0.218414
0.228261
0.172157
0.0543018
-0.0739219
-0.149005
-0.187489
-0.196824
-0.208399
-0.183174
-0.154937
-0.145962
-0.134835
-0.120885
-0.108784
-0.0981911
-0.0880119
-0.0812018
-0.0764801
-0.0730722
-0.0705154
-0.069043
-0.0678726
0.0790628
0.0799948
0.0809666
0.0825192
0.0842626
0.0860905
0.0888276
0.0928462
0.0968779
0.101295
0.104182
0.114474
0.108796
0.126219
0.15309
0.170681
0.22735
0.276984
0.337181
0.323564
0.0624817
-0.230895
-0.293063
-0.261019
-0.219059
-0.183032
-0.161098
-0.0981049
-0.0918679
-0.090278
-0.0848735
-0.077508
-0.0707551
-0.0640134
-0.0595711
-0.0567212
-0.0543468
-0.0531205
-0.052057
-0.0522695
0.0924658
0.0929817
0.0946335
0.0971692
0.101076
0.106272
0.112782
0.120989
0.128775
0.137928
0.141742
0.148601
0.140908
0.134426
0.151866
0.154214
0.181489
0.223409
0.263989
-0.325826
-0.235329
-0.157284
-0.0846986
-0.0596768
-0.0261903
-0.0311366
-0.0393173
-0.0416741
-0.040917
-0.0394902
-0.0368321
-0.0348947
-0.0342192
-0.0332378
-0.0332794
-0.0335822
-0.0339429
0.0978393
0.0995658
0.10313
0.107541
0.113465
0.120441
0.128668
0.138351
0.145997
0.153261
0.154132
0.151046
0.118301
0.0918947
0.0882687
0.0645891
0.045447
0.0140471
0.0327977
-0.0815955
-0.0370322
-0.0130396
0.0252009
0.0351955
0.0444757
0.019349
0.00335692
-0.00588574
-0.0116754
-0.014212
-0.0140976
-0.0135155
-0.0134993
-0.0132546
-0.0130264
-0.0138034
-0.0123295
0.0967202
0.0985656
0.101902
0.107648
0.113198
0.119341
0.126283
0.13432
0.138419
0.143052
0.134631
0.116739
0.0865827
0.0269919
-0.0390143
-0.106981
-0.214551
-0.330954
-0.368538
0.31437
0.295264
0.224795
0.127059
0.0841225
0.0339747
0.0259634
0.0142935
0.00347465
-0.00038497
-0.00255483
-0.000933274
-0.000441188
-0.000363754
0.000434296
0.001911
0.0025342
-0.00122492
0.09023
0.0936263
0.0932327
0.0937294
0.0962463
0.100844
0.10426
0.108654
0.109765
0.0991989
0.083237
0.0410216
-0.00429621
-0.0285809
-0.103178
-0.267432
-0.589349
-1.15025
-1.61582
1.97391
-0.47265
-1.70726
1.78142
1.09189
0.545312
0.175548
0.0620923
0.0209734
0.00220986
-0.0126517
-0.00856644
-0.0122554
-0.00587242
-0.00039213
0.00193884
0.00285562
0.00245346
0.000309558
-0.00145791
0.0018887
0.0775238
0.0711012
0.0708387
0.071674
0.0717822
0.0703858
0.0717281
0.0701073
0.0643742
0.0514856
0.0352925
0.0223748
-0.0268677
0.00157721
-0.054588
-0.314449
-0.715702
-1.16348
0.444894
5.17579
-1.64917
-4.81577
-0.0460257
1.40732
0.562101
0.0983379
-0.0645948
-0.057321
-0.0784826
-0.0589581
-0.0414711
-0.0315104
-0.0200288
-0.0130304
-0.00599241
-0.00397511
-0.00125351
0.00109333
0.00211884
-0.00248171
0.0466241
0.0514764
0.047976
0.0442587
0.0411794
0.0385943
0.0355893
0.0323404
0.028957
0.0317314
0.0464001
0.0917459
0.1781
0.191953
0.144899
0.260013
-0.00410615
-1.34262
-1.73178
-1.35544
0.0849643
1.25932
1.61094
0.883216
-0.28272
-0.353248
-0.343205
-0.323535
-0.219909
-0.13813
-0.0892368
-0.0590144
-0.0402166
-0.0273315
-0.0163316
-0.00906302
-0.00419845
-0.00201167
-0.00210467
0.00324083
0.0317902
0.0282016
0.0278365
0.0237319
0.0188223
0.0136146
0.00326806
-0.00705834
-0.0152561
-0.00754433
0.0199757
0.0612038
0.132315
0.428609
0.464342
0.97146
1.55922
0.183768
-3.92857
-2.48272
0.367582
3.10607
3.34257
-1.34495
-1.57005
-0.890944
-0.617266
-0.292189
-0.202426
-0.138356
-0.0845239
-0.0547075
-0.0400434
-0.0330763
-0.0272609
-0.0206043
-0.0151181
-0.0120361
-0.00805673
-0.0101388
0.0141757
0.00923321
0.00871431
0.00761383
0.00390354
-0.00397459
-0.0202186
-0.0426798
-0.066468
-0.078447
-0.0775679
-0.0671595
-0.0612731
0.129737
0.484454
0.770371
1.78608
3.86297
2.72706
1.27823
-0.156339
-1.49043
-3.13214
-3.76209
-1.34724
-0.746917
-0.300358
-0.0803661
-0.0697573
-0.0402409
-0.0200014
-0.017988
-0.0241034
-0.0333655
-0.0357032
-0.0324329
-0.0269549
-0.0215704
-0.0173725
-0.0195072
0.00824669
0.00693122
0.00221148
-0.00363112
-0.0111299
-0.0209014
-0.035612
-0.0526034
-0.0764307
-0.100548
-0.133231
-0.163823
-0.19761
-0.220162
-0.103439
-0.282399
-0.0782311
1.64911
3.08625
1.92036
-0.129033
-2.25886
-3.14548
-1.40042
0.164625
-0.0002079
0.0602699
0.0443404
0.0268053
0.00489432
-0.0106681
-0.0240243
-0.0337492
-0.036494
-0.0372296
-0.0367804
-0.0357373
-0.0350639
-0.0350366
-0.0343602
0.00377731
0.00626502
0.00289878
-0.0053157
-0.0156888
-0.0267443
-0.0363505
-0.0387099
-0.0445462
-0.0597819
-0.0980198
-0.167958
-0.256132
-0.417757
-0.31896
-0.737113
-1.97182
-3.54624
-3.45083
-1.94781
0.276224
2.33095
3.65025
3.4072
1.39329
0.36055
0.266808
0.0927562
0.0271525
-0.0332088
-0.0545443
-0.058074
-0.051578
-0.0417867
-0.0409579
-0.0434072
-0.0462097
-0.0485228
-0.0476001
-0.0436543
-0.00212681
-0.00244869
-0.00488435
-0.00886977
-0.013314
-0.0184412
-0.0242612
-0.0273674
-0.0316842
-0.0403746
-0.0578483
-0.128478
-0.137413
-0.326862
-0.477405
-0.313258
-0.258361
-1.42704
-1.86905
-0.768528
0.720788
2.13192
2.25517
0.933962
0.0161194
0.43479
0.239043
0.0750191
0.0367349
-0.0259024
-0.0435905
-0.04768
-0.0461097
-0.0448751
-0.046363
-0.0471618
-0.0475076
-0.048183
-0.0477597
-0.04586
-0.00450196
-0.00926633
-0.00973521
-0.00903112
-0.00793354
-0.00823917
-0.0127923
-0.0237941
-0.0388509
-0.0522671
-0.0568136
-0.0842621
-0.0786463
0.0105705
-0.00845595
0.746767
1.58976
2.0553
2.80471
1.48263
-1.6629
-2.86813
-2.26104
-1.79357
-0.861934
-0.122019
-0.0907027
0.0376401
0.0288689
0.0112775
0.0021482
-0.0131284
-0.0300647
-0.042767
-0.0475887
-0.0465532
-0.0444179
-0.042845
-0.0427837
-0.0467689
0.00376749
0.00342669
0.00351583
0.00302016
0.00133528
-0.000723352
-0.00299251
-0.010798
-0.0160257
-0.0240635
-0.0258759
-0.0105325
-0.0109257
0.0244212
0.0086001
0.0659255
0.856184
1.21407
1.40926
0.893033
-0.41824
-0.959697
-1.02797
-0.780373
-0.0327686
-0.0395402
-0.03822
0.0186333
0.000753931
0.0148907
0.00213859
-0.013411
-0.0260629
-0.0379992
-0.0436017
-0.0475092
-0.0495905
-0.0502886
-0.0498438
-0.0507846
0.0132092
0.0179482
0.0153912
0.0122986
0.00912462
0.0078213
0.0135822
0.0222229
0.0357965
0.0431322
0.0472606
0.0668085
0.0427637
-0.0346037
-0.176415
-0.363033
-0.380413
-0.702732
-0.906952
-0.484996
1.05569
1.51268
1.06359
0.689926
0.488887
0.312488
0.116988
-0.00462092
-0.0374548
-0.0334001
-0.0440867
-0.0453167
-0.0417409
-0.0389855
-0.0403247
-0.0460496
-0.051613
-0.0572819
-0.06063
-0.0567577
0.0129641
0.0108609
0.0102674
0.0114122
0.0137707
0.0175401
0.025591
0.0398369
0.0567031
0.0697753
0.0699023
0.0382054
0.0338098
-0.041752
0.0251845
-0.138278
-0.34029
-0.519773
-0.797978
-0.521109
0.529086
0.758578
0.465206
0.368126
0.280321
0.0898075
0.0806852
-0.0204952
-0.0385871
-0.0648586
-0.0703328
-0.0626372
-0.0530275
-0.0453908
-0.0437352
-0.0446231
-0.0459945
-0.0477173
-0.0497718
-0.0518789
0.0140693
0.00809956
0.0107939
0.0150747
0.0206648
0.025891
0.0286367
0.0286378
0.0318793
0.0312112
0.034268
0.0196129
0.0579871
0.064581
0.12679
0.177823
0.773295
1.06911
1.41566
0.901357
-0.61623
-1.12225
-0.919471
-0.816506
-0.256616
-0.310989
-0.177459
-0.111343
-0.0517961
-0.0452829
-0.0402116
-0.0414424
-0.0399445
-0.0431885
-0.0443014
-0.0430211
-0.0401754
-0.0373717
-0.0354099
-0.0415891
0.0250545
0.0298611
0.0317953
0.0327899
0.0341573
0.0350813
0.0334345
0.0264227
0.0189948
0.017127
0.0350394
0.0687351
0.128042
0.177667
0.300191
0.353254
0.566822
0.826949
1.20917
0.904863
-0.683295
-1.00358
-0.830147
-0.630308
-0.465441
-0.372386
-0.236029
-0.17168
-0.0858035
-0.035189
-0.0154609
-0.0137451
-0.0237252
-0.0331394
-0.0386813
-0.0410745
-0.0433131
-0.0450485
-0.045541
-0.0412149
0.0316791
0.0398436
0.0413039
0.0405843
0.038933
0.038307
0.0400296
0.0421134
0.0442947
0.0521169
0.0744906
0.0815136
0.099293
0.108168
0.137708
0.104979
-0.263712
-0.504342
-0.549725
-0.538324
0.355015
0.430276
0.334351
0.141142
-0.212795
-0.141425
-0.0926548
-0.0874329
-0.0610867
-0.0523672
-0.0338217
-0.0246426
-0.0269654
-0.02808
-0.0309821
-0.0354737
-0.0409565
-0.0448745
-0.0456786
-0.038515
0.0249929
0.0215547
0.021959
0.0240789
0.0269498
0.0314039
0.0397405
0.0518643
0.0676883
0.0754408
0.0837996
0.0659207
0.0660718
0.101885
0.0800941
0.137319
-0.0252255
-0.280095
-0.624153
-0.499802
0.623894
0.78641
0.404629
0.227142
-0.0156065
0.0180074
-0.0506668
-0.0453306
-0.0470153
-0.0555634
-0.0505323
-0.0446233
-0.0338099
-0.025248
-0.0212622
-0.0201923
-0.0197552
-0.019442
-0.0198923
-0.0249362
0.0213824
0.0117333
0.0120888
0.016641
0.0233094
0.0300666
0.0373642
0.0460942
0.057528
0.0626942
0.0607768
0.0832027
0.126958
0.194482
0.304083
0.530563
0.844532
0.90895
0.739621
0.487799
0.115817
-0.181142
-0.5072
-0.469166
-0.318187
-0.188287
-0.151958
-0.104438
-0.0638797
-0.0310834
-0.038751
-0.0351669
-0.0280015
-0.020824
-0.0172212
-0.0132178
-0.0099099
-0.00828276
-0.0103977
-0.0201771
0.0346869
0.0364832
0.0362071
0.0363733
0.0375128
0.0385353
0.0381386
0.0338502
0.0343171
0.0412062
0.0514599
0.0917636
0.126722
0.148406
0.226844
0.307855
0.712009
0.959161
1.13526
0.898717
-0.594463
-0.834939
-0.835448
-0.623542
-0.325014
-0.191734
-0.0982151
-0.0767194
-0.0700087
-0.0317444
-0.0258944
-0.0159563
-0.0193201
-0.0238196
-0.0279666
-0.0288189
-0.030445
-0.0321211
-0.0338213
-0.0324712
0.0420061
0.0518644
0.0540581
0.0529412
0.0496825
0.0464376
0.0433168
0.0370077
0.0331329
0.0309096
0.0261336
0.0207377
-0.00153873
-0.0471644
-0.0877533
-0.235059
-0.281763
-0.202822
-0.0720671
-0.0291107
-0.043077
0.0491781
0.213883
0.305699
0.24763
0.0734662
-0.0352749
-0.0726628
-0.0604086
-0.0446368
-0.0404604
-0.0294861
-0.0324181
-0.0356756
-0.0397565
-0.0427787
-0.046524
-0.0478599
-0.046158
-0.0367367
0.028206
0.0304085
0.0334298
0.0362046
0.0381263
0.039897
0.0436189
0.0476036
0.0470596
0.0408989
0.0145804
-0.0271729
-0.0444344
-0.0967005
-0.134915
-0.288896
-0.606315
-0.770232
-0.793199
-0.553026
0.529456
0.854736
0.744676
0.54955
0.192833
0.00108853
-0.0394464
-0.0503084
-0.0336927
-0.043326
-0.0505143
-0.046584
-0.0428974
-0.0349727
-0.0305535
-0.027977
-0.0268076
-0.0248104
-0.0229332
-0.0213199
0.0213993
0.0136888
0.0129612
0.0158235
0.0216977
0.027763
0.035265
0.0430759
0.0483974
0.0392391
0.0362234
-0.00450799
-0.0267441
-0.0587821
-0.0278499
0.0337807
0.032949
-0.0541295
-0.138814
-0.154069
0.0172203
0.0192786
-0.137796
-0.237747
-0.257256
-0.146426
-0.0534415
-0.0319093
-0.0308017
-0.0452138
-0.0363807
-0.0411656
-0.0343151
-0.0232058
-0.0160371
-0.00960015
-0.00468638
-0.00279579
-0.00422863
-0.0126624
0.0318081
0.0289595
0.0278627
0.0283069
0.0309157
0.0330384
0.0337854
0.0316479
0.0295237
0.0187955
0.0234002
0.0134973
-0.00138974
-0.0119128
0.0310573
0.186448
0.436358
0.533426
0.66069
0.437014
-0.495942
-0.655134
-0.565589
-0.440818
-0.214416
-0.046543
-0.0186996
-0.0111174
-0.0309562
-0.0325624
-0.0200399
-0.024926
-0.0248951
-0.0257802
-0.0249003
-0.022406
-0.0196653
-0.0183845
-0.0185896
-0.0223588
0.0369794
0.0438941
0.0467736
0.0465967
0.0446187
0.0411542
0.03562
0.0261837
0.0185447
0.0105126
-0.00463026
-0.0203561
-0.0339219
-0.059202
-0.0999179
-0.134505
-0.0335975
0.0581793
0.263099
0.326934
0.0182632
0.0310908
0.171316
0.288423
0.314819
0.238135
0.10609
0.0345538
-0.000157792
-0.00975069
-0.0120577
-0.0168187
-0.0236549
-0.0316341
-0.0367364
-0.0401202
-0.0424643
-0.0430527
-0.0409814
-0.0333075
0.0254849
0.0315107
0.0334416
0.0327092
0.0303251
0.0285285
0.0263024
0.0221371
0.0157763
0.0136042
-0.0118842
-0.0248293
-0.0510765
-0.135634
-0.258754
-0.425206
-0.610474
-0.652927
-0.545093
-0.306922
0.595865
0.849094
0.791116
0.727958
0.438746
0.237375
0.0992173
0.0389851
0.0155623
0.00480495
-0.017656
-0.0201369
-0.0244781
-0.0275161
-0.027928
-0.0297033
-0.0325117
-0.0334487
-0.0315701
-0.0245332
0.00927396
0.00396189
0.00195536
0.001635
0.00261933
0.00383881
0.00739085
0.00991595
0.00610979
-0.00246758
-0.017849
-0.0253913
-0.00354596
0.0201896
0.0324953
-0.0483785
-0.202063
-0.309094
-0.422033
-0.335555
0.287695
0.369758
0.221613
0.11087
-0.0574753
-0.109246
-0.079172
-0.0439477
-0.0224569
-0.0172238
-0.0217894
-0.0233592
-0.0208519
-0.0137977
-0.00776715
-0.00433791
-0.00180858
-0.000521241
-0.00163036
-0.0070754
0.00529756
-0.00346666
-0.00667651
-0.00721061
-0.00652082
-0.006016
-0.00510105
-0.00625648
-0.00699302
-0.0126475
-0.0123524
-0.022551
-0.0150176
0.0606087
0.240755
0.390063
0.542768
0.546039
0.521295
0.297832
-0.356985
-0.538202
-0.623309
-0.611413
-0.477219
-0.331125
-0.155703
-0.0844683
-0.0533302
-0.0460597
-0.0271195
-0.0169733
-0.00901311
-0.00296588
0.000921592
0.00259483
0.00502092
0.00467546
0.00165247
-0.00682962
0.0128416
0.0145723
0.0145571
0.0127451
0.00960484
0.00462029
-0.0018452
-0.00970564
-0.0132576
-0.0155442
-0.0149158
-0.0258476
-0.0458398
-0.0754991
-0.0326509
0.0715746
0.262755
0.357133
0.435
0.287457
-0.331224
-0.482115
-0.47444
-0.398408
-0.237362
-0.122968
-0.0655723
-0.0471781
-0.0379563
-0.0286277
-0.0104808
-0.00437246
-0.00245596
-0.00650868
-0.0114531
-0.0153812
-0.0183181
-0.0204151
-0.0206645
-0.0182158
0.0129135
0.0209154
0.0221299
0.020296
0.0149318
0.0076966
0.000824027
-0.00890775
-0.0163175
-0.0189015
-0.0256075
-0.0268244
-0.0382974
-0.124363
-0.243353
-0.359298
-0.395734
-0.414082
-0.451829
-0.40763
0.268593
0.377102
0.307329
0.30547
0.228742
0.137581
0.0206545
-0.0256058
-0.0176324
-0.00718313
-0.0036947
-0.00084799
-0.00389885
-0.0100413
-0.0166188
-0.0221521
-0.0260703
-0.0272769
-0.0252581
-0.0174016
-0.00129282
-0.00157466
-0.00342908
-0.0053984
-0.00786657
-0.00980271
-0.0105333
-0.0123756
-0.0154679
-0.0157766
-0.0159041
0.00531881
0.0406656
0.0576752
0.0263274
-0.0693255
-0.218587
-0.312695
-0.359152
-0.244149
0.352782
0.458557
0.369081
0.308364
0.132884
0.045641
-0.0233133
-0.029104
-0.026752
-0.0158923
-0.0107832
-0.00472477
-0.00280011
-0.00192293
-0.000420935
-0.00106552
-0.00242275
-0.00378113
-0.0054648
-0.00647441
-0.0109685
-0.0213727
-0.0244695
-0.0243377
-0.0220674
-0.0191359
-0.014474
-0.00895083
-0.00932788
-0.00754907
0.01323
0.0352513
0.0923194
0.211316
0.345159
0.442757
0.497205
0.48517
0.481793
0.329239
-0.0186349
-0.170616
-0.305442
-0.330517
-0.349311
-0.27948
-0.193637
-0.102117
-0.0625518
-0.0421645
-0.0165377
-0.00746007
-0.00733623
-0.00153266
0.00404662
0.00773268
0.00992251
0.00923033
0.00548963
-0.00324127
-0.00142835
-0.00482884
-0.00570237
-0.00586998
-0.00547018
-0.00506354
-0.00490611
-0.00370391
-0.00124157
0.00144421
0.0112185
0.00493079
0.0119362
0.059982
0.196826
0.338372
0.511428
0.580234
0.621982
0.433798
-0.31188
-0.493837
-0.511295
-0.475611
-0.36879
-0.244526
-0.133931
-0.0578862
-0.0375631
-0.0367995
-0.0283837
-0.0240812
-0.0195596
-0.015725
-0.0143869
-0.0134668
-0.0118737
-0.0109101
-0.0107144
-0.0132959
0.0102067
0.018773
0.0214513
0.0207193
0.0174847
0.0129129
0.00727966
0.00178341
-0.00156258
-0.010351
-0.0293351
-0.0542033
-0.0954092
-0.183532
-0.238812
-0.26105
-0.250755
-0.217276
-0.174835
-0.165964
0.0656048
0.102044
0.146539
0.189462
0.199517
0.189996
0.130295
0.0424705
-0.0156819
-0.0294389
-0.0364158
-0.031016
-0.0286187
-0.0285125
-0.031942
-0.0343433
-0.036183
-0.0358882
-0.0326624
-0.0240679
0.0030241
0.00878594
0.0109764
0.0122478
0.0112819
0.0097516
0.00730926
0.00188323
-0.00446065
-0.0121096
-0.0388981
-0.0524569
-0.0720207
-0.169217
-0.308248
-0.460605
-0.600093
-0.636634
-0.596921
-0.396076
0.291772
0.501742
0.509822
0.479313
0.351471
0.203831
0.0689544
-0.0133877
-0.0222045
-0.0197493
-0.0299871
-0.0266418
-0.0257637
-0.0271951
-0.0277376
-0.0280922
-0.0285018
-0.0279177
-0.0262878
-0.0206234
-0.00927383
-0.014845
-0.0166446
-0.0156554
-0.0126786
-0.00875991
-0.00407956
-0.00242938
-0.00348687
-0.00659383
-0.00899275
-0.0156508
-0.00495192
0.0298134
0.0335925
0.0108032
-0.0270914
-0.0473676
-0.0359429
-0.033147
-0.0882596
-0.0487387
-0.0501608
-0.0950415
-0.162226
-0.175543
-0.168588
-0.0955637
-0.0519034
-0.0398603
-0.0314672
-0.0268624
-0.0232589
-0.0176597
-0.0118361
-0.00702352
-0.00379792
-0.0026244
-0.0043457
-0.0110093
-0.0074114
-0.013701
-0.0154379
-0.0147316
-0.0113984
-0.0072883
-0.00144004
0.00195068
0.00475454
0.0037236
0.0136544
0.0178488
0.0320964
0.115946
0.229956
0.330749
0.466997
0.497817
0.492064
0.338625
-0.305441
-0.440695
-0.492318
-0.474138
-0.343131
-0.236292
-0.139644
-0.0540776
-0.0500656
-0.0485594
-0.0391896
-0.0356559
-0.0286753
-0.0223484
-0.0165904
-0.0115331
-0.00717005
-0.00568365
-0.00638482
-0.0131673
-0.000253159
0.00420545
0.00755234
0.00909719
0.00972118
0.00914995
0.00798356
0.0066003
0.00376085
-0.00341156
-0.0197557
-0.0277982
-0.0495916
-0.0800579
-0.0704118
-0.038624
0.0418269
0.10193
0.143351
0.132452
0.0963046
0.0547627
0.0327302
0.0657198
0.129266
0.151222
0.135616
0.0794897
0.0153449
-0.0108372
-0.0286747
-0.0318708
-0.0314541
-0.0327728
-0.0342876
-0.034786
-0.0346595
-0.0336324
-0.0309289
-0.0261449
-0.00156362
0.0069287
0.00956201
0.00888288
0.00606356
0.00216117
-0.00258365
-0.008287
-0.0149129
-0.0227074
-0.0472403
-0.0824058
-0.141193
-0.248856
-0.346593
-0.426915
-0.498356
-0.480352
-0.404534
-0.21238
0.334137
0.522822
0.553522
0.539948
0.446252
0.332856
0.208573
0.093427
0.0377503
0.0135603
-0.00854869
-0.0146175
-0.0216069
-0.026755
-0.0317742
-0.0350705
-0.0382243
-0.0389103
-0.0361612
-0.0269087
-0.0147307
-0.0158694
-0.0178965
-0.0196286
-0.0211852
-0.0223872
-0.0241234
-0.0283927
-0.0346552
-0.0378887
-0.0327095
-0.0255914
-0.012486
-0.0348658
-0.0784671
-0.139751
-0.219902
-0.262813
-0.219967
-0.109427
0.0372966
0.142734
0.172415
0.128411
0.0406028
-0.0180901
-0.0626359
-0.0608255
-0.0374331
-0.0227691
-0.0115107
-0.00819452
-0.00936465
-0.00978071
-0.00900307
-0.00833091
-0.00815247
-0.00840077
-0.00947307
-0.0114345
-0.0240168
-0.0335762
-0.0370464
-0.0376989
-0.0362595
-0.0339343
-0.0309016
-0.0296341
-0.0283456
-0.0292741
-0.0127391
0.0131336
0.0848233
0.182183
0.280538
0.344933
0.385674
0.362858
0.303837
0.166944
-0.249158
-0.42001
-0.485486
-0.502961
-0.449636
-0.367319
-0.264929
-0.147241
-0.0816425
-0.0524328
-0.0263705
-0.0177283
-0.00736527
-0.00111056
0.00398295
0.00743169
0.00935742
0.00907402
0.0055029
-0.00432469
-0.018019
-0.0202367
-0.0207538
-0.0211321
-0.0211398
-0.0216921
-0.0212828
-0.0201749
-0.0178518
-0.0204672
-0.0236718
-0.0327617
-0.0264525
0.0108631
0.0901135
0.166215
0.262169
0.294819
0.238057
0.0873565
-0.136819
-0.295155
-0.369432
-0.347325
-0.271715
-0.196464
-0.119398
-0.0629335
-0.0446243
-0.0345897
-0.0289683
-0.0214883
-0.014796
-0.0114133
-0.0105584
-0.0108417
-0.0113911
-0.0125663
-0.0133259
-0.0147843
-0.0108368
-0.0031972
-0.000935835
-0.00147227
-0.00522256
-0.0105218
-0.017932
-0.0215069
-0.0275918
-0.0348455
-0.0571799
-0.0797462
-0.13221
-0.216034
-0.26557
-0.314532
-0.330641
-0.317589
-0.287271
-0.178989
0.130974
0.262894
0.295879
0.296299
0.264131
0.209526
0.138642
0.0609083
0.0116063
0.000752822
-0.00946803
-0.00995734
-0.0154197
-0.0195047
-0.0250687
-0.0288123
-0.0320066
-0.0324215
-0.029425
-0.0217215
-0.017798
-0.0140054
-0.0144505
-0.0166097
-0.0202376
-0.0242354
-0.0301993
-0.0363419
-0.0434648
-0.0451495
-0.0487608
-0.0423074
-0.0369791
-0.0825272
-0.136673
-0.19847
-0.268434
-0.277838
-0.198344
-0.047335
0.144532
0.291037
0.314562
0.267756
0.210704
0.144418
0.0747593
0.0276082
0.00902863
0.00898046
0.00439423
0.00232973
-0.00208093
-0.00665823
-0.0101853
-0.0132625
-0.0164808
-0.0182035
-0.0183866
-0.0156123
-0.0296363
-0.0369888
-0.0403857
-0.0414708
-0.0406875
-0.0388081
-0.0365405
-0.0345006
-0.0332884
-0.0223431
0.0021812
0.0422079
0.119595
0.198404
0.261684
0.313745
0.330584
0.318725
0.295267
0.212192
-0.0656417
-0.17285
-0.246841
-0.288775
-0.285129
-0.258376
-0.209336
-0.14207
-0.0810524
-0.0458008
-0.0219566
-0.00916887
-0.00485175
-0.00171505
0.00209554
0.00407791
0.00429552
0.00257987
-0.00148258
-0.00862225
-0.0258589
-0.0323531
-0.0341997
-0.033556
-0.0311502
-0.0275069
-0.0232535
-0.0169628
-0.0102221
-0.00374163
0.0118412
0.0289387
0.0704718
0.144816
0.229738
0.320371
0.376804
0.419882
0.338407
0.152987
-0.0919401
-0.326293
-0.432445
-0.374159
-0.337287
-0.278868
-0.203741
-0.137873
-0.0857316
-0.0612289
-0.0469805
-0.0371866
-0.0284617
-0.0204372
-0.0147694
-0.0106616
-0.00784351
-0.00639706
-0.00740414
-0.0135471
-0.0117681
-0.00669247
-0.0041596
-0.00313655
-0.0039184
-0.00498813
-0.00702953
-0.00736736
-0.00928408
-0.0205572
-0.0399168
-0.0720832
-0.12256
-0.171103
-0.197629
-0.222135
-0.215666
-0.183562
-0.156859
-0.0868543
0.037983
0.0665728
0.0940886
0.141804
0.150882
0.133345
0.110255
0.0677654
0.0180376
-0.0211386
-0.0381699
-0.041962
-0.0412599
-0.0363015
-0.035562
-0.035855
-0.0359004
-0.0344078
-0.0313505
-0.0257426
-0.011065
-0.00293927
0.000616749
0.00163098
-4.53869e-05
-0.00279252
-0.00805428
-0.0147489
-0.0236765
-0.0375007
-0.06307
-0.0937194
-0.161253
-0.256128
-0.351348
-0.438495
-0.486788
-0.495847
-0.389896
-0.164762
0.0821455
0.289522
0.385778
0.368886
0.325998
0.246762
0.166869
0.0862007
0.0243324
-0.000579334
-0.0172487
-0.0239209
-0.0264745
-0.030501
-0.0344585
-0.0362395
-0.0383156
-0.0381382
-0.0352008
-0.0276566
-0.022813
-0.0244407
-0.0252337
-0.0253243
-0.0247402
-0.0240097
-0.0240885
-0.0267038
-0.0315948
-0.031319
-0.0338725
-0.023623
-0.00790411
0.00143966
0.00239516
0.00725996
-0.00273431
-0.0256674
-0.0276999
-0.0137628
-0.0609221
-0.0467346
-0.0361774
-0.0617641
-0.0848839
-0.103538
-0.108809
-0.0934917
-0.064981
-0.0341239
-0.0230174
-0.0160637
-0.0152323
-0.0162635
-0.0155837
-0.0134371
-0.0123022
-0.0124366
-0.0137013
-0.0167391
-0.0272316
-0.0342535
-0.0369541
-0.0369459
-0.034217
-0.0299816
-0.0250159
-0.0190368
-0.0146014
-0.00243252
0.0108845
0.0416574
0.104271
0.17956
0.251129
0.317968
0.349936
0.343461
0.273401
0.11251
-0.0725406
-0.231001
-0.325459
-0.355591
-0.328168
-0.278201
-0.215545
-0.146864
-0.0935931
-0.0601747
-0.0448629
-0.0317345
-0.0265837
-0.0197364
-0.0131759
-0.0073135
-0.00348614
-0.00303935
-0.00568236
-0.013094
-0.0208564
-0.02105
-0.019067
-0.0167373
-0.0143762
-0.0121244
-0.0093848
-0.00531579
-0.00497499
-0.00701564
-0.0103556
-0.0257856
-0.0416653
-0.050305
-0.0502314
-0.0376094
-0.0165017
0.0486926
0.0625083
0.0345653
0.0789721
0.0572419
0.0471791
0.0574189
0.0715668
0.0633244
0.0571004
0.032695
0.00283177
-0.0218448
-0.0342215
-0.0391732
-0.0385482
-0.0345992
-0.0314129
-0.0293731
-0.0271718
-0.0250603
-0.0231478
-0.0223061
-0.0160678
-0.0084253
-0.00505991
-0.00442298
-0.00642774
-0.00972748
-0.0143392
-0.0191088
-0.0266619
-0.0450572
-0.074121
-0.131863
-0.204669
-0.278198
-0.347165
-0.395834
-0.411135
-0.363859
-0.238599
-0.0947907
0.125421
0.28262
0.3892
0.418637
0.386052
0.31397
0.239321
0.155333
0.0776035
0.0246273
-0.00082555
-0.018003
-0.0261504
-0.0307539
-0.0345353
-0.0385424
-0.040722
-0.040234
-0.0368785
-0.0282124
-0.0248104
-0.0221497
-0.0223069
-0.0240429
-0.0270695
-0.0312719
-0.0376687
-0.0458064
-0.0530754
-0.0609447
-0.0650723
-0.0682922
-0.0844681
-0.0994918
-0.127808
-0.141997
-0.163782
-0.175719
-0.126639
-0.0598897
-0.00416551
0.0656842
0.0946047
0.0796176
0.0541901
0.0322408
0.0100077
-0.00327921
-0.00870926
-0.00222834
0.00116973
-0.000600442
-0.00539372
-0.0107849
-0.0153206
-0.0179741
-0.0200382
-0.0215132
-0.0217955
-0.0195546
-0.0372365
-0.0439357
-0.0473662
-0.0486663
-0.0484775
-0.0481714
-0.0481068
-0.0483686
-0.0474945
-0.0344932
-0.0128545
0.0382307
0.101172
0.165829
0.214554
0.262121
0.275764
0.247294
0.151579
0.0328578
-0.114222
-0.229493
-0.338771
-0.401542
-0.372674
-0.320633
-0.25318
-0.181975
-0.111931
-0.0525654
-0.0282961
-0.0118954
-0.00484718
-0.00176197
0.000505181
0.0025941
0.00359874
0.00202567
-0.0017803
-0.00962052
-0.0354709
-0.0401352
-0.0420758
-0.0423081
-0.0414183
-0.0390647
-0.0352997
-0.0308259
-0.0273046
-0.0193618
-0.0126215
0.00225577
0.0295027
0.0673115
0.103852
0.146057
0.179476
0.18276
0.113899
0.00996551
-0.0797451
-0.156584
-0.216693
-0.236323
-0.214713
-0.191102
-0.148992
-0.109969
-0.075363
-0.0528937
-0.0418937
-0.0302143
-0.0222334
-0.0155823
-0.0106035
-0.00832266
-0.00763095
-0.00824798
-0.010362
-0.0150849
-0.0262275
-0.0218878
-0.0197977
-0.0194471
-0.0204663
-0.0220045
-0.0228272
-0.0238374
-0.0283331
-0.0412737
-0.0577884
-0.10098
-0.151535
-0.193152
-0.232024
-0.254752
-0.266842
-0.222374
-0.159349
-0.0642436
0.0400646
0.139687
0.213222
0.251872
0.234882
0.192905
0.146506
0.0892505
0.0330815
-0.00705719
-0.0172275
-0.0249052
-0.0280531
-0.0292376
-0.0303281
-0.0323333
-0.0339049
-0.0335233
-0.0313471
-0.0261964
-0.0259906
-0.0214288
-0.0198533
-0.0205867
-0.0234928
-0.0276679
-0.0336506
-0.0409171
-0.0481585
-0.0609408
-0.0708171
-0.0927393
-0.121865
-0.143537
-0.167005
-0.180384
-0.189844
-0.152688
-0.0762953
-0.0106646
0.0615469
0.126523
0.169673
0.175157
0.149752
0.129361
0.103805
0.0726053
0.0405467
0.0179086
0.00928881
-0.00361987
-0.0124089
-0.0181289
-0.0242175
-0.0286505
-0.031668
-0.0326244
-0.031435
-0.0259446
-0.0331478
-0.036445
-0.0393205
-0.0415448
-0.0429835
-0.0444342
-0.0465305
-0.049324
-0.0453886
-0.0370507
-0.0161714
0.0276344
0.0863181
0.147403
0.196793
0.237457
0.277286
0.242104
0.173732
0.0831732
-0.0195388
-0.0958107
-0.19789
-0.269699
-0.264043
-0.241309
-0.199157
-0.146988
-0.089256
-0.0435896
-0.0210066
-0.0113327
-0.00776045
-0.00734854
-0.00828517
-0.00884734
-0.00936977
-0.0108755
-0.0130003
-0.0167853
-0.0343846
-0.0407828
-0.0436744
-0.0440076
-0.042223
-0.0391073
-0.0340286
-0.0295148
-0.0202189
-0.0036413
0.0181831
0.0595349
0.113909
0.165195
0.214136
0.251217
0.284699
0.252665
0.166375
0.0793457
-0.0432231
-0.135541
-0.243373
-0.293791