/*--------------------------------*- C++ -*----------------------------------*\
| =========                 |                                                 |
| \\      /  F ield         | OpenFOAM: The Open Source CFD Toolbox           |
|  \\    /   O peration     | Version:  v2106                                 |
|   \\  /    A nd           | Website:  www.openfoam.com                      |
|    \\/     M anipulation  |                                                 |
\*---------------------------------------------------------------------------*/
FoamFile
{
    version     2.0;
    format      ascii;
    arch        "LSB;label=32;scalar=64";
    class       volVectorField;
    location    "0";
    object      U;
}
// * * * * * * * * * * * * * * * * * * * * * * * * * * * * * * * * * * * * * //

dimensions      [0 1 -1 0 0 0 0];

internalField   nonuniform List<vector> 
11644
(
(-0.00251297 -4.77703e-05 -5.56723e-22)
(-0.00252427 -0.000145894 -1.53528e-21)
(-0.0025263 -0.00022742 -8.23715e-22)
(-0.00251213 -0.000319523 0)
(-0.00252377 -0.000438264 0)
(-0.00254348 -0.000581086 0)
(-0.00255881 -0.000712497 0)
(-0.00254486 -0.000828889 0)
(-0.00256631 -0.000926729 0)
(-0.00259554 -0.000992207 0)
(-0.00256142 -0.000988501 0)
(-0.00267881 -0.000957884 0)
(-0.00265826 -0.000851045 0)
(-0.00309719 -0.000632184 0)
(-0.00307129 -0.00050888 0)
(-0.0026522 -0.000374907 0)
(-0.00253763 -0.000292003 0)
(-0.00218306 -0.000547047 0)
(-0.00213782 -0.00118707 0)
(-0.00266962 -0.00145768 4.46875e-31)
(-0.003102 -0.00139037 -4.29089e-31)
(-0.00314716 -0.00111872 0)
(-0.00281865 -0.000858436 0)
(-0.00260234 -0.000900887 0)
(-0.00249933 -0.00095635 0)
(-0.00276064 -0.00098668 0)
(-0.00289749 -0.000791518 0)
(-0.00248769 -0.000573366 0)
(-0.00269682 -0.000355098 0)
(-0.0026474 -0.00020756 0)
(-0.00251454 -0.000130109 0)
(-0.00250538 -5.9182e-05 0)
(-0.00252226 -1.11346e-05 0)
(-0.00252524 1.52036e-05 0)
(-0.00251636 2.15281e-05 0)
(-0.00252762 3.05839e-05 0)
(-0.00252833 2.66491e-05 0)
(-0.00251378 2.58264e-05 0)
(-0.00251474 2.51213e-06 0)
(-0.00253926 7.0279e-06 -1.07943e-22)
(-0.00236736 -0.000121918 -7.15107e-22)
(-0.00235578 -0.000319964 -6.62419e-22)
(-0.00233281 -0.000556198 -3.55764e-22)
(-0.00226625 -0.000799261 0)
(-0.00221454 -0.00107431 0)
(-0.0021616 -0.00140929 0)
(-0.00210086 -0.00178256 0)
(-0.0020378 -0.00216399 0)
(-0.00195383 -0.00250188 0)
(-0.00185986 -0.00278957 0)
(-0.0018984 -0.00302218 0)
(-0.0017483 -0.00305948 0)
(-0.00196618 -0.00310725 0)
(-0.00168394 -0.00295896 0)
(-0.00180362 -0.00285222 0)
(-0.00254419 -0.00278561 1.37736e-22)
(-0.0025206 -0.00308469 -2.96817e-22)
(-0.00263007 -0.00348752 -6.14213e-22)
(-0.00315903 -0.00373949 -1.21188e-21)
(-0.00328867 -0.0042145 4.77998e-21)
(-0.00322919 -0.00485196 -2.748e-21)
(-0.00317431 -0.00505893 -2.1389e-22)
(-0.00310776 -0.00483831 6.12557e-23)
(-0.0028831 -0.00435246 2.40078e-22)
(-0.0027379 -0.00397126 -9.68858e-23)
(-0.00226062 -0.00336002 0)
(-0.00192181 -0.00279996 0)
(-0.00240391 -0.002111 0)
(-0.00213667 -0.00157374 0)
(-0.00213338 -0.00114048 0)
(-0.0023342 -0.000737693 0)
(-0.00236257 -0.00048171 0)
(-0.00238732 -0.000311473 0)
(-0.00241894 -0.000195471 0)
(-0.00246297 -0.000108385 0)
(-0.00245758 -7.13566e-05 0)
(-0.00246925 -5.88141e-05 0)
(-0.00245568 -4.12682e-05 0)
(-0.00249386 -1.14397e-05 0)
(-0.00254368 -4.93895e-06 0)
(-0.00220764 -9.15341e-05 0)
(-0.00215124 -0.000410968 0)
(-0.00204756 -0.000824239 0)
(-0.00189838 -0.0012383 0)
(-0.00177684 -0.00172799 -6.53237e-22)
(-0.00157501 -0.00225021 0)
(-0.00131152 -0.00284784 0)
(-0.000993096 -0.0034972 0)
(-0.000684868 -0.00417703 0)
(-0.000443535 -0.00485252 0)
(-0.000285366 -0.00541064 0)
(-0.00049435 -0.00591918 0)
(-0.000477211 -0.006126 1.29063e-23)
(-0.00138807 -0.00617563 -6.62555e-22)
(-0.00222883 -0.00617038 2.87896e-21)
(-0.00184383 -0.00628075 1.45742e-21)
(-0.00243449 -0.00655924 -5.85459e-21)
(-0.00326671 -0.00703502 -1.74486e-21)
(-0.00356635 -0.00815147 2.94713e-21)
(-0.00363456 -0.00921211 -1.53331e-20)
(-0.00380537 -0.00969802 2.37204e-20)
(-0.00388747 -0.00995336 -8.84499e-21)
(-0.0039318 -0.00978806 -2.11176e-21)
(-0.00384491 -0.00918588 -4.06448e-22)
(-0.00337062 -0.00799591 5.93415e-21)
(-0.00303675 -0.00664832 -2.84378e-21)
(-0.00300216 -0.005258 8.0812e-22)
(-0.00215125 -0.00398581 -8.75145e-24)
(-0.00213199 -0.00288574 0)
(-0.00206554 -0.00204207 0)
(-0.00198143 -0.00146252 0)
(-0.0020761 -0.000966566 0)
(-0.00215594 -0.000628944 0)
(-0.00225805 -0.000410391 0)
(-0.00233133 -0.000280016 0)
(-0.00240639 -0.000195355 0)
(-0.00248707 -0.000127349 0)
(-0.00252509 -9.15135e-05 0)
(-0.0025951 -3.65613e-05 0)
(-0.00266886 -1.26684e-05 0)
(-0.00206102 -0.000148478 0)
(-0.00196903 -0.000472155 0)
(-0.00175859 -0.000822912 0)
(-0.00150742 -0.00136342 0)
(-0.00119623 -0.00195656 0)
(-0.000785332 -0.00265126 0)
(-0.000259573 -0.00347553 0)
(0.00035728 -0.00439844 0)
(0.00102663 -0.00541547 0)
(0.00171142 -0.00646463 0)
(0.00218976 -0.00754 -6.96836e-25)
(0.00247346 -0.00843915 9.07566e-23)
(0.00194776 -0.00950931 -9.12962e-21)
(0.00173321 -0.0100721 5.23128e-21)
(0.00137531 -0.0100939 -2.47279e-21)
(-0.000753988 -0.0102398 1.68416e-20)
(-0.00130733 -0.0109959 -7.09798e-21)
(-0.00235084 -0.0124335 -2.31197e-20)
(-0.003675 -0.0133321 9.70105e-21)
(-0.00441483 -0.0140958 6.94502e-21)
(-0.00489663 -0.0151373 1.26225e-20)
(-0.00534212 -0.0151669 -1.55142e-20)
(-0.00514624 -0.0145836 1.13771e-20)
(-0.00451588 -0.0134301 7.89468e-21)
(-0.00418784 -0.0118923 -2.31948e-20)
(-0.0032982 -0.00960137 6.64943e-21)
(-0.00202845 -0.00769642 -4.88863e-21)
(-0.00223549 -0.0056922 7.48274e-21)
(-0.00192241 -0.00421293 5.69584e-22)
(-0.00192228 -0.00296789 -5.50358e-24)
(-0.00204961 -0.00195538 0)
(-0.00211058 -0.0012665 0)
(-0.00224199 -0.000771802 0)
(-0.00240643 -0.000440117 0)
(-0.00255008 -0.000195891 0)
(-0.00268186 -3.26445e-05 0)
(-0.00277165 5.29769e-05 0)
(-0.00279282 8.07172e-05 0)
(-0.00280046 -4.55689e-05 0)
(-0.00286466 -2.27631e-07 0)
(-0.0019205 -0.000160527 0)
(-0.00180801 -0.000396648 0)
(-0.00161293 -0.000988655 0)
(-0.00125247 -0.00145067 0)
(-0.000776599 -0.00200057 0)
(-0.000116896 -0.0026807 0)
(0.000723338 -0.00353752 0)
(0.00168802 -0.00460666 0)
(0.00274857 -0.00589006 0)
(0.00370777 -0.00752054 1.77588e-22)
(0.00431656 -0.00951345 1.56387e-21)
(0.00462712 -0.0115141 -8.52969e-21)
(0.00510754 -0.0127579 -3.91685e-21)
(0.00460231 -0.013699 7.93767e-21)
(0.00274373 -0.0145092 2.457e-20)
(0.00276932 -0.0143778 -1.44888e-20)
(0.00159025 -0.0162243 -1.15212e-20)
(-0.00179406 -0.0182153 -2.96969e-20)
(-0.00364806 -0.0189319 5.62721e-20)
(-0.00558315 -0.019477 2.77619e-20)
(-0.00710979 -0.0196691 -4.09348e-20)
(-0.00816978 -0.0198624 -5.09566e-20)
(-0.00803372 -0.0191712 3.30497e-20)
(-0.0077173 -0.0178733 -1.16807e-22)
(-0.00703939 -0.0155709 2.38964e-20)
(-0.00629513 -0.0122374 -2.12126e-20)
(-0.00583039 -0.00900318 -1.22607e-21)
(-0.00379621 -0.00677254 -9.26569e-22)
(-0.00299973 -0.0048895 1.05615e-20)
(-0.00263669 -0.0033042 -2.37088e-21)
(-0.00261821 -0.00204065 1.57114e-22)
(-0.00266447 -0.00118941 0)
(-0.0027257 -0.00065785 0)
(-0.00286299 -0.000296582 0)
(-0.00293311 -0.00010739 0)
(-0.00299597 -1.44502e-05 0)
(-0.00302546 -5.20926e-06 0)
(-0.0029942 -7.07025e-05 0)
(-0.00301693 1.25959e-05 0)
(-0.00303022 -0.000142434 0)
(-0.00187376 8.5594e-05 0)
(-0.00173259 -0.000337691 0)
(-0.00144769 -0.00047183 0)
(-0.00102928 -0.000848894 0)
(-0.000441277 -0.00135573 0)
(0.000372938 -0.00201732 0)
(0.00141606 -0.00290219 0)
(0.00265787 -0.00407533 0)
(0.00399203 -0.00566649 -1.83457e-24)
(0.00550536 -0.00766241 2.83243e-21)
(0.00741861 -0.00970913 4.59222e-21)
(0.00937415 -0.0116225 -5.2255e-21)
(0.0105535 -0.0143044 5.87536e-22)
(0.0105231 -0.0174018 -2.04692e-20)
(0.0100877 -0.0181604 -8.63823e-21)
(0.0063413 -0.0187344 -8.89882e-21)
(0.00371498 -0.0220774 3.82683e-20)
(0.000354954 -0.024495 8.71431e-21)
(-0.00292025 -0.0234128 -2.47048e-20)
(-0.00598969 -0.0228587 -5.56772e-20)
(-0.0085941 -0.0241278 8.32277e-20)
(-0.0101672 -0.0236541 -4.43867e-20)
(-0.00992979 -0.021506 3.7947e-20)
(-0.010179 -0.0199115 -1.25525e-21)
(-0.00918537 -0.0177865 -3.1407e-20)
(-0.00885279 -0.0141889 7.31774e-21)
(-0.00709925 -0.0106794 1.90282e-20)
(-0.00670381 -0.0068306 -7.8636e-21)
(-0.00559987 -0.00463882 2.52455e-21)
(-0.00434755 -0.00305156 2.74471e-21)
(-0.00371358 -0.00179591 1.18702e-21)
(-0.00367402 -0.000766007 -3.37929e-22)
(-0.00367708 -0.000159518 0)
(-0.00365671 0.000179846 0)
(-0.00360517 0.00040509 0)
(-0.00353167 0.000516554 0)
(-0.00344502 0.000598264 0)
(-0.00332831 0.000563482 0)
(-0.00320493 0.000227079 0)
(-0.00317061 0.000326542 0)
(-0.00212971 -0.000354861 0)
(-0.00195143 -0.000143456 0)
(-0.00164341 -0.00035067 0)
(-0.00117675 -0.000457084 0)
(-0.000514451 -0.00062027 0)
(0.000413891 -0.00100139 0)
(0.00161801 -0.00166595 0)
(0.00309697 -0.00271515 -4.54408e-24)
(0.00497041 -0.00411863 -1.01253e-21)
(0.00755906 -0.00585697 -1.05046e-21)
(0.0105451 -0.00833153 8.33071e-22)
(0.0132407 -0.0117507 1.29614e-20)
(0.0146425 -0.0154349 -9.24431e-21)
(0.0161485 -0.0180956 -1.00084e-21)
(0.0141315 -0.0234496 1.60116e-20)
(0.0116922 -0.0255686 -1.34588e-20)
(0.00516665 -0.0245743 -1.96284e-20)
(0.00373836 -0.0266444 -2.50863e-21)
(0.000565067 -0.0272385 9.35804e-21)
(-0.00324971 -0.0270881 7.80119e-20)
(-0.00725993 -0.0263116 4.46409e-20)
(-0.00956984 -0.0250676 -6.03248e-20)
(-0.0105177 -0.0230474 2.19473e-20)
(-0.0114005 -0.0209334 -3.02384e-20)
(-0.0129991 -0.0193996 1.76143e-20)
(-0.0122989 -0.0147332 -2.22769e-20)
(-0.0135945 -0.00986236 8.27391e-21)
(-0.0113048 -0.00707535 -4.23229e-21)
(-0.0098319 -0.00403815 8.14638e-21)
(-0.00811677 -0.00167711 -9.2299e-21)
(-0.00641945 -0.0004982 8.04035e-22)
(-0.0053687 0.000109748 -1.83305e-22)
(-0.00495775 0.000691482 3.89848e-23)
(-0.00467722 0.00106995 0)
(-0.00433053 0.00118405 0)
(-0.00402468 0.00112555 0)
(-0.00370949 0.000896767 0)
(-0.00345463 0.000662979 0)
(-0.00329703 0.000465681 0)
(-0.00317949 -0.00028884 0)
(-0.00272222 0.000445636 0)
(-0.00259344 0.00016557 0)
(-0.00228457 0.000151847 0)
(-0.00181816 0.000279397 0)
(-0.00112654 0.000318012 0)
(-0.000155501 0.000278972 0)
(0.00116226 4.73498e-05 0)
(0.0028835 -0.000521271 -6.53082e-22)
(0.00557016 -0.00148134 1.09482e-22)
(0.00913747 -0.0031294 5.42342e-21)
(0.0128966 -0.00598323 -2.30276e-21)
(0.0163533 -0.0098828 2.52106e-21)
(0.0197405 -0.0136855 6.9895e-21)
(0.0177864 -0.0193993 2.49589e-20)
(0.0174602 -0.0228891 -3.98989e-20)
(0.0195067 -0.0246865 -3.71527e-21)
(0.0151607 -0.028689 -2.52289e-22)
(0.00881974 -0.0286245 4.66559e-20)
(0.0037388 -0.030891 5.45408e-20)
(-0.000121427 -0.0310115 -9.83445e-20)
(-0.00495925 -0.0301322 3.22971e-20)
(-0.00908912 -0.0284655 -1.48972e-19)
(-0.0132175 -0.0256244 9.47949e-21)
(-0.0159324 -0.0227992 1.20903e-20)
(-0.0181404 -0.0183612 -2.99051e-20)
(-0.0161483 -0.0150513 2.23709e-20)
(-0.0162072 -0.0129795 -1.66889e-20)
(-0.0167073 -0.00684088 -9.84965e-21)
(-0.015646 -0.00293675 8.88627e-21)
(-0.0132557 -6.24792e-05 -1.5479e-21)
(-0.0105627 0.00141858 -3.24252e-21)
(-0.00826159 0.0020754 -9.72255e-22)
(-0.00667914 0.00229505 1.97689e-21)
(-0.00583408 0.00240991 0)
(-0.00510767 0.0023329 0)
(-0.00449524 0.00210456 0)
(-0.00397916 0.00179839 0)
(-0.00358229 0.00137748 0)
(-0.00331554 0.000906847 0)
(-0.00318661 0.00086171 0)
(-0.00379632 -0.0001588 0)
(-0.00364632 0.000366514 0)
(-0.00343926 0.00100894 0)
(-0.00305188 0.00137386 0)
(-0.0024023 0.00174568 0)
(-0.00145761 0.00204377 0)
(-0.000168598 0.00222751 -2.01727e-23)
(0.00192758 0.00214434 3.0354e-22)
(0.00554656 0.00157024 -6.41615e-22)
(0.00980959 -0.000184651 -2.38081e-21)
(0.0141597 -0.0032773 1.09914e-21)
(0.0182735 -0.0068546 4.68625e-22)
(0.0218079 -0.0136137 -4.72581e-22)
(0.0209037 -0.0195373 1.05472e-20)
(0.0224956 -0.0202955 1.4937e-20)
(0.0196901 -0.0228629 -1.3078e-20)
(0.0177453 -0.0293915 1.35326e-20)
(0.0125751 -0.0323321 -5.05464e-21)
(0.0067962 -0.0329327 1.22574e-20)
(0.00190622 -0.0347478 1.90793e-20)
(-0.00532483 -0.0344896 -9.80287e-21)
(-0.0125388 -0.0325132 -4.17578e-20)
(-0.0178274 -0.028269 4.82567e-20)
(-0.0246802 -0.0226351 -2.32767e-20)
(-0.0234521 -0.01768 -4.53325e-23)
(-0.0302651 -0.0124156 7.95336e-21)
(-0.0264398 -0.0105111 -1.05758e-20)
(-0.0270518 -0.00381955 2.00883e-21)
(-0.0232448 -0.00211533 5.94975e-21)
(-0.0197123 0.00146712 -4.41239e-21)
(-0.0156919 0.0038173 -4.36817e-21)
(-0.0118636 0.00487384 2.20583e-21)
(-0.00867029 0.00494373 1.66211e-23)
(-0.00685714 0.00474604 2.53881e-22)
(-0.00569755 0.00435042 0)
(-0.00475507 0.0037342 0)
(-0.00400967 0.0030764 0)
(-0.00350443 0.00230701 0)
(-0.00318735 0.00130915 0)
(-0.00297497 -0.00014785 0)
(-0.00509224 6.97257e-05 0)
(-0.00505736 0.000496819 0)
(-0.00479119 0.00069326 0)
(-0.00446463 0.00146 0)
(-0.00399029 0.00236486 0)
(-0.00332604 0.00330964 0)
(-0.00224959 0.00411669 -2.6473e-22)
(0.000414009 0.00453386 -1.47117e-22)
(0.00494656 0.00416954 1.44454e-21)
(0.00974783 0.00241105 4.50117e-23)
(0.0146882 -0.000232236 -1.43124e-21)
(0.0201914 -0.00411899 2.52878e-21)
(0.0256092 -0.011836 -3.10031e-21)
(0.0252216 -0.0144163 2.57356e-21)
(0.0262577 -0.0176169 2.74753e-21)
(0.0229723 -0.0232246 7.01641e-21)
(0.0204731 -0.0255073 4.75807e-21)
(0.018447 -0.0300088 -1.38528e-20)
(0.0141797 -0.035212 4.64859e-21)
(0.00672158 -0.039973 -1.24054e-20)
(-0.00430877 -0.0423008 1.71285e-20)
(-0.0181847 -0.0396979 -2.24154e-20)
(-0.0279162 -0.0328178 -2.94134e-21)
(-0.0345777 -0.0240179 -1.05707e-20)
(-0.0383344 -0.0157774 -7.19581e-21)
(-0.040647 -0.00788263 3.69186e-20)
(-0.0372488 -0.00415081 6.93408e-21)
(-0.0371677 0.00293266 -2.81542e-21)
(-0.0324454 0.00344466 1.39445e-21)
(-0.0271854 0.00542523 -2.66608e-21)
(-0.0212423 0.00692833 3.64586e-21)
(-0.0155446 0.008181 1.27043e-21)
(-0.0105393 0.00818611 -1.63393e-21)
(-0.00734412 0.00739909 -2.22896e-22)
(-0.00580565 0.00636182 0)
(-0.00470004 0.00515356 0)
(-0.00383352 0.00386847 0)
(-0.00317301 0.00271078 0)
(-0.0027305 0.00176435 0)
(-0.00245647 0.00102964 0)
(-0.00668681 0.000897689 0)
(-0.00679381 0.0009781 0)
(-0.00680701 0.00191499 0)
(-0.00683854 0.00278264 0)
(-0.00655347 0.00369527 0)
(-0.00605128 0.00472955 0)
(-0.00476259 0.00568466 1.16723e-22)
(-0.00124939 0.00633498 -3.52026e-22)
(0.00444403 0.00588456 5.10254e-22)
(0.0101551 0.00427242 9.24924e-22)
(0.0153607 0.00306994 -3.21857e-22)
(0.020763 0.00186571 1.13394e-21)
(0.0260289 -0.00209603 -2.78042e-21)
(0.0296331 -0.00692824 5.47397e-21)
(0.0301673 -0.0101186 1.16285e-21)
(0.0321371 -0.0135926 -2.97526e-21)
(0.030664 -0.0189382 -3.69957e-22)
(0.0294192 -0.0250442 -1.65395e-21)
(0.0263626 -0.0352972 -5.70368e-22)
(0.0175883 -0.0490877 8.96573e-20)
(-0.00202917 -0.0575779 4.06753e-20)
(-0.0277851 -0.0545236 1.1308e-19)
(-0.0460091 -0.0379148 -6.47788e-22)
(-0.05222 -0.0203893 -2.07424e-21)
(-0.0518383 -0.00607696 -6.73135e-23)
(-0.0504083 0.00443476 -2.8128e-21)
(-0.0478942 0.00406028 1.17342e-21)
(-0.0445664 0.0109499 4.3094e-22)
(-0.0400793 0.0104001 -5.19174e-23)
(-0.0341475 0.0106966 -4.31334e-22)
(-0.026002 0.0118684 6.36083e-22)
(-0.0183237 0.0125391 -1.64814e-22)
(-0.0115898 0.0119007 1.65211e-22)
(-0.00680714 0.0105168 1.67132e-23)
(-0.00465219 0.00896322 0)
(-0.00346395 0.00731784 0)
(-0.00261374 0.00572357 0)
(-0.0020489 0.00424227 0)
(-0.00168473 0.00249871 0)
(-0.00148041 0.000748169 0)
(-0.00818999 -0.00114487 0)
(-0.00808153 0.000235423 0)
(-0.00805118 0.00118699 0)
(-0.0079525 0.00225984 0)
(-0.00797778 0.00362828 0)
(-0.00790473 0.00506509 0)
(-0.00657171 0.00630497 1.73074e-22)
(-0.00178021 0.0070456 2.01076e-22)
(0.00460976 0.00711259 1.57092e-22)
(0.0108401 0.00650148 -4.50852e-22)
(0.0169345 0.00628877 1.13082e-23)
(0.0227794 0.00721436 -4.83652e-22)
(0.0283659 0.00623218 -6.27469e-23)
(0.0315906 0.00225063 -5.51546e-22)
(0.0336293 0.00102816 3.41914e-21)
(0.0355326 -0.00430905 1.63402e-21)
(0.0368369 -0.0078607 -2.22913e-21)
(0.0414275 -0.0136656 -5.96737e-22)
(0.0468376 -0.0290103 -6.83096e-20)
(-0.0937795 -0.0455011 -1.2707e-19)
(-0.0769938 -0.00418608 -8.1938e-22)
(-0.0663127 0.00886685 -1.86478e-21)
(-0.0600838 0.0155155 1.0514e-21)
(-0.056863 0.0181314 1.09738e-21)
(-0.0488295 0.0206296 -2.93259e-21)
(-0.0441174 0.0185871 1.21584e-21)
(-0.0363528 0.0191076 8.10642e-22)
(-0.0275067 0.018378 4.24098e-22)
(-0.0190562 0.0170651 2.35492e-22)
(-0.0110327 0.0155093 1.9115e-22)
(-0.004761 0.0135469 9.87e-23)
(-0.00225159 0.0112017 0)
(-0.00134848 0.00874132 0)
(-0.000782164 0.00646886 0)
(-0.000405855 0.00434422 0)
(-8.2972e-05 0.00266319 0)
(2.88199e-05 0.000474551 0)
(-0.00991116 0.00170941 0)
(-0.00953447 0.00124328 0)
(-0.00929775 0.00169627 0)
(-0.00937189 0.00251693 0)
(-0.009598 0.00355187 0)
(-0.00962161 0.00497225 0)
(-0.00723499 0.00626078 6.84636e-23)
(-0.00113095 0.00724776 -1.04548e-22)
(0.00656325 0.00795211 -1.11171e-22)
(0.0132986 0.00894236 7.90644e-22)
(0.0202498 0.010223 -6.50886e-22)
(0.025515 0.0138114 4.05218e-21)
(0.0318873 0.017126 -4.04805e-21)
(0.0368668 0.0134427 -4.3351e-21)
(0.0409577 0.0145057 -1.7033e-20)
(0.0439732 0.00923621 1.89497e-21)
(0.044011 0.00464207 6.50129e-23)
(0.0511334 0.000811926 -7.7301e-22)
(-0.000670407 -0.00517984 -2.1347e-18)
(-0.0127258 -0.00379299 -4.17417e-20)
(-0.0941026 0.0349908 -2.38811e-22)
(-0.0696252 0.0353157 -5.14968e-22)
(-0.0599927 0.0334037 -1.34859e-20)
(-0.0556625 0.036011 -2.21318e-20)
(-0.0478553 0.0332188 -5.34627e-21)
(-0.0409961 0.0298497 2.06412e-21)
(-0.0328492 0.0282438 -2.90688e-22)
(-0.024402 0.0246876 3.78231e-22)
(-0.016425 0.0213424 -4.60198e-23)
(-0.0080096 0.0185554 1.41153e-22)
(-0.000832431 0.0157284 7.92099e-23)
(0.00197228 0.0126639 0)
(0.00234126 0.00975312 0)
(0.00244951 0.007394 0)
(0.002512 0.00543962 0)
(0.00240512 0.0033477 0)
(0.00250462 0.00189783 0)
(-0.0104947 -0.000634807 -1.11967e-23)
(-0.0101765 0.00107075 0)
(-0.010044 0.00172042 0)
(-0.00972915 0.00238422 0)
(-0.00949732 0.00324203 0)
(-0.00934297 0.00463733 0)
(-0.00618308 0.00591901 -2.7393e-22)
(0.00156483 0.00749686 -8.78727e-23)
(0.010291 0.00906654 1.19103e-21)
(0.0172271 0.0120669 1.58958e-21)
(0.0242738 0.0151542 2.7784e-21)
(0.0311619 0.0221018 8.00309e-22)
(0.0382741 0.0321655 -5.94333e-21)
(0.0466185 0.0310252 1.52207e-20)
(0.0532507 0.0310805 1.53545e-21)
(0.0566913 0.022417 -9.92179e-21)
(0.0556873 0.00983872 2.08574e-20)
(0.0885778 -0.0120297 -5.27345e-21)
(-0.0164758 -0.0394594 -5.44546e-20)
(-0.0961449 0.0117059 -1.95362e-20)
(-0.0992692 0.0671074 -1.2835e-20)
(-0.0616248 0.0601281 2.60383e-21)
(-0.0490609 0.055648 4.07291e-21)
(-0.0425188 0.0530894 -1.27303e-20)
(-0.0294162 0.0456502 4.95155e-21)
(-0.0253431 0.0426504 1.82058e-21)
(-0.0202777 0.0367745 1.04512e-21)
(-0.015325 0.029377 1.5122e-21)
(-0.00859782 0.0242749 -1.52454e-21)
(-0.00132044 0.0203537 -1.25462e-22)
(0.00541959 0.0164704 1.02426e-22)
(0.00780347 0.0129861 0)
(0.00740814 0.00981096 0)
(0.00688264 0.00718832 0)
(0.00649854 0.00498102 0)
(0.00615302 0.00290001 0)
(0.00637427 0.000204204 0)
(-0.00653345 0.000703085 -1.03766e-25)
(-0.00692423 0.00104517 0)
(-0.00735448 0.00103575 0)
(-0.00768863 0.00144524 0)
(-0.00790599 0.00214731 0)
(-0.00762526 0.0037467 0)
(-0.00382284 0.00590521 2.15101e-22)
(0.00441279 0.00875485 2.04234e-22)
(0.0129103 0.0114475 1.82916e-22)
(0.0199693 0.0171881 1.37046e-21)
(0.027509 0.0237926 -2.4834e-21)
(0.0341712 0.0339585 -1.14463e-20)
(0.0402242 0.0494065 1.07235e-20)
(0.0463142 0.0513624 -1.15466e-20)
(0.0573453 0.0557441 -2.25813e-20)
(0.0727891 0.0458118 -1.01694e-20)
(0.0919493 0.0243242 -3.13021e-21)
(0.188987 -0.0441511 -1.0524e-21)
(0.267309 -0.257858 -1.30944e-20)
(0.206877 -0.518836 1.61907e-20)
(-0.0624229 -0.592018 2.3235e-21)
(-0.346388 -0.377305 1.74122e-20)
(-0.363752 -0.0456601 -2.98681e-20)
(-0.119883 0.0606808 -2.66515e-21)
(-0.0610113 0.0829791 -1.69085e-20)
(-0.0397478 0.087028 1.25818e-20)
(-0.0240827 0.07303 -2.84219e-20)
(-0.00526926 0.0572567 -6.15101e-21)
(-0.00111845 0.0474021 1.59138e-21)
(-0.000448911 0.0375505 1.2581e-21)
(0.000531454 0.0294643 2.26187e-21)
(0.00361078 0.0238111 -8.56e-22)
(0.00824465 0.0188662 -1.0343e-22)
(0.0133265 0.0148206 -1.81898e-22)
(0.0145392 0.0111979 0)
(0.0130223 0.0081345 0)
(0.0114925 0.0056589 0)
(0.0102318 0.00356554 0)
(0.00906846 0.00205511 0)
(0.00809244 0.000947121 0)
(-0.00506823 2.93752e-05 4.25674e-22)
(-0.00564734 0.000560638 0)
(-0.00567576 0.00120242 0)
(-0.00601625 0.00173507 0)
(-0.00648803 0.00241087 0)
(-0.00687363 0.00394226 0)
(-0.00398754 0.00590344 -9.63212e-24)
(0.00336212 0.00942873 -5.69006e-22)
(0.0104193 0.0139062 -1.39193e-21)
(0.0159181 0.0219679 4.87077e-21)
(0.0199575 0.0310451 -8.46617e-21)
(0.0220621 0.0438734 9.63955e-21)
(0.0233058 0.057901 -7.35418e-21)
(0.0330376 0.0723705 2.44154e-20)
(0.046356 0.0909886 1.40568e-20)
(0.0768668 0.115557 1.44685e-20)
(0.137959 0.110481 1.21676e-20)
(0.40473 0.0468226 -1.88409e-19)
(0.579285 -0.186778 -5.40305e-20)
(0.329315 -0.190205 4.29196e-20)
(-0.196892 -0.179199 4.77946e-20)
(-0.642391 -0.191789 -7.71678e-20)
(-0.729756 -0.0248033 -1.65481e-20)
(-0.173457 0.104541 1.89319e-20)
(-0.06707 0.140062 5.2941e-22)
(-0.021543 0.128602 9.0661e-21)
(-0.00325309 0.0990764 3.66717e-20)
(0.0199618 0.070315 -3.4583e-21)
(0.0194976 0.0492043 1.55377e-20)
(0.0184843 0.0351726 1.03231e-20)
(0.0175205 0.0253948 -1.42908e-21)
(0.0172775 0.0188174 6.29728e-22)
(0.0188255 0.0138262 1.56181e-22)
(0.0218932 0.010486 3.3946e-24)
(0.0211889 0.00788112 0)
(0.0184683 0.00582905 0)
(0.0162032 0.00415215 0)
(0.0145304 0.00269782 0)
(0.0136603 0.00142336 0)
(0.0129988 0.000346143 -6.43856e-23)
(-0.00451899 0.000279822 -2.15941e-22)
(-0.00501325 9.38461e-05 0)
(-0.00558029 0.000598554 0)
(-0.0063456 0.00105921 0)
(-0.00716747 0.00140864 0)
(-0.00801178 0.00207541 0)
(-0.0066759 0.00356855 0)
(-0.00146006 0.00735749 -1.97799e-22)
(0.00285218 0.0123623 -4.25988e-22)
(0.00432354 0.0213965 2.46632e-22)
(0.00402002 0.0308899 3.3767e-21)
(0.00143863 0.0425166 -5.00964e-21)
(-0.00596142 0.0605446 8.39326e-21)
(-0.0127046 0.0938291 -2.45031e-21)
(0.00553958 0.126292 -1.6777e-20)
(0.019131 0.181006 -3.71213e-20)
(0.103729 0.240349 -5.08894e-20)
(0.535481 0.25172 -1.03723e-19)
(0.649545 0.367464 2.60252e-20)
(0.194161 0.427911 -3.42131e-19)
(-0.0693804 0.369787 1.81195e-19)
(-0.558496 0.274047 1.55109e-19)
(-0.840422 0.194457 -5.94721e-20)
(-0.273392 0.22918 5.57787e-19)
(-0.00216733 0.236492 -1.06932e-20)
(0.0344097 0.166979 4.93776e-20)
(0.0580059 0.106795 1.94317e-21)
(0.0486256 0.068322 -1.78244e-20)
(0.0391686 0.0451952 1.13098e-20)
(0.0338621 0.0295391 -7.26697e-22)
(0.0295904 0.0180054 -1.32286e-22)
(0.0273929 0.0112433 2.59282e-22)
(0.0272887 0.00644831 3.78469e-22)
(0.0280679 0.00353796 0)
(0.0257625 0.00221109 0)
(0.0224999 0.00179496 0)
(0.019735 0.00125347 0)
(0.0178177 0.000778878 0)
(0.0168199 0.000482658 0)
(0.0163795 0.000365624 -1.07009e-21)
(-0.00392895 -0.00012325 8.99429e-23)
(-0.00404169 -0.000250664 0)
(-0.00462582 -0.000577307 0)
(-0.00581357 -0.00087607 0)
(-0.00735224 -0.00117794 0)
(-0.00907156 -0.00147934 0)
(-0.00978159 -0.00111715 0)
(-0.0089036 0.00216162 0)
(-0.00853213 0.00610031 -9.07585e-24)
(-0.0109685 0.0139224 -4.79053e-22)
(-0.0176111 0.0234057 -5.6691e-22)
(-0.0258117 0.0340501 7.11893e-22)
(-0.0386443 0.0485876 7.33022e-21)
(-0.0584514 0.0837343 -1.11495e-20)
(-0.0639113 0.124654 -1.07467e-21)
(-0.0932072 0.177592 -4.08643e-20)
(-0.0233075 0.285829 4.25415e-20)
(0.289175 0.462596 1.29902e-20)
(0.392485 0.682534 -2.30851e-20)
(0.25016 0.679727 1.38886e-19)
(-0.060037 0.659451 9.15903e-21)
(-0.436383 0.658377 1.4804e-19)
(-0.551063 0.484479 8.12249e-20)
(-0.276653 0.379491 -6.36821e-19)
(0.146779 0.258566 1.34031e-23)
(0.130318 0.155477 4.32494e-22)
(0.10685 0.0756484 -1.69141e-21)
(0.0799944 0.0464469 -5.79745e-22)
(0.0594584 0.0290377 5.61311e-22)
(0.0473498 0.0168408 2.08057e-21)
(0.0381464 0.00722457 -1.04997e-21)
(0.0335379 0.00171938 2.00383e-22)
(0.031417 -0.00239823 0)
(0.0300141 -0.00420829 0)
(0.0266148 -0.00410388 0)
(0.0230762 -0.00306877 0)
(0.0203174 -0.00240889 -1.03117e-21)
(0.0183632 -0.00160042 -1.42604e-21)
(0.017087 -0.000501919 -8.50359e-22)
(0.0165712 0.000107962 0)
(-0.00257165 -0.000473106 0)
(-0.00299109 -0.00121436 0)
(-0.00373087 -0.00230332 0)
(-0.00509169 -0.00339954 0)
(-0.00720862 -0.00452422 0)
(-0.00979895 -0.005906 0)
(-0.0125425 -0.0073256 0)
(-0.0154555 -0.00656665 0)
(-0.01979 -0.00514972 1.55818e-24)
(-0.0262511 -0.000514231 -7.7468e-23)
(-0.0372908 0.00587065 -1.14498e-22)
(-0.0538223 0.0136556 1.13984e-21)
(-0.0733305 0.0208293 -2.97711e-21)
(-0.10063 0.0393045 9.58304e-21)
(-0.128332 0.0745833 -1.17255e-19)
(-0.186623 0.101016 -6.37908e-21)
(-0.226628 0.185216 2.45564e-20)
(0.00350351 0.34938 7.7791e-20)
(0.264093 0.50992 -3.88376e-20)
(0.17694 0.660228 2.05833e-19)
(-0.122727 0.713304 3.91678e-20)
(-0.367634 0.649289 1.6884e-19)
(-0.418658 0.555563 -4.45597e-20)
(-0.00882205 0.389264 -1.18376e-20)
(0.363045 0.154197 -9.71418e-21)
(0.227009 0.0703694 -1.59033e-20)
(0.146346 0.00731721 -5.35825e-21)
(0.106883 0.00230885 -3.26904e-21)
(0.0762468 -0.00283037 -1.38838e-21)
(0.0576038 -0.0066021 -3.81047e-22)
(0.0451287 -0.0102194 7.43748e-23)
(0.0380232 -0.0115907 7.31283e-25)
(0.0328328 -0.0130832 0)
(0.0287209 -0.0119059 0)
(0.0243754 -0.00991107 0)
(0.0209405 -0.00746825 0)
(0.0184038 -0.00569041 0)
(0.0166541 -0.00386568 0)
(0.0154874 -0.00217233 0)
(0.0149169 -0.000649075 1.53151e-22)
(-0.00209505 -0.000796577 0)
(-0.00240079 -0.00250931 0)
(-0.00326782 -0.00437507 0)
(-0.00447911 -0.00629262 0)
(-0.00636936 -0.00842489 0)
(-0.00909543 -0.0109561 0)
(-0.012983 -0.0142834 0)
(-0.0179499 -0.0164565 0)
(-0.024765 -0.0187508 0)
(-0.0339479 -0.0193362 0)
(-0.0476513 -0.0204943 -1.63339e-23)
(-0.069998 -0.0203772 3.3978e-22)
(-0.0977238 -0.0220437 -9.34285e-22)
(-0.132342 -0.026529 1.79819e-21)
(-0.151256 0.000688284 -3.61273e-19)
(-0.188193 -0.00131013 1.22306e-20)
(-0.273578 -0.0320892 -1.5359e-19)
(-0.301647 0.0425973 1.11015e-20)
(-0.143866 0.348438 1.89677e-20)
(-0.0954192 0.664628 7.95715e-20)
(-0.137266 0.817989 -5.19826e-20)
(-0.151283 0.714519 1.44653e-21)
(-0.0282742 0.392908 8.49308e-21)
(0.293328 0.0592753 -5.67928e-21)
(0.510749 -0.0626392 -1.57263e-20)
(0.258964 -0.0660677 4.96141e-21)
(0.15402 -0.0800896 6.14997e-22)
(0.108824 -0.0576029 3.64767e-22)
(0.0781195 -0.0457571 1.78673e-22)
(0.0578926 -0.0372209 -2.49911e-23)
(0.0446373 -0.0316464 0)
(0.0360574 -0.0264134 0)
(0.0292838 -0.0231725 0)
(0.0240989 -0.018425 0)
(0.0198294 -0.0145327 0)
(0.0170769 -0.0108645 0)
(0.0152013 -0.00828455 0)
(0.0139498 -0.00584727 0)
(0.0130115 -0.00365752 0)
(0.0127061 -0.00125144 0)
(-0.00104911 -0.00102962 0)
(-0.00109447 -0.00326701 0)
(-0.00167702 -0.0056524 0)
(-0.00238822 -0.00839454 0)
(-0.00355085 -0.0116404 0)
(-0.00550029 -0.0154905 0)
(-0.00927412 -0.0205052 0)
(-0.0147381 -0.0253004 0)
(-0.0220531 -0.0314006 0)
(-0.0314881 -0.0374012 0)
(-0.0447205 -0.0478401 0)
(-0.06697 -0.0586087 2.87322e-23)
(-0.0983563 -0.0707903 4.4834e-22)
(-0.134732 -0.0873698 -3.15041e-23)
(-0.168611 -0.0822045 -1.19812e-19)
(-0.124511 -0.0836397 -1.32172e-20)
(-0.194972 -0.124139 -9.15797e-20)
(-0.468081 -0.17462 1.77706e-20)
(-0.483847 -0.15142 -1.69274e-20)
(-0.353481 -0.0952107 8.12577e-20)
(-0.151176 -0.0797228 -1.54718e-20)
(0.104943 -0.134423 -4.33592e-21)
(0.356828 -0.23871 3.83712e-20)
(0.532028 -0.314911 -1.19332e-20)
(0.415126 -0.278849 1.46053e-20)
(0.205239 -0.192239 4.31842e-21)
(0.105805 -0.147264 1.4782e-20)
(0.0744196 -0.109088 5.93586e-23)
(0.055979 -0.0813757 -5.29711e-23)
(0.0420788 -0.0622556 0)
(0.0335137 -0.0478263 0)
(0.0268146 -0.0371149 0)
(0.0209723 -0.0299131 0)
(0.0164955 -0.0227411 0)
(0.0133882 -0.0174988 0)
(0.0118401 -0.0128563 0)
(0.0109508 -0.0095324 0)
(0.0104213 -0.00652046 0)
(0.00990839 -0.00387288 0)
(0.00984729 -0.00124136 0)
(0.00142706 -0.000986485 0)
(0.0017341 -0.00338522 0)
(0.00177266 -0.00606876 0)
(0.00190612 -0.00933528 0)
(0.00183702 -0.0133797 0)
(0.00111925 -0.0181939 0)
(-0.00158799 -0.0245191 0)
(-0.00617899 -0.0316412 0)
(-0.0117073 -0.0411498 0)
(-0.0178455 -0.0518046 0)
(-0.0261579 -0.0696158 -9.45199e-22)
(-0.0397738 -0.0940244 0)
(-0.0679377 -0.115476 0)
(-0.110018 -0.157278 -2.66859e-22)
(-0.179921 -0.20119 3.81614e-20)
(-0.162409 -0.136742 -1.98787e-19)
(-0.164717 -0.0767797 7.72364e-22)
(-0.238851 -0.231818 1.36487e-20)
(-0.24681 -0.472569 3.47227e-20)
(-0.144676 -0.693736 1.26145e-19)
(-0.0172335 -0.826545 5.50879e-20)
(0.138875 -0.853483 -2.22307e-19)
(0.25179 -0.757037 -2.1069e-21)
(0.285089 -0.54693 -7.64592e-21)
(0.226356 -0.338829 1.00573e-21)
(0.0778463 -0.239418 -1.01536e-21)
(0.0290689 -0.173827 6.88689e-21)
(0.0158768 -0.127788 0)
(0.0137966 -0.094462 0)
(0.0130397 -0.0716204 8.21313e-22)
(0.0133248 -0.053757 0)
(0.0117255 -0.0413488 0)
(0.00921019 -0.0325523 0)
(0.00657588 -0.0245045 0)
(0.00516629 -0.0185876 0)
(0.00514442 -0.0134832 0)
(0.00551563 -0.00968885 0)
(0.00591133 -0.00641167 1.69712e-22)
(0.00610247 -0.00367396 1.21753e-22)
(0.00649383 -0.00106716 0)
(0.00509389 -0.0012072 0)
(0.0057692 -0.00341326 0)
(0.00640931 -0.00593712 0)
(0.00731008 -0.00900134 0)
(0.0084319 -0.0129948 0)
(0.00936565 -0.0179186 0)
(0.00879045 -0.0246545 0)
(0.00692832 -0.0332659 0)
(0.00550004 -0.0449284 0)
(0.00607099 -0.0584761 0)
(0.0067043 -0.0793611 -4.5513e-22)
(0.00909585 -0.114689 0)
(8.17265e-05 -0.150124 0)
(-0.0335798 -0.197452 -2.00013e-20)
(-0.1344 -0.29995 1.37577e-19)
(-0.266976 -0.324161 -1.59341e-20)
(-0.182622 -0.308753 0)
(-0.083069 -0.280646 -2.14773e-21)
(-0.00415444 -0.259978 2.23344e-19)
(0.0716193 -0.31683 -3.56241e-20)
(0.118723 -0.32935 -1.13559e-19)
(0.135553 -0.344778 2.13952e-19)
(0.104635 -0.353429 -3.07851e-21)
(0.0593243 -0.343481 0)
(0.0427805 -0.314106 2.52509e-20)
(-0.0329099 -0.236492 1.3853e-20)
(-0.0613986 -0.156697 9.87713e-21)
(-0.0480903 -0.11585 0)
(-0.0308678 -0.0863752 0)
(-0.0185879 -0.0655757 6.7028e-22)
(-0.00952665 -0.0498551 0)
(-0.00543998 -0.0387559 0)
(-0.00407141 -0.030197 0)
(-0.00429863 -0.0224852 0)
(-0.00366078 -0.017014 0)