/*--------------------------------*- C++ -*----------------------------------*\
| =========                 |                                                 |
| \\      /  F ield         | OpenFOAM: The Open Source CFD Toolbox           |
|  \\    /   O peration     | Version:  v2106                                 |
|   \\  /    A nd           | Website:  www.openfoam.com                      |
|    \\/     M anipulation  |                                                 |
\*---------------------------------------------------------------------------*/
FoamFile
{
    version     2.0;
    format      ascii;
    arch        "LSB;label=32;scalar=64";
    class       volVectorField;
    location    "0";
    object      U;
}
// * * * * * * * * * * * * * * * * * * * * * * * * * * * * * * * * * * * * * //

dimensions      [0 1 -1 0 0 0 0];

internalField   nonuniform List<vector> 
11644
(
(0.997944 -0.000217871 3.09463e-23)
(0.997836 -0.000567156 8.53407e-23)
(0.997774 -0.000825194 4.57874e-23)
(0.997757 -0.00108801 0)
(0.99775 -0.00135897 0)
(0.997746 -0.00163316 0)
(0.997744 -0.00190314 0)
(0.997739 -0.00215744 0)
(0.997737 -0.00238315 0)
(0.997726 -0.00256933 0)
(0.997729 -0.00269375 0)
(0.997709 -0.00274227 0)
(0.997712 -0.00268869 0)
(0.997874 -0.00253498 0)
(0.997706 -0.00221528 0)
(0.997668 -0.0018072 0)
(0.997587 -0.00128255 0)
(0.997316 -0.000550151 0)
(0.997094 0.00049119 0)
(0.997189 0.00171004 3.37424e-30)
(0.997545 0.00276977 -3.39193e-30)
(0.997869 0.00347891 0)
(0.99791 0.0038661 0)
(0.997786 0.00414467 0)
(0.997716 0.00436769 0)
(0.997774 0.00450645 0)
(0.997969 0.00450186 0)
(0.997776 0.00437337 0)
(0.997721 0.00415449 0)
(0.997746 0.00384488 0)
(0.997763 0.00348762 0)
(0.997756 0.00310951 0)
(0.997761 0.00271496 0)
(0.997761 0.00232629 0)
(0.99776 0.00194944 0)
(0.997761 0.00159004 0)
(0.997765 0.00125173 0)
(0.997784 0.000935574 0)
(0.997853 0.000627834 0)
(0.997962 0.000234952 6.00017e-24)
(0.99869 -0.000447851 3.97503e-23)
(0.998604 -0.00135024 3.68215e-23)
(0.998539 -0.00224694 1.97757e-23)
(0.99852 -0.00312502 0)
(0.998522 -0.00399511 0)
(0.99852 -0.00486199 0)
(0.998501 -0.00571515 0)
(0.998459 -0.0065333 0)
(0.998382 -0.00728621 0)
(0.998272 -0.00792935 0)
(0.998097 -0.00841461 0)
(0.99787 -0.00866932 0)
(0.997541 -0.0086311 0)
(0.996921 -0.00822972 0)
(0.996732 -0.00738737 0)
(0.996281 -0.00608599 -8.10096e-24)
(0.995788 -0.00430219 1.15186e-23)
(0.995341 -0.00220066 -5.32297e-23)
(0.994937 0.000127094 1.21645e-22)
(0.994733 0.00271191 -1.81486e-23)
(0.994899 0.00549653 -2.08836e-23)
(0.995483 0.00821348 -7.77476e-23)
(0.996293 0.0104597 4.35789e-23)
(0.996907 0.0118808 -9.72923e-24)
(0.997324 0.0126846 6.0581e-24)
(0.997674 0.0130193 0)
(0.997876 0.0130191 0)
(0.998445 0.0126073 0)
(0.998712 0.0118989 0)
(0.998816 0.0109923 0)
(0.998874 0.00994585 0)
(0.998897 0.0088188 0)
(0.998869 0.00767731 0)
(0.998825 0.00654636 0)
(0.998771 0.00544804 0)
(0.998716 0.00439299 0)
(0.998672 0.0033795 0)
(0.998658 0.00239332 0)
(0.998697 0.00141808 0)
(0.998764 0.000466518 0)
(1.00022 -0.000711949 0)
(1.00016 -0.00218445 0)
(1.00012 -0.0036998 0)
(1.00011 -0.00522279 0)
(1.00012 -0.00674908 3.63112e-23)
(1.00013 -0.0082852 0)
(1.0001 -0.00982141 0)
(1.00002 -0.011334 0)
(0.99984 -0.0127766 0)
(0.999532 -0.0140892 0)
(0.999052 -0.015179 0)
(0.998389 -0.015923 0)
(0.99757 -0.0161742 1.7509e-24)
(0.996805 -0.0158033 -1.25276e-22)
(0.995182 -0.0146822 1.23533e-22)
(0.993848 -0.012748 3.67518e-22)
(0.992573 -0.00996473 1.98518e-22)
(0.991346 -0.00639348 -4.62204e-22)
(0.990342 -0.00222099 -9.83303e-23)
(0.989818 0.00231821 3.9229e-22)
(0.98997 0.00692991 -8.26996e-22)
(0.990876 0.0114363 2.51558e-22)
(0.992519 0.0155037 7.80507e-22)
(0.994561 0.0186541 -6.61815e-22)
(0.99623 0.0204477 1.46057e-23)
(0.997627 0.021194 -4.78592e-23)
(0.999012 0.0211358 9.52015e-23)
(0.999674 0.0204526 -1.45618e-24)
(1.00035 0.0192701 0)
(1.00081 0.0177141 0)
(1.001 0.0159705 0)
(1.00104 0.0141263 0)
(1.00099 0.0122571 0)
(1.00087 0.0104209 0)
(1.00072 0.00864422 0)
(1.00056 0.00693918 0)
(1.00043 0.00530339 0)
(1.00035 0.00371911 0)
(1.00032 0.00218521 0)
(1.00034 0.000712313 0)
(1.00259 -0.00101817 0)
(1.00255 -0.00307911 0)
(1.00254 -0.00520336 0)
(1.00258 -0.00737187 0)
(1.00265 -0.00959533 0)
(1.0027 -0.0118755 0)
(1.0027 -0.0142082 0)
(1.00261 -0.0165702 0)
(1.00235 -0.0189165 0)
(1.00186 -0.0211655 0)
(1.00108 -0.0231778 -8.29492e-25)
(0.999871 -0.0247818 -6.21319e-23)
(0.998084 -0.0257754 4.34644e-22)
(0.995306 -0.0260105 -3.42236e-22)
(0.99307 -0.0248916 1.58684e-22)
(0.990044 -0.0225152 4.80939e-22)
(0.987007 -0.0186784 -2.004e-22)
(0.984267 -0.0133885 -7.60971e-22)
(0.982338 -0.00698161 1.0978e-22)
(0.981583 1.73081e-05 2.53617e-22)
(0.981953 0.00723547 -6.45878e-22)
(0.98357 0.0140865 2.03067e-22)
(0.986364 0.0201521 7.44761e-22)
(0.990139 0.024911 -1.53687e-21)
(0.994063 0.028143 1.39178e-21)
(0.997241 0.029517 -1.88582e-22)
(0.999412 0.0295297 2.27779e-22)
(1.00164 0.0283128 -2.74229e-22)
(1.00292 0.0264509 9.4258e-24)
(1.00367 0.0241659 2.41688e-25)
(1.00408 0.0216287 0)
(1.00415 0.0190281 0)
(1.00402 0.0164387 0)
(1.00378 0.0139248 0)
(1.00349 0.0115156 0)
(1.00321 0.00922049 0)
(1.00296 0.00703006 0)
(1.00277 0.00493551 0)
(1.00267 0.00290571 0)
(1.00265 0.000960748 0)
(1.00577 -0.00130201 0)
(1.00577 -0.00395953 0)
(1.00585 -0.00669182 0)
(1.00599 -0.00951468 0)
(1.00617 -0.0124601 0)
(1.00635 -0.0155463 0)
(1.00647 -0.0187787 0)
(1.00647 -0.0221498 0)
(1.00623 -0.0256223 0)
(1.00565 -0.0291047 9.62082e-24)
(1.00445 -0.0324557 1.83967e-23)
(1.00246 -0.0354674 -1.74201e-22)
(0.999687 -0.0377571 3.80073e-22)
(0.996701 -0.0388096 -7.06578e-22)
(0.991355 -0.0387519 2.85071e-22)
(0.985885 -0.0364548 -7.51222e-22)
(0.980426 -0.0319865 8.08609e-22)
(0.975272 -0.0253249 1.97662e-21)
(0.971114 -0.0161829 -2.05398e-21)
(0.968866 -0.00515858 -2.06592e-21)
(0.96924 0.00663959 2.7577e-21)
(0.972352 0.0177351 1.91865e-21)
(0.977578 0.0268119 -2.44541e-21)
(0.984601 0.0333519 1.89297e-22)
(0.990816 0.0372949 -5.5264e-22)
(0.996677 0.0391336 1.00668e-24)
(1.00184 0.0386641 7.2283e-22)
(1.00454 0.0368373 5.64501e-22)
(1.0066 0.0339421 -9.41237e-22)
(1.0077 0.0305626 5.36701e-23)
(1.00815 0.027072 3.15828e-24)
(1.00821 0.0235917 0)
(1.00795 0.0202539 0)
(1.00753 0.017069 0)
(1.00704 0.0140629 0)
(1.00657 0.0112273 0)
(1.00616 0.00854821 0)
(1.00585 0.00599938 0)
(1.00565 0.00355803 0)
(1.00559 0.00116532 0)
(1.00971 -0.00157538 0)
(1.00978 -0.00477693 0)
(1.00999 -0.00805846 0)
(1.01032 -0.0115048 0)
(1.01073 -0.0151545 0)
(1.01117 -0.0190622 0)
(1.01157 -0.0232576 0)
(1.01184 -0.0277628 0)
(1.01182 -0.0325499 -3.59081e-23)
(1.01121 -0.0375483 -1.62464e-22)
(1.00978 -0.0426146 -8.5735e-23)
(1.00746 -0.0474574 8.38722e-22)
(1.00388 -0.0519134 -7.91248e-22)
(0.997468 -0.0561457 1.95165e-21)
(0.991081 -0.0570791 -2.68948e-21)
(0.982201 -0.0556356 1.94197e-21)
(0.972011 -0.0515735 -2.23989e-21)
(0.961495 -0.0426836 8.46741e-22)
(0.953188 -0.0287404 4.11439e-22)
(0.948583 -0.0118309 2.15322e-21)
(0.949035 0.00607853 -4.43727e-21)
(0.954336 0.0229174 3.79654e-21)
(0.963667 0.0369324 -2.64127e-21)
(0.974983 0.0456702 1.25447e-21)
(0.986715 0.0499138 -7.2468e-22)
(0.996715 0.0515722 2.26558e-21)
(1.0035 0.0504574 -1.97841e-21)
(1.00923 0.0463965 1.23963e-23)
(1.01203 0.0419515 3.24914e-22)
(1.01328 0.0371329 3.86525e-23)
(1.01353 0.0323691 -3.24502e-23)
(1.01328 0.0279016 -1.65056e-23)
(1.01276 0.0237346 0)
(1.01205 0.0198891 0)
(1.01129 0.016321 0)
(1.01057 0.0130048 0)
(1.00995 0.00990369 0)
(1.00947 0.00696037 0)
(1.00916 0.00412574 0)
(1.00904 0.00137592 0)
(1.01429 -0.00181156 0)
(1.01446 -0.00542919 0)
(1.01487 -0.00921484 0)
(1.01548 -0.0131799 0)
(1.01626 -0.0174497 0)
(1.01715 -0.0221008 0)
(1.01806 -0.0272268 0)
(1.01888 -0.0328855 -5.93032e-24)
(1.01926 -0.0390635 -2.35462e-23)
(1.01898 -0.0457114 2.90114e-22)
(1.0179 -0.0528376 -3.97845e-22)
(1.01549 -0.0605944 -4.75984e-22)
(1.01126 -0.0685941 8.44891e-22)
(1.00626 -0.0749573 -3.94476e-22)
(0.994328 -0.0815034 -3.53182e-21)
(0.979984 -0.0830937 3.16135e-21)
(0.96875 -0.071636 3.07188e-21)
(0.952859 -0.0630073 -2.40753e-22)
(0.938046 -0.0457189 -3.08512e-21)
(0.928257 -0.022036 -5.74616e-21)
(0.927162 0.0046373 -3.96475e-21)
(0.934679 0.0289129 -1.55369e-21)
(0.948166 0.0471121 -2.14684e-21)
(0.963894 0.0577278 2.39579e-21)
(0.984706 0.0706691 -2.79059e-21)
(0.999102 0.0696198 2.59914e-21)
(1.01094 0.0635461 4.95183e-22)
(1.01595 0.0580318 2.46601e-23)
(1.01941 0.0507274 -7.69398e-22)
(1.02073 0.0438551 3.86554e-22)
(1.02054 0.0375227 6.9371e-23)
(1.01964 0.0318184 -6.11461e-24)
(1.0185 0.0267665 1.79062e-24)
(1.01734 0.0222642 0)
(1.01619 0.0181833 0)
(1.01513 0.0144349 0)
(1.01424 0.0109493 0)
(1.01356 0.00768143 0)
(1.01311 0.0045392 0)
(1.01293 0.00149199 0)
(1.01935 -0.00189881 0)
(1.01965 -0.00582448 0)
(1.02032 -0.00989092 0)
(1.02132 -0.0142381 0)
(1.02262 -0.0189877 0)
(1.02417 -0.0242507 0)
(1.02588 -0.0301623 0)
(1.02751 -0.0368071 8.91252e-23)
(1.02865 -0.0442286 6.05321e-23)
(1.02936 -0.0525944 -4.84384e-22)
(1.02939 -0.062194 -3.42279e-22)
(1.02814 -0.0729329 6.52983e-22)
(1.02468 -0.0845799 -4.78416e-22)
(1.01402 -0.0927933 -1.38016e-21)
(1.00436 -0.100019 1.60477e-21)
(0.987575 -0.107996 2.489e-22)
(0.962433 -0.109216 1.63702e-22)
(0.934766 -0.0997532 -1.4507e-21)
(0.905687 -0.077222 -3.01117e-21)
(0.884519 -0.0398952 1.277e-21)
(0.880553 0.00566392 1.82312e-21)
(0.895673 0.0472884 2.27113e-21)
(0.923317 0.0753003 -2.58252e-21)
(0.953152 0.088622 -6.58978e-23)
(0.980209 0.091623 -6.31049e-23)
(1.00089 0.0860355 9.67703e-22)
(1.01396 0.0780904 -3.42152e-22)
(1.02772 0.0684353 1.65613e-22)
(1.02993 0.0589991 -7.07761e-23)
(1.0303 0.0501126 7.61157e-23)
(1.02924 0.0421375 1.50382e-22)
(1.02739 0.035167 -4.81323e-23)
(1.02523 0.0292069 -2.6912e-23)
(1.02332 0.0240771 0)
(1.02164 0.0195661 0)
(1.02016 0.0154891 0)
(1.01894 0.0117404 0)
(1.01801 0.00823068 0)
(1.01741 0.0048965 0)
(1.01714 0.00163676 0)
(1.02463 -0.00195825 0)
(1.0251 -0.0059686 0)
(1.02608 -0.0101015 0)
(1.02757 -0.0146153 0)
(1.02954 -0.0195605 0)
(1.03195 -0.0251422 0)
(1.03472 -0.0315181 6.05704e-24)
(1.03742 -0.0388097 2.40983e-23)
(1.03992 -0.0472003 -2.52802e-22)
(1.04249 -0.0572054 2.40898e-22)
(1.04468 -0.0693508 -1.06465e-22)
(1.04572 -0.0839 -6.72493e-23)
(1.04424 -0.101587 -1.52581e-22)
(1.03234 -0.115714 9.98616e-22)
(1.02115 -0.130481 1.39427e-21)
(1.00137 -0.147937 -6.41907e-22)
(0.970004 -0.15339 7.16221e-22)
(0.92246 -0.152486 2.13245e-21)
(0.86928 -0.128697 -2.25153e-21)
(0.822585 -0.072836 3.47821e-21)
(0.808443 0.00669458 2.38207e-21)
(0.835979 0.078487 -1.41844e-21)
(0.887087 0.120366 -2.40135e-21)
(0.942584 0.134357 3.49921e-22)
(0.982871 0.127818 -8.45736e-24)
(1.01538 0.11509 -4.84107e-22)
(1.02977 0.0972183 1.41499e-21)
(1.04354 0.0808669 -1.94087e-22)
(1.04381 0.0657432 -1.74689e-22)
(1.04219 0.0545827 2.31776e-22)
(1.03953 0.0453588 -6.28568e-23)
(1.03632 0.0375071 -4.69026e-24)
(1.03291 0.0308297 7.3945e-24)
(1.02988 0.0252273 -7.49121e-24)
(1.02751 0.0204099 0)
(1.02552 0.0161072 0)
(1.02391 0.0121832 0)
(1.02271 0.00850533 0)
(1.02193 0.00501736 0)
(1.02158 0.00161737 0)
(1.02985 -0.00194007 0)
(1.03049 -0.00567355 0)
(1.03187 -0.0097695 0)
(1.0339 -0.0140775 0)
(1.03663 -0.0189048 0)
(1.04005 -0.024421 0)
(1.04404 -0.0308225 -9.99813e-24)
(1.04814 -0.0382458 5.47439e-23)
(1.0528 -0.0472492 2.43739e-23)
(1.0582 -0.0585285 -2.64283e-23)
(1.06378 -0.0724642 -4.3042e-22)
(1.06881 -0.0898377 5.36321e-22)
(1.07253 -0.112682 -6.15636e-23)
(1.06337 -0.133597 -3.19603e-22)
(1.05545 -0.158408 4.12755e-22)
(1.03068 -0.18857 2.75108e-22)
(0.993426 -0.214072 -2.90722e-22)
(0.928505 -0.240768 -1.65387e-22)
(0.825593 -0.238052 -8.0697e-22)
(0.70511 -0.15916 1.00007e-21)
(0.651963 0.00624365 -1.17021e-21)
(0.722446 0.163022 2.58468e-21)
(0.849019 0.226916 -4.31705e-22)
(0.949477 0.217066 -1.04011e-22)
(1.01455 0.183503 5.4164e-22)
(1.05044 0.146395 -1.90536e-21)
(1.05903 0.11193 -1.43431e-22)
(1.06605 0.0857559 1.7789e-22)
(1.06104 0.0680758 -9.70031e-24)
(1.05597 0.0558572 -4.16485e-24)
(1.0509 0.0461415 -1.42932e-22)
(1.04595 0.0380715 -3.95589e-23)
(1.04119 0.0312367 7.73275e-23)
(1.03689 0.0254579 2.71028e-24)
(1.03364 0.0205411 0)
(1.03106 0.0162001 0)
(1.02903 0.0122495 0)
(1.02753 0.00860235 0)
(1.02656 0.00510364 0)
(1.02611 0.00176389 0)
(1.03468 -0.00157569 0)
(1.03552 -0.00506444 0)
(1.03718 -0.00855469 0)
(1.03978 -0.0124223 0)
(1.04333 -0.0168009 0)
(1.04787 -0.0218434 0)
(1.05314 -0.0277059 5.93923e-24)
(1.05909 -0.0347177 -1.95943e-23)
(1.06661 -0.0436474 1.37174e-23)
(1.07562 -0.0551979 3.49297e-23)
(1.08577 -0.0698725 1.83253e-23)
(1.09633 -0.0880473 -1.4189e-22)
(1.10689 -0.110757 1.34943e-22)
(1.10577 -0.139569 -1.48831e-22)
(1.10653 -0.173846 -4.38044e-22)
(1.09614 -0.22024 7.75157e-23)
(1.06946 -0.279904 7.67098e-23)
(1.00912 -0.373222 -5.08028e-23)
(0.844532 -0.479392 -1.03797e-21)
(0.474946 -0.462169 -4.50818e-20)
(0.187616 0.0197268 -2.55246e-20)
(0.507025 0.480138 -1.93617e-20)
(0.879962 0.47167 8.04621e-22)
(1.04492 0.340548 7.46065e-23)
(1.09838 0.234002 -6.67282e-23)
(1.1102 0.157365 5.25488e-23)
(1.10012 0.116929 -9.08869e-23)
(1.09197 0.0788005 -2.371e-23)
(1.08028 0.0640082 -9.20891e-23)
(1.07038 0.0525009 1.06177e-22)
(1.06228 0.0435167 -2.06132e-23)
(1.05547 0.0363578 -3.54157e-23)
(1.04945 0.0301636 -2.23028e-24)
(1.04401 0.0246752 -5.95581e-24)
(1.03979 0.0199244 0)
(1.0366 0.0157281 0)
(1.03412 0.0118816 0)
(1.03232 0.00830996 0)
(1.03115 0.00491157 0)
(1.03062 0.00157064 0)
(1.03881 -0.00135614 0)
(1.03981 -0.00404931 0)
(1.04187 -0.00687686 0)
(1.04502 -0.00999385 0)
(1.04929 -0.0134511 0)
(1.0548 -0.0174602 0)
(1.06133 -0.0221881 1.22206e-23)
(1.06946 -0.0281299 1.35138e-23)
(1.08014 -0.0360186 1.77123e-23)
(1.09305 -0.0463658 1.76983e-23)
(1.10822 -0.0597665 -1.06658e-23)
(1.1253 -0.076629 -1.57862e-23)
(1.14365 -0.0962846 -1.69698e-23)
(1.15047 -0.127546 2.71278e-23)
(1.16825 -0.161905 -2.36821e-22)
(1.17955 -0.213817 6.276e-23)
(1.19626 -0.28718 -2.24958e-24)
(1.22876 -0.417658 9.21591e-22)
(0.896782 -0.475814 -7.26716e-20)
(1.13315 0.595285 2.01356e-20)
(1.291 0.366531 1.2679e-22)
(1.22762 0.211825 3.6369e-22)
(1.1814 0.128999 4.33388e-23)
(1.1441 0.0952617 1.63878e-23)
(1.11705 0.0610019 -1.39129e-22)
(1.09736 0.05113 2.38063e-23)
(1.08271 0.0433411 5.64283e-23)
(1.07206 0.0372458 2.17696e-23)
(1.06376 0.0321529 2.37304e-23)
(1.05687 0.0273981 1.68736e-23)
(1.05071 0.0227935 9.45769e-24)
(1.0457 0.0185556 0)
(1.04195 0.0147043 0)
(1.03905 0.011143 0)
(1.03693 0.00776816 0)
(1.03559 0.00462839 0)
(1.03495 0.00148511 0)
(1.04177 -0.000977029 0)
(1.04298 -0.00273152 0)
(1.04535 -0.00464209 0)
(1.04887 -0.00664992 0)
(1.05368 -0.00886196 0)
(1.05998 -0.0114114 0)
(1.06776 -0.0144949 -2.32021e-24)
(1.07813 -0.0186883 -9.76109e-24)
(1.09177 -0.0245165 2.26825e-23)
(1.1082 -0.0321604 -3.63728e-23)
(1.12764 -0.041932 3.3295e-24)
(1.15027 -0.0544303 -1.18895e-22)
(1.17594 -0.0687099 7.16251e-23)
(1.19005 -0.096621 -6.83469e-23)
(1.22256 -0.122067 -3.36495e-22)
(1.25163 -0.162771 2.80429e-23)
(1.29932 -0.209375 1.33755e-22)
(1.36851 -0.251639 1.48594e-21)
(0.00609153 0.018108 3.32074e-19)
(0.0818162 0.00553345 -2.32099e-19)
(1.46798 0.161979 -3.95973e-22)
(1.31951 0.102937 5.99608e-23)
(1.22858 0.0614986 -7.0374e-22)
(1.17419 0.0501121 -1.45e-21)
(1.12975 0.032822 5.99558e-25)
(1.10655 0.0320013 -1.19617e-22)
(1.09011 0.0301822 2.897e-24)
(1.07837 0.0281908 -2.1523e-24)
(1.06958 0.0259175 3.80679e-23)
(1.06261 0.0231856 -4.67619e-24)
(1.05642 0.019932 1.49174e-24)
(1.05102 0.0164665 0)
(1.04687 0.0131672 0)
(1.04365 0.010081 0)
(1.0413 0.00715932 0)
(1.03974 0.00425937 0)
(1.03896 0.00158386 0)
(1.04416 -0.000359485 2.9441e-25)
(1.0452 -0.00116537 0)
(1.04746 -0.00194354 0)
(1.05106 -0.00268835 0)
(1.05613 -0.00346724 0)
(1.06287 -0.00427269 0)
(1.07177 -0.00532521 1.21077e-23)
(1.08399 -0.00716425 -1.74495e-23)
(1.09977 -0.00994627 2.55132e-23)
(1.11855 -0.013636 -1.58888e-22)
(1.14054 -0.0181308 1.00008e-22)
(1.16667 -0.0241432 1.73118e-22)
(1.19649 -0.0306919 -1.34218e-22)
(1.2186 -0.052652 -4.86312e-22)
(1.25767 -0.0681747 2.00949e-23)
(1.29354 -0.0962871 -1.63086e-22)
(1.34087 -0.121122 -1.0581e-21)
(1.24449 -0.109317 1.378e-22)
(-0.0111248 -0.0211442 1.35524e-21)
(0.336822 -0.0339929 1.02302e-20)
(1.4323 -0.0521736 -7.96652e-22)
(1.32273 -0.0306084 -2.98407e-23)
(1.22631 -0.0184879 -7.80367e-22)
(1.17451 -0.00228474 2.15843e-21)
(1.12806 0.00297968 1.02324e-22)
(1.10682 0.0122925 -5.08995e-22)
(1.09126 0.0164874 -1.11518e-22)
(1.08025 0.0185538 1.68901e-23)
(1.07224 0.0189812 -4.0123e-23)
(1.06617 0.0182585 2.05925e-23)
(1.06075 0.0164728 1.17055e-23)
(1.05552 0.0138832 0)
(1.05109 0.0111468 0)
(1.04761 0.0085071 0)
(1.04507 0.00599542 0)
(1.04343 0.00353105 0)
(1.04266 0.00101864 0)
(1.04435 0.000344082 6.42323e-27)
(1.04565 0.000646504 0)
(1.04792 0.00099691 0)
(1.05146 0.00148141 0)
(1.05645 0.00217273 0)
(1.06319 0.00320555 0)
(1.07273 0.00446672 -1.08387e-23)
(1.08588 0.00541382 1.30491e-23)
(1.10241 0.00629206 -9.2587e-24)
(1.12184 0.00733831 -5.0945e-23)
(1.14451 0.00899948 3.07153e-23)
(1.17172 0.0105026 4.27276e-22)
(1.20329 0.0129197 -4.24142e-22)
(1.23168 -0.00108832 -2.57018e-22)
(1.27525 -0.00667548 1.01367e-21)
(1.31802 -0.0264056 -4.32231e-22)
(1.36664 -0.0488272 6.90535e-22)
(1.15607 -0.0632861 -1.57057e-22)
(0.145561 -0.176475 1.04427e-22)
(-0.10259 -0.297996 -1.76451e-21)
(-0.248298 -0.124448 -2.5583e-22)
(0.0640094 -0.0206912 7.88049e-22)
(0.745569 -0.198421 1.33656e-21)
(1.35207 -0.235519 1.16685e-21)
(1.2543 -0.147055 -1.62749e-21)
(1.17669 -0.0811571 4.55435e-24)
(1.14369 -0.0413887 -3.98609e-22)
(1.10817 -0.0149649 2.44748e-22)
(1.09607 -0.00149839 -4.92665e-22)
(1.08622 0.006304 1.37195e-23)
(1.07839 0.0107739 8.64923e-23)
(1.07222 0.0129319 2.00341e-23)
(1.06758 0.013529 -3.54026e-24)
(1.06357 0.0128326 -1.44581e-23)
(1.05916 0.0111049 0)
(1.05471 0.00896083 0)
(1.05109 0.0068423 0)
(1.0484 0.00474521 0)
(1.04665 0.00280455 0)
(1.04578 0.000833521 0)
(1.0435 0.000522154 1.09584e-23)
(1.04458 0.00178964 0)
(1.04667 0.00328028 0)
(1.04992 0.00498016 0)
(1.05445 0.00709782 0)
(1.06061 0.00986403 0)
(1.06981 0.0134109 2.48088e-25)
(1.08284 0.0173502 4.90579e-24)
(1.09864 0.0220757 -2.13607e-23)
(1.11694 0.0281121 -6.4513e-23)
(1.13831 0.0362196 3.83317e-22)
(1.1638 0.0458793 -7.24305e-22)
(1.19449 0.0592126 6.30628e-22)
(1.22874 0.0562103 -6.31279e-22)
(1.27555 0.0647076 1.30109e-21)
(1.34018 0.0709777 -1.92638e-21)
(1.40817 0.0507412 -2.79107e-21)
(1.22442 -0.0159173 2.39573e-21)
(0.541723 -0.297686 3.06338e-21)
(-0.0318662 -0.57462 1.49231e-20)
(-0.362219 -0.718794 -3.2739e-21)
(0.0826568 -0.69811 -4.80127e-21)
(0.870933 -0.577206 1.38679e-21)
(1.11711 -0.365154 -6.26663e-22)
(1.11366 -0.20494 7.13414e-22)
(1.09331 -0.0979622 5.56463e-22)
(1.09542 -0.0472205 -1.13069e-21)
(1.08307 -0.0122556 -8.76579e-23)
(1.08091 -0.00170571 -5.83998e-22)
(1.07746 0.00376757 -4.50052e-22)
(1.07381 0.00696535 -1.80348e-22)
(1.07064 0.00899221 7.95059e-23)
(1.06768 0.0096506 1.27487e-23)
(1.06524 0.00936321 -6.53646e-25)
(1.06181 0.00821305 0)
(1.0576 0.00669235 0)
(1.05403 0.00522188 0)
(1.05128 0.00376289 0)
(1.04934 0.00233319 0)
(1.04837 0.00107408 -2.95728e-23)
(1.0416 0.000785309 1.29404e-25)
(1.04243 0.00270131 0)
(1.04415 0.00489992 0)
(1.04678 0.00751148 0)
(1.0504 0.0107386 0)
(1.05536 0.0148211 0)
(1.06324 0.0200533 0)
(1.07491 0.0264705 1.17448e-23)
(1.08857 0.0346569 4.22086e-23)
(1.10385 0.0451938 1.02386e-22)
(1.12144 0.0592688 -2.79653e-22)
(1.14224 0.0769445 -6.88199e-23)
(1.16774 0.10109 6.49498e-22)
(1.20313 0.131314 -9.87726e-23)
(1.24859 0.143777 -1.44606e-22)
(1.3115 0.180285 2.11064e-21)
(1.40263 0.20191 -2.31037e-21)
(1.41914 0.211888 1.91532e-20)
(0.936107 -0.0169336 -3.73981e-21)
(0.399016 -0.313471 6.17229e-21)
(-0.12685 -0.636659 -2.24461e-21)
(-0.086052 -0.747167 -1.57026e-20)
(0.504151 -0.531775 -1.04113e-21)
(0.851815 -0.274106 -2.42416e-20)
(0.946958 -0.113865 7.94298e-23)
(1.01058 -0.0487685 -4.01275e-22)
(1.04639 0.00467509 3.6223e-22)
(1.06698 0.00817566 2.98454e-22)
(1.07291 0.00915404 -4.37943e-22)
(1.07361 0.00898581 1.70235e-22)
(1.07195 0.00808431 -7.97004e-23)
(1.06942 0.00713373 -3.90864e-23)
(1.06755 0.0066819 -2.2227e-23)
(1.06633 0.00606667 0)
(1.06345 0.0050918 0)
(1.05935 0.00408742 0)
(1.05575 0.00319006 0)
(1.05305 0.00229764 0)
(1.05133 0.00134739 0)
(1.05049 0.000320442 5.96402e-23)
(1.03898 0.00105311 1.70076e-24)
(1.03945 0.00326543 0)
(1.04061 0.00585068 0)
(1.04244 0.00886951 0)
(1.04493 0.0126086 0)
(1.04838 0.0172928 0)
(1.05429 0.0233647 0)
(1.06353 0.0311723 0)
(1.0738 0.0416407 -7.82408e-24)
(1.08437 0.055397 9.47065e-23)
(1.0959 0.0738977 -1.07394e-22)
(1.1088 0.0976898 1.10963e-22)
(1.12396 0.129376 -4.03466e-22)
(1.14435 0.172928 2.65885e-22)
(1.18602 0.207771 -1.56795e-22)
(1.22959 0.27284 8.0251e-22)
(1.29468 0.341947 -2.78507e-21)
(1.39067 0.465982 -4.91253e-21)
(1.23543 0.492411 -1.09956e-20)
(0.788947 0.34349 1.61998e-21)
(0.286824 0.070265 2.26583e-21)
(0.0118265 -0.206357 -2.22483e-21)
(0.1783 -0.275515 1.65759e-22)
(0.597683 -0.087751 7.97804e-20)
(0.867991 0.0569094 -3.00813e-22)
(0.976176 0.0533411 3.72229e-22)
(1.05124 0.0583084 2.54701e-22)
(1.07129 0.0346963 1.16953e-22)
(1.07754 0.0240988 -5.7083e-23)
(1.07732 0.015833 -3.85703e-23)
(1.07451 0.0101712 -1.02147e-23)
(1.07127 0.00641838 1.12505e-24)
(1.06902 0.00409581 0)
(1.06757 0.00257856 0)
(1.06448 0.00166716 0)
(1.06024 0.00111334 0)
(1.05652 0.000710252 5.7319e-23)
(1.05376 0.000343359 7.92683e-23)
(1.05193 9.01284e-05 4.72685e-23)
(1.0508 -0.000122909 0)
(1.03588 0.00111334 0)
(1.03611 0.00341142 0)
(1.03672 0.0059449 0)
(1.03771 0.00887775 0)
(1.03904 0.0125079 0)
(1.04088 0.017007 0)
(1.04445 0.0229782 0)
(1.05033 0.0311955 0)
(1.05617 0.0424951 -8.61253e-26)
(1.06089 0.0574832 3.20343e-25)
(1.06475 0.0775921 -6.10498e-24)
(1.06753 0.10389 -1.29259e-22)
(1.07032 0.137757 3.37926e-22)
(1.07191 0.185646 -3.9367e-22)
(1.09795 0.234877 4.56306e-21)
(1.11049 0.307879 -3.82667e-22)
(1.13963 0.393874 6.95133e-22)
(1.15174 0.538514 -1.20344e-24)
(1.11835 0.74078 4.89361e-22)
(0.935361 0.833745 -2.79882e-21)
(0.647527 0.74017 4.26233e-21)
(0.390303 0.497274 5.47142e-22)
(0.310373 0.24068 3.61634e-22)
(0.389679 0.141184 2.19405e-22)
(0.879488 0.231144 5.08273e-22)
(1.03023 0.156314 2.49464e-21)
(1.09653 0.0897523 1.73246e-24)
(1.10105 0.0532975 2.45829e-22)
(1.09647 0.0326956 1.32684e-22)
(1.08907 0.0182069 -2.51431e-23)
(1.08188 0.0093621 -2.71414e-24)
(1.07584 0.00368944 -7.44857e-26)
(1.07186 0.000181063 0)
(1.06901 -0.00178472 0)
(1.065 -0.00233825 0)
(1.06039 -0.00229618 0)
(1.0565 -0.00202607 0)
(1.05359 -0.00160357 0)
(1.05155 -0.000954698 0)
(1.05032 -0.000279487 -8.51312e-24)
(1.03285 0.000990591 0)
(1.03286 0.00301495 0)
(1.03307 0.00511993 0)
(1.03337 0.00750598 0)
(1.03364 0.010411 0)
(1.0339 0.0139919 0)
(1.03483 0.0188906 0)
(1.03665 0.0262091 0)
(1.03748 0.0366807 0)
(1.03632 0.0505696 0)
(1.03258 0.0690285 -2.76942e-24)
(1.02538 0.0934401 -3.41404e-23)
(1.0152 0.124262 1.04373e-22)
(1.00027 0.170662 -8.74953e-23)
(1.00412 0.22124 1.99647e-20)
(0.991123 0.287537 -6.10143e-22)
(0.990989 0.384553 6.75112e-21)
(0.94351 0.483969 -2.8981e-21)
(0.904929 0.59088 -1.83274e-21)
(0.848975 0.699526 -9.14428e-21)
(0.748333 0.756377 -5.32221e-21)
(0.637927 0.725958 -7.68825e-21)
(0.551699 0.622004 1.76034e-21)
(0.529099 0.460912 1.23028e-21)
(0.955614 0.295949 3.16874e-21)
(1.15935 0.185369 5.98156e-22)
(1.1681 0.0763837 -6.08992e-23)
(1.14553 0.045753 6.72122e-23)
(1.12331 0.0237493 -5.21399e-23)
(1.10585 0.00990061 6.65737e-24)
(1.09232 0.00165702 0)
(1.08223 -0.00360404 0)
(1.0753 -0.00658573 0)
(1.07003 -0.00763897 0)
(1.0646 -0.00706083 0)
(1.05946 -0.00598369 0)
(1.05535 -0.00472198 0)
(1.05232 -0.00335347 0)
(1.05027 -0.0019281 0)
(1.04912 -0.00056691 0)
(1.03028 0.000654954 0)
(1.03025 0.00196279 0)
(1.03027 0.00331518 0)
(1.03017 0.00480939 0)
(1.02977 0.0065373 0)
(1.02881 0.00862068 0)
(1.02732 0.0115354 0)
(1.02533 0.0163871 0)
(1.02173 0.0238486 0)
(1.01554 0.0338982 0)
(1.00537 0.0474208 0)
(0.989753 0.0653694 -1.24726e-24)
(0.967166 0.0884975 -4.19811e-24)
(0.937983 0.124574 -7.5742e-23)
(0.923968 0.175573 6.6814e-21)
(0.878234 0.231436 1.74382e-21)
(0.856198 0.319996 5.34705e-21)
(0.829468 0.412469 -1.22988e-21)
(0.762212 0.524768 -7.43694e-22)
(0.703822 0.649528 -2.34952e-21)
(0.670582 0.745044 9.34431e-22)
(0.669224 0.766068 -3.97875e-21)
(0.704342 0.687953 -2.15836e-21)
(0.822232 0.500791 -1.0875e-21)
(1.18055 0.215586 6.84275e-23)
(1.29007 0.105034 3.69637e-22)
(1.22848 0.0134212 -7.84382e-22)
(1.18048 0.00462373 2.48511e-24)
(1.14418 -0.00668166 -3.61068e-25)
(1.11894 -0.0119192 0)
(1.10023 -0.0148402 0)
(1.08667 -0.0163648 0)
(1.07686 -0.0163486 0)
(1.06917 -0.0148736 0)
(1.06249 -0.0123551 0)
(1.05699 -0.00983467 0)
(1.05283 -0.00742584 0)
(1.04985 -0.0051506 0)
(1.04792 -0.00299995 0)
(1.04696 -0.000960489 0)
(1.029 0.000183045 0)
(1.02898 0.000633575 0)
(1.02896 0.00105337 0)
(1.02876 0.00145608 0)
(1.02814 0.00180812 0)
(1.02667 0.00209185 0)
(1.02379 0.00250577 0)
(1.01938 0.00375499 0)
(1.01296 0.00631542 0)
(1.00361 0.00988495 0)
(0.989397 0.0149976 4.85743e-23)
(0.967826 0.0219332 0)
(0.936428 0.0323475 0)
(0.89728 0.0494555 7.28605e-22)
(0.849955 0.0813766 4.59573e-21)
(0.794898 0.134484 1.10223e-20)
(0.699963 0.202235 -2.20212e-22)
(0.604907 0.32663 -3.23376e-22)
(0.540657 0.445763 -1.18261e-21)
(0.549571 0.526448 -3.55078e-21)
(0.659168 0.539906 3.64033e-22)
(0.810689 0.460502 4.88137e-21)
(0.997815 0.302335 -9.7089e-22)
(1.19822 0.113256 9.11225e-22)
(1.369 -0.0224743 -3.78574e-23)
(1.33522 -0.0933456 1.027e-22)
(1.24005 -0.073446 -1.20488e-22)
(1.18378 -0.0569868 0)
(1.1461 -0.0493767 0)
(1.11924 -0.041693 3.54069e-23)
(1.09941 -0.0362163 0)
(1.08476 -0.0316487 0)
(1.07361 -0.0270676 0)
(1.06479 -0.0223037 0)
(1.05788 -0.0175708 0)
(1.05269 -0.0134754 0)
(1.04889 -0.0099053 0)
(1.04621 -0.00678204 -9.43368e-24)
(1.04452 -0.00394612 -6.76783e-24)
(1.04371 -0.00129712 0)
(1.029 -0.000112453 0)
(1.02904 -0.000395035 0)
(1.02909 -0.000843221 0)
(1.02907 -0.00150145 0)
(1.02879 -0.00252595 0)
(1.02768 -0.0040572 0)
(1.02481 -0.00616789 0)
(1.01996 -0.00871007 0)
(1.0132 -0.0117092 0)
(1.0037 -0.015839 0)
(0.989265 -0.0215578 1.59567e-22)
(0.966384 -0.0298167 0)
(0.92948 -0.0385388 0)
(0.876077 -0.0443351 -1.07868e-21)
(0.797214 -0.0398943 -2.56233e-20)
(0.692932 -0.0121448 -3.4219e-21)
(0.59068 -0.0355726 0)
(0.547797 -0.102552 1.24624e-22)
(0.562905 -0.193954 -7.37056e-21)
(0.66564 -0.280675 -1.01889e-21)
(0.850449 -0.357546 3.69e-21)
(1.04619 -0.391015 1.15742e-20)
(1.22088 -0.413852 -1.61987e-21)
(1.33111 -0.380398 0)
(1.34197 -0.299938 -4.28826e-22)
(1.263 -0.209434 -3.10957e-21)
(1.19486 -0.149327 -5.81838e-22)
(1.15279 -0.113109 0)
(1.1251 -0.0875993 0)
(1.10383 -0.0685642 1.65246e-24)
(1.08764 -0.0549403 0)
(1.07501 -0.0444848 0)
(1.06477 -0.0357574 0)
(1.0566 -0.0282632 0)
(1.05067 -0.0217324 0)
(1.04657 -0.0163191 1.70668e-23)
(1.04366 -0.0117722 -2.21781e-23)
(1.04162 -0.00791484 0)
(1.04035 -0.0045338 0)
(1.03972 -0.00140954 -5.21177e-23)
(1.0296 -0.000222108 0)
(1.0299 -0.00095528 0)
(1.03033 -0.00197903 0)
(1.03088 -0.00341312 0)
(1.03145 -0.00546509 0)
(1.03148 -0.00840301 0)
(1.0299 -0.0125476 -8.39191e-24)
(1.02664 -0.0182088 0)
(1.02246 -0.0260443 0)
(1.01685 -0.0372574 0)
(1.00783 -0.0534809 0)
(0.991985 -0.0780825 0)
(0.957928 -0.1103 0)
(0.88611 -0.149555 9.73086e-21)
(0.799703 -0.180523 1.79413e-22)
(0.741811 -0.209533 -8.88774e-23)
(0.725375 -0.302704 0)
(0.713929 -0.404608 0)
(0.719612 -0.50088 -2.70179e-21)
(0.773086 -0.575864 -4.04532e-20)
(0.8971 -0.617925 1.16365e-20)
(1.02647 -0.609813 8.58329e-22)
(1.13045 -0.564337 0)
(1.18136 -0.470685 0)
(1.17405 -0.354546 0)
(1.14072 -0.256424 -2.41854e-24)
(1.11825 -0.189965 -1.18522e-22)
(1.10015 -0.144104 -4.099e-24)
(1.0875 -0.109297 0)
(1.07657 -0.0840509 0)
(1.06736 -0.0652979 0)
(1.05928 -0.0511731 0)
(1.05194 -0.0400494 7.48946e-23)
(1.04579 -0.0311214 3.06918e-23)
(1.04164 -0.0237189 1.54622e-24)
(1.03912 -0.0176992 0)
(1.03743 -0.012715 0)
(1.03631 -0.0084938 0)
(1.0357 -0.00483903 0)
(1.03548 -0.00151094 0)
(1.03051 -0.000327845 0)
(1.03124 -0.001176 0)
(1.03224 -0.00232736 0)
(1.03362 -0.00397769 0)
(1.03538 -0.00637338 0)
(1.03711 -0.00986639 0)
(1.03789 -0.0149893 0)
(1.0379 -0.0223555 0)
(1.03877 -0.0329568 2.13401e-23)
(1.04082 -0.0482928 0)
(1.04302 -0.0704736 0)
(1.04286 -0.104349 0)
(1.02534 -0.151168 -1.05665e-21)
(0.959994 -0.216545 -2.05256e-21)
(0.876109 -0.291248 0)
(0.844906 -0.369441 0)
(0.844383 -0.456467 0)
(0.815184 -0.521461 0)
(0.804838 -0.570652 1.0607e-21)
(0.814613 -0.607114 5.63231e-21)
(0.87601 -0.608062 2.07621e-20)
(0.945038 -0.566328 -8.31752e-21)
(1.00171 -0.49666 0)
(1.02645 -0.407 0)
(1.0312 -0.317256 0)
(1.03531 -0.246724 0)
(1.03997 -0.191189 -2.03873e-21)
(1.04235 -0.146425 -9.7298e-22)
(1.04457 -0.111652 0)
(1.0446 -0.0854731 -2.14635e-24)
(1.04333 -0.0654854 -2.00673e-26)
(1.04099 -0.0504056 2.06601e-24)
(1.03765 -0.0387839 0)
(1.03431 -0.0297713 0)
(1.03233 -0.0226217 0)
(1.03151 -0.0169565 0)
(1.03105 -0.0123092 0)
(1.03079 -0.00837156 0)
(1.0308 -0.00487645 0)
(1.03102 -0.00171493 0)
(1.03162 -0.000294484 0)
(1.03257 -0.000967716 0)
(1.03408 -0.0018123 0)
(1.0363 -0.00310164 0)
(1.03935 -0.00506366 0)
(1.04305 -0.00803889 0)
(1.04676 -0.0126345 0)
(1.05089 -0.0196242 0)
(1.05768 -0.0298578 0)
(1.06851 -0.044482 0)
(1.08409 -0.0652498 -4.6543e-23)
(1.10328 -0.0963524 -1.75404e-22)
(1.1138 -0.141059 9.7431e-22)
(1.07706 -0.212273 1.65382e-22)
(1.00338 -0.311572 0)
(0.953787 -0.407421 0)
(0.912944 -0.485547 0)
(0.856549 -0.536885 0)
(0.827675 -0.567927 -3.17392e-20)
(0.809513 -0.584205 4.49427e-20)
(0.822457 -0.567936 1.01175e-21)
(0.849949 -0.50391 1.80046e-21)
(0.886113 -0.43003 0)
(0.912875 -0.347432 0)
(0.93688 -0.274736 0)
(0.962026 -0.217931 0)
(0.977704 -0.169193 3.64769e-21)
(0.990981 -0.129338 -1.72649e-21)
(1.00436 -0.0987517 -7.43012e-22)