/*--------------------------------*- C++ -*----------------------------------*\
| =========                 |                                                 |
| \\      /  F ield         | OpenFOAM: The Open Source CFD Toolbox           |
|  \\    /   O peration     | Version:  v2106                                 |
|   \\  /    A nd           | Website:  www.openfoam.com                      |
|    \\/     M anipulation  |                                                 |
\*---------------------------------------------------------------------------*/
FoamFile
{
    version     2.0;
    format      ascii;
    arch        "LSB;label=32;scalar=64";
    class       volScalarField;
    location    "0";
    object      p;
}
// * * * * * * * * * * * * * * * * * * * * * * * * * * * * * * * * * * * * * //

dimensions      [0 2 -2 0 0 0 0];

internalField   nonuniform List<scalar> 
11644
(
0.408212
0.408254
0.408198
0.407983
0.407643
0.407164
0.406495
0.405541
0.404207
0.402437
0.400149
0.397381
0.394147
0.390386
0.386565
0.383036
0.378273
0.371207
0.368829
0.373088
0.375209
0.371689
0.36879
0.370462
0.372899
0.374329
0.375177
0.375582
0.375552
0.37516
0.37444
0.373436
0.372233
0.370926
0.369634
0.368485
0.367541
0.366762
0.366189
0.36585
0.40765
0.40772
0.4078
0.407844
0.40778
0.4075
0.406998
0.406251
0.405139
0.403566
0.401484
0.398837
0.395508
0.391856
0.387546
0.382502
0.37801
0.374014
0.372303
0.369952
0.369214
0.371473
0.37256
0.373758
0.374116
0.375528
0.37674
0.377182
0.376912
0.376192
0.375101
0.373764
0.372307
0.370828
0.369404
0.368096
0.36689
0.365907
0.365183
0.364777
0.407814
0.407792
0.407835
0.407932
0.408007
0.408032
0.407896
0.407527
0.406809
0.405665
0.403926
0.401414
0.398097
0.393606
0.388441
0.383215
0.378898
0.375734
0.372396
0.367067
0.364856
0.368295
0.369907
0.373719
0.376377
0.377927
0.378994
0.379529
0.379118
0.377872
0.376187
0.374321
0.372386
0.370502
0.368717
0.367098
0.365712
0.364644
0.363927
0.363607
0.408222
0.408171
0.408143
0.408165
0.408246
0.408385
0.408517
0.40853
0.408296
0.407572
0.406181
0.404107
0.400912
0.397432
0.3926
0.387062
0.381795
0.375147
0.36895
0.36469
0.362461
0.364805
0.367154
0.370964
0.375694
0.379274
0.381251
0.381478
0.380686
0.378909
0.37653
0.374021
0.371532
0.369176
0.367074
0.365267
0.363845
0.362821
0.362202
0.361916
0.408923
0.408796
0.408671
0.408616
0.408614
0.408688
0.408833
0.408962
0.408972
0.408684
0.408131
0.407121
0.405648
0.402297
0.397256
0.38982
0.383133
0.372864
0.365167
0.361491
0.359288
0.35823
0.363256
0.367938
0.372978
0.377321
0.379855
0.380703
0.379651
0.377712
0.375111
0.37209
0.369182
0.3666
0.364414
0.362659
0.361355
0.360477
0.359958
0.359738
0.409849
0.409754
0.409596
0.409448
0.409341
0.409266
0.409217
0.40916
0.409161
0.409381
0.409829
0.410325
0.409737
0.409628
0.405785
0.395452
0.385126
0.3763
0.367602
0.358644
0.354633
0.354552
0.359767
0.364488
0.36982
0.373868
0.376719
0.376228
0.375383
0.373426
0.371038
0.368227
0.365362
0.36286
0.360883
0.359422
0.358375
0.357688
0.357299
0.357135
0.411151
0.411045
0.410912
0.410736
0.410582
0.410394
0.410155
0.409903
0.409922
0.410518
0.411822
0.412902
0.414903
0.414623
0.412507
0.407983
0.394412
0.383762
0.372986
0.36055
0.353839
0.350751
0.351547
0.355508
0.363646
0.366642
0.368242
0.367899
0.366889
0.365718
0.364158
0.362198
0.360148
0.358253
0.356802
0.355766
0.355027
0.354545
0.354274
0.354211
0.412683
0.412664
0.412586
0.412619
0.412573
0.41252
0.412364
0.412242
0.412503
0.413332
0.414965
0.417499
0.416434
0.420318
0.417171
0.417497
0.412469
0.39023
0.370225
0.3509
0.341006
0.334243
0.335444
0.341224
0.339635
0.353403
0.35456
0.353673
0.356589
0.356315
0.355901
0.355148
0.354372
0.353478
0.352655
0.35203
0.351599
0.351272
0.351151
0.351045
0.414604
0.414515
0.414659
0.414925
0.41534
0.41587
0.416334
0.416992
0.417907
0.419094
0.420918
0.423572
0.425555
0.428018
0.426534
0.420416
0.413675
0.407719
0.375048
0.34497
0.32121
0.306156
0.306792
0.308484
0.330133
0.329504
0.33992
0.341834
0.345749
0.347558
0.348737
0.349356
0.349627
0.34954
0.349073
0.348592
0.348234
0.348038
0.347943
0.348024
0.416024
0.416169
0.416731
0.417674
0.419134
0.420839
0.422735
0.42497
0.427352
0.429927
0.43295
0.438794
0.445358
0.441942
0.445573
0.44933
0.442209
0.431777
0.399547
0.336588
0.277496
0.25537
0.273376
0.293088
0.312313
0.323277
0.334803
0.339948
0.343135
0.34468
0.345953
0.346886
0.347316
0.34731
0.346645
0.345851
0.345132
0.344689
0.344457
0.344501
0.41653
0.417094
0.418369
0.420592
0.42351
0.42709
0.431341
0.436074
0.441271
0.447576
0.454217
0.464586
0.480763
0.468567
0.483962
0.494377
0.503905
0.507411
0.483856
0.381064
0.209402
0.181951
0.246828
0.299343
0.329231
0.34479
0.345204
0.359242
0.354516
0.350762
0.349689
0.349224
0.348439
0.347437
0.345827
0.344083
0.342639
0.341376
0.340848
0.34053
0.415735
0.416904
0.419465
0.423109
0.427957
0.4341
0.441318
0.449587
0.458634
0.469837
0.482115
0.495878
0.510527
0.51888
0.530316
0.537291
0.560028
0.608513
0.721004
0.385984
0.373292
0.378867
0.386576
0.38123
0.385583
0.374354
0.365802
0.360307
0.35598
0.35278
0.349968
0.34679
0.343577
0.340999
0.338882
0.33714
0.336706
0.411559
0.414489
0.419161
0.424903
0.432087
0.440778
0.451325
0.463408
0.47656
0.492792
0.511487
0.532211
0.553541
0.552871
0.568892
0.570407
0.589953
0.633306
0.718508
0.513661
0.474858
0.456416
0.448145
0.437944
0.425871
0.401847
0.385058
0.373962
0.364921
0.359093
0.354057
0.348615
0.343702
0.339506
0.336199
0.333175
0.331129
0.406843
0.411607
0.416606
0.423901
0.433187
0.444427
0.45806
0.473141
0.488766
0.50974
0.535336
0.562907
0.587995
0.597085
0.608836
0.589104
0.574435
0.552629
0.653532
0.583061
0.556807
0.535595
0.517234
0.489006
0.464975
0.421246
0.400322
0.384341
0.372587
0.365646
0.358588
0.350829
0.344027
0.337856
0.332412
0.328845
0.325233
0.4074
0.407045
0.413047
0.421219
0.431713
0.445035
0.460132
0.475744
0.492338
0.511466
0.555694
0.595491
0.633913
0.640698
0.646403
0.650479
0.586149
0.436221
1.13348
1.09879
0.619785
0.265029
0.83404
0.657557
0.613203
0.563854
0.528807
0.506886
0.467321
0.427988
0.389761
0.380551
0.370716
0.362579
0.353342
0.344102
0.337237
0.331382
0.327522
0.327646
0.400108
0.404865
0.40787
0.41409
0.424644
0.438532
0.453786
0.472174
0.492406
0.517919
0.54652
0.575603
0.63681
0.645059
0.6987
0.747048
0.917064
0.516211
-0.861203
0.00602223
3.16621
1.28617
0.181419
0.710897
0.697892
0.544625
0.516369
0.497808
0.454817
0.429453
0.405521
0.386716
0.374126
0.364173
0.353806
0.342701
0.334744
0.330365
0.32756
0.323681
0.391049
0.389334
0.39398
0.400534
0.409966
0.422053
0.434779
0.44949
0.470175
0.491026
0.504276
0.502012
0.515387
0.667243
0.755556
0.992299
1.38724
1.32461
-0.772831
-1.37577
0.497989
0.236694
0.773123
0.817689
0.6859
0.57109
0.482681
0.397886
0.410476
0.411151
0.399184
0.382922
0.36724
0.356975
0.347874
0.337833
0.328436
0.321196
0.316579
0.319485
0.364795
0.368144
0.371823
0.377276
0.384104
0.392303
0.404052
0.420484
0.442247
0.460552
0.467678
0.483928
0.479163
0.467383
0.574971
0.684872
0.995445
2.98902
2.37581
-0.0539478
-0.35913
-0.532817
1.42379
1.06016
0.473888
0.525214
0.443489
0.449158
0.455445
0.432615
0.415734
0.387028
0.357839
0.338731
0.326751
0.319335
0.313289
0.309009
0.30645
0.301222
0.337494
0.340086
0.342539
0.344712
0.347345
0.350815
0.357259
0.370676
0.389784
0.409904
0.430374
0.449694
0.492988
0.464173
0.467091
0.308972
-0.040498
0.33717
2.87951
3.21593
2.27507
1.89374
0.648104
-0.375703
0.537367
0.592579
0.598993
0.545393
0.463596
0.422032
0.382811
0.350029
0.321214
0.302628
0.294289
0.289617
0.286738
0.283921
0.279891
0.276565
0.306944
0.307591
0.309013
0.309902
0.310053
0.311564
0.311772
0.310191
0.313975
0.328781
0.35332
0.378407
0.426908
0.385813
0.503293
0.490873
-0.0106719
-1.67927
-1.80906
-0.561695
0.350353
-0.0342208
-0.570956
0.0992149
0.863563
0.714764
0.521242
0.486067
0.378844
0.333265
0.292849
0.273174
0.266892
0.266766
0.262747
0.256871
0.253841
0.250471
0.248065
0.24798
0.276516
0.276465
0.275033
0.274077
0.274448
0.276606
0.280363
0.281156
0.276182
0.273057
0.276791
0.341994
0.388892
0.510425
0.535693
0.891365
1.70331
1.65294
0.223399
-0.869577
-0.921451
-0.119805
1.33386
2.14675
1.21736
0.692611
0.583417
0.421006
0.354485
0.257792
0.246699
0.245438
0.246187
0.23864
0.229033
0.222759
0.21971
0.219323
0.220565
0.220428
0.240767
0.238803
0.238562
0.239517
0.241255
0.242334
0.244054
0.247622
0.247589
0.246944
0.24686
0.2602
0.259493
0.328011
0.571293
0.595334
0.869113
2.19319
3.31267
3.51051
3.01948
2.46394
1.47241
0.324213
-0.0584878
0.513935
0.251794
0.234028
0.248908
0.236417
0.234224
0.226296
0.21333
0.199161
0.191721
0.187786
0.184818
0.184028
0.183957
0.18344
0.210879
0.210852
0.211459
0.210367
0.208376
0.205359
0.200826
0.196086
0.194887
0.193321
0.193262
0.154475
0.114608
0.0970784
-0.151873
0.053062
-0.691557
-1.22482
-1.99465
-2.57855
-2.41329
-2.14224
-1.61052
-0.600903
0.34358
-0.190257
0.162462
0.104371
0.11391
0.170931
0.159921
0.152957
0.147396
0.14738
0.149183
0.148952
0.148906
0.148784
0.147415
0.147243
0.188772
0.191561
0.188529
0.184184
0.178961
0.174913
0.171631
0.165226
0.161323
0.149211
0.138829
0.120934
0.0944693
0.00198812
-0.22415
-0.318181
-0.375014
0.200004
1.14463
1.855
2.33204
1.68014
0.433405
-0.172612
-0.140325
-0.177386
0.0355183
0.0263364
0.042907
0.0633953
0.069841
0.0847137
0.093976
0.105312
0.109273
0.112595
0.115879
0.118626
0.120979
0.120324
0.154054
0.151331
0.150995
0.151298
0.150539
0.148137
0.146177
0.143204
0.136666
0.124629
0.109179
0.0995812
0.0521017
0.0876795
0.177921
0.129275
-0.417415
-1.16411
-1.41735
-1.27464
-1.16869
-1.22151
-1.07493
-0.362656
0.0453338
0.0154576
-0.0154596
-0.0653986
-0.00708378
0.00204236
0.0221227
0.0438223
0.0579835
0.0682745
0.0742823
0.0793245
0.0824854
0.0835038
0.0841867
0.0864819
0.127154
0.122763
0.121456
0.11989
0.117102
0.112206
0.105421
0.0979655
0.0869299
0.0711488
0.0392075
-0.0181512
-0.0411473
-0.0850521
-0.0875171
-0.181446
-0.328259
-0.74576
-1.44945
-1.8642
-2.19699
-2.04462
-1.31102
-0.819536
-0.595985
-0.44587
-0.299509
-0.204063
-0.13038
-0.0741454
-0.0261844
-0.000663565
0.0144592
0.0243231
0.034166
0.0426312
0.0494824
0.0545718
0.0580967
0.0611622
0.11452
0.117232
0.111894
0.104786
0.0980073
0.0897031
0.0789816
0.0660138
0.0512295
0.0264989
0.0133165
-0.0450655
-0.111615
-0.349102
-0.524794
-0.418511
0.156172
0.375822
0.654084
0.56675
0.30588
0.307195
0.0525786
-0.130813
-0.78978
-0.768263
-0.541925
-0.284635
-0.177467
-0.0961223
-0.0654161
-0.03023
-0.0144844
0.000606005
0.0127967
0.0223436
0.0308516
0.0389832
0.0456315
0.0456163
0.08666
0.0870068
0.0879113
0.0866662
0.0826905
0.0759222
0.0676314
0.0579207
0.042855
0.0227949
0.0189026
-0.002517
0.00883309
0.0956442
-0.135054
-0.579537
-0.933384
-1.09186
-0.719711
-0.506306
-0.22248
-0.274668
-0.742962
-0.754221
-0.610011
-0.197537
-0.0458328
-0.106901
-0.115978
-0.0865368
-0.0714405
-0.0444633
-0.0237235
-0.00773437
0.00390818
0.0111191
0.0149954
0.0159294
0.0151438
0.0182995
0.061547
0.058405
0.0553266
0.0527023
0.049129
0.0438872
0.0386416
0.0328973
0.0242729
0.0040817
-0.0258123
-0.0217609
-0.0475566
0.0343337
0.125998
0.0242199
-0.421211
-0.794624
-1.25163
-1.39584
-1.30014
-1.02327
-0.677362
-0.427962
-0.0531936
0.0584236
-0.0552193
-0.125151
-0.105775
-0.114056
-0.0830186
-0.0600878
-0.0428476
-0.0300789
-0.0206688
-0.0134545
-0.00821096
-0.0039451
-0.000278322
-0.000175994
0.0507402
0.0478753
0.0434076
0.037814
0.0317038
0.0250279
0.0166473
0.0050297
-0.00435692
-0.0140956
-0.0380584
-0.0938723
-0.167348
-0.266181
-0.155155
0.275885
0.737767
0.855649
0.985474
0.793306
0.502863
0.506347
0.403249
0.339523
0.0544085
-0.307651
-0.391282
-0.270548
-0.179314
-0.0995896
-0.0762878
-0.0654517
-0.0540209
-0.0429904
-0.0342458
-0.0258966
-0.0181724
-0.0117154
-0.00790588
-0.00899663
0.0365246
0.0357594
0.0360561
0.0346548
0.030926
0.0245698
0.0152755
0.00276493
-0.00906822
-0.0158048
-0.0128029
-0.0250268
-0.00818283
-0.0248177
-0.156496
-0.306107
-0.174882
-0.00181658
0.441225
0.604924
0.313978
-0.019938
-0.391231
-0.471247
-0.48533
-0.318008
-0.134976
-0.107251
-0.0986126
-0.0620516
-0.0629563
-0.05586
-0.0479595
-0.0411386
-0.0349478
-0.0304254
-0.0281202
-0.0277906
-0.0284358
-0.0257704
0.0233927
0.0249169
0.0217908
0.0179408
0.0131322
0.00758545
0.00192266
-0.00605802
-0.0174478
-0.0331291
-0.0363539
-0.0291804
0.0018751
-0.00317121
-0.104365
-0.454436
-0.822937
-0.946732
-1.15155
-1.23747
-1.12211
-1.03478
-0.777849
-0.666565
-0.435581
-0.142355
-0.0445044
-0.0531211
-0.0859686
-0.0870724
-0.0843102
-0.0688194
-0.0597602
-0.0542446
-0.0502532
-0.0470869
-0.0447077
-0.0419911
-0.0384262
-0.0359294
0.00814915
0.00719155
0.00445039
0.000136049
-0.00466008
-0.00957945
-0.014302
-0.0192984
-0.0261009
-0.0473383
-0.0790505
-0.127125
-0.180101
-0.165468
-0.00575194
0.134046
-0.0101687
-0.19087
-0.506715
-0.679862
-0.421409
-0.177375
0.0292908
0.131455
0.137443
-0.0278269
-0.207062
-0.229773
-0.174738
-0.133335
-0.102055
-0.0857577
-0.0760289
-0.0679333
-0.0612529
-0.0554961
-0.0502374
-0.0457159
-0.0426449
-0.0421141
-0.00484928
-0.0097663
-0.00855818
-0.0069719
-0.00657681
-0.00844406
-0.0122153
-0.0162472
-0.0170034
-0.0176206
-0.0254002
-0.0580625
-0.119023
-0.204502
-0.254653
-0.140706
-0.0288546
-0.00816214
0.0861898
0.1203
0.0749283
-0.0553094
-0.246138
-0.307106
-0.380863
-0.406606
-0.291424
-0.172465
-0.104413
-0.0820187
-0.0707229
-0.0742085
-0.0694809
-0.0623746
-0.0565372
-0.0524373
-0.0507253
-0.0514199
-0.0533802
-0.0524379
-0.0042539
-0.00223339
-0.00524216
-0.00767253
-0.00961913
-0.0116773
-0.0149757
-0.0203196
-0.0266281
-0.0328382
-0.00896724
0.0223065
0.0492076
-0.0269594
-0.284289
-0.465591
-0.562896
-0.515125
-0.470455
-0.525701
-0.896648
-0.929721
-0.920839
-0.893863
-0.618865
-0.349676
-0.0585927
0.0124061
-0.0286666
-0.0595785
-0.0830438
-0.0780771
-0.0695038
-0.0665102
-0.064235
-0.0622267
-0.0601797
-0.0583322
-0.0555682
-0.0576957
-0.00945671
-0.00638843
-0.00741045
-0.0106669
-0.0143863
-0.0181522
-0.0227316
-0.0296065
-0.038328
-0.0544212
-0.0744382
-0.106554
-0.104346
-0.0140449
0.124292
0.115756
-0.00308134
-0.094617
-0.275312
-0.349188
-0.380789
-0.286031
-0.0498758
0.0924047
0.227222
0.184278
-0.010127
-0.132325
-0.146621
-0.117672
-0.105714
-0.0895246
-0.0808922
-0.0778991
-0.0762776
-0.0740749
-0.0711064
-0.0678976
-0.0651591
-0.0635653
-0.0271127
-0.0288303
-0.0265273
-0.0247913
-0.0241828
-0.0252244
-0.0271086
-0.0289355
-0.0283336
-0.0291745
-0.0536712
-0.0871591
-0.124759
-0.15
-0.0864534
0.00520997
0.0544475
0.0416501
0.178005
0.310951
0.480073
0.511915
0.349973
0.308782
0.108713
-0.0636402
-0.16098
-0.151256
-0.114803
-0.0960405
-0.0836781
-0.0826958
-0.0827204
-0.0795104
-0.0766955
-0.0753359
-0.0753954
-0.0761076
-0.0774198
-0.0735239
-0.0314497
-0.0337018
-0.0349004
-0.0350255
-0.0345923
-0.0334427
-0.0328846
-0.0326665
-0.0301696
-0.0253594
-0.0136803
-0.00938602
-0.040129
-0.163322
-0.343751
-0.437475
-0.45728
-0.43371
-0.451986
-0.398283
-0.411596
-0.421401
-0.460051
-0.525714
-0.550124
-0.427036
-0.219388
-0.0826895
-0.0554061
-0.0645052
-0.0779061
-0.0825838
-0.08049
-0.0768485
-0.0752012
-0.0736906
-0.071942
-0.0707997
-0.0701436
-0.071237
-0.0296461
-0.0287559
-0.0319524
-0.0354622
-0.0380405
-0.0395204
-0.041081
-0.0441742
-0.0521128
-0.0674062
-0.0703241
-0.0758262
-0.0572599
-0.0148086
-0.00169394
-0.0649626
-0.159616
-0.241468
-0.526073
-0.685096
-1.00949
-0.846915
-0.544573
-0.45983
-0.28457
-0.134476
-0.0897227
-0.112161
-0.125662
-0.119067
-0.108369
-0.0968954
-0.0870642
-0.0828571
-0.0802286
-0.0771013
-0.0729454
-0.0689121
-0.0660053
-0.0696121
-0.0417029
-0.0415008
-0.0393003
-0.03819
-0.0392933
-0.0412737
-0.0438869
-0.0469462
-0.0491669
-0.0568509
-0.0862578
-0.13751
-0.146313
-0.0944275
0.0128359
0.0446828
0.0369521
-0.0522783
-0.097239
-0.0995775
-0.231744
-0.239286
-0.144199
-0.036807
0.0394801
0.0278943
-0.10666
-0.170761
-0.174023
-0.123345
-0.0930648
-0.0860828
-0.0840521
-0.0845031
-0.0839342
-0.082468
-0.0832728
-0.084743
-0.0864001
-0.0841056
-0.0486944
-0.0492001
-0.0482913
-0.0474101
-0.0473232
-0.048317
-0.0493029
-0.0491606
-0.0473212
-0.0350322
-0.0324774
-0.0519319
-0.135244
-0.296307
-0.425866
-0.468338
-0.435602
-0.433254
-0.36932
-0.367049
-0.199065
-0.116909
-0.184016
-0.213479
-0.305918
-0.337676
-0.284598
-0.163535
-0.0841572
-0.0600463
-0.075601
-0.0808556
-0.0834601
-0.0846833
-0.0849807
-0.0859895
-0.0878183
-0.0892574
-0.0893574
-0.08515
-0.049113
-0.0471779
-0.0505119
-0.0534379
-0.056026
-0.0574902
-0.0570836
-0.0586603
-0.0645007
-0.0668944
-0.0573698
-0.0390775
-0.0123861
-0.0298125
-0.117783
-0.214509
-0.322241
-0.33285
-0.610944
-0.640347
-0.505896
-0.472914
-0.236397
-0.286288
-0.246476
-0.188337
-0.119345
-0.0797544
-0.0866813
-0.095029
-0.101215
-0.0956274
-0.0881325
-0.0844425
-0.0818681
-0.0797131
-0.0773233
-0.0741916
-0.0716533
-0.0756148
-0.0598738
-0.0625423
-0.0622753
-0.0617339
-0.0612526
-0.0616275
-0.0616853
-0.0601514
-0.0686134
-0.0748723
-0.0949734
-0.101917
-0.0383732
0.101336
0.229682
0.270747
0.26815
0.185438
0.136358
0.0928473
-0.0745577
-0.138777
-0.140685
-0.0734348
-0.0108985
0.0165051
-0.0319158
-0.115075
-0.15356
-0.136643
-0.10921
-0.0939101
-0.0855625
-0.083301
-0.0792636
-0.0783769
-0.0781278
-0.0793071
-0.0816238
-0.0830433
-0.0674134
-0.0702362
-0.0691108
-0.0674025
-0.0660979
-0.0659661
-0.0666219
-0.0655665
-0.0624474
-0.0546211
-0.0554244
-0.0748014
-0.123331
-0.175049
-0.167369
-0.102107
-0.00463551
0.0275616
0.111075
0.0771271
-0.0710178
-0.149564
-0.243372
-0.251435
-0.273227
-0.278279
-0.244183
-0.177922
-0.113367
-0.0871714
-0.0822275
-0.0853572
-0.0886068
-0.0900388
-0.0901691
-0.0911264
-0.0928828
-0.0948705
-0.0958886
-0.093252
-0.0624729
-0.059466
-0.0612946
-0.0643094
-0.0671903
-0.0696686
-0.0725335
-0.0752793
-0.0786972
-0.0758126
-0.0708366
-0.0770532
-0.125712
-0.234264
-0.366136
-0.420816
-0.429504
-0.421492
-0.551274
-0.609001
-0.556508
-0.44578
-0.312523
-0.311882
-0.313933
-0.282066
-0.211639
-0.135661
-0.0961343
-0.0890318
-0.0954041
-0.100858
-0.097429
-0.0956352
-0.0953269
-0.0954105
-0.0941266
-0.0918193
-0.0888092
-0.0877278
-0.0687591
-0.0662147
-0.0667892
-0.0683952
-0.0701061
-0.07147
-0.0732203
-0.0773378
-0.0873555
-0.100495
-0.11481
-0.10661
-0.0532319
-0.0137928
-0.0434923
-0.132927
-0.281
-0.380847
-0.452102
-0.420787
-0.301289
-0.291318
-0.215308
-0.134444
-0.0530647
-0.0114304
-0.0199346
-0.0744742
-0.129094
-0.133742
-0.119923
-0.103451
-0.094724
-0.0903773
-0.0890936
-0.0882653
-0.0875537
-0.0868389
-0.0866545
-0.0877278
-0.0834888
-0.0875828
-0.0854498
-0.0828334
-0.0801239
-0.0784678
-0.0771545
-0.0732349
-0.0721922
-0.0776726
-0.101741
-0.121088
-0.135143
-0.112989
-0.085064
-0.069342
-0.0713782
-0.0948927
-0.067693
-0.0893877
-0.210105
-0.223397
-0.251792
-0.237105
-0.230713
-0.243379
-0.231428
-0.202182
-0.154571
-0.122665
-0.0956712
-0.0890692
-0.089614
-0.090649
-0.0903474
-0.0902971
-0.0914324
-0.0938646
-0.0972111
-0.0966892
-0.0801329
-0.0805999
-0.0827518
-0.0846322
-0.0856713
-0.085985
-0.0870808
-0.084979
-0.0834289
-0.0794947
-0.0735703
-0.0974455
-0.186196
-0.260514
-0.269985
-0.232814
-0.170424
-0.141716
-0.179834
-0.283356
-0.459454
-0.437422
-0.382539
-0.394031
-0.406667
-0.3657
-0.294658
-0.189878
-0.102321
-0.0827797
-0.0935499
-0.100202
-0.104475
-0.101158
-0.100982
-0.0998201
-0.0982213
-0.0953998
-0.0933089
-0.0952457
-0.0770739
-0.0731915
-0.0737065
-0.0756959
-0.0779992
-0.0799505
-0.0835895
-0.0890391
-0.0984944
-0.110732
-0.124532
-0.112758
-0.0780465
-0.088478
-0.119759
-0.16466
-0.22132
-0.238851
-0.257429
-0.238882
-0.180887
-0.182734
-0.135692
-0.0943808
-0.0287799
0.0165858
0.0250746
-0.012115
-0.0877258
-0.117289
-0.118435
-0.111914
-0.104314
-0.101346
-0.101246
-0.100714
-0.0992326
-0.097004
-0.0951179
-0.0951591
-0.0905144
-0.0908145
-0.0880154
-0.0855855
-0.0840971
-0.084099
-0.0846861
-0.0873918
-0.09214
-0.10744
-0.128606
-0.144148
-0.132808
-0.12389
-0.12587
-0.164424
-0.216506
-0.23758
-0.161754
-0.0337179
0.0906381
0.0920169
0.0695144
0.0820133
0.0783583
0.0499792
-0.0123967
-0.077512
-0.112564
-0.111791
-0.105021
-0.0959563
-0.0958857
-0.0984507
-0.100533
-0.101466
-0.103954
-0.106591
-0.108191
-0.104617
-0.096466
-0.0986371
-0.0998129
-0.100377
-0.10052
-0.100856
-0.100998
-0.100608
-0.0993716
-0.0999902
-0.111316
-0.149723
-0.223789
-0.272653
-0.28822
-0.277232
-0.248699
-0.240827
-0.23519
-0.255464
-0.288228
-0.222112
-0.199203
-0.215432
-0.269301
-0.288689
-0.279341
-0.221119
-0.142142
-0.105433
-0.0963012
-0.0987952
-0.102824
-0.104396
-0.103821
-0.10333
-0.102916
-0.102794
-0.102721
-0.102667
-0.092714
-0.0928414
-0.0958168
-0.0988848
-0.101258
-0.102959
-0.105201
-0.109282
-0.114724
-0.11959
-0.120206
-0.11739
-0.11776
-0.129442
-0.140831
-0.158541
-0.185616
-0.224002
-0.292883
-0.368634
-0.483995
-0.466804
-0.41615
-0.374182
-0.296068
-0.240071
-0.189751
-0.139882
-0.126651
-0.125645
-0.119974
-0.116797
-0.112376
-0.107339
-0.103546
-0.100711
-0.0976947
-0.0943978
-0.0924337
-0.0963268
-0.0994588
-0.0986329
-0.0969672
-0.0957479
-0.0953246
-0.0958937
-0.0971931
-0.100558
-0.108517
-0.124027
-0.137396
-0.128809
-0.0970769
-0.0936232
-0.106098
-0.147852
-0.200354
-0.222086
-0.216343
-0.173579
-0.180217
-0.243436
-0.251281
-0.208715
-0.124562
-0.0698898
-0.0490609
-0.0656815
-0.11462
-0.132585
-0.120832
-0.110452
-0.103101
-0.101925
-0.1017
-0.102337
-0.103487
-0.105184
-0.106515
-0.106298
-0.105588
-0.105777
-0.104112
-0.103209
-0.103247
-0.104351
-0.105448
-0.106161
-0.106426
-0.111495
-0.128588
-0.178362
-0.240641
-0.280519
-0.298181
-0.304311
-0.277944
-0.282482
-0.278229
-0.265061
-0.194804
-0.129858
-0.088457
-0.0819484
-0.121448
-0.153087
-0.180177
-0.191053
-0.156669
-0.116411
-0.104742
-0.102891
-0.10456
-0.107444
-0.109441
-0.111419
-0.113769
-0.115456
-0.116358
-0.11202
-0.103686
-0.101814
-0.105043
-0.108616
-0.112558
-0.115481
-0.119781
-0.122115
-0.124349
-0.125347
-0.114937
-0.117001
-0.147367
-0.173886
-0.18719
-0.209799
-0.224499
-0.263355
-0.279536
-0.274009
-0.272427
-0.247753
-0.196683
-0.17049
-0.177943
-0.192311
-0.196531
-0.175104
-0.134704
-0.122487
-0.120203
-0.117549
-0.116525
-0.11366
-0.110543
-0.109682
-0.106788
-0.103259
-0.100456
-0.102994
-0.108421
-0.110302
-0.111194
-0.111745
-0.112469
-0.113204
-0.114204
-0.116751
-0.122242
-0.122736
-0.117655
-0.0790387
-0.0114351
0.0290986
0.0389026
0.0232394
-0.0203064
-0.0298272
-0.0226767
-0.0491834
-0.144422
-0.235187
-0.274319
-0.276537
-0.214817
-0.159936
-0.127221
-0.100475
-0.124774
-0.143338
-0.131786
-0.121294
-0.111649
-0.105773
-0.102169
-0.10045
-0.099862
-0.100313
-0.101676
-0.104018
-0.115441
-0.118696
-0.117653
-0.115856
-0.114079
-0.112872
-0.111043
-0.108569
-0.10895
-0.108228
-0.113863
-0.132771
-0.136499
-0.120831
-0.102324
-0.0807922
-0.0603364
-0.0454737
-0.0443397
-0.0860777
-0.158998
-0.223596
-0.256806
-0.25804
-0.247013
-0.233326
-0.214426
-0.195477
-0.170054
-0.138297
-0.122525
-0.116723
-0.111851
-0.110484
-0.110474
-0.110841
-0.11217
-0.114138
-0.115914
-0.113974
-0.110148
-0.108689
-0.109783
-0.112011
-0.114618
-0.117401
-0.120015
-0.12143
-0.121231
-0.12668
-0.139922
-0.172136
-0.230825
-0.266449
-0.272798
-0.281609
-0.252568
-0.312955
-0.347623
-0.346858
-0.308666
-0.291013
-0.240583
-0.166627
-0.188947
-0.20144
-0.208329
-0.199774
-0.162371
-0.137401
-0.131988
-0.125629
-0.12558
-0.12333
-0.121973
-0.120362
-0.118339
-0.115619
-0.112932
-0.111629
-0.108159
-0.105212
-0.106744
-0.109529
-0.112817
-0.116221
-0.120328
-0.12606
-0.1312
-0.137124
-0.138979
-0.125963
-0.122257
-0.1509
-0.195615
-0.256274
-0.315609
-0.340033
-0.317961
-0.271709
-0.244238
-0.25207
-0.247689
-0.218188
-0.175843
-0.132074
-0.105892
-0.0970102
-0.11051
-0.129883
-0.13232
-0.125878
-0.120684
-0.116089
-0.11354
-0.111958
-0.110571
-0.108783
-0.107109
-0.107551
-0.118764
-0.120929
-0.119559
-0.117614
-0.116057
-0.115661
-0.115133
-0.117017
-0.122295
-0.125062
-0.133134
-0.13311
-0.119033
-0.11908
-0.131169
-0.134142
-0.14979
-0.121217
-0.138103
-0.198564
-0.23426
-0.253842
-0.247539
-0.271112
-0.251323
-0.233025
-0.203133
-0.177847
-0.163109
-0.145267
-0.127006
-0.117671
-0.107413
-0.106151
-0.106253
-0.106093
-0.107626
-0.110311
-0.113133
-0.113116
-0.117696
-0.120596
-0.121558
-0.122454
-0.122882
-0.123213
-0.123123
-0.123753
-0.121135
-0.12724
-0.144437
-0.179414
-0.203076
-0.196367
-0.168974
-0.135213
-0.104254
-0.117199
-0.160993
-0.22074
-0.261464
-0.317531
-0.295473
-0.230507
-0.246645
-0.251045
-0.24898
-0.227312
-0.186276
-0.14541
-0.128343
-0.121937
-0.11937
-0.118156
-0.116588
-0.114437
-0.112825
-0.111678
-0.111465
-0.112038
-0.109157
-0.106525
-0.10857
-0.111695
-0.115041
-0.118606
-0.122912
-0.12797
-0.131749
-0.141355
-0.146372
-0.151542
-0.169216
-0.192985
-0.216577
-0.243824
-0.263364
-0.257228
-0.220192
-0.18711
-0.15676
-0.15432
-0.159201
-0.12582
-0.104707
-0.0861609
-0.0801584
-0.0824602
-0.0958488
-0.119046
-0.130672
-0.12965
-0.127084
-0.123099
-0.119885
-0.116819
-0.113965
-0.110586
-0.107917
-0.108651
-0.112945
-0.112032
-0.110412
-0.109241
-0.109135
-0.110618
-0.11459
-0.120409
-0.131467
-0.138275
-0.146823
-0.156426
-0.169569
-0.203324
-0.252882
-0.297559
-0.334235
-0.280655
-0.221074
-0.16578
-0.101237
-0.0659813
-0.0531553
-0.0662748
-0.0497722
-0.0449479
-0.0436683
-0.0598713
-0.0900401
-0.106569
-0.111807
-0.115575
-0.112816
-0.112589
-0.112454
-0.113545
-0.114799
-0.115766
-0.115836
-0.112938
-0.11733
-0.119021
-0.119105
-0.119182
-0.119339
-0.120382
-0.122631
-0.126301
-0.133791
-0.144543
-0.165413
-0.192759
-0.219497
-0.231322
-0.230699
-0.214113
-0.20382
-0.217837
-0.241313
-0.243099
-0.241966
-0.231561
-0.195273
-0.166962
-0.177609
-0.19628
-0.204402
-0.195888
-0.168261
-0.135811
-0.119004
-0.112337
-0.110239
-0.111629
-0.111891
-0.11218
-0.112708
-0.113464
-0.114013
-0.112627
-0.111277
-0.112228
-0.114908
-0.11813
-0.121368
-0.124541
-0.128325
-0.132347
-0.13655
-0.144179
-0.150669
-0.149117
-0.154364
-0.155206
-0.156335
-0.1701
-0.18636
-0.226729
-0.245208
-0.254276
-0.272865
-0.334925
-0.34069
-0.31333
-0.280523
-0.242933
-0.217477
-0.190294
-0.162999
-0.143688
-0.13509
-0.125353
-0.122845
-0.118403
-0.113813
-0.109739
-0.105869
-0.102962
-0.101591
-0.104404
-0.10786
-0.107652
-0.108165
-0.1089
-0.109991
-0.111636
-0.114015
-0.118868
-0.12502
-0.128357
-0.127776
-0.127398
-0.139706
-0.169841
-0.208721
-0.248618
-0.272208
-0.247098
-0.226035
-0.225174
-0.219341
-0.229679
-0.235689
-0.233587
-0.209316
-0.171288
-0.135615
-0.113027
-0.111682
-0.117797
-0.124068
-0.122734
-0.118333
-0.112834
-0.109252
-0.107232
-0.105637
-0.104342
-0.103597
-0.104768
-0.108975
-0.108924
-0.10731
-0.10586
-0.105496
-0.10572
-0.106978
-0.110656
-0.118978
-0.130432
-0.153014
-0.18683
-0.217299
-0.240872
-0.25805
-0.259873
-0.261334
-0.263585
-0.271377
-0.271677
-0.242161
-0.200191
-0.122543
-0.0940084
-0.0990876
-0.119933
-0.134752
-0.143087
-0.143159
-0.13171
-0.118659
-0.113793
-0.109546
-0.107969
-0.108413
-0.109609
-0.111073
-0.112829
-0.113571
-0.110099
-0.103864
-0.10334
-0.104646
-0.106977
-0.109389
-0.112964
-0.116046
-0.118726
-0.124377
-0.132406
-0.142577
-0.155741
-0.16728
-0.17408
-0.182576
-0.187924
-0.205384
-0.232507
-0.2423
-0.219561
-0.227898
-0.228774
-0.197207
-0.174209
-0.163305
-0.164635
-0.166719
-0.165492
-0.154182
-0.136339
-0.125225
-0.117304
-0.113805
-0.111895
-0.110888
-0.108916
-0.106664
-0.104515
-0.102784
-0.101966
-0.0984377
-0.0992904
-0.101292
-0.103693
-0.105932
-0.108375
-0.111182
-0.113671
-0.114233
-0.110829
-0.100234
-0.079587
-0.0669277
-0.0669178
-0.082666
-0.111598
-0.12698
-0.133113
-0.141347
-0.167184
-0.200649
-0.244888
-0.298232
-0.312698
-0.289583
-0.238684
-0.192269
-0.156873
-0.130023
-0.121678
-0.12097
-0.114723
-0.109424
-0.103232
-0.0993182
-0.0961805
-0.0937087
-0.0920487
-0.0916061
-0.0937148
-0.0973087
-0.0995636
-0.0996223
-0.0989881
-0.0977675
-0.0967767
-0.096422
-0.0964053
-0.0957381
-0.0954885
-0.100066
-0.10516
-0.109044
-0.118981
-0.128916
-0.137125
-0.141871
-0.149412
-0.18249
-0.212621
-0.242053
-0.255406
-0.253583
-0.249996
-0.242759
-0.228165
-0.207865
-0.180314
-0.154362
-0.134239
-0.117493
-0.107698
-0.102174
-0.0968145
-0.0943185
-0.0933659
-0.0937793
-0.0948982
-0.0960242
-0.0959046
-0.0913997
-0.091252
-0.0910893
-0.0910882
-0.091563
-0.0921892
-0.0931824
-0.0942106
-0.0990443
-0.111068
-0.129752
-0.158931
-0.181602
-0.196278
-0.217819
-0.227807
-0.270027
-0.301382
-0.317291
-0.306938
-0.292013
-0.270311
-0.219757
-0.155643
-0.125343
-0.13189
-0.140412
-0.149855
-0.150926
-0.137906
-0.123029
-0.112518
-0.105722
-0.102698
-0.100486
-0.0987458
-0.0975165
-0.0965652
-0.0957327
-0.0942205
-0.0817732
-0.0797079
-0.0805209
-0.0827499
-0.0859342
-0.0892004
-0.0933093
-0.0971503
-0.102087
-0.109541
-0.112517
-0.122466
-0.143095
-0.175653
-0.225139
-0.275221
-0.317892
-0.325734
-0.30637
-0.298355
-0.287911
-0.268342
-0.26399
-0.238101
-0.206774
-0.162905
-0.125708
-0.104228
-0.0972593
-0.100838
-0.105579
-0.103858
-0.100794
-0.0978358
-0.0949488
-0.092356
-0.0896785
-0.0872175
-0.0852373
-0.0848245
-0.0791578
-0.0791098
-0.0795768
-0.0800029
-0.0805989
-0.0819424
-0.0838661
-0.0871026
-0.0881736
-0.0887276
-0.0900914
-0.0921431
-0.105074
-0.125512
-0.14815
-0.176558
-0.176977
-0.215396
-0.26496
-0.300663
-0.314774
-0.312979
-0.293853
-0.275365
-0.269428
-0.233223
-0.203314
-0.165536
-0.129766
-0.108833
-0.0944424
-0.0887768
-0.0850292
-0.0816816
-0.0798693
-0.0788055
-0.0784572
-0.0782894
-0.0785129
-0.0792935
-0.0776228
-0.0803091
-0.0802453
-0.0793317
-0.0784042
-0.0777704
-0.0771552
-0.0784494
-0.08091
-0.0860226
-0.0991929
-0.109237
-0.108977
-0.104099
-0.108824
-0.112711
-0.148371
-0.197068
-0.25379
-0.286314
-0.301037
-0.30815
-0.286847
-0.255136
-0.202614
-0.193987
-0.187445
-0.177328
-0.157075
-0.130923
-0.105426
-0.0902963
-0.0819844
-0.0780557
-0.0767235
-0.075358
-0.0750198
-0.0756708
-0.0767721
-0.076068
-0.0670702
-0.0667455
-0.067819
-0.069323
-0.0711543
-0.0730553
-0.0739293
-0.0747436
-0.0796388
-0.0860048
-0.0885022
-0.0994423
-0.113948
-0.137764
-0.179128
-0.21717
-0.263096
-0.281824
-0.268518