/*--------------------------------*- C++ -*----------------------------------*\
| =========                 |                                                 |
| \\      /  F ield         | OpenFOAM: The Open Source CFD Toolbox           |
|  \\    /   O peration     | Version:  v2106                                 |
|   \\  /    A nd           | Website:  www.openfoam.com                      |
|    \\/     M anipulation  |                                                 |
\*---------------------------------------------------------------------------*/
FoamFile
{
    version     2.0;
    format      ascii;
    arch        "LSB;label=32;scalar=64";
    class       volVectorField;
    location    "0";
    object      U;
}
// * * * * * * * * * * * * * * * * * * * * * * * * * * * * * * * * * * * * * //

dimensions      [0 1 -1 0 0 0 0];

internalField   nonuniform List<vector> 
11644
(
(-0.00672439 -7.73229e-05 -1.0305e-21)
(-0.0067437 -0.000224988 -2.84183e-21)
(-0.00674433 -0.000337934 -1.52471e-21)
(-0.00671102 -0.000460893 0)
(-0.00670746 -0.000611632 0)
(-0.00672898 -0.000783154 0)
(-0.00675409 -0.000927512 0)
(-0.00673977 -0.00102136 0)
(-0.00676173 -0.00106091 0)
(-0.00676331 -0.00100636 0)
(-0.00685705 -0.000863936 0)
(-0.0069893 -0.000609068 0)
(-0.00686554 -0.000231378 0)
(-0.00729241 0.000241953 0)
(-0.00738578 0.000741938 0)
(-0.00693924 0.00101741 0)
(-0.00706363 0.00128585 0)
(-0.00692584 0.00144848 0)
(-0.00679749 0.00130951 0)
(-0.00704278 0.00113276 2.74037e-30)
(-0.00736698 0.00110625 -2.72858e-30)
(-0.00715222 0.00120287 0)
(-0.00669538 0.000998693 0)
(-0.00662011 0.000523511 0)
(-0.00679469 0.0002466 0)
(-0.00717436 0.00013954 0)
(-0.0074708 0.000166707 0)
(-0.00700364 0.000352964 0)
(-0.00692163 0.000444906 0)
(-0.00680554 0.000495838 0)
(-0.00678242 0.000503061 0)
(-0.00673133 0.00047421 0)
(-0.00674872 0.000440079 0)
(-0.00675931 0.000383928 0)
(-0.0067535 0.000313722 0)
(-0.00675336 0.000247452 0)
(-0.00674144 0.000173652 0)
(-0.00671995 0.000115561 0)
(-0.00672447 5.8597e-05 0)
(-0.00676281 1.74054e-05 -1.99804e-22)
(-0.00647572 -0.000207539 -1.32368e-21)
(-0.00647745 -0.000513456 -1.22615e-21)
(-0.00648413 -0.000888809 -6.58525e-22)
(-0.0064453 -0.00122646 0)
(-0.00642738 -0.00157048 0)
(-0.00638014 -0.00191365 0)
(-0.00632904 -0.00223865 0)
(-0.006308 -0.00249903 0)
(-0.00627451 -0.00260427 0)
(-0.00630015 -0.00254142 0)
(-0.00631436 -0.00221168 0)
(-0.0062668 -0.00155034 0)
(-0.00660277 -0.00072975 0)
(-0.00643083 0.000507461 0)
(-0.00649498 0.00162108 0)
(-0.00724992 0.00273238 -3.86836e-23)
(-0.00743905 0.0035546 -8.49594e-23)
(-0.00764664 0.00419233 9.97357e-22)
(-0.00787633 0.00472229 -9.73652e-22)
(-0.00766842 0.0046464 1.68416e-20)
(-0.0074061 0.00390791 -2.01815e-20)
(-0.00710813 0.00312005 6.01943e-21)
(-0.00683403 0.0025528 -2.72313e-21)
(-0.00662836 0.00216732 3.83013e-23)
(-0.00650436 0.0016562 5.06893e-23)
(-0.00595316 0.00144994 0)
(-0.00545861 0.00136839 0)
(-0.00584753 0.00130668 0)
(-0.00587987 0.00130017 0)
(-0.00600775 0.00128024 0)
(-0.00611518 0.0011954 0)
(-0.00626093 0.0010888 0)
(-0.00634175 0.000928847 0)
(-0.00642285 0.000756471 0)
(-0.00650185 0.00058822 0)
(-0.00653031 0.000420211 0)
(-0.00658764 0.000288392 0)
(-0.00659716 0.000186912 0)
(-0.00664555 0.000126461 0)
(-0.0067002 7.16606e-05 0)
(-0.0061554 -9.3371e-05 0)
(-0.0061189 -0.000651329 0)
(-0.00601041 -0.00115767 0)
(-0.00591091 -0.00173193 0)
(-0.00585614 -0.00233128 -1.20915e-21)
(-0.00575371 -0.00291627 0)
(-0.005615 -0.00345476 0)
(-0.00543936 -0.0038485 0)
(-0.0053277 -0.00405801 0)
(-0.00522742 -0.00393251 0)
(-0.00536116 -0.00344655 0)
(-0.00589174 -0.00261027 0)
(-0.0061462 -0.00113917 -7.71031e-24)
(-0.0073244 0.000669953 -8.64054e-23)
(-0.00836848 0.00308502 1.75794e-21)
(-0.00840001 0.00536229 -2.1976e-20)
(-0.00930085 0.00723181 2.40761e-20)
(-0.00992419 0.00842081 -1.37767e-20)
(-0.00962223 0.00873479 6.34709e-21)
(-0.00872146 0.00876456 1.82311e-20)
(-0.00774111 0.00838401 -2.66673e-20)
(-0.00677829 0.00722823 9.67007e-21)
(-0.00629292 0.00587976 7.41624e-21)
(-0.00593777 0.00478367 7.71133e-21)
(-0.00544673 0.00417574 -1.02212e-20)
(-0.00504228 0.003708 -1.63783e-21)
(-0.00481764 0.00320976 -7.6274e-22)
(-0.00406861 0.00305196 1.29136e-24)
(-0.00404991 0.00273539 0)
(-0.00422579 0.00240784 0)
(-0.00461683 0.00209975 0)
(-0.005011 0.00177485 0)
(-0.00541371 0.00148085 0)
(-0.00578069 0.00118879 0)
(-0.00605689 0.000901877 0)
(-0.00629406 0.000655112 0)
(-0.00646997 0.000453967 0)
(-0.00657608 0.000291536 0)
(-0.00665687 0.000121264 0)
(-0.00673544 -2.97286e-05 0)
(-0.00578716 -0.000530057 0)
(-0.00575341 -0.000990164 0)
(-0.00567409 -0.00175005 0)
(-0.00555209 -0.00246776 0)
(-0.00538742 -0.00314966 0)
(-0.00514918 -0.0038235 0)
(-0.0048321 -0.00446079 0)
(-0.00451977 -0.00498554 0)
(-0.00423072 -0.00525959 0)
(-0.004165 -0.0052393 0)
(-0.00431332 -0.00472389 -3.31419e-23)
(-0.00463651 -0.00338184 -3.20516e-21)
(-0.00579884 -0.00165741 6.47043e-21)
(-0.00696211 0.0012596 5.83413e-21)
(-0.00830598 0.00467988 8.26487e-21)
(-0.0107649 0.00836764 -1.76268e-20)
(-0.0112824 0.0111196 -2.07511e-20)
(-0.0116962 0.0123869 3.68192e-20)
(-0.012004 0.0137973 -1.1926e-20)
(-0.0107092 0.0146395 -1.68233e-20)
(-0.00874839 0.0137319 6.3614e-21)
(-0.00696335 0.0123269 2.1454e-20)
(-0.00559852 0.0109366 -3.74649e-20)
(-0.00380178 0.00980411 5.04451e-20)
(-0.00279806 0.00836317 -8.10055e-21)
(-0.00139396 0.00752324 -9.39856e-21)
(-0.000348191 0.00660003 -5.37841e-21)
(-0.000893514 0.00540816 -4.3196e-21)
(-0.00111495 0.00432134 -5.70937e-22)
(-0.00182675 0.00351833 3.89788e-23)
(-0.00261309 0.00287145 0)
(-0.00349807 0.00233901 0)
(-0.00429798 0.00185227 0)
(-0.00503878 0.00142852 0)
(-0.00563004 0.00106429 0)
(-0.00610415 0.0007609 0)
(-0.00643002 0.000497925 0)
(-0.0066118 0.000263767 0)
(-0.00675653 0.000114589 0)
(-0.00686854 0.000102558 0)
(-0.00522969 2.65859e-05 0)
(-0.00524103 -0.00106026 0)
(-0.00519183 -0.00196782 0)
(-0.00507425 -0.00285481 0)
(-0.00491213 -0.00375107 0)
(-0.00462992 -0.00460225 0)
(-0.004251 -0.00537391 0)
(-0.00385866 -0.00603148 0)
(-0.00359822 -0.0065318 0)
(-0.00353965 -0.00669416 -9.88091e-23)
(-0.00408734 -0.00626835 -3.28653e-21)
(-0.00569474 -0.00512628 8.88324e-21)
(-0.00732843 -0.00243532 -3.42066e-20)
(-0.0101188 0.000986427 1.00296e-19)
(-0.013081 0.0058037 -2.64502e-20)
(-0.0140267 0.011558 -2.06936e-20)
(-0.014646 0.0146572 2.33094e-20)
(-0.0161661 0.0166798 5.58261e-21)
(-0.0158101 0.0189599 -1.19186e-19)
(-0.0138238 0.0203415 -2.61584e-20)
(-0.0105146 0.0206689 3.42768e-20)
(-0.00747875 0.0190437 1.30118e-19)
(-0.00475224 0.0172465 -2.05386e-20)
(-0.0014599 0.0153341 -1.86876e-20)
(0.0010107 0.0134507 1.76039e-20)
(0.00192736 0.0122692 3.04989e-20)
(0.00251393 0.0104491 -1.07775e-19)
(0.00324488 0.00838429 3.70555e-20)
(0.00228131 0.00627542 -1.53872e-20)
(0.00092895 0.00442233 5.04013e-21)
(-0.000539046 0.00318772 -4.12237e-22)
(-0.00193116 0.00236455 0)
(-0.00325219 0.00173415 0)
(-0.00442496 0.00123734 0)
(-0.00534183 0.000834859 0)
(-0.00604069 0.000535903 0)
(-0.00652969 0.000337513 0)
(-0.00680901 0.000186627 0)
(-0.00698519 1.6299e-05 0)
(-0.00707855 -0.000135855 0)
(-0.00469865 -0.00101362 0)
(-0.00470241 -0.00166364 0)
(-0.00473331 -0.00257629 0)
(-0.00470996 -0.00355 0)
(-0.00459624 -0.00446719 0)
(-0.00436687 -0.00539203 0)
(-0.00405762 -0.00632859 0)
(-0.00376027 -0.00726373 0)
(-0.0036405 -0.00806347 -3.39902e-22)
(-0.00402879 -0.00840294 -4.67984e-22)
(-0.0053669 -0.00771289 -2.00421e-21)
(-0.00719744 -0.00537108 -2.11417e-21)
(-0.00947538 -0.00266415 4.16578e-20)
(-0.0123348 0.00131508 -4.32762e-20)
(-0.0141515 0.00695133 2.79867e-20)
(-0.0182539 0.0135716 -7.45183e-20)
(-0.0203571 0.01681 -1.04558e-20)
(-0.0192262 0.0190204 9.42857e-20)
(-0.0183925 0.0234187 -2.95805e-20)
(-0.0160591 0.026287 -5.03307e-20)
(-0.011585 0.0253334 7.39549e-20)
(-0.00753942 0.024733 4.99288e-20)
(-0.00278068 0.0251085 -1.44278e-19)
(0.00227946 0.0230688 7.93187e-20)
(0.0057713 0.0194551 2.08825e-20)
(0.00796818 0.0171404 -3.24278e-20)
(0.00973648 0.0150143 3.89038e-20)
(0.00805437 0.0119467 -1.45455e-20)
(0.00647379 0.00819122 -1.48021e-20)
(0.00393536 0.00530578 -5.40172e-21)
(0.00122333 0.00314438 -3.31595e-21)
(-0.00104453 0.00184434 1.14922e-21)
(-0.00287324 0.00112459 0)
(-0.00442028 0.000673895 0)
(-0.00561644 0.000439833 0)
(-0.00646469 0.000319162 0)
(-0.00700503 0.000258736 0)
(-0.00730034 0.000180491 0)
(-0.00743288 8.82934e-05 0)
(-0.00751057 0.00017919 0)
(-0.00403263 -7.33668e-05 0)
(-0.004139 -0.00184871 0)
(-0.00420573 -0.00335447 0)
(-0.00428402 -0.0044923 0)
(-0.00435105 -0.00558498 0)
(-0.00432976 -0.00666569 0)
(-0.00425898 -0.00778095 0)
(-0.00422478 -0.00896705 -6.578e-23)
(-0.00477997 -0.00982501 -2.4625e-22)
(-0.00624755 -0.00979546 -2.20448e-21)
(-0.00855425 -0.00872373 1.70726e-20)
(-0.0115457 -0.00675734 -1.38296e-20)
(-0.0148694 -0.00295273 -3.88304e-21)
(-0.0175911 0.00154282 8.16968e-22)
(-0.0203024 0.00514677 -1.12665e-21)
(-0.0226296 0.0111787 5.03041e-21)
(-0.0238538 0.0171002 -6.95287e-20)
(-0.0212614 0.0211134 -7.45458e-20)
(-0.0188179 0.0247804 -6.31778e-20)
(-0.015735 0.027375 -9.98285e-20)
(-0.0109079 0.0285816 -1.40276e-19)
(-0.00659129 0.028126 -1.73365e-21)
(-0.00195331 0.028935 -5.40079e-20)
(0.00335116 0.0275421 -9.33818e-20)
(0.0112318 0.0247384 -2.27919e-20)
(0.0141931 0.0230687 2.07583e-20)
(0.0133022 0.0193706 -2.77375e-20)
(0.0132196 0.0146554 -5.378e-23)
(0.0105182 0.0100093 3.60376e-21)
(0.00692001 0.00594979 1.63174e-20)
(0.00267571 0.00278995 -6.76349e-21)
(-0.000868228 0.000855974 3.1385e-21)
(-0.00345365 -3.62129e-05 -5.65788e-23)
(-0.00520637 -0.000266699 0)
(-0.00642943 -0.000346935 0)
(-0.00728605 -0.00030714 0)
(-0.00778063 -0.000240338 0)
(-0.00804686 -0.00012092 0)
(-0.00820905 -7.46915e-05 0)
(-0.00825863 -0.000317948 0)
(-0.00338487 -0.00140723 0)
(-0.00354811 -0.00262445 0)
(-0.00378716 -0.00397765 0)
(-0.00403148 -0.00547275 0)
(-0.00427156 -0.00692278 0)
(-0.00449088 -0.00832383 0)
(-0.00469079 -0.00978998 0)
(-0.00532831 -0.0112177 8.5708e-22)
(-0.00746486 -0.0118539 -3.14709e-21)
(-0.0105402 -0.0112418 5.32027e-22)
(-0.0141707 -0.00939119 -5.50873e-21)
(-0.0178014 -0.00644701 2.71105e-20)
(-0.0204451 -0.00215771 9.69098e-21)
(-0.023561 0.000450818 2.4347e-20)
(-0.0247305 0.00542716 -4.07588e-20)
(-0.0230583 0.0117198 -1.10713e-20)
(-0.0232207 0.0157896 4.95017e-20)
(-0.0226315 0.0229205 -1.02049e-19)
(-0.0204057 0.0261865 -1.26494e-19)
(-0.0160122 0.0290327 4.07091e-20)
(-0.00938763 0.0306397 2.51719e-20)
(-0.00534407 0.0307469 1.38586e-19)
(-0.000895242 0.0320011 -1.11208e-20)
(0.00451542 0.0313495 -9.07931e-20)
(0.0106735 0.0309311 8.23885e-20)
(0.0177223 0.0265204 -7.12663e-20)
(0.0182353 0.0198151 1.18783e-20)
(0.018077 0.0170546 1.09358e-21)
(0.0138495 0.0120097 4.44239e-22)
(0.00935029 0.00727975 1.56014e-21)
(0.00364666 0.00269407 7.04052e-21)
(-0.00128203 -0.000170504 -1.37529e-21)
(-0.00501458 -0.00121985 -3.62283e-21)
(-0.00705776 -0.00114526 0)
(-0.00820043 -0.000716793 0)
(-0.0089269 -0.000306289 0)
(-0.00934079 8.50262e-05 0)
(-0.00949063 0.00027811 0)
(-0.00951499 0.000253398 0)
(-0.00949276 0.000563662 0)
(-0.00260114 -0.00061559 0)
(-0.00281678 -0.00332132 0)
(-0.00313671 -0.00543695 0)
(-0.00352517 -0.00719687 0)
(-0.0039772 -0.00885378 0)
(-0.00444238 -0.0106498 0)
(-0.00500816 -0.0125558 7.74759e-23)
(-0.00705311 -0.0140801 -1.34851e-21)
(-0.0115367 -0.0141306 -1.81e-21)
(-0.0167362 -0.0126616 -8.85965e-22)
(-0.0222429 -0.0102788 -8.96407e-22)
(-0.0273358 -0.0067172 -5.38356e-21)
(-0.0316062 -0.00578662 3.55128e-21)
(-0.032937 -0.0023782 3.17011e-20)
(-0.0327647 0.00649567 -1.42491e-20)
(-0.0341917 0.0126636 3.10407e-20)
(-0.0292817 0.014992 1.78899e-20)
(-0.026783 0.0197782 -6.44976e-21)
(-0.0229783 0.0259455 -2.84972e-20)
(-0.0177765 0.027652 -4.07534e-21)
(-0.0116376 0.0290863 5.03781e-20)
(-0.00845995 0.0299056 1.14103e-19)
(-0.00346654 0.03232 -2.71531e-20)
(-6.44574e-05 0.0341478 4.71699e-20)
(0.0100754 0.03402 4.04343e-20)
(0.010213 0.0314922 3.58825e-21)
(0.0174682 0.0244229 1.77686e-20)
(0.0185614 0.0209237 -5.59495e-21)
(0.0162664 0.0130162 -2.62564e-21)
(0.0111931 0.00817574 -1.22707e-21)
(0.00423795 0.0032322 1.42585e-20)
(-0.0020033 -0.00031483 -4.68872e-21)
(-0.00704985 -0.00195696 -1.76877e-21)
(-0.00981869 -0.00173267 -4.25177e-22)
(-0.0107573 -0.00108202 0)
(-0.0112431 -0.000606865 0)
(-0.0114294 -0.000209127 0)
(-0.0113978 9.52738e-05 0)
(-0.0112769 0.00017497 0)
(-0.0111393 -0.000689528 0)
(-0.00149792 -0.00192533 0)
(-0.001894 -0.00416534 0)
(-0.00217001 -0.00668766 0)
(-0.00258327 -0.00898726 0)
(-0.00307355 -0.0112578 0)
(-0.00370022 -0.0134975 0)
(-0.00485271 -0.0158642 3.12907e-22)
(-0.00899824 -0.0174948 -3.30952e-21)
(-0.0161968 -0.0171766 2.03574e-22)
(-0.0238437 -0.0153078 2.83981e-21)
(-0.0314035 -0.012156 7.88123e-22)
(-0.037613 -0.00866333 -2.25241e-21)
(-0.0408413 -0.00790466 1.08673e-21)
(-0.0406151 -0.0017674 4.09799e-21)
(-0.041052 0.00554896 4.32642e-22)
(-0.0411143 0.00839604 5.58161e-21)
(-0.0368915 0.0161676 -1.64586e-20)
(-0.0301901 0.0211227 2.03934e-20)
(-0.0222388 0.0243726 -1.3221e-20)
(-0.016864 0.0250914 4.33548e-20)
(-0.0118351 0.0231495 -9.00906e-21)
(-0.0120487 0.0236785 1.15484e-20)
(-0.0118304 0.0271557 -2.72335e-20)
(-0.00833967 0.0321375 3.11103e-21)
(-0.000740367 0.0352537 4.78621e-21)
(0.00738721 0.0366183 6.49155e-20)
(0.016094 0.0314226 -1.20028e-20)
(0.0193198 0.0286722 2.84092e-21)
(0.017328 0.0183775 -3.53257e-21)
(0.0126683 0.0110069 5.38146e-21)
(0.00507408 0.0048041 -4.16587e-21)
(-0.00228154 0.000781047 2.37735e-25)
(-0.0087709 -0.0014082 5.80567e-23)
(-0.0128287 -0.00161005 7.79909e-22)
(-0.0136423 -0.000648161 0)
(-0.0137751 0.00014654 0)
(-0.0137399 0.000654219 0)
(-0.013624 0.000968776 0)
(-0.0134849 0.000897458 0)
(-0.0132388 0.00140716 0)
(-0.000315812 -0.00131504 0)
(-0.000579484 -0.00516489 0)
(-0.000991699 -0.00791179 0)
(-0.00151483 -0.0104898 0)
(-0.00188102 -0.0132359 0)
(-0.00224529 -0.0162765 0)
(-0.00396075 -0.0194291 7.74284e-23)
(-0.0105796 -0.021164 -8.45584e-22)
(-0.0203041 -0.0207354 -1.26249e-21)
(-0.0301225 -0.0187964 -6.30347e-22)
(-0.0397837 -0.0149846 2.26364e-21)
(-0.0481235 -0.00938444 -1.98024e-21)
(-0.0520272 -0.00497953 8.21623e-22)
(-0.0478923 -0.00131316 1.71709e-21)
(-0.0500489 0.00419661 7.49339e-21)
(-0.0436797 0.0112514 6.25825e-21)
(-0.0391385 0.0162941 1.80628e-21)
(-0.0332667 0.0237874 -2.91416e-21)
(-0.0235049 0.0289127 2.15108e-21)
(-0.00988191 0.0270184 -1.75388e-20)
(-0.00451718 0.0139879 -5.37144e-20)
(-0.0155465 0.00802561 1.163e-19)
(-0.0258291 0.0173257 -3.81605e-22)
(-0.0225233 0.0309015 2.55505e-21)
(-0.00974701 0.0415999 3.26573e-22)
(0.00442263 0.0466651 -3.3643e-21)
(0.0143206 0.0377044 5.27268e-21)
(0.0218092 0.0335905 -4.6769e-21)
(0.0198776 0.023517 2.45078e-21)
(0.0154693 0.0155724 2.09996e-21)
(0.00774808 0.00899596 -3.26232e-22)
(-0.00107174 0.00377336 -8.42019e-22)
(-0.00949298 0.000412728 3.5479e-22)
(-0.0153467 -0.000407834 -1.60153e-23)
(-0.016835 0.000205621 0)
(-0.016843 0.000861093 0)
(-0.0167116 0.00129712 0)
(-0.0164092 0.00157042 0)
(-0.0161482 0.00140932 0)
(-0.0158665 -0.000615862 0)
(0.00140596 -0.00265395 0)
(0.00169724 -0.0061271 0)
(0.00182438 -0.00950731 0)
(0.00210321 -0.0127632 0)
(0.00200123 -0.015837 0)
(0.00174449 -0.0192856 0)
(-0.00126384 -0.0228753 -2.20892e-23)
(-0.0102751 -0.0248824 -2.34311e-22)
(-0.0226068 -0.0244379 -5.15041e-22)
(-0.03449 -0.0223853 -1.6568e-22)
(-0.0448542 -0.0190373 -1.21283e-21)
(-0.0542638 -0.0128636 -2.26039e-21)
(-0.0590196 -0.0074465 5.33397e-21)
(-0.0569413 -0.00401666 2.36119e-21)
(-0.05779 0.00320007 -4.41362e-21)
(-0.0527423 0.00705103 -1.15452e-21)
(-0.0486182 0.0139423 1.04235e-21)
(-0.0442231 0.0221937 -1.7521e-21)
(-0.047415 0.0482526 4.24201e-20)
(-0.0586618 0.00502908 -5.48735e-20)
(-0.0469878 0.038683 2.09809e-21)
(-0.0229475 0.0508936 -1.89629e-21)
(-0.000187722 0.0520039 -2.06308e-21)
(0.0138825 0.0495958 -1.60786e-21)
(0.0279731 0.0385399 -2.87052e-21)
(0.0268493 0.0291727 7.30386e-22)
(0.0224964 0.0219375 1.04453e-21)
(0.013492 0.0141826 4.50259e-22)
(0.00273678 0.00763135 5.27102e-22)
(-0.00807149 0.0033018 1.29971e-22)
(-0.0165105 0.00152256 -2.65701e-23)
(-0.0186941 0.00168895 0)
(-0.0185959 0.00198101 0)
(-0.0185302 0.00206652 0)
(-0.0186376 0.00190453 0)
(-0.0187482 0.00173871 0)
(-0.0187073 0.00183947 0)
(0.003922 -0.00148173 0)
(0.00453956 -0.00570006 0)
(0.0053266 -0.00937901 0)
(0.0057671 -0.0128983 0)
(0.0062761 -0.0168192 0)
(0.00665073 -0.0210842 0)
(0.00339435 -0.0253278 9.2446e-23)
(-0.00764367 -0.0276837 -2.42676e-22)
(-0.0213892 -0.0278662 -2.41329e-22)
(-0.0351426 -0.0260591 -1.0137e-21)
(-0.0468364 -0.023729 2.83589e-21)
(-0.0573407 -0.0184119 -2.27247e-22)
(-0.0605706 -0.0127693 -7.39405e-21)
(-0.0591937 -0.0085609 5.11785e-21)
(-0.0583173 -0.00111266 -5.35703e-20)
(-0.0539711 0.00270571 5.68927e-22)
(-0.051047 0.00517606 -5.40629e-21)
(-0.0558897 0.00679998 -1.8699e-21)
(-0.000277123 0.0280728 -2.46181e-18)
(-0.0205 0.0312222 -6.42119e-20)
(-0.0692805 0.0739292 -7.87546e-22)
(-0.0243988 0.0761899 1.19559e-21)
(0.00901046 0.0662908 -2.06966e-20)
(0.0258284 0.0607707 -3.8721e-20)
(0.0404231 0.0443896 -6.37628e-21)
(0.0397282 0.0346739 1.7066e-21)
(0.0346455 0.0269291 1.78446e-21)
(0.0236968 0.018535 -8.60734e-22)
(0.00989169 0.0115485 2.07823e-22)
(-0.00407931 0.00656098 1.30816e-22)
(-0.015491 0.00396667 -2.19004e-22)
(-0.0195971 0.00339641 0)
(-0.0194724 0.0031416 0)
(-0.0192061 0.0028503 0)
(-0.019081 0.00282517 0)
(-0.0196385 0.00242899 0)
(-0.020962 0.00041307 0)
(0.00761147 -0.0021021 2.18359e-23)
(0.00922606 -0.00546216 0)
(0.0106048 -0.0097088 0)
(0.0122193 -0.0137 0)
(0.0139826 -0.0176769 0)
(0.0153734 -0.0219347 0)
(0.0114036 -0.0264532 4.62002e-22)
(-0.00126572 -0.0291375 8.26053e-22)
(-0.0163459 -0.0305256 -3.25706e-21)
(-0.0306082 -0.0299257 -7.74921e-22)
(-0.0417818 -0.0290994 -7.73592e-21)
(-0.0507405 -0.0244192 1.43184e-20)
(-0.0551822 -0.0174876 8.04321e-22)
(-0.0549163 -0.0131947 -2.8874e-20)
(-0.055042 -0.00835628 -3.5862e-20)
(-0.0521051 -0.00560103 9.72724e-22)
(-0.0482462 -0.00477258 -3.12505e-20)
(-0.0885652 0.000207084 3.88069e-21)
(-0.0268834 0.0362432 9.43505e-20)
(-0.127703 0.0812594 -1.91138e-20)
(-0.0691341 0.129269 -6.3945e-21)
(-0.00437999 0.108369 2.60104e-20)
(0.0353237 0.0822165 -2.13384e-20)
(0.0512803 0.065964 1.97467e-21)
(0.06457 0.0451027 -5.90874e-21)
(0.0599732 0.0384943 1.06934e-20)
(0.0511593 0.0302542 9.88979e-21)
(0.0364451 0.0211661 1.10898e-21)
(0.0203255 0.0144217 5.69381e-22)
(0.0031027 0.009622 -8.25337e-22)
(-0.0118381 0.00663308 5.38837e-22)
(-0.0173159 0.00528237 0)
(-0.0180297 0.00435226 0)
(-0.0186706 0.00317463 0)
(-0.0197083 0.0017668 0)
(-0.021033 -4.50042e-05 0)
(-0.0228511 2.34324e-05 0)
(0.0178121 -0.000657558 -2.0161e-24)
(0.0180648 -0.00342644 0)
(0.0196554 -0.00798763 0)
(0.0217875 -0.0124072 0)
(0.0240964 -0.0168521 0)
(0.02604 -0.0212092 0)
(0.0226401 -0.0255281 -1.23274e-22)
(0.00913777 -0.028253 -1.16857e-21)
(-0.00657129 -0.0311583 5.65058e-21)
(-0.020583 -0.0318925 -9.58483e-21)
(-0.0320276 -0.0323158 9.23275e-21)
(-0.040838 -0.0298783 1.1749e-20)
(-0.0474308 -0.0247354 -8.10312e-21)
(-0.052257 -0.0230737 2.08371e-20)
(-0.0568686 -0.0212955 5.41524e-21)
(-0.0570448 -0.0162172 1.02273e-20)
(-0.0525568 -0.00688133 1.48089e-20)
(-0.128324 0.0190221 3.579e-20)
(-0.104524 0.0649043 1.85132e-20)
(-0.0847155 0.207811 -2.84173e-20)
(0.0907661 0.234255 -5.17591e-22)
(-0.00446475 0.192675 9.12708e-21)
(-0.283842 0.199105 -9.36777e-21)
(-0.0319851 0.182443 1.57226e-20)
(0.042267 0.13221 5.54897e-20)
(0.0701754 0.0915826 -3.73902e-20)
(0.0817371 0.0640424 6.37452e-20)
(0.0922007 0.0380447 1.61066e-20)
(0.0850474 0.0322545 -1.39616e-21)
(0.0713465 0.0253218 -7.54837e-21)
(0.0534334 0.0195398 1.49829e-21)
(0.0338646 0.0151375 7.63555e-22)
(0.0132622 0.0110571 -5.83379e-22)
(-0.00484373 0.00895305 -4.9662e-23)
(-0.0122998 0.0073834 0)
(-0.0132932 0.00558395 0)
(-0.0136797 0.0036621 0)
(-0.0141928 0.00186394 0)
(-0.0142724 -0.000104216 0)
(-0.0138669 -0.000436149 0)
(0.0287369 -0.000480736 -1.15224e-22)
(0.0284286 -0.00274883 0)
(0.0298382 -0.00546342 0)
(0.0320947 -0.00891733 0)
(0.0352818 -0.0130466 0)
(0.0381836 -0.0172478 0)
(0.0350593 -0.0213334 2.1883e-23)
(0.0211903 -0.0251968 7.53601e-22)
(0.00523533 -0.0289694 2.29745e-21)
(-0.00906665 -0.0300402 -5.76514e-21)
(-0.0191963 -0.0345851 -1.8476e-21)
(-0.0281662 -0.0386914 -7.46476e-21)
(-0.0370714 -0.0469368 6.37083e-21)
(-0.0479363 -0.0438906 -3.1651e-20)
(-0.0589936 -0.0457411 -4.21707e-20)
(-0.0729517 -0.0412306 -2.0799e-20)
(-0.0916315 -0.0199831 4.92208e-21)
(-0.250479 0.0534163 -1.33427e-19)
(-0.37656 0.119271 -2.46981e-20)
(-0.273686 0.31553 -5.45371e-20)
(0.0511851 0.402986 -7.1392e-21)
(0.0447465 0.39248 7.7217e-20)
(-0.137161 0.326266 -6.83329e-20)
(0.0913629 0.174283 -5.86439e-20)
(0.108058 0.123517 -5.78866e-20)
(0.107626 0.0783717 2.13682e-20)
(0.103789 0.0536169 -7.98361e-20)
(0.10972 0.0299207 2.035e-20)
(0.0999257 0.0221967 2.42797e-20)
(0.0864422 0.0175383 1.02977e-21)
(0.0683838 0.0147934 7.80275e-21)
(0.0470606 0.0127699 -2.87706e-21)
(0.0240044 0.010591 7.61865e-23)
(0.00444251 0.00954482 1.80116e-23)
(-0.00383334 0.00805379 0)
(-0.00521245 0.00614026 0)
(-0.00546405 0.00402316 0)
(-0.00532561 0.00225117 0)
(-0.00483002 0.001081 0)
(-0.00362645 0.000223278 2.58587e-22)
(0.038746 -0.00146973 1.187e-21)
(0.0388762 -0.00308253 0)
(0.040061 -0.00423601 0)
(0.0421807 -0.00643654 0)
(0.0453299 -0.00934877 0)
(0.0481845 -0.0127049 0)
(0.0453018 -0.0162475 0)
(0.0314196 -0.0197609 4.21293e-22)
(0.0167544 -0.0263198 9.4508e-22)
(0.00357402 -0.0314035 -3.34181e-21)
(-0.00791171 -0.0398845 -2.89232e-22)
(-0.0153459 -0.0525873 -8.71311e-22)
(-0.0240399 -0.0667913 6.7515e-21)
(-0.0350877 -0.0806025 -1.07858e-20)
(-0.0500172 -0.0800977 1.11823e-20)
(-0.076456 -0.0948975 -6.56615e-20)
(-0.139024 -0.0761694 -2.97011e-20)
(-0.404356 -0.00620333 6.28206e-19)
(-0.557946 0.128438 -2.92656e-20)
(-0.425446 0.117975 3.07368e-19)
(0.0615588 0.151006 -3.92952e-19)
(0.0891096 0.216846 -3.20249e-19)
(0.100865 0.136155 5.84755e-20)
(0.194038 0.0895124 5.86645e-19)
(0.161849 0.0548265 -4.03835e-21)
(0.136673 0.0380347 -7.69368e-20)
(0.12287 0.0187572 1.74935e-21)
(0.113523 0.0147589 2.30487e-20)
(0.102153 0.0128076 -1.73641e-20)
(0.0899258 0.0116078 4.07645e-21)
(0.0735911 0.0108925 1.60118e-21)
(0.0536869 0.0112669 -2.24683e-22)
(0.0312431 0.0106827 -7.11665e-22)
(0.0120221 0.0102055 0)
(0.00375042 0.00837806 0)
(0.0024164 0.00656901 0)
(0.00219947 0.00474946 0)
(0.0023539 0.00333093 0)
(0.00265671 0.00257049 0)
(0.00326293 0.00126458 -1.68947e-21)
(0.043988 -0.00136434 1.75435e-23)
(0.0452018 -0.0022939 0)
(0.0468531 -0.00289967 0)
(0.0486566 -0.0042014 0)
(0.051351 -0.00598126 0)
(0.054152 -0.0082519 0)
(0.051728 -0.0113519 0)
(0.0393656 -0.0149479 0)
(0.0248693 -0.0225085 1.53056e-22)
(0.0125277 -0.0306662 -4.64288e-22)
(0.00285682 -0.0423822 9.83339e-22)
(-0.00170123 -0.0592215 -2.04699e-21)
(-0.00213404 -0.0811168 1.60345e-20)
(-0.00246823 -0.101846 -6.24181e-21)
(-0.0236227 -0.11893 -1.08311e-20)
(-0.0483251 -0.164939 -3.18216e-20)
(-0.197084 -0.162407 6.42119e-20)
(-0.583845 -0.0970913 -7.76168e-20)
(-0.519816 -0.177365 4.76038e-20)
(-0.347215 -0.292222 -8.70558e-20)
(-0.169569 -0.215942 3.80715e-20)
(0.0246056 -0.0618797 -6.12893e-20)
(0.254448 -0.0530009 -2.19405e-19)
(0.225107 -0.0271312 -4.75097e-19)
(0.173837 -0.0260235 -2.61853e-20)
(0.140045 -0.0156954 2.07555e-20)
(0.112919 -0.0119194 -2.31918e-21)
(0.104955 0.000384317 -9.88523e-22)
(0.0955876 0.0054038 1.01144e-21)
(0.0849634 0.00898483 -6.08506e-21)
(0.0706267 0.0103634 2.4122e-21)
(0.0525601 0.0122096 -2.80686e-22)
(0.0324597 0.0121796 0)
(0.015621 0.0115278 0)
(0.0085339 0.00931234 0)
(0.00759827 0.00745995 0)
(0.00771542 0.00564308 -1.90871e-21)
(0.00794012 0.00418348 -2.63962e-21)
(0.0078215 0.00315915 -1.57403e-21)
(0.00772354 0.00134076 0)
(0.0447702 -0.000211762 0)
(0.0456495 -0.000550669 0)
(0.047055 -0.000987424 0)
(0.0490577 -0.00169321 0)
(0.0517163 -0.00257548 0)
(0.0544504 -0.00362256 0)
(0.0528038 -0.00573152 0)
(0.0422153 -0.00906681 0)
(0.0300281 -0.0165124 -1.6754e-24)
(0.0199882 -0.0259641 3.4853e-23)
(0.0146019 -0.0388397 -3.10991e-22)
(0.0143585 -0.056396 -1.0142e-21)
(0.0232528 -0.0804729 3.03476e-21)
(0.0356086 -0.111677 -7.2682e-21)
(0.0282622 -0.140574 -2.39704e-19)
(0.014773 -0.193465 2.28662e-20)
(-0.286784 -0.209744 1.92468e-20)
(-0.451029 -0.317491 -1.99706e-20)
(-0.419637 -0.39138 4.90737e-20)
(-0.381566 -0.388255 1.15976e-20)
(-0.28375 -0.423511 -5.48719e-20)
(-0.076886 -0.416672 -4.42998e-19)
(0.0728459 -0.245218 1.43368e-19)
(0.231884 -0.0920063 6.81524e-20)
(0.179719 -0.0838803 -4.24443e-20)
(0.115391 -0.0585937 5.67257e-21)
(0.0928507 -0.0292969 -1.1206e-21)
(0.0921822 -0.00960486 -2.09715e-21)
(0.0855665 0.00129454 3.37745e-21)
(0.0764467 0.00843782 -1.26092e-22)
(0.0642661 0.0118495 -1.60416e-22)
(0.048524 0.0148599 -3.00228e-25)
(0.0310718 0.0147063 0)
(0.0168218 0.0138442 0)
(0.0111809 0.0111566 0)
(0.0107274 0.00904284 0)
(0.0109873 0.00678588 0)
(0.0111601 0.00472706 0)
(0.0109899 0.00287758 0)
(0.0107264 0.000953684 2.83485e-22)
(0.0424658 0.000381749 0)
(0.0432198 0.000709741 0)
(0.0443908 0.000686924 0)
(0.0464085 0.000682335 0)
(0.0491559 0.000627228 0)
(0.0519144 0.00068138 0)
(0.0510937 -0.000176415 0)
(0.0438997 -0.002366 0)
(0.03547 -0.00861144 0)
(0.0292861 -0.0165139 0)
(0.0284447 -0.0291378 4.95641e-23)
(0.0327587 -0.043578 -5.17426e-22)
(0.0477421 -0.063639 1.82507e-22)
(0.0726899 -0.0961924 -7.08706e-22)
(0.0911866 -0.127738 -6.59272e-19)
(0.0835177 -0.164455 -1.11818e-20)
(-0.172084 -0.220667 -2.68783e-19)
(-0.352843 -0.382783 -7.12031e-20)
(-0.38375 -0.484473 -4.80791e-20)
(-0.345468 -0.502361 -4.94033e-19)
(-0.299242 -0.425831 1.21075e-19)
(-0.209635 -0.31412 1.46274e-19)
(-0.0744634 -0.232941 -8.97818e-20)
(0.0955509 -0.159869 -1.0784e-20)
(0.208511 -0.104819 -2.05341e-20)
(0.0682259 -0.0701956 5.27896e-21)
(0.0683179 -0.0298971 1.93735e-21)
(0.0735301 -0.0110486 -1.80372e-21)
(0.0738897 0.00159957 7.91617e-22)
(0.0673327 0.00998682 8.77169e-24)
(0.0574929 0.0150986 0)
(0.0439184 0.0185354 0)
(0.0288776 0.0183382 0)
(0.0173972 0.0171332 0)
(0.0132233 0.0137508 0)
(0.0130156 0.0110485 0)
(0.013186 0.00806747 0)
(0.0133175 0.00528597 0)
(0.0131229 0.00289274 0)
(0.0128339 0.000843658 0)
(0.0401344 0.000516392 0)
(0.0405309 0.00148869 0)
(0.0415851 0.00231304 0)
(0.043418 0.00313041 0)
(0.0459614 0.00393012 0)
(0.0487578 0.00501783 0)
(0.0490091 0.00553007 0)
(0.0446403 0.00514727 0)
(0.0396709 0.000937232 0)
(0.0367652 -0.00351372 0)
(0.0393133 -0.0133525 0)
(0.048457 -0.0219441 -2.07089e-23)
(0.065469 -0.0329995 -1.63961e-22)
(0.100143 -0.0456339 1.79056e-21)
(0.116033 -0.0839581 -2.27422e-19)
(0.0689571 -0.0680094 4.38727e-21)
(0.0338487 -0.131799 -1.89392e-19)
(-0.145962 -0.283638 -5.27679e-20)
(-0.323224 -0.376294 2.00013e-20)
(-0.404869 -0.401788 -1.24485e-19)
(-0.426001 -0.392236 6.79676e-20)
(-0.336216 -0.334393 -4.22701e-20)
(-0.147608 -0.279259 6.91784e-20)
(0.0572155 -0.229691 2.71238e-20)
(0.0995962 -0.0931224 -1.50618e-20)
(0.0263575 -0.0415295 -2.25493e-20)
(0.0351316 -0.00315546 2.47379e-20)
(0.0535436 0.00197714 7.52968e-22)
(0.0611713 0.0121068 5.65034e-23)
(0.0587883 0.0168841 0)
(0.0522258 0.0212398 0)
(0.0408245 0.0231783 0)
(0.0283916 0.0222627 0)
(0.0193533 0.0201446 0)
(0.0160376 0.0160012 0)
(0.0155109 0.0126512 0)
(0.0152717 0.00920053 0)
(0.0151205 0.00606702 0)
(0.0148791 0.00338961 0)
(0.014644 0.0010612 0)
(0.0377214 0.000718015 0)
(0.037928 0.00216864 0)
(0.0388536 0.00366071 0)
(0.0404506 0.00530896 0)
(0.0426993 0.00707009 0)
(0.0452969 0.00931024 0)
(0.0464904 0.0113101 0)
(0.0444056 0.0128445 0)
(0.0420281 0.0110827 0)
(0.0415977 0.0100767 0)
(0.0458506 0.0052757 5.40817e-22)
(0.0589621 -0.000725733 0)
(0.0750918 0.00248587 0)
(0.10842 -0.00594374 -7.26132e-20)
(0.0875194 -0.0254999 1.27736e-20)
(0.0118424 -0.00119658 -3.68025e-19)
(0.0480628 0.0516265 -4.65548e-21)
(-0.0380638 0.050703 -2.92809e-20)
(-0.179702 -0.0158184 1.40918e-20)
(-0.272243 -0.108978 -2.82821e-19)
(-0.346119 -0.209639 1.16005e-19)
(-0.30496 -0.271339 -1.28681e-19)
(-0.220911 -0.270966 -2.44655e-20)
(-0.165759 -0.156162 -1.69131e-20)
(-0.0902567 -0.000984002 4.27005e-22)
(0.0142659 0.0473463 1.60463e-20)
(0.0201473 0.0458791 -4.25586e-20)
(0.043956 0.0348604 0)
(0.0538508 0.0327281 0)
(0.0542165 0.0291887 -1.71874e-22)
(0.0499336 0.0288453 0)
(0.040511 0.0272452 0)
(0.0304763 0.0245058 0)
(0.022978 0.0212791 0)
(0.0197921 0.0167195 0)
(0.0186838 0.0130569 0)
(0.0179155 0.00952429 0)
(0.0174583 0.00641815 3.14139e-22)
(0.0171698 0.00366509 2.25367e-22)
(0.0169532 0.0012105 0)
(0.0349253 0.000792581 0)
(0.0350951 0.00267042 0)
(0.0358408 0.00469057 0)
(0.0370307 0.00705224 0)
(0.0388182 0.00970228 0)
(0.0410017 0.0129942 0)
(0.0427864 0.0163647 0)
(0.0427266 0.0198598 0)
(0.0421707 0.0209524 0)
(0.0434103 0.023443 0)
(0.0474215 0.0252592 -1.43493e-21)
(0.0626224 0.0236269 0)
(0.0805024 0.0347449 0)
(0.112822 0.0525518 -6.53987e-21)
(0.103793 0.0410827 1.98325e-19)
(-0.0528491 0.0414867 1.59457e-21)
(-0.130286 0.0863601 0)
(-0.172668 0.18705 -1.58193e-21)
(-0.200815 0.244422 -3.98288e-19)
(-0.258343 0.303723 -1.23812e-20)
(-0.308623 0.275328 -1.41841e-19)
(-0.304523 0.251536 2.11859e-19)
(-0.259901 0.214157 -7.59145e-21)
(-0.230191 0.164984 0)
(-0.0988862 0.121037 -2.72478e-20)
(0.0344456 0.103942 -1.00602e-20)
(0.0461404 0.0809396 -2.09983e-20)
(0.0575188 0.0637454 0)
(0.0598646 0.0492893 0)
(0.0577323 0.0390726 1.60496e-21)
(0.0525657 0.0339004 0)
(0.0435144 0.029059 0)
(0.0345597 0.024664 0)
(0.0278012 0.020732 0)
(0.024374 0.0159841 0)
(0.0225926 0.0122726 -5.68322e-22)
(0.0212547 0.00889029 7.38525e-22)
(0.0203877 0.00611572 0)
(0.0198047 0.00354056 0)
(0.0193933 0.00118479 1.73551e-21)
(0.0321172 0.00102444 0)
(0.0320029 0.00324918 0)
(0.032443 0.00565424 0)
(0.0332273 0.00839009 0)
(0.0344448 0.0114927 0)
(0.0360503 0.0154016 0)