/*--------------------------------*- C++ -*----------------------------------*\
| =========                 |                                                 |
| \\      /  F ield         | OpenFOAM: The Open Source CFD Toolbox           |
|  \\    /   O peration     | Version:  v2106                                 |
|   \\  /    A nd           | Website:  www.openfoam.com                      |
|    \\/     M anipulation  |                                                 |
\*---------------------------------------------------------------------------*/
FoamFile
{
    version     2.0;
    format      ascii;
    arch        "LSB;label=32;scalar=64";
    class       pointVectorField;
    location    "0";
    object      pointDisplacement;
}
// * * * * * * * * * * * * * * * * * * * * * * * * * * * * * * * * * * * * * //

dimensions      [0 1 0 0 0 0 0];

internalField   nonuniform List<vector> 
24440
(
(0 0 0)
(0 0 0)
(0 0 0)
(0 0 0)
(0 0 0)
(0 0 0)
(0 0 0)
(0 0 0)
(0 0 0)
(0 0 0)
(0 0 0)
(0 0 0)
(0 0 0)
(0 0 0)
(0 0 0)
(0 0 0)
(0 0 0)
(0 0 0)
(0 0 0)
(0 0 0)
(0 0 0)
(0 0 0)
(0 0 0)
(0 0 0)
(0 0 0)
(0 0 0)
(0 0 0)
(0 0 0)
(0 0 0)
(0 0 0)
(0 0 0)
(0 0 0)
(0 0 0)
(0 0 0)
(0 0 0)
(0 0 0)
(0 0 0)
(0 0 0)
(0 0 0)
(0 0 0)
(0 0 0)
(0 0 0)
(0 0 0)
(0 0 0)
(0 0 0)
(0 0 0)
(0 0 0)
(0 0 0)
(0 0 0)
(0 0 0)
(0 0 0)
(0 0 0)
(0 0 0)
(0 0 0)
(0 0 0)
(0 0 0)
(0 0 0)
(0 0 0)
(0 0 0)
(0 0 0)
(0 0 0)
(0 0 0)
(0 0 0)
(0 0 0)
(0 0 0)
(0 0 0)
(0 0 0)
(0 0 0)
(0 0 0)
(0 0 0)
(0 0 0)
(0 0 0)
(0 0 0)
(0 0 0)
(0 0 0)
(0 0 0)
(0 0 0)
(0 0 0)
(0 0 0)
(0 0 0)
(0 0 0)
(0 0 0)
(0 0 0)
(0 0 0)
(0 0 0)
(0 0 0)
(0 0 0)
(0 0 0)
(0 0 0)
(0 0 0)
(0 0 0)
(0 0 0)
(0 0 0)
(0 0 0)
(0 0 0)
(0 0 0)
(0 0 0)
(0 0 0)
(0 3.43675e-06 0)
(0 2.16724e-05 0)
(0 5.95944e-05 0)
(0 9.1832e-05 0)
(0 0.000104204 0)
(0 9.1832e-05 0)
(0 5.95944e-05 0)
(0 2.16724e-05 0)
(0 3.43675e-06 0)
(0 0 0)
(0 0 0)
(0 0 0)
(0 0 0)
(0 0 0)
(0 0 0)
(0 0 0)
(0 0 0)
(0 0 0)
(0 0 0)
(0 0 0)
(0 0 0)
(0 0 0)
(0 0 0)
(0 0 0)
(0 0 0)
(0 0 0)
(0 0 0)
(0 0 0)
(0 0 0)
(0 0 0)
(0 0 0)
(0 0 0)
(0 0 0)
(0 0 0)
(0 0 0)
(0 0 0)
(0 0 0)
(0 0 0)
(0 5.75563e-06 0)
(0 7.61374e-05 0)
(0 0.000224067 0)
(0 0.000403642 0)
(0 0.000575757 0)
(0 0.000695746 0)
(0 0.000807288 0)
(0 0.000846534 0)
(0 0.000807288 0)
(0 0.000695746 0)
(0 0.000575757 0)
(0 0.000403642 0)
(0 0.000224067 0)
(0 7.61374e-05 0)
(0 5.75563e-06 0)
(0 0 0)
(0 0 0)
(0 0 0)
(0 0 0)
(0 0 0)
(0 0 0)
(0 0 0)
(0 0 0)
(0 0 0)
(0 0 0)
(0 0 0)
(0 0 0)
(0 0 0)
(0 0 0)
(0 0 0)
(0 0 0)
(0 0 0)
(0 0 0)
(0 0 0)
(0 0 0)
(0 0 0)
(0 0 0)
(0 0 0)
(0 0 0)
(0 2.41655e-06 0)
(0 0.000100128 0)
(0 0.000341468 0)
(0 0.00067337 0)
(0 0.00101523 0)
(0 0.00139662 0)
(0 0.00172693 0)
(0 0.0019315 0)
(0 0.00212711 0)
(0 0.00219472 0)
(0 0.00212711 0)
(0 0.0019315 0)
(0 0.00172693 0)
(0 0.00139662 0)
(0 0.00101523 0)
(0 0.00067337 0)
(0 0.000341468 0)
(0 0.000100128 0)
(0 2.41655e-06 0)
(0 0 0)
(0 0 0)
(0 0 0)
(0 0 0)
(0 0 0)
(0 0 0)
(0 0 0)
(0 0 0)
(0 0 0)
(0 0 0)
(0 0 0)
(0 0 0)
(0 0 0)
(0 0 0)
(0 0 0)
(0 0 0)
(0 0 0)
(0 0 0)
(0 0 0)
(0 0 0)
(0 0 0)
(0 2.28496e-05 0)
(0 0.000237623 0)
(0 0.000631496 0)
(0 0.00110797 0)
(0 0.00169956 0)
(0 0.00229623 0)
(0 0.00281314 0)
(0 0.00329735 0)
(0 0.00364096 0)
(0 0.00384625 0)
(0 0.00394049 0)
(0 0.00384625 0)
(0 0.00364096 0)
(0 0.00329735 0)
(0 0.00281314 0)
(0 0.00229623 0)
(0 0.00169956 0)
(0 0.00110797 0)
(0 0.000631496 0)
(0 0.000237623 0)
(0 2.41902e-05 0)
(0 0 0)
(0 0 0)
(0 0 0)
(0 0 0)
(0 0 0)
(0 0 0)
(0 0 0)
(0 0 0)
(0 0 0)
(0 0 0)
(0 0 0)
(0 0 0)
(0 0 0)
(0 0 0)
(0 0 0)
(0 0 0)
(0 0 0)
(0 0 0)
(0 0 0)
(0 4.49401e-05 0)
(0 0.000315119 0)
(0 0.000786499 0)
(0 0.00144389 0)
(0 0.00222518 0)
(0 0.00303705 0)
(0 0.00378209 0)
(0 0.0044884 0)
(0 0.0047538 0)
(0 0.00504082 0)
(0 0.00528089 0)
(0 0.00547004 0)
(0 0.0056053 0)
(0 0.00569884 0)
(0 0.00578524 0)
(0 0.00581418 0)
(0 0.00578524 0)
(0 0.00569884 0)
(0 0.0056053 0)
(0 0.00547004 0)
(0 0.00528089 0)
(0 0.00504082 0)
(0 0.0047538 0)
(0 0.0044884 0)
(0 0.00378209 0)
(0 0.00303705 0)
(0 0.00222518 0)
(0 0.00144389 0)
(0 0.000770174 0)
(0 0.000284742 0)
(0 3.59101e-05 0)
(0 0 0)
(0 0 0)
(0 0 0)
(0 0 0)
(0 0 0)
(0 0 0)
(0 0 0)
(0 0 0)
(0 0 0)
(0 0 0)
(0 0 0)
(0 0 0)
(0 0 0)
(0 0 0)
(0 0 0)
(0 0 0)
(0 0 0)
(0 2.6433e-05 0)
(0 0.000302498 0)
(0 0.000842813 0)
(0 0.00158592 0)
(0 0.00245636 0)
(0 0.00348049 0)
(0 0.00397018 0)
(0 0.00440423 0)
(0 0.00488462 0)
(0 0.00533491 0)
(0 0.00574688 0)
(0 0.00609688 0)
(0 0.00531352 0)
(0 0.00563794 0)
(0 0.00589398 0)
(0 0.00615222 0)
(0 0.00635481 0)
(0 0.00649918 0)
(0 0.00658573 0)
(0 0.00667745 0)
(0 0.00670813 0)
(0 0.00667745 0)
(0 0.00658573 0)
(0 0.00649918 0)
(0 0.00635481 0)
(0 0.00615222 0)
(0 0.00589398 0)
(0 0.00563794 0)
(0 0.00531352 0)
(0 0.00609688 0)
(0 0.00574688 0)
(0 0.00533491 0)
(0 0.00488462 0)
(0 0.00440423 0)
(0 0.00397018 0)
(0 0.00348049 0)
(0 0.00245636 0)
(0 0.00158592 0)
(0 0.000812069 0)
(0 0.000289337 0)
(0 2.4005e-05 0)
(0 0 0)
(0 0 0)
(0 0 0)
(0 0 0)
(0 0 0)
(0 0 0)
(0 0 0)
(0 0 0)
(0 0 0)
(0 0 0)
(0 0 0)
(0 0 0)
(0 0 0)
(0 0 0)
(0 0 0)
(0 0 0)
(0 0.000167246 0)
(0 0.000683478 0)
(0 0.00146118 0)
(0 0.00243806 0)
(0 0.00352609 0)
(0 0.00463164 0)
(0 0.00407669 0)
(0 0.0046092 0)
(0 0.00512161 0)
(0 0.0056041 0)
(0 0.00603277 0)
(0 0.0064675 0)
(0 0.00685166 0)
(0 0.00716904 0)
(0 0.0064416 0)
(0 0.00673196 0)
(0 0.0074683 0)
(0 0.00768379 0)
(0 0.00696296 0)
(0 0.00717431 0)
(0 0.00789811 0)
(0 0.00804896 0)
(0 0.00732424 0)
(0 0.00740023 0)
(0 0.00813639 0)
(0 0.00820579 0)
(0 0.00749482 0)
(0 0.00752638 0)
(0 0.00823712 0)
(0 0.00820579 0)
(0 0.00749482 0)
(0 0.00740023 0)
(0 0.00813639 0)
(0 0.00804896 0)
(0 0.00732424 0)
(0 0.00717431 0)
(0 0.00789811 0)
(0 0.00768379 0)
(0 0.00696296 0)
(0 0.00673196 0)
(0 0.0074683 0)
(0 0.00716904 0)
(0 0.0064416 0)
(0 0.00685166 0)
(0 0.0064675 0)
(0 0.00603277 0)
(0 0.0056041 0)
(0 0.00512161 0)
(0 0.0046092 0)
(0 0.00407669 0)
(0 0.00463164 0)
(0 0.00352609 0)
(0 0.00240871 0)
(0 0.00144965 0)
(0 0.000682748 0)
(0 0.000181824 0)
(0 0 0)
(0 0 0)
(0 0 0)
(0 0 0)
(0 0 0)
(0 0 0)
(0 0 0)
(0 0 0)
(0 0 0)
(0 0 0)
(0 0 0)
(0 0 0)
(0 0 0)
(0 0 0)
(0 0 0)
(0 3.64846e-05 0)
(0 0.000374832 0)
(0 0.00108045 0)
(0 0.00202432 0)
(0 0.00314643 0)
(0 0.00443202 0)
(0 0.00567034 0)
(0 0.00518842 0)
(0 0.00574941 0)
(0 0.00516248 0)
(0 0.00573987 0)
(0 0.00627671 0)
(0 0.00680568 0)
(0 0.00624801 0)
(0 0.00671207 0)
(0 0.00728261 0)
(0 0.00750008 0)
(0 0.00770251 0)
(0 0.00742727 0)
(0 0.0071038 0)
(0 0.007498 0)
(0 0.0077807 0)
(0 0.00795535 0)
(0 0.00767255 0)
(0 0.00809714 0)
(0 0.0083653 0)
(0 0.00848939 0)
(0 0.00822311 0)
(0 0.00850073 0)
(0 0.00876309 0)
(0 0.00882847 0)
(0 0.00858154 0)
(0 0.00873004 0)
(0 0.00897044 0)
(0 0.00900467 0)
(0 0.00876982 0)
(0 0.00881257 0)
(0 0.00904233 0)
(0 0.00903541 0)
(0 0.00880521 0)
(0 0.00873004 0)
(0 0.00897044 0)
(0 0.008938 0)
(0 0.00869593 0)
(0 0.00850073 0)
(0 0.00876309 0)
(0 0.00868799 0)
(0 0.00842628 0)
(0 0.00809714 0)
(0 0.0083653 0)
(0 0.00825575 0)
(0 0.00795489 0)
(0 0.007498 0)
(0 0.0077807 0)
(0 0.0075902 0)
(0 0.00730824 0)
(0 0.00671207 0)
(0 0.00728261 0)
(0 0.00680568 0)
(0 0.00624801 0)
(0 0.00573987 0)
(0 0.00627671 0)
(0 0.00574941 0)
(0 0.00516248 0)
(0 0.00518842 0)
(0 0.00564479 0)
(0 0.00442896 0)
(0 0.00319714 0)
(0 0.00200732 0)
(0 0.00106993 0)
(0 0.000393618 0)
(0 4.17221e-05 0)
(0 0 0)
(0 0 0)
(0 0 0)
(0 0 0)
(0 0 0)
(0 0 0)
(0 0 0)
(0 0 0)
(0 0 0)
(0 0 0)
(0 0 0)
(0 0 0)
(0 0 0)
(0 0 0)
(0 0.000119369 0)
(0 0.000604135 0)
(0 0.00141944 0)
(0 0.00249415 0)
(0 0.00373614 0)
(0 0.00510219 0)
(0 0.00637713 0)
(0 0.00606256 0)
(0 0.00666252 0)
(0 0.0062542 0)
(0 0.00679932 0)
(0 0.00721893 0)
(0 0.00772145 0)
(0 0.00729587 0)
(0 0.00773573 0)
(0 0.00796357 0)
(0 0.00815955 0)
(0 0.0079633 0)
(0 0.00851697 0)
(0 0.00861124 0)
(0 0.0086873 0)
(0 0.00859389 0)
(0 0.00901606 0)
(0 0.00909146 0)
(0 0.00914041 0)
(0 0.00906656 0)
(0 0.0093115 0)
(0 0.00936645 0)
(0 0.00939138 0)
(0 0.00933603 0)
(0 0.00944098 0)
(0 0.00948128 0)
(0 0.00948703 0)
(0 0.0094479 0)
(0 0.00947409 0)
(0 0.00950656 0)
(0 0.00950601 0)
(0 0.00947331 0)
(0 0.00944098 0)
(0 0.00948128 0)
(0 0.00947332 0)
(0 0.00943155 0)
(0 0.0093115 0)
(0 0.00936645 0)
(0 0.00934555 0)
(0 0.00928199 0)
(0 0.00901606 0)
(0 0.00909146 0)
(0 0.00904886 0)
(0 0.00896113 0)
(0 0.00851697 0)
(0 0.00861124 0)
(0 0.00869749 0)
(0 0.00853336 0)
(0 0.00834981 0)
(0 0.00773573 0)
(0 0.00796357 0)
(0 0.00816149 0)
(0 0.00772145 0)
(0 0.00729587 0)
(0 0.00679932 0)
(0 0.00720244 0)
(0 0.00665822 0)
(0 0.0062542 0)
(0 0.00606981 0)
(0 0.00639602 0)
(0 0.00508936 0)
(0 0.00377335 0)
(0 0.00252031 0)
(0 0.00143589 0)
(0 0.000612755 0)
(0 0.000122314 0)
(0 0 0)
(0 0 0)
(0 0 0)
(0 0 0)
(0 0 0)
(0 0 0)
(0 0 0)
(0 0 0)
(0 0 0)
(0 0 0)
(0 0 0)
(0 0 0)
(0 0 0)
(0 0 0)
(0 0.000184064 0)
(0 0.000750502 0)
(0 0.00165157 0)
(0 0.00281117 0)
(0 0.00413164 0)
(0 0.00550204 0)
(0 0.00680765 0)
(0 0.00664589 0)
(0 0.0072411 0)
(0 0.00696477 0)
(0 0.00750362 0)
(0 0.00778335 0)
(0 0.00826203 0)
(0 0.00803083 0)
(0 0.00846657 0)
(0 0.00857421 0)
(0 0.00876174 0)
(0 0.00865659 0)
(0 0.00910814 0)
(0 0.00915786 0)
(0 0.00921397 0)
(0 0.00916581 0)
(0 0.00945421 0)
(0 0.0094782 0)
(0 0.00949826 0)
(0 0.00947707 0)
(0 0.00953707 0)
(0 0.00953707 0)
(0 0.00953707 0)
(0 0.00953707 0)
(0 0.00953707 0)
(0 0.00953707 0)
(0 0.00953707 0)
(0 0.00953707 0)
(0 0.00953707 0)
(0 0.00953707 0)
(0 0.00953707 0)
(0 0.00953707 0)
(0 0.00953707 0)
(0 0.00953707 0)
(0 0.00953707 0)
(0 0.00953707 0)
(0 0.00953707 0)
(0 0.00953707 0)
(0 0.00953707 0)
(0 0.00953707 0)
(0 0.00945421 0)
(0 0.0094782 0)
(0 0.00945177 0)
(0 0.00942671 0)
(0 0.00910814 0)
(0 0.00915786 0)
(0 0.00920035 0)
(0 0.00907063 0)
(0 0.0089777 0)
(0 0.00846166 0)
(0 0.00858671 0)
(0 0.00868221 0)
(0 0.00825056 0)
(0 0.00803797 0)
(0 0.00754638 0)
(0 0.00777368 0)
(0 0.00723341 0)
(0 0.00699556 0)
(0 0.00664024 0)
(0 0.00681103 0)
(0 0.00549978 0)
(0 0.00412508 0)
(0 0.00280215 0)
(0 0.00164216 0)
(0 0.000742722 0)
(0 0.000179645 0)
(0 0 0)
(0 0 0)
(0 0 0)
(0 0 0)
(0 0 0)
(0 0 0)
(0 0 0)
(0 0 0)
(0 0 0)
(0 0 0)
(0 0 0)
(0 0 0)
(0 0 0)
(0 0 0)
(0 0.000195149 0)
(0 0.000774494 0)
(0 0.00168938 0)
(0 0.00286295 0)
(0 0.00419657 0)
(0 0.00557821 0)
(0 0.00689179 0)
(0 0.00689421 0)
(0 0.00749003 0)
(0 0.00740173 0)
(0 0.00793997 0)
(0 0.00802837 0)
(0 0.00849789 0)
(0 0.00841142 0)
(0 0.00882179 0)
(0 0.00886145 0)
(0 0.00902598 0)
(0 0.00899023 0)
(0 0.0093616 0)
(0 0.0093769 0)
(0 0.00941751 0)
(0 0.00940338 0)
(0 0.00953707 0)
(0 0.00953707 0)
(0 0.00953707 0)
(0 0.00953707 0)
(0 0.00953707 0)
(0 0.00953707 0)
(0 0.00953707 0)
(0 0.00953707 0)
(0 0.00953707 0)
(0 0.00953707 0)
(0 0.00953707 0)
(0 0.00953707 0)
(0 0.00953707 0)
(0 0.00953707 0)
(0 0.00953707 0)
(0 0.00953707 0)
(0 0.00953707 0)
(0 0.00953668 0)
(0 0.00953531 0)
(0 0.0093616 0)
(0 0.0093769 0)
(0 0.00938699 0)
(0 0.00929163 0)
(0 0.00925797 0)
(0 0.00882125 0)
(0 0.00886201 0)
(0 0.0088887 0)
(0 0.00849789 0)
(0 0.00842364 0)
(0 0.00794943 0)
(0 0.00800815 0)
(0 0.00746681 0)
(0 0.00740818 0)
(0 0.00686849 0)
(0 0.00687638 0)
(0 0.00556106 0)
(0 0.00417916 0)
(0 0.00284677 0)
(0 0.00167585 0)
(0 0.000764788 0)
(0 0.00019012 0)
(0 0 0)
(0 0 0)
(0 0 0)
(0 0 0)
(0 0 0)
(0 0 0)
(0 0 0)
(0 0 0)
(0 0 0)
(0 0 0)
(0 0 0)
(0 0 0)
(0 0 0)
(0 0 0)
(0 0.000159482 0)
(0 0.000697003 0)
(0 0.00156809 0)
(0 0.00269845 0)
(0 0.00399238 0)
(0 0.00534108 0)
(0 0.00663226 0)
(0 0.00681862 0)
(0 0.00741345 0)
(0 0.00748808 0)
(0 0.00802694 0)
(0 0.00795224 0)
(0 0.00842396 0)
(0 0.008497 0)
(0 0.00888833 0)
(0 0.0088674 0)
(0 0.00903189 0)
(0 0.00905184 0)
(0 0.00940372 0)
(0 0.00939874 0)
(0 0.00943681 0)
(0 0.00944132 0)
(0 0.00953707 0)
(0 0.00953707 0)
(0 0.00953707 0)
(0 0.00953707 0)
(0 0.00953707 0)
(0 0.00953707 0)
(0 0.00953707 0)
(0 0.00953707 0)
(0 0.00953707 0)
(0 0.00953707 0)
(0 0.00953707 0)
(0 0.00953707 0)
(0 0.00953707 0)
(0 0.00953707 0)
(0 0.00953707 0)
(0 0.00953707 0)
(0 0.00940372 0)
(0 0.00939468 0)
(0 0.00938973 0)
(0 0.00929458 0)
(0 0.0093054 0)
(0 0.00888007 0)
(0 0.00886674 0)
(0 0.00882628 0)
(0 0.00842973 0)
(0 0.00848659 0)
(0 0.00801459 0)
(0 0.00795644 0)
(0 0.00741597 0)
(0 0.00747405 0)
(0 0.00681945 0)
(0 0.00664912 0)
(0 0.00535346 0)
(0 0.00400046 0)
(0 0.00270291 0)
(0 0.00156987 0)
(0 0.000697175 0)
(0 0.000159134 0)
(0 0 0)
(0 0 0)
(0 0 0)
(0 0 0)
(0 0 0)
(0 0 0)
(0 0 0)
(0 0 0)
(0 0 0)
(0 0 0)
(0 0 0)
(0 0 0)
(0 0 0)
(0 0 0)
(0 8.06637e-05 0)
(0 0.000506664 0)
(0 0.00126022 0)
(0 0.00227367 0)
(0 0.00353491 0)
(0 0.00482461 0)
(0 0.0060826 0)
(0 0.00641621 0)
(0 0.00701256 0)
(0 0.00722277 0)
(0 0.00779579 0)
(0 0.00755977 0)
(0 0.00804747 0)
(0 0.00828186 0)
(0 0.00869468 0)
(0 0.00859575 0)
(0 0.00877518 0)
(0 0.00887124 0)
(0 0.00927412 0)
(0 0.00924597 0)
(0 0.00929715 0)
(0 0.00932719 0)
(0 0.00952554 0)
(0 0.00951575 0)
(0 0.00952743 0)
(0 0.00953349 0)
(0 0.00953707 0)
(0 0.00953707 0)
(0 0.00953707 0)
(0 0.00953707 0)
(0 0.00953707 0)
(0 0.00953707 0)
(0 0.00953707 0)
(0 0.00953707 0)
(0 0.00952554 0)
(0 0.00951432 0)
(0 0.00949882 0)
(0 0.00951268 0)
(0 0.00927412 0)
(0 0.00924597 0)
(0 0.00920771 0)
(0 0.00908643 0)
(0 0.00916132 0)
(0 0.00869468 0)
(0 0.00859575 0)
(0 0.0084834 0)
(0 0.00804747 0)
(0 0.00828186 0)
(0 0.00778126 0)
(0 0.00755977 0)
(0 0.00701256 0)
(0 0.00724172 0)
(0 0.00641621 0)
(0 0.0060826 0)
(0 0.00482461 0)
(0 0.00348936 0)
(0 0.00229602 0)
(0 0.00127488 0)
(0 0.000514687 0)
(0 8.33746e-05 0)
(0 0 0)
(0 0 0)
(0 0 0)
(0 0 0)
(0 0 0)
(0 0 0)
(0 0 0)
(0 0 0)
(0 0 0)
(0 0 0)
(0 0 0)
(0 0 0)
(0 0 0)
(0 0 0)
(0 9.98094e-06 0)
(0 0.000296282 0)
(0 0.000902212 0)
(0 0.00177412 0)
(0 0.00283228 0)
(0 0.00398385 0)
(0 0.00519224 0)
(0 0.00565043 0)
(0 0.00626485 0)
(0 0.00666773 0)
(0 0.0072369 0)
(0 0.00680278 0)
(0 0.00734149 0)
(0 0.00773186 0)
(0 0.00818664 0)
(0 0.00800429 0)
(0 0.00820516 0)
(0 0.00838597 0)
(0 0.00887405 0)
(0 0.00879285 0)
(0 0.00886669 0)
(0 0.00893415 0)
(0 0.0093054 0)
(0 0.009252 0)
(0 0.00929098 0)
(0 0.00934232 0)
(0 0.00949829 0)
(0 0.00946841 0)
(0 0.00948154 0)
(0 0.00950882 0)
(0 0.00953707 0)
(0 0.00953177 0)
(0 0.00953384 0)
(0 0.00953707 0)
(0 0.00953707 0)
(0 0.00953707 0)
(0 0.00953707 0)
(0 0.00953707 0)
(0 0.00953707 0)
(0 0.00953707 0)
(0 0.00953177 0)
(0 0.00952885 0)
(0 0.00953675 0)
(0 0.00953699 0)
(0 0.00949829 0)
(0 0.00946841 0)
(0 0.00945221 0)
(0 0.00948474 0)
(0 0.0093054 0)
(0 0.009252 0)
(0 0.00920855 0)
(0 0.00926391 0)
(0 0.00888059 0)
(0 0.00880604 0)
(0 0.00871645 0)
(0 0.00856832 0)
(0 0.00872938 0)
(0 0.00816416 0)
(0 0.00799501 0)
(0 0.00779742 0)
(0 0.0073314 0)
(0 0.00773186 0)
(0 0.0072369 0)
(0 0.00680278 0)
(0 0.00626485 0)
(0 0.00666773 0)
(0 0.00565043 0)
(0 0.00519224 0)
(0 0.00398385 0)
(0 0.00283228 0)
(0 0.00177412 0)
(0 0.000902212 0)
(0 0.000276372 0)
(0 1.19889e-05 0)
(0 0 0)
(0 0 0)
(0 0 0)
(0 0 0)
(0 0 0)
(0 0 0)
(0 0 0)
(0 0 0)
(0 0 0)
(0 0 0)
(0 0 0)
(0 0 0)
(0 0 0)
(0 0 0)
(0 0 0)
(0 9.10686e-05 0)
(0 0.000479897 0)
(0 0.00112909 0)
(0 0.00197093 0)
(0 0.00302276 0)
(0 0.00411029 0)
(0 0.00462332 0)
(0 0.0052287 0)
(0 0.00574639 0)
(0 0.00630762 0)
(0 0.0057737 0)
(0 0.00628326 0)
(0 0.00683512 0)
(0 0.00731274 0)
(0 0.00674844 0)
(0 0.00713786 0)
(0 0.0074612 0)
(0 0.00773299 0)
(0 0.00753043 0)
(0 0.00809439 0)
(0 0.00781182 0)
(0 0.00798648 0)
(0 0.00825421 0)
(0 0.00865426 0)
(0 0.008412 0)
(0 0.0085089 0)
(0 0.00876002 0)
(0 0.00900878 0)
(0 0.00879408 0)
(0 0.00885715 0)
(0 0.00906827 0)
(0 0.00919264 0)
(0 0.00899452 0)
(0 0.00902948 0)
(0 0.00921699 0)
(0 0.00924959 0)
(0 0.00906663 0)
(0 0.00905717 0)
(0 0.00924211 0)
(0 0.00919264 0)
(0 0.00899452 0)
(0 0.00894492 0)
(0 0.00915443 0)
(0 0.00900878 0)
(0 0.00879408 0)
(0 0.00871526 0)
(0 0.00893377 0)
(0 0.00865426 0)
(0 0.008412 0)
(0 0.00828672 0)
(0 0.00853166 0)
(0 0.00809439 0)
(0 0.00781182 0)
(0 0.0076478 0)
(0 0.00791982 0)
(0 0.00731274 0)
(0 0.00674844 0)
(0 0.00628326 0)
(0 0.00683512 0)
(0 0.00630762 0)
(0 0.0057737 0)
(0 0.0052287 0)
(0 0.00574639 0)
(0 0.00462332 0)
(0 0.00411029 0)
(0 0.00302276 0)
(0 0.00197093 0)
(0 0.00112909 0)
(0 0.000479897 0)
(0 9.10686e-05 0)
(0 0 0)
(0 0 0)
(0 0 0)
(0 0 0)
(0 0 0)
(0 0 0)
(0 0 0)
(0 0 0)
(0 0 0)
(0 0 0)
(0 0 0)
(0 0 0)
(0 0 0)
(0 0 0)
(0 0 0)
(0 0 0)
(0 0 0)
(0 0.000137236 0)
(0 0.000566683 0)
(0 0.00121481 0)
(0 0.00201861 0)
(0 0.00289903 0)
(0 0.00376815 0)
(0 0.0044426 0)
(0 0.00515978 0)
(0 0.00464522 0)
(0 0.00492526 0)
(0 0.00564411 0)
(0 0.00607131 0)
(0 0.00537752 0)
(0 0.00579115 0)
(0 0.00650729 0)
(0 0.00689239 0)
(0 0.00653603 0)
(0 0.00667358 0)
(0 0.00706415 0)
(0 0.00750241 0)
(0 0.00715203 0)
(0 0.00728204 0)
(0 0.00763343 0)
(0 0.00793202 0)
(0 0.00757961 0)
(0 0.00763772 0)
(0 0.00799983 0)
(0 0.00818964 0)
(0 0.00785122 0)
(0 0.00789075 0)
(0 0.00822884 0)
(0 0.00827492 0)
(0 0.00793864 0)
(0 0.00792237 0)
(0 0.00826015 0)
(0 0.00818964 0)
(0 0.00785122 0)
(0 0.00779587 0)
(0 0.00813463 0)
(0 0.00793202 0)
(0 0.00757961 0)
(0 0.00749601 0)
(0 0.00784833 0)
(0 0.00750241 0)
(0 0.00715203 0)
(0 0.00700702 0)
(0 0.00735593 0)
(0 0.00689239 0)
(0 0.00653603 0)
(0 0.00612417 0)
(0 0.00579115 0)
(0 0.00650729 0)
(0 0.00607131 0)
(0 0.00537752 0)
(0 0.00492526 0)
(0 0.00564411 0)
(0 0.00515978 0)
(0 0.0044426 0)
(0 0.00376815 0)
(0 0.00289903 0)
(0 0.00464522 0)
(0 0.00201861 0)
(0 0.00121481 0)
(0 0.000566683 0)
(0 0.000137236 0)
(0 0 0)
(0 0 0)
(0 0 0)
(0 0 0)
(0 0 0)
(0 0 0)
(0 0 0)
(0 0 0)
(0 0 0)
(0 0 0)
(0 0 0)
(0 0 0)
(0 0 0)
(0 0 0)
(0 0 0)
(0 0 0)
(0 0 0)
(0 0 0)
(0 1.74033e-06 0)
(0 0.000155905 0)
(0 0.000528312 0)
(0 0.0010353 0)
(0 0.00169457 0)
(0 0.00239767 0)
(0 0.00307747 0)
(0 0.00347432 0)
(0 0.00421093 0)
(0 0.00462855 0)
(0 0.00380884 0)
(0 0.00418626 0)
(0 0.00497266 0)
(0 0.00534996 0)
(0 0.00494453 0)
(0 0.00511048 0)
(0 0.00552249 0)
(0 0.00596724 0)
(0 0.00553941 0)
(0 0.00565746 0)
(0 0.00608932 0)
(0 0.00636595 0)
(0 0.00593755 0)
(0 0.00603292 0)
(0 0.00646411 0)
(0 0.00666978 0)
(0 0.00623311 0)
(0 0.00627048 0)
(0 0.00670812 0)
(0 0.00675863 0)
(0 0.00632102 0)
(0 0.00630045 0)
(0 0.00673886 0)
(0 0.00666978 0)
(0 0.00623311 0)
(0 0.00618094 0)
(0 0.00661623 0)
(0 0.00636595 0)
(0 0.00593755 0)
(0 0.00582834 0)
(0 0.00629161 0)
(0 0.00596724 0)
(0 0.00553941 0)
(0 0.00540854 0)
(0 0.00583173 0)
(0 0.00534996 0)
(0 0.00494453 0)
(0 0.00453176 0)
(0 0.00418626 0)
(0 0.00497266 0)
(0 0.00462855 0)
(0 0.00380884 0)
(0 0.00347432 0)
(0 0.00421093 0)
(0 0.00307747 0)
(0 0.00239767 0)
(0 0.00169457 0)
(0 0.0010353 0)
(0 0.000528312 0)
(0 0.000155905 0)
(0 1.74033e-06 0)
(0 0 0)
(0 0 0)
(0 0 0)
(0 0 0)
(0 0 0)
(0 0 0)
(0 0 0)
(0 0 0)
(0 0 0)
(0 0 0)
(0 0 0)
(0 0 0)
(0 0 0)
(0 0 0)
(0 0 0)
(0 0 0)
(0 0 0)
(0 0 0)
(0 0 0)
(0 0 0)
(0 8.18761e-05 0)
(0 0.000341011 0)
(0 0.000690822 0)
(0 0.00116321 0)
(0 0.00171999 0)
(0 0.00202815 0)
(0 0.00270249 0)
(0 0.0030564 0)
(0 0.00233014 0)
(0 0.00261836 0)
(0 0.00339128 0)
(0 0.00369978 0)
(0 0.00328854 0)
(0 0.00342188 0)
(0 0.00384208 0)
(0 0.00421258 0)
(0 0.00376992 0)
(0 0.00383344 0)
(0 0.00426982 0)
(0 0.00459199 0)
(0 0.00413765 0)
(0 0.00421723 0)
(0 0.0046761 0)
(0 0.00485337 0)
(0 0.00438513 0)
(0 0.00441661 0)
(0 0.00488657 0)
(0 0.00493496 0)
(0 0.00446358 0)
(0 0.00444189 0)
(0 0.00491323 0)
(0 0.00485337 0)
(0 0.00438513 0)
(0 0.00434126 0)
(0 0.00480708 0)
(0 0.00459199 0)
(0 0.00413765 0)
(0 0.00404686 0)
(0 0.00449593 0)
(0 0.00421258 0)
(0 0.00376992 0)
(0 0.0036632 0)
(0 0.00409912 0)
(0 0.00369978 0)
(0 0.00328854 0)
(0 0.00288583 0)
(0 0.00261836 0)
(0 0.00339128 0)
(0 0.0030564 0)
(0 0.00233014 0)
(0 0.00202815 0)
(0 0.00270249 0)
(0 0.00171999 0)
(0 0.00116321 0)
(0 0.000690822 0)
(0 0.000341011 0)
(0 8.18761e-05 0)
(0 0 0)
(0 0 0)
(0 0 0)
(0 0 0)
(0 0 0)
(0 0 0)
(0 0 0)
(0 0 0)
(0 0 0)
(0 0 0)
(0 0 0)
(0 0 0)
(0 0 0)
(0 0 0)
(0 0 0)
(0 0 0)
(0 0 0)
(0 0 0)
(0 0 0)
(0 0 0)
(0 0 0)
(0 0 0)
(0 0 0)
(0 6.97239e-06 0)
(0 0.000118268 0)
(0 0.00033007 0)
(0 0.000692416 0)
(0 0.000880926 0)
(0 0.00141209 0)
(0 0.00165944 0)
(0 0.00107234 0)
(0 0.00126019 0)
(0 0.00189821 0)
(0 0.00212184 0)
(0 0.00176824 0)
(0 0.0018623 0)
(0 0.00222609 0)
(0 0.00247718 0)
(0 0.00209651 0)
(0 0.00218477 0)
(0 0.00257416 0)
(0 0.00281854 0)
(0 0.00240779 0)
(0 0.00246662 0)
(0 0.00288285 0)
(0 0.00301905 0)
(0 0.00259141 0)
(0 0.0026149 0)
(0 0.00304467 0)
(0 0.00308557 0)
(0 0.00265325 0)
(0 0.00263379 0)
(0 0.00306525 0)
(0 0.00301905 0)
(0 0.00259141 0)
(0 0.00255872 0)
(0 0.0029834 0)
(0 0.00281854 0)
(0 0.00240779 0)
(0 0.00234091 0)
(0 0.00274535 0)
(0 0.00247718 0)
(0 0.00209651 0)
(0 0.00200223 0)
(0 0.00237339 0)
(0 0.00212184 0)
(0 0.00176824 0)
(0 0.00143842 0)
(0 0.00126019 0)
(0 0.00189821 0)
(0 0.00165944 0)
(0 0.00107234 0)
(0 0.000880926 0)
(0 0.00141209 0)
(0 0.000692416 0)
(0 0.00033007 0)
(0 0.000118268 0)
(0 6.97239e-06 0)
(0 0 0)
(0 0 0)
(0 0 0)
(0 0 0)
(0 0 0)
(0 0 0)
(0 0 0)
(0 0 0)
(0 0 0)
(0 0 0)
(0 0 0)
(0 0 0)
(0 0 0)
(0 0 0)
(0 0 0)
(0 0 0)
(0 0 0)
(0 0 0)
(0 0 0)
(0 0 0)
(0 0 0)
(0 0 0)
(0 0 0)
(0 0 0)
(0 0 0)
(0 0 0)
(0 1.26389e-06 0)
(0 9.49551e-05 0)
(0 0.000165395 0)
(0 0.000458622 0)
(0 0.000594207 0)
(0 0.000246623 0)
(0 0.000333488 0)
(0 0.000730994 0)
(0 0.00086349 0)
(0 0.000594391 0)
(0 0.000655239 0)
(0 0.000896116 0)
(0 0.00110028 0)
(0 0.000828052 0)
(0 0.000880509 0)
(0 0.0011617 0)
(0 0.00131876 0)
(0 0.00101548 0)
(0 0.00105162 0)
(0 0.00136061 0)
(0 0.0014499 0)
(0 0.00112897 0)
(0 0.00114364 0)
(0 0.00146679 0)
(0 0.00149617 0)
(0 0.00116968 0)
(0 0.00115545 0)
(0 0.00148039 0)
(0 0.0014499 0)
(0 0.00112897 0)
(0 0.00110862 0)
(0 0.00142644 0)
(0 0.00131876 0)
(0 0.00101548 0)
(0 0.00097466 0)
(0 0.0012714 0)
(0 0.00110028 0)
(0 0.000828052 0)
(0 0.000772658 0)
(0 0.00103516 0)
(0 0.00086349 0)
(0 0.000594391 0)
(0 0.000399703 0)
(0 0.000333488 0)
(0 0.000730994 0)
(0 0.000594207 0)
(0 0.000246623 0)
(0 0.000165395 0)
(0 0.000458622 0)
(0 9.49551e-05 0)
(0 1.26389e-06 0)
(0 0 0)
(0 0 0)
(0 0 0)
(0 0 0)
(0 0 0)
(0 0 0)
(0 0 0)
(0 0 0)
(0 0 0)
(0 0 0)
(0 0 0)
(0 0 0)
(0 0 0)
(0 0 0)
(0 0 0)
(0 0 0)
(0 0 0)
(0 0 0)
(0 0 0)
(0 0 0)
(0 0 0)
(0 0 0)
(0 0 0)
(0 0 0)
(0 0 0)
(0 0 0)
(0 0 0)
(0 0 0)
(0 0 0)
(0 0 0)
(0 0 0)
(0 4.64177e-05 0)
(0 1.67887e-05 0)
(0 0 0)
(0 7.29915e-05 0)
(0 0.000121942 0)
(0 3.73323e-06 0)
(0 1.63178e-05 0)
(0 0.000175728 0)
(0 0.000230229 0)
(0 3.44082e-05 0)
(0 5.47878e-05 0)
(0 0.000281727 0)
(0 0.000326992 0)
(0 7.46482e-05 0)
(0 9.16581e-05 0)
(0 0.000363354 0)
(0 0.000388759 0)
(0 0.00010402 0)
(0 0.00011051 0)
(0 0.000401815 0)
(0 0.000412262 0)
(0 0.000116055 0)
(0 0.00011051 0)
(0 0.000401815 0)
(0 0.000388759 0)
(0 0.00010402 0)
(0 9.16581e-05 0)
(0 0.000363354 0)
(0 0.000326992 0)
(0 7.46482e-05 0)
(0 5.47878e-05 0)
(0 0.000281727 0)
(0 0.000230229 0)
(0 3.44082e-05 0)
(0 1.63178e-05 0)
(0 0.000175728 0)
(0 0.000121942 0)
(0 3.73323e-06 0)
(0 0 0)
(0 7.29915e-05 0)
(0 4.64177e-05 0)
(0 0 0)
(0 0 0)
(0 0 0)
(0 1.67887e-05 0)
(0 0 0)
(0 0 0)
(0 0 0)
(0 0 0)
(0 0 0)
(0 0 0)
(0 0 0)
(0 0 0)
(0 0 0)
(0 0 0)
(0 0 0)
(0 0 0)
(0 0 0)
(0 0 0)
(0 0 0)
(0 0 0)
(0 0 0)
(0 0 0)
(0 0 0)
(0 0 0)
(0 0 0)
(0 0 0)
(0 0 0)
(0 0 0)
(0 0 0)
(0 0 0)
(0 0 0)
(0 0 0)
(0 0 0)
(0 0 0)
(0 0 0)
(0 0 0)
(0 0 0)
(0 0 0)
(0 0 0)
(0 0 0)
(0 0 0)
(0 0 0)
(0 0 0)
(0 0 0)
(0 3.35502e-07 0)
(0 0 0)
(0 0 0)
(0 1.29112e-06 0)
(0 7.68198e-07 0)
(0 0 0)
(0 3.35502e-07 0)
(0 7.68198e-07 0)
(0 0 0)
(0 0 0)
(0 0 0)
(0 0 0)
(0 0 0)
(0 0 0)
(0 0 0)
(0 0 0)
(0 0 0)
(0 0 0)
(0 0 0)
(0 0 0)
(0 0 0)
(0 0 0)
(0 0 0)
(0 0 0)
(0 0 0)
(0 0 0)
(0 0 0)
(0 0 0)
(0 0 0)
(0 0 0)
(0 0 0)
(0 0 0)
(0 0 0)
(0 0 0)
(0 0 0)
(0 0 0)
(0 0 0)
(0 0 0)
(0 0 0)
(0 0 0)
(0 0 0)
(0 0 0)
(0 0 0)
(0 0 0)
(0 0 0)
(0 0 0)
(0 0 0)
(0 0 0)
(0 0 0)
(0 0 0)
(0 0 0)
(0 0 0)
(0 0 0)
(0 0 0)
(0 0 0)
(0 0 0)
(0 0 0)
(0 0 0)
(0 0 0)
(0 0 0)
(0 0 0)
(0 0 0)
(0 0 0)
(0 0 0)
(0 0 0)
(0 0 0)
(0 0 0)
(0 0 0)
(0 0 0)
(0 0 0)
(0 0 0)
(0 0 0)
(0 0 0)
(0 0 0)
(0 0 0)
(0 0 0)
(0 0 0)
(0 0 0)
(0 0 0)
(0 0 0)
(0 0 0)
(0 0 0)
(0 0 0)
(0 0 0)
(0 0 0)
(0 0 0)
(0 0 0)
(0 0 0)
(0 0 0)
(0 0 0)
(0 0 0)
(0 0 0)
(0 0 0)
(0 0 0)
(0 0 0)
(0 0 0)
(0 0 0)
(0 0 0)
(0 0 0)
(0 0 0)
(0 0 0)
(0 0 0)
(0 0 0)
(0 0 0)
(0 0 0)
(0 0 0)
(0 0 0)
(0 0 0)
(0 0 0)
(0 0 0)
(0 0 0)
(0 0 0)
(0 0 0)
(0 0 0)
(0 0 0)
(0 0 0)
(0 0 0)
(0 0 0)
(0 0 0)
(0 0 0)
(0 0 0)
(0 0 0)
(0 0 0)
(0 0 0)
(0 0 0)
(0 0 0)
(0 0 0)
(0 0 0)
(0 0 0)
(0 0 0)
(0 0 0)
(0 0 0)
(0 0 0)
(0 0 0)
(0 0 0)
(0 0 0)
(0 0 0)
(0 0 0)
(0 0 0)
(0 0 0)
(0 0 0)
(0 0 0)
(0 0 0)
(0 0 0)
(0 0 0)
(0 0 0)
(0 0 0)
(0 0 0)
(0 0 0)
(0 0 0)
(0 0 0)
(0 0 0)
(0 0 0)
(0 0 0)
(0 0 0)
(0 0 0)
(0 0 0)
(0 0 0)
(0 0 0)
(0 0 0)
(0 0 0)
(0 0 0)
(0 0 0)
(0 0 0)
(0 0 0)
(0 0 0)
(0 0 0)
(0 0 0)
(0 0 0)
(0 0 0)
(0 0 0)
(0 0 0)
(0 0 0)
(0 0 0)
(0 0 0)
(0 0 0)
(0 0 0)
(0 0 0)
(0 0 0)
(0 0 0)
(0 0 0)
(0 0 0)
(0 0 0)
(0 0 0)
(0 0 0)
(0 0 0)
(0 0 0)
(0 0 0)
(0 0 0)
(0 0 0)
(0 0 0)
(0 0 0)
(0 0 0)
(0 0 0)
(0 0 0)
(0 0 0)
(0 0 0)
(0 0 0)
(0 0 0)
(0 0 0)
(0 0 0)
(0 0 0)
(0 0 0)
(0 0 0)
(0 0 0)
(0 0 0)
(0 0 0)
(0 0 0)
(0 0 0)
(0 0 0)
(0 0 0)
(0 0 0)
(0 0 0)
(0 0 0)
(0 0 0)
(0 0 0)
(0 0 0)
(0 0 0)
(0 0 0)
(0 0 0)
(0 0 0)
(0 0 0)
(0 0 0)
(0 0 0)
(0 0 0)
(0 0 0)
(0 0 0)
(0 0 0)
(0 0 0)
(0 0 0)
(0 0 0)
(0 0 0)
(0 0 0)
(0 0 0)
(0 0 0)
(0 0 0)
(0 0 0)
(0 0 0)
(0 0 0)
(0 0 0)
(0 0 0)
(0 0 0)
(0 0 0)
(0 0 0)
(0 0 0)
(0 0 0)
(0 0 0)
(0 0 0)
(0 0 0)
(0 0 0)
(0 0 0)
(0 0 0)
(0 0 0)
(0 0 0)
(0 0 0)
(0 0 0)
(0 0 0)
(0 0 0)
(0 0 0)
(0 0 0)
(0 0 0)
(0 0 0)
(0 0 0)
(0 0 0)
(0 0 0)
(0 0 0)
(0 0 0)
(0 0 0)
(0 0 0)
(0 0 0)
(0 0 0)
(0 0 0)
(0 0 0)
(0 0 0)
(0 0 0)
(0 0 0)
(0 0 0)
(0 0 0)
(0 0 0)
(0 0 0)
(0 0 0)
(0 0 0)
(0 0 0)
(0 0 0)
(0 0 0)
(0 0 0)
(0 0 0)
(0 0 0)
(0 0 0)
(0 0 0)
(0 0 0)
(0 0 0)
(0 0 0)
(0 0 0)
(0 0 0)
(0 0 0)
(0 0 0)
(0 0 0)
(0 0 0)
(0 0 0)
(0 0 0)
(0 0 0)
(0 0 0)
(0 0 0)
(0 0 0)
(0 0 0)
(0 0 0)
(0 0 0)
(0 0 0)
(0 0 0)
(0 0 0)
(0 0 0)
(0 0 0)
(0 0 0)
(0 0 0)
(0 0 0)
(0 0 0)
(0 0 0)
(0 0 0)
(0 0 0)
(0 0 0)
(0 0 0)
(0 0 0)
(0 0 0)
(0 0 0)
(0 0 0)
(0 0 0)
(0 0 0)
(0 0 0)
(0 0 0)
(0 0 0)
(0 0 0)
(0 0 0)
(0 0 0)
(0 0 0)
(0 0 0)
(0 0 0)
(0 0 0)
(0 0 0)
(0 0 0)
(0 0 0)
(0 0 0)
(0 0 0)
(0 0 0)
(0 0 0)
(0 0 0)
(0 0 0)
(0 0 0)
(0 0 0)
(0 0 0)
(0 0 0)
(0 0 0)
(0 0 0)
(0 0 0)
(0 0 0)
(0 0 0)
(0 0 0)
(0 0 0)
(0 0 0)
(0 0 0)
(0 0 0)
(0 0 0)
(0 0 0)
(0 0 0)
(0 0 0)
(0 0 0)
(0 0 0)
(0 0 0)
(0 0 0)
(0 0 0)
(0 0 0)
(0 0 0)
(0 0 0)
(0 0 0)
(0 0 0)
(0 0 0)
(0 0 0)
(0 0 0)
(0 0 0)
(0 0 0)
(0 0 0)
(0 0 0)
(0 0 0)
(0 0 0)
(0 0 0)
(0 0 0)
(0 0 0)
(0 0 0)
(0 0 0)
(0 0 0)
(0 0 0)
(0 0 0)
(0 0 0)
(0 0 0)
(0 0 0)
(0 0 0)
(0 0 0)
(0 0 0)
(0 0 0)
(0 0 0)
(0 0 0)
(0 0 0)
(0 0 0)
(0 0 0)
(0 0 0)
(0 0 0)
(0 0 0)
(0 0 0)
(0 0 0)
(0 0 0)
(0 0 0)
(0 0 0)
(0 0 0)
(0 0 0)
(0 0 0)
(0 0 0)
(0 0 0)
(0 0 0)
(0 0 0)
(0 0 0)
(0 0 0)
(0 0 0)
(0 0 0)
(0 0 0)
(0 0 0)
(0 0 0)
(0 0 0)
(0 0 0)
(0 0 0)
(0 0 0)
(0 0 0)
(0 0 0)
(0 0 0)
(0 0 0)
(0 0 0)
(0 0 0)
(0 0 0)
(0 0 0)
(0 0 0)
(0 0 0)
(0 0 0)
(0 0 0)
(0 0 0)
(0 0 0)
(0 0 0)
(0 0 0)
(0 0 0)
(0 0 0)
(0 0 0)
(0 0 0)
(0 0 0)
(0 0 0)
(0 0 0)
(0 0 0)
(0 0 0)
(0 0 0)
(0 0 0)
(0 0 0)
(0 0 0)
(0 0 0)
(0 0 0)
(0 0 0)
(0 0 0)
(0 0 0)
(0 0 0)
(0 0 0)
(0 0 0)
(0 0 0)
(0 0 0)
(0 0 0)
(0 0 0)
(0 0 0)
(0 0 0)
(0 0 0)
(0 0 0)
(0 0 0)
(0 0 0)
(0 0 0)
(0 0 0)
(0 0 0)
(0 0 0)
(0 0 0)
(0 0 0)
(0 0 0)
(0 0 0)
(0 0 0)
(0 0 0)
(0 0 0)
(0 0 0)
(0 0 0)
(0 0 0)
(0 0 0)
(0 0 0)
(0 0 0)
(0 0 0)
(0 0 0)
(0 0 0)
(0 0 0)
(0 0 0)
(0 0 0)
(0 0 0)
(0 0 0)
(0 0 0)
(0 0 0)
(0 0 0)
(0 0 0)
(0 0 0)
(0 0 0)
(0 0 0)
(0 0 0)
(0 0 0)
(0 0 0)
(0 0 0)
(0 0 0)
(0 0 0)
(0 0 0)
(0 0 0)
(0 0 0)
(0 0 0)
(0 0 0)
(0 0 0)
(0 0 0)
(0 0 0)
(0 0 0)
(0 0 0)
(0 0 0)
(0 0 0)
(0 0 0)
(0 0 0)
(0 0 0)
(0 0 0)
(0 0 0)
(0 0 0)
(0 0 0)
(0 0 0)
(0 0 0)
(0 0 0)
(0 0 0)
(0 0 0)
(0 0 0)
(0 0 0)
(0 0 0)
(0 0 0)
(0 0 0)
(0 0 0)
(0 0 0)
(0 0 0)
(0 0 0)
(0 0 0)
(0 0 0)
(0 0 0)
(0 0 0)
(0 0 0)
(0 0 0)
(0 0 0)
(0 0 0)
(0 0 0)
(0 0 0)
(0 0 0)
(0 0 0)
(0 0 0)
(0 0 0)
(0 0 0)
(0 0 0)
(0 0 0)
(0 0 0)
(0 0 0)
(0 0 0)
(0 0 0)
(0 0 0)
(0 0 0)
(0 0 0)
(0 0 0)
(0 0 0)
(0 0 0)
(0 0 0)
(0 0 0)
(0 0 0)
(0 0 0)
(0 0 0)
(0 0 0)
(0 0 0)
(0 0 0)
(0 0 0)
(0 0 0)
(0 0 0)
(0 0 0)
(0 0 0)
(0 0 0)
(0 0 0)
(0 0 0)
(0 0 0)
(0 0 0)
(0 0 0)
(0 0 0)
(0 0 0)
(0 0 0)
(0 0 0)
(0 0 0)
(0 0 0)
(0 0 0)
(0 0 0)
(0 0 0)
(0 0 0)
(0 0 0)
(0 0 0)
(0 0 0)
(0 0 0)
(0 0 0)
(0 0 0)
(0 0 0)
(0 0 0)
(0 0 0)
(0 0 0)
(0 0 0)
(0 0 0)
(0 0 0)
(0 0 0)
(0 0 0)
(0 0 0)
(0 0 0)
(0 0 0)
(0 0 0)
(0 0 0)
(0 0 0)
(0 0 0)
(0 0 0)
(0 0 0)
(0 0 0)
(0 0 0)
(0 0 0)
(0 0 0)
(0 0 0)
(0 0 0)
(0 0 0)
(0 0 0)
(0 0 0)
(0 0 0)
(0 0 0)
(0 0 0)
(0 0 0)
(0 0 0)
(0 0 0)
(0 0 0)
(0 0 0)
(0 0 0)
(0 0 0)
(0 0 0)
(0 0 0)
(0 0 0)
(0 0 0)
(0 0 0)
(0 0 0)
(0 0 0)
(0 0 0)
(0 0 0)
(0 0 0)
(0 0 0)
(0 0 0)
(0 0 0)
(0 0 0)
(0 0 0)
(0 0 0)
(0 0 0)
(0 0 0)
(0 0 0)
(0 0 0)
(0 0 0)
(0 0 0)
(0 0 0)
(0 0 0)
(0 0 0)
(0 0 0)
(0 0 0)
(0 0 0)
(0 0 0)
(0 0 0)
(0 0 0)
(0 0 0)
(0 0 0)
(0 0 0)
(0 0 0)
(0 0 0)
(0 0 0)
(0 0 0)
(0 0 0)
(0 0 0)
(0 0 0)
(0 0 0)
(0 0 0)
(0 0 0)
(0 0 0)
(0 0 0)
(0 0 0)
(0 0 0)
(0 0 0)
(0 0 0)
(0 0 0)
(0 0 0)
(0 0 0)
(0 0 0)
(0 0 0)
(0 0 0)
(0 0 0)
(0 0 0)
(0 0 0)
(0 0 0)
(0 0 0)
(0 0 0)
(0 0 0)
(0 0 0)
(0 0 0)
(0 0 0)
(0 0 0)
(0 0 0)
(0 0 0)
(0 0 0)
(0 0 0)
(0 0 0)
(0 0 0)
(0 0 0)
(0 0 0)
(0 0 0)
(0 0 0)
(0 0 0)
(0 0 0)
(0 0 0)
(0 0 0)
(0 0 0)
(0 0 0)
(0 0 0)
(0 0 0)
(0 0 0)
(0 0 0)
(0 0 0)
(0 0 0)
(0 0 0)
(0 0 0)
(0 0 0)
(0 0 0)
(0 0 0)
(0 0 0)
(0 0 0)
(0 0 0)
(0 0 0)
(0 0 0)
(0 0 0)
(0 0 0)
(0 0 0)
(0 0 0)
(0 0 0)
(0 0 0)
(0 0 0)
(0 0 0)
(0 0 0)
(0 0 0)
(0 0 0)
(0 0 0)
(0 0 0)
(0 0 0)
(0 0 0)
(0 0 0)
(0 0 0)
(0 0 0)
(0 0 0)
(0 0 0)
(0 0 0)
(0 0 0)
(0 0 0)
(0 0 0)
(0 0 0)
(0 0 0)
(0 0 0)
(0 0 0)
(0 0 0)
(0 0 0)
(0 0 0)
(0 0 0)
(0 0 0)
(0 0 0)
(0 0 0)
(0 0 0)
(0 0 0)
(0 0 0)
(0 0 0)
(0 0 0)
(0 0 0)
(0 0 0)
(0 0 0)
(0 0 0)
(0 0 0)
(0 0 0)
(0 0 0)
(0 0 0)
(0 0 0)
(0 0 0)
(0 0 0)
(0 0 0)
(0 0 0)
(0 0 0)
(0 0 0)
(0 0 0)
(0 0 0)
(0 0 0)
(0 0 0)
(0 0 0)
(0 0 0)
(0 0 0)
(0 0 0)
(0 0 0)
(0 0 0)
(0 0 0)
(0 0 0)
(0 0 0)
(0 0 0)
(0 0 0)
(0 0 0)
(0 0 0)
(0 0 0)
(0 0 0)
(0 0 0)
(0 0 0)
(0 0 0)
(0 0 0)
(0 0 0)
(0 0 0)
(0 0 0)
(0 0 0)
(0 0 0)
(0 0 0)
(0 0 0)
(0 0 0)
(0 0 0)
(0 0 0)
(0 0 0)
(0 0 0)
(0 0 0)
(0 0 0)
(0 0 0)
(0 0 0)