/*--------------------------------*- C++ -*----------------------------------*\
| =========                 |                                                 |
| \\      /  F ield         | OpenFOAM: The Open Source CFD Toolbox           |
|  \\    /   O peration     | Version:  v2106                                 |
|   \\  /    A nd           | Website:  www.openfoam.com                      |
|    \\/     M anipulation  |                                                 |
\*---------------------------------------------------------------------------*/
FoamFile
{
    version     2.0;
    format      ascii;
    arch        "LSB;label=32;scalar=64";
    class       volScalarField;
    location    "0";
    object      p;
}
// * * * * * * * * * * * * * * * * * * * * * * * * * * * * * * * * * * * * * //

dimensions      [0 2 -2 0 0 0 0];

internalField   nonuniform List<scalar> 
11644
(
0.0577126
0.0581064
0.0589341
0.0602048
0.0619135
0.0640566
0.0666304
0.0696259
0.0730216
0.0767778
0.080834
0.0851002
0.0894516
0.0937238
0.0977208
0.101264
0.104097
0.105985
0.106778
0.106438
0.104971
0.102366
0.0986383
0.0939336
0.0885562
0.0827877
0.0768476
0.070922
0.0652011
0.0598221
0.0548747
0.0504227
0.0464982
0.0431086
0.0402488
0.037905
0.0360606
0.0347022
0.0338232
0.0334047
0.0570219
0.0574132
0.0582217
0.0594637
0.0611454
0.063271
0.0658429
0.0688581
0.0723027
0.0761483
0.0803459
0.0848098
0.0894166
0.0940113
0.0983911
0.102294
0.105482
0.107705
0.108769
0.108526
0.106936
0.10408
0.10009
0.0950889
0.0893101
0.0830844
0.0767379
0.0704969
0.0645232
0.0589705
0.0539282
0.049435
0.0455074
0.0421423
0.0393233
0.0370294
0.0352377
0.033927
0.0330774
0.0326655
0.0555118
0.0559159
0.0567196
0.0579342
0.0595806
0.0616786
0.064243
0.0672855
0.0708129
0.074822
0.0792837
0.0841485
0.0893191
0.0946139
0.0997964
0.104591
0.108664
0.111695
0.113356
0.113382
0.11159
0.108115
0.103242
0.0973139
0.0906207
0.0834991
0.076323
0.0694191
0.0629897
0.0571421
0.0519343
0.0473855
0.0434756
0.0401744
0.0374437
0.0352446
0.0335399
0.0322943
0.0314751
0.0310664
0.0532066
0.053607
0.0543965
0.0555787
0.0571792
0.0592317
0.0617703
0.0648304
0.068448
0.072656
0.0774841
0.0829254
0.0888893
0.095239
0.101761
0.108057
0.113664
0.118177
0.120963
0.121503
0.119511
0.115103
0.108681
0.100886
0.0924646
0.0838025
0.07533
0.0674358
0.0603283
0.0541028
0.0487323
0.0441629
0.040332
0.0371637
0.0345872
0.0325383
0.0309622
0.0298119
0.029051
0.0286667
0.0501601
0.0505328
0.0512734
0.0523892
0.0539084
0.0558729
0.0583358
0.0613607
0.0650224
0.0694048
0.074583
0.0805997
0.0875085
0.0952683
0.103691
0.112305
0.120375
0.127582
0.13238
0.133866
0.131601
0.125707
0.116795
0.10598
0.0948346
0.0836707
0.0732615
0.0640279
0.0561087
0.0494911
0.0440514
0.0395991
0.0359785
0.0330645
0.0307456
0.0289323
0.0275533
0.0265533
0.0258976
0.0255696
0.0464307
0.0467549
0.0474046
0.0483999
0.0497711
0.0515664
0.0538533
0.0567228
0.0602901
0.0646674
0.0699748
0.076423
0.0842423
0.0936255
0.1047
0.116866
0.128914
0.140474
0.148933
0.152502
0.1499
0.141161
0.127962
0.11215
0.0968142
0.0820243
0.0690615
0.0583487
0.0497151
0.0428953
0.0375922
0.0334967
0.0303205
0.0278501
0.0259426
0.0244878
0.0234044
0.0226345
0.0221362
0.0218911
0.042105
0.0423537
0.0428695
0.0436696
0.0447961
0.0463003
0.048258
0.0507742
0.0539764
0.0580028
0.0631039
0.0696017
0.0779055
0.088801
0.102949
0.119698
0.132246
0.149183
0.163678
0.172454
0.172161
0.161955
0.14446
0.123673
0.0964916
0.0766936
0.060826
0.0488415
0.0402011
0.0337991
0.0291181
0.025744
0.0233276
0.0215653
0.0202714
0.019328
0.0186504
0.0181842
0.0178905
0.017745
0.0372588
0.0374309
0.0377685
0.0383058
0.039076
0.0401326
0.0415511
0.0434379
0.0459042
0.0491285
0.0534371
0.0592981
0.0671962
0.0779083
0.092861
0.111929
0.137846
0.165912
0.193272
0.211687
0.213052
0.195342
0.164616
0.130461
0.0975285
0.0724134
0.0540812
0.0340418
0.0265593
0.0216424
0.0184456
0.0163849
0.0151232
0.0143709
0.0139075
0.0136289
0.0134666
0.0133742
0.0133299
0.0133147
0.0320804
0.0321254
0.0322396
0.0324391
0.0327416
0.0331938
0.0338514
0.0347964
0.036104
0.0379707
0.0406664
0.044561
0.0502823
0.063171
0.0773517
0.0993857
0.128411
0.17283
0.221024
0.263051
0.274574
0.245341
0.191564
0.134234
0.0891934
0.0513151
0.0325375
0.0122054
0.0083345
0.00635652
0.00563235
0.00562651
0.00599388
0.00655177
0.00712628
0.00764805
0.00809128
0.00843697
0.0086698
0.00878294
0.0267198
0.0266419
0.026502
0.0262924
0.0260385
0.0257483
0.0254476
0.0251516
0.0248594
0.0246779
0.0247647
0.0252708
0.0261065
0.0364557
0.0447613
0.065482
0.097448
0.152442
0.240189
0.344738
0.389785
0.323916
0.206346
0.111216
0.0457673
0.00596442
-0.00440676
-0.0164956
-0.0141246
-0.0115214
-0.00869472
-0.00597539
-0.00355399
-0.00144293
0.000312764
0.00171655
0.00280156
0.00359874
0.00412252
0.00439262
0.0213821
0.0211851
0.0207705
0.020149
0.0192945
0.0181751
0.0167705
0.0149997
0.0127579
0.00993007
0.00636638
0.00205498
-0.00345722
-0.00159403
-0.00483912
-0.00166029
0.00869749
0.0347608
0.134232
0.380723
0.585701
0.361427
0.098928
-0.0190409
-0.0580488
-0.066019
-0.0554498
-0.0501272
-0.0392553
-0.0303843
-0.0231831
-0.017386
-0.0127261
-0.00899894
-0.00605359
-0.00377351
-0.00205482
-0.000828435
-3.3032e-05
0.00035224
0.0164226
0.0160726
0.0153852
0.014336
0.0128713
0.0109233
0.00837856
0.00505883
0.000755426
-0.00486937
-0.0123583
-0.0222568
-0.0352931
-0.0406902
-0.0636974
-0.0854625
-0.129738
-0.230303
-0.505571
-0.564002
-0.315717
-0.209959
-0.15216
-0.110363
-0.0831795
-0.0624854
-0.0472368
-0.0358606
-0.0272045
-0.0205327
-0.0153867
-0.0114162
-0.00839534
-0.00614885
-0.00456865
-0.0035608
-0.00307956
0.0119929
0.0115644
0.0106752
0.0092557
0.00724737
0.00454541
0.000965008
-0.00373414
-0.00986124
-0.0179171
-0.0286284
-0.043122
-0.0624826
-0.0761067
-0.111883
-0.151297
-0.223235
-0.363735
-0.510985
-0.757014
-0.525011
-0.325163
-0.214888
-0.151678
-0.104097
-0.0776549
-0.0585223
-0.0444155
-0.0338767
-0.0259177
-0.0198653
-0.0152409
-0.0117531
-0.00918773
-0.00738103
-0.00624072
-0.00565648
0.00833357
0.00787222
0.00681751
0.00514003
0.00273903
-0.000503544
-0.00481817
-0.0104548
-0.017768
-0.0273907
-0.0400103
-0.0568642
-0.0791897
-0.0985779
-0.137078
-0.179103
-0.240019
-0.31702
-0.341679
-0.64368
-0.527806
-0.345136
-0.223283
-0.159848
-0.105782
-0.0804448
-0.0612772
-0.0469683
-0.0361893
-0.0280515
-0.021863
-0.0171264
-0.0135303
-0.0108892
-0.0090333
-0.00786186
-0.00740007
0.00565452
0.00515694
0.00402836
0.00222689
-0.000348235
-0.0038074
-0.00838171
-0.0143379
-0.0220287
-0.0320817
-0.0451472
-0.0623834
-0.0846925
-0.106495
-0.14523
-0.188827
-0.245903
-0.304005
-0.298849
-0.375054
-0.472513
-0.645528
-0.680945
-0.464218
-0.281066
-0.178271
-0.132671
-0.0890729
-0.0698911
-0.0547769
-0.0429589
-0.0337949
-0.026683
-0.0211754
-0.0169173
-0.0136432
-0.0112173
-0.00950544
-0.00840652
-0.00791175
0.00422518
0.0036406
0.00251528
0.000760142
-0.00174305
-0.00509261
-0.0094488
-0.0150644
-0.0223182
-0.0317052
-0.0437887
-0.0595518
-0.080281
-0.103215
-0.141407
-0.196388
-0.267697
-0.388757
-0.483286
-0.58001
-0.593661
-0.520838
-0.350414
-0.195838
-0.137934
-0.095167
-0.0819724
-0.057847
-0.048733
-0.040769
-0.0336583
-0.0274872
-0.0223055
-0.0180963
-0.0147205
-0.0120918
-0.0101249
-0.00872611
-0.00778607
-0.00712057
0.00393613
0.00338856
0.00234561
0.000760161
-0.00144286
-0.00436311
-0.00813822
-0.012976
-0.0191249
-0.0269152
-0.036871
-0.0499206
-0.0670765
-0.0907553
-0.122637
-0.174346
-0.250637
-0.395303
-0.601989
-0.724817
-0.669362
-0.383199
-0.0621499
0.044682
0.0201992
-0.00893809
-0.0187067
-0.0220661
-0.0237805
-0.0232461
-0.021275
-0.0186665
-0.0159562
-0.0133338
-0.0110352
-0.00917183
-0.00771078
-0.00661233
-0.0058736
-0.00558432
0.00449662
0.00408502
0.00325738
0.00199231
0.00024139
-0.00203484
-0.00490857
-0.00854603
-0.013079
-0.0186879
-0.0256722
-0.0348452
-0.046961
-0.0632866
-0.0916508
-0.127438
-0.184209
-0.273332
-0.419272
-0.549044
-0.528872
-0.294697
-0.0166739
0.125823
0.0865351
0.0419383
0.0153079
0.00328337
-0.00437048
-0.00785514
-0.00935819
-0.0095575
-0.00893174
-0.00783327
-0.00665611
-0.00557048
-0.00462346
-0.00390815
-0.00347624
-0.00336982
0.005787
0.00552792
0.00496128
0.00408789
0.00291184
0.00143442
-0.000322468
-0.00239309
-0.00484906
-0.00782807
-0.0114724
-0.0160271
-0.0224104
-0.030972
-0.0524916
-0.0710252
-0.107675
-0.148114
-0.210713
-0.27811
-0.28085
-0.184674
-0.0336431
0.0683196
0.0567657
0.0397673
0.0228538
0.0113486
0.00504496
0.00124086
-0.0010986
-0.0022264
-0.00264398
-0.00256394
-0.00228226
-0.00189501
-0.00149997
-0.00120303
-0.00100656
-0.000894078
0.00759613
0.00746202
0.00715987
0.00670231
0.00613121
0.0054798
0.00482222
0.00427678
0.00383831
0.00345923
0.00312572
0.00293266
0.00173607
0.00019668
-0.0131165
-0.0239492
-0.049176
-0.082879
-0.1294
-0.18249
-0.215642
-0.195834
-0.129527
-0.0637405
-0.0245617
0.00231917
0.00925599
0.00691603
0.00607926
0.00471852
0.0035481
0.00275181
0.00219372
0.00182926
0.00162925
0.00157035
0.00158498
0.00163102
0.00170349
0.00178538
0.00967682
0.00961009
0.00952551
0.00945511
0.009433
0.00952013
0.00978266
0.0103409
0.0113709
0.013033
0.0154202
0.0183655
0.0218912
0.0244737
0.0172722
0.0115593
-0.00797191
-0.0481139
-0.123932
-0.229777
-0.318151
-0.340405
-0.292462
-0.201007
-0.0959675
-0.0343946
-0.00806456
-0.000354948
0.00441506
0.00596745
0.00633076
0.00621624
0.00584164
0.00543165
0.0051087
0.00487975
0.00472517
0.00463781
0.00460907
0.00461121
0.0118132
0.0118107
0.011905
0.0121353
0.0125259
0.0131703
0.0141462
0.0155263
0.0175279
0.0204673
0.0245248
0.0298907
0.036879
0.0431515
0.0461841
0.0362422
0.0127865
-0.0465712
-0.153912
-0.289816
-0.387391
-0.394211
-0.321699
-0.20735
-0.106219
-0.0365346
-0.0145987
-0.00173714
0.00489812
0.0078511
0.00904433
0.00933173
0.00914591
0.00879693
0.00841828
0.00808039
0.007812
0.00761898
0.00750482
0.00745089
0.0138125
0.0139186
0.014167
0.0145987
0.015258
0.0162185
0.0176304
0.0195679
0.022197
0.0257379
0.030353
0.0362794
0.043793
0.0514843
0.049505
0.0315604
-0.00554338
-0.0637361
-0.139911
-0.206489
-0.234302
-0.217084
-0.166362
-0.104332
-0.0563445
-0.0254395
-0.00708126
0.00359961
0.00896505
0.0115991
0.0126216
0.0127978
0.0125529
0.012124
0.0116191
0.0111324
0.0107168
0.0103967
0.0101882
0.0101131
0.0155409
0.0157224
0.0160674
0.016608
0.0173883
0.0184587
0.0199615
0.0219778
0.0246156
0.0279912
0.0322048
0.0367501
0.0416569
0.0449712
0.0373008
0.0156442
-0.0226179
-0.0720194
-0.118381
-0.146546
-0.144999
-0.125253
-0.0907953
-0.0536433
-0.0255946
-0.00730935
0.00508425
0.0117553
0.0151511
0.0165774
0.0168338
0.0164907
0.0158775
0.0151986
0.014512
0.0138865
0.013361
0.012946
0.0126491
0.0125103
0.0169631
0.0171607
0.0175191
0.0180641
0.0188178
0.0198104
0.0210918
0.0226765
0.0246379
0.0268501
0.0292294
0.0307686
0.0301525
0.0246248
0.00945263
-0.0172177
-0.0511733
-0.087855
-0.114144
-0.122549
-0.115208
-0.0876805
-0.0560024
-0.0278756
-0.0074554
0.00659258
0.0153159
0.0197676
0.0215678
0.0217248
0.0210883
0.0200775
0.0189323
0.0178852
0.0169641
0.0162085
0.015618
0.0151712
0.0148565
0.0146265
0.0180863
0.0182611
0.0185827
0.019052
0.0196674
0.0204231
0.0213028
0.0222325
0.0231297
0.0237225
0.0235315
0.0218632
0.0155415
0.00243696
-0.0215983
-0.0546774
-0.0971284
-0.138929
-0.165746
-0.169288
-0.150197
-0.110781
-0.0667556
-0.0303576
-0.00326231
0.0131966
0.021948
0.0258195
0.0269228
0.0260983
0.024734
0.0231207
0.0215387
0.0201416
0.0189914
0.0180784
0.0173758
0.0168698
0.0165366
0.0163496
0.0189759
0.0191062
0.0193456
0.0196844
0.020118
0.0205877
0.021049
0.0214519
0.021408
0.0208637
0.0186749
0.0142942
0.0046386
-0.0127133
-0.0437591
-0.0850564
-0.140658
-0.189328
-0.225556
-0.227765
-0.192001
-0.139877
-0.0841608
-0.0409606
-0.00805905
0.0138095
0.0253526
0.0296613
0.0303312
0.0289169
0.0271366
0.0251636
0.0233616
0.021813
0.0205384
0.0195128
0.0187206
0.018151
0.0177958
0.0177367
0.0197035
0.019782
0.0199413
0.0201692
0.020449
0.0207263
0.0209357
0.020967
0.0205275
0.0193117
0.0163895
0.0110408
0.00037597
-0.0176935
-0.0488778
-0.0889005
-0.138488
-0.184554
-0.223074
-0.227487
-0.186746
-0.137905
-0.0849102
-0.0430696
-0.0114199
0.0108438
0.0238487
0.0306036
0.0318694
0.0300597
0.028163
0.0261514
0.0243799
0.0228795
0.0216232
0.02061
0.0198417
0.0193156
0.0190045
0.0189118
0.0202607
0.0203075
0.0204571
0.0206609
0.0208901
0.021083
0.0211836
0.021083
0.0205833
0.0193511
0.0169317
0.0123363
0.00384967
-0.0100158
-0.0346832
-0.0672595
-0.103337
-0.139018
-0.16663
-0.174268
-0.154023
-0.122168
-0.0840981
-0.0472693
-0.0171968
0.00592782
0.0207656
0.028758
0.0308927
0.0298251
0.0281107
0.0262852
0.0247254
0.0233771
0.0222395
0.0213328
0.0206535
0.0201792
0.0198687
0.0196909
0.020702
0.020805
0.0209445
0.0211321
0.0213385
0.0215312
0.0216547
0.0215894
0.0212913
0.0205411
0.0190054
0.0162071
0.0111272
0.0026513
-0.012285
-0.0355101
-0.0618624
-0.0900632
-0.11128
-0.123742
-0.12284
-0.109769
-0.0832927
-0.0524259
-0.0240434
-0.00108301
0.0143297
0.0230488
0.0268202
0.0274562
0.0266187
0.0254385
0.0242348
0.0231386
0.0221907
0.0214264
0.0208328
0.0203992
0.0201084
0.019935
0.021026
0.0211521
0.0212894
0.0214629
0.0216692
0.0219004
0.0221268
0.0222926
0.0223724
0.0221991
0.0214876
0.0200539
0.0170342
0.0113262
0.0022797
-0.0129101
-0.0334543
-0.0578221
-0.0795344
-0.0959379
-0.103662
-0.0990046
-0.0814746
-0.057976
-0.0349103
-0.0148473
0.00141898
0.0131891
0.0199988
0.0227704
0.0235595
0.0234156
0.0228479
0.0221976
0.0215621
0.0210003
0.0205362
0.0201869
0.0199597
0.0198654
0.0211286
0.0211814
0.0213264
0.0215363
0.0218094
0.022147
0.0225523
0.023019
0.0235207
0.023925
0.0239617
0.0233723
0.0213483
0.016716
0.0080278
-0.00631695
-0.0277414
-0.053916
-0.0799768
-0.102189
-0.110926
-0.110371
-0.0986643
-0.0790567
-0.0567232
-0.033411
-0.0130369
0.00241846
0.0122985
0.0174103
0.0197957
0.0207527
0.0209999
0.0209481
0.02072
0.020431
0.0201432
0.0199097
0.0197442
0.0196693
0.0211122
0.021084
0.0212059
0.0214375
0.0217802
0.0222248
0.0227857
0.0234817
0.0242722
0.0251211
0.0257904
0.0257547
0.0238991
0.0187664
0.0083514
-0.00835081
-0.03258
-0.0622026
-0.0969126
-0.127393
-0.143454
-0.143861
-0.129337
-0.108428
-0.0803874
-0.0503539
-0.0251629
-0.00628808
0.0058573
0.0126835
0.0163053
0.0182344
0.0192188
0.0196763
0.0198191
0.0198014
0.0197109
0.0195988
0.0194939
0.0193892
0.0210308
0.0210377
0.0211387
0.0213443
0.0216833
0.0221484
0.022734
0.0234606
0.0243189
0.0252016
0.0261575
0.0260834
0.0234853
0.0177484
0.00673269
-0.0103735
-0.0344308
-0.064632
-0.101961
-0.136268
-0.161242
-0.160105
-0.141967
-0.118
-0.0857142
-0.054667
-0.0294036
-0.0103037
0.00227588
0.00975085
0.014124
0.0165091
0.0178863
0.0185896
0.0189414
0.019092
0.0191414
0.0191142
0.0190697
0.0189757
0.0207012
0.0207828
0.0209251
0.0211349
0.0214376
0.0218445
0.0223596
0.0229841
0.0237392
0.0245194
0.0249643
0.0241461
0.0204643
0.0133709
0.00203647
-0.0146541
-0.0363867
-0.063798
-0.0944074
-0.121009
-0.142616
-0.139204
-0.121529
-0.0986786
-0.0707203
-0.0455994
-0.0247806
-0.00836102
0.00279049
0.00958176
0.0137166
0.0159456
0.017229
0.0179337
0.018313
0.0184957
0.0185612
0.0185554
0.0185295
0.0185145
0.0200552
0.0201661
0.0203068
0.0204955
0.0207462
0.0210721
0.021465
0.0219075
0.0223494
0.0226744
0.0224253
0.0206725
0.0162494
0.00764767
-0.00523883
-0.0218392
-0.0425964
-0.0651051
-0.0860354
-0.100762
-0.106963
-0.101506
-0.0882092
-0.0693661
-0.0486658
-0.0297685
-0.0132068
-0.000820427
0.00699783
0.0117302
0.0145297
0.016185
0.0171555
0.017703
0.0180056
0.0181472
0.0181967
0.0181986
0.0181941
0.018193
0.019223
0.0192644
0.0193425
0.0194663
0.0196305
0.0198186
0.0200168
0.0201671
0.0200947
0.0196158
0.0182019
0.0147532
0.00895687
-8.16465e-05
-0.0124324
-0.0280508
-0.0458043
-0.0640382
-0.0790616
-0.0853218
-0.0818241
-0.0741705
-0.060395
-0.0440153
-0.0271926
-0.0126307
-0.0011482
0.00662946
0.0115009
0.0142965
0.0159788
0.0168935
0.017454
0.0177391
0.0179082
0.0179858
0.0180143
0.0180141
0.0179973
0.0179606
0.018335
0.0183013
0.0183251
0.0183771
0.0184312
0.0184272
0.0183335
0.0180475
0.0173866
0.0159204
0.0130345
0.00776237
-0.000335027
-0.0112027
-0.024239
-0.0388576
-0.0534259
-0.0680121
-0.0778949
-0.0797551
-0.0768544
-0.0647566
-0.0488186
-0.0311545
-0.0156496
-0.00252963
0.00663814
0.012212
0.01521
0.0166982
0.0175263
0.0177822
0.0178586
0.0178465
0.0178095
0.0177694
0.0177248
0.0176846
0.0176476
0.0176225
0.0174889
0.0174787
0.0174772
0.0174518
0.0173682
0.0171667
0.0167575
0.0160376
0.0147918
0.0124821
0.00848151
0.00151683
-0.00903304
-0.023298
-0.0404213
-0.0576288
-0.0732149
-0.0864703
-0.0945036
-0.0947743
-0.0878486
-0.0707026
-0.0499323
-0.0299404
-0.0126763
0.000569271
0.0102907
0.0154847
0.0178885
0.0187302
0.0187624
0.0184945
0.0181471
0.0178283
0.0175825
0.017399
0.017265
0.0171788
0.0171426
0.0171767
0.0166789
0.0167359
0.0167058
0.0166009
0.0164087
0.0160516
0.0154369
0.0144657
0.0127918
0.00997576
0.00533752
-0.00241711
-0.0141329
-0.030341
-0.0504314
-0.0707483
-0.0899607
-0.103969
-0.11476
-0.1152
-0.0994031
-0.0766249
-0.0514734
-0.0300501
-0.0120087
0.0015538
0.0109027
0.0161614
0.0186567
0.0194298
0.019099
0.0185938
0.01805
0.0175981
0.0172448
0.0169822
0.0168035
0.0167044
0.0166809
0.0167327
0.0158184
0.0158715
0.0158305
0.015715
0.0154904
0.0151054
0.0144874
0.0134806
0.0117885
0.00903277
0.00437821
-0.0029271
-0.0137085
-0.0281345
-0.0463078
-0.0664474
-0.086632
-0.101762
-0.113576
-0.11383
-0.0964497
-0.0748881
-0.0510681
-0.030482
-0.0131532
-0.000112707
0.00890956
0.0142131
0.0171998
0.018436
0.0183372
0.0179955
0.0175122
0.0171098
0.0167833
0.0165338
0.0163648
0.0162624
0.0162071
0.0161893
0.0150541
0.0150303
0.0149888
0.0149018
0.0147309
0.0144296
0.0139259
0.0131227
0.0117983
0.00957936
0.00588704
0.000239463
-0.00854056
-0.0199949
-0.0337674
-0.0496204
-0.0662756
-0.0800422
-0.0894077
-0.0919183
-0.0832818
-0.0690259
-0.0522602
-0.0344826
-0.0190952
-0.00651988
0.00304321
0.00983245
0.0140471
0.0160759
0.0167229
0.0167048
0.0164523
0.0161967
0.0159904
0.0158203
0.0156924
0.0155954
0.0155155
0.0154511
0.0145164
0.0144974
0.0144567
0.0143904
0.0142692
0.0140752
0.0137358
0.013214
0.0123364
0.0109627
0.00873215
0.00509173
-0.000806494
-0.00913985
-0.0193446
-0.0313053
-0.0438313
-0.055417
-0.0645967
-0.0699446
-0.0702095
-0.064924
-0.0530491
-0.0391399
-0.0255523
-0.0134624
-0.00334852
0.00443078
0.00953456
0.0124119
0.0139842
0.0145746
0.0147802
0.0148181
0.0147657
0.0147051
0.0146514
0.0146131
0.0145823
0.0145357
0.0140577
0.014073
0.0140669
0.0140364
0.0139792
0.0138946
0.0137503
0.013536
0.013136
0.0125833
0.0113435
0.00938225
0.00600521
0.00037352
-0.00750271
-0.0176531
-0.0293122
-0.0412962
-0.0516207
-0.0590701
-0.0623362
-0.0613692
-0.0538861
-0.0429721
-0.0313159
-0.020272
-0.0105478
-0.0026658
0.00340668
0.00774517
0.0105248
0.0119881
0.0128002
0.0131738
0.0133328
0.0134083
0.0134398
0.0134635
0.0134869
0.0135254
0.0135135
0.0135113
0.0135205
0.0135379
0.0135675
0.013616
0.0136876
0.013775
0.0139008
0.0139177
0.0136228
0.0127071
0.0104604
0.00613264
-0.00126406
-0.0112078
-0.0237072
-0.0376392
-0.0505506
-0.0609104
-0.0654533
-0.0667702
-0.0625009
-0.0533639
-0.0427575
-0.0315518
-0.0207337
-0.0108653
-0.00274489
0.00332637
0.00725655
0.0094957
0.0108257
0.0115664
0.0119972
0.0122426
0.0123707
0.0124351
0.0124835
0.0125518
0.012922
0.0128682
0.0128711
0.0129201
0.0130224
0.0131848
0.013428
0.0137352
0.0141709
0.0145927
0.0149184
0.0143951
0.012406
0.00855419
0.00141285
-0.00848773
-0.0213136
-0.0365585
-0.0537974
-0.0692936
-0.079344
-0.0819025
-0.0770216
-0.0684894
-0.0569863
-0.0438761
-0.0302256
-0.0175094
-0.0074167
-0.000137076
0.00466944
0.00745359
0.00918804
0.0102237
0.0108902
0.0112917
0.011526
0.0116494
0.0117041
0.0117006
0.012318
0.0122849
0.0122923
0.0123476
0.0124728
0.0126727
0.0129532
0.0133333
0.0137763
0.0142195
0.0146192
0.0140006
0.0120303
0.00850829
0.00208032
-0.00742328
-0.0201572
-0.0356359
-0.0537168
-0.0710672
-0.0865004
-0.0901855
-0.0837151
-0.0747761
-0.0615895
-0.0467534
-0.0319873
-0.0188693
-0.00894807
-0.00164803
0.00322684
0.00623508
0.00806501
0.00924959
0.00999742
0.0104636
0.0107361
0.0108906
0.0109571
0.0108937
0.0116078
0.0116306
0.0116754
0.011743
0.0118452
0.011991
0.0121856
0.0124674
0.0127399
0.0128302
0.0124526
0.0112419
0.00868217
0.00451513
-0.00194111
-0.0109998
-0.0225821
-0.0363053
-0.0515229
-0.0654759
-0.0772717
-0.0790824
-0.0731902
-0.0642458
-0.0516698
-0.0383501
-0.0257898
-0.0151948
-0.00705106
-0.000835836
0.00339195
0.00603392
0.00767143
0.00867615
0.00930555
0.00969711
0.00992877
0.0100498
0.0101029
0.0100919
0.0107444
0.0107892
0.0108202
0.0108471
0.0108794
0.0109208
0.0109445
0.0109604
0.0108724
0.0104538
0.00931854
0.00703879
0.00318116
-0.00234786
-0.00949902
-0.0183518
-0.0284837
-0.0394097
-0.0499808
-0.0580641
-0.0605914
-0.0590154
-0.0534201
-0.0452157
-0.0356182
-0.0256311
-0.0165444
-0.00887098
-0.00257892
0.00191373
0.00482058
0.00663758
0.00776505
0.0084462
0.008873
0.00913658
0.00929498
0.00937921
0.00943506
0.00947533
0.00975995
0.00975266
0.0097221
0.00967713
0.00961785
0.00952382
0.00935912
0.00902252
0.0084076
0.0072598
0.005179
0.00197296
-0.00257922
-0.00875889
-0.0162439
-0.0248786
-0.0338589
-0.0422347
-0.0483159
-0.050886
-0.0497702
-0.0451822
-0.0383193
-0.03033
-0.0219323
-0.0140327
-0.00729235
-0.00179196
0.00224706
0.00488927
0.00655374
0.00755575
0.00814975
0.00850792
0.00873596
0.00887651
0.00896933
0.00902345
0.00905509
0.00906313
0.00874601
0.0086646
0.00859067
0.00849773
0.00836395
0.00813976
0.00775915
0.00707621
0.00590829
0.00393981
0.000817603
-0.00358869
-0.00918555
-0.0159744
-0.0238024
-0.0322076
-0.0401158
-0.0468886
-0.0500859
-0.0489692
-0.0470886
-0.0407654
-0.0322573
-0.0228605
-0.0138939
-0.00625138
-0.000414872
0.0036321
0.0060941
0.00740935
0.00811123
0.00840974
0.00854518
0.00860409
0.0086373
0.00864928
0.00866224
0.00866702
0.00866243
0.00864767
0.00783502
0.00777588
0.00769862
0.00756942
0.00735155
0.00698408
0.00639177
0.00542782
0.00380081
0.00120302
-0.00297507
-0.00883942
-0.0164566
-0.0253414
-0.0346774
-0.0438091
-0.0516066
-0.0573967
-0.0594876
-0.0562557
-0.0499968
-0.0408777
-0.0298706
-0.0187075
-0.00925643
-0.00181352
0.00351091
0.00679465
0.00860522
0.00918585
0.00916531
0.00892544
0.00868734
0.00848296
0.00832712
0.00822216
0.00815617
0.00812463
0.00811439
0.00813568
0.00707263
0.00709715
0.00702081
0.00685961
0.00656244
0.00608376
0.00533401
0.00419351
0.00233815
-0.000624704
-0.00527479
-0.0119538
-0.020849
-0.0314305
-0.0425305
-0.052988
-0.0618191
-0.067742
-0.0697786
-0.0650511
-0.0533759
-0.0407044
-0.0273451
-0.0153245
-0.00604488
0.000870347
0.0054456
0.00794858
0.00938541
0.00971044
0.00934308
0.00888773
0.00845364
0.00811924
0.00786666
0.00769264
0.00758802
0.0075427
0.00754635
0.00759904
0.00634716
0.00640075
0.00633054
0.0061732
0.00587528
0.00540351
0.00466591
0.00355391
0.00175036
-0.0011027
-0.00537984
-0.0113772
-0.0193427
-0.0293318
-0.040298
-0.0508709
-0.0602457
-0.0665193
-0.0684959
-0.0635121
-0.0521233
-0.0396025
-0.0267521
-0.0156631
-0.00709179
-0.000466411
0.00393257
0.00645203
0.00796257
0.00851404
0.00840021
0.00818405
0.00785344
0.00755291
0.00733126
0.00717577
0.00707821
0.00702874
0.00701681
0.00703226
0.0056961
0.00567354
0.0056154
0.0055066
0.00529375
0.00494074
0.00439686
0.00354313
0.00214417
-5.84245e-05
-0.0034403
-0.00812786
-0.0140451
-0.0213864
-0.0297818
-0.038475
-0.0461208
-0.0521983
-0.0553317
-0.053244
-0.0474921
-0.0387244
-0.0294113
-0.0207156
-0.0131631
-0.00672798
-0.00178075
0.00176521
0.0042239
0.00575694
0.00646647
0.00673539
0.00669408
0.00661922
0.00654531
0.00649036
0.00644712
0.00641307
0.00638027
0.00635442
0.00525669
0.00521666
0.00516214
0.00508232
0.00495542
0.00475244
0.0044274
0.00391258
0.00307855
0.00172065
-0.000361584
-0.00354342
-0.00763735
-0.0125437
-0.0183397
-0.0246762
-0.0308316
-0.0364517
-0.0407372
-0.0424761
-0.0420362
-0.0387116
-0.0335182
-0.026924
-0.0202473
-0.0139348
-0.00841763
-0.0038541
-0.000303988
0.00214498
0.00367749
0.00454047
0.00498521
0.00523337
0.0053734
0.00545994
0.00551778
0.00555497
0.00557076
0.00554643
0.00495874
0.00495909
0.00494001
0.00490446
0.00484832
0.00476901
0.00463699
0.00444708
0.00408785
0.00349515
0.00242837
0.000716378
-0.00185022
-0.00539181
-0.00995758
-0.0155142
-0.0215721
-0.0277793
-0.0331265
-0.0369662
-0.0388953
-0.0393876
-0.0373112
-0.0323084
-0.0263579
-0.0201102
-0.0142508
-0.00911218
-0.00499377
-0.00180072
0.000571538
0.00212974
0.0031228
0.00371672
0.00406361
0.00428498
0.00443426
0.00454291
0.00462146
0.00467341
0.00461291
0.00462219
0.00463006
0.00463846
0.00465608
0.0046876
0.0047233
0.00479139
0.00483457
0.00481814
0.0045713
0.00382531
0.00220664
-0.000457012
-0.00447343
-0.00992692
-0.0165453
-0.0240528
-0.030919
-0.0364919
-0.0409758
-0.0439567
-0.0437493
-0.0405827
-0.0348259
-0.028306
-0.021541
-0.0152548
-0.00983171
-0.0054287
-0.00214451
9.23955e-05
0.00154381
0.00241859
0.00295003
0.00328901
0.00350681
0.00364796
0.00375174
0.00384784
0.00418873
0.00415956
0.00416131
0.00418768
0.00425302
0.00437154
0.00453528
0.00476962
0.00508337
0.00542752
0.00566852
0.00554782
0.00455703
0.00277709
-0.000390391
-0.00529744
-0.0117301
-0.0207223
-0.0301887
-0.0384448
-0.0467686
-0.0527012
-0.0533558
-0.049947
-0.0443859
-0.0369801
-0.0289471
-0.0210065
-0.0138947
-0.0083091
-0.00421934
-0.00141361
0.000362192
0.0014285
0.00214288
0.0025972
0.00288253
0.00305182
0.00314564
0.00318496
0.00375852
0.00371084
0.00369942
0.00372582
0.00380234
0.00393626
0.0041417
0.00442318
0.00479
0.00514254
0.00554133
0.00552548
0.00487399
0.00353806
0.000856484
-0.00357336
-0.0098024
-0.0185218
-0.0288171
-0.0390019
-0.0486304
-0.0566542
-0.0574309
-0.0536491
-0.047732
-0.0395958
-0.0309106
-0.0223914
-0.0149584
-0.00928266
-0.00508142
-0.00219034
-0.000406799
0.000803474
0.00159622
0.00208524
0.00241328
0.00260447
0.00269106
0.00265421
0.00328407
0.0032754
0.00328165
0.00330081
0.00334796
0.00342525
0.00354768
0.0036904
0.00384939
0.00387367
0.00371225
0.0031462
0.00197599
2.25428e-05
-0.0030034
-0.00740028
-0.013131
-0.0202467
-0.0287707
-0.0373885
-0.0446438
-0.0497997
-0.0496676
-0.0460098
-0.0404457
-0.0332128
-0.0256554
-0.0184991
-0.0125488
-0.00797983
-0.00448216
-0.00205931
-0.000461581
0.000585846
0.00125194
0.0016852
0.00195806
0.00211099
0.00218051
0.00216074
0.00271428
0.00273287
0.00273525
0.00271984
0.00268778
0.00263572
0.00257724
0.002455
0.00219552
0.00166289
0.000661654
-0.000988631
-0.00330574
-0.00635443
-0.0101531
-0.0147258
-0.0198932
-0.0252437
-0.0303777
-0.034776
-0.0375175
-0.0383106
-0.0362771
-0.0326311
-0.0279289
-0.0224889
-0.0171711
-0.0123656
-0.00837423
-0.00517284
-0.00271606
-0.00109528
9.45528e-06
0.000701756
0.00114296
0.00142642
0.00160509
0.00170334
0.00176392
0.00180532
0.00206006
0.00205334
0.0019994
0.00190621
0.00177324
0.00157261
0.00127555
0.000818604
8.05758e-05
-0.00107031
-0.00280853
-0.00524847
-0.00848386
-0.0124255
-0.016878
-0.0216018
-0.0262955
-0.0300238
-0.0320897
-0.0326033
-0.0321624
-0.0300762
-0.026669
-0.0224768
-0.0180178
-0.0136413
-0.00980433
-0.00657281
-0.00402065
-0.00204829
-0.000697469
0.000175429
0.000735837
0.00106393
0.00128602
0.00143363
0.00153196
0.0015939
0.00163665
0.00166325
0.00140062
0.00132779
0.00122122
0.00106926
0.000856634
0.000541617
6.12332e-05
-0.000705267
-0.00189287
-0.00361802
-0.00606912
-0.00920832
-0.0132281
-0.017985
-0.0231871
-0.0282751
-0.0326995
-0.0352573
-0.0354202
-0.0331712
-0.0303507
-0.0265366
-0.0221315
-0.0172144
-0.012251
-0.00798199
-0.00458082
-0.00212936
-0.000493871
0.000496472
0.00100599
0.00128655
0.00141011
0.00146126
0.00150909
0.00154284
0.00157146
0.00158759
0.0015918
0.00157961
0.000843686
0.000759561
0.000645912
0.00047513
0.000213377
-0.000188792
-0.000809563
-0.0017863
-0.00333533
-0.00563918
-0.00886653
-0.0131861
-0.0185639
-0.0246472
-0.0308907
-0.0365267
-0.04083
-0.0427826
-0.0416335
-0.037029
-0.0312713
-0.0250628
-0.0186923
-0.0125154
-0.0072682
-0.00333136
-0.000599901
0.00107814
0.00196354
0.00217831
0.00212213
0.001956
0.00175697
0.00161946
0.00152457
0.001463
0.0014323
0.00142026
0.00141552
0.00141711
0.000458761
0.000439773
0.000344452
0.000159429
-0.00014972
-0.000623094
-0.00134873
-0.00247448
-0.00418344
-0.0068815
-0.0106436
-0.0157883
-0.0222214
-0.0293461
-0.0364296
-0.0427609
-0.047272
-0.0490524
-0.047133
-0.0405447
-0.0324522
-0.0241153
-0.0158446
-0.00870095
-0.00336696
7.47169e-05
0.00203862
0.00297588
0.00320617
0.00284647
0.0024855
0.00209654
0.00176456
0.00151715
0.00133916
0.00122408
0.00116502
0.00114763
0.00115903
0.00120723
0.000187994
0.000212278
0.000128788
-5.23691e-05
-0.000358314
-0.000839578
-0.00154852
-0.00265083
-0.00433086
-0.00685735
-0.0103406
-0.0150821
-0.0211783
-0.0280076
-0.03488
-0.0410777
-0.045642
-0.047456
-0.0458533
-0.0397972
-0.0322173
-0.0239802
-0.0159641
-0.00932659
-0.00440473
-0.00103812
0.000972793
0.00205513
0.00239806
0.00224476
0.00201799
0.00171742
0.00145863
0.00124504
0.00108613
0.000990693
0.000944891
0.000939742
0.000959554
0.000999183
-2.29258e-05
-3.18712e-05
-0.000101162
-0.000236024
-0.00046468
-0.000830592
-0.00138228
-0.00225936
-0.0035695
-0.00551903
-0.00818189
-0.0116553
-0.0160937
-0.0212083
-0.026528
-0.0315146
-0.0355747
-0.0378655
-0.0381447
-0.035486
-0.0309124
-0.0253604
-0.0198145
-0.0146686
-0.0101727
-0.00659229
-0.00391381
-0.00197184
-0.000683432
0.000121487
0.000523298
0.000703185
0.000766317
0.000754413
0.00073661
0.000727026
0.000729924
0.000736908
0.000741031
0.000744891
-7.62356e-05
-0.000114753
-0.000170932
-0.000255941
-0.000391439
-0.000601671
-0.000927485
-0.00144272
-0.00222411
-0.00341962
-0.00509629
-0.00732116
-0.0100887
-0.0134304
-0.0171634
-0.0210419
-0.0246969
-0.0277454
-0.0297539
-0.0300813
-0.0292421
-0.0273389
-0.024642
-0.021033
-0.0168863
-0.0130965
-0.00973563
-0.00687189
-0.00457477
-0.00280526
-0.0016129
-0.000845212
-0.000371369
-9.11958e-05
0.000106096
0.000240587
0.000332725
0.000390187
0.000414233
0.000407958
4.28036e-05
3.44511e-05
7.50023e-06
-3.09036e-05
-8.98249e-05
-0.000171671
-0.000295493