/*--------------------------------*- C++ -*----------------------------------*\
| =========                 |                                                 |
| \\      /  F ield         | OpenFOAM: The Open Source CFD Toolbox           |
|  \\    /   O peration     | Version:  v2106                                 |
|   \\  /    A nd           | Website:  www.openfoam.com                      |
|    \\/     M anipulation  |                                                 |
\*---------------------------------------------------------------------------*/
FoamFile
{
    version     2.0;
    format      ascii;
    arch        "LSB;label=32;scalar=64";
    class       volScalarField;
    location    "0";
    object      p;
}
// * * * * * * * * * * * * * * * * * * * * * * * * * * * * * * * * * * * * * //

dimensions      [0 2 -2 0 0 0 0];

internalField   nonuniform List<scalar> 
11644
(
0.0354097
0.0358419
0.036761
0.0381906
0.0401312
0.0425986
0.0456156
0.0492031
0.0533745
0.0581297
0.0634534
0.0692904
0.0755539
0.0821269
0.0888164
0.0954378
0.101721
0.107373
0.11216
0.115863
0.118284
0.119359
0.119209
0.118041
0.115856
0.112809
0.109244
0.105375
0.101377
0.0974405
0.0936811
0.0901865
0.0870225
0.0842264
0.0818213
0.0798173
0.0782169
0.0770262
0.076253
0.075887
0.0346904
0.0351169
0.0359969
0.0373583
0.0392268
0.0416264
0.0445813
0.048119
0.0522635
0.0570299
0.0624117
0.0683806
0.0748773
0.0817418
0.0888446
0.0959201
0.102663
0.108771
0.113946
0.117892
0.120377
0.121356
0.120957
0.119427
0.116908
0.113577
0.109667
0.105476
0.10123
0.0970852
0.0931729
0.0895804
0.0863565
0.0835325
0.0811227
0.0791308
0.0775581
0.0763995
0.0756465
0.0752821
0.0329985
0.0334358
0.0342967
0.0355951
0.037369
0.0396572
0.0425003
0.0459411
0.0500268
0.0547975
0.0602892
0.0665188
0.0734445
0.0809914
0.088939
0.0970154
0.104875
0.112095
0.11813
0.122571
0.125243
0.126116
0.125206
0.122816
0.119328
0.115107
0.110446
0.105593
0.100808
0.0962679
0.0920764
0.0883016
0.0849749
0.0821023
0.079682
0.077702
0.0761486
0.0750022
0.0742401
0.0738529
0.03043
0.0308438
0.0316576
0.0328765
0.0345327
0.0366727
0.039353
0.0426399
0.0466095
0.0513533
0.0569644
0.0635186
0.0710795
0.0795507
0.0888664
0.0986127
0.108266
0.117397
0.124974
0.130441
0.133444
0.133874
0.131929
0.128103
0.123096
0.11737
0.111395
0.105526
0.0999534
0.0948382
0.0902704
0.0862623
0.0828093
0.0798877
0.0774608
0.0754954
0.0739573
0.0728162
0.0720509
0.0716596
0.027085
0.0274483
0.0281659
0.0292495
0.0307315
0.0326583
0.0350961
0.0381336
0.0418829
0.0464853
0.0521064
0.0589671
0.0672519
0.0771413
0.0884746
0.100754
0.113083
0.125228
0.135287
0.142354
0.145773
0.145253
0.141486
0.135202
0.127732
0.119777
0.112016
0.104762
0.0982518
0.0924916
0.0875017
0.0832751
0.0797323
0.0767938
0.074392
0.0724673
0.0709709
0.0698661
0.0691311
0.0687618
0.0230818
0.0233599
0.0239283
0.0248021
0.0260153
0.027618
0.0296832
0.0323115
0.0356395
0.0398818
0.0453551
0.0524266
0.0615073
0.072684
0.0864776
0.102525
0.119037
0.135746
0.150092
0.160162
0.164181
0.1617
0.154348
0.143775
0.132466
0.121241
0.110944
0.102226
0.0948258
0.0886269
0.0834074
0.07908
0.0755503
0.0726934
0.0703997
0.0685867
0.0671939
0.0661801
0.0655129
0.0651784
0.0185215
0.018708
0.01908
0.0196626
0.0204892
0.0216147
0.0231134
0.0250901
0.0277119
0.0313102
0.0362985
0.0431274
0.0521691
0.0647298
0.0813145
0.101633
0.119022
0.140851
0.161673
0.177676
0.184857
0.18214
0.171461
0.156346
0.136051
0.12024
0.106919
0.0965821
0.0886752
0.0824492
0.0774503
0.0733752
0.0700781
0.0674742
0.0654321
0.0638489
0.0626525
0.0617895
0.0612324
0.0609546
0.0135815
0.0136411
0.0137705
0.0139826
0.0143074
0.0147869
0.0154888
0.0165148
0.0180778
0.0205528
0.0242881
0.029799
0.0381345
0.0502339
0.0669039
0.0884045
0.118389
0.153433
0.188511
0.215889
0.226604
0.218186
0.195952
0.168658
0.142576
0.119648
0.103683
0.0865793
0.0787928
0.0732429
0.0690725
0.065799
0.0631482
0.0610661
0.0594802
0.0582797
0.0573932
0.0567702
0.0563671
0.0561738
0.00846077
0.00837919
0.0082255
0.00799591
0.00771118
0.00738793
0.00707432
0.00683329
0.00688045
0.00750492
0.00897586
0.0116622
0.0162404
0.0302962
0.0447181
0.0691906
0.102877
0.15168
0.210859
0.263709
0.287254
0.270273
0.226926
0.179739
0.139188
0.106909
0.0889524
0.0701064
0.0644642
0.0607396
0.0581234
0.0562107
0.0547028
0.0535113
0.0526366
0.0520006
0.051541
0.0512234
0.0510199
0.0509138
0.00339424
0.00318565
0.00272217
0.00201762
0.00104942
-0.000192764
-0.00171571
-0.0035146
-0.00547689
-0.0075406
-0.00958693
-0.0114517
-0.0131689
-0.00335135
0.0036724
0.0251959
0.0602213
0.121289
0.220404
0.340702
0.402684
0.353532
0.251152
0.167061
0.1086
0.0721423
0.0598583
0.0464867
0.0454853
0.0450232
0.0448824
0.0449156
0.0449898
0.0450287
0.0450958
0.0451851
0.0452693
0.0453288
0.0453735
0.0453916
-0.00122741
-0.00162562
-0.00240782
-0.00360941
-0.00527492
-0.00746138
-0.0102846
-0.0138201
-0.0181236
-0.0234539
-0.0300301
-0.0381239
-0.0479311
-0.0489904
-0.0574508
-0.0579073
-0.0489751
-0.0211118
0.0917856
0.365045
0.598404
0.402045
0.165389
0.0606028
0.0238769
0.0126097
0.0176284
0.0171114
0.0226445
0.0269058
0.030135
0.0326449
0.0345945
0.0360608
0.0372201
0.0381388
0.0388366
0.0393375
0.0396498
0.0397952
-0.00521076
-0.00573503
-0.00678989
-0.00844621
-0.0107554
-0.0138249
-0.0178603
-0.0230651
-0.0296762
-0.0382435
-0.0494189
-0.0642881
-0.0839444
-0.0936258
-0.128038
-0.158846
-0.217507
-0.339463
-0.650934
-0.399416
-0.185326
-0.100978
-0.0590413
-0.0300008
-0.0142743
-0.00104369
0.00842673
0.015361
0.0205012
0.0243537
0.0272583
0.0295164
0.0312635
0.0325511
0.033472
0.0340678
0.0343831
-0.00829264
-0.00889781
-0.0101801
-0.0121567
-0.0149535
-0.0186911
-0.0236008
-0.0300358
-0.0383931
-0.0493773
-0.063913
-0.0835817
-0.109834
-0.131883
-0.181487
-0.238054
-0.338225
-0.532866
-0.765742
-0.484842
-0.338841
-0.192482
-0.113384
-0.0686225
-0.0381458
-0.0200374
-0.00694892
0.00270758
0.00986088
0.0152545
0.0193652
0.0225398
0.0249765
0.0267708
0.0280553
0.0289121
0.0293091
-0.010126
-0.0108576
-0.0122629
-0.0144149
-0.017435
-0.02149
-0.0267567
-0.0336723
-0.0427744
-0.0547352
-0.070545
-0.0917136
-0.119559
-0.148018
-0.200716
-0.263309
-0.357752
-0.488478
-0.543803
-0.410793
-0.332598
-0.205633
-0.125796
-0.0833287
-0.0490134
-0.0304974
-0.0166448
-0.00610281
0.00193568
0.00817751
0.0130513
0.0168269
0.0196936
0.0218097
0.0233262
0.0243226
0.0248504
-0.0108116
-0.0114828
-0.0128455
-0.0149643
-0.0179138
-0.0218685
-0.0269391
-0.0335117
-0.0421768
-0.0535466
-0.0682857
-0.0875823
-0.11264
-0.142052
-0.189878
-0.251345
-0.341389
-0.469316
-0.547732
-0.603441
-0.593216
-0.440824
-0.34204
-0.236606
-0.152126
-0.101456
-0.0745111
-0.046852
-0.0321335
-0.0201301
-0.0104546
-0.00268486
0.00360293
0.00869514
0.0127153
0.01575
0.0179971
0.0195881
0.0206237
0.0212161
-0.0104584
-0.0109226
-0.0121016
-0.0139332
-0.0164789
-0.0198605
-0.024145
-0.0296482
-0.0367437
-0.0458176
-0.0573799
-0.0722634
-0.0912569
-0.117958
-0.155989
-0.211949
-0.296279
-0.447446
-0.687066
-0.831257
-0.799284
-0.462043
-0.139844
-0.0436408
-0.0674143
-0.0630507
-0.0543109
-0.0369965
-0.0275786
-0.0185843
-0.0107361
-0.00403429
0.00163598
0.0064524
0.0103076
0.0132436
0.015485
0.017093
0.0180886
0.018338
-0.00868179
-0.00913605
-0.0100386
-0.0114198
-0.0133154
-0.0157627
-0.0188018
-0.0225022
-0.0271296
-0.0328699
-0.0399987
-0.0490153
-0.0607016
-0.0739196
-0.10508
-0.138611
-0.202348
-0.297393
-0.468318
-0.638965
-0.613621
-0.342282
-0.0564505
0.00956678
-0.0344437
-0.0415613
-0.0351978
-0.0281679
-0.0214828
-0.0145295
-0.00832448
-0.00279023
0.00206045
0.00622022
0.00953739
0.0121503
0.0141481
0.0155374
0.0163704
0.0167124
-0.00572855
-0.00611857
-0.00667276
-0.00750209
-0.00858979
-0.00996258
-0.0116299
-0.0133591
-0.0152702
-0.0174902
-0.0199734
-0.0228536
-0.026559
-0.0299291
-0.0484701
-0.0596238
-0.0934316
-0.134913
-0.206055
-0.288395
-0.317386
-0.241287
-0.128651
-0.0935279
-0.0739705
-0.0513763
-0.03321
-0.0240171
-0.0165147
-0.0100526
-0.00462533
0.000113322
0.00412588
0.00744988
0.0101119
0.0122428
0.0138546
0.0149939
0.0157566
0.0161962
-0.0021253
-0.00226024
-0.00247842
-0.00278483
-0.00312945
-0.00348682
-0.00383393
-0.00394439
-0.00368759
-0.00290013
-0.00136231
0.000955767
0.00451218
0.00785654
0.00311916
0.00471352
-0.0115221
-0.0378897
-0.106246
-0.220364
-0.320897
-0.340305
-0.293519
-0.215924
-0.115502
-0.0660893
-0.034231
-0.0211864
-0.0119894
-0.00526831
-0.000222655
0.00381834
0.00704221
0.00963049
0.0117025
0.0133675
0.0146466
0.0155989
0.016263
0.0166346
0.00176301
0.00180314
0.00184117
0.00194671
0.00217755
0.00262817
0.00337388
0.00451923
0.00636651
0.00922825
0.0135351
0.019163
0.0285601
0.0357929
0.0378234
0.0467599
0.0375245
-0.00190355
-0.103709
-0.265101
-0.392292
-0.417386
-0.349145
-0.227872
-0.107424
-0.0596696
-0.0271141
-0.0136582
-0.00514199
0.000784516
0.00497107
0.008154
0.0106392
0.0126167
0.0141527
0.0153684
0.0163059
0.0169984
0.0174637
0.017706
0.00543461
0.00557108
0.00581792
0.00622135
0.00685337
0.0078259
0.00925749
0.0112707
0.0140972
0.0180451
0.0235415
0.0307656
0.0415003
0.0511122
0.0554075
0.0649493
0.0524006
0.00169602
-0.0995336
-0.227994
-0.307968
-0.299413
-0.224877
-0.135231
-0.0632955
-0.0361999
-0.0101498
-0.000907438
0.00492391
0.00869927
0.0114288
0.0134494
0.0150334
0.0162627
0.0171825
0.0178959
0.0184354
0.0188184
0.0190661
0.019202
0.00869551
0.00889283
0.00927226
0.00985445
0.0106992
0.0118845
0.0135164
0.0157445
0.0187125
0.0226135
0.0276178
0.0336815
0.0416067
0.0511791
0.0471697
0.0442812
0.0276415
-0.0179833
-0.0781023
-0.122293
-0.136011
-0.116536
-0.0815157
-0.0518123
-0.0295289
-0.00190489
0.00703791
0.0126716
0.0159789
0.0176852
0.018703
0.019319
0.0197446
0.0200665
0.0203269
0.0205465
0.0207115
0.0208202
0.0208727
0.0208934
0.0116348
0.0118355
0.0122423
0.0128611
0.0137175
0.0148547
0.0163165
0.0181743
0.0205091
0.0233984
0.0267847
0.0304395
0.0335202
0.0378722
0.0282809
-0.00522453
-0.0469759
-0.0938415
-0.12254
-0.124605
-0.110012
-0.080831
-0.0464505
-0.0203913
-0.000302944
0.0129089
0.0201196
0.0241434
0.0256112
0.0257505
0.0253065
0.0246556
0.0240066
0.0234967
0.0231553
0.022937
0.0227955
0.0227082
0.0226373
0.0225569
0.0143145
0.0145005
0.0148539
0.015393
0.0161213
0.017053
0.0181824
0.0194889
0.0209304
0.0223209
0.023329
0.0234813
0.0201631
0.0129003
-0.00893381
-0.0539114
-0.102147
-0.155205
-0.195114
-0.197437
-0.161033
-0.11035
-0.0585028
-0.0198696
0.00775681
0.0230326
0.0299364
0.0327686
0.0328902
0.0317964
0.0302944
0.0287466
0.0273841
0.0262891
0.0254865
0.0248933
0.0244777
0.0242123
0.024057
0.0239746
0.0166858
0.0168243
0.0171195
0.0175681
0.0181632
0.0188823
0.0196856
0.0205156
0.0211919
0.021338
0.0203112
0.0173887
0.00948196
-0.00595266
-0.0359351
-0.0816242
-0.141374
-0.207925
-0.260698
-0.264557
-0.21206
-0.148112
-0.0821751
-0.0295155
0.00667971
0.0279516
0.0373685
0.0394481
0.0381259
0.0359646
0.0336279
0.0314958
0.0297579
0.0283575
0.027268
0.0264275
0.0258177
0.0254021
0.0251619
0.0251378
0.0187305
0.0188262
0.0190946
0.0194956
0.0200131
0.0206038
0.0211996
0.0217325
0.0219618
0.0215679
0.0197371
0.0158384
0.00752937
-0.0076381
-0.0373511
-0.0805687
-0.134627
-0.190338
-0.237531
-0.24422
-0.199614
-0.143458
-0.0825788
-0.0326569
0.00332748
0.026497
0.0391189
0.0427863
0.0411196
0.0382427
0.0354714
0.0330943
0.0311875
0.02968
0.0284872
0.0275816
0.026918
0.0264754
0.0262117
0.0261469
0.0204713
0.0206075
0.0208857
0.0212792
0.0217675
0.0223144
0.0228466
0.023269
0.0234842
0.0231831
0.021992
0.0190531
0.0133024
0.00236914
-0.0176375
-0.0489467
-0.0843566
-0.12204
-0.153307
-0.163301
-0.145322
-0.114188
-0.0718456
-0.031907
-0.000830524
0.0210252
0.0343752
0.0403524
0.0403136
0.038073
0.0356118
0.0334759
0.0316912
0.0302479
0.0291086
0.0282564
0.0276428
0.0272332
0.0269837
0.0268317
0.0219051
0.0221175
0.0224145
0.0228151
0.0233037
0.023863
0.0244491
0.0250015
0.0254472
0.0256616
0.0254211
0.0240467
0.0211011
0.0152782
0.00371994
-0.0160602
-0.0411828
-0.0683427
-0.08915
-0.102349
-0.105864
-0.0944603
-0.0697369
-0.0389846
-0.0115361
0.010489
0.0252912
0.0328862
0.0352057
0.0347968
0.0336251
0.0323068
0.0310398
0.029923
0.029022
0.0283185
0.0277837
0.0273958
0.0271413
0.0270087
0.0230342
0.0232401
0.0235237
0.02392
0.0244334
0.025063
0.0257957
0.0266085
0.0274291
0.0281469
0.0284828
0.0280413
0.026175
0.0221366
0.014738
0.0010033
-0.0217007
-0.0475155
-0.073035
-0.0925495
-0.0993689
-0.0967189
-0.079369
-0.0548857
-0.0290945
-0.00687816
0.0102437
0.0215064
0.0271651
0.0292005
0.0299101
0.0297956
0.0293628
0.0288334
0.02833
0.027869
0.0274836
0.0271839
0.0269862
0.0269004
0.0238786
0.0239543
0.0242285
0.0246471
0.0252171
0.0259316
0.0267988
0.0278318
0.0289611
0.0300309
0.0306956
0.0307648
0.0288999
0.0242115
0.0156052
0.0020359
-0.02087
-0.0490684
-0.0829896
-0.110296
-0.122135
-0.120984
-0.106116
-0.0841827
-0.0558563
-0.0297223
-0.00710368
0.00950271
0.0189542
0.0236324
0.0259906
0.0270125
0.0274515
0.0275229
0.0274535
0.0272896
0.0271086
0.0269461
0.0268227
0.0267364
0.024523
0.0245391
0.0247735
0.0251793
0.0257633
0.0265077
0.0274178
0.0285257
0.0297803
0.0311189
0.032209
0.0327786
0.0310664
0.0255503
0.0142777
-0.00334732
-0.0288266
-0.0603654
-0.100503
-0.135264
-0.158677
-0.158096
-0.140012
-0.114226
-0.0786518
-0.0448962
-0.0172209
0.00141287
0.0131635
0.0196768
0.0230736
0.0249141
0.0259615
0.0264633
0.0266815
0.0267356
0.026706
0.0266384
0.0265638
0.0264743
0.0249517
0.0250352
0.0252387
0.0255865
0.0260991
0.0267783
0.0276165
0.0286592
0.0298308
0.0312048
0.0324343
0.0331001
0.0310391
0.0245962
0.0124403
-0.00679348
-0.032757
-0.0643068
-0.104891
-0.138612
-0.16899
-0.165209
-0.141969
-0.113663
-0.0764645
-0.0444235
-0.0184647
-0.00035281
0.0112035
0.0178856
0.0217509
0.0238961
0.0251333
0.0257335
0.0260619
0.0262006
0.0262452
0.026233
0.0262066
0.0261603
0.0249742
0.0251253
0.0253289
0.0256311
0.0260588
0.0266314
0.0273466
0.0282249
0.0292156
0.0303497
0.0311809
0.0309699
0.0279462
0.0208451
0.00884359
-0.00892454
-0.03254
-0.0606254
-0.0913127
-0.115318
-0.131954
-0.126153
-0.106191
-0.0816305
-0.0534742
-0.0298264
-0.00994091
0.00416762
0.0132922
0.0186927
0.021944
0.0237988
0.0248673
0.0254333
0.0257515
0.0258896
0.0259392
0.0259368
0.025926
0.025916
0.0246021
0.0247038
0.0248854
0.0251517
0.0255021
0.0259469
0.0264827
0.0271084
0.0277311
0.0282642
0.0282415
0.0266423
0.0224065
0.014119
0.0016685
-0.0144736
-0.0343889
-0.0566868
-0.0762377
-0.0861679
-0.0871336
-0.0801219
-0.0660711
-0.0469292
-0.0280205
-0.0116239
0.00231655
0.0118986
0.0177947
0.0212346
0.0232686
0.0244407
0.0251292
0.0255291
0.0257467
0.025831
0.0258461
0.0258241
0.025794
0.0257716
0.0240815
0.0241063
0.0242067
0.024378
0.0246004
0.0248558
0.0251013
0.0253004
0.0252795
0.0247949
0.0235466
0.020317
0.0142938
0.00473231
-0.00856061
-0.0240681
-0.0408017
-0.0576813
-0.070148
-0.0727523
-0.0680973
-0.058258
-0.0445536
-0.0274667
-0.0112423
0.00240268
0.0129445
0.0191133
0.0223123
0.0239945
0.0249341
0.0253915
0.0256434
0.0257562
0.0257906
0.0257726
0.0257417
0.0257033
0.0256645
0.0256107
0.0235552
0.0235531
0.0235932
0.0236561
0.0237086
0.0237152
0.0235948
0.0232683
0.0225331
0.0210003
0.018147
0.0127309
0.00379875
-0.00799748
-0.0228745
-0.0392614
-0.054961
-0.0687845
-0.0786969
-0.0792304
-0.0738555
-0.0591683
-0.0392238
-0.0199637
-0.00253084
0.0102378
0.0185329
0.0229697
0.025212
0.026173
0.0264332
0.0263368
0.0261365
0.0259142
0.0257252
0.0255671
0.0254469
0.0253637
0.0253084
0.0252994
0.0230085
0.0230435
0.0230567
0.0230403
0.02295
0.0227564
0.0223399
0.0215888
0.0202828
0.0179717
0.0139203
0.00697543
-0.00428456
-0.0197866
-0.0390493
-0.0589104
-0.0771648
-0.0909038
-0.100656
-0.101179
-0.0894098
-0.0679887
-0.0424791
-0.0205089
-0.00198953
0.0111112
0.019976
0.0248183
0.0271415
0.0277416
0.0273801
0.026887
0.0263261
0.0258651
0.025511
0.0252337
0.0250333
0.0249154
0.0248661
0.0249148
0.022431
0.022493
0.0224859
0.0224211
0.0222495
0.0219756
0.0214373
0.0205307
0.0189875
0.0164311
0.0119707
0.0045549
-0.00708958
-0.0233232
-0.0445011
-0.0670495
-0.0897501
-0.105446
-0.118296
-0.118825
-0.0988258
-0.0740197
-0.0459395
-0.0232193
-0.00426994
0.00950778
0.0192581
0.0247912
0.027433
0.0280373
0.0273139
0.0267105
0.0260621
0.0255601
0.0251677
0.0248735
0.0246672
0.0245469
0.0244956
0.0245177
0.0218945
0.0219253
0.0218983
0.0218312
0.0216735
0.0214019
0.0209111
0.0200857
0.0186527
0.0163286
0.0123881
0.00598297
-0.00398575
-0.0175446
-0.0348631
-0.0548714
-0.0757818
-0.0917459
-0.106413
-0.109454
-0.0908378
-0.0705167
-0.0453109
-0.0244875
-0.00650718
0.00706385
0.0166292
0.0224631
0.0255545
0.0265332
0.0262676
0.0258076
0.0252912
0.0249017
0.0245838
0.0243491
0.0241872
0.0240845
0.024019
0.0239611
0.0214892
0.0214816
0.0214729
0.0214426
0.021343
0.0211519
0.0208003
0.0202009
0.0191933
0.0175253
0.0146776
0.0100735
0.00297269
-0.00659781
-0.0186117
-0.0331566
-0.0490428
-0.0630499
-0.0739734
-0.0777505
-0.0720591
-0.0609077
-0.0436776
-0.0261237
-0.0104541
0.0021259
0.0115747
0.0180108
0.0218674
0.0236914
0.0242411
0.02419
0.0239786
0.0237691
0.0235833
0.0234411
0.0233374
0.023261
0.023198
0.0231304
0.0212344
0.0212388
0.0212491
0.0212454
0.0212058
0.0211174
0.0209349
0.0206206
0.0201046
0.0192498
0.0177085
0.0150678
0.0104769
0.00355349
-0.00548321
-0.016261
-0.0281633
-0.0400889
-0.0491178
-0.0548858
-0.0567557
-0.0528882
-0.0424226
-0.0291377
-0.0164154
-0.00520042
0.0043016
0.0117079
0.0167532
0.0197091
0.0212379
0.0218628
0.0221444
0.0222317
0.0222357
0.022215
0.022188
0.0221674
0.0221609
0.022176
0.0209569
0.0209858
0.0210055
0.0210257
0.0210466
0.0210741
0.0210905
0.0210766
0.0210012
0.0208066
0.0202736
0.0190513
0.0164747
0.0116623
0.0036805
-0.00650781
-0.0186304
-0.0311838
-0.0431824
-0.051318
-0.0535814
-0.0534852
-0.0463068
-0.0362237
-0.0252134
-0.0145416
-0.00445846
0.00389479
0.0103412
0.0148971
0.0176549
0.0192128
0.0201131
0.0205973
0.0208642
0.021012
0.0210952
0.0211494
0.0211999
0.0212638
0.0205536
0.0205257
0.0205553
0.0206195
0.0207273
0.0208829
0.0210904
0.0213573
0.0216839
0.0219571
0.0220752
0.0214991
0.0196941
0.0161295
0.00890584
-0.0014213
-0.0149855
-0.0299544
-0.0457331
-0.0580341
-0.064235
-0.064916
-0.0591229
-0.0503298
-0.0392621
-0.0274326
-0.0153192
-0.00464786
0.00404793
0.0104763
0.0144918
0.0168949
0.018318
0.019177
0.0197136
0.0200422
0.0202356
0.0203426
0.0204035
0.0204434
0.0201088
0.0200486
0.0200717
0.0201546
0.0203081
0.0205333
0.0208516
0.0212752
0.0218039
0.0223215
0.0229068
0.0224276
0.0205074
0.0170104
0.0100758
7.60314e-06
-0.0136737
-0.0297619
-0.0486216
-0.065491
-0.0795064
-0.081327
-0.0745447
-0.0653091
-0.0522992
-0.0378193
-0.0227722
-0.00952276
0.000752081
0.00794571
0.0125396
0.0153518
0.017017
0.0181029
0.0188107
0.0192496
0.0195173
0.0196503
0.019712
0.0196825
0.0196245
0.0196193
0.0196517
0.0197273
0.0198625
0.0200612
0.0203471
0.0207209
0.0212201
0.0217153
0.0220136
0.021375
0.0192109
0.0152496
0.00847019
-0.00126962
-0.0141
-0.0293691
-0.0485179
-0.0652003
-0.0827491
-0.0832697
-0.0746424
-0.0649774
-0.0506492
-0.0358183
-0.0207624
-0.00843715
0.0010116
0.00763119
0.0120133
0.0146793
0.0163781
0.0174474
0.0181278
0.0185402
0.0188059
0.0189466
0.0190109
0.0189747
0.0189631
0.0190201
0.0190609
0.0191097
0.019185
0.0192983
0.0194592
0.0196638
0.0199128
0.0200156
0.0196774
0.0184792
0.0158334
0.0113217
0.00442509
-0.00489314
-0.0168217
-0.0302032
-0.0449438
-0.0563818
-0.065234
-0.064456
-0.0573129
-0.0478947
-0.0350768
-0.0229607
-0.0116907
-0.00267516
0.00443712
0.00954697
0.0129434
0.0150661
0.0163909
0.0172015
0.0177087
0.018018
0.0182088
0.018311
0.0183641
0.018371
0.0181108
0.0181285
0.0181381
0.018141
0.0181419
0.0181413
0.018132
0.0180721
0.0179208
0.01747
0.0162497
0.0141083
0.0105582
0.005338
-0.00171323
-0.0103537
-0.0203985
-0.0308781
-0.040007
-0.0452242
-0.04604
-0.0425672
-0.0363518
-0.0278797
-0.0182968
-0.00955493
-0.00186026
0.00424652
0.00921642
0.0126045
0.0147495
0.0160369
0.016827
0.0172943
0.0175871
0.0177621
0.0178654
0.0179115
0.0179295
0.0179576
0.0172272
0.0171683
0.0171106
0.0170451
0.0169605
0.0168285
0.0166108
0.0162126
0.0155264
0.0143541
0.012301
0.00905407
0.00442428
-0.00149189
-0.00871868
-0.0167244
-0.0251605
-0.0330929
-0.0383188
-0.0392869
-0.0379261
-0.0326589
-0.0252318
-0.0166469
-0.0080029
-0.000484689
0.00576399
0.0104498
0.0138256
0.0156254
0.0165596
0.0170466
0.0173124
0.0174777
0.0175748
0.0176304
0.017664
0.0176807
0.017682
0.0176688
0.0164345
0.0163567
0.0162732
0.0161611
0.015988
0.0157085
0.0152615
0.01452
0.0132762
0.0112322
0.00798068
0.0033663
-0.00264856
-0.00993307
-0.0181386
-0.0264817
-0.0343994
-0.0407836
-0.0442327
-0.04275
-0.0395703
-0.0322123
-0.022257
-0.0117757
-0.00187961
0.00591483
0.0117525
0.01527
0.0171497
0.0177947
0.0179055
0.0178189
0.0176896
0.0175703
0.0174747
0.0174027
0.0173582
0.0173321
0.0173134
0.0172992
0.0157514
0.0157312
0.0156587
0.0155224
0.0152768
0.0148751
0.0142363
0.013242
0.0116052
0.0089839
0.00478293
-0.00123854
-0.00920822
-0.0187487
-0.0290056
-0.0388213
-0.0475611
-0.053712
-0.0568521
-0.0535867
-0.0445625
-0.0334439
-0.0204281
-0.0081661
0.0021997
0.00985145
0.0150135
0.0175621
0.0188769
0.0190921
0.0186526
0.0182021
0.0177724
0.0174196
0.0171635
0.0169847
0.0168663
0.0168035
0.0167845
0.0168255
0.0151262
0.0151714
0.0151146
0.0149715
0.0146981
0.0142542
0.0135587
0.0124858
0.010768
0.00803845
0.00368336
-0.00263568
-0.0112217
-0.0219731
-0.0335651
-0.0445793
-0.0547189
-0.0611088
-0.0643876
-0.060678
-0.0473466
-0.033313
-0.0187869
-0.0063746
0.00336853
0.0103917
0.0150028
0.0173859
0.0187369
0.0189727
0.0184817
0.0179574
0.0174149
0.01701
0.0167123
0.016512
0.0163811
0.0163162
0.0163001
0.0163418
0.014572
0.0146008
0.0145453
0.0144294
0.014203
0.013836
0.0132444
0.0123074
0.0108445
0.00851244
0.0048936
-0.000411682
-0.00740978
-0.0162624
-0.0265223
-0.0366706
-0.0465206
-0.0531283
-0.0569603
-0.0549388
-0.0441483
-0.032001
-0.0192967
-0.00842942
0.000445766
0.00728315
0.0120361
0.0149199
0.0166213
0.0172586
0.0171983
0.0169385
0.0165791
0.0163029
0.0161033
0.0159696
0.0158843
0.0158378
0.0158113
0.0157928
0.014143
0.0141264
0.0140961
0.0140345
0.0139104
0.0136917
0.0133219
0.0127121
0.0117148
0.0100864
0.0075938
0.00400254
-0.000717089
-0.00668476
-0.0140105
-0.0218362
-0.0296092
-0.0356824
-0.039677
-0.0402997
-0.0367329
-0.0298631
-0.0214357
-0.0129478
-0.00504316
0.00159432
0.00680547
0.01049
0.012863
0.0142333
0.0149347
0.0151829
0.0152003
0.0151765
0.0151503
0.0151334
0.0151262
0.01512
0.0151024
0.0150601
0.0138819
0.0138671
0.013868
0.0138552
0.013817
0.0137382
0.0135888
0.0133231
0.0128734
0.0120709
0.0106534
0.00841112
0.00520824
0.00121482
-0.00390284
-0.00984632
-0.0160776
-0.0218664
-0.0267816
-0.0299931
-0.0301355
-0.0280052
-0.0234735
-0.0172315
-0.0105759
-0.0044436
0.000888439
0.00513357
0.00832321
0.0106134
0.0121224
0.0129641
0.013432
0.0137259
0.0138982
0.0140108
0.0140895
0.0141475
0.0141855
0.014211
0.0136615
0.0136892
0.013705
0.0137196
0.0137377
0.0137675
0.0137933
0.0138176
0.0138061
0.0136811
0.0132662
0.0122754
0.0101418
0.00706239
0.00268681
-0.00288033
-0.00941436
-0.0161948
-0.0223555
-0.0270161
-0.0290144
-0.0302307
-0.0281763
-0.023395
-0.0175734
-0.0115297
-0.00577044
-0.000669188
0.00356483
0.00680274
0.00916892
0.0107293
0.0117068
0.0123244
0.0127016
0.0129447
0.0131066
0.0132257
0.01332
0.013403
0.0133216
0.0133246
0.0133539
0.0134061
0.0134935
0.0136261
0.0138168
0.0140622
0.0143741
0.0147108
0.0150493
0.0149895
0.0138759
0.0117021
0.00785377
0.0023005
-0.00487325
-0.0134308
-0.021871
-0.0288016
-0.034269
-0.0379681
-0.0372291
-0.0331784
-0.027421
-0.0206371
-0.0136328
-0.00700297
-0.00125774
0.00326353
0.00663257
0.00892443
0.0103641
0.0112594
0.0118222
0.0121846
0.012415
0.0125602
0.0126553
0.0127242
0.0129044
0.0128618
0.0128801
0.0129442
0.0130731
0.0132681
0.013564
0.0139469
0.0144638
0.0150123
0.0156803
0.0159171
0.0153252
0.013996
0.0110123
0.00609934
-0.000803949
-0.010198
-0.0207173
-0.0308768
-0.0402772
-0.0465089
-0.0465059
-0.0418762
-0.0358167
-0.0279018
-0.0195232
-0.0113239
-0.00417439
0.00127145
0.0052031
0.00785646
0.00948635
0.0105421
0.0112247
0.0116624
0.0119314
0.0120798
0.0121512
0.0121422
0.0124732
0.0124488
0.0124641
0.0125173
0.0126262
0.0127984
0.0130613
0.0134082
0.0139114
0.0143367
0.0147613
0.014799
0.0141154
0.012828
0.0101688
0.00576074
-0.000413061
-0.00920386
-0.0198804
-0.0307566
-0.0399577
-0.0464769
-0.0457155
-0.0403425
-0.0343853
-0.0264846
-0.0181788
-0.0102205
-0.00354333
0.00144627
0.00509414
0.00756968
0.00914225
0.0101594
0.0108024
0.0112188
0.0114749
0.0116164
0.0116722
0.0116272
0.0119519
0.0119779
0.0119953
0.0120175
0.0120615
0.0121349
0.0122536
0.0124135
0.0126104
0.0126621
0.0125142
0.0119059
0.0106026
0.00852485
0.00531668
0.000803347
-0.00490434
-0.0118831
-0.0195783
-0.027292
-0.0324549
-0.0352124
-0.0335545
-0.0291291
-0.0235883
-0.0170092
-0.0105146
-0.00463066
6.01843e-05
0.00371719
0.00643286
0.00822836
0.00940396
0.0101461
0.0106017
0.010892
0.0110699
0.0111649
0.0112099
0.0112
0.0112739
0.0112904
0.0112806
0.011251
0.0112102
0.011154
0.0110754
0.010943
0.0107136
0.0102414
0.00931997
0.0078978
0.00580451
0.00289633
-0.000833597
-0.00530036
-0.0103556
-0.0153481
-0.0195769
-0.0228153
-0.0242462
-0.0230463
-0.0200999
-0.0161742
-0.0115091
-0.00663381
-0.0022092
0.00154887
0.00445378
0.00676261
0.00840201
0.00941757
0.0100867
0.0104529
0.0106639
0.0107922
0.0108558
0.0108794
0.0108872
0.010909
0.0105426
0.0104909
0.0104224
0.0103287
0.0102038
0.0100238
0.00975011
0.00932009
0.00865228
0.00760607
0.0060077
0.00380287
0.000913552
-0.00269665
-0.00687354
-0.0113345
-0.0157926
-0.0194453
-0.0210589
-0.0207261
-0.019754
-0.016714
-0.0128382
-0.00846062
-0.00392142
0.000271559
0.00364886
0.00623529
0.00817123
0.0095076
0.0102247
0.0105678
0.0107302
0.0107798
0.0107968
0.0107942
0.0107801
0.0107609
0.010745
0.0107395
0.00989728
0.00981321
0.00970916
0.00957242
0.0093791
0.0090912
0.00864493
0.00793907
0.00682425
0.00512448
0.00274777
-0.000411658
-0.00444427
-0.00917315
-0.0142134
-0.0191261
-0.0232266
-0.0259524
-0.0260105
-0.0230123
-0.019495
-0.0149663
-0.00964327
-0.00392225
0.00114549
0.00530613
0.00828749
0.0101973
0.0112944
0.0115902
0.0115014
0.011325
0.011115
0.0109402
0.0108069
0.0107061
0.0106345
0.0105904
0.0105627
0.0105327
0.00937893
0.00933393
0.00924337
0.00909744
0.00886113
0.00849101
0.00792484
0.00702482
0.00558378
0.00334805
0.000186793
-0.00409367
-0.00952017
-0.0156964
-0.022015
-0.0278377
-0.0321082
-0.0345268
-0.0334723
-0.0278451
-0.0210053
-0.0138558
-0.00635088
0.000596902
0.00584763
0.00962187
0.0119035
0.0129872
0.0132135
0.0127451
0.012194
0.0116427
0.0111892
0.0108475
0.0105905
0.0104063
0.0102836
0.0102143
0.0101822
0.0101929
0.00893421
0.00895053
0.0088945
0.00876447
0.00852005
0.008124
0.00750441
0.00654852
0.0050516
0.00267728
-0.00070004
-0.00539057
-0.0114148
-0.0182768
-0.0250988
-0.0313414
-0.0355926
-0.0381228
-0.0367889
-0.0301458
-0.0218862
-0.0128946
-0.00411828
0.00323661
0.00803927
0.0111696
0.0127208
0.0132757
0.0131844
0.0126222
0.0120333
0.0114062
0.0108851
0.0104835
0.0101889
0.00998536
0.00985672
0.00979241
0.00977405
0.00981984
0.00856739
0.00859912
0.00855377
0.00844171
0.00823461
0.00790585
0.00738156
0.0065611
0.00528958
0.00332159
0.000482962
-0.0032951
-0.00817116
-0.0139021
-0.0197668
-0.0253557
-0.0294454
-0.0319095
-0.0317261
-0.0267438
-0.0204462
-0.013012
-0.00566236
0.000484514
0.00488022
0.0080225
0.00979567
0.0107634
0.0111452
0.0110943
0.0108729
0.0105276
0.010165
0.00988169
0.00967716
0.00954887
0.00946857
0.00943029
0.00941531
0.00942278
0.00830122
0.00830131
0.00827189
0.008212
0.00810202
0.00791289
0.00759944
0.00708519
0.00625398
0.00502581
0.00321453
0.000822881
-0.00225191
-0.00608155
-0.0101998
-0.01442
-0.0178583
-0.020512
-0.0217179
-0.020387
-0.0175687
-0.0135632
-0.0092513
-0.00497522
-0.00115415
0.0020729
0.00453767
0.00638435
0.00764854
0.00844203
0.00884128
0.00898159
0.00899292
0.00896958
0.00894777
0.00894126
0.00894072
0.00894312
0.0089374
0.00891074
0.00814264
0.00813529
0.00814103
0.00814697
0.00813611
0.00810174
0.00801545
0.00784315
0.00750832
0.0069439
0.00599966
0.00463685
0.00287277
0.000496747
-0.00230968
-0.00560077
-0.00873275
-0.011744
-0.0139956
-0.0152741
-0.0152891
-0.0145824
-0.0128117
-0.0099515
-0.00671859
-0.00347605
-0.000567882
0.00188927
0.00384894
0.00534263
0.00639743
0.00708371
0.00750777
0.00778273
0.00796467
0.00808624
0.0081709
0.00822837
0.00826172
0.00827128
0.00804113
0.00806724
0.00809704
0.00813618
0.00818351
0.00824554
0.00832417
0.00841622
0.00847454
0.00844422
0.00822163
0.00764978
0.00663955
0.00502258
0.0028025
-0.000213927
-0.0036007
-0.00713643
-0.0101364
-0.0129621
-0.015328
-0.0173457
-0.0174664
-0.0156737
-0.012838
-0.00935846
-0.0058394
-0.00255033
0.000227587
0.0024053
0.00407213
0.0052727
0.00608315
0.0066248
0.00697986
0.00721618
0.00737847
0.00749585
0.00758396
0.00765007
0.00785702
0.00788637
0.00792534
0.0079858
0.00807701
0.00821072
0.00839888
0.00865891
0.00899374
0.00939222
0.00977551
0.0100325
0.00981099
0.00889048
0.00718935
0.0044368
0.000724397
-0.00384109
-0.00844034
-0.0132685
-0.0180119
-0.0222293
-0.0238772
-0.0230569
-0.0202632
-0.0162193
-0.0117493
-0.00729164
-0.00335699
-0.000209377
0.00214948
0.00387162
0.00504692
0.00580653
0.00629188
0.00661294
0.00682966
0.00697721
0.00708263
0.00714888
0.00755398
0.00753557
0.00756746
0.00763682
0.00775867
0.00794115
0.00820195
0.00855692
0.00904547
0.00968043
0.01037
0.0111563
0.0116425
0.0114951
0.0105259
0.00838955
0.00485321
-0.000428276
-0.00683729
-0.0137657
-0.0204861
-0.0264845
-0.0291613
-0.0288701
-0.0257531
-0.0213892
-0.0161523
-0.0107517
-0.00582792
-0.00183913
0.0010495
0.0031242
0.00448812
0.00536443
0.00592174
0.00628298
0.00651245
0.00664297
0.00671235
0.00673259
0.00722931
0.00719795
0.00721187
0.00726194
0.00736739
0.00753381
0.00777883
0.00812097
0.00855919
0.0091211
0.00970164
0.0103597
0.0108848
0.0109198
0.0101664
0.00836338
0.00509881
-5.1744e-06
-0.0065028
-0.0133404
-0.0197942
-0.0254961
-0.0276573
-0.0271002
-0.0241023
-0.0200635
-0.0151766