/*--------------------------------*- C++ -*----------------------------------*\
| =========                 |                                                 |
| \\      /  F ield         | OpenFOAM: The Open Source CFD Toolbox           |
|  \\    /   O peration     | Version:  v2106                                 |
|   \\  /    A nd           | Website:  www.openfoam.com                      |
|    \\/     M anipulation  |                                                 |
\*---------------------------------------------------------------------------*/
FoamFile
{
    version     2.0;
    format      ascii;
    arch        "LSB;label=32;scalar=64";
    class       pointVectorField;
    location    "0";
    object      pointDisplacement;
}
// * * * * * * * * * * * * * * * * * * * * * * * * * * * * * * * * * * * * * //

dimensions      [0 1 0 0 0 0 0];

internalField   nonuniform List<vector> 
24440
(
(0 0 0)
(0 0 0)
(0 0 0)
(0 0 0)
(0 0 0)
(0 0 0)
(0 0 0)
(0 0 0)
(0 0 0)
(0 0 0)
(0 0 0)
(0 0 0)
(0 0 0)
(0 0 0)
(0 0 0)
(0 0 0)
(0 0 0)
(0 0 0)
(0 0 0)
(0 0 0)
(0 0 0)
(0 0 0)
(0 0 0)
(0 0 0)
(0 0 0)
(0 0 0)
(0 0 0)
(0 0 0)
(0 0 0)
(0 0 0)
(0 0 0)
(0 0 0)
(0 0 0)
(0 0 0)
(0 0 0)
(0 0 0)
(0 0 0)
(0 0 0)
(0 0 0)
(0 0 0)
(0 0 0)
(0 0 0)
(0 0 0)
(0 0 0)
(0 0 0)
(0 0 0)
(0 0 0)
(0 0 0)
(0 0 0)
(0 0 0)
(0 0 0)
(0 0 0)
(0 0 0)
(0 0 0)
(0 0 0)
(0 0 0)
(0 0 0)
(0 0 0)
(0 0 0)
(0 0 0)
(0 0 0)
(0 0 0)
(0 0 0)
(0 0 0)
(0 0 0)
(0 0 0)
(0 0 0)
(0 0 0)
(0 0 0)
(0 0 0)
(0 0 0)
(0 0 0)
(0 0 0)
(0 0 0)
(0 0 0)
(0 0 0)
(0 0 0)
(0 0 0)
(0 0 0)
(0 0 0)
(0 0 0)
(0 0 0)
(0 0 0)
(0 0 0)
(0 0 0)
(0 0 0)
(0 0 0)
(0 0 0)
(0 0 0)
(0 0 0)
(0 0 0)
(0 0 0)
(0 0 0)
(0 0 0)
(0 0 0)
(0 0 0)
(0 0 0)
(0 0 0)
(0 -4.1033e-06 0)
(0 -2.58757e-05 0)
(0 -7.11526e-05 0)
(0 -0.000109643 0)
(0 -0.000124414 0)
(0 -0.000109643 0)
(0 -7.11526e-05 0)
(0 -2.58757e-05 0)
(0 -4.1033e-06 0)
(0 0 0)
(0 0 0)
(0 0 0)
(0 0 0)
(0 0 0)
(0 0 0)
(0 0 0)
(0 0 0)
(0 0 0)
(0 0 0)
(0 0 0)
(0 0 0)
(0 0 0)
(0 0 0)
(0 0 0)
(0 0 0)
(0 0 0)
(0 0 0)
(0 0 0)
(0 0 0)
(0 0 0)
(0 0 0)
(0 0 0)
(0 0 0)
(0 0 0)
(0 0 0)
(0 0 0)
(0 0 0)
(0 0 0)
(0 -6.87192e-06 0)
(0 -9.0904e-05 0)
(0 -0.000267524 0)
(0 -0.000481927 0)
(0 -0.000687423 0)
(0 -0.000830683 0)
(0 -0.000963859 0)
(0 -0.00101072 0)
(0 -0.000963859 0)
(0 -0.000830683 0)
(0 -0.000687423 0)
(0 -0.000481927 0)
(0 -0.000267524 0)
(0 -9.0904e-05 0)
(0 -6.87192e-06 0)
(0 0 0)
(0 0 0)
(0 0 0)
(0 0 0)
(0 0 0)
(0 0 0)
(0 0 0)
(0 0 0)
(0 0 0)
(0 0 0)
(0 0 0)
(0 0 0)
(0 0 0)
(0 0 0)
(0 0 0)
(0 0 0)
(0 0 0)
(0 0 0)
(0 0 0)
(0 0 0)
(0 0 0)
(0 0 0)
(0 0 0)
(0 0 0)
(0 -2.88523e-06 0)
(0 -0.000119547 0)
(0 -0.000407694 0)
(0 -0.000803968 0)
(0 -0.00121213 0)
(0 -0.00166748 0)
(0 -0.00206186 0)
(0 -0.00230611 0)
(0 -0.00253966 0)
(0 -0.00262037 0)
(0 -0.00253966 0)
(0 -0.00230611 0)
(0 -0.00206186 0)
(0 -0.00166748 0)
(0 -0.00121213 0)
(0 -0.000803968 0)
(0 -0.000407694 0)
(0 -0.000119547 0)
(0 -2.88523e-06 0)
(0 0 0)
(0 0 0)
(0 0 0)
(0 0 0)
(0 0 0)
(0 0 0)
(0 0 0)
(0 0 0)
(0 0 0)
(0 0 0)
(0 0 0)
(0 0 0)
(0 0 0)
(0 0 0)
(0 0 0)
(0 0 0)
(0 0 0)
(0 0 0)
(0 0 0)
(0 0 0)
(0 0 0)
(0 -2.72812e-05 0)
(0 -0.00028371 0)
(0 -0.000753973 0)
(0 -0.00132286 0)
(0 -0.00202918 0)
(0 -0.00274158 0)
(0 -0.00335874 0)
(0 -0.00393686 0)
(0 -0.00434711 0)
(0 -0.00459222 0)
(0 -0.00470474 0)
(0 -0.00459222 0)
(0 -0.00434711 0)
(0 -0.00393686 0)
(0 -0.00335874 0)
(0 -0.00274158 0)
(0 -0.00202918 0)
(0 -0.00132286 0)
(0 -0.000753973 0)
(0 -0.00028371 0)
(0 -2.88818e-05 0)
(0 0 0)
(0 0 0)
(0 0 0)
(0 0 0)
(0 0 0)
(0 0 0)
(0 0 0)
(0 0 0)
(0 0 0)
(0 0 0)
(0 0 0)
(0 0 0)
(0 0 0)
(0 0 0)
(0 0 0)
(0 0 0)
(0 0 0)
(0 0 0)
(0 0 0)
(0 -5.36561e-05 0)
(0 -0.000376236 0)
(0 -0.000939038 0)
(0 -0.00172393 0)
(0 -0.00265674 0)
(0 -0.00362608 0)
(0 -0.00451561 0)
(0 -0.00535891 0)
(0 -0.00567579 0)
(0 -0.00601847 0)
(0 -0.0063051 0)
(0 -0.00653094 0)
(0 -0.00669243 0)
(0 -0.00680411 0)
(0 -0.00690727 0)
(0 -0.00694182 0)
(0 -0.00690727 0)
(0 -0.00680411 0)
(0 -0.00669243 0)
(0 -0.00653094 0)
(0 -0.0063051 0)
(0 -0.00601847 0)
(0 -0.00567579 0)
(0 -0.00535891 0)
(0 -0.00451561 0)
(0 -0.00362608 0)
(0 -0.00265674 0)
(0 -0.00172393 0)
(0 -0.000919547 0)
(0 -0.000339967 0)
(0 -4.28747e-05 0)
(0 0 0)
(0 0 0)
(0 0 0)
(0 0 0)
(0 0 0)
(0 0 0)
(0 0 0)
(0 0 0)
(0 0 0)
(0 0 0)
(0 0 0)
(0 0 0)
(0 0 0)
(0 0 0)
(0 0 0)
(0 0 0)
(0 0 0)
(0 -3.15596e-05 0)
(0 -0.000361166 0)
(0 -0.00100627 0)
(0 -0.00189351 0)
(0 -0.00293277 0)
(0 -0.00415552 0)
(0 -0.00474018 0)
(0 -0.00525841 0)
(0 -0.00583198 0)
(0 -0.0063696 0)
(0 -0.00686148 0)
(0 -0.00727935 0)
(0 -0.00634406 0)
(0 -0.00673141 0)
(0 -0.0070371 0)
(0 -0.00734543 0)
(0 -0.00758731 0)
(0 -0.00775968 0)
(0 -0.00786301 0)
(0 -0.00797252 0)
(0 -0.00800915 0)
(0 -0.00797252 0)
(0 -0.00786301 0)
(0 -0.00775968 0)
(0 -0.00758731 0)
(0 -0.00734543 0)
(0 -0.0070371 0)
(0 -0.00673141 0)
(0 -0.00634406 0)
(0 -0.00727935 0)
(0 -0.00686148 0)
(0 -0.0063696 0)
(0 -0.00583198 0)
(0 -0.00525841 0)
(0 -0.00474018 0)
(0 -0.00415552 0)
(0 -0.00293277 0)
(0 -0.00189351 0)
(0 -0.000969567 0)
(0 -0.000345453 0)
(0 -2.86607e-05 0)
(0 0 0)
(0 0 0)
(0 0 0)
(0 0 0)
(0 0 0)
(0 0 0)
(0 0 0)
(0 0 0)
(0 0 0)
(0 0 0)
(0 0 0)
(0 0 0)
(0 0 0)
(0 0 0)
(0 0 0)
(0 0 0)
(0 -0.000199683 0)
(0 -0.000816036 0)
(0 -0.00174457 0)
(0 -0.00291092 0)
(0 -0.00420996 0)
(0 -0.00552993 0)
(0 -0.00486735 0)
(0 -0.00550314 0)
(0 -0.00611493 0)
(0 -0.00669099 0)
(0 -0.0072028 0)
(0 -0.00772185 0)
(0 -0.00818052 0)
(0 -0.00855945 0)
(0 -0.00769093 0)
(0 -0.0080376 0)
(0 -0.00891676 0)
(0 -0.00917404 0)
(0 -0.0083134 0)
(0 -0.00856575 0)
(0 -0.00942992 0)
(0 -0.00961003 0)
(0 -0.00874476 0)
(0 -0.00883548 0)
(0 -0.00971442 0)
(0 -0.00979727 0)
(0 -0.00894841 0)
(0 -0.0089861 0)
(0 -0.00983469 0)
(0 -0.00979727 0)
(0 -0.00894841 0)
(0 -0.00883548 0)
(0 -0.00971442 0)
(0 -0.00961003 0)
(0 -0.00874476 0)
(0 -0.00856575 0)
(0 -0.00942992 0)
(0 -0.00917404 0)
(0 -0.0083134 0)
(0 -0.0080376 0)
(0 -0.00891676 0)
(0 -0.00855945 0)
(0 -0.00769093 0)
(0 -0.00818052 0)
(0 -0.00772185 0)
(0 -0.0072028 0)
(0 -0.00669099 0)
(0 -0.00611493 0)
(0 -0.00550314 0)
(0 -0.00486735 0)
(0 -0.00552993 0)
(0 -0.00420996 0)
(0 -0.00287588 0)
(0 -0.0017308 0)
(0 -0.000815164 0)
(0 -0.000217088 0)
(0 0 0)
(0 0 0)
(0 0 0)
(0 0 0)
(0 0 0)
(0 0 0)
(0 0 0)
(0 0 0)
(0 0 0)
(0 0 0)
(0 0 0)
(0 0 0)
(0 0 0)
(0 0 0)
(0 0 0)
(0 -4.35607e-05 0)
(0 -0.00044753 0)
(0 -0.00129 0)
(0 -0.00241694 0)
(0 -0.00375667 0)
(0 -0.00529159 0)
(0 -0.00677008 0)
(0 -0.0061947 0)
(0 -0.00686449 0)
(0 -0.00616373 0)
(0 -0.0068531 0)
(0 -0.00749406 0)
(0 -0.00812562 0)
(0 -0.00745979 0)
(0 -0.00801386 0)
(0 -0.00869506 0)
(0 -0.0089547 0)
(0 -0.00919639 0)
(0 -0.00886777 0)
(0 -0.00848156 0)
(0 -0.00895221 0)
(0 -0.00928975 0)
(0 -0.00949826 0)
(0 -0.00916061 0)
(0 -0.00966755 0)
(0 -0.00998773 0)
(0 -0.0101359 0)
(0 -0.00981796 0)
(0 -0.0101494 0)
(0 -0.0104627 0)
(0 -0.0105407 0)
(0 -0.0102459 0)
(0 -0.0104232 0)
(0 -0.0107102 0)
(0 -0.0107511 0)
(0 -0.0104707 0)
(0 -0.0105217 0)
(0 -0.0107961 0)
(0 -0.0107878 0)
(0 -0.0105129 0)
(0 -0.0104232 0)
(0 -0.0107102 0)
(0 -0.0106715 0)
(0 -0.0103825 0)
(0 -0.0101494 0)
(0 -0.0104627 0)
(0 -0.010373 0)
(0 -0.0100605 0)
(0 -0.00966755 0)
(0 -0.00998773 0)
(0 -0.00985692 0)
(0 -0.00949772 0)
(0 -0.00895221 0)
(0 -0.00928975 0)
(0 -0.0090623 0)
(0 -0.00872565 0)
(0 -0.00801386 0)
(0 -0.00869506 0)
(0 -0.00812562 0)
(0 -0.00745979 0)
(0 -0.0068531 0)
(0 -0.00749406 0)
(0 -0.00686449 0)
(0 -0.00616373 0)
(0 -0.0061947 0)
(0 -0.00673959 0)
(0 -0.00528794 0)
(0 -0.00381722 0)
(0 -0.00239664 0)
(0 -0.00127744 0)
(0 -0.00046996 0)
(0 -4.98139e-05 0)
(0 0 0)
(0 0 0)
(0 0 0)
(0 0 0)
(0 0 0)
(0 0 0)
(0 0 0)
(0 0 0)
(0 0 0)
(0 0 0)
(0 0 0)
(0 0 0)
(0 0 0)
(0 0 0)
(0 -0.00014252 0)
(0 -0.000721305 0)
(0 -0.00169474 0)
(0 -0.00297789 0)
(0 -0.00446075 0)
(0 -0.00609174 0)
(0 -0.00761395 0)
(0 -0.00723837 0)
(0 -0.00795469 0)
(0 -0.00746718 0)
(0 -0.00811803 0)
(0 -0.00861902 0)
(0 -0.009219 0)
(0 -0.00871089 0)
(0 -0.00923605 0)
(0 -0.00950808 0)
(0 -0.00974207 0)
(0 -0.00950776 0)
(0 -0.0101688 0)
(0 -0.0102814 0)
(0 -0.0103722 0)
(0 -0.0102607 0)
(0 -0.0107647 0)
(0 -0.0108547 0)
(0 -0.0109132 0)
(0 -0.010825 0)
(0 -0.0111174 0)
(0 -0.011183 0)
(0 -0.0112128 0)
(0 -0.0111467 0)
(0 -0.011272 0)
(0 -0.0113201 0)
(0 -0.011327 0)
(0 -0.0112803 0)
(0 -0.0113116 0)
(0 -0.0113503 0)
(0 -0.0113497 0)
(0 -0.0113106 0)
(0 -0.011272 0)
(0 -0.0113201 0)
(0 -0.0113106 0)
(0 -0.0112608 0)
(0 -0.0111174 0)
(0 -0.011183 0)
(0 -0.0111581 0)
(0 -0.0110822 0)
(0 -0.0107647 0)
(0 -0.0108547 0)
(0 -0.0108039 0)
(0 -0.0106991 0)
(0 -0.0101688 0)
(0 -0.0102814 0)
(0 -0.0103843 0)
(0 -0.0101884 0)
(0 -0.00996923 0)
(0 -0.00923605 0)
(0 -0.00950808 0)
(0 -0.00974439 0)
(0 -0.009219 0)
(0 -0.00871089 0)
(0 -0.00811803 0)
(0 -0.00859933 0)
(0 -0.00794956 0)
(0 -0.00746718 0)
(0 -0.00724703 0)
(0 -0.0076365 0)
(0 -0.00607643 0)
(0 -0.00450518 0)
(0 -0.00300911 0)
(0 -0.00171438 0)
(0 -0.000731597 0)
(0 -0.000146036 0)
(0 0 0)
(0 0 0)
(0 0 0)
(0 0 0)
(0 0 0)
(0 0 0)
(0 0 0)
(0 0 0)
(0 0 0)
(0 0 0)
(0 0 0)
(0 0 0)
(0 0 0)
(0 0 0)
(0 -0.000219763 0)
(0 -0.00089606 0)
(0 -0.00197188 0)
(0 -0.00335639 0)
(0 -0.00493296 0)
(0 -0.00656914 0)
(0 -0.00812797 0)
(0 -0.00793484 0)
(0 -0.00864549 0)
(0 -0.00831557 0)
(0 -0.00895892 0)
(0 -0.00929291 0)
(0 -0.00986442 0)
(0 -0.00958838 0)
(0 -0.0101086 0)
(0 -0.0102372 0)
(0 -0.0104611 0)
(0 -0.0103355 0)
(0 -0.0108746 0)
(0 -0.010934 0)
(0 -0.011001 0)
(0 -0.0109435 0)
(0 -0.0112878 0)
(0 -0.0113165 0)
(0 -0.0113404 0)
(0 -0.0113151 0)
(0 -0.0113868 0)
(0 -0.0113868 0)
(0 -0.0113868 0)
(0 -0.0113868 0)
(0 -0.0113868 0)
(0 -0.0113868 0)
(0 -0.0113868 0)
(0 -0.0113868 0)
(0 -0.0113868 0)
(0 -0.0113868 0)
(0 -0.0113868 0)
(0 -0.0113868 0)
(0 -0.0113868 0)
(0 -0.0113868 0)
(0 -0.0113868 0)
(0 -0.0113868 0)
(0 -0.0113868 0)
(0 -0.0113868 0)
(0 -0.0113868 0)
(0 -0.0113868 0)
(0 -0.0112878 0)
(0 -0.0113165 0)
(0 -0.0112849 0)
(0 -0.011255 0)
(0 -0.0108746 0)
(0 -0.010934 0)
(0 -0.0109847 0)
(0 -0.0108299 0)
(0 -0.0107189 0)
(0 -0.0101028 0)
(0 -0.0102521 0)
(0 -0.0103661 0)
(0 -0.00985073 0)
(0 -0.00959691 0)
(0 -0.00900998 0)
(0 -0.00928136 0)
(0 -0.00863631 0)
(0 -0.00835233 0)
(0 -0.0079281 0)
(0 -0.00813201 0)
(0 -0.00656645 0)
(0 -0.00492512 0)
(0 -0.00334562 0)
(0 -0.00196065 0)
(0 -0.00088677 0)
(0 -0.000214487 0)
(0 0 0)
(0 0 0)
(0 0 0)
(0 0 0)
(0 0 0)
(0 0 0)
(0 0 0)
(0 0 0)
(0 0 0)
(0 0 0)
(0 0 0)
(0 0 0)
(0 0 0)
(0 0 0)
(0 -0.000232998 0)
(0 -0.000924704 0)
(0 -0.00201704 0)
(0 -0.00341821 0)
(0 -0.00501049 0)
(0 -0.00666009 0)
(0 -0.00822843 0)
(0 -0.00823132 0)
(0 -0.0089427 0)
(0 -0.00883727 0)
(0 -0.0094799 0)
(0 -0.00958545 0)
(0 -0.010146 0)
(0 -0.0100428 0)
(0 -0.0105328 0)
(0 -0.0105801 0)
(0 -0.0107765 0)
(0 -0.0107339 0)
(0 -0.0111773 0)
(0 -0.0111955 0)
(0 -0.011244 0)
(0 -0.0112271 0)
(0 -0.0113868 0)
(0 -0.0113868 0)
(0 -0.0113868 0)
(0 -0.0113868 0)
(0 -0.0113868 0)
(0 -0.0113868 0)
(0 -0.0113868 0)
(0 -0.0113868 0)
(0 -0.0113868 0)
(0 -0.0113868 0)
(0 -0.0113868 0)
(0 -0.0113868 0)
(0 -0.0113868 0)
(0 -0.0113868 0)
(0 -0.0113868 0)
(0 -0.0113868 0)
(0 -0.0113868 0)
(0 -0.0113863 0)
(0 -0.0113847 0)
(0 -0.0111773 0)
(0 -0.0111955 0)
(0 -0.0112076 0)
(0 -0.0110937 0)
(0 -0.0110535 0)
(0 -0.0105321 0)
(0 -0.0105808 0)
(0 -0.0106126 0)
(0 -0.010146 0)
(0 -0.0100574 0)
(0 -0.0094912 0)
(0 -0.0095613 0)
(0 -0.00891497 0)
(0 -0.00884497 0)
(0 -0.00820061 0)
(0 -0.00821003 0)
(0 -0.00663961 0)
(0 -0.00498969 0)
(0 -0.00339889 0)
(0 -0.00200088 0)
(0 -0.000913116 0)
(0 -0.000226994 0)
(0 0 0)
(0 0 0)
(0 0 0)
(0 0 0)
(0 0 0)
(0 0 0)
(0 0 0)
(0 0 0)
(0 0 0)
(0 0 0)
(0 0 0)
(0 0 0)
(0 0 0)
(0 0 0)
(0 -0.000190413 0)
(0 -0.000832184 0)
(0 -0.00187222 0)
(0 -0.00322181 0)
(0 -0.00476668 0)
(0 -0.00637696 0)
(0 -0.00791857 0)
(0 -0.00814107 0)
(0 -0.00885127 0)
(0 -0.00894037 0)
(0 -0.00958374 0)
(0 -0.00949455 0)
(0 -0.0100578 0)
(0 -0.010145 0)
(0 -0.0106122 0)
(0 -0.0105872 0)
(0 -0.0107836 0)
(0 -0.0108074 0)
(0 -0.0112275 0)
(0 -0.0112216 0)
(0 -0.0112671 0)
(0 -0.0112724 0)
(0 -0.0113868 0)
(0 -0.0113868 0)
(0 -0.0113868 0)
(0 -0.0113868 0)
(0 -0.0113868 0)
(0 -0.0113868 0)
(0 -0.0113868 0)
(0 -0.0113868 0)
(0 -0.0113868 0)
(0 -0.0113868 0)
(0 -0.0113868 0)
(0 -0.0113868 0)
(0 -0.0113868 0)
(0 -0.0113868 0)
(0 -0.0113868 0)
(0 -0.0113868 0)
(0 -0.0112275 0)
(0 -0.0112168 0)
(0 -0.0112108 0)
(0 -0.0110972 0)
(0 -0.0111102 0)
(0 -0.0106023 0)
(0 -0.0105864 0)
(0 -0.0105381 0)
(0 -0.0100646 0)
(0 -0.0101325 0)
(0 -0.009569 0)
(0 -0.00949957 0)
(0 -0.00885427 0)
(0 -0.00892362 0)
(0 -0.00814206 0)
(0 -0.0079387 0)
(0 -0.00639175 0)
(0 -0.00477634 0)
(0 -0.00322713 0)
(0 -0.00187434 0)
(0 -0.00083239 0)
(0 -0.000189998 0)
(0 0 0)
(0 0 0)
(0 0 0)
(0 0 0)
(0 0 0)
(0 0 0)
(0 0 0)
(0 0 0)
(0 0 0)
(0 0 0)
(0 0 0)
(0 0 0)
(0 0 0)
(0 0 0)
(0 -9.63082e-05 0)
(0 -0.00060493 0)
(0 -0.00150464 0)
(0 -0.00271464 0)
(0 -0.0042205 0)
(0 -0.00576033 0)
(0 -0.0072623 0)
(0 -0.00766061 0)
(0 -0.00837262 0)
(0 -0.0086236 0)
(0 -0.00930776 0)
(0 -0.00902596 0)
(0 -0.00960826 0)
(0 -0.0098881 0)
(0 -0.010381 0)
(0 -0.0102629 0)
(0 -0.0104771 0)
(0 -0.0105918 0)
(0 -0.0110728 0)
(0 -0.0110392 0)
(0 -0.0111003 0)
(0 -0.0111362 0)
(0 -0.011373 0)
(0 -0.0113613 0)
(0 -0.0113752 0)
(0 -0.0113825 0)
(0 -0.0113868 0)
(0 -0.0113868 0)
(0 -0.0113868 0)
(0 -0.0113868 0)
(0 -0.0113868 0)
(0 -0.0113868 0)
(0 -0.0113868 0)
(0 -0.0113868 0)
(0 -0.011373 0)
(0 -0.0113596 0)
(0 -0.0113411 0)
(0 -0.0113576 0)
(0 -0.0110728 0)
(0 -0.0110392 0)
(0 -0.0109935 0)
(0 -0.0108487 0)
(0 -0.0109381 0)
(0 -0.010381 0)
(0 -0.0102629 0)
(0 -0.0101287 0)
(0 -0.00960826 0)
(0 -0.0098881 0)
(0 -0.00929041 0)
(0 -0.00902596 0)
(0 -0.00837262 0)
(0 -0.00864623 0)
(0 -0.00766061 0)
(0 -0.0072623 0)
(0 -0.00576033 0)
(0 -0.00416611 0)
(0 -0.00274133 0)
(0 -0.00152214 0)
(0 -0.000614509 0)
(0 -9.95448e-05 0)
(0 0 0)
(0 0 0)
(0 0 0)
(0 0 0)
(0 0 0)
(0 0 0)
(0 0 0)
(0 0 0)
(0 0 0)
(0 0 0)
(0 0 0)
(0 0 0)
(0 0 0)
(0 0 0)
(0 -1.19167e-05 0)
(0 -0.000353745 0)
(0 -0.00107719 0)
(0 -0.0021182 0)
(0 -0.0033816 0)
(0 -0.00475651 0)
(0 -0.00619926 0)
(0 -0.00674631 0)
(0 -0.0074799 0)
(0 -0.00796092 0)
(0 -0.00864047 0)
(0 -0.00812215 0)
(0 -0.00876535 0)
(0 -0.00923143 0)
(0 -0.00977442 0)
(0 -0.00955669 0)
(0 -0.00979653 0)
(0 -0.0100124 0)
(0 -0.0105951 0)
(0 -0.0104982 0)
(0 -0.0105864 0)
(0 -0.0106669 0)
(0 -0.0111102 0)
(0 -0.0110464 0)
(0 -0.0110929 0)
(0 -0.0111542 0)
(0 -0.0113405 0)
(0 -0.0113048 0)
(0 -0.0113205 0)
(0 -0.011353 0)
(0 -0.0113868 0)
(0 -0.0113804 0)
(0 -0.0113829 0)
(0 -0.0113868 0)
(0 -0.0113868 0)
(0 -0.0113868 0)
(0 -0.0113868 0)
(0 -0.0113868 0)
(0 -0.0113868 0)
(0 -0.0113868 0)
(0 -0.0113804 0)
(0 -0.0113769 0)
(0 -0.0113864 0)
(0 -0.0113867 0)
(0 -0.0113405 0)
(0 -0.0113048 0)
(0 -0.0112854 0)
(0 -0.0113243 0)
(0 -0.0111102 0)
(0 -0.0110464 0)
(0 -0.0109945 0)
(0 -0.0110606 0)
(0 -0.010603 0)
(0 -0.0105139 0)
(0 -0.010407 0)
(0 -0.0102301 0)
(0 -0.0104224 0)
(0 -0.00974758 0)
(0 -0.00954562 0)
(0 -0.0093097 0)
(0 -0.00875331 0)
(0 -0.00923143 0)
(0 -0.00864047 0)
(0 -0.00812215 0)
(0 -0.0074799 0)
(0 -0.00796092 0)
(0 -0.00674631 0)
(0 -0.00619926 0)
(0 -0.00475651 0)
(0 -0.0033816 0)
(0 -0.0021182 0)
(0 -0.00107719 0)
(0 -0.000329973 0)
(0 -1.43141e-05 0)
(0 0 0)
(0 0 0)
(0 0 0)
(0 0 0)
(0 0 0)
(0 0 0)
(0 0 0)
(0 0 0)
(0 0 0)
(0 0 0)
(0 0 0)
(0 0 0)
(0 0 0)
(0 0 0)
(0 0 0)
(0 -0.000108731 0)
(0 -0.000572972 0)
(0 -0.00134807 0)
(0 -0.00235319 0)
(0 -0.00360902 0)
(0 -0.00490747 0)
(0 -0.00552 0)
(0 -0.00624279 0)
(0 -0.00686088 0)
(0 -0.00753096 0)
(0 -0.00689349 0)
(0 -0.00750188 0)
(0 -0.00816078 0)
(0 -0.00873103 0)
(0 -0.00805727 0)
(0 -0.00852223 0)
(0 -0.00890827 0)
(0 -0.00923278 0)
(0 -0.00899093 0)
(0 -0.00966428 0)
(0 -0.0093269 0)
(0 -0.00953544 0)
(0 -0.00985508 0)
(0 -0.0103327 0)
(0 -0.0100435 0)
(0 -0.0101592 0)
(0 -0.010459 0)
(0 -0.010756 0)
(0 -0.0104997 0)
(0 -0.010575 0)
(0 -0.010827 0)
(0 -0.0109755 0)
(0 -0.010739 0)
(0 -0.0107807 0)
(0 -0.0110046 0)
(0 -0.0110435 0)
(0 -0.0108251 0)
(0 -0.0108138 0)
(0 -0.0110346 0)
(0 -0.0109755 0)
(0 -0.010739 0)
(0 -0.0106798 0)
(0 -0.0109299 0)
(0 -0.010756 0)
(0 -0.0104997 0)
(0 -0.0104056 0)
(0 -0.0106664 0)
(0 -0.0103327 0)
(0 -0.0100435 0)
(0 -0.0098939 0)
(0 -0.0101863 0)
(0 -0.00966428 0)
(0 -0.0093269 0)
(0 -0.00913107 0)
(0 -0.00945585 0)
(0 -0.00873103 0)
(0 -0.00805727 0)
(0 -0.00750188 0)
(0 -0.00816078 0)
(0 -0.00753096 0)
(0 -0.00689349 0)
(0 -0.00624279 0)
(0 -0.00686088 0)
(0 -0.00552 0)
(0 -0.00490747 0)
(0 -0.00360902 0)
(0 -0.00235319 0)
(0 -0.00134807 0)
(0 -0.000572972 0)
(0 -0.000108731 0)
(0 0 0)
(0 0 0)
(0 0 0)
(0 0 0)
(0 0 0)
(0 0 0)
(0 0 0)
(0 0 0)
(0 0 0)
(0 0 0)
(0 0 0)
(0 0 0)
(0 0 0)
(0 0 0)
(0 0 0)
(0 0 0)
(0 0 0)
(0 -0.000163853 0)
(0 -0.000676589 0)
(0 -0.00145042 0)
(0 -0.00241011 0)
(0 -0.00346129 0)
(0 -0.00449897 0)
(0 -0.00530423 0)
(0 -0.0061605 0)
(0 -0.00554614 0)
(0 -0.0058805 0)
(0 -0.00673877 0)
(0 -0.00724882 0)
(0 -0.00642047 0)
(0 -0.00691433 0)
(0 -0.00776935 0)
(0 -0.00822915 0)
(0 -0.00780367 0)
(0 -0.0079679 0)
(0 -0.00843422 0)
(0 -0.00895748 0)
(0 -0.00853914 0)
(0 -0.00869437 0)
(0 -0.00911391 0)
(0 -0.00947041 0)
(0 -0.00904966 0)
(0 -0.00911903 0)
(0 -0.00955138 0)
(0 -0.009778 0)
(0 -0.00937394 0)
(0 -0.00942114 0)
(0 -0.0098248 0)
(0 -0.00987982 0)
(0 -0.00947832 0)
(0 -0.00945889 0)
(0 -0.00986218 0)
(0 -0.009778 0)
(0 -0.00937394 0)
(0 -0.00930785 0)
(0 -0.00971231 0)
(0 -0.00947041 0)
(0 -0.00904966 0)
(0 -0.00894984 0)
(0 -0.00937049 0)
(0 -0.00895748 0)
(0 -0.00853914 0)
(0 -0.00836601 0)
(0 -0.00878259 0)
(0 -0.00822915 0)
(0 -0.00780367 0)
(0 -0.00731193 0)
(0 -0.00691433 0)
(0 -0.00776935 0)
(0 -0.00724882 0)
(0 -0.00642047 0)
(0 -0.0058805 0)
(0 -0.00673877 0)
(0 -0.0061605 0)
(0 -0.00530423 0)
(0 -0.00449897 0)
(0 -0.00346129 0)
(0 -0.00554614 0)
(0 -0.00241011 0)
(0 -0.00145042 0)
(0 -0.000676589 0)
(0 -0.000163853 0)
(0 0 0)
(0 0 0)
(0 0 0)
(0 0 0)
(0 0 0)
(0 0 0)
(0 0 0)
(0 0 0)
(0 0 0)
(0 0 0)
(0 0 0)
(0 0 0)
(0 0 0)
(0 0 0)
(0 0 0)
(0 0 0)
(0 0 0)
(0 0 0)
(0 -2.07786e-06 0)
(0 -0.000186143 0)
(0 -0.000630776 0)
(0 -0.0012361 0)
(0 -0.00202322 0)
(0 -0.00286269 0)
(0 -0.00367433 0)
(0 -0.00414815 0)
(0 -0.00502763 0)
(0 -0.00552625 0)
(0 -0.00454755 0)
(0 -0.00499817 0)
(0 -0.0059371 0)
(0 -0.00638757 0)
(0 -0.00590351 0)
(0 -0.00610164 0)
(0 -0.00659356 0)
(0 -0.00712456 0)
(0 -0.00661376 0)
(0 -0.00675471 0)
(0 -0.00727033 0)
(0 -0.00760061 0)
(0 -0.00708912 0)
(0 -0.00720299 0)
(0 -0.0077178 0)
(0 -0.00796336 0)
(0 -0.007442 0)
(0 -0.00748662 0)
(0 -0.00800914 0)
(0 -0.00806945 0)
(0 -0.00754696 0)
(0 -0.0075224 0)
(0 -0.00804584 0)
(0 -0.00796336 0)
(0 -0.007442 0)
(0 -0.00737972 0)
(0 -0.00789943 0)
(0 -0.00760061 0)
(0 -0.00708912 0)
(0 -0.00695872 0)
(0 -0.00751185 0)
(0 -0.00712456 0)
(0 -0.00661376 0)
(0 -0.00645751 0)
(0 -0.00696277 0)
(0 -0.00638757 0)
(0 -0.00590351 0)
(0 -0.00541069 0)
(0 -0.00499817 0)
(0 -0.0059371 0)
(0 -0.00552625 0)
(0 -0.00454755 0)
(0 -0.00414815 0)
(0 -0.00502763 0)
(0 -0.00367433 0)
(0 -0.00286269 0)
(0 -0.00202322 0)
(0 -0.0012361 0)
(0 -0.000630776 0)
(0 -0.000186143 0)
(0 -2.07786e-06 0)
(0 0 0)
(0 0 0)
(0 0 0)
(0 0 0)
(0 0 0)
(0 0 0)
(0 0 0)
(0 0 0)
(0 0 0)
(0 0 0)
(0 0 0)
(0 0 0)
(0 0 0)
(0 0 0)
(0 0 0)
(0 0 0)
(0 0 0)
(0 0 0)
(0 0 0)
(0 0 0)
(0 -9.77557e-05 0)
(0 -0.000407149 0)
(0 -0.000824804 0)
(0 -0.00138882 0)
(0 -0.00205357 0)
(0 -0.0024215 0)
(0 -0.00322663 0)
(0 -0.00364918 0)
(0 -0.00278206 0)
(0 -0.00312618 0)
(0 -0.004049 0)
(0 -0.00441734 0)
(0 -0.00392634 0)
(0 -0.00408554 0)
(0 -0.00458724 0)
(0 -0.0050296 0)
(0 -0.00450109 0)
(0 -0.00457692 0)
(0 -0.00509793 0)
(0 -0.00548259 0)
(0 -0.00494014 0)
(0 -0.00503515 0)
(0 -0.00558302 0)
(0 -0.00579466 0)
(0 -0.00523561 0)
(0 -0.0052732 0)
(0 -0.00583431 0)
(0 -0.00589208 0)
(0 -0.00532928 0)
(0 -0.00530338 0)
(0 -0.00586614 0)
(0 -0.00579466 0)
(0 -0.00523561 0)
(0 -0.00518323 0)
(0 -0.0057394 0)
(0 -0.00548259 0)
(0 -0.00494014 0)
(0 -0.00483173 0)
(0 -0.00536791 0)
(0 -0.0050296 0)
(0 -0.00450109 0)
(0 -0.00437367 0)
(0 -0.00489413 0)
(0 -0.00441734 0)
(0 -0.00392634 0)
(0 -0.00344553 0)
(0 -0.00312618 0)
(0 -0.004049 0)
(0 -0.00364918 0)
(0 -0.00278206 0)
(0 -0.0024215 0)
(0 -0.00322663 0)
(0 -0.00205357 0)
(0 -0.00138882 0)
(0 -0.000824804 0)
(0 -0.000407149 0)
(0 -9.77557e-05 0)
(0 0 0)
(0 0 0)
(0 0 0)
(0 0 0)
(0 0 0)
(0 0 0)
(0 0 0)
(0 0 0)
(0 0 0)
(0 0 0)
(0 0 0)
(0 0 0)
(0 0 0)
(0 0 0)
(0 0 0)
(0 0 0)
(0 0 0)
(0 0 0)
(0 0 0)
(0 0 0)
(0 0 0)
(0 0 0)
(0 0 0)
(0 -8.32466e-06 0)
(0 -0.000141206 0)
(0 -0.000394086 0)
(0 -0.000826707 0)
(0 -0.00105178 0)
(0 -0.00168596 0)
(0 -0.00198129 0)
(0 -0.00128032 0)
(0 -0.0015046 0)
(0 -0.00226637 0)
(0 -0.00253336 0)
(0 -0.00211118 0)
(0 -0.00222349 0)
(0 -0.00265783 0)
(0 -0.00295762 0)
(0 -0.00250312 0)
(0 -0.0026085 0)
(0 -0.00307341 0)
(0 -0.00336518 0)
(0 -0.00287477 0)
(0 -0.00294502 0)
(0 -0.00344197 0)
(0 -0.00360459 0)
(0 -0.003094 0)
(0 -0.00312205 0)
(0 -0.00363517 0)
(0 -0.00368401 0)
(0 -0.00316784 0)
(0 -0.0031446 0)
(0 -0.00365975 0)
(0 -0.00360459 0)
(0 -0.003094 0)
(0 -0.00305497 0)
(0 -0.00356202 0)
(0 -0.00336518 0)
(0 -0.00287477 0)
(0 -0.00279493 0)
(0 -0.00327781 0)
(0 -0.00295762 0)
(0 -0.00250312 0)
(0 -0.00239055 0)
(0 -0.00283371 0)
(0 -0.00253336 0)
(0 -0.00211118 0)
(0 -0.00171739 0)
(0 -0.0015046 0)
(0 -0.00226637 0)
(0 -0.00198129 0)
(0 -0.00128032 0)
(0 -0.00105178 0)
(0 -0.00168596 0)
(0 -0.000826707 0)
(0 -0.000394086 0)
(0 -0.000141206 0)
(0 -8.32466e-06 0)
(0 0 0)
(0 0 0)
(0 0 0)
(0 0 0)
(0 0 0)
(0 0 0)
(0 0 0)
(0 0 0)
(0 0 0)
(0 0 0)
(0 0 0)
(0 0 0)
(0 0 0)
(0 0 0)
(0 0 0)
(0 0 0)
(0 0 0)
(0 0 0)
(0 0 0)
(0 0 0)
(0 0 0)
(0 0 0)
(0 0 0)
(0 0 0)
(0 0 0)
(0 0 0)
(0 -1.50902e-06 0)
(0 -0.000113371 0)
(0 -0.000197473 0)
(0 -0.000547571 0)
(0 -0.000709452 0)
(0 -0.000294454 0)
(0 -0.000398166 0)
(0 -0.000872768 0)
(0 -0.00103096 0)
(0 -0.000709671 0)
(0 -0.00078232 0)
(0 -0.00106992 0)
(0 -0.00131367 0)
(0 -0.00098865 0)
(0 -0.00105128 0)
(0 -0.00138701 0)
(0 -0.00157453 0)
(0 -0.00121243 0)
(0 -0.00125558 0)
(0 -0.00162449 0)
(0 -0.00173111 0)
(0 -0.00134793 0)
(0 -0.00136544 0)
(0 -0.00175127 0)
(0 -0.00178635 0)
(0 -0.00139653 0)
(0 -0.00137955 0)
(0 -0.00176751 0)
(0 -0.00173111 0)
(0 -0.00134793 0)
(0 -0.00132363 0)
(0 -0.0017031 0)
(0 -0.00157453 0)
(0 -0.00121243 0)
(0 -0.00116369 0)
(0 -0.00151798 0)
(0 -0.00131367 0)
(0 -0.00098865 0)
(0 -0.000922512 0)
(0 -0.00123593 0)
(0 -0.00103096 0)
(0 -0.000709671 0)
(0 -0.000477224 0)
(0 -0.000398166 0)
(0 -0.000872768 0)
(0 -0.000709452 0)
(0 -0.000294454 0)
(0 -0.000197473 0)
(0 -0.000547571 0)
(0 -0.000113371 0)
(0 -1.50902e-06 0)
(0 0 0)
(0 0 0)
(0 0 0)
(0 0 0)
(0 0 0)
(0 0 0)
(0 0 0)
(0 0 0)
(0 0 0)
(0 0 0)
(0 0 0)
(0 0 0)
(0 0 0)
(0 0 0)
(0 0 0)
(0 0 0)
(0 0 0)
(0 0 0)
(0 0 0)
(0 0 0)
(0 0 0)
(0 0 0)
(0 0 0)
(0 0 0)
(0 0 0)
(0 0 0)
(0 0 0)
(0 0 0)
(0 0 0)
(0 0 0)
(0 0 0)
(0 -5.54202e-05 0)
(0 -2.00448e-05 0)
(0 0 0)
(0 -8.7148e-05 0)
(0 -0.000145592 0)
(0 -4.45728e-06 0)
(0 -1.94826e-05 0)
(0 -0.00020981 0)
(0 -0.000274881 0)
(0 -4.10816e-05 0)
(0 -6.54137e-05 0)
(0 -0.000336367 0)
(0 -0.000390411 0)
(0 -8.91259e-05 0)
(0 -0.000109435 0)
(0 -0.000433825 0)
(0 -0.000464158 0)
(0 -0.000124194 0)
(0 -0.000131943 0)
(0 -0.000479746 0)
(0 -0.000492219 0)
(0 -0.000138564 0)
(0 -0.000131943 0)
(0 -0.000479746 0)
(0 -0.000464158 0)
(0 -0.000124194 0)
(0 -0.000109435 0)
(0 -0.000433825 0)
(0 -0.000390411 0)
(0 -8.91259e-05 0)
(0 -6.54137e-05 0)
(0 -0.000336367 0)
(0 -0.000274881 0)
(0 -4.10816e-05 0)
(0 -1.94826e-05 0)
(0 -0.00020981 0)
(0 -0.000145592 0)
(0 -4.45728e-06 0)
(0 0 0)
(0 -8.7148e-05 0)
(0 -5.54202e-05 0)
(0 0 0)
(0 0 0)
(0 0 0)
(0 -2.00448e-05 0)
(0 0 0)
(0 0 0)
(0 0 0)
(0 0 0)
(0 0 0)
(0 0 0)
(0 0 0)
(0 0 0)
(0 0 0)
(0 0 0)
(0 0 0)
(0 0 0)
(0 0 0)
(0 0 0)
(0 0 0)
(0 0 0)
(0 0 0)
(0 0 0)
(0 0 0)
(0 0 0)
(0 0 0)
(0 0 0)
(0 0 0)
(0 0 0)
(0 0 0)
(0 0 0)
(0 0 0)
(0 0 0)
(0 0 0)
(0 0 0)
(0 0 0)
(0 0 0)
(0 0 0)
(0 0 0)
(0 0 0)
(0 0 0)
(0 0 0)
(0 0 0)
(0 0 0)
(0 0 0)
(0 -4.00572e-07 0)
(0 0 0)
(0 0 0)
(0 -1.54153e-06 0)
(0 -9.17187e-07 0)
(0 0 0)
(0 -4.00572e-07 0)
(0 -9.17187e-07 0)
(0 0 0)
(0 0 0)
(0 0 0)
(0 0 0)
(0 0 0)
(0 0 0)
(0 0 0)
(0 0 0)
(0 0 0)
(0 0 0)
(0 0 0)
(0 0 0)
(0 0 0)
(0 0 0)
(0 0 0)
(0 0 0)
(0 0 0)
(0 0 0)
(0 0 0)
(0 0 0)
(0 0 0)
(0 0 0)
(0 0 0)
(0 0 0)
(0 0 0)
(0 0 0)
(0 0 0)
(0 0 0)
(0 0 0)
(0 0 0)
(0 0 0)
(0 0 0)
(0 0 0)
(0 0 0)
(0 0 0)
(0 0 0)
(0 0 0)
(0 0 0)
(0 0 0)
(0 0 0)
(0 0 0)
(0 0 0)
(0 0 0)
(0 0 0)
(0 0 0)
(0 0 0)
(0 0 0)
(0 0 0)
(0 0 0)
(0 0 0)
(0 0 0)
(0 0 0)
(0 0 0)
(0 0 0)
(0 0 0)
(0 0 0)
(0 0 0)
(0 0 0)
(0 0 0)
(0 0 0)
(0 0 0)
(0 0 0)
(0 0 0)
(0 0 0)
(0 0 0)
(0 0 0)
(0 0 0)
(0 0 0)
(0 0 0)
(0 0 0)
(0 0 0)
(0 0 0)
(0 0 0)
(0 0 0)
(0 0 0)
(0 0 0)
(0 0 0)
(0 0 0)
(0 0 0)
(0 0 0)
(0 0 0)
(0 0 0)
(0 0 0)
(0 0 0)
(0 0 0)
(0 0 0)
(0 0 0)
(0 0 0)
(0 0 0)
(0 0 0)
(0 0 0)
(0 0 0)
(0 0 0)
(0 0 0)
(0 0 0)
(0 0 0)
(0 0 0)
(0 0 0)
(0 0 0)
(0 0 0)
(0 0 0)
(0 0 0)
(0 0 0)
(0 0 0)
(0 0 0)
(0 0 0)
(0 0 0)
(0 0 0)
(0 0 0)
(0 0 0)
(0 0 0)
(0 0 0)
(0 0 0)
(0 0 0)
(0 0 0)
(0 0 0)
(0 0 0)
(0 0 0)
(0 0 0)
(0 0 0)
(0 0 0)
(0 0 0)
(0 0 0)
(0 0 0)
(0 0 0)
(0 0 0)
(0 0 0)
(0 0 0)
(0 0 0)
(0 0 0)
(0 0 0)
(0 0 0)
(0 0 0)
(0 0 0)
(0 0 0)
(0 0 0)
(0 0 0)
(0 0 0)
(0 0 0)
(0 0 0)
(0 0 0)
(0 0 0)
(0 0 0)
(0 0 0)
(0 0 0)
(0 0 0)
(0 0 0)
(0 0 0)
(0 0 0)
(0 0 0)
(0 0 0)
(0 0 0)
(0 0 0)
(0 0 0)
(0 0 0)
(0 0 0)
(0 0 0)
(0 0 0)
(0 0 0)
(0 0 0)
(0 0 0)
(0 0 0)
(0 0 0)
(0 0 0)
(0 0 0)
(0 0 0)
(0 0 0)
(0 0 0)
(0 0 0)
(0 0 0)
(0 0 0)
(0 0 0)
(0 0 0)
(0 0 0)
(0 0 0)
(0 0 0)
(0 0 0)
(0 0 0)
(0 0 0)
(0 0 0)
(0 0 0)
(0 0 0)
(0 0 0)
(0 0 0)
(0 0 0)
(0 0 0)
(0 0 0)
(0 0 0)
(0 0 0)
(0 0 0)
(0 0 0)
(0 0 0)
(0 0 0)
(0 0 0)
(0 0 0)
(0 0 0)
(0 0 0)
(0 0 0)
(0 0 0)
(0 0 0)
(0 0 0)
(0 0 0)
(0 0 0)
(0 0 0)
(0 0 0)
(0 0 0)
(0 0 0)
(0 0 0)
(0 0 0)
(0 0 0)
(0 0 0)
(0 0 0)
(0 0 0)
(0 0 0)
(0 0 0)
(0 0 0)
(0 0 0)
(0 0 0)
(0 0 0)
(0 0 0)
(0 0 0)
(0 0 0)
(0 0 0)
(0 0 0)
(0 0 0)
(0 0 0)
(0 0 0)
(0 0 0)
(0 0 0)
(0 0 0)
(0 0 0)
(0 0 0)
(0 0 0)
(0 0 0)
(0 0 0)
(0 0 0)
(0 0 0)
(0 0 0)
(0 0 0)
(0 0 0)
(0 0 0)
(0 0 0)
(0 0 0)
(0 0 0)
(0 0 0)
(0 0 0)
(0 0 0)
(0 0 0)
(0 0 0)
(0 0 0)
(0 0 0)
(0 0 0)
(0 0 0)
(0 0 0)
(0 0 0)
(0 0 0)
(0 0 0)
(0 0 0)
(0 0 0)
(0 0 0)
(0 0 0)
(0 0 0)
(0 0 0)
(0 0 0)
(0 0 0)
(0 0 0)
(0 0 0)
(0 0 0)
(0 0 0)
(0 0 0)
(0 0 0)
(0 0 0)
(0 0 0)
(0 0 0)
(0 0 0)
(0 0 0)
(0 0 0)
(0 0 0)
(0 0 0)
(0 0 0)
(0 0 0)
(0 0 0)
(0 0 0)
(0 0 0)
(0 0 0)
(0 0 0)
(0 0 0)
(0 0 0)
(0 0 0)
(0 0 0)
(0 0 0)
(0 0 0)
(0 0 0)
(0 0 0)
(0 0 0)
(0 0 0)
(0 0 0)
(0 0 0)
(0 0 0)
(0 0 0)
(0 0 0)
(0 0 0)
(0 0 0)
(0 0 0)
(0 0 0)
(0 0 0)
(0 0 0)
(0 0 0)
(0 0 0)
(0 0 0)
(0 0 0)
(0 0 0)
(0 0 0)
(0 0 0)
(0 0 0)
(0 0 0)
(0 0 0)
(0 0 0)
(0 0 0)
(0 0 0)
(0 0 0)
(0 0 0)
(0 0 0)
(0 0 0)
(0 0 0)
(0 0 0)
(0 0 0)
(0 0 0)
(0 0 0)
(0 0 0)
(0 0 0)
(0 0 0)
(0 0 0)
(0 0 0)
(0 0 0)
(0 0 0)
(0 0 0)
(0 0 0)
(0 0 0)
(0 0 0)
(0 0 0)
(0 0 0)
(0 0 0)
(0 0 0)
(0 0 0)
(0 0 0)
(0 0 0)
(0 0 0)
(0 0 0)
(0 0 0)
(0 0 0)
(0 0 0)
(0 0 0)
(0 0 0)
(0 0 0)
(0 0 0)
(0 0 0)
(0 0 0)
(0 0 0)
(0 0 0)
(0 0 0)
(0 0 0)
(0 0 0)
(0 0 0)
(0 0 0)
(0 0 0)
(0 0 0)
(0 0 0)
(0 0 0)
(0 0 0)
(0 0 0)
(0 0 0)
(0 0 0)
(0 0 0)
(0 0 0)
(0 0 0)
(0 0 0)
(0 0 0)
(0 0 0)
(0 0 0)
(0 0 0)
(0 0 0)
(0 0 0)
(0 0 0)
(0 0 0)
(0 0 0)
(0 0 0)
(0 0 0)
(0 0 0)
(0 0 0)
(0 0 0)
(0 0 0)
(0 0 0)
(0 0 0)
(0 0 0)
(0 0 0)
(0 0 0)
(0 0 0)
(0 0 0)
(0 0 0)
(0 0 0)
(0 0 0)
(0 0 0)
(0 0 0)
(0 0 0)
(0 0 0)
(0 0 0)
(0 0 0)
(0 0 0)
(0 0 0)
(0 0 0)
(0 0 0)
(0 0 0)
(0 0 0)
(0 0 0)
(0 0 0)
(0 0 0)
(0 0 0)
(0 0 0)
(0 0 0)
(0 0 0)
(0 0 0)
(0 0 0)
(0 0 0)
(0 0 0)
(0 0 0)
(0 0 0)
(0 0 0)
(0 0 0)
(0 0 0)
(0 0 0)
(0 0 0)
(0 0 0)
(0 0 0)
(0 0 0)
(0 0 0)
(0 0 0)
(0 0 0)
(0 0 0)
(0 0 0)
(0 0 0)
(0 0 0)
(0 0 0)
(0 0 0)
(0 0 0)
(0 0 0)
(0 0 0)
(0 0 0)
(0 0 0)
(0 0 0)
(0 0 0)
(0 0 0)
(0 0 0)
(0 0 0)
(0 0 0)
(0 0 0)
(0 0 0)
(0 0 0)
(0 0 0)
(0 0 0)
(0 0 0)
(0 0 0)
(0 0 0)
(0 0 0)
(0 0 0)
(0 0 0)
(0 0 0)
(0 0 0)
(0 0 0)
(0 0 0)
(0 0 0)
(0 0 0)
(0 0 0)
(0 0 0)
(0 0 0)
(0 0 0)
(0 0 0)
(0 0 0)
(0 0 0)
(0 0 0)
(0 0 0)
(0 0 0)
(0 0 0)
(0 0 0)
(0 0 0)
(0 0 0)
(0 0 0)
(0 0 0)
(0 0 0)
(0 0 0)
(0 0 0)
(0 0 0)
(0 0 0)
(0 0 0)
(0 0 0)
(0 0 0)
(0 0 0)
(0 0 0)
(0 0 0)
(0 0 0)
(0 0 0)
(0 0 0)
(0 0 0)
(0 0 0)
(0 0 0)
(0 0 0)
(0 0 0)
(0 0 0)
(0 0 0)
(0 0 0)
(0 0 0)
(0 0 0)
(0 0 0)
(0 0 0)
(0 0 0)
(0 0 0)
(0 0 0)
(0 0 0)
(0 0 0)
(0 0 0)
(0 0 0)
(0 0 0)
(0 0 0)
(0 0 0)
(0 0 0)
(0 0 0)
(0 0 0)
(0 0 0)
(0 0 0)
(0 0 0)
(0 0 0)
(0 0 0)
(0 0 0)
(0 0 0)
(0 0 0)
(0 0 0)
(0 0 0)
(0 0 0)
(0 0 0)
(0 0 0)
(0 0 0)
(0 0 0)
(0 0 0)
(0 0 0)
(0 0 0)
(0 0 0)
(0 0 0)
(0 0 0)
(0 0 0)
(0 0 0)
(0 0 0)
(0 0 0)
(0 0 0)
(0 0 0)
(0 0 0)
(0 0 0)
(0 0 0)
(0 0 0)
(0 0 0)
(0 0 0)
(0 0 0)
(0 0 0)
(0 0 0)
(0 0 0)
(0 0 0)
(0 0 0)
(0 0 0)
(0 0 0)
(0 0 0)
(0 0 0)
(0 0 0)
(0 0 0)
(0 0 0)
(0 0 0)
(0 0 0)
(0 0 0)
(0 0 0)
(0 0 0)
(0 0 0)
(0 0 0)
(0 0 0)
(0 0 0)
(0 0 0)
(0 0 0)
(0 0 0)
(0 0 0)
(0 0 0)
(0 0 0)
(0 0 0)
(0 0 0)
(0 0 0)
(0 0 0)
(0 0 0)
(0 0 0)
(0 0 0)
(0 0 0)
(0 0 0)
(0 0 0)
(0 0 0)
(0 0 0)
(0 0 0)
(0 0 0)
(0 0 0)
(0 0 0)
(0 0 0)
(0 0 0)
(0 0 0)
(0 0 0)
(0 0 0)
(0 0 0)
(0 0 0)
(0 0 0)
(0 0 0)
(0 0 0)
(0 0 0)
(0 0 0)
(0 0 0)
(0 0 0)
(0 0 0)
(0 0 0)
(0 0 0)
(0 0 0)
(0 0 0)
(0 0 0)
(0 0 0)
(0 0 0)
(0 0 0)
(0 0 0)
(0 0 0)
(0 0 0)
(0 0 0)
(0 0 0)
(0 0 0)
(0 0 0)
(0 0 0)
(0 0 0)
(0 0 0)
(0 0 0)
(0 0 0)
(0 0 0)
(0 0 0)
(0 0 0)
(0 0 0)
(0 0 0)
(0 0 0)
(0 0 0)
(0 0 0)
(0 0 0)
(0 0 0)
(0 0 0)
(0 0 0)
(0 0 0)
(0 0 0)
(0 0 0)
(0 0 0)
(0 0 0)
(0 0 0)
(0 0 0)
(0 0 0)
(0 0 0)
(0 0 0)
(0 0 0)
(0 0 0)
(0 0 0)
(0 0 0)
(0 0 0)
(0 0 0)
(0 0 0)
(0 0 0)
(0 0 0)
(0 0 0)
(0 0 0)
(0 0 0)
(0 0 0)
(0 0 0)
(0 0 0)
(0 0 0)
(0 0 0)
(0 0 0)
(0 0 0)
(0 0 0)
(0 0 0)
(0 0 0)
(0 0 0)
(0 0 0)
(0 0 0)
(0 0 0)
(0 0 0)
(0 0 0)
(0 0 0)
(0 0 0)
(0 0 0)
(0 0 0)
(0 0 0)
(0 0 0)
(0 0 0)
(0 0 0)
(0 0 0)
(0 0 0)
(0 0 0)
(0 0 0)
(0 0 0)
(0 0 0)
(0 0 0)
(0 0 0)
(0 0 0)
(0 0 0)
(0 0 0)
(0 0 0)
(0 0 0)
(0 0 0)
(0 0 0)
(0 0 0)
(0 0 0)
(0 0 0)
(0 0 0)
(0 0 0)
(0 0 0)
(0 0 0)
(0 0 0)
(0 0 0)
(0 0 0)
(0 0 0)
(0 0 0)
(0 0 0)
(0 0 0)
(0 0 0)
(0 0 0)
(0 0 0)
(0 0 0)
(0 0 0)
(0 0 0)
(0 0 0)
(0 0 0)
(0 0 0)
(0 0 0)
(0 0 0)
(0 0 0)
(0 0 0)
(0 0 0)