/*--------------------------------*- C++ -*----------------------------------*\
| =========                 |                                                 |
| \\      /  F ield         | OpenFOAM: The Open Source CFD Toolbox           |
|  \\    /   O peration     | Version:  v2106                                 |
|   \\  /    A nd           | Website:  www.openfoam.com                      |
|    \\/     M anipulation  |                                                 |
\*---------------------------------------------------------------------------*/
FoamFile
{
    version     2.0;
    format      ascii;
    arch        "LSB;label=32;scalar=64";
    class       volScalarField;
    location    "0";
    object      p;
}
// * * * * * * * * * * * * * * * * * * * * * * * * * * * * * * * * * * * * * //

dimensions      [0 2 -2 0 0 0 0];

internalField   nonuniform List<scalar> 
11644
(
0.0770394
0.0774214
0.0782214
0.0794446
0.0810805
0.0831193
0.085548
0.0883448
0.091476
0.0948884
0.0985049
0.102224
0.105907
0.109366
0.112404
0.114829
0.116362
0.116827
0.11618
0.114376
0.111305
0.106967
0.101554
0.0953707
0.0886654
0.0816746
0.0746358
0.0677573
0.0612271
0.0551625
0.049644
0.0447249
0.0404212
0.0367286
0.0336312
0.0311049
0.0291242
0.02767
0.0267321
0.0262865
0.0763722
0.0767545
0.0775425
0.0787482
0.0803726
0.0824121
0.0848598
0.0877013
0.0909097
0.0944416
0.0982314
0.102174
0.106124
0.109915
0.113321
0.116076
0.117957
0.11873
0.118254
0.116419
0.113241
0.108764
0.103064
0.0964081
0.0891632
0.0816842
0.074247
0.0670659
0.060297
0.0540862
0.0485025
0.0435689
0.0392889
0.0356445
0.0326087
0.0301502
0.0282375
0.0268427
0.0259403
0.0255024
0.0749015
0.0753022
0.0760985
0.077298
0.0789162
0.0809649
0.0834499
0.0863721
0.0897235
0.0934821
0.0975983
0.101994
0.106545
0.111044
0.115237
0.118851
0.121568
0.123073
0.123069
0.121283
0.117735
0.112602
0.106073
0.0984576
0.0901506
0.0816414
0.0733218
0.0654772
0.0582832
0.0518211
0.0461282
0.0411956
0.0369851
0.0334519
0.0305437
0.0282112
0.0264089
0.025094
0.0242295
0.0237973
0.0726447
0.0730517
0.0738523
0.0750491
0.0766628
0.07872
0.0812462
0.0842649
0.0877972
0.0918539
0.0964343
0.10149
0.106894
0.112467
0.117967
0.123023
0.127176
0.130014
0.130963
0.129524
0.125548
0.119237
0.111009
0.101503
0.0914754
0.0813488
0.0716378
0.0627813
0.0549389
0.0481624
0.0423834
0.037514
0.0334595
0.0301233
0.0274215
0.02528
0.0236365
0.0224386
0.021646
0.0212466
0.0696386
0.0700288
0.0708051
0.0719724
0.0735566
0.0755945
0.0781315
0.0812198
0.0849165
0.0892812
0.0943481
0.100095
0.106503
0.113494
0.120843
0.128127
0.134668
0.139989
0.142739
0.142096
0.13761
0.129553
0.118575
0.105849
0.0931028
0.0804407
0.0687272
0.0584859
0.0498573
0.0427674
0.0370251
0.0323766
0.0286266
0.0256249
0.0232462
0.0213921
0.019985
0.0189668
0.0182994
0.0179654
0.0659094
0.0662682
0.0669827
0.0680734
0.0695692
0.0715163
0.0739783
0.077038
0.080795
0.0853196
0.0906534
0.0969232
0.104308
0.112975
0.122957
0.133612
0.144043
0.153663
0.159908
0.161062
0.155929
0.14472
0.129204
0.111327
0.0942654
0.0778045
0.0635336
0.0518569
0.0425204
0.0352805
0.0297763
0.0256047
0.0224132
0.0199537
0.0180664
0.0166334
0.0155705
0.0148162
0.0143311
0.0140931
0.0615204
0.0618164
0.0624273
0.0633718
0.0646891
0.0664324
0.0686767
0.071526
0.0750848
0.0794049
0.0846403
0.0910831
0.0991285
0.109465
0.122639
0.137883
0.148411
0.163871
0.176136
0.182222
0.179009
0.165944
0.145817
0.122891
0.0927628
0.0713088
0.0541717
0.041298
0.0320642
0.025289
0.0204649
0.0171224
0.0148207
0.0131838
0.0120028
0.0111541
0.010554
0.0101473
0.00989268
0.00976761
0.056518
0.0567474
0.0572103
0.057934
0.0589628
0.0603492
0.062173
0.0645368
0.0675025
0.0711479
0.0757599
0.0817914
0.089691
0.0997941
0.114001
0.132467
0.156987
0.182627
0.207237
0.222325
0.22008
0.198821
0.164791
0.127929
0.0922473
0.066244
0.04675
0.0253626
0.0173867
0.0122458
0.00899687
0.00705538
0.00602641
0.00552153
0.00527111
0.00516672
0.005139
0.00514784
0.00516929
0.00518701
0.0510352
0.0511648
0.051431
0.0518651
0.0524862
0.0533473
0.0545149
0.0560611
0.0580051
0.0604775
0.0637403
0.068175
0.0745106
0.0869134
0.101417
0.122669
0.150288
0.192747
0.237463
0.275467
0.28224
0.248238
0.190651
0.128893
0.082847
0.0426531
0.0231414
0.00186782
-0.00200453
-0.00393972
-0.0045366
-0.00430658
-0.00360071
-0.00268459
-0.0018034
-0.00103254
-0.00039828
8.33325e-05
0.000407889
0.000566897
0.045253
0.0452516
0.0452782
0.0453307
0.0454327
0.0456152
0.0459093
0.0463273
0.0468329
0.0475265
0.0485834
0.0500709
0.0520194
0.0629989
0.0720772
0.0926584
0.124064
0.177494
0.261678
0.360125
0.39788
0.324809
0.201527
0.102628
0.0349063
-0.00616114
-0.0163671
-0.0286482
-0.0257873
-0.0227737
-0.0195372
-0.0163811
-0.0134993
-0.0109352
-0.00878779
-0.007072
-0.0057459
-0.00477579
-0.00413962
-0.00381962
0.0393149
0.0391974
0.0389605
0.0386003
0.0381191
0.0374991
0.0367444
0.0357877
0.0345041
0.0328208
0.0306775
0.0280458
0.0242091
0.0279332
0.0266162
0.0319334
0.0437715
0.0711857
0.16822
0.405112
0.593983
0.3543
0.0829718
-0.0375509
-0.0759469
-0.0826146
-0.0707026
-0.0641685
-0.0523032
-0.042606
-0.0346201
-0.0281201
-0.0228472
-0.0185626
-0.0151533
-0.0125204
-0.0105373
-0.0091127
-0.00819088
-0.00772491
0.0335261
0.0332733
0.032752
0.0319705
0.03088
0.0294209
0.0275415
0.0250871
0.0218563
0.0175868
0.0118176
0.00419463
-0.00594928
-0.00990371
-0.0279544
-0.0459572
-0.0835862
-0.171868
-0.418636
-0.629792
-0.354806
-0.237645
-0.174251
-0.129082
-0.0990732
-0.0768214
-0.0601731
-0.0476372
-0.0380362
-0.0305848
-0.0247892
-0.0203113
-0.0169135
-0.0143865
-0.0126064
-0.0114665
-0.0109391
0.0281227
0.0277604
0.0270089
0.0258343
0.0241782
0.0219399
0.0189795
0.0151047
0.0100615
0.00346259
-0.0053672
-0.0173024
-0.0332247
-0.0430638
-0.0732267
-0.106401
-0.168639
-0.289994
-0.408671
-0.854815
-0.579399
-0.35939
-0.240996
-0.172986
-0.121193
-0.092678
-0.0715916
-0.0560586
-0.0444113
-0.0355677
-0.0288294
-0.0237026
-0.0198479
-0.0170009
-0.0150015
-0.0137394
-0.013113
0.0233442
0.0228964
0.0219865
0.0205294
0.018428
0.0155691
0.0117327
0.00676361
0.000372263
-0.00788128
-0.0186337
-0.0329472
-0.0516856
-0.0665473
-0.098078
-0.131873
-0.182156
-0.248944
-0.28189
-0.692911
-0.568352
-0.381697
-0.253075
-0.18315
-0.123674
-0.0952676
-0.0737977
-0.0579243
-0.0459436
-0.0369141
-0.030084
-0.0248983
-0.0209843
-0.0181005
-0.0160696
-0.0147938
-0.0142233
0.0193623
0.0190071
0.017985
0.0163239
0.0139362
0.0107336
0.00642851
0.000852334
-0.00618758
-0.0152698
-0.026625
-0.0416913
-0.0608517
-0.0777199
-0.108937
-0.141095
-0.179983
-0.205371
-0.218637
-0.336101
-0.552165
-0.776132
-0.748508
-0.52171
-0.329665
-0.213472
-0.157677
-0.10546
-0.0829375
-0.0657299
-0.0524605
-0.0422467
-0.0343521
-0.0283545
-0.0237681
-0.0202338
-0.0176086
-0.01576
-0.0145798
-0.0140845
0.0166763
0.0161602
0.0150986
0.013414
0.0109899
0.00772886
0.0034472
-0.0020927
-0.00911243
-0.0180268
-0.0292905
-0.0438509
-0.0627528
-0.0817339
-0.11428
-0.160535
-0.20738
-0.265006
-0.285535
-0.380791
-0.573881
-0.688354
-0.517524
-0.310726
-0.205749
-0.133939
-0.107072
-0.0713971
-0.0591871
-0.0489965
-0.040697
-0.0338819
-0.0282854
-0.0239366
-0.0204784
-0.0177459
-0.015669
-0.0141718
-0.01317
-0.0125856
0.0151251
0.0145368
0.0134763
0.0118701
0.00962176
0.00661345
0.00268613
-0.00236985
-0.00874994
-0.0167932
-0.0269987
-0.040286
-0.0576201
-0.0814414
-0.110655
-0.16153
-0.233075
-0.365573
-0.470386
-0.52075
-0.489343
-0.335113
-0.14371
-0.0662557
-0.0360965
-0.0406814
-0.0311811
-0.032415
-0.0306362
-0.0281047
-0.0253955
-0.0225901
-0.0200225
-0.0176619
-0.0155303
-0.0137642
-0.0123852
-0.0113528
-0.0106374
-0.0101387
0.0144242
0.0139632
0.0130336
0.0116213
0.00967398
0.00711676
0.00382509
-0.000392346
-0.00566307
-0.012246
-0.020567
-0.0315021
-0.0460382
-0.065786
-0.0948253
-0.140005
-0.207859
-0.333836
-0.502322
-0.591419
-0.516851
-0.268152
-0.0101669
0.0773281
0.0642254
0.0337488
0.0127408
0.00385429
-0.00385235
-0.00780964
-0.00974593
-0.0106187
-0.0108667
-0.0104914
-0.00977323
-0.00899565
-0.00826928
-0.00767811
-0.00727552
-0.00719856
0.0144728
0.0141419
0.0134393
0.0123519
0.0108519
0.00890896
0.0064732
0.00342058
-0.000322236
-0.00491193
-0.0106087
-0.0179669
-0.0277283
-0.0412254
-0.0651036
-0.0935725
-0.14034
-0.208906
-0.312701
-0.400939
-0.379802
-0.210136
-0.0143822
0.090919
0.0988138
0.0676629
0.0415597
0.0264921
0.0142601
0.0069753
0.00225446
-0.000730972
-0.0026401
-0.00365376
-0.00409225
-0.0041756
-0.00407343
-0.00394746
-0.00387584
-0.00392301
0.0151561
0.0149415
0.0144901
0.0137846
0.0128223
0.0116197
0.0101776
0.0085071
0.00656549
0.0042863
0.00155264
-0.00179892
-0.00692542
-0.0133491
-0.0303681
-0.0464052
-0.0766537
-0.112337
-0.157279
-0.199524
-0.201569
-0.141508
-0.0435958
0.0404789
0.0666762
0.0592069
0.0432641
0.0304017
0.0207094
0.0137929
0.00887842
0.0055272
0.00328442
0.00183561
0.000822151
0.00017704
-0.000219788
-0.000477611
-0.000631467
-0.000671796
0.0162796
0.0161784
0.0159451
0.0155959
0.0151714
0.0147114
0.0142835
0.0139687
0.0137501
0.0136151
0.0135436
0.0135221
0.012499
0.0109724
2.52275e-05
-0.0101381
-0.0302907
-0.0596594
-0.103382
-0.151825
-0.181302
-0.170627
-0.114801
-0.0481624
-0.00824685
0.0198109
0.0256446
0.021149
0.0184256
0.014258
0.0113259
0.00901723
0.00722765
0.00581136
0.00468677
0.00385036
0.00324695
0.00283705
0.00261182
0.00254431
0.0175731
0.0175153
0.0174601
0.0174448
0.0175009
0.0176805
0.0180641
0.0187557
0.0198
0.021336
0.023354
0.0257661
0.0278275
0.028633
0.0281941
0.0145217
-0.00387947
-0.0453696
-0.116926
-0.208644
-0.282914
-0.2957
-0.248508
-0.168611
-0.0887029
-0.0182062
0.00180161
0.00858389
0.0126841
0.0127262
0.0121166
0.0110665
0.00988017
0.00875096
0.00778766
0.00701963
0.00642248
0.00599794
0.00574623
0.00563683
0.0188841
0.0188674
0.0189742
0.01921
0.0196182
0.0202356
0.0211601
0.0224715
0.0243156
0.0269032
0.0302614
0.03423
0.0381749
0.0414975
0.037735
0.0257971
-0.0134152
-0.0810247
-0.181019
-0.292435
-0.368751
-0.36171
-0.278877
-0.18621
-0.0989592
-0.0385207
-0.01313
0.00167945
0.00909984
0.0118759
0.0128433
0.0126967
0.0120581
0.0112918
0.0105432
0.0098766
0.00932514
0.00891074
0.00863955
0.00851286
0.0201378
0.0202204
0.0204348
0.0208122
0.0214009
0.0222576
0.0235073
0.0251835
0.0274693
0.0305264
0.0344864
0.0392461
0.0442311
0.04731
0.0393399
0.0190142
-0.0174803
-0.0725852
-0.138084
-0.203224
-0.246888
-0.238876
-0.191787
-0.133252
-0.0740983
-0.0343127
-0.0102665
0.00344461
0.0100972
0.0132928
0.0145699
0.0147491
0.0143939
0.0138302
0.0131605
0.0125141
0.0119576
0.0115234
0.0112328
0.0111045
0.0210874
0.0212383
0.0215213
0.0219779
0.022647
0.0235814
0.0248974
0.0266358
0.0288721
0.0317055
0.0351777
0.0389365
0.0417526
0.0405343
0.0305169
0.00840054
-0.0280642
-0.0754846
-0.117972
-0.145905
-0.156326
-0.141276
-0.109871
-0.0705877
-0.0349616
-0.0116229
0.00243185
0.0103963
0.0147625
0.0167859
0.0174467
0.0173557
0.0168851
0.0162605
0.0155532
0.0148745
0.0142896
0.0138099
0.0134656
0.0132992
0.0216982
0.0218461
0.0221419
0.0225926
0.0232173
0.0240422
0.025107
0.0264515
0.0280192
0.0297429
0.0313335
0.0319427
0.0302801
0.0221086
0.00746431
-0.0168153
-0.0494298
-0.0867956
-0.11604
-0.126715
-0.119341
-0.0969856
-0.0659022
-0.035089
-0.0106348
0.0042088
0.0127566
0.0176983
0.0202484
0.0209091
0.0207631
0.0201074
0.0192547
0.01837
0.0175364
0.0168084
0.0162115
0.0157474
0.0154059
0.0151733
0.0220784
0.0222241
0.0224638
0.0228126
0.0232885
0.0238431
0.0244538
0.0251256
0.025619
0.0257984
0.0250586
0.0222877
0.0155809
0.000744426
-0.0228171
-0.0528853
-0.0861555
-0.120489
-0.140068
-0.143988
-0.130042
-0.0974879
-0.0609641
-0.0292349
-0.00629574
0.00834951
0.0174957
0.0226022
0.0246777
0.0246998
0.0238432
0.0226283
0.0213478
0.0201717
0.0191739
0.0183551
0.0177132
0.0172419
0.0169294
0.0167264
0.022243
0.0223621
0.0225478
0.0227892
0.0230731
0.0233482
0.0235537
0.0235855
0.023171
0.0220449
0.0194868
0.0144871
0.00449377
-0.0130236
-0.0439411
-0.0837331
-0.130311
-0.169685
-0.195255
-0.196219
-0.169136
-0.126213
-0.0799994
-0.0416777
-0.0116868
0.00935581
0.0212863
0.0264241
0.0279726
0.0272624
0.0260126
0.0244492
0.0229224
0.0215798
0.0204571
0.0195389
0.0188142
0.0182864
0.0179567
0.0178916
0.022296
0.0223579
0.0224629
0.0225939
0.02273
0.0228064
0.0227576
0.0224425
0.0215813
0.019832
0.0164401
0.0104234
-0.00104054
-0.0196689
-0.0505409
-0.0907203
-0.140509
-0.182405
-0.214531
-0.220272
-0.185303
-0.139095
-0.0885008
-0.0476955
-0.0151194
0.00815928
0.0214464
0.0278386
0.0296817
0.0283229
0.0269732
0.0252674
0.0237347
0.0224067
0.0212821
0.0203628
0.019654
0.0191641
0.0188778
0.018823
0.02231
0.022339
0.022401
0.0224772
0.0225401
0.0225342
0.0223906
0.0219671
0.0210902
0.0194135
0.0162303
0.0104303
0.000350014
-0.0158606
-0.0411733
-0.0724937
-0.10979
-0.14472
-0.173508
-0.181229
-0.156265
-0.122073
-0.0823006
-0.0458036
-0.0172669
0.00404001
0.0178207
0.0259732
0.0288459
0.0282467
0.0269174
0.0253048
0.0239182
0.0227311
0.0217194
0.0209102
0.0203026
0.0198861
0.0196227
0.0194673
0.0223026
0.0223461
0.0224223
0.0225078
0.0225732
0.0225732
0.0224478
0.0221132
0.0214581
0.0202268
0.0179909
0.0142042
0.00769353
-0.00323608
-0.0209041
-0.0442497
-0.0703138
-0.0971314
-0.117475
-0.126538
-0.12145
-0.105115
-0.0797454
-0.0500858
-0.0240147
-0.00251825
0.0129195
0.0218257
0.025828
0.0264747
0.0256705
0.0245657
0.0234791
0.0225069
0.0216675
0.0209874
0.0204598
0.0200717
0.019802
0.0196304
0.0222813
0.0223629
0.0224298
0.0225071
0.0225822
0.02264
0.0226391
0.0225155
0.0222343
0.0216251
0.0204997
0.0185814
0.0150211
0.00840456
-0.0030232
-0.0205962
-0.0415367
-0.0645677
-0.0833027
-0.0965825
-0.104185
-0.0983098
-0.080946
-0.0571253
-0.0337176
-0.0128494
0.00329426
0.0138417
0.0198222
0.0223295
0.0228623
0.022715
0.022182
0.0215846
0.0209955
0.0204824
0.020057
0.0197392
0.0195303
0.019429
0.0221191
0.0221591
0.0222336
0.0223366
0.0224685
0.0226338
0.0228242
0.0230237
0.0232043
0.0231777
0.0228266
0.0216998
0.019247
0.014515
0.00643045
-0.00740453
-0.0275864
-0.0514437
-0.0752338
-0.0946891
-0.103297
-0.102089
-0.089125
-0.0697583
-0.0487753
-0.028465
-0.0111267
0.00255686
0.0117806
0.0167566
0.0190071
0.0200173
0.0202633
0.0201984
0.0199903
0.0197322
0.0194803
0.0192759
0.0191407
0.0190943
0.0218158
0.0217744
0.0218558
0.0220145
0.0222509
0.022559
0.0229401
0.0234201
0.0239796
0.0244883
0.0248738
0.0242857
0.021967
0.0166809
0.00718761
-0.00765137
-0.0291585
-0.0555595
-0.0855099
-0.111363
-0.124992
-0.12529
-0.113754
-0.0957892
-0.0724934
-0.0473777
-0.0246774
-0.00694134
0.00508637
0.0118494
0.0155326
0.0173929
0.0183736
0.0188414
0.019017
0.0190229
0.0189549
0.0188502
0.0187622
0.0187068
0.0214955
0.0214695
0.0215326
0.0216883
0.0219565
0.0223277
0.0228023
0.0234011
0.0241321
0.024825
0.0256536
0.0253762
0.0227698
0.0164789
0.00485739
-0.0120842
-0.0351638
-0.0632282
-0.0972872
-0.127847
-0.151625
-0.150071
-0.134479
-0.114396
-0.0851887
-0.0562181
-0.0305407
-0.0115576
0.00117963
0.00863734
0.0130928
0.0155125
0.0169352
0.0177148
0.0181205
0.0183077
0.0183765
0.0183687
0.0183368
0.0182469
0.0210205
0.0210781
0.0211715
0.021322
0.021563
0.0219032
0.0223308
0.022871
0.0235178
0.0241117
0.0246049
0.0236594
0.0203383
0.0139024
0.00303056
-0.0131617
-0.0362454
-0.0630418
-0.094534
-0.122637
-0.144632
-0.141525
-0.123476
-0.102248
-0.0745937
-0.0489637
-0.0275676
-0.0110225
0.000514997
0.007825
0.0121919
0.014668
0.016105
0.0169037
0.0173684
0.0176156
0.0177381
0.0177794
0.0177803
0.0177311
0.0202598
0.0203493
0.0204703
0.0206246
0.0208287
0.0210896
0.0214157
0.0218011
0.0222193
0.0225352
0.0223084
0.0204223
0.0161162
0.00853192
-0.00271795
-0.018116
-0.0377388
-0.0603969
-0.0829711
-0.100532
-0.110227
-0.106326
-0.0919976
-0.0738054
-0.0524753
-0.0336937
-0.0176137
-0.0048946
0.00401479
0.00955264
0.0129372
0.0148238
0.0159565
0.0165781
0.0169618
0.0171637
0.0172533
0.0172751
0.01727
0.0172735
0.0193278
0.0193722
0.0194402
0.0195418
0.0196744
0.0198282
0.0199934
0.0201189
0.0201166
0.01978
0.018527
0.015618
0.0101064
0.00100285
-0.0114309
-0.0263625
-0.043225
-0.0611501
-0.0758405
-0.082788
-0.0827147
-0.0757674
-0.0639246
-0.0483223
-0.0330242
-0.0181161
-0.00563859
0.00351679
0.00917623
0.0124508
0.0144148
0.015539
0.0162213
0.0166161
0.0168428
0.0169619
0.0170058
0.0170123
0.0170062
0.0169964
0.0183351
0.0183107
0.0183097
0.0183276
0.0183486
0.0183398
0.0182475
0.0179941
0.0173624
0.0159725
0.0133995
0.00873618
0.00162484
-0.00825702
-0.020722
-0.0349593
-0.050108
-0.0648725
-0.0748598
-0.0772521
-0.0732278
-0.0628956
-0.0491189
-0.0331058
-0.0182256
-0.00558676
0.0041456
0.0100148
0.0132667
0.0150098
0.0159485
0.0164166
0.0166443
0.0167422
0.0167821
0.0167909
0.0167906
0.0167848
0.0167732
0.0167353
0.0173342
0.0172936
0.0172733
0.017231
0.0171345
0.0169264
0.0165354
0.0158608
0.0146284
0.0124121
0.00848763
0.00168692
-0.00786842
-0.0202604
-0.0345608
-0.0496463
-0.0638382
-0.0766019
-0.084954
-0.0852211
-0.0787878
-0.0643598
-0.0459095
-0.0277208
-0.0117027
0.000654324
0.00896111
0.0136497
0.0159345
0.017078
0.0173558
0.0172286
0.0170187
0.0168045
0.0166312
0.0164977
0.0163989
0.0163276
0.0162902
0.0163077
0.0164129
0.016434
0.0163968
0.0162929
0.0160841
0.0157099
0.0150967
0.0141039
0.0124454
0.00976184
0.00505244
-0.00276557
-0.0144093
-0.0299843
-0.0482943
-0.0663503
-0.0825483
-0.0952381
-0.104124
-0.103744
-0.091078
-0.0710387
-0.0485659
-0.0288598
-0.0121462
0.000557889
0.00967648
0.0148932
0.0175585
0.0184325
0.0180172
0.0175731
0.0170835
0.0166576
0.0163305
0.01608
0.0159082
0.0158086
0.0157767
0.0158403
0.0155442
0.0156019
0.0155401
0.0154024
0.0151354
0.0147025
0.0140299
0.0129278
0.0111283
0.00821685
0.00344426
-0.00396972
-0.0151398
-0.0301784
-0.048754
-0.0680604
-0.0866893
-0.100096
-0.112338
-0.112971
-0.0939008
-0.0731533
-0.0495589
-0.0299823
-0.0130809
-0.00037323
0.00860314
0.0139926
0.0168908
0.0178751
0.0176523
0.017199
0.0166897
0.0162379
0.0159043
0.0156531
0.0154853
0.0153945
0.0153598
0.0153634
0.0146917
0.0146939
0.0146386
0.0145239
0.0143004
0.013943
0.0133564
0.0124321
0.0108746
0.00838308
0.00435192
-0.00183877
-0.0108127
-0.0224506
-0.0368896
-0.0531908
-0.0700895
-0.0832466
-0.0937873
-0.0956351
-0.0835213
-0.0681384
-0.0488205
-0.0310836
-0.0157763
-0.00365533
0.00500188
0.0106412
0.0140481
0.0156548
0.0161673
0.0160784
0.0157662
0.0154787
0.0152474
0.0150571
0.0149193
0.0148218
0.0147477
0.0146903
0.0140057
0.0139658
0.0139276
0.0138565
0.0137164
0.0134763
0.0130806
0.0124674
0.0114238
0.00985996
0.00708403
0.00280515
-0.00366594
-0.0123565
-0.0227802
-0.0347592
-0.0475123
-0.0588177
-0.0673022
-0.0715342
-0.0695829
-0.0619499
-0.0495076
-0.0354912
-0.022405
-0.0111284
-0.00194194
0.00507277
0.00980787
0.0124514
0.0138043
0.0142108
0.0142666
0.0142182
0.0141272
0.0140409
0.0139675
0.0139069
0.0138541
0.0138035
0.0135306
0.0135305
0.0135023
0.0134507
0.0133662
0.0132383
0.0130395
0.0127256
0.0122595
0.0114718
0.0100596
0.00761181
0.00345745
-0.00276212
-0.0109144
-0.0206482
-0.031406
-0.0424214
-0.0516608
-0.0582272
-0.0616996
-0.0594336
-0.0518411
-0.0408973
-0.029576
-0.0188393
-0.00935137
-0.00146931
0.00431817
0.00818884
0.0105213
0.0116508
0.0122808
0.0125843
0.012711
0.0127635
0.0127881
0.0128004
0.0128224
0.0128414
0.0130278
0.0130423
0.0130405
0.0130321
0.0130246
0.0130258
0.013034
0.013009
0.0129758
0.0128029
0.0123111
0.0111601
0.00886166
0.00455783
-0.00250496
-0.0120772
-0.0235047
-0.036129
-0.0479972
-0.0574094
-0.0612554
-0.0626529
-0.0576159
-0.0485661
-0.0383843
-0.0276459
-0.0175387
-0.00887957
-0.00189937
0.00339808
0.00697065
0.00905014
0.0102802
0.0109684
0.0113452
0.011556
0.01167
0.0117395
0.0117954
0.0118629
0.0123959
0.0123567
0.0123714
0.0124183
0.0125061
0.0126424
0.0128308
0.0131015
0.0134053
0.0137201
0.0137636
0.0131448
0.0112526
0.00755787
0.00101274
-0.00844815
-0.0207633
-0.0349057
-0.0496717
-0.0625539
-0.0713601
-0.0742562
-0.0696346
-0.0618238
-0.0514254
-0.0398213
-0.027727
-0.0165028
-0.00722917
-0.000367842
0.00417585
0.00696068
0.00858543
0.00957801
0.0101883
0.0105557
0.0107573
0.0108706
0.0109254
0.0109587
0.0117769
0.0117304
0.0117311
0.011783
0.0119006
0.0120918
0.0123561
0.012755
0.0132011
0.0136452
0.0139154
0.0133281
0.0111355
0.00744647
0.00124341
-0.00771284
-0.0197677
-0.0343188
-0.0512975
-0.0672704
-0.0819823
-0.0851608
-0.079791
-0.0719283
-0.0602483
-0.0466638
-0.0327566
-0.0198571
-0.00964051
-0.00233526
0.00248961
0.00551809
0.007355
0.00853575
0.00926147
0.00972219
0.00999968
0.0101607
0.0102281
0.0101762
0.0111182
0.011126
0.0111495
0.0111997
0.0112981
0.0114554
0.0116753
0.0119603
0.012267
0.0124213
0.0123031
0.0113734
0.00917501
0.00539184
-0.000690406
-0.00944173
-0.0206695
-0.0341658
-0.0499444
-0.0644043
-0.0776986
-0.0801313
-0.0751311
-0.0666645
-0.0540752
-0.0409789
-0.0281523
-0.0170168
-0.00853384
-0.00218117
0.00222497
0.00502885
0.00680232
0.0078847
0.00856863
0.00900089
0.00927453
0.00941308
0.00948133
0.00944165
0.0102726
0.0103111
0.0103543
0.010395
0.0104457
0.0105072
0.0105883
0.0106444
0.0106383
0.0102871
0.00932233
0.00747407
0.00441881
-0.000223735
-0.00658089
-0.0150578
-0.0250463
-0.0360914
-0.0471462
-0.0563176
-0.062046
-0.061874
-0.0567097
-0.0488121
-0.0385725
-0.0282961
-0.0188127
-0.0108599
-0.0045959
0.000225088
0.00345693
0.00556564
0.00685727
0.00763404
0.00812187
0.00842217
0.00860259
0.00869376
0.00874225
0.00876748
0.00930244
0.00930915
0.00929454
0.00926434
0.00922104
0.00914988
0.00902275
0.00876399
0.00828894
0.00733672
0.00550267
0.00251462
-0.00188572
-0.00761428
-0.0145568
-0.0225617
-0.0310037
-0.0393164
-0.0457218
-0.049238
-0.0496
-0.0457786
-0.0397401
-0.0322835
-0.0243502
-0.0166136
-0.00982878
-0.00422367
0.00027474
0.0034037
0.00535667
0.00653924
0.00723326
0.00766178
0.00793131
0.00809504
0.00819298
0.00824656
0.00828021
0.00831154
0.00830327
0.00824789
0.00816804
0.00806361
0.00792455
0.00771169
0.00736094
0.00675554
0.00569609
0.00400019
0.00123999
-0.00268241
-0.00788517
-0.014368
-0.0217945
-0.0298242
-0.0375877
-0.0441657
-0.0474964
-0.047031
-0.0448956
-0.0391388
-0.0314753
-0.023065
-0.0150542
-0.00802508
-0.0024352
0.00175603
0.00455458
0.00610797
0.00702043
0.00743407
0.00766653
0.00779628
0.0078715
0.00791971
0.00795509
0.00798327
0.00799605
0.00798167
0.00734651
0.00726892
0.00718112
0.00705456
0.00684473
0.00650163
0.00594559
0.00504767
0.00353501
0.00104021
-0.00275431
-0.0079495
-0.0145323
-0.0223888
-0.0308765
-0.0394929
-0.0471813
-0.0528095
-0.054523
-0.0512645
-0.0458837
-0.0382536
-0.0285995
-0.0185532
-0.00956672
-0.00247186
0.00259396
0.00577814
0.00744395
0.00802267
0.00820762
0.00807448
0.00795619
0.00781542
0.00770947
0.00763117
0.00758281
0.00755246
0.00753715
0.00753433
0.0065382
0.00652411
0.00644525
0.00628871
0.00600639
0.00554977
0.00483783
0.00374555
0.00195412
-0.000979526
-0.00543681
-0.0118548
-0.0202753
-0.0299918
-0.0401085
-0.0496782
-0.0575688
-0.0631737
-0.064532
-0.0595061
-0.0497319
-0.0388487
-0.0266604
-0.0153717
-0.00661816
6.68747e-05
0.00449571
0.00698262
0.00849486
0.00891957
0.00861018
0.00824808
0.00786879
0.00753405
0.00729849
0.00713229
0.00702505
0.00696709
0.00695579
0.00700744
0.00586111
0.00590363
0.00582234
0.00565361
0.00533534
0.00484189
0.00407726
0.0029611
0.0011083
-0.0018204
-0.00618217
-0.0123114
-0.0206421
-0.0305553
-0.040992
-0.0513919
-0.0596688
-0.0658946
-0.0678475
-0.0620424
-0.0507766
-0.0384748
-0.0256309
-0.0145093
-0.00631716
-0.000192885
0.00385054
0.00621494
0.00773898
0.00820762
0.00800141
0.00774121
0.0073015
0.0069973
0.00676716
0.00660376
0.0065093
0.00647161
0.00647287
0.00650363
0.0052216
0.00523471
0.00516613
0.00502381
0.00477664
0.00438652
0.00376529
0.00279171
0.00125066
-0.00114987
-0.00467792
-0.00949421
-0.0157247
-0.0235832
-0.0323396
-0.0412702
-0.0490801
-0.0548723
-0.0572758
-0.0540228
-0.0468949
-0.0374302
-0.0273244
-0.0181316
-0.0105482
-0.00435324
1.20728e-05
0.00300116
0.00491194
0.00590869
0.00633767
0.00646588
0.00636225
0.0062321
0.00612046
0.00603884
0.00598247
0.00594846
0.00592407
0.00590334
0.00470431
0.00466495
0.00461674
0.00453455
0.00439265
0.00415968
0.00378143
0.00318388
0.00219173
0.00066694
-0.00173086
-0.00513305
-0.00935431
-0.0146169
-0.0207276
-0.0272627
-0.0334185
-0.0387548
-0.0422337
-0.0429377
-0.0414169
-0.0370093
-0.0310893
-0.0241525
-0.0176362
-0.0115937
-0.00662525
-0.00264415
0.000361265
0.00249555
0.00382264
0.00451976
0.00485995
0.0050193
0.00509738
0.00514425
0.00516988
0.00517935
0.00516946
0.00514601
0.00439784
0.00437949
0.00435001
0.00430349
0.0042342
0.00412808
0.00395136
0.00370088
0.0032692
0.00253154
0.00124503
-0.000827054
-0.00366877
-0.00726827
-0.0116857
-0.0169071
-0.0224562
-0.0280706
-0.0329379
-0.0364124
-0.0379565
-0.037762
-0.0352404
-0.0304377
-0.0245699
-0.0186896
-0.0131745
-0.00834637
-0.00436364
-0.0013113
0.000814366
0.00216126
0.00299075
0.00349406
0.00379899
0.00399909
0.00413766
0.00423548
0.00430226
0.00433006
0.00413642
0.00415442
0.00414939
0.00413755
0.00412344
0.0041217
0.00410831
0.00409446
0.00405808
0.00392287
0.00351726
0.00268096
0.000930292
-0.00179832
-0.00568726
-0.0109108
-0.0170205
-0.0235952
-0.0297938
-0.0342901
-0.0382993
-0.0416521
-0.0414446
-0.0376977
-0.0321551
-0.0258059
-0.0194504
-0.0136283
-0.00876468
-0.0049462
-0.00203268
7.69139e-06
0.00132433
0.0021385
0.00265996
0.00297898
0.00318958
0.00333934
0.00345028
0.003534
0.00374883
0.00373275
0.00374454
0.00377764
0.0038324
0.0039214
0.00405805
0.00424526
0.00446811
0.00469681
0.00486043
0.004647
0.00360355
0.00164639
-0.00170085
-0.00652983
-0.0128519
-0.0205128
-0.0286274
-0.03594
-0.0427524
-0.0489566
-0.0495446
-0.0464444
-0.0410677
-0.034142
-0.0266709
-0.0194335
-0.0130618
-0.0079938
-0.00420046
-0.00156248
0.000114834
0.00117117
0.00183432
0.00225001
0.00251521
0.00267706
0.0027759
0.00284368
0.00332935
0.00327757
0.003271
0.00329432
0.00336747
0.00349631
0.00370123
0.00395435
0.00432814
0.00465372
0.00490071
0.00483971
0.00413229
0.00276309
0.000186056
-0.00399937
-0.00986012
-0.0182531
-0.0279773
-0.0375181
-0.046689
-0.0541564
-0.0551221
-0.0514488
-0.0462308
-0.0388001
-0.030648
-0.0224824
-0.0151951
-0.00949121
-0.00534902
-0.00247731
-0.000647679
0.000518718
0.00126087
0.00175764
0.00207143
0.00225202
0.00233842
0.0023301
0.00292089
0.00289953
0.00288674
0.00289278
0.00293386
0.00301298
0.00315409
0.00332998
0.00352932
0.00364371
0.00360225
0.00329599
0.0023947
0.000777798
-0.00186721
-0.00602937
-0.0114963
-0.0190229
-0.0277341
-0.0366698
-0.0444372
-0.0501677
-0.0505898
-0.0472624
-0.0419618
-0.0348016
-0.0272256
-0.0198245
-0.0135336
-0.00873262
-0.0051051
-0.00254313
-0.000889478
0.000213679
0.000929745
0.0013998
0.00169627
0.00186345
0.00194332
0.001913
0.00241575
0.00242751
0.00243194
0.00242486
0.00241483
0.0023915
0.00235515
0.00229035
0.0021034
0.00172603
0.000981731
-0.000264579
-0.00212471
-0.00475248
-0.00816471
-0.0125132
-0.0176572
-0.0228478
-0.0285305
-0.0339184
-0.0377156
-0.0397084
-0.0383597
-0.0349882
-0.0302604
-0.0246438
-0.0189806
-0.0137573
-0.00948321
-0.00608191
-0.0034757
-0.00169072
-0.00046828
0.000319041
0.000828898
0.00115421
0.00135726
0.00147513
0.00153854
0.00155499
0.00181684
0.00181732
0.00178308
0.00171031
0.00159698
0.00142894
0.00117927
0.000786321
0.000151324
-0.00085748
-0.00246199
-0.00474441
-0.00770165
-0.0112555
-0.0153006
-0.0196912
-0.0241771
-0.0279082
-0.0305214
-0.0318656
-0.0320436
-0.0305199
-0.0273938
-0.0234775
-0.0192588
-0.0150624
-0.0111749
-0.00780375
-0.00510535
-0.00294139
-0.00136965
-0.000359304
0.000296428
0.000688835
0.000954836
0.00112083
0.00122474
0.00128773
0.00132719
0.00136546
0.00121119
0.00115679
0.00105585
0.000906381
0.00069414
0.000388441
-7.02044e-05
-0.00076644
-0.00182758
-0.00341181
-0.00564304
-0.00862513
-0.0123837
-0.0167982
-0.021611
-0.0263998
-0.030691
-0.0334772
-0.0337271
-0.0319147
-0.0294735
-0.025847
-0.0218557
-0.0173041
-0.0127391
-0.00868152
-0.00550042
-0.00309013
-0.00137627
-0.000228434
0.000457017
0.000834511
0.00101176
0.00111418
0.00118543
0.00124306
0.0012875
0.00131807
0.00133478
0.00133578
0.000673173
0.000585991
0.000462982
0.000284568
2.25587e-05
-0.000367196
-0.000964491
-0.0019071
-0.00332458
-0.0054438
-0.00833847
-0.0121959
-0.0170652
-0.0227231
-0.0286216
-0.0341056
-0.0383087
-0.0400773
-0.0389311
-0.0346137
-0.0296511
-0.0242496
-0.0187591
-0.0132638
-0.00814554
-0.00416604
-0.00136121
0.000440811
0.00141855
0.00174362
0.00171681
0.00162253
0.00150705
0.00141337
0.00134149
0.00129889
0.00128399
0.00127936
0.00127669
0.00126603
0.000287645
0.000238545
0.000132755
-4.86043e-05
-0.000341875
-0.000792223
-0.00146626
-0.00255043
-0.00425553
-0.00678894
-0.0103525
-0.0151875
-0.0212544
-0.0279837
-0.034705
-0.040627
-0.0448364
-0.0463942
-0.0444845
-0.0384988
-0.0312688
-0.0236614
-0.0158606
-0.00923398
-0.00415592
-0.000763806
0.00131734
0.00240895
0.0027579
0.00258563
0.00227064
0.00192626
0.00164463
0.00142437
0.00125916
0.00114597
0.00108132
0.00105163
0.00104976
0.00108269
6.09399e-05
7.1453e-05
-1.66475e-05
-0.00020143
-0.000503974
-0.0009866
-0.00168182
-0.00278075
-0.00449673
-0.00708625
-0.0106262
-0.0154686
-0.021582
-0.0283774
-0.0351964
-0.0411556
-0.0456508
-0.0471561
-0.0453785
-0.0392589
-0.0315937
-0.0234294
-0.0151913
-0.00837536
-0.00350719
-0.000383294
0.00143939
0.00230146
0.00247564
0.00228391
0.00197745
0.00166855
0.00139764
0.00117367
0.00101002
0.000904275
0.000852182
0.000841867
0.000859491
0.000911071
-8.00852e-05
-7.08463e-05
-0.000145255
-0.000297436
-0.00055464
-0.000954312
-0.00156427
-0.00249657
-0.00388603
-0.00596761
-0.00874838
-0.0125048
-0.0172804
-0.0227539
-0.0284192
-0.033606
-0.0377683
-0.0397644
-0.0392793
-0.0356997
-0.0303782
-0.0243389
-0.018193
-0.0126655
-0.00810601
-0.00465741
-0.00223009
-0.000646667
0.000252955
0.000705698
0.00088941
0.000895318
0.000844727
0.000780233
0.000729482
0.000703664
0.000698423
0.000707593
0.000719813
0.000733169
-0.00012825
-0.000154502
-0.000211426
-0.00030361
-0.000456226
-0.000696294
-0.00107956
-0.00166736
-0.0025272
-0.00384934
-0.00570298
-0.00813231
-0.0111773
-0.0148378
-0.0188495
-0.0228522
-0.0266473
-0.0294871