/*--------------------------------*- C++ -*----------------------------------*\
| =========                 |                                                 |
| \\      /  F ield         | OpenFOAM: The Open Source CFD Toolbox           |
|  \\    /   O peration     | Version:  v2106                                 |
|   \\  /    A nd           | Website:  www.openfoam.com                      |
|    \\/     M anipulation  |                                                 |
\*---------------------------------------------------------------------------*/
FoamFile
{
    version     2.0;
    format      ascii;
    arch        "LSB;label=32;scalar=64";
    class       volVectorField;
    location    "0";
    object      U;
}
// * * * * * * * * * * * * * * * * * * * * * * * * * * * * * * * * * * * * * //

dimensions      [0 1 -1 0 0 0 0];

internalField   nonuniform List<vector> 
11644
(
(0.999538 -0.000215122 1.98525e-23)
(0.999431 -0.000559447 5.47472e-23)
(0.99937 -0.000812575 2.93732e-23)
(0.999353 -0.00107025 0)
(0.999347 -0.00133555 0)
(0.999343 -0.00160264 0)
(0.999341 -0.00186528 0)
(0.999336 -0.002112 0)
(0.999334 -0.0023302 0)
(0.999325 -0.00250904 0)
(0.99933 -0.0026273 0)
(0.999317 -0.00266998 0)
(0.999317 -0.00261244 0)
(0.999489 -0.00245977 0)
(0.999322 -0.00213671 0)
(0.999268 -0.00172185 0)
(0.999177 -0.00120016 0)
(0.998884 -0.000450827 0)
(0.998662 0.00063981 0)
(0.998798 0.00188574 3.3242e-30)
(0.999191 0.00291303 -3.34118e-30)
(0.999496 0.00356747 0)
(0.999495 0.00393132 0)
(0.999368 0.00422508 0)
(0.999312 0.00445877 0)
(0.999387 0.00459556 0)
(0.999591 0.00458174 0)
(0.999375 0.00444434 0)
(0.999322 0.00421588 0)
(0.999346 0.00389757 0)
(0.999359 0.00353407 0)
(0.999351 0.00314932 0)
(0.999356 0.00274857 0)
(0.999356 0.00235427 0)
(0.999355 0.00197302 0)
(0.999357 0.00160929 0)
(0.999361 0.00126724 0)
(0.99938 0.000947577 0)
(0.999451 0.000635967 0)
(0.999562 0.000238166 3.84919e-24)
(1.00028 -0.000441761 2.55004e-23)
(1.00019 -0.0013306 2.36215e-23)
(1.00012 -0.00221397 1.26864e-23)
(1.0001 -0.00307625 0)
(1.0001 -0.00392852 0)
(1.0001 -0.00477442 0)
(1.00008 -0.00560425 0)
(1.00003 -0.00639729 0)
(0.999952 -0.00712402 0)
(0.999836 -0.00774107 0)
(0.999657 -0.00820003 0)
(0.99942 -0.00842972 0)
(0.999095 -0.00836458 0)
(0.998474 -0.00793656 0)
(0.998283 -0.00707252 0)
(0.997859 -0.00575215 -1.08881e-23)
(0.997359 -0.0039353 1.18468e-23)
(0.996884 -0.0017954 -7.37196e-23)
(0.996487 0.000560972 1.21218e-22)
(0.996327 0.00317542 -3.34565e-22)
(0.996551 0.00599373 3.57896e-22)
(0.997169 0.00870346 -2.07513e-22)
(0.997948 0.010893 1.31108e-22)
(0.998496 0.012257 -6.60141e-24)
(0.9989 0.0130407 8.16719e-24)
(0.999253 0.0133588 0)
(0.999445 0.0133354 0)
(1.00004 0.0128816 0)
(1.00031 0.0121362 0)
(1.00042 0.011196 0)
(1.00048 0.0101166 0)
(1.0005 0.00896162 0)
(1.00048 0.00779526 0)
(1.00043 0.00664265 0)
(1.00038 0.00552501 0)
(1.00032 0.00445332 0)
(1.00028 0.00342492 0)
(1.00027 0.00242452 0)
(1.00031 0.00143706 0)
(1.00038 0.000471685 0)
(1.00179 -0.000701154 0)
(1.00172 -0.00215309 0)
(1.00168 -0.00364157 0)
(1.00167 -0.00513767 0)
(1.00168 -0.0066326 2.32941e-23)
(1.00167 -0.00813257 0)
(1.00163 -0.00962746 0)
(1.00153 -0.0110937 0)
(1.00134 -0.012486 0)
(1.00101 -0.0137435 0)
(1.00052 -0.0147764 0)
(0.999858 -0.0154616 0)
(0.999037 -0.0156568 1.51427e-24)
(0.998278 -0.0152367 -4.81164e-23)
(0.996686 -0.014057 1.44428e-22)
(0.995343 -0.0120616 2.24891e-22)
(0.994079 -0.00920632 -3.01476e-22)
(0.992886 -0.00559054 -4.68877e-22)
(0.9919 -0.00139767 5.25513e-22)
(0.991397 0.00316714 6.18257e-22)
(0.991593 0.00781861 -5.05796e-22)
(0.99256 0.0123681 -1.45235e-22)
(0.994244 0.0164339 4.38463e-23)
(0.996281 0.0195124 -2.32518e-22)
(0.997894 0.0211983 2.12164e-22)
(0.999266 0.0218578 -1.00897e-22)
(1.00067 0.0217152 3.18164e-23)
(1.00131 0.0209614 -1.7684e-24)
(1.00199 0.0197071 0)
(1.00244 0.0180826 0)
(1.00263 0.0162775 0)
(1.00268 0.0143778 0)
(1.00262 0.0124611 0)
(1.0025 0.010584 0)
(1.00235 0.00877343 0)
(1.0022 0.00703986 0)
(1.00207 0.00537939 0)
(1.00198 0.00377222 0)
(1.00195 0.00221436 0)
(1.00197 0.000724566 0)
(1.00413 -0.00100684 0)
(1.00408 -0.00303679 0)
(1.00407 -0.00513018 0)
(1.0041 -0.00726051 0)
(1.00415 -0.00943887 0)
(1.00418 -0.0116683 0)
(1.00416 -0.0139421 0)
(1.00403 -0.0162367 0)
(1.00374 -0.0185062 0)
(1.00321 -0.0206722 0)
(1.0024 -0.0225957 6.21183e-26)
(1.00116 -0.0241034 9.76984e-23)
(0.999368 -0.0249915 3.62935e-22)
(0.99661 -0.0251113 -1.00434e-21)
(0.99438 -0.0239 7.21214e-23)
(0.991429 -0.0214382 1.15908e-21)
(0.988444 -0.0175034 4.77908e-22)
(0.985776 -0.0121167 -1.14269e-21)
(0.983887 -0.00566256 1.09539e-21)
(0.983161 0.00136411 -3.77838e-22)
(0.983578 0.00860857 -1.68277e-21)
(0.985269 0.0154539 -3.40344e-22)
(0.988126 0.0214948 2.34131e-21)
(0.991922 0.0261889 -2.84477e-21)
(0.995834 0.0292983 1.49017e-21)
(0.998969 0.0305219 -2.12425e-22)
(1.00109 0.0304158 7.58622e-22)
(1.00333 0.0290587 -2.76603e-22)
(1.00463 0.0270789 2.39677e-23)
(1.00537 0.0246879 2.61763e-25)
(1.00578 0.0220544 0)
(1.00584 0.0193693 0)
(1.00571 0.0167078 0)
(1.00547 0.0141355 0)
(1.00518 0.0116768 0)
(1.00489 0.00934048 0)
(1.00463 0.00711482 0)
(1.00444 0.00499083 0)
(1.00433 0.00293936 0)
(1.00432 0.000965241 0)
(1.00729 -0.00128595 0)
(1.00728 -0.0039165 0)
(1.00734 -0.0066132 0)
(1.00746 -0.00939326 0)
(1.00761 -0.0122895 0)
(1.00776 -0.0153163 0)
(1.00784 -0.0184775 0)
(1.00778 -0.0217647 0)
(1.00748 -0.02514 0)
(1.00684 -0.028506 2.53347e-23)
(1.00559 -0.0317231 4.24002e-23)
(1.00356 -0.0345929 -7.77594e-23)
(1.00077 -0.0367326 1.30834e-21)
(0.997757 -0.0376498 -1.16827e-21)
(0.992476 -0.0374234 -1.98034e-22)
(0.987065 -0.0350214 -2.17417e-21)
(0.981666 -0.0303846 9.9179e-22)
(0.976641 -0.023543 3.44189e-21)
(0.972578 -0.0143241 -3.82172e-21)
(0.97045 -0.00328333 -7.11712e-22)
(0.970925 0.0084984 -2.57869e-22)
(0.974152 0.0195465 3.29529e-21)
(0.979479 0.0285495 -1.6599e-21)
(0.986579 0.0349899 1.98178e-22)
(0.9928 0.0387876 8.81268e-22)
(0.998629 0.0404304 1.97854e-22)
(1.00378 0.0397447 4.95412e-22)
(1.00642 0.0377584 9.82628e-23)
(1.00845 0.0347055 -9.54227e-22)
(1.00953 0.0311777 6.67501e-23)
(1.00996 0.0275544 -1.79119e-23)
(1.01001 0.0239665 0)
(1.00973 0.0205412 0)
(1.0093 0.0172841 0)
(1.0088 0.0142211 0)
(1.00831 0.0113408 0)
(1.00789 0.00862782 0)
(1.00756 0.00605273 0)
(1.00736 0.00358832 0)
(1.00729 0.00118621 0)
(1.0112 -0.00156293 0)
(1.01126 -0.00473467 0)
(1.01145 -0.00797885 0)
(1.01175 -0.0113895 0)
(1.01212 -0.0149947 0)
(1.01251 -0.0188478 0)
(1.01285 -0.0229728 0)
(1.01304 -0.0273879 0)
(1.01293 -0.0320595 -1.90466e-24)
(1.01224 -0.0369182 1.75588e-23)
(1.01071 -0.0418274 -4.39231e-22)
(1.00832 -0.0464989 1.12002e-21)
(1.00465 -0.05078 -1.46224e-21)
(0.99824 -0.0547574 3.11853e-21)
(0.991855 -0.0555021 -1.69738e-21)
(0.983095 -0.0539014 1.49916e-21)
(0.973003 -0.0495927 -3.05865e-21)
(0.962682 -0.0405008 7.8497e-22)
(0.954565 -0.026514 -3.15487e-22)
(0.950176 -0.00960596 7.76322e-21)
(0.950801 0.00827938 -7.62782e-21)
(0.956263 0.0250668 6.34073e-22)
(0.965701 0.0389615 -1.23935e-21)
(0.977136 0.0475695 -3.42576e-22)
(0.988917 0.0516258 1.9503e-21)
(0.998976 0.0530682 1.13664e-21)
(1.0057 0.0517371 -2.65038e-21)
(1.01139 0.0473827 1.65541e-22)
(1.01414 0.042729 8.86534e-22)
(1.01532 0.0377344 4.44301e-23)
(1.01551 0.0328236 -2.92516e-22)
(1.01522 0.0282337 -6.21591e-25)
(1.01467 0.023975 0)
(1.01392 0.0200602 0)
(1.01313 0.0164393 0)
(1.01238 0.0130837 0)
(1.01173 0.00995295 0)
(1.01123 0.00699049 0)
(1.0109 0.00414201 0)
(1.01078 0.00136865 0)
(1.01577 -0.00180911 0)
(1.01593 -0.0054072 0)
(1.01631 -0.00917997 0)
(1.01689 -0.0131198 0)
(1.01762 -0.0173554 0)
(1.01844 -0.0219607 0)
(1.01927 -0.0270237 0)
(1.01999 -0.0325982 -6.20019e-24)
(1.02026 -0.0386667 5.14119e-23)
(1.01983 -0.045179 4.65439e-22)
(1.01859 -0.0521394 -8.69304e-22)
(1.01603 -0.0596991 -6.71965e-22)
(1.01173 -0.0674499 1.52381e-21)
(1.00663 -0.0736128 4.13376e-22)
(0.994773 -0.0797911 -3.77424e-21)
(0.980517 -0.0811128 2.22771e-21)
(0.969558 -0.0695159 3.19044e-21)
(0.953812 -0.0606801 3.6021e-21)
(0.939248 -0.0432806 -1.4452e-21)
(0.929747 -0.0195352 -7.80052e-21)
(0.928939 0.00709274 -2.37656e-21)
(0.936671 0.0312584 2.5643e-21)
(0.950296 0.0493009 -1.90329e-23)
(0.966119 0.0597284 3.63974e-21)
(0.987289 0.0725727 -1.57147e-21)
(1.00173 0.0711831 2.94489e-21)
(1.0136 0.0647231 -8.51552e-22)
(1.01851 0.0589931 -1.63795e-22)
(1.02185 0.0514191 -1.76715e-22)
(1.02304 0.0443335 -1.56282e-22)
(1.02273 0.0378438 3.51578e-22)
(1.02174 0.0320282 -8.75611e-23)
(1.02053 0.0268915 -1.18057e-24)
(1.01932 0.0223283 0)
(1.0181 0.0182054 0)
(1.017 0.0144308 0)
(1.01607 0.0109306 0)
(1.01535 0.00765647 0)
(1.01488 0.00452604 0)
(1.01468 0.00149909 0)
(1.02084 -0.00188196 0)
(1.02113 -0.00581375 0)
(1.02178 -0.00987066 0)
(1.02274 -0.0142155 0)
(1.02398 -0.0189621 0)
(1.02545 -0.0242107 0)
(1.02706 -0.0300921 0)
(1.02856 -0.0366862 6.81626e-24)
(1.02954 -0.0440356 2.22576e-22)
(1.03006 -0.0522865 -8.19531e-22)
(1.02986 -0.0617065 6.93646e-22)
(1.02842 -0.0722074 -1.08632e-21)
(1.0248 -0.0836226 9.08693e-22)
(1.0142 -0.0914357 -1.88696e-21)
(1.00459 -0.0983784 2.32256e-21)
(0.987674 -0.106174 2.33524e-21)
(0.962694 -0.107078 3.13957e-22)
(0.935359 -0.0973667 1.47528e-21)
(0.906627 -0.0746004 -2.1836e-21)
(0.885797 -0.0371072 3.23433e-21)
(0.882274 0.00848474 -1.63155e-21)
(0.897783 0.0499968 3.13443e-21)
(0.925797 0.0777703 4.07537e-22)
(0.955831 0.0908242 4.0596e-21)
(0.983198 0.0935542 1.52235e-22)
(1.00386 0.0875905 1.01164e-21)
(1.01692 0.0793598 -4.28418e-23)
(1.03072 0.0691829 2.91674e-22)
(1.03278 0.0594355 -1.93225e-22)
(1.03296 0.0503194 2.72807e-22)
(1.0317 0.042207 -9.59455e-24)
(1.02968 0.0351513 2.20679e-22)
(1.02739 0.0291349 -7.2654e-23)
(1.02538 0.0239723 0)
(1.02361 0.0194492 0)
(1.02206 0.0153761 0)
(1.02078 0.0116441 0)
(1.01981 0.00816078 0)
(1.01918 0.00484534 0)
(1.0189 0.00161585 0)
(1.02617 -0.00199696 0)
(1.02663 -0.00599916 0)
(1.02759 -0.010152 0)
(1.02904 -0.014688 0)
(1.03094 -0.019652 0)
(1.03327 -0.025248 0)
(1.03592 -0.0316298 5.97442e-24)
(1.03847 -0.0389192 -8.54939e-25)
(1.04076 -0.047273 -7.97115e-23)
(1.04307 -0.0571876 4.11091e-22)
(1.04497 -0.0691851 -5.08017e-23)
(1.04575 -0.0835207 -4.64315e-22)
(1.04404 -0.100902 2.99757e-22)
(1.03211 -0.114632 -2.26786e-21)
(1.02082 -0.129194 1.95477e-21)
(1.00104 -0.146455 -6.47918e-22)
(0.969881 -0.151445 2.23899e-21)
(0.922618 -0.150131 -1.39826e-21)
(0.869801 -0.125991 -1.1814e-21)
(0.823536 -0.0697481 3.28638e-21)
(0.810072 0.00997083 5.31514e-21)
(0.838279 0.0816742 -1.26114e-21)
(0.8899 0.123201 -7.22751e-21)
(0.945992 0.136726 -3.21969e-22)
(0.986391 0.129659 1.71384e-22)
(1.01922 0.116355 3.21163e-22)
(1.03339 0.0981293 9.9975e-23)
(1.04715 0.0812795 -9.35401e-23)
(1.04711 0.0658313 4.15844e-23)
(1.04521 0.0544639 7.96529e-23)
(1.04226 0.0450905 -2.57081e-23)
(1.03879 0.0371667 5.13297e-23)
(1.03517 0.0304765 -1.65791e-23)
(1.032 0.024885 -1.22181e-23)
(1.02951 0.0200954 0)
(1.02742 0.0158328 0)
(1.02574 0.0119554 0)
(1.02449 0.00832989 0)
(1.02367 0.0049153 0)
(1.02331 0.0015784 0)
(1.03148 -0.00190049 0)
(1.03211 -0.0057106 0)
(1.03346 -0.00985194 0)
(1.03546 -0.0142168 0)
(1.03813 -0.0191031 0)
(1.04146 -0.0246798 0)
(1.04534 -0.031141 -2.07615e-23)
(1.04925 -0.0386104 2.28408e-22)
(1.05363 -0.0476256 -6.08559e-23)
(1.05871 -0.0588609 -9.13488e-23)
(1.06393 -0.0726944 -6.2793e-22)
(1.06862 -0.0899382 6.55875e-22)
(1.07199 -0.11262 5.17749e-23)
(1.06267 -0.133146 -5.39506e-22)
(1.05465 -0.157676 3.51249e-22)
(1.02989 -0.187461 -5.99451e-22)
(0.99271 -0.212551 -6.05916e-22)
(0.927828 -0.23871 -1.36593e-22)
(0.825196 -0.235237 -1.24455e-21)
(0.705331 -0.155526 5.58087e-22)
(0.653317 0.010447 -3.45071e-23)
(0.725175 0.167146 2.43382e-21)
(0.852786 0.230356 1.67601e-21)
(0.953826 0.219561 9.18445e-22)
(1.01918 0.18507 6.38325e-23)
(1.05514 0.147221 -1.35048e-21)
(1.06339 0.11212 -1.93727e-22)
(1.07021 0.0854132 2.19745e-22)
(1.06477 0.0675641 -1.98385e-22)
(1.05931 0.055222 1.08329e-22)
(1.05386 0.0454369 -1.17475e-22)
(1.04855 0.0373368 9.10678e-25)
(1.0435 0.0305306 6.78122e-23)
(1.03899 0.0248248 6.96816e-24)
(1.0356 0.0199973 0)
(1.03292 0.0157523 0)
(1.03081 0.0119017 0)
(1.02925 0.00835371 0)
(1.02825 0.00494798 0)
(1.02778 0.00172094 0)
(1.03644 -0.00167133 0)
(1.03727 -0.00514208 0)
(1.03892 -0.00869595 0)
(1.04148 -0.0126402 0)
(1.04498 -0.0171113 0)
(1.04944 -0.0222557 0)
(1.05459 -0.0282273 -1.4673e-23)
(1.06031 -0.0353341 3.517e-23)
(1.06748 -0.0443233 2.18422e-23)
(1.07612 -0.0559102 1.79355e-23)
(1.08587 -0.0705897 -1.05671e-22)
(1.09599 -0.0887221 -4.07377e-23)
(1.10616 -0.111476 1.14592e-22)
(1.10476 -0.139942 -2.64343e-22)
(1.10525 -0.17402 -4.4718e-22)
(1.09467 -0.220054 8.43925e-24)
(1.0678 -0.279227 2.31336e-23)
(1.00721 -0.371767 1.47764e-22)
(0.842527 -0.476685 -1.19338e-21)
(0.473425 -0.457604 -5.004e-20)
(0.188091 0.0260169 -1.4518e-20)
(0.510729 0.486434 -2.44664e-20)
(0.885699 0.475937 6.53532e-22)
(1.0512 0.342765 1.19249e-22)
(1.10443 0.234697 -4.27371e-23)
(1.11578 0.156906 -5.9392e-23)
(1.10515 0.116245 -4.88843e-22)
(1.09651 0.0774969 2.28757e-22)
(1.08432 0.0626933 -3.29441e-22)
(1.07396 0.051229 1.41554e-22)
(1.06537 0.0422757 -4.3191e-23)
(1.05812 0.0351658 5.17386e-24)
(1.05172 0.0290806 -3.03258e-23)
(1.046 0.0237401 -1.65754e-24)
(1.04163 0.0191472 0)
(1.03835 0.015108 0)
(1.0358 0.0114093 0)
(1.03394 0.00797625 0)
(1.03274 0.00471199 0)
(1.03219 0.00149599 0)
(1.04071 -0.00130628 0)
(1.04171 -0.00413653 0)
(1.04375 -0.00705883 0)
(1.04688 -0.0102781 0)
(1.05111 -0.0138541 0)
(1.05657 -0.0180001 0)
(1.06299 -0.0228794 3.16989e-24)
(1.07084 -0.0289597 3.70361e-24)
(1.08114 -0.0369745 1.00714e-23)
(1.09365 -0.04746 3.00475e-23)
(1.1084 -0.06104 1.09956e-23)
(1.12498 -0.0780409 -1.55398e-23)
(1.14282 -0.0978815 -3.72234e-23)
(1.14935 -0.128961 -9.21904e-23)
(1.16661 -0.163214 -2.62827e-23)
(1.17756 -0.214794 1.13678e-22)
(1.19376 -0.287737 1.7502e-22)
(1.22547 -0.41752 8.96209e-22)
(0.892589 -0.474102 -6.97727e-20)
(1.14364 0.599706 3.35278e-20)
(1.30004 0.367057 1.8963e-22)
(1.23514 0.210716 2.97456e-22)
(1.18778 0.126974 2.364e-22)
(1.14964 0.0931478 1.37624e-22)
(1.12164 0.0584579 9.00672e-23)
(1.10146 0.0488757 -2.63727e-23)
(1.08628 0.0413039 -1.61629e-24)
(1.07509 0.0354022 -2.48775e-23)
(1.0663 0.0305041 -1.11914e-23)
(1.05897 0.0259563 -9.5454e-24)
(1.05249 0.021576 -2.68286e-24)
(1.04732 0.0175612 0)
(1.04348 0.013917 0)
(1.04053 0.010541 0)
(1.03839 0.00733855 0)
(1.03702 0.00436504 0)
(1.03638 0.00140118 0)
(1.04384 -0.00103866 0)
(1.04501 -0.00282217 0)
(1.04737 -0.00482081 0)
(1.05089 -0.00694709 0)
(1.0557 -0.00929824 0)
(1.06196 -0.0120111 0)
(1.06963 -0.0152778 -3.39789e-24)
(1.0797 -0.019659 -8.50752e-24)
(1.09298 -0.0257046 2.15959e-23)
(1.10903 -0.033619 1.2589e-23)
(1.12809 -0.0437678 -1.47621e-22)
(1.15026 -0.0566605 -8.87889e-23)
(1.17537 -0.071368 1.91996e-22)
(1.18889 -0.0992179 8.24586e-23)
(1.22073 -0.124746 5.43047e-22)
(1.24918 -0.16514 -6.90442e-23)
(1.29624 -0.211395 7.25561e-23)
(1.36412 -0.253245 1.46645e-21)
(0.00623584 0.0177295 3.54346e-19)
(0.0828941 0.0050128 -2.34736e-19)
(1.47895 0.158546 -4.17879e-22)
(1.32773 0.0990887 1.02549e-23)
(1.23524 0.0573825 2.38231e-22)
(1.17984 0.0461666 4.91019e-22)
(1.1342 0.0289037 5.90158e-23)
(1.11035 0.028732 1.43434e-22)
(1.09331 0.0273435 -1.12534e-22)
(1.08106 0.0257658 6.30899e-24)
(1.07182 0.023869 2.71544e-23)
(1.06443 0.0214694 -5.69896e-24)
(1.05788 0.0185091 -1.56864e-25)
(1.05234 0.0153347 0)
(1.04814 0.0123031 0)
(1.04491 0.00944566 0)
(1.04255 0.00671675 0)
(1.04099 0.00400625 0)
(1.04022 0.00149527 0)
(1.04637 -0.000426449 -2.44992e-26)
(1.04738 -0.00132932 0)
(1.04963 -0.00217336 0)
(1.05322 -0.00300827 0)
(1.0583 -0.00390192 0)
(1.06504 -0.00486028 0)
(1.07383 -0.00610358 1.87488e-23)
(1.08577 -0.00817363 -6.88119e-24)
(1.10125 -0.0112784 -6.21916e-23)
(1.11975 -0.0153834 4.75356e-24)
(1.14146 -0.0204272 -2.00373e-22)
(1.16724 -0.0271337 3.65234e-23)
(1.19654 -0.0345614 3.45415e-22)
(1.2177 -0.0567048 -6.91053e-22)
(1.25577 -0.0725776 -6.89075e-22)
(1.29055 -0.100323 5.18549e-22)
(1.33696 -0.124341 -9.66001e-22)
(1.23483 -0.110047 5.1654e-22)
(-0.0104543 -0.0175738 -1.91677e-21)
(0.346166 -0.0352752 1.26833e-20)
(1.44418 -0.0587593 -6.24148e-22)
(1.33068 -0.0370887 7.25198e-22)
(1.2325 -0.0249386 -1.24287e-21)
(1.17944 -0.00827865 1.56208e-21)
(1.13137 -0.00237629 9.00414e-22)
(1.10961 0.00779707 -1.06648e-21)
(1.09362 0.0127844 2.38778e-22)
(1.08224 0.0156106 -1.74732e-22)
(1.07388 0.0166276 -1.13607e-22)
(1.06747 0.0163598 6.90329e-23)
(1.06175 0.0149597 -2.65598e-23)
(1.05639 0.0127025 0)
(1.052 0.010252 0)
(1.04856 0.0078508 0)
(1.04606 0.00554967 0)
(1.04442 0.00326489 0)
(1.04367 0.000947054 0)
(1.04642 0.000292312 -4.82493e-26)
(1.04777 0.000515006 0)
(1.05008 0.000806341 0)
(1.05365 0.00122586 0)
(1.05868 0.00182927 0)
(1.06546 0.00272612 0)
(1.07493 0.00378633 -1.11415e-23)
(1.08787 0.00445432 1.06596e-23)
(1.1042 0.00494559 -9.11191e-23)
(1.12352 0.00543055 9.33123e-23)
(1.14605 0.00634535 2.13931e-22)
(1.17307 0.00688172 -7.24771e-22)
(1.2042 0.00790996 5.27225e-22)
(1.23158 -0.00679525 -3.05103e-22)
(1.27388 -0.0134074 9.69668e-22)
(1.31458 -0.0332997 -1.37003e-21)
(1.36029 -0.0547663 -6.22382e-22)
(1.13373 -0.0628166 2.95503e-23)
(0.121278 -0.155924 -8.38395e-22)
(-0.134994 -0.242665 -1.49406e-21)
(-0.238059 -0.0534872 -2.00365e-22)
(0.108283 0.0157494 1.71726e-21)
(0.773114 -0.197585 1.37058e-21)
(1.36733 -0.242744 -1.57721e-21)
(1.26233 -0.156244 -2.53681e-21)
(1.18196 -0.0904651 5.17237e-22)
(1.14716 -0.0494967 -6.95836e-22)
(1.10964 -0.0215803 7.23067e-22)
(1.09701 -0.00673851 -1.27031e-21)
(1.08699 0.0022134 4.58004e-22)
(1.07912 0.00764796 -7.21369e-23)
(1.07288 0.0105069 4.38915e-23)
(1.0681 0.0116778 3.22924e-23)
(1.06395 0.0114083 -2.69192e-24)
(1.05952 0.0100174 0)
(1.05517 0.00815447 0)
(1.05164 0.00626052 0)
(1.04903 0.00435338 0)
(1.04737 0.00259162 0)
(1.04655 0.000737458 0)
(1.04546 0.000536324 -1.05291e-23)
(1.04657 0.00175772 0)
(1.04871 0.00321864 0)
(1.05203 0.00488302 0)
(1.05665 0.00693806 0)
(1.06293 0.00958855 0)
(1.07216 0.0129579 5.35575e-25)
(1.0851 0.0165993 -9.52516e-24)
(1.10088 0.0209101 2.03131e-23)
(1.11929 0.0263022 8.41744e-23)
(1.14079 0.03358 2.15167e-22)
(1.16644 0.0421135 -7.67642e-22)
(1.19721 0.0537743 7.20402e-22)
(1.23062 0.049115 -6.96739e-22)
(1.27651 0.0553949 -3.6232e-22)
(1.33893 0.0584082 -8.8068e-22)
(1.40147 0.0357448 -5.12735e-22)
(1.18277 -0.0324548 2.77809e-20)
(0.480508 -0.302795 2.75653e-21)
(-0.09955 -0.56377 6.81595e-21)
(-0.330591 -0.70006 -2.67748e-21)
(0.174471 -0.687065 5.18989e-21)
(0.926709 -0.58981 -1.32161e-21)
(1.13417 -0.381129 4.53089e-21)
(1.12155 -0.219851 2.20673e-21)
(1.09643 -0.111273 8.91675e-22)
(1.09648 -0.0577322 -1.17852e-21)
(1.0817 -0.0201012 1.22155e-21)
(1.07956 -0.00719898 -1.2346e-21)
(1.07631 -0.000189938 -3.50113e-23)
(1.07294 0.00409719 -7.71739e-22)
(1.07007 0.006942 1.93386e-22)
(1.06729 0.00820591 -1.41713e-23)
(1.06492 0.00831944 -2.34551e-24)
(1.06164 0.00745219 0)
(1.05764 0.00615456 0)
(1.05424 0.00484961 0)
(1.05161 0.00351461 0)
(1.04976 0.0021981 0)
(1.04881 0.00104382 -8.29e-25)
(1.04348 0.000814553 -2.16312e-23)
(1.04436 0.00274899 0)
(1.04613 0.00494194 0)
(1.04886 0.00754894 0)
(1.05261 0.0107653 0)
(1.05773 0.0148026 0)
(1.06575 0.0199504 0)
(1.07753 0.0261748 3.48205e-25)
(1.09142 0.0340207 7.48895e-23)
(1.10707 0.0440111 1.08121e-22)
(1.12519 0.0573411 -2.605e-22)
(1.14676 0.0739256 -4.29031e-22)
(1.17321 0.0965749 7.01605e-22)
(1.20964 0.124198 3.32382e-23)
(1.25425 0.133168 1.06985e-21)
(1.31704 0.164824 1.15348e-21)
(1.40669 0.178867 -3.09119e-23)
(1.39115 0.174246 -3.86758e-21)
(0.870553 -0.0659948 -3.49866e-22)
(0.340411 -0.384793 -5.93708e-21)
(-0.112602 -0.712694 -4.28168e-21)
(-0.00778975 -0.787258 -5.07963e-21)
(0.572394 -0.553751 6.79527e-21)
(0.863473 -0.300919 -5.02033e-21)
(0.948491 -0.137865 2.08797e-21)
(1.00837 -0.0658971 -1.43811e-21)
(1.04078 -0.00680057 1.17869e-22)
(1.062 0.000933441 1.49511e-22)
(1.0688 0.00428134 -4.14029e-22)
(1.07044 0.00576922 1.90659e-22)
(1.06956 0.00603819 -1.93078e-22)
(1.06768 0.00584696 -3.94473e-23)
(1.06629 0.00588808 -1.14832e-23)
(1.06541 0.00559208 0)
(1.06286 0.00480303 0)
(1.05906 0.00390856 0)
(1.05568 0.00308565 0)
(1.05313 0.00225201 0)
(1.05148 0.00133667 0)
(1.05069 0.000350254 7.36574e-23)
(1.0408 0.00106346 2.6915e-24)
(1.04132 0.00335451 0)
(1.04256 0.00599539 0)
(1.04449 0.00907425 0)
(1.04713 0.012883 0)
(1.05077 0.0176376 0)
(1.05691 0.0237543 0)
(1.06642 0.0315073 0)
(1.07713 0.0418513 -6.65321e-24)
(1.0884 0.0552873 9.8933e-23)
(1.10086 0.0733458 -8.50718e-23)
(1.11508 0.0964732 3.13286e-23)
(1.132 0.127255 -8.73171e-22)
(1.15513 0.16909 2.98205e-22)
(1.19745 0.19984 -2.10236e-22)
(1.24455 0.260022 2.11008e-21)
(1.31222 0.322142 -3.69176e-21)
(1.39505 0.43654 -1.57482e-21)
(1.21635 0.418365 -1.53601e-20)
(0.766074 0.228868 2.51682e-21)
(0.273402 -0.0520238 1.18564e-21)
(0.0247319 -0.296703 -5.89327e-21)
(0.21689 -0.318517 -5.47749e-21)
(0.619162 -0.11594 7.21534e-20)
(0.857509 0.0280644 1.08832e-21)
(0.963696 0.0356398 -5.09997e-22)
(1.03905 0.0506345 1.13153e-22)
(1.06229 0.0301399 2.93695e-22)
(1.07098 0.0213779 -7.88438e-23)
(1.07258 0.0143196 1.29877e-22)
(1.07113 0.00946321 -3.49965e-23)
(1.06888 0.0062068 -5.6057e-25)
(1.06732 0.00418864 0)
(1.06636 0.00283249 0)
(1.06371 0.00194383 0)
(1.0598 0.00135501 0)
(1.05632 0.000914372 3.67709e-23)
(1.05372 0.000503605 5.08517e-23)
(1.05201 0.000169858 3.03234e-23)
(1.05097 -0.000120798 0)
(1.03761 0.00115553 0)
(1.03786 0.00354428 0)
(1.03853 0.00619794 0)
(1.03962 0.00926934 0)
(1.0411 0.0130641 0)
(1.04315 0.0177634 0)
(1.04704 0.0239423 0)
(1.05337 0.0322666 0)
(1.05984 0.0436747 3.4469e-26)
(1.06543 0.0586754 1.57214e-24)
(1.07047 0.0788036 -7.09926e-24)
(1.07485 0.105081 -2.21978e-22)
(1.07968 0.13899 5.29909e-22)
(1.08444 0.186391 -9.82631e-22)
(1.1139 0.23325 4.24965e-21)
(1.13201 0.304611 3.01668e-22)
(1.16308 0.38481 -8.70291e-22)
(1.18532 0.522605 -3.86571e-21)
(1.15095 0.715881 -4.67077e-21)
(0.946043 0.794448 -1.09552e-20)
(0.635577 0.685499 3.6263e-22)
(0.369507 0.433991 -6.47166e-21)
(0.304595 0.181739 2.84882e-21)
(0.401383 0.0992386 1.85905e-21)
(0.851375 0.209655 7.0418e-22)
(1.00446 0.147135 1.5186e-21)
(1.07944 0.0900812 2.44501e-22)
(1.08931 0.0538077 3.09888e-22)
(1.08844 0.0337377 1.15775e-22)
(1.08351 0.0193353 -1.32136e-23)
(1.07804 0.0105033 -6.16429e-24)
(1.07319 0.00483551 -7.34139e-26)
(1.07006 0.00132191 0)
(1.06788 -0.000742258 0)
(1.06438 -0.00148768 0)
(1.06011 -0.00164784 0)
(1.05645 -0.00154825 0)
(1.0537 -0.00128368 0)
(1.05176 -0.000791245 0)
(1.05058 -0.000245365 -5.46128e-24)
(1.03443 0.00106219 0)
(1.03445 0.00323074 0)
(1.03469 0.00550867 0)
(1.03506 0.00809745 0)
(1.03545 0.0112526 0)
(1.03591 0.0151397 0)
(1.03719 0.0204149 0)
(1.03958 0.0280806 0)
(1.04111 0.0389786 0)
(1.04079 0.0533093 0)
(1.03819 0.0723351 1.94793e-24)
(1.03251 0.0974787 2.05814e-23)
(1.02446 0.129316 6.89911e-23)
(1.01236 0.176632 -9.22798e-23)
(1.02055 0.227105 1.2869e-20)
(1.01559 0.294732 -1.96132e-21)
(1.02493 0.386185 4.04099e-21)
(0.971132 0.48616 1.50508e-21)
(0.931829 0.600827 -4.30807e-21)
(0.87242 0.710851 1.0732e-20)
(0.763176 0.756164 1.65166e-21)
(0.644004 0.705954 3.46354e-21)
(0.553605 0.586081 1.46667e-21)
(0.511173 0.430856 7.77307e-22)
(0.89794 0.295632 5.72592e-21)
(1.12564 0.193949 5.83659e-22)
(1.1508 0.0872694 -1.40122e-22)
(1.13433 0.0532728 1.2993e-22)
(1.11598 0.0296551 -6.85505e-23)
(1.10083 0.0143398 5.4841e-24)
(1.0889 0.005106 0)
(1.07993 -0.000846198 0)
(1.07388 -0.00434095 0)
(1.06935 -0.00587838 0)
(1.06442 -0.00573096 0)
(1.05957 -0.00501277 0)
(1.05565 -0.00403208 0)
(1.05273 -0.00289643 0)
(1.05073 -0.0016622 0)
(1.0496 -0.00048004 0)
(1.03166 0.000762574 0)
(1.03162 0.00226622 0)
(1.03164 0.00382739 0)
(1.03156 0.00555709 0)
(1.03122 0.00757657 0)
(1.03037 0.0100255 0)
(1.02913 0.0134348 0)
(1.02761 0.0188774 0)
(1.02456 0.0271291 0)
(1.01901 0.0381273 0)
(1.0097 0.0528565 0)
(0.995346 0.0723863 -6.08214e-25)
(0.974536 0.0974671 -4.55967e-23)
(0.947475 0.136044 -3.99829e-23)
(0.936989 0.187918 4.55184e-21)
(0.897448 0.248969 1.99275e-21)
(0.891488 0.341638 2.82221e-21)
(0.863778 0.427211 4.0627e-23)
(0.796484 0.524438 -1.03286e-22)
(0.737948 0.637444 -6.80187e-21)
(0.69706 0.729548 -2.37131e-21)
(0.68151 0.756809 -6.38107e-23)
(0.695308 0.694658 9.33914e-22)
(0.780677 0.5277 5.44608e-22)
(1.1134 0.250616 -1.44843e-21)
(1.26014 0.132236 7.78453e-22)
(1.21818 0.0331751 -3.67399e-22)
(1.17437 0.0185272 -6.93902e-23)
(1.14021 0.00347432 -7.99282e-26)
(1.11629 -0.00455136 0)
(1.09851 -0.00937932 0)
(1.08563 -0.0122922 0)
(1.07647 -0.013305 0)
(1.06933 -0.0126612 0)
(1.06299 -0.0107449 0)
(1.05764 -0.00868108 0)
(1.05356 -0.00660689 0)
(1.05063 -0.00459711 0)
(1.04871 -0.00266698 0)
(1.04773 -0.000840955 0)
(1.03014 0.000276201 0)
(1.0301 0.000920058 0)
(1.03006 0.00155084 0)
(1.02982 0.00219724 0)
(1.02915 0.00284791 0)
(1.02764 0.00350778 0)
(1.02481 0.00444331 0)
(1.02057 0.00638728 0)
(1.01436 0.00996214 0)
(1.00525 0.0148414 0)
(0.99137 0.0217458 2.67718e-23)
(0.970489 0.0310202 0)
(0.940252 0.0442495 0)
(0.902584 0.0649389 -6.00068e-22)
(0.854743 0.0997187 2.21585e-21)
(0.802082 0.157558 7.04827e-21)
(0.731799 0.233276 1.32025e-22)
(0.65083 0.36906 -3.9976e-22)
(0.584586 0.50141 8.02685e-22)
(0.581112 0.597529 -7.08387e-21)
(0.668775 0.624306 -1.1302e-21)
(0.796926 0.553132 1.36603e-20)
(0.961462 0.397341 -5.48961e-22)
(1.14903 0.197969 3.45068e-22)
(1.328 0.0374509 -1.57491e-22)
(1.33252 -0.059752 2.29541e-21)
(1.2417 -0.0513813 7.63428e-22)
(1.18567 -0.0407788 0)
(1.14747 -0.0377888 0)
(1.12034 -0.0333078 3.33768e-23)
(1.10034 -0.0301513 0)
(1.08569 -0.0272724 0)
(1.0747 -0.0239158 0)
(1.06605 -0.0200711 0)
(1.05917 -0.0159593 0)
(1.05392 -0.012336 0)
(1.05006 -0.00910629 0)
(1.04733 -0.0062545 -6.05184e-24)
(1.04562 -0.0036425 -4.34165e-24)
(1.04479 -0.00120233 0)
(1.02994 -6.55513e-05 0)
(1.02993 -0.000204867 0)
(1.02993 -0.000485786 0)
(1.0298 -0.000936678 0)
(1.02935 -0.00170109 0)
(1.02805 -0.00290376 0)
(1.02498 -0.00455052 0)
(1.01996 -0.00645691 0)
(1.01293 -0.0084679 0)
(1.00305 -0.011264 0)
(0.988122 -0.0149705 1.25481e-22)
(0.964796 -0.0203193 0)
(0.928174 -0.0253721 0)
(0.877029 -0.0265542 2.76369e-22)
(0.799289 -0.0173852 -2.06246e-20)
(0.690596 0.0121725 -3.50801e-21)
(0.586466 0.00467985 0)
(0.540702 -0.0387695 1.69705e-22)
(0.554839 -0.107898 -9.49233e-21)
(0.657466 -0.180057 -6.93081e-21)
(0.844591 -0.25009 2.00421e-20)
(1.04295 -0.284728 -7.67408e-21)
(1.22192 -0.324127 -1.19953e-21)
(1.339 -0.315228 0)
(1.35824 -0.260283 1.51354e-22)
(1.27881 -0.184067 -6.65156e-21)
(1.2071 -0.131309 -7.33464e-22)
(1.16228 -0.0997329 0)
(1.13197 -0.0780656 0)
(1.10883 -0.0616243 -7.66217e-24)
(1.09136 -0.0499983 0)
(1.07795 -0.0409584 0)
(1.06731 -0.0332277 0)
(1.05888 -0.0264615 0)
(1.0527 -0.0204174 0)
(1.04836 -0.0153897 1.09486e-23)
(1.04525 -0.011126 -1.42275e-23)
(1.04308 -0.00750403 0)
(1.04171 -0.00430959 0)
(1.04103 -0.00135154 -3.34342e-23)
(1.03041 -0.000188292 0)
(1.03062 -0.000854476 0)
(1.03094 -0.00179435 0)
(1.03133 -0.00311791 0)
(1.03166 -0.00501957 0)
(1.03136 -0.00775926 0)
(1.02939 -0.0115926 -5.38352e-24)
(1.02562 -0.0168006 0)
(1.02066 -0.0238929 0)
(1.01394 -0.0341007 0)
(1.00337 -0.0487453 0)
(0.985419 -0.0707403 0)
(0.94946 -0.0994488 0)
(0.879082 -0.133787 9.61712e-21)
(0.795408 -0.156893 1.3951e-22)
(0.732024 -0.182406 -2.48909e-24)
(0.7061 -0.272174 0)
(0.692498 -0.371447 0)
(0.700587 -0.466879 -3.73335e-21)
(0.760349 -0.539783 -3.64067e-20)
(0.89478 -0.583787 2.14302e-20)
(1.03502 -0.576621 -5.00912e-22)
(1.14982 -0.53855 0)
(1.21008 -0.451251 0)
(1.20496 -0.340548 0)
(1.16561 -0.244799 1.32493e-23)
(1.13719 -0.181076 -2.99805e-22)
(1.11453 -0.137244 2.93131e-23)
(1.09807 -0.104226 0)
(1.08429 -0.0802545 0)
(1.07308 -0.0625952 0)
(1.06367 -0.0492455 0)
(1.05549 -0.0386628 4.80459e-23)
(1.04877 -0.0301371 1.96892e-23)
(1.0442 -0.0229772 9.9192e-25)
(1.04132 -0.0171523 0)
(1.03936 -0.0123092 0)
(1.03804 -0.00821716 0)
(1.03729 -0.00467189 0)
(1.03698 -0.00144071 0)
(1.03122 -0.000310928 0)
(1.03187 -0.00116407 0)
(1.03276 -0.0023337 0)
(1.03395 -0.0040015 0)
(1.03543 -0.00640016 0)
(1.03676 -0.00988851 0)
(1.03698 -0.0149473 0)
(1.03623 -0.0221648 0)
(1.03598 -0.0324693 2.42427e-23)
(1.03639 -0.0474654 0)
(1.03625 -0.0691379 0)
(1.03261 -0.101925 0)
(1.01035 -0.14709 -1.0148e-21)
(0.942881 -0.209008 -2.68984e-21)
(0.863494 -0.275356 0)
(0.834937 -0.349925 0)
(0.833371 -0.439266 0)
(0.804269 -0.508143 0)
(0.794764 -0.563554 4.10756e-21)
(0.808672 -0.601621 1.24879e-20)
(0.880216 -0.608069 1.61389e-20)
(0.958398 -0.570061 -1.01029e-20)
(1.02275 -0.504002 0)
(1.05223 -0.413778 0)
(1.05735 -0.320656 0)
(1.05829 -0.24712 0)
(1.06009 -0.191514 -2.13399e-21)
(1.05797 -0.146578 -7.88923e-22)
(1.05605 -0.111449 0)
(1.05316 -0.0852163 -1.37691e-24)
(1.04978 -0.0653112 5.90112e-24)
(1.04597 -0.0503148 -3.98114e-24)
(1.04159 -0.0387704 0)
(1.03754 -0.0298154 0)
(1.03504 -0.0226245 0)
(1.03382 -0.0169256 0)
(1.03308 -0.0122442 0)
(1.03263 -0.00829256 0)
(1.03253 -0.00480387 0)
(1.03269 -0.00166642 0)
(1.03235 -0.000340816 0)
(1.03328 -0.0010878 0)
(1.0347 -0.00203829 0)
(1.03674 -0.00345151 0)
(1.03952 -0.00556353 0)
(1.04279 -0.00873807 0)
(1.04589 -0.0135733 0)
(1.04917 -0.0208291 0)
(1.05483 -0.0313634 0)
(1.06404 -0.0465044 0)
(1.07725 -0.0680926 -1.59611e-22)
(1.09264 -0.100207 -2.86515e-22)
(1.09686 -0.146319 -8.34992e-23)
(1.05389 -0.218267 1.49553e-21)
(0.982435 -0.313839 0)
(0.941683 -0.407023 0)
(0.904668 -0.483285 0)
(0.849955 -0.5335 0)
(0.823243 -0.56585 -3.1361e-20)
(0.808642 -0.583452 3.87797e-20)
(0.830332 -0.570444 1.44746e-21)
(0.865799 -0.509354 2.00519e-22)
(0.907564 -0.438617 0)
(0.935238 -0.356814 0)
(0.95817 -0.283921 0)
(0.982692 -0.226495 0)
(0.995999 -0.176854 2.86628e-21)
(1.00466 -0.13491 -1.77118e-21)
(1.01465 -0.102646 -4.79929e-22)
(1.02155 -0.0774652 8.98549e-23)