/*--------------------------------*- C++ -*----------------------------------*\
| =========                 |                                                 |
| \\      /  F ield         | OpenFOAM: The Open Source CFD Toolbox           |
|  \\    /   O peration     | Version:  v2106                                 |
|   \\  /    A nd           | Website:  www.openfoam.com                      |
|    \\/     M anipulation  |                                                 |
\*---------------------------------------------------------------------------*/
FoamFile
{
    version     2.0;
    format      ascii;
    arch        "LSB;label=32;scalar=64";
    class       volScalarField;
    location    "50";
    object      p;
}
// * * * * * * * * * * * * * * * * * * * * * * * * * * * * * * * * * * * * * //

dimensions      [0 2 -2 0 0 0 0];

internalField   nonuniform List<scalar> 
11644
(
0.0599213
0.0603403
0.0611763
0.0624317
0.0641077
0.0662015
0.0687051
0.0716036
0.074853
0.0784866
0.0822314
0.0865478
0.0904903
0.0949393
0.0989135
0.102135
0.104843
0.106336
0.106899
0.106105
0.104049
0.100749
0.0962651
0.0910195
0.0848441
0.0784645
0.0716857
0.0648622
0.0587528
0.0526601
0.047388
0.0425143
0.0382416
0.0345285
0.0313806
0.0287912
0.0267454
0.0252286
0.0242262
0.0237253
0.059168
0.0595826
0.0604119
0.061661
0.0633349
0.0654376
0.0679695
0.0709299
0.0743009
0.0780685
0.0821893
0.0864548
0.09098
0.0952171
0.099218
0.103293
0.106303
0.108486
0.109312
0.108695
0.106545
0.1029
0.0979727
0.0919568
0.0853803
0.0781976
0.0713624
0.0646425
0.0580329
0.052014
0.046454
0.0415014
0.037175
0.0334582
0.0303376
0.0277864
0.0257795
0.0242964
0.0233185
0.0228314
0.0576693
0.0580758
0.0588907
0.0601225
0.0617825
0.0638825
0.0664364
0.0694535
0.0729331
0.0768738
0.0811962
0.0859515
0.0908031
0.0961416
0.101364
0.105951
0.109935
0.112855
0.114259
0.113834
0.111516
0.107309
0.101528
0.0944886
0.0868522
0.0789501
0.0709421
0.0632372
0.0563488
0.0499939
0.0443145
0.0393014
0.0349754
0.0312997
0.0282485
0.0257773
0.0238512
0.0224371
0.0215089
0.0210486
0.0554205
0.0558109
0.0565973
0.0577925
0.0594144
0.0614908
0.0640514
0.0671318
0.0707521
0.0749574
0.0797573
0.0850348
0.0910227
0.097059
0.103273
0.109913
0.115417
0.119858
0.122296
0.122322
0.119697
0.114402
0.107092
0.0981081
0.0886832
0.0787993
0.0697165
0.0613622
0.0535635
0.0468229
0.0408969
0.035838
0.0315706
0.0280135
0.0251042
0.0227788
0.0209857
0.0196786
0.0188254
0.0184042
0.052419
0.052785
0.0535263
0.0546609
0.0562141
0.0582275
0.0607503
0.0638376
0.0675459
0.0719509
0.0770926
0.0832011
0.0898179
0.0979518
0.106743
0.115111
0.123198
0.129944
0.134204
0.134918
0.131786
0.124843
0.114894
0.102906
0.0908598
0.0789575
0.0674596
0.0572327
0.0490918
0.0418727
0.0359106
0.0309328
0.0268544
0.0235314
0.020875
0.0187922
0.0172084
0.0160638
0.0153221
0.0149578
0.0487034
0.0490317
0.0496998
0.0507298
0.0521544
0.0540207
0.0563947
0.059373
0.0630601
0.0676302
0.073224
0.0799079
0.0883408
0.0972222
0.10816
0.120856
0.133123
0.144024
0.151691
0.154136
0.150227
0.140036
0.125565
0.108661
0.0920106
0.0755577
0.0621131
0.0518633
0.042387
0.0350925
0.0291446
0.0244334
0.0207281
0.0178252
0.0155776
0.0138574
0.0125732
0.0116608
0.0110764
0.0107919
0.0443295
0.0445985
0.04515
0.0460086
0.0472143
0.0488218
0.0509072
0.0535906
0.0570215
0.0614377
0.0669829
0.0740785
0.0827088
0.0937424
0.110714
0.126401
0.13801
0.154097
0.167592
0.174768
0.172415
0.160454
0.141333
0.119527
0.0913904
0.0718568
0.0527172
0.0405658
0.0319595
0.0251017
0.0199683
0.0160424
0.0131008
0.0109015
0.00927313
0.00806923
0.00720036
0.0066011
0.00622579
0.00604568
0.03939
0.0395755
0.0399602
0.0405685
0.0414402
0.0426342
0.0442283
0.0463427
0.0491352
0.0529411
0.0580506
0.0645425
0.0763646
0.0841042
0.100958
0.121337
0.146343
0.173967
0.19988
0.215729
0.213752
0.192655
0.159154
0.12336
0.0906725
0.0636495
0.0446925
0.0284226
0.0173358
0.012099
0.00822295
0.005677
0.00396731
0.00280652
0.00204713
0.00155282
0.00124202
0.00105312
0.00094709
0.000900096
0.034019
0.0340948
0.0342574
0.0345261
0.0349321
0.0355245
0.0363712
0.0375921
0.039341
0.0418704
0.0456993
0.0502008
0.0588665
0.0713969
0.0881806
0.11191
0.141284
0.18549
0.231827
0.26938
0.275059
0.24045
0.183373
0.124152
0.0788698
0.0393313
0.020936
0.00238065
-0.00299305
-0.00494732
-0.00618079
-0.00653216
-0.00646731
-0.006187
-0.00580775
-0.00540226
-0.00502869
-0.0047239
-0.00451063
-0.00440065
0.0284104
0.0283546
0.028249
0.0281011
0.0279245
0.0277416
0.0275873
0.0275387
0.027699
0.0281611
0.0293781
0.0308084
0.0339362
0.0455731
0.0578257
0.0807245
0.115167
0.172646
0.259986
0.357304
0.38943
0.311869
0.190147
0.09528
0.0307069
-0.0075792
-0.0188351
-0.0303553
-0.0287848
-0.0256597
-0.0229494
-0.0202622
-0.0178197
-0.0157155
-0.0139315
-0.0124595
-0.0112947
-0.0104317
-0.00986177
-0.00957816
0.02281
0.0226073
0.0222008
0.0215819
0.0207377
0.0196524
0.0183071
0.0167068
0.0148276
0.0126186
0.0102166
0.00698685
0.00377099
0.00910342
0.00906307
0.0179452
0.0347434
0.0700592
0.177529
0.4182
0.582795
0.323829
0.064216
-0.043391
-0.0764229
-0.0837465
-0.073944
-0.0688178
-0.0582699
-0.048231
-0.0406202
-0.0341986
-0.0290517
-0.0249342
-0.0216539
-0.0190737
-0.0171053
-0.0156825
-0.0147595
-0.0143038
0.0174951
0.0171446
0.0164356
0.0153406
0.0138203
0.011813
0.00923299
0.00599886
0.00197672
-0.00317929
-0.00941649
-0.0182195
-0.0285091
-0.0318005
-0.0493782
-0.0657981
-0.0998067
-0.178576
-0.408267
-0.617291
-0.339057
-0.228801
-0.172272
-0.133539
-0.105767
-0.0858831
-0.0686628
-0.0565063
-0.0465589
-0.0389313
-0.0329431
-0.0282865
-0.0247028
-0.0220086
-0.0200875
-0.0188507
-0.0182441
0.0127693
0.012285
0.0113012
0.00977268
0.00763483
0.00478855
0.00110011
-0.00360392
-0.00948416
-0.0171784
-0.0266247
-0.0396905
-0.0562639
-0.0667377
-0.0969438
-0.129642
-0.193769
-0.319111
-0.448286
-0.72601
-0.521423
-0.340471
-0.240807
-0.17946
-0.13383
-0.105578
-0.0835561
-0.0679165
-0.0553518
-0.0459994
-0.0386552
-0.0330476
-0.0287497
-0.0255475
-0.0232728
-0.0218138
-0.0210995
0.00890121
0.00831062
0.00711038
0.00524117
0.00263139
-0.000862753
-0.00536059
-0.0111856
-0.0183841
-0.0278947
-0.0394872
-0.0550572
-0.0747641
-0.0895083
-0.122389
-0.157944
-0.213492
-0.289941
-0.33089
-0.572844
-0.512381
-0.37601
-0.266539
-0.199631
-0.14281
-0.112669
-0.0893761
-0.0726679
-0.0592088
-0.0492935
-0.0413981
-0.0354168
-0.0308101
-0.0273927
-0.0249627
-0.023407
-0.0226446
0.00610986
0.00545344
0.00411925
0.00203954
-0.000858755
-0.004743
-0.0097234
-0.0161864
-0.0241466
-0.0345396
-0.047229
-0.063678
-0.0844891
-0.101761
-0.132779
-0.16413
-0.203885
-0.240881
-0.269411
-0.350088
-0.485017
-0.627488
-0.644758
-0.538438
-0.370355
-0.253403
-0.189898
-0.13262
-0.106083
-0.0852663
-0.0700877
-0.0575788
-0.0484344
-0.0409057
-0.0351841
-0.0307274
-0.0274142
-0.0250471
-0.0235276
-0.022783
0.00452978
0.00385175
0.00247198
0.000316677
-0.00267485
-0.00669689
-0.0118142
-0.0184645
-0.026643
-0.0371494
-0.0501118
-0.066596
-0.0865821
-0.105734
-0.136996
-0.174191
-0.205726
-0.220812
-0.228887
-0.327864
-0.569039
-0.772527
-0.709588
-0.464037
-0.30223
-0.198763
-0.152566
-0.106374
-0.0871879
-0.0720998
-0.0604267
-0.0505471
-0.0436879
-0.0372104
-0.0323993
-0.0285287
-0.0256461
-0.0235493
-0.0221997
-0.0215341
0.00424764
0.00359598
0.00226948
0.000199007
-0.00266562
-0.00650724
-0.0113917
-0.0177059
-0.0254995
-0.0355775
-0.0478211
-0.0643082
-0.0834095
-0.111009
-0.138989
-0.182578
-0.235039
-0.303105
-0.331735
-0.386386
-0.490539
-0.535095
-0.391105
-0.242003
-0.142204
-0.110664
-0.0774652
-0.0684649
-0.0600282
-0.0525411
-0.0460094
-0.0400818
-0.0352905
-0.0309107
-0.0274191
-0.0245037
-0.0222903
-0.0206237
-0.0195453
-0.0190084
0.00524831
0.00466767
0.00348477
0.00164486
-0.00090871
-0.00431504
-0.00867423
-0.0142807
-0.0212877
-0.0302034
-0.041522
-0.0557339
-0.0749033
-0.0981164
-0.129054
-0.181533
-0.251786
-0.38057
-0.480952
-0.52797
-0.465086
-0.287302
-0.0940832
-0.0289993
-0.0119573
-0.0238424
-0.0243375
-0.0289026
-0.0317074
-0.031404
-0.0300692
-0.0278008
-0.0255338
-0.0231439
-0.0210719
-0.0192005
-0.0177157
-0.0165668
-0.0158022
-0.0154188
0.00736992
0.00689803
0.00593584
0.00444319
0.00237914
-0.000376071
-0.00387269
-0.00840558
-0.0140308
-0.0214065
-0.0305403
-0.0432736
-0.0587181
-0.0816494
-0.110848
-0.151609
-0.216909
-0.334552
-0.48571
-0.5601
-0.505405
-0.272659
-0.0181253
0.0843115
0.0705369
0.0382205
0.0133537
0.000709206
-0.00888846
-0.0130619
-0.0157301
-0.0160001
-0.0159677
-0.0150735
-0.0142317
-0.0132535
-0.0124352
-0.0117571
-0.011294
-0.0110555
0.0103735
0.010035
0.00934608
0.00828094
0.00681438
0.00486913
0.00238945
-0.00078145
-0.00480716
-0.00992341
-0.0165408
-0.0248646
-0.0366185
-0.050458
-0.0732674
-0.10637
-0.152694
-0.215656
-0.307136
-0.385045
-0.361529
-0.206758
-0.0240918
0.08518
0.092643
0.0613418
0.0299803
0.0169573
0.00625036
4.15954e-05
-0.00411927
-0.00605661
-0.00727653
-0.00748485
-0.0074787
-0.00718566
-0.00687702
-0.00657189
-0.00634823
-0.0062287
0.0139817
0.0137888
0.0133992
0.0128056
0.0120026
0.0109651
0.00966896
0.00804519
0.00598507
0.00321406
-0.00069429
-0.00629505
-0.0147975
-0.027468
-0.0492898
-0.0665865
-0.0955605
-0.12421
-0.166562
-0.2081
-0.212563
-0.153263
-0.0601173
0.0253983
0.055986
0.0460135
0.028762
0.0183088
0.0114922
0.00647112
0.00309034
0.00119221
-0.000227259
-0.000846942
-0.00123209
-0.00133503
-0.00134413
-0.00129274
-0.0012393
-0.00120542
0.0179185
0.0178734
0.017792
0.0176815
0.0175797
0.0174805
0.0174354
0.0173575
0.0173368
0.0166883
0.0160101
0.0121727
0.00711954
-0.00362296
-0.0307776
-0.0410744
-0.0464223
-0.0639966
-0.104285
-0.162718
-0.209875
-0.205317
-0.152767
-0.0860069
-0.0410548
-0.00773399
0.00586354
0.00877246
0.0091666
0.00762883
0.00680756
0.00596463
0.00519193
0.0047468
0.00436687
0.00414496
0.00399658
0.00390974
0.00386139
0.00384014
0.0219181
0.0220053
0.0222049
0.0225295
0.0230615
0.0238221
0.0249391
0.0263531
0.0283986
0.0304642
0.0333171
0.034007
0.0328945
0.021283
0.00907229
-0.0181385
-0.0469432
-0.0707204
-0.144609
-0.253098
-0.357119
-0.380521
-0.340895
-0.285473
-0.115565
-0.0512877
-0.0189655
-0.00293857
0.00449091
0.00765202
0.00941612
0.00985686
0.00991071
0.00980814
0.00955576
0.00933764
0.00912599
0.00896588
0.00885548
0.00879836
0.0257225
0.0259093
0.0263261
0.0269858
0.028029
0.0294821
0.0316503
0.0343775
0.0385334
0.0434004
0.0506269
0.0554703
0.0636607
0.0462276
0.020628
-0.00758437
-0.025169
-0.0519195
-0.135832
-0.224766
-0.279044
-0.275576
-0.235966
-0.177901
-0.0966987
-0.0531943
-0.0237091
-0.00674411
0.00331492
0.0092235
0.012345
0.0140153
0.0145993
0.0147841
0.0146139
0.0143799
0.014097
0.0138658
0.0136912
0.0136009
0.0291387
0.0293842
0.0299341
0.0307949
0.0321352
0.0340193
0.0367193
0.0404585
0.0456262
0.0524845
0.0615716
0.0696089
0.0763136
0.0615794
0.0263422
-0.0203605
-0.0487221
-0.0698419
-0.136864
-0.185447
-0.206312
-0.195994
-0.163429
-0.122598
-0.0783343
-0.04712
-0.0229622
-0.00624013
0.005213
0.0122403
0.0166213
0.0186055
0.0196458
0.0198044
0.0196434
0.0192898
0.0189084
0.0185705
0.0183241
0.018193
0.032051
0.0322976
0.0328514
0.0337171
0.0350034
0.0367752
0.0392418
0.0425537
0.0470552
0.052881
0.060306
0.0673534
0.0690712
0.052839
0.00921132
-0.0474756
-0.0803632
-0.101504
-0.138778
-0.157886
-0.159317
-0.145793
-0.122319
-0.0932971
-0.0640072
-0.0392245
-0.0174426
-0.00134867
0.011041
0.0185731
0.0226806
0.024811
0.0253443
0.0252572
0.0247414
0.0241285
0.0235272
0.0230275
0.0226765
0.0224926
0.0344347
0.034642
0.035089
0.0357399
0.0367123
0.0379234
0.0394814
0.0413095
0.0433732
0.0453797
0.0459187
0.0422944
0.0303536
0.001382
-0.0494002
-0.10773
-0.148462
-0.159746
-0.154921
-0.140405
-0.126091
-0.114175
-0.0970898
-0.0773367
-0.054966
-0.0315453
-0.0092157
0.0088268
0.0212293
0.0286105
0.031759
0.0326825
0.0321268
0.0312059
0.0299865
0.0288906
0.0279238
0.0271839
0.0266798
0.026424
0.0363896
0.0365317
0.0368294
0.0372316
0.0377611
0.0383363
0.0387819
0.0391557
0.038414
0.0377859
0.0324404
0.0216294
-0.00148999
-0.0411809
-0.10459
-0.161892
-0.225237
-0.216562
-0.163456
-0.132081
-0.102995
-0.0927391
-0.0820387
-0.0728736
-0.0609933
-0.0411524
-0.0122818
0.0144092
0.0317765
0.0402766
0.0423421
0.0413824
0.0391754
0.0370163
0.0349455
0.0332431
0.0318708
0.0308703
0.030205
0.0298765
0.0380631
0.0381504
0.038316
0.0385087
0.0386912
0.0387315
0.0384761
0.0376073
0.0356552
0.0319175
0.0243752
0.0114875
-0.0122087
-0.0485522
-0.104383
-0.159464
-0.203666
-0.19714
-0.161585
-0.129889
-0.0966757
-0.0864643
-0.0828127
-0.0833604
-0.0835067
-0.071389
-0.0354427
0.0103419
0.038245
0.0513495
0.0521332
0.0495593
0.0449336
0.0420162
0.0389569
0.0368015
0.0350692
0.0338729
0.0330775
0.0327023
0.0395768
0.0396321
0.0397222
0.0397897
0.0397748
0.0395174
0.038808
0.037346
0.0344601
0.0295648
0.0211719
0.00784851
-0.0129715
-0.0420205
-0.0815639
-0.121874
-0.155046
-0.1618
-0.150818
-0.138241
-0.106755
-0.105587
-0.10269
-0.102233
-0.105765
-0.0936439
-0.050403
0.0103412
0.0421087
0.0591135
0.0602447
0.0535091
0.0489731
0.0450111
0.0416506
0.0391556
0.037279
0.0359835
0.0351505
0.0347559
0.0409677
0.0410214
0.0411079
0.0411724
0.0411378
0.0408813
0.0400949
0.0385999
0.0354977
0.0304863
0.0218253
0.00914652
-0.00976628
-0.0337642
-0.0636055
-0.0930155
-0.121661
-0.136319
-0.142341
-0.142048
-0.116418
-0.116642
-0.116198
-0.109629
-0.104127
-0.0875374
-0.0456383
0.00772201
0.0406784
0.0555127
0.0574729
0.0531025
0.0489441
0.0452822
0.042244
0.0399726
0.0382842
0.0371098
0.0363614
0.0360045
0.0422278
0.0423188
0.0424811
0.0426765
0.0428561
0.0428587
0.0426018
0.0414992
0.0394344
0.0350804
0.0273465
0.0156963
-0.00189635
-0.0238879
-0.050026
-0.0743734
-0.100777
-0.116044
-0.124767
-0.127534
-0.11471
-0.112652
-0.111225
-0.104943
-0.0987225
-0.0806423
-0.0447711
-0.00587017
0.0214596
0.0375171
0.0442062
0.0450464
0.0439344
0.0423079
0.0406188
0.0392335
0.0381162
0.0373057
0.0367732
0.0365168
0.0433143
0.0434654
0.0437607
0.0441834
0.0447296
0.04529
0.0457687
0.0459084
0.0447863
0.0417004
0.0347319
0.0223971
0.0031604
-0.0204502
-0.0468594
-0.0683169
-0.087452
-0.0985573
-0.101981
-0.102103
-0.0955235
-0.092494
-0.0926416
-0.0959433
-0.10469
-0.0960095
-0.066476
-0.0346786
-0.00573371
0.0159767
0.0286961
0.0346388
0.0370671
0.0378984
0.0378564
0.0375806
0.0371859
0.0368491
0.0365938
0.0364669
0.0441133
0.0443221
0.0447512
0.0454125
0.046335
0.0475254
0.0489432
0.0501985
0.0509495
0.0483006
0.0390736
0.0212533
-0.00793783
-0.0400119
-0.0658719
-0.0800337
-0.0883039
-0.0902684
-0.0865954
-0.082666
-0.0766286
-0.069127
-0.0707219
-0.0827053
-0.114016
-0.115721
-0.0800895
-0.0522156
-0.0205901
0.00272143
0.0178362
0.0266334
0.0313868
0.0339487
0.0352326
0.035849
0.036096
0.0361676
0.0361635
0.0361504
0.0445186
0.044755
0.0452603
0.0460566
0.0472512
0.0486952
0.0511311
0.0525971
0.0554872
0.052286
0.0393776
0.0117607
-0.0330679
-0.0740707
-0.0993885
-0.106684
-0.101343
-0.0940176
-0.0857062
-0.0796773
-0.0724893
-0.0598099
-0.0600907
-0.0761378
-0.0939394
-0.0966651
-0.0742143
-0.0474908
-0.0201059
2.74707e-05
0.0137099
0.022577
0.0280888
0.0314827
0.0334574
0.0346245
0.0352651
0.0356056
0.0357718
0.0358364
0.0444237
0.0446353
0.0450944
0.0458399
0.0469546
0.0484408
0.0506212
0.0524672
0.0541532
0.05063
0.0365433
0.00521669
-0.047329
-0.0911289
-0.116435
-0.12
-0.109698
-0.100663
-0.0945841
-0.0929869
-0.086866
-0.076504
-0.0711619
-0.0719933
-0.0772955
-0.07329
-0.056691
-0.0350082
-0.013849
0.00238092
0.0141489
0.022049
0.0273305
0.030766
0.0328791
0.0341926
0.0349374
0.0353709
0.0355913
0.0356823
0.0438314
0.0439489
0.0442132
0.0446245
0.0452328
0.0459517
0.0468351
0.0470691
0.0457857
0.0401654
0.026027
-0.00165129
-0.0438961
-0.0808943
-0.101928
-0.109833
-0.107508
-0.10174
-0.101532
-0.105719
-0.100258
-0.0915672
-0.0841402
-0.0758755
-0.0696386
-0.0600301
-0.0434517
-0.0256931
-0.00844291
0.00567897
0.0164533
0.0237072
0.0285829
0.0315097
0.0334504
0.0345107
0.0351555
0.0354827
0.0356496
0.0357116
0.0429085
0.042882
0.0428338
0.0427222
0.0424827
0.0419408
0.0407988
0.0381347
0.0327525
0.0225249
0.00654313
-0.0158842
-0.0434144
-0.0677455
-0.0796039
-0.0871
-0.0908494
-0.0925806
-0.0977928
-0.102054
-0.0995932
-0.0947513
-0.0880601
-0.0767953
-0.066569
-0.0532132
-0.0347395
-0.0183474
-0.00286508
0.00962047
0.0201422
0.0266826
0.0311799
0.0334833
0.0348738
0.0354623
0.0357718
0.0358528
0.0358705
0.0358562
0.0419536
0.0417878
0.0414228
0.0408
0.039745
0.038029
0.0351551
0.0302119
0.0218679
0.00817194
-0.010972
-0.0332305
-0.0527881
-0.0611858
-0.0587563
-0.0592712
-0.0637263
-0.0691985
-0.0773813
-0.0832551
-0.085563
-0.0858563
-0.0831396
-0.0751785
-0.0652495
-0.051126
-0.0326095
-0.0150733
0.0018738
0.0151993
0.0252286
0.0311289
0.0348258
0.0363541
0.0368802
0.0368128
0.0365837
0.03631
0.0361001
0.0359777
0.0413145
0.0410452
0.0404737
0.0394848
0.037925
0.0355235
0.0317803
0.026057
0.0171166
0.0040205
-0.0154227
-0.0356632
-0.0500618
-0.0503283
-0.0385295
-0.0309307
-0.0347176
-0.0444134
-0.0549464
-0.0649373
-0.0723336
-0.0774596
-0.0802339
-0.0795558
-0.0750809
-0.0636373
-0.0498767
-0.0300826
-0.00561094
0.0148796
0.0291369
0.0360638
0.0391703
0.0394951
0.0390898
0.0381507
0.0372972
0.0366012
0.0361258
0.0358823
0.0412303
0.0409327
0.040276
0.0391962
0.0374789
0.0349611
0.0312198
0.0258102
0.0181336
0.00736075
-0.00685444
-0.0216394
-0.0304603
-0.0296798
-0.0209254
-0.0146112
-0.0186261
-0.0303144
-0.0432775
-0.0566339
-0.0678531
-0.0770176
-0.0848755
-0.0909772
-0.0946193
-0.0895706
-0.0819487
-0.0648611
-0.032919
-0.000445884
0.0262528
0.0383902
0.0429847
0.0421353
0.0407576
0.0388905
0.0375112
0.0364077
0.0357037
0.0353528
0.0417278
0.0414649
0.0408569
0.0398766
0.0382892
0.0359806
0.0325958
0.0278478
0.0212896
0.0125005
0.00212353
-0.00857916
-0.0151799
-0.0171776
-0.0149299
-0.0150128
-0.0217762
-0.0340877
-0.0480151
-0.0616041
-0.073027
-0.0827491
-0.091395
-0.0979386
-0.107213
-0.106564
-0.101598
-0.0878223
-0.054853
-0.0163548
0.0209877
0.0379537
0.0438108
0.0429289
0.0407596
0.0384355
0.0366825
0.0353642
0.0345271
0.034123
0.0427154
0.0425374
0.0420979
0.041349
0.0400754
0.038131
0.0351427
0.0307923
0.0246712
0.0169031
0.0076974
-0.00159278
-0.00979147
-0.0158704
-0.0198786
-0.0255358
-0.0342367
-0.0471204
-0.0605224
-0.0725433
-0.0819556
-0.0893607
-0.0956174
-0.0974331
-0.104597
-0.103403
-0.0967259
-0.0852039
-0.0563189
-0.017344
0.0178222
0.0359473
0.0408699
0.0398199
0.0379638
0.0358912
0.0342898
0.0330729
0.0323026
0.0319353
0.0439836
0.0439356
0.0437725
0.0433654
0.0426077
0.0410882
0.0384407
0.0343941
0.0287855
0.0216368
0.0127139
0.00315644
-0.00774126
-0.0170151
-0.0252184
-0.0343075
-0.0449531
-0.0573729
-0.0691289
-0.0786891
-0.0854618
-0.089843
-0.0915684
-0.0900561
-0.0919394
-0.0893794
-0.0834397
-0.0745366
-0.0512268
-0.0212285
0.00877104
0.0255052
0.0310915
0.0319607
0.0316037
0.0307642
0.0300031
0.0293531
0.0289164
0.0287002
0.0452722
0.045405
0.0455709
0.0456821
0.0453753
0.0443919
0.0421153
0.0382105
0.0321517
0.0236407
0.012845
0.00173624
-0.0103314
-0.0207601
-0.029581
-0.0387963
-0.0482096
-0.057396
-0.0654626
-0.071295
-0.0748455
-0.0755348
-0.075079
-0.0725717
-0.0717668
-0.0731954
-0.0746947
-0.0759343
-0.0660033
-0.0445698
-0.0186644
0.00187118
0.0136768
0.0193445
0.0223065
0.0236493
0.0243099
0.0245735
0.0246642
0.0247056
0.0463355
0.0466416
0.0473017
0.0479273
0.0482744
0.0477025
0.0449657
0.0396939
0.0289637
0.0140946
-0.0019871
-0.0156257
-0.0261581
-0.0342542
-0.0398649
-0.0442746
-0.0483215
-0.0514994
-0.053854
-0.0545635
-0.0539265
-0.0516112
-0.0489243
-0.0462329
-0.0473056
-0.0566613
-0.0692878
-0.0883387
-0.0910015
-0.0703338
-0.046642
-0.0201509
-0.00296919
0.00710724
0.0131506
0.0164927
0.0185257
0.0196441
0.0202747
0.0205449
0.0468843
0.0473654
0.0483947
0.0492476
0.0511424
0.0505923
0.045158
0.0356725
0.0152367
-0.00825063
-0.0297714
-0.0422535
-0.0507026
-0.0546943
-0.0527518
-0.050748
-0.0486385
-0.0462503
-0.043261
-0.0392478
-0.0348249
-0.0299186
-0.0246739
-0.0212283
-0.0242627
-0.0374602
-0.058054
-0.0806858
-0.0879554
-0.0765532
-0.0551781
-0.0282373
-0.0112475
-0.000415882
0.00688276
0.0111
0.0138138
0.0154385
0.0164593
0.0168828
0.0462547
0.046845
0.0480649
0.0493817
0.0512515
0.0504035
0.0442128
0.0302509
0.0026578
-0.0248376
-0.051799
-0.0543233
-0.0642634
-0.0649529
-0.0573807
-0.0523549
-0.0475346
-0.0432962
-0.0377664
-0.0316447
-0.0254135
-0.0189184
-0.0127065
-0.00634706
-0.00762976
-0.0194909
-0.0349053
-0.0538646
-0.0610556
-0.055874
-0.0422102
-0.0252095
-0.0121146
-0.00275855
0.0034856
0.00773517
0.0105124
0.012439
0.0135593
0.0141659
0.0435514
0.0441191
0.0452042
0.046427
0.047332
0.0461793
0.040708
0.0258043
0.000313845
-0.0251228
-0.0453071
-0.0542203
-0.0593221
-0.0581978
-0.0513566
-0.0471727
-0.0440518
-0.0407978
-0.035849
-0.0305943
-0.0250838
-0.0191263
-0.0128506
-0.00597881
-0.00439964
-0.00987409
-0.0186042
-0.0293977
-0.0356566
-0.0348562
-0.0291698
-0.0203613
-0.0119078
-0.00460571
0.000999221
0.00524529
0.00823294
0.0103415
0.0116331
0.0122862
0.0380321
0.0383075
0.0387493
0.0389888
0.0383435
0.0359334
0.030771
0.0189954
-0.000934855
-0.0230633
-0.0399697
-0.0483059
-0.0505063
-0.0483814
-0.0436352
-0.0409182
-0.0402836
-0.0381126
-0.0351145
-0.0309571
-0.0278165
-0.0241202
-0.0195463
-0.014823
-0.0124256
-0.0127985
-0.0159444
-0.0206
-0.0239009
-0.0245188
-0.0223828
-0.0180113
-0.0122854
-0.00657607
-0.00119634
0.00314482
0.00659442
0.00894523
0.0105318
0.0112426
0.0300641
0.0298645
0.0293186
0.0280097
0.025284
0.0207735
0.0146421
0.0045196
-0.0123659
-0.0332971
-0.0470861
-0.0523816
-0.0495153
-0.0436352
-0.0389027
-0.0365534
-0.0358553
-0.034169
-0.0322968
-0.0304402
-0.0290856
-0.0276312
-0.0250484
-0.0228302
-0.0210746
-0.0198834
-0.0210932
-0.0223495
-0.0226266
-0.0222824
-0.0200874
-0.0166782
-0.0119692
-0.00719999
-0.00212802
0.00202861
0.00572055
0.00832697
0.00995915
0.0111762
0.0211384
0.0205109
0.0190694
0.016444
0.0119976
0.00529743
-0.00361721
-0.0164335
-0.0365786
-0.0574955
-0.0728055
-0.0707236
-0.0572658
-0.0441916
-0.034387
-0.0309344
-0.0289586
-0.0274795
-0.0260317
-0.0247431
-0.0241639
-0.0237224
-0.023099
-0.0231109
-0.0234256
-0.0232095
-0.0244563
-0.0251318
-0.0239389
-0.0228937
-0.0200986
-0.0165049
-0.0120106
-0.00693775
-0.00243631
0.00186166
0.00543551
0.00821065
0.00978739
0.0113929
0.0128207
0.011914
0.00991117
0.00647742
0.000981034
-0.00712568
-0.0187006
-0.0341858
-0.0570496
-0.0770984
-0.0922601
-0.0853526
-0.0620123
-0.0413228
-0.0267449
-0.0217961
-0.0194734
-0.0178671
-0.015564
-0.0128463
-0.0110719
-0.0101903
-0.0100511
-0.0111671
-0.013312
-0.0160447
-0.019872
-0.0227822
-0.0243204
-0.0254898
-0.0248333
-0.0224629
-0.0183526
-0.0118486
-0.00621971
-0.000184378
0.00425672
0.00761494
0.00969082
0.010895
0.00622778
0.00523802
0.00312003
-0.000456261
-0.00603267
-0.0142425
-0.0262202
-0.0421006
-0.0628916
-0.0808762
-0.0892739
-0.0794338
-0.0542717
-0.0316109
-0.0174699
-0.0129252
-0.0113309
-0.00936995
-0.00510316
0.000918536
0.00651847
0.0102879
0.0119937
0.0112339
0.00836227
0.00322369
-0.00529709
-0.0143572
-0.0237674
-0.0323088
-0.038536
-0.0409881
-0.0389345
-0.0315551
-0.0212474
-0.0100081
-0.00108421
0.00459937
0.0079027
0.00939016
0.00162336
0.000785628
-0.00103815
-0.00397826
-0.00847895
-0.0150828
-0.0245093
-0.0366408
-0.0509383
-0.06221
-0.0645804
-0.0547835
-0.0352259
-0.0197846
-0.0108257
-0.00829297
-0.00753303
-0.00479542
0.00181896
0.0115362
0.0214321
0.0289505
0.0337519
0.0353047
0.0326949
0.0256157
0.01263
-0.00454798
-0.0249307
-0.0457116
-0.0635058
-0.0758138
-0.077842
-0.071254
-0.0554322
-0.0348349
-0.0158025
-0.00323205
0.00341859
0.0062019
-0.00134916
-0.00194297
-0.00323034
-0.00526028
-0.00837287
-0.0128055
-0.0188885
-0.0260869
-0.0333174
-0.0374981
-0.0364955
-0.029408
-0.0192577
-0.0123733
-0.0091265
-0.00770491
-0.00610887
-0.00195311
0.0060735
0.0173123
0.0292289
0.0386577
0.0450408
0.0481527
0.0461633
0.0380999
0.022982
0.000308956
-0.0283366
-0.0600763
-0.0891732
-0.112248
-0.120216
-0.111959
-0.0927209
-0.0635083
-0.0331857
-0.0109626
0.000438391
0.00504405
-0.00338098
-0.00379638
-0.00467984
-0.00611363
-0.0082402
-0.0110079
-0.0142359
-0.0171793
-0.019114
-0.0191098
-0.0172698
-0.0140743
-0.011057
-0.00921609
-0.00856509
-0.00665081
-0.00360415
0.00109577
0.00833469
0.0177603
0.0279071
0.0358098
0.0413509
0.043727
0.0423054
0.0352139
0.020841
-0.00156375
-0.0317703
-0.0685286
-0.10128
-0.129215
-0.139283
-0.126789
-0.107891
-0.0743825
-0.0372905
-0.0085697
0.00579932
0.0114915
-0.00508751
-0.00545438
-0.00620784
-0.00739335
-0.00889196
-0.0104581
-0.0117053
-0.0121617
-0.0116313
-0.0101365
-0.00843848
-0.00695724
-0.0059271
-0.00532372
-0.00460616
-0.002761
-5.63771e-05
0.00334946
0.00791748
0.0135659
0.0195935
0.0243357
0.0276693
0.0285543
0.0267523
0.0205694
0.00852106
-0.0098648
-0.0357132
-0.0669856
-0.0943062
-0.115584
-0.120275
-0.107872
-0.0866096
-0.0553266
-0.0192389
0.00944202
0.0241327
0.0293186
-0.00661141
-0.00697777
-0.00761913
-0.00847459
-0.00938325
-0.0100747
-0.0103792
-0.00974029
-0.0081769
-0.00602806
-0.00366406
-0.00173238
9.91242e-06
0.000978629
0.00161909
0.00228025
0.0029648
0.00375756
0.00506489
0.00690913
0.00891831
0.0103394
0.0108591
0.00958267
0.00648037
0.000154427
-0.0102092
-0.0257364
-0.0457364
-0.0679922
-0.0853681
-0.0945799
-0.0908217
-0.0741614
-0.0511313
-0.0224643
0.00789436
0.0314277
0.043262
0.0488841
-0.0077555
-0.00800893
-0.00855447
-0.00913784
-0.00992313
-0.010317
-0.0101482
-0.00903648
-0.00680384
-0.00366533
0.000447087
0.00395792
0.00689539
0.00829138
0.0083485
0.0073116
0.00549908
0.00356611
0.00190672
0.000573852
-0.000776387
-0.00245418
-0.00501989
-0.00888974
-0.0144239
-0.0223525
-0.034444
-0.0509209
-0.067567
-0.082042
-0.088873
-0.0854069
-0.0716024
-0.0498955
-0.0251594
0.000989177
0.0248819
0.0423217
0.0510877
0.0564165
-0.00845697
-0.00860416
-0.00923763
-0.00996505
-0.010886
-0.0114456
-0.0110565
-0.00915889
-0.00549362
-0.000129362
0.00636361
0.0118109
0.0155003
0.0169085
0.0157142
0.0127428
0.0085811
0.00427761
0.000113417
-0.00392766
-0.00819841
-0.0128344
-0.0184661
-0.0250423
-0.033465
-0.0444094
-0.0609493
-0.0814433
-0.099815
-0.110998
-0.110293
-0.0971834
-0.0740159
-0.0471518
-0.0206868
0.00306834
0.0219499
0.0350538
0.04217
0.0454987
-0.00925336
-0.00974005
-0.0108175
-0.0125501
-0.0135598
-0.013585
-0.011554
-0.00676158
0.000318036
0.00964844
0.0183934
0.0246228
0.0271637
0.0266319
0.0231977
0.0179006
0.0116177
0.00527611
-0.000938162
-0.00727309
-0.0139664
-0.0211074
-0.0291847
-0.0379248
-0.0485115
-0.0620206
-0.0813675
-0.104813
-0.124956
-0.138602
-0.134661
-0.115147
-0.0873904
-0.0581104
-0.0313357
-0.0094989
0.00681497
0.0183529
0.0252705
0.0283515
-0.01254
-0.0142852
-0.0173277
-0.0214093
-0.0224794
-0.0201789
-0.013742
-0.00335816
0.00904244
0.0221196
0.0317684
0.0371617
0.0367512
0.0327779
0.0272356
0.0197187
0.0120867
0.0045245
-0.00278422
-0.0105591
-0.0187764
-0.0273961
-0.0368038
-0.0465316
-0.0576349
-0.0711502
-0.0892189
-0.110921
-0.130241
-0.146048
-0.141835
-0.122051
-0.0961036
-0.0681419
-0.0432335
-0.0234271
-0.00845797
0.00243014
0.00924427
0.0123504
-0.023573
-0.027956
-0.0361429
-0.0429409
-0.0435484
-0.0371329
-0.0235749
-0.00632049
0.0110156
0.0259049
0.035644
0.038969
0.0363952
0.0309158
0.0240813
0.0157716
0.00797964
0.000456291
-0.00679832
-0.0145402
-0.0227865
-0.0316009
-0.0410976
-0.0506132
-0.0606238
-0.0715627
-0.08482
-0.0998574
-0.114844
-0.124173
-0.122708
-0.110041
-0.0904701
-0.0680088
-0.0473735
-0.0304162
-0.0170798
-0.00725887
-0.0010543
0.00178469
-0.0464641
-0.0551461
-0.0685512
-0.0764628
-0.0752897
-0.0629013
-0.0437901
-0.0214727
-0.00154702
0.0138041
0.0226456
0.0248098
0.0224739
0.0173798
0.0114682
0.00464258
-0.00164224
-0.0075162
-0.013233
-0.0193568
-0.0260795
-0.033612
-0.0418789
-0.0502085
-0.0585613
-0.0666176
-0.0748647
-0.0831568
-0.0911752
-0.0957542
-0.0943759
-0.0865618
-0.0735796
-0.0579918
-0.0427089
-0.0293972
-0.0185807
-0.0106204
-0.00550591
-0.00313168
-0.0665916
-0.0793703
-0.0945166
-0.107197
-0.104372
-0.0856174
-0.0668449
-0.0431554
-0.0249186
-0.0113262
-0.00365301
-0.00179604
-0.00306692
-0.00616003
-0.0093839
-0.0127044
-0.0157122
-0.0183822
-0.0211147
-0.0243626
-0.0283765
-0.0333288
-0.0391914
-0.0455254
-0.0520576
-0.058007
-0.0630639
-0.0669467
-0.0697169
-0.0704498
-0.0684903
-0.0632686
-0.0550837
-0.0451064
-0.0345712
-0.0248599
-0.016611
-0.0104916
-0.00647668
-0.0045614
-0.0678328
-0.0825659
-0.0983313
-0.115687
-0.113237
-0.0978462
-0.0831684
-0.0664773
-0.053956
-0.0451644
-0.0398214
-0.0381244
-0.037842
-0.0372754
-0.0360932
-0.033978
-0.0320502
-0.0302801
-0.0290053
-0.0285459
-0.029067
-0.0305945
-0.0332708
-0.0369924
-0.0414339
-0.0459124
-0.0496914
-0.0522226
-0.0534018
-0.0528598
-0.0506141
-0.0465853
-0.041039
-0.0345656
-0.0275055
-0.0205355
-0.0142654
-0.00939322
-0.00607924
-0.0044585
-0.044614
-0.0584141
-0.0768686
-0.0929483
-0.0989798
-0.0978433
-0.0945841
-0.0906187
-0.0882866
-0.0864069
-0.084232
-0.0814257
-0.0783343
-0.072794
-0.0653264
-0.0564308
-0.0483105
-0.0414229
-0.0355688
-0.0309554
-0.0276942
-0.0256104
-0.0247373
-0.0252482
-0.0271598
-0.0301022
-0.0334525
-0.0364688
-0.0384926
-0.0390384
-0.0380032
-0.0356484
-0.0320267
-0.0275044
-0.0225472
-0.0172628
-0.0123941
-0.0082242
-0.00534818
-0.00383669
-0.0112155
-0.0239555
-0.0426072
-0.0633376
-0.0797909
-0.0938253
-0.106389
-0.118078
-0.128432
-0.133623
-0.134021
-0.128785
-0.120274
-0.108505
-0.0933882
-0.0771008
-0.0626295
-0.0505924
-0.0401442
-0.0314286
-0.0245543
-0.0191525
-0.0149083
-0.0120218
-0.0109554
-0.0118949
-0.0144431
-0.0180097
-0.0217183
-0.0248136
-0.0264554
-0.0266561
-0.0252183
-0.0223627
-0.0187446
-0.0144999
-0.010557
-0.00676576
-0.00446424
-0.00273507
0.0154243
0.00191529
-0.0147692
-0.0395366
-0.0651835
-0.0932272
-0.121894
-0.148309
-0.168877
-0.179997
-0.180886
-0.172621
-0.157655
-0.138412
-0.11608
-0.0933433
-0.0737175
-0.0573616
-0.0430349
-0.0308324
-0.0209253
-0.0127568
-0.00571433
8.96591e-05
0.0039779
0.00535934
0.00429302
0.00111917
-0.00353549
-0.00905784
-0.01408