/*--------------------------------*- C++ -*----------------------------------*\
| =========                 |                                                 |
| \\      /  F ield         | OpenFOAM: The Open Source CFD Toolbox           |
|  \\    /   O peration     | Version:  v2106                                 |
|   \\  /    A nd           | Website:  www.openfoam.com                      |
|    \\/     M anipulation  |                                                 |
\*---------------------------------------------------------------------------*/
FoamFile
{
    version     2.0;
    format      ascii;
    arch        "LSB;label=32;scalar=64";
    class       pointVectorField;
    location    "50";
    object      pointDisplacement;
}
// * * * * * * * * * * * * * * * * * * * * * * * * * * * * * * * * * * * * * //

dimensions      [0 1 0 0 0 0 0];

internalField   nonuniform List<vector> 
24440
(
(0 0 0)
(0 0 0)
(0 0 0)
(0 0 0)
(0 0 0)
(0 0 0)
(0 0 0)
(0 0 0)
(0 0 0)
(0 0 0)
(0 0 0)
(0 0 0)
(0 0 0)
(0 0 0)
(0 0 0)
(0 0 0)
(0 0 0)
(0 0 0)
(0 0 0)
(0 0 0)
(0 0 0)
(0 0 0)
(0 0 0)
(0 0 0)
(0 0 0)
(0 0 0)
(0 0 0)
(0 0 0)
(0 0 0)
(0 0 0)
(0 0 0)
(0 0 0)
(0 0 0)
(0 0 0)
(0 0 0)
(0 0 0)
(0 0 0)
(0 0 0)
(0 0 0)
(0 0 0)
(0 0 0)
(0 0 0)
(0 0 0)
(0 0 0)
(0 0 0)
(0 0 0)
(0 0 0)
(0 0 0)
(0 0 0)
(0 0 0)
(0 0 0)
(0 0 0)
(0 0 0)
(0 0 0)
(0 0 0)
(0 0 0)
(0 0 0)
(0 0 0)
(0 0 0)
(0 0 0)
(0 0 0)
(0 0 0)
(0 0 0)
(0 0 0)
(0 0 0)
(0 0 0)
(0 0 0)
(0 0 0)
(0 0 0)
(0 0 0)
(0 0 0)
(0 0 0)
(0 0 0)
(0 0 0)
(0 0 0)
(0 0 0)
(0 0 0)
(0 0 0)
(0 0 0)
(0 0 0)
(0 0 0)
(0 0 0)
(0 0 0)
(0 0 0)
(0 0 0)
(0 0 0)
(0 0 0)
(0 0 0)
(0 0 0)
(0 0 0)
(0 0 0)
(0 0 0)
(0 0 0)
(0 0 0)
(0 0 0)
(0 0 0)
(0 0 0)
(0 0 0)
(-4.41469e-06 1.47112e-05 -5.27356e-16)
(-2.08784e-05 9.277e-05 -3.2474e-15)
(-3.82667e-05 0.000255098 -8.99281e-15)
(-2.94679e-05 0.000393093 -1.39055e-14)
(2.97437e-08 0.00044605 -1.57374e-14)
(2.95141e-05 0.00039309 -1.39055e-14)
(3.82861e-05 0.000255095 -8.99281e-15)
(2.08809e-05 9.27694e-05 -3.2474e-15)
(4.41476e-06 1.47112e-05 -5.27356e-16)
(0 0 0)
(0 0 0)
(0 0 0)
(0 0 0)
(0 0 0)
(0 0 0)
(0 0 0)
(0 0 0)
(0 0 0)
(0 0 0)
(0 0 0)
(0 0 0)
(0 0 0)
(0 0 0)
(0 0 0)
(0 0 0)
(0 0 0)
(0 0 0)
(0 0 0)
(0 0 0)
(0 0 0)
(0 0 0)
(0 0 0)
(0 0 0)
(0 0 0)
(0 0 0)
(0 0 0)
(0 0 0)
(0 0 0)
(-1.29385e-05 2.21236e-05 -8.74301e-16)
(-0.000146691 0.000292664 -1.14908e-14)
(-0.000359661 0.00086132 -3.3834e-14)
(-0.000518103 0.00155165 -6.09651e-14)
(-0.000553882 0.0022133 -8.69721e-14)
(-0.000445674 0.00267451 -1.05083e-13)
(-0.000257651 0.00310319 -1.2193e-13)
(1.76192e-06 0.00325391 -1.27856e-13)
(0.000260855 0.00310292 -1.2193e-13)
(0.000448055 0.00267411 -1.05083e-13)
(0.000555512 0.00221289 -8.69721e-14)
(0.000518904 0.00155138 -6.09651e-14)
(0.000359908 0.000861216 -3.3834e-14)
(0.000146719 0.00029265 -1.14908e-14)
(1.29387e-05 2.21235e-05 -8.74301e-16)
(0 0 0)
(0 0 0)
(0 0 0)
(0 0 0)
(0 0 0)
(0 0 0)
(0 0 0)
(0 0 0)
(0 0 0)
(0 0 0)
(0 0 0)
(0 0 0)
(0 0 0)
(0 0 0)
(0 0 0)
(0 0 0)
(0 0 0)
(0 0 0)
(0 0 0)
(0 0 0)
(0 0 0)
(0 0 0)
(0 0 0)
(0 0 0)
(-6.98445e-06 8.2333e-06 -3.46945e-16)
(-0.000257219 0.000341157 -1.51129e-14)
(-0.00076736 0.00116357 -5.15837e-14)
(-0.00129649 0.00229477 -1.01696e-13)
(-0.00162791 0.00345999 -1.5335e-13)
(-0.00178979 0.00475994 -2.10928e-13)
(-0.00165727 0.00588557 -2.60833e-13)
(-0.00123244 0.00658225 -2.91725e-13)
(-0.000673246 0.0072481 -3.21271e-13)
(1.04916e-05 0.00747749 -3.31457e-13)
(0.000692957 0.00724623 -3.21271e-13)
(0.00124869 0.00657917 -2.91725e-13)
(0.00167026 0.00588188 -2.60833e-13)
(0.00179829 0.00475672 -2.10928e-13)
(0.0016324 0.00345787 -1.5335e-13)
(0.00129847 0.00229364 -1.01696e-13)
(0.000767868 0.00116323 -5.15837e-14)
(0.000257263 0.000341124 -1.51129e-14)
(6.98447e-06 8.23328e-06 -3.46945e-16)
(0 0 0)
(0 0 0)
(0 0 0)
(0 0 0)
(0 0 0)
(0 0 0)
(0 0 0)
(0 0 0)
(0 0 0)
(0 0 0)
(0 0 0)
(0 0 0)
(0 0 0)
(0 0 0)
(0 0 0)
(0 0 0)
(0 0 0)
(0 0 0)
(0 0 0)
(0 0 0)
(0 0 0)
(-7.33784e-05 6.78712e-05 -3.45557e-15)
(-0.000686688 0.000705917 -3.59018e-14)
(-0.00162164 0.00187639 -9.53682e-14)
(-0.00248837 0.00329277 -1.67324e-13)
(-0.0032693 0.00505176 -2.56684e-13)
(-0.00367706 0.00682592 -3.4682e-13)
(-0.00359863 0.00836236 -4.24896e-13)
(-0.0031561 0.00980081 -4.98004e-13)
(-0.00231336 0.0108202 -5.49921e-13)
(-0.00120711 0.0114275 -5.80924e-13)
(2.94651e-05 0.0117044 -5.95135e-13)
(0.00126326 0.0114214 -5.80924e-13)
(0.00236367 0.0108092 -5.49921e-13)
(0.00319736 0.00978736 -4.98004e-13)
(0.00362866 0.0083493 -4.24896e-13)
(0.00369707 0.00681505 -3.4682e-13)
(0.00328026 0.00504461 -2.56684e-13)
(0.00249303 0.00328922 -1.67324e-13)
(0.00162315 0.00187507 -9.53682e-14)
(0.000686902 0.000705707 -3.59018e-14)
(7.76856e-05 7.18508e-05 -3.66374e-15)
(0 0 0)
(0 0 0)
(0 0 0)
(0 0 0)
(0 0 0)
(0 0 0)
(0 0 0)
(0 0 0)
(0 0 0)
(0 0 0)
(0 0 0)
(0 0 0)
(0 0 0)
(0 0 0)
(0 0 0)
(0 0 0)
(0 0 0)
(0 0 0)
(0 0 0)
(-0.00015875 0.000113862 -6.80012e-15)
(-0.00101182 0.000798574 -4.76008e-14)
(-0.00227219 0.00199378 -1.1878e-13)
(-0.00370616 0.00366159 -2.18076e-13)
(-0.00499415 0.00564473 -3.36092e-13)
(-0.005837 0.0077059 -4.58703e-13)
(-0.00604976 0.00959681 -5.71238e-13)
(-0.00573302 0.0113881 -6.77916e-13)
(-0.00530666 0.0120602 -7.18009e-13)
(-0.00481531 0.0127868 -7.61363e-13)
(-0.00419464 0.0133937 -7.97612e-13)
(-0.00346489 0.0138708 -8.26172e-13)
(-0.0026493 0.0142109 -8.46587e-13)
(-0.00177759 0.0144448 -8.607e-13)
(-0.000874807 0.0146605 -8.73759e-13)
(5.46652e-05 0.0147303 -8.78145e-13)
(0.000983052 0.0146536 -8.73759e-13)
(0.00188263 0.0144314 -8.607e-13)
(0.00275092 0.0141914 -8.46587e-13)
(0.00356166 0.0138461 -8.26172e-13)
(0.00428484 0.0133649 -7.97612e-13)
(0.00489749 0.0127553 -7.61363e-13)
(0.00537975 0.0120276 -7.18009e-13)
(0.00579818 0.0113549 -6.77916e-13)
(0.00609602 0.00956731 -5.71238e-13)
(0.00586683 0.00768307 -4.58703e-13)
(0.00501016 0.00563043 -3.36092e-13)
(0.0037129 0.00365471 -2.18076e-13)
(0.00222697 0.00195017 -1.16337e-13)
(0.000914554 0.00072124 -4.30073e-14)
(0.000126856 9.09768e-05 -5.41234e-15)
(0 0 0)
(0 0 0)
(0 0 0)
(0 0 0)
(0 0 0)
(0 0 0)
(0 0 0)
(0 0 0)
(0 0 0)
(0 0 0)
(0 0 0)
(0 0 0)
(0 0 0)
(0 0 0)
(0 0 0)
(0 0 0)
(0 0 0)
(-0.000101864 5.54263e-05 -4.01068e-15)
(-0.00106847 0.000634483 -4.56996e-14)
(-0.00270566 0.00176867 -1.27301e-13)
(-0.00458038 0.00333002 -2.39517e-13)
(-0.00630263 0.00516044 -3.70995e-13)
(-0.00780788 0.00731534 -5.25663e-13)
(-0.00826631 0.00834575 -5.99645e-13)
(-0.00846029 0.00925871 -6.6519e-13)
(-0.00859564 0.0102691 -7.37743e-13)
(-0.00852818 0.0112155 -8.05758e-13)
(-0.0082608 0.0120806 -8.67972e-13)
(-0.00778206 0.0128144 -9.20847e-13)
(-0.00678381 0.0123249 -8.02525e-13)
(-0.00629001 0.0130756 -8.51527e-13)
(-0.00562703 0.0136669 -8.90205e-13)
(-0.00488338 0.0142628 -9.29201e-13)
(-0.00402189 0.014729 -9.59788e-13)
(-0.0030683 0.0150596 -9.8159e-13)
(-0.00205086 0.0152558 -9.94677e-13)
(-0.00100634 0.0154638 -1.00853e-12)
(6.64556e-05 0.0155302 -1.01319e-12)
(0.00113804 0.0154546 -1.00853e-12)
(0.00217896 0.0152379 -9.94677e-13)
(0.00319306 0.0150335 -9.8159e-13)
(0.00414117 0.0146957 -9.59788e-13)
(0.00499517 0.0142238 -9.29201e-13)
(0.00572964 0.0136239 -8.90205e-13)
(0.0063839 0.0130297 -8.51527e-13)
(0.0068672 0.0122783 -8.02525e-13)
(0.00788143 0.0127531 -9.20847e-13)
(0.00834908 0.0120193 -8.67972e-13)
(0.00860426 0.0111568 -8.05758e-13)
(0.00865942 0.0102149 -7.37743e-13)
(0.00851214 0.0092107 -6.6519e-13)
(0.00830844 0.00830348 -5.99645e-13)
(0.00784026 0.00728036 -5.25663e-13)
(0.00631876 0.00514052 -3.70995e-13)
(0.0045871 0.00332069 -2.39517e-13)
(0.00260877 0.00170138 -1.22666e-13)
(0.00102221 0.000606489 -4.37012e-14)
(9.25086e-05 5.03321e-05 -3.60822e-15)
(0 0 0)
(0 0 0)
(0 0 0)
(0 0 0)
(0 0 0)
(0 0 0)
(0 0 0)
(0 0 0)
(0 0 0)
(0 0 0)
(0 0 0)
(0 0 0)
(0 0 0)
(0 0 0)
(0 0 0)
(0 0 0)
(-0.000644486 0.000277706 -2.52576e-14)
(-0.00241392 0.00113566 -1.03223e-13)
(-0.00469019 0.00243002 -2.20685e-13)
(-0.00704036 0.00405832 -3.68233e-13)
(-0.0090458 0.00587395 -5.3256e-13)
(-0.0103891 0.00771965 -6.99538e-13)
(-0.00914441 0.00768169 -6.15744e-13)
(-0.00959584 0.00868644 -6.96151e-13)
(-0.0098371 0.00965293 -7.73534e-13)
(-0.00986071 0.0105624 -8.4642e-13)
(-0.0096432 0.0113695 -9.1116e-13)
(-0.00929625 0.0121874 -9.7683e-13)
(-0.00874511 0.0129088 -1.03485e-12)
(-0.00799635 0.0135034 -1.08276e-12)
(-0.00718477 0.0135365 -9.72916e-13)
(-0.00642507 0.0141434 -1.01677e-12)
(-0.0071283 0.0140629 -1.12794e-12)
(-0.0060982 0.0144636 -1.1605e-12)
(-0.00552534 0.0146247 -1.05166e-12)
(-0.00453906 0.0150641 -1.08355e-12)
(-0.00499809 0.0148614 -1.19288e-12)
(-0.00379968 0.015139 -1.21567e-12)
(-0.00345641 0.0153737 -1.10617e-12)
(-0.00230327 0.0155277 -1.11768e-12)
(-0.00253366 0.0152968 -1.22888e-12)
(-0.00123702 0.0154204 -1.23937e-12)
(-0.00112834 0.0157205 -1.13197e-12)
(7.57116e-05 0.0157809 -1.13673e-12)
(8.11689e-05 0.0154723 -1.2441e-12)
(0.00139812 0.0154065 -1.23937e-12)
(0.0012785 0.015709 -1.13197e-12)
(0.00244966 0.0155051 -1.11768e-12)
(0.00269205 0.0152695 -1.22888e-12)
(0.00395469 0.0150989 -1.21567e-12)
(0.00359981 0.0153405 -1.10617e-12)
(0.00467665 0.0150216 -1.08355e-12)
(0.00514734 0.01481 -1.19288e-12)
(0.00623947 0.0144027 -1.1605e-12)
(0.00565494 0.0145747 -1.05166e-12)
(0.00654621 0.0140873 -1.01677e-12)
(0.00726175 0.0139939 -1.12794e-12)
(0.00811932 0.0134292 -1.08276e-12)
(0.00729569 0.0134766 -9.72916e-13)
(0.00885743 0.0128314 -1.03485e-12)
(0.00939633 0.0121097 -9.7683e-13)
(0.00973028 0.0112944 -9.1116e-13)
(0.00993586 0.0104911 -8.4642e-13)
(0.00989986 0.009588 -7.73534e-13)
(0.00964667 0.00862948 -6.96151e-13)
(0.00918418 0.0076337 -6.15744e-13)
(0.0104345 0.00765771 -6.99538e-13)
(0.00907206 0.00583292 -5.3256e-13)
(0.00696795 0.00398779 -3.63806e-13)
(0.00465762 0.00240214 -2.18936e-13)
(0.00241233 0.00113233 -1.03112e-13)
(0.000700726 0.000301753 -2.74641e-14)
(0 0 0)
(0 0 0)
(0 0 0)
(0 0 0)
(0 0 0)
(0 0 0)
(0 0 0)
(0 0 0)
(0 0 0)
(0 0 0)
(0 0 0)
(0 0 0)
(0 0 0)
(0 0 0)
(0 0 0)
(-0.000152316 4.46349e-05 -5.4956e-15)
(-0.00144438 0.000458877 -5.66214e-14)
(-0.00381583 0.00132435 -1.63175e-13)
(-0.00649775 0.00248479 -3.05714e-13)
(-0.00908631 0.00386737 -4.75217e-13)
(-0.0113711 0.00545403 -6.69367e-13)
(-0.0127218 0.00698284 -8.56412e-13)
(-0.0116388 0.00751879 -7.83651e-13)
(-0.011971 0.00833297 -8.68361e-13)
(-0.010748 0.00860561 -7.79724e-13)
(-0.0110249 0.00956911 -8.66932e-13)
(-0.012058 0.00909758 -9.48006e-13)
(-0.0119781 0.00986395 -1.0279e-12)
(-0.0109944 0.0104161 -9.4369e-13)
(-0.0107299 0.0111887 -1.01374e-12)
(-0.011645 0.0105537 -1.09991e-12)
(-0.0113891 0.0108676 -1.13276e-12)
(-0.0110766 0.0111593 -1.16333e-12)
(-0.0106788 0.0115696 -1.12176e-12)
(-0.0102125 0.0118393 -1.07292e-12)
(-0.00957213 0.0124932 -1.13246e-12)
(-0.00993495 0.0121165 -1.17514e-12)
(-0.00951789 0.0123863 -1.20152e-12)
(-0.00917756 0.0127821 -1.15882e-12)
(-0.00773158 0.0134819 -1.22295e-12)
(-0.00799017 0.0130164 -1.26346e-12)
(-0.00742608 0.0132064 -1.2822e-12)
(-0.00719058 0.0136888 -1.24195e-12)
(-0.00538342 0.014141 -1.28389e-12)
(-0.00555251 0.0136216 -1.32352e-12)
(-0.00488457 0.0137194 -1.33339e-12)
(-0.00474489 0.0142719 -1.29609e-12)
(-0.00272298 0.0145074 -1.31854e-12)
(-0.00280131 0.0139278 -1.35483e-12)
(-0.00208878 0.0139768 -1.36004e-12)
(-0.00203095 0.0145695 -1.32455e-12)
(8.20128e-05 0.0146286 -1.33099e-12)
(8.06103e-05 0.0140226 -1.36571e-12)
(0.000805856 0.0140076 -1.36466e-12)
(0.000788771 0.0146124 -1.32988e-12)
(0.00288395 0.014476 -1.31854e-12)
(0.00295997 0.0138946 -1.35483e-12)
(0.00366657 0.0138404 -1.34993e-12)
(0.00357051 0.0144156 -1.31339e-12)
(0.00553605 0.0140814 -1.28389e-12)
(0.00570393 0.0135582 -1.32352e-12)
(0.00635192 0.0134385 -1.31219e-12)
(0.00616339 0.0139548 -1.27263e-12)
(0.00787006 0.0134008 -1.22295e-12)
(0.00812816 0.0129298 -1.26346e-12)
(0.00868362 0.0127575 -1.24689e-12)
(0.00836926 0.0131628 -1.20146e-12)
(0.00969088 0.0124004 -1.13246e-12)
(0.0100543 0.0120166 -1.17514e-12)
(0.0104161 0.0117206 -1.14635e-12)
(0.0100309 0.012085 -1.10378e-12)
(0.010825 0.0110957 -1.01374e-12)
(0.0117421 0.0104443 -1.09991e-12)
(0.012063 0.00975886 -1.0279e-12)
(0.0110768 0.0103276 -9.4369e-13)
(0.0110945 0.00948757 -8.66932e-13)
(0.0121302 0.00900007 -9.48006e-13)
(0.0120316 0.00824434 -8.68361e-13)
(0.0108043 0.00853415 -7.79724e-13)
(0.0116881 0.00744106 -7.83651e-13)
(0.012714 0.00685916 -8.52568e-13)
(0.0113937 0.00538551 -6.68951e-13)
(0.00924849 0.00389205 -4.82878e-13)
(0.00644946 0.00244723 -3.03188e-13)
(0.00378046 0.00130624 -1.61607e-13)
(0.001517 0.000481127 -5.94386e-14)
(0.000174184 5.10336e-05 -6.28664e-15)
(0 0 0)
(0 0 0)
(0 0 0)
(0 0 0)
(0 0 0)
(0 0 0)
(0 0 0)
(0 0 0)
(0 0 0)
(0 0 0)
(0 0 0)
(0 0 0)
(0 0 0)
(0 0 0)
(-0.000498339 9.39268e-05 -1.80272e-14)
(-0.00232797 0.000476079 -9.12326e-14)
(-0.00501326 0.00112102 -2.14384e-13)
(-0.00800665 0.00197458 -3.76699e-13)
(-0.0107915 0.00296452 -5.64285e-13)
(-0.0130952 0.004056 -7.70606e-13)
(-0.0143154 0.00507453 -9.6316e-13)
(-0.0136051 0.00614536 -9.15643e-13)
(-0.0138791 0.0067547 -1.00628e-12)
(-0.0130246 0.00770307 -9.44619e-13)
(-0.0130652 0.00837466 -1.02694e-12)
(-0.0138765 0.00731881 -1.09029e-12)
(-0.0136001 0.00782692 -1.16619e-12)
(-0.012845 0.00898524 -1.1019e-12)
(-0.0123747 0.00952461 -1.16834e-12)
(-0.0127422 0.0089375 -1.20276e-12)
(-0.0123995 0.00915565 -1.23236e-12)
(-0.012098 0.0098034 -1.20273e-12)
(-0.0108841 0.0104784 -1.28635e-12)
(-0.0110065 0.0101249 -1.30057e-12)
(-0.0107545 0.0102129 -1.3121e-12)
(-0.0106369 0.0105717 -1.29799e-12)
(-0.00862303 0.0110793 -1.36173e-12)
(-0.0086975 0.0106761 -1.37314e-12)
(-0.00837708 0.0107316 -1.38052e-12)
(-0.00830702 0.0111395 -1.36938e-12)
(-0.0059131 0.011426 -1.40636e-12)
(-0.00595062 0.0109822 -1.41465e-12)
(-0.00558927 0.0110092 -1.41842e-12)
(-0.00555371 0.0114539 -1.41007e-12)
(-0.00296236 0.0115661 -1.42591e-12)
(-0.00297773 0.0110976 -1.43201e-12)
(-0.00259868 0.0111018 -1.43288e-12)
(-0.00258523 0.0115721 -1.42694e-12)
(6.9599e-05 0.0115873 -1.43094e-12)
(6.69033e-05 0.0111073 -1.4358e-12)
(0.000448391 0.0111043 -1.43574e-12)
(0.000449797 0.0115841 -1.43079e-12)
(0.0031006 0.0115294 -1.42591e-12)
(0.00311084 0.0110605 -1.43201e-12)
(0.00348847 0.0110491 -1.43079e-12)
(0.00347605 0.0115157 -1.42449e-12)
(0.00604759 0.0113545 -1.40636e-12)
(0.00608054 0.0109098 -1.41465e-12)
(0.00644201 0.0108834 -1.4115e-12)
(0.00640082 0.0113164 -1.40191e-12)
(0.00874912 0.0109787 -1.36173e-12)
(0.00881991 0.0105738 -1.37314e-12)
(0.00914153 0.0105224 -1.3667e-12)
(0.00905515 0.0109101 -1.35342e-12)
(0.0109966 0.0103587 -1.28635e-12)
(0.0111164 0.0100026 -1.30057e-12)
(0.0112256 0.0096273 -1.3136e-12)
(0.0116979 0.00944302 -1.28883e-12)
(0.0114501 0.0101529 -1.26109e-12)
(0.0124675 0.00940119 -1.16834e-12)
(0.0128317 0.00880669 -1.20276e-12)
(0.013147 0.00813277 -1.23264e-12)
(0.0136759 0.00769164 -1.16619e-12)
(0.0129276 0.00886446 -1.1019e-12)
(0.0131369 0.00826023 -1.02694e-12)
(0.0139107 0.00717354 -1.08782e-12)
(0.0139265 0.00663143 -1.00564e-12)
(0.0130853 0.00759819 -9.44619e-13)
(0.0136681 0.00604639 -9.16767e-13)
(0.0143982 0.0049716 -9.66033e-13)
(0.0130879 0.00396022 -7.68677e-13)
(0.010913 0.00294145 -5.69919e-13)
(0.00809686 0.00196922 -3.80654e-13)
(0.00507336 0.00112471 -2.16882e-13)
(0.00236155 0.000481027 -9.25232e-14)
(0.000510647 9.61647e-05 -1.84575e-14)
(0 0 0)
(0 0 0)
(0 0 0)
(0 0 0)
(0 0 0)
(0 0 0)
(0 0 0)
(0 0 0)
(0 0 0)
(0 0 0)
(0 0 0)
(0 0 0)
(0 0 0)
(0 0 0)
(-0.000768429 6.44744e-05 -2.77972e-14)
(-0.00289208 0.000263911 -1.13354e-13)
(-0.00583365 0.000583887 -2.49425e-13)
(-0.00902609 0.000999613 -4.24591e-13)
(-0.0119378 0.00147688 -6.24015e-13)
(-0.0141288 0.00197449 -8.31002e-13)
(-0.0152934 0.00244812 -1.02819e-12)
(-0.014924 0.00383968 -1.00374e-12)
(-0.0150964 0.00418437 -1.09364e-12)
(-0.0145142 0.00554303 -1.05192e-12)
(-0.0144302 0.00597149 -1.1333e-12)
(-0.0149756 0.00449712 -1.17553e-12)
(-0.0145685 0.00477154 -1.24785e-12)
(-0.0141525 0.00638962 -1.21292e-12)
(-0.0135591 0.0067331 -1.27873e-12)
(-0.0137361 0.00588346 -1.29502e-12)
(-0.0133324 0.00600987 -1.32332e-12)
(-0.0131676 0.00688204 -1.30744e-12)
(-0.0116586 0.0072322 -1.37564e-12)
(-0.011725 0.0067721 -1.38316e-12)
(-0.0114267 0.00681183 -1.39162e-12)
(-0.0113643 0.00727626 -1.38435e-12)
(-0.00906381 0.00749117 -1.42791e-12)
(-0.00908981 0.00699287 -1.43156e-12)
(-0.00872762 0.00700542 -1.43456e-12)
(-0.00870516 0.00750708 -1.43137e-12)
(-0.00607888 0.00753705 0)
(-0.00608027 0.00727654 0)
(-0.00588853 0.00727493 0)
(-0.00588722 0.00753553 0)
(-0.00301096 0.00750507 0)
(-0.00301144 0.00724273 0)
(-0.00282004 0.00724022 0)
(-0.00281954 0.00750266 0)
(4.47926e-05 0.00746312 0)
(4.31538e-05 0.00719557 0)
(0.000233916 0.00719657 0)
(0.000235632 0.00746326 0)
(0.00310083 0.00746764 0)
(0.00309809 0.00720531 0)
(0.00328948 0.00720526 0)
(0.00329229 0.00746758 0)
(0.00616893 0.00746203 0)
(0.00616711 0.00720153 0)
(0.00635881 0.00720071 0)
(0.00636054 0.00746113 0)
(0.00915231 0.00738055 -1.42791e-12)
(0.00917245 0.00688169 -1.43156e-12)
(0.00952621 0.00686039 -1.42755e-12)
(0.009504 0.00735698 -1.42376e-12)
(0.0117408 0.00709531 -1.37564e-12)
(0.0118022 0.00663371 -1.38317e-12)
(0.0118541 0.0061619 -1.38958e-12)
(0.0124147 0.00607175 -1.36997e-12)
(0.0122928 0.00699052 -1.35594e-12)
(0.0136221 0.00658146 -1.27798e-12)
(0.0138188 0.00574007 -1.29688e-12)
(0.0139675 0.00485508 -1.31128e-12)
(0.0145966 0.00461037 -1.2461e-12)
(0.014229 0.00624878 -1.214e-12)
(0.0145687 0.00586496 -1.13974e-12)
(0.0149999 0.00434187 -1.17407e-12)
(0.0151175 0.00403956 -1.0925e-12)
(0.0146267 0.0054366 -1.05659e-12)
(0.0149426 0.00370904 -1.00291e-12)
(0.0153209 0.00231541 -1.02873e-12)
(0.014136 0.00187383 -8.30655e-13)
(0.0119262 0.00141131 -6.23043e-13)
(0.00900052 0.000963962 -4.23217e-13)
(0.00580159 0.00056829 -2.48024e-13)
(0.00286234 0.00025843 -1.1216e-13)
(0.000749996 6.27513e-05 -2.71311e-14)
(0 0 0)
(0 0 0)
(0 0 0)
(0 0 0)
(0 0 0)
(0 0 0)
(0 0 0)
(0 0 0)
(0 0 0)
(0 0 0)
(0 0 0)
(0 0 0)
(0 0 0)
(0 0 0)
(-0.000814718 -1.68686e-05 -2.94625e-14)
(-0.0029847 -6.58675e-05 -1.16976e-13)
(-0.00596802 -0.000140438 -2.55157e-13)
(-0.00919461 -0.000232063 -4.32404e-13)
(-0.0121303 -0.000332252 -6.33812e-13)
(-0.0143331 -0.000433748 -8.42493e-13)
(-0.0154956 -0.000530744 -1.04092e-12)
(-0.0154944 0.000974602 -1.04126e-12)
(-0.0156304 0.00105949 -1.13123e-12)
(-0.0154385 0.00266245 -1.1179e-12)
(-0.0152853 0.00285528 -1.19919e-12)
(-0.0154644 0.00113478 -1.21257e-12)
(-0.0150039 0.00119863 -1.28347e-12)
(-0.0148414 0.00302243 -1.27039e-12)
(-0.0141482 0.00316596 -1.33241e-12)
(-0.0142172 0.00221301 -1.33839e-12)
(-0.0137563 0.00225143 -1.36323e-12)
(-0.0136962 0.0032238 -1.35783e-12)
(-0.0120065 0.00334681 -1.41392e-12)
(-0.0120291 0.00284049 -1.41621e-12)
(-0.0117031 0.00285082 -1.42239e-12)
(-0.0116825 0.00335978 -1.42024e-12)
(-0.00916776 0.00339196 0)
(-0.00916925 0.00313162 0)
(-0.00897765 0.0031304 0)
(-0.00897614 0.00339073 0)
(-0.00608494 0.00336384 0)
(-0.00608376 0.00310274 0)
(-0.00589072 0.00310012 0)
(-0.00589104 0.00323047 0)
(-0.005892 0.00336138 0)
(0.00612386 0.00328905 0)
(0.00611948 0.00302798 0)
(0.00631279 0.0030281 0)
(0.00631693 0.00328903 0)
(0.00920681 0.00327941 0)
(0.00920514 0.00301907 0)
(0.00920355 0.00275875 0)
(0.00939515 0.00275764 0)
(0.00958629 0.00275638 -1.44036e-12)
(0.00958814 0.00327654 -1.44017e-12)
(0.0120441 0.0032022 -1.41392e-12)
(0.0120607 0.0026954 -1.41621e-12)
(0.0120706 0.00218577 -1.41777e-12)
(0.0126938 0.00215984 -1.40335e-12)
(0.0126538 0.00316312 -1.39828e-12)
(0.0141807 0.00300526 -1.33232e-12)
(0.0142408 0.00205117 -1.33846e-12)
(0.0142782 0.00108658 -1.34251e-12)
(0.0150147 0.00103479 -1.28347e-12)
(0.0148934 0.00286594 -1.27225e-12)
(0.0153306 0.00270237 -1.20062e-12)
(0.0154349 0.000972991 -1.20948e-12)
(0.0155902 0.000906472 -1.12775e-12)
(0.0154755 0.00251768 -1.1189e-12)
(0.0154436 0.000834483 -1.03738e-12)
(0.0154547 -0.000666252 -1.03859e-12)
(0.0142849 -0.000534631 -8.39911e-13)
(0.0120777 -0.000395852 -6.31203e-13)
(0.00914158 -0.000264279 -4.29975e-13)
(0.00591984 -0.000152109 -2.53131e-13)
(0.00294721 -6.79559e-05 -1.15505e-13)
(0.000793718 -1.66304e-05 -2.87131e-14)
(0 0 0)
(0 0 0)
(0 0 0)
(0 0 0)
(0 0 0)
(0 0 0)
(0 0 0)
(0 0 0)
(0 0 0)
(0 0 0)
(0 0 0)
(0 0 0)
(0 0 0)
(0 0 0)
(-0.00066582 -8.34549e-05 -2.40918e-14)
(-0.0026862 -0.000363828 -1.05277e-13)
(-0.00554022 -0.000815654 -2.36838e-13)
(-0.00866833 -0.0013982 -4.07563e-13)
(-0.0115445 -0.00206127 -6.03004e-13)
(-0.0137317 -0.0027501 -8.06688e-13)
(-0.0149243 -0.00340986 -1.00173e-12)
(-0.0153376 -0.00201483 -1.02986e-12)
(-0.0154861 -0.00218989 -1.11967e-12)
(-0.0156342 -0.000575999 -1.13096e-12)
(-0.0154706 -0.000618293 -1.21234e-12)
(-0.0153355 -0.00234982 -1.20104e-12)
(-0.0148934 -0.00249161 -1.27233e-12)
(-0.0150125 -0.000657002 -1.28331e-12)
(-0.0142769 -0.000691461 -1.34245e-12)
(-0.0142488 -0.00165821 -1.33928e-12)
(-0.0137882 -0.00169165 -1.36413e-12)
(-0.0138129 -0.000706878 -1.36714e-12)
(-0.0120852 -0.000744792 -1.42029e-12)
(-0.0120819 -0.00125754 -1.41955e-12)
(-0.011752 -0.00126463 -1.42528e-12)
(-0.0117545 -0.000749775 -1.42597e-12)
(-0.00919289 -0.000772985 0)
(-0.00919452 -0.00103329 0)
(-0.0090027 -0.00103442 0)
(-0.00900103 -0.000774122 0)
(-0.00612274 -0.000790472 0)
(-0.00611354 -0.000918631 0)
(-0.00603175 -0.000916571 0)
(-0.00605177 -0.000796499 0)
(0.00611076 -0.000865411 0)
(0.00609999 -0.000993447 0)
(0.00619516 -0.000993998 0)
(0.00620082 -0.000865147 0)
(0.00918103 -0.000885537 0)
(0.00917946 -0.00114584 0)
(0.00937113 -0.00114705 0)
(0.00937272 -0.000886736 0)
(0.0120735 -0.000890709 -1.42029e-12)
(0.0120588 -0.00140266 -1.41892e-12)
(0.0120494 -0.0019145 -1.41819e-12)
(0.0126736 -0.00189882 -1.40379e-12)
(0.0126944 -0.000885107 -1.40542e-12)
(0.0142532 -0.000853541 -1.34119e-12)
(0.0142263 -0.00182026 -1.33918e-12)
(0.014156 -0.00277529 -1.33306e-12)
(0.0148743 -0.00265448 -1.27319e-12)
(0.0149846 -0.000819706 -1.28178e-12)
(0.0154384 -0.000776452 -1.21049e-12)
(0.0153175 -0.00250771 -1.20172e-12)
(0.0154686 -0.00233808 -1.12003e-12)
(0.0155975 -0.000724847 -1.12881e-12)
(0.0153202 -0.00214936 -1.02998e-12)
(0.0149316 -0.00354603 -1.00424e-12)
(0.0137437 -0.00285095 -8.08562e-13)
(0.0115568 -0.0021248 -6.04211e-13)
(0.00867758 -0.00143062 -4.08243e-13)
(0.00554477 -0.000827752 -2.37102e-13)
(0.00268653 -0.000366324 -1.05291e-13)
(0.000664349 -8.34087e-05 -2.40225e-14)
(0 0 0)
(0 0 0)
(0 0 0)
(0 0 0)
(0 0 0)
(0 0 0)
(0 0 0)
(0 0 0)
(0 0 0)
(0 0 0)
(0 0 0)
(0 0 0)
(0 0 0)
(0 0 0)
(-0.000336761 -7.74573e-05 -1.22125e-14)
(-0.00195269 -0.000485998 -7.65082e-14)
(-0.00445279 -0.0012068 -1.90334e-13)
(-0.00730491 -0.00217312 -3.43406e-13)
(-0.0102246 -0.00337196 -5.33878e-13)
(-0.0124096 -0.00459544 -7.28681e-13)
(-0.0136967 -0.00578865 -9.18696e-13)
(-0.0144434 -0.00470191 -9.69086e-13)
(-0.0146619 -0.00513795 -1.05917e-12)
(-0.0150948 -0.00371267 -1.09088e-12)
(-0.0150421 -0.00400748 -1.17743e-12)
(-0.0145941 -0.00553921 -1.14177e-12)
(-0.0142453 -0.00589837 -1.21544e-12)
(-0.0146515 -0.00425944 -1.25083e-12)
(-0.013987 -0.00447547 -1.31319e-12)
(-0.0138327 -0.00536396 -1.29827e-12)
(-0.0134176 -0.00547826 -1.32536e-12)
(-0.0135593 -0.00456879 -1.33986e-12)
(-0.0119427 -0.00478591 -1.4007e-12)
(-0.0119094 -0.00527636 -1.39647e-12)
(-0.0116023 -0.0053074 -1.40418e-12)
(-0.0116368 -0.00481513 -1.40872e-12)
(-0.00920797 -0.00493223 -1.43868e-12)
(-0.00920172 -0.00544674 -1.43721e-12)
(-0.00883046 -0.00545562 -1.43897e-12)
(-0.00883282 -0.00493857 -1.4399e-12)
(-0.00615024 -0.00495236 0)
(-0.00615276 -0.00521308 0)
(-0.00596061 -0.00521338 0)
(-0.00595816 -0.00495272 0)
(0.00608728 -0.00502733 0)
(0.00608659 -0.00528805 0)
(0.00627867 -0.00528996 0)
(0.00627935 -0.00502924 0)
(0.00914509 -0.00504453 -1.43868e-12)
(0.00913125 -0.00555795 -1.43698e-12)
(0.00949782 -0.00555118 -1.43466e-12)
(0.00951476 -0.00504003 -1.43674e-12)
(0.0118831 -0.00492783 -1.4007e-12)
(0.0118441 -0.00541743 -1.39647e-12)
(0.0117923 -0.00589739 -1.39068e-12)
(0.0123669 -0.00582306 -1.37236e-12)
(0.0124744 -0.00487138 -1.38367e-12)
(0.0139346 -0.0046314 -1.31319e-12)
(0.0137712 -0.00551636 -1.29827e-12)
(0.0135865 -0.00636954 -1.28129e-12)
(0.0141823 -0.00604531 -1.21544e-12)
(0.014604 -0.00441506 -1.25083e-12)
(0.014972 -0.00415002 -1.17523e-12)
(0.0145385 -0.00568067 -1.14177e-12)
(0.014614 -0.00526981 -1.05917e-12)
(0.0150981 -0.00386285 -1.09372e-12)
(0.0144033 -0.00482079 -9.69086e-13)
(0.0136503 -0.00589549 -9.18696e-13)
(0.0123804 -0.00467225 -7.28681e-13)
(0.0100775 -0.003374 -5.27023e-13)
(0.00737014 -0.00221612 -3.46764e-13)
(0.00450256 -0.00122817 -1.92568e-13)
(0.00198328 -0.000494995 -7.77434e-14)
(0.00034807 -8.00971e-05 -1.25872e-14)
(0 0 0)
(0 0 0)
(0 0 0)
(0 0 0)
(0 0 0)
(0 0 0)
(0 0 0)
(0 0 0)
(0 0 0)
(0 0 0)
(0 0 0)
(0 0 0)
(0 0 0)
(0 0 0)
(-4.16688e-05 -1.39453e-05 -1.4988e-15)
(-0.00114186 -0.000413753 -4.47281e-14)
(-0.00318785 -0.00125874 -1.36266e-13)
(-0.00570027 -0.00247233 -2.67952e-13)
(-0.00819332 -0.00394242 -4.27755e-13)
(-0.0102494 -0.00554009 -6.01699e-13)
(-0.0116965 -0.00721571 -7.84234e-13)
(-0.0127265 -0.0066148 -8.53415e-13)
(-0.0131073 -0.00733256 -9.46201e-13)
(-0.013946 -0.00634444 -1.00707e-12)
(-0.013977 -0.00688588 -1.093e-12)
(-0.0131432 -0.00796202 -1.02747e-12)
(-0.0130082 -0.00859318 -1.10879e-12)
(-0.0136938 -0.00735824 -1.16779e-12)
(-0.0131871 -0.00779372 -1.23647e-12)
(-0.012897 -0.00849559 -1.20892e-12)
(-0.012563 -0.00871056 -1.23923e-12)
(-0.012836 -0.00798538 -1.26657e-12)
(-0.0114484 -0.00845807 -1.34029e-12)
(-0.0113459 -0.00886129 -1.32803e-12)
(-0.0110857 -0.00893719 -1.33918e-12)
(-0.0111676 -0.00851696 -1.34935e-12)
(-0.00901908 -0.00888369 -1.40545e-12)
(-0.00897002 -0.00933812 -1.3974e-12)
(-0.00863509 -0.00937945 -1.40325e-12)
(-0.00868003 -0.00892096 -1.411e-12)
(-0.00615649 -0.00908469 -1.43456e-12)
(-0.00614024 -0.0095733 -1.43006e-12)
(-0.00576813 -0.00958866 -1.43204e-12)
(-0.00578154 -0.00909682 -1.43617e-12)
(-0.00311802 -0.00913697 -1.44043e-12)
(-0.00311996 -0.00965343 -1.43961e-12)
(-0.00273797 -0.00965759 -1.43993e-12)
(-0.00273516 -0.00913879 0)
(-0.00292651 -0.0091377 0)
(-5.69989e-05 -0.00915439 0)
(-5.85993e-05 -0.00941564 0)
(0.000132702 -0.00941682 0)
(0.000134278 -0.00915557 0)
(0.003004 -0.00917447 -1.44043e-12)
(0.00299969 -0.0096909 -1.43961e-12)
(0.00338134 -0.00969065 -1.43918e-12)
(0.00338681 -0.0091771 -1.44039e-12)
(0.00319537 -0.00917575 -1.44042e-12)
(0.00604336 -0.00915912 -1.43456e-12)
(0.00602153 -0.00964726 -1.43006e-12)
(0.00639083 -0.00963313 -1.42764e-12)
(0.00641567 -0.0091485 -1.43253e-12)
(0.00891049 -0.00899085 -1.40545e-12)
(0.00885667 -0.00944405 -1.3974e-12)
(0.009185 -0.00940166 -1.39082e-12)
(0.00924288 -0.00895274 -1.39919e-12)
(0.011358 -0.00859439 -1.34129e-12)
(0.0112603 -0.00900244 -1.33002e-12)
(0.0111436 -0.00938607 -1.31649e-12)
(0.011643 -0.0092293 -1.2941e-12)
(0.0118662 -0.00845089 -1.31843e-12)
(0.0130672 -0.00790999 -1.23306e-12)
(0.0127928 -0.00861766 -1.20751e-12)
(0.0124735 -0.00925447 -1.17768e-12)
(0.0129078 -0.00870341 -1.10729e-12)
(0.0136189 -0.00749388 -1.16779e-12)
(0.0139113 -0.00701551 -1.093e-12)
(0.0130722 -0.00807656 -1.02747e-12)
(0.0130471 -0.00743781 -9.46201e-13)
(0.0138903 -0.00646365 -1.00707e-12)
(0.0126775 -0.006707 -8.53415e-13)
(0.0116475 -0.00729356 -7.84234e-13)
(0.0102206 -0.00559247 -6.01699e-13)
(0.00817876 -0.0039722 -4.27755e-13)
(0.00569456 -0.00248532 -2.67952e-13)
(0.00318637 -0.00126243 -1.36266e-13)
(0.00106498 -0.000386341 -4.17305e-14)
(5.00515e-05 -1.67515e-05 -1.80411e-15)
(0 0 0)
(0 0 0)
(0 0 0)
(0 0 0)
(0 0 0)
(0 0 0)
(0 0 0)
(0 0 0)
(0 0 0)
(0 0 0)
(0 0 0)
(0 0 0)
(0 0 0)
(0 0 0)
(0 0 0)
(-0.00035096 -0.000166996 -1.37529e-14)
(-0.00169553 -0.000879594 -7.24559e-14)
(-0.00362748 -0.00206809 -1.7053e-13)
(-0.00570113 -0.00360741 -2.97679e-13)
(-0.0077767 -0.00552856 -4.56551e-13)
(-0.00925991 -0.00751372 -6.20795e-13)
(-0.0104155 -0.0074385 -6.98289e-13)
(-0.010943 -0.00841074 -7.89716e-13)
(-0.012025 -0.0079846 -8.67903e-13)
(-0.0121898 -0.00876378 -9.52668e-13)
(-0.0111599 -0.00928661 -8.72039e-13)
(-0.0111392 -0.0101063 -9.49005e-13)
(-0.0121149 -0.00949703 -1.03235e-12)
(-0.0117905 -0.0101622 -1.10446e-12)
(-0.0108836 -0.0108556 -1.01927e-12)
(-0.0103684 -0.0114844 -1.07805e-12)
(-0.0108367 -0.0111877 -1.12688e-12)
(-0.0112293 -0.010749 -1.16794e-12)
(-0.0115383 -0.0104659 -1.13735e-12)
(-0.010457 -0.0112554 -1.22252e-12)
(-0.0100943 -0.0117172 -1.17985e-12)
(-0.00968014 -0.0119813 -1.20622e-12)
(-0.010002 -0.01148 -1.24667e-12)
(-0.00840551 -0.0120453 -1.30709e-12)
(-0.00817333 -0.0126278 -1.2705e-12)
(-0.00758515 -0.0127765 -1.28512e-12)
(-0.00780577 -0.0121959 -1.32309e-12)
(-0.00585965 -0.0125533 -1.36063e-12)
(-0.00572373 -0.0132151 -1.3282e-12)
(-0.00505423 -0.0133137 -1.33772e-12)
(-0.00517078 -0.0126402 -1.36963e-12)
(-0.00302863 -0.012826 -1.38839e-12)
(-0.00296747 -0.0135322 -1.3585e-12)
(-0.0022544 -0.0135889 -1.36377e-12)
(-0.0022969 -0.0128642 -1.39207e-12)
(-7.76415e-05 -0.0129228 -1.39704e-12)
(-8.03665e-05 -0.0136574 -1.36936e-12)
(0.000646917 -0.0136473 -1.36793e-12)
(0.000664428 -0.0129167 -1.39588e-12)
(0.00287525 -0.0128609 -1.38839e-12)
(0.00280928 -0.0135655 -1.3585e-12)
(0.00351236 -0.0134948 -1.35099e-12)
(0.00359858 -0.0128117 -1.38263e-12)
(0.00571234 -0.0126203 -1.36063e-12)
(0.00557251 -0.0132789 -1.3282e-12)
(0.00622294 -0.0131637 -1.31629e-12)
(0.00638264 -0.0125192 -1.3493e-12)
(0.00826957 -0.012138 -1.30709e-12)
(0.00803497 -0.0127154 -1.2705e-12)
(0.00858161 -0.0125289 -1.25158e-12)
(0.00883832 -0.0119691 -1.28857e-12)
(0.0103381 -0.0113635 -1.22252e-12)
(0.00997494 -0.0118179 -1.17985e-12)
(0.0103807 -0.0115718 -1.15506e-12)
(0.0107522 -0.0111205 -1.19617e-12)
(0.0116934 -0.0102725 -1.10446e-12)
(0.0107881 -0.0109496 -1.01927e-12)
(0.0110565 -0.0101959 -9.49005e-13)
(0.0120301 -0.00960303 -1.03235e-12)
(0.0121176 -0.00886225 -9.52668e-13)
(0.01109 -0.00936912 -8.72039e-13)
(0.0108857 -0.00848405 -7.89716e-13)
(0.011965 -0.00807315 -8.67903e-13)
(0.0103707 -0.00750022 -6.98289e-13)