/*--------------------------------*- C++ -*----------------------------------*\
| =========                 |                                                 |
| \\      /  F ield         | OpenFOAM: The Open Source CFD Toolbox           |
|  \\    /   O peration     | Version:  v2106                                 |
|   \\  /    A nd           | Website:  www.openfoam.com                      |
|    \\/     M anipulation  |                                                 |
\*---------------------------------------------------------------------------*/
FoamFile
{
    version     2.0;
    format      ascii;
    arch        "LSB;label=32;scalar=64";
    class       volVectorField;
    location    "50";
    object      U;
}
// * * * * * * * * * * * * * * * * * * * * * * * * * * * * * * * * * * * * * //

dimensions      [0 1 -1 0 0 0 0];

internalField   nonuniform List<vector> 
11644
(
(1 -0.000145855 0)
(0.999997 -0.000436851 0)
(0.999998 -0.000728159 0)
(1 -0.00102038 0)
(1.00001 -0.0013091 0)
(1.00003 -0.0015918 0)
(1.00004 -0.00185446 0)
(1.00003 -0.00207963 0)
(1.00003 -0.0022742 0)
(1.00003 -0.00224445 0)
(1.00005 -0.00243384 0)
(1.00016 -0.00162805 0)
(1.00013 -0.00235012 0)
(1.00147 -0.000477266 0)
(1.0002 -0.00225664 0)
(0.999719 -0.00120674 0)
(0.999964 -0.00173947 0)
(0.999886 -0.000674814 0)
(0.999826 -0.000138057 0)
(0.999914 0.000966384 2.07797e-31)
(0.99991 0.00185378 -2.07797e-31)
(0.999828 0.00283449 0)
(0.999904 0.00330211 0)
(0.999905 0.00406237 0)
(0.999692 0.00347721 0)
(0.999957 0.00429687 0)
(1.00124 0.002475 0)
(1.00057 0.00411874 0)
(1.00026 0.00313859 0)
(1.00006 0.00365776 0)
(1.00004 0.00328934 0)
(1.00004 0.00310574 0)
(1.00002 0.00274897 0)
(0.999995 0.0023681 0)
(0.999993 0.00197907 0)
(0.999995 0.00159365 0)
(0.999999 0.00122143 0)
(1 0.000862437 0)
(1 0.000514114 0)
(1.00001 0.000171492 0)
(1.00078 -0.000429587 0)
(1.00078 -0.00128657 0)
(1.00079 -0.00214301 0)
(1.0008 -0.00300281 0)
(1.00079 -0.00386355 0)
(1.00076 -0.00471316 0)
(1.00072 -0.00555307 0)
(1.00066 -0.00635584 0)
(1.00055 -0.00718496 0)
(1.00046 -0.00797987 0)
(1.00007 -0.00867011 0)
(0.999906 -0.0100152 0)
(0.999446 -0.00914511 0)
(0.997951 -0.0117933 0)
(0.999521 -0.00741415 0)
(0.999251 -0.0071944 -6.96083e-24)
(0.998529 -0.00393086 6.96016e-24)
(0.99787 -0.00226156 1.15707e-22)
(0.99773 0.000376676 -1.15714e-22)
(0.99743 0.00273382 -2.21346e-22)
(0.997553 0.00527125 2.36007e-22)
(0.998001 0.00752556 0)
(0.998375 0.00974142 0)
(0.999027 0.0112206 0)
(0.999738 0.0135281 -1.43005e-24)
(1.00021 0.0133457 0)
(0.998694 0.0161662 0)
(0.999606 0.0131727 0)
(1.00047 0.0134777 0)
(1.00066 0.0116328 0)
(1.00093 0.010408 0)
(1.00102 0.00924098 0)
(1.00108 0.0080612 0)
(1.0011 0.00692375 0)
(1.00107 0.00579861 0)
(1.00103 0.00468941 0)
(1.00099 0.0036081 0)
(1.00095 0.00255125 0)
(1.00092 0.00152246 0)
(1.00092 0.000506373 0)
(1.00231 -0.000727307 0)
(1.00231 -0.00218293 0)
(1.00233 -0.00364805 0)
(1.00235 -0.00513508 0)
(1.00238 -0.00663894 0)
(1.0024 -0.00815375 0)
(1.00237 -0.00965292 0)
(1.00227 -0.0111111 0)
(1.00206 -0.0124421 0)
(1.00164 -0.0134512 0)
(1.00109 -0.0143756 0)
(1.00072 -0.0139328 0)
(1.00007 -0.0152678 0)
(1.00047 -0.0116561 -1.04919e-22)
(0.997314 -0.0146734 5.45394e-22)
(0.995746 -0.0117701 -4.40602e-22)
(0.994739 -0.010209 0)
(0.99337 -0.00615306 -3.09198e-23)
(0.99231 -0.00193146 -6.28392e-23)
(0.992066 0.00322141 -9.65299e-22)
(0.992277 0.00825969 1.07367e-21)
(0.993102 0.0130887 9.46872e-22)
(0.99449 0.0167977 -8.87658e-22)
(0.996485 0.0199401 1.27919e-23)
(0.99774 0.020794 1.4302e-24)
(0.999582 0.0223242 0)
(1.00257 0.0194156 -3.73836e-23)
(1.00216 0.0215778 0)
(1.00259 0.0193384 0)
(1.0027 0.0188349 0)
(1.00306 0.0170482 0)
(1.0032 0.0152576 0)
(1.00328 0.0132569 0)
(1.00324 0.011317 0)
(1.00315 0.00940632 0)
(1.00303 0.00757542 0)
(1.00291 0.00580713 0)
(1.0028 0.00410194 0)
(1.00273 0.00244417 0)
(1.0027 0.000813035 0)
(1.00464 -0.00102689 0)
(1.00466 -0.00308366 0)
(1.00472 -0.00515986 0)
(1.00479 -0.00727406 0)
(1.00486 -0.00942784 0)
(1.00489 -0.011614 0)
(1.00484 -0.0138324 0)
(1.00465 -0.0160215 0)
(1.00427 -0.0182697 0)
(1.00377 -0.0204141 0)
(1.00281 -0.0225201 0)
(1.0017 -0.0252553 -9.35273e-23)
(0.999808 -0.0250953 4.93225e-22)
(0.996295 -0.0295346 2.446e-22)
(0.995877 -0.0233093 -7.40092e-22)
(0.992936 -0.0221602 1.97513e-21)
(0.989625 -0.0166107 -1.91568e-21)
(0.986595 -0.0116359 3.09304e-23)
(0.98473 -0.00459546 -2.28863e-21)
(0.983618 0.00269904 4.41024e-21)
(0.984093 0.0103605 -1.91353e-21)
(0.986124 0.0173199 -5.893e-23)
(0.988817 0.0236216 0)
(0.992281 0.0276946 1.57543e-21)
(0.99588 0.0318267 -1.58849e-21)
(0.998853 0.0322371 6.31299e-22)
(0.999293 0.0359814 -7.39774e-22)
(1.00281 0.0309889 1.87152e-22)
(1.00448 0.0301242 -6.27554e-23)
(1.00549 0.0265611 1.66703e-24)
(1.00624 0.0238298 0)
(1.0065 0.0209776 0)
(1.00649 0.0181717 0)
(1.00637 0.0154297 0)
(1.00615 0.0127947 0)
(1.00591 0.0102614 0)
(1.00567 0.00784493 0)
(1.00547 0.00552349 0)
(1.00533 0.00328495 0)
(1.00527 0.00109102 0)
(1.00781 -0.00132518 0)
(1.00785 -0.00398619 0)
(1.00796 -0.00669421 0)
(1.00811 -0.00948273 0)
(1.00828 -0.012382 0)
(1.00841 -0.0154144 0)
(1.00844 -0.0185734 0)
(1.00832 -0.0218596 0)
(1.00799 -0.0251612 0)
(1.00726 -0.0283485 1.8542e-23)
(1.00605 -0.0312122 0)
(1.00446 -0.032533 -7.35505e-22)
(1.00217 -0.0358379 -6.2707e-23)
(0.999533 -0.0315419 1.00512e-21)
(0.992276 -0.0368175 -1.11607e-22)
(0.986985 -0.0330261 1.99777e-21)
(0.981813 -0.0292445 1.26113e-22)
(0.976435 -0.021246 -2.15316e-21)
(0.972229 -0.0113935 -9.42649e-22)
(0.970574 0.000552376 -2.73331e-22)
(0.971317 0.0128816 -3.0492e-21)
(0.974558 0.0243293 4.22066e-21)
(0.979939 0.0332447 -3.88839e-21)
(0.986787 0.040019 1.96456e-21)
(0.992407 0.0420294 2.42928e-23)
(0.998301 0.0439226 0)
(1.00553 0.0381406 1.45837e-22)
(1.00686 0.040171 -1.26035e-22)
(1.00913 0.0357463 0)
(1.01015 0.0335086 0)
(1.0108 0.029814 0)
(1.01097 0.0262469 0)
(1.01091 0.0225545 0)
(1.01058 0.0190816 0)
(1.01014 0.0157391 0)
(1.00967 0.0125955 0)
(1.00925 0.00960515 0)
(1.0089 0.00675949 0)
(1.00865 0.00401416 0)
(1.00855 0.00133284 0)
(1.01178 -0.00161061 0)
(1.01187 -0.00485344 0)
(1.01209 -0.0081697 0)
(1.0124 -0.0116089 0)
(1.01276 -0.0152167 0)
(1.01313 -0.0190235 0)
(1.01345 -0.0230572 0)
(1.01356 -0.0272616 0)
(1.01329 -0.0317353 0)
(1.01245 -0.036214 -1.85445e-23)
(1.01069 -0.0409937 2.98019e-22)
(1.008 -0.046431 0)
(1.00349 -0.0487077 3.63558e-22)
(0.997147 -0.0585725 -2.02921e-22)
(0.992178 -0.052704 0)
(0.983246 -0.0514606 -3.13483e-23)
(0.97248 -0.0442541 0)
(0.962599 -0.0347062 0)
(0.954973 -0.0198002 -1.38901e-21)
(0.9508 -0.00277795 2.77876e-21)
(0.95201 0.0152685 5.99757e-22)
(0.958524 0.0315795 -2.41476e-21)
(0.967839 0.0454171 2.66811e-22)
(0.979172 0.0524148 3.64382e-21)
(0.990231 0.0579749 -2.54011e-21)
(0.999342 0.057963 7.51512e-22)
(1.00394 0.0622513 4.84604e-22)
(1.01088 0.0515209 -4.84546e-22)
(1.01346 0.0479668 0)
(1.01532 0.0415924 0)
(1.01637 0.0364032 -1.42356e-23)
(1.01651 0.0313303 1.42357e-23)
(1.01614 0.0266758 0)
(1.01555 0.0223225 0)
(1.01485 0.0182953 0)
(1.01413 0.0145447 0)
(1.01348 0.0110566 0)
(1.01296 0.00775857 0)
(1.01259 0.00460198 0)
(1.01243 0.00152545 0)
(1.0165 -0.00185347 0)
(1.01667 -0.00559384 0)
(1.01704 -0.00944079 0)
(1.01757 -0.0134704 0)
(1.01822 -0.01775 0)
(1.0189 -0.0223604 0)
(1.01953 -0.0273631 0)
(1.01999 -0.0328279 -1.46948e-23)
(1.02005 -0.0387551 -9.81325e-23)
(1.01953 -0.0451646 0)
(1.01817 -0.0517919 -2.98119e-22)
(1.01574 -0.0576836 0)
(1.01204 -0.0663304 -3.63466e-22)
(1.00667 -0.064405 1.78522e-22)
(0.990381 -0.0759409 -1.03603e-21)
(0.976718 -0.0749041 9.381e-22)
(0.967804 -0.0629214 -5.99252e-22)
(0.952612 -0.0528801 -1.95581e-21)
(0.938009 -0.0350874 -2.13608e-21)
(0.929025 -0.0109505 -7.03413e-22)
(0.9283 0.0159103 1.44425e-21)
(0.936105 0.0407146 1.42486e-21)
(0.950152 0.0588958 1.2429e-21)
(0.966459 0.0701057 -5.14061e-22)
(0.986844 0.0792004 -2.74187e-22)
(1.0004 0.0784429 -5.51883e-23)
(1.01637 0.0627591 -2.24861e-23)
(1.01951 0.0635966 0)
(1.02317 0.0546897 -1.04757e-22)
(1.02425 0.0488474 0)
(1.02446 0.0420627 0)
(1.02393 0.0359808 1.92134e-23)
(1.02296 0.0302146 6.13926e-24)
(1.02177 0.0250837 0)
(1.0205 0.0203909 0)
(1.01934 0.0161385 0)
(1.01834 0.0122109 0)
(1.01757 0.00854439 0)
(1.01703 0.00505672 0)
(1.01679 0.00167432 0)
(1.02181 -0.00203882 0)
(1.02209 -0.00616231 0)
(1.02269 -0.0104341 0)
(1.02356 -0.0149515 0)
(1.02466 -0.0198205 0)
(1.02593 -0.0251395 0)
(1.02727 -0.0310561 0)
(1.02853 -0.0376369 -5.0741e-23)
(1.02956 -0.0451195 1.63536e-22)
(1.0299 -0.0531914 -1.17962e-22)
(1.029 -0.0623371 5.59125e-22)
(1.027 -0.0730228 -1.49805e-22)
(1.01879 -0.0804622 -2.72438e-19)
(1.01118 -0.100178 1.75204e-22)
(1.0003 -0.0997847 1.10791e-22)
(0.985137 -0.0968859 -1.22516e-22)
(0.959165 -0.0988579 0)
(0.931361 -0.0868061 8.86797e-23)
(0.903106 -0.0630218 -8.46541e-22)
(0.884367 -0.0246975 1.2831e-21)
(0.882391 0.021091 -1.94491e-21)
(0.898925 0.0622733 0)
(0.927654 0.089333 -6.57096e-22)
(0.957858 0.102664 -5.21992e-22)
(0.983473 0.106996 0)
(1.00553 0.0966183 -1.25507e-22)
(1.01763 0.0848162 -8.67449e-23)
(1.02937 0.0743032 1.68263e-23)
(1.03365 0.0661677 1.53389e-22)
(1.03407 0.0549879 -3.03846e-23)
(1.03365 0.0465072 0)
(1.03221 0.0389703 -2.49006e-23)
(1.03043 0.0324433 -2.26734e-24)
(1.0285 0.0267097 0)
(1.02669 0.0216101 0)
(1.02502 0.0170332 0)
(1.02363 0.0128554 0)
(1.02255 0.00897744 0)
(1.02182 0.00530573 0)
(1.02148 0.00175684 0)
(1.02755 -0.00212723 0)
(1.02797 -0.0064427 0)
(1.02886 -0.0109376 0)
(1.03017 -0.0157387 0)
(1.03188 -0.0209761 0)
(1.03392 -0.0268037 0)
(1.0362 -0.0333769 0)
(1.03861 -0.0408693 0)
(1.04079 -0.0495142 4.31451e-23)
(1.04254 -0.0596369 -4.31465e-23)
(1.04322 -0.0706166 -8.10946e-22)
(1.04284 -0.0865547 1.66818e-22)
(1.03873 -0.0979787 -1.44691e-22)
(1.02523 -0.121099 1.8819e-23)
(1.01404 -0.128203 4.05117e-23)
(0.994525 -0.136493 -4.4045e-23)
(0.962311 -0.143178 -5.64792e-22)
(0.915861 -0.13903 0)
(0.86427 -0.112141 0)
(0.820989 -0.0536061 2.37588e-21)
(0.809417 0.0266442 -2.24757e-21)
(0.839395 0.0987872 -2.10863e-21)
(0.892576 0.139097 1.61971e-21)
(0.948504 0.151506 0)
(0.989246 0.141996 1.34516e-21)
(1.02335 0.127332 1.37713e-22)
(1.03627 0.106617 -9.28595e-23)
(1.05071 0.088236 -1.18548e-22)
(1.05102 0.0752079 -2.75952e-24)
(1.04895 0.0611458 -9.91371e-23)
(1.04583 0.0508721 1.47855e-24)
(1.04254 0.0418886 8.72516e-24)
(1.03923 0.0343386 -6.90778e-24)
(1.03622 0.0279123 -5.81821e-24)
(1.03345 0.0223787 0)
(1.03111 0.0175061 0)
(1.02919 0.0131444 0)
(1.02774 0.00914112 0)
(1.02677 0.00539135 0)
(1.02631 0.00178101 0)
(1.03339 -0.00210301 0)
(1.03399 -0.00637593 0)
(1.03524 -0.0108575 0)
(1.0371 -0.0156849 0)
(1.03956 -0.0210211 0)
(1.04259 -0.0270362 0)
(1.0461 -0.0339748 0)
(1.04995 -0.0420209 0)
(1.05408 -0.05156 0)
(1.05812 -0.0630484 0)
(1.0616 -0.0760384 3.19185e-22)
(1.06431 -0.0940571 -2.98267e-22)
(1.06524 -0.112505 2.26135e-22)
(1.05283 -0.139709 -3.54249e-22)
(1.04488 -0.157806 3.36768e-23)
(1.01871 -0.187892 -1.32577e-21)
(0.98227 -0.206952 9.93955e-22)
(0.916445 -0.229285 4.41159e-21)
(0.814348 -0.220919 -4.48184e-21)
(0.697931 -0.135776 1.17786e-22)
(0.652488 0.0328184 2.96902e-21)
(0.730528 0.187536 0)
(0.859089 0.247233 4.90295e-21)
(0.959568 0.234716 -1.52693e-21)
(1.02451 0.199183 -7.75035e-23)
(1.0611 0.159044 5.65894e-24)
(1.06881 0.124222 2.84945e-23)
(1.07694 0.0941216 -2.256e-22)
(1.07106 0.0774131 1.25722e-22)
(1.06471 0.0616757 4.95994e-22)
(1.05935 0.0503968 -5.16445e-23)
(1.05386 0.041212 0)
(1.04884 0.0334874 4.45469e-24)
(1.04432 0.0271861 1.36368e-24)
(1.04052 0.0217305 0)
(1.03735 0.0170004 0)
(1.03484 0.0127468 0)
(1.03297 0.00887059 0)
(1.03174 0.00522775 0)
(1.03115 0.00172945 0)
(1.03903 -0.00194868 0)
(1.03982 -0.00591745 0)
(1.04144 -0.0100958 0)
(1.04389 -0.0146307 0)
(1.04718 -0.0196909 0)
(1.05132 -0.0254711 0)
(1.05632 -0.032226 2.69464e-23)
(1.06214 -0.0402054 2.32592e-24)
(1.06863 -0.0499264 0)
(1.07581 -0.061901 -4.85475e-23)
(1.08334 -0.075819 -2.46046e-23)
(1.09134 -0.0954065 2.33881e-22)
(1.09919 -0.115721 2.82632e-24)
(1.09165 -0.148055 1.30904e-23)
(1.09385 -0.176116 1.38596e-22)
(1.07858 -0.224434 0)
(1.05197 -0.27819 -6.08054e-22)
(0.988858 -0.366074 -6.81016e-22)
(0.821213 -0.463377 2.80993e-21)
(0.454097 -0.429198 -6.85548e-21)
(0.18854 0.0636962 -9.26445e-21)
(0.528517 0.509374 8.86765e-21)
(0.897208 0.487407 -1.1413e-21)
(1.05622 0.355113 7.74224e-22)
(1.10928 0.249368 1.47768e-22)
(1.12377 0.172964 -1.37886e-21)
(1.11445 0.129688 5.59829e-22)
(1.10809 0.0903942 7.51202e-22)
(1.09596 0.0743382 -8.75161e-23)
(1.08407 0.0580007 -5.7811e-22)
(1.07392 0.0476069 -1.09355e-22)
(1.06538 0.0384636 2.97462e-22)
(1.05814 0.0313865 2.55423e-22)
(1.05221 0.025338 0)
(1.04728 0.0202773 0)
(1.04331 0.015813 0)
(1.04022 0.0118656 0)
(1.03796 0.00824303 0)
(1.03648 0.004861 0)
(1.03577 0.0016056 0)
(1.04409 -0.00165156 0)
(1.04508 -0.00502188 0)
(1.04709 -0.0085882 0)
(1.05014 -0.0124925 0)
(1.0543 -0.0168947 0)
(1.05959 -0.0220082 0)
(1.0661 -0.0280699 -2.72457e-23)
(1.07386 -0.0353743 -1.04991e-23)
(1.08296 -0.044281 8.47532e-24)
(1.09341 -0.0556569 8.64924e-23)
(1.10536 -0.0686582 -1.17462e-22)
(1.11918 -0.0875103 -8.1152e-23)
(1.13411 -0.106143 1.98604e-22)
(1.13576 -0.138622 0)
(1.15372 -0.169691 -1.62152e-21)
(1.16125 -0.224458 -1.18768e-21)
(1.17665 -0.294131 1.73732e-21)
(1.20341 -0.423745 -8.79765e-21)
(0.888086 -0.496254 1.42719e-21)
(1.1286 0.572418 -2.0397e-20)
(1.2932 0.378443 7.47859e-21)
(1.23656 0.23175 0)
(1.19772 0.148179 6.38492e-22)
(1.16325 0.11093 -2.86924e-22)
(1.13863 0.0717049 2.7005e-22)
(1.11785 0.060224 -6.57909e-22)
(1.10025 0.0474747 3.91034e-22)
(1.08685 0.0391195 2.66112e-22)
(1.0756 0.032182 -2.5252e-22)
(1.06665 0.0263816 -7.601e-22)
(1.05931 0.0216648 1.90971e-23)
(1.0534 0.017425 0)
(1.04874 0.0137393 0)
(1.04512 0.0103529 0)
(1.04251 0.00723426 0)
(1.0408 0.00427264 0)
(1.03997 0.00141285 0)
(1.04817 -0.00123605 0)
(1.04933 -0.00376169 0)
(1.05167 -0.00644543 0)
(1.05525 -0.00938139 0)
(1.06016 -0.0127144 0)
(1.06654 -0.0165599 0)
(1.07452 -0.0211889 -3.32713e-25)
(1.08421 -0.0267455 3.32721e-25)
(1.09571 -0.0337438 -2.83369e-23)
(1.10965 -0.0427565 1.334e-22)
(1.12538 -0.0531575 -2.81894e-22)
(1.14469 -0.0685933 2.81879e-22)
(1.16751 -0.0843232 2.78441e-22)
(1.17654 -0.111123 -1.17156e-21)
(1.20612 -0.136132 0)
(1.23222 -0.179186 0)
(1.27933 -0.223271 -3.41959e-21)
(1.35077 -0.264381 -1.04837e-20)
(0.00937594 0.00178614 1.22105e-19)
(0.0563676 -0.00753725 4.36373e-20)
(1.45097 0.19313 -2.25249e-23)
(1.3292 0.135439 5.53044e-21)
(1.252 0.0869723 -2.68125e-21)
(1.19918 0.0662665 -1.98066e-22)
(1.15798 0.0424182 6.32273e-22)
(1.13253 0.0395697 -9.94415e-24)
(1.11172 0.0320804 -4.81992e-22)
(1.09614 0.0289003 -4.52891e-22)
(1.08311 0.0240414 7.71379e-23)
(1.07305 0.0205467 4.03627e-22)
(1.06481 0.0170346 1.12458e-23)
(1.05835 0.0139707 0)
(1.05317 0.0111073 0)
(1.04924 0.00844956 0)
(1.04637 0.00593574 0)
(1.04451 0.00351873 0)
(1.0436 0.00116687 0)
(1.05101 -0.000711574 0)
(1.05229 -0.00217218 0)
(1.05488 -0.00371416 0)
(1.05885 -0.00540822 0)
(1.06429 -0.00731728 0)
(1.07139 -0.00958596 0)
(1.08026 -0.0122578 -8.0141e-24)
(1.09132 -0.0157336 -7.85557e-24)
(1.1045 -0.01979 7.85449e-24)
(1.12064 -0.0259138 2.16964e-22)
(1.13986 -0.0319235 5.77204e-23)
(1.16296 -0.0426907 -2.00958e-22)
(1.18973 -0.0520356 -6.17063e-22)
(1.207 -0.0728701 9.01206e-23)
(1.24011 -0.0896658 2.44851e-21)
(1.2732 -0.119859 -2.59051e-21)
(1.31769 -0.14014 0)
(1.22769 -0.119692 -7.40893e-21)
(0.0356226 -0.0191444 4.03972e-21)
(0.187974 0.00955627 3.6371e-25)
(1.41217 0.0217929 5.59157e-25)
(1.35201 0.0194761 2.31032e-22)
(1.26532 0.00894748 -5.44915e-21)
(1.21077 0.0117826 2.08789e-22)
(1.16326 0.00733363 -1.08592e-21)
(1.13585 0.0132063 6.56735e-22)
(1.11606 0.0137863 8.5059e-23)
(1.10006 0.0150622 3.44531e-22)
(1.08733 0.0140841 4.67734e-22)
(1.07695 0.0131876 2.95835e-23)
(1.06856 0.0115702 -7.53082e-25)
(1.06178 0.00990365 0)
(1.05648 0.00808712 0)
(1.05238 0.00627803 0)
(1.0494 0.004459 0)
(1.04746 0.00266523 0)
(1.04651 0.000881663 0)
(1.05232 -0.000145094 0)
(1.05366 -0.000445092 0)
(1.05632 -0.000754438 0)
(1.06045 -0.00108034 0)
(1.06614 -0.00142845 0)
(1.07364 -0.00185267 0)
(1.0831 -0.00234811 8.01339e-24)
(1.09496 -0.00317837 -7.36517e-23)
(1.10931 -0.00408473 0)
(1.12717 -0.00611714 3.93468e-23)
(1.1483 -0.00814014 1.17872e-22)
(1.17391 -0.0122956 -1.17813e-22)
(1.20472 -0.0178571 2.98107e-23)
(1.22719 -0.0298036 8.1569e-22)
(1.26107 -0.040616 2.77937e-22)
(1.29617 -0.0645809 -6.54769e-22)
(1.33157 -0.0809409 -1.75468e-21)
(1.09841 -0.0589592 0)
(0.065457 -0.0346542 9.12417e-21)
(-0.115952 -0.0596128 5.98997e-21)
(-0.158249 0.0989098 7.80944e-21)
(0.0287854 0.171271 9.3042e-21)
(0.496993 0.00275315 -5.34613e-21)
(1.3883 -0.118096 0)
(1.32954 -0.0976432 3.10103e-21)
(1.2391 -0.0674509 5.13258e-22)
(1.194 -0.0389597 3.27364e-21)
(1.14722 -0.0205346 1.56282e-22)
(1.12751 -0.00785557 -6.18334e-22)
(1.11142 -0.00103449 -2.8591e-22)
(1.09831 0.0038515 7.4071e-23)
(1.08689 0.00563038 -4.88029e-22)
(1.07783 0.00662154 0)
(1.07 0.00648796 5.19001e-24)
(1.0637 0.0059343 0)
(1.05852 0.0050858 0)
(1.0545 0.0040467 0)
(1.05154 0.00294012 0)
(1.0496 0.00176591 0)
(1.04864 0.000589545 0)
(1.05209 0.000430989 0)
(1.05341 0.00130616 0)
(1.05604 0.00227958 0)
(1.06012 0.00337423 0)
(1.06573 0.00471895 0)
(1.07316 0.00622733 0)
(1.08251 0.00827035 0)
(1.0944 0.0103285 7.36456e-23)
(1.10872 0.0133611 0)
(1.12676 0.0157583 -2.11917e-22)
(1.14824 0.0197579 -9.26819e-23)
(1.17489 0.0220678 -5.08633e-24)
(1.20556 0.0262963 -8.50352e-24)
(1.23686 0.0167031 -2.34367e-22)
(1.27388 0.0143997 -7.14565e-23)
(1.32444 -0.00272989 3.79833e-22)
(1.35943 -0.0299876 1.77782e-21)
(1.0077 -0.0625148 1.99085e-23)
(0.255147 -0.205742 -1.92436e-21)
(-0.197652 -0.334581 0)
(-0.357055 -0.293662 -1.92831e-20)
(0.110437 -0.264877 -1.29643e-20)
(0.837253 -0.362498 -5.87508e-21)
(1.30374 -0.331597 -3.71709e-21)
(1.23785 -0.205925 5.0051e-21)
(1.17088 -0.122689 5.35676e-22)
(1.15256 -0.0704671 -1.07954e-22)
(1.12269 -0.0376461 0)
(1.11196 -0.0185398 8.21754e-22)
(1.10187 -0.010332 6.71178e-22)
(1.09284 -0.00300705 -2.29158e-23)
(1.0844 -0.00045733 -1.68018e-22)
(1.07682 0.00184657 5.0075e-23)
(1.07005 0.00228393 -5.18895e-24)
(1.0643 0.00263599 0)
(1.05949 0.00236365 0)
(1.05569 0.00200547 0)
(1.05283 0.00147609 0)
(1.05094 0.000904883 0)
(1.04999 0.000298786 0)
(1.05029 0.000948451 0)
(1.05148 0.00288491 0)
(1.05387 0.00501143 0)
(1.05757 0.0073974 0)
(1.06271 0.0102846 0)
(1.06947 0.0136089 0)
(1.07806 0.0179259 0)
(1.08887 0.0227551 0)
(1.10248 0.0293862 0)
(1.11898 0.0362197 1.77264e-22)
(1.14012 0.0463526 -4.15703e-22)
(1.16588 0.0544663 -1.68081e-23)
(1.19843 0.071499 -3.36563e-22)
(1.24009 0.0778956 0)
(1.2744 0.0828807 0)
(1.33814 0.08017 1.28954e-22)
(1.4043 0.0596522 0)
(1.16314 -0.0145524 -6.00939e-22)
(0.59627 -0.248186 0)
(0.0164268 -0.528617 -1.60487e-21)
(-0.361751 -0.746333 1.03526e-20)
(0.111096 -0.720782 -4.50831e-21)
(0.77159 -0.61872 1.59647e-21)
(1.04363 -0.403146 1.70301e-21)
(1.06016 -0.216332 -5.0433e-22)
(1.0767 -0.126072 1.90705e-22)
(1.0852 -0.0573306 1.99265e-23)
(1.09256 -0.0317352 0)
(1.09194 -0.0190244 0)
(1.09121 -0.0106623 -5.29807e-22)
(1.08603 -0.00588662 0)
(1.08067 -0.00324022 0)
(1.07477 -0.00145554 0)
(1.06915 -0.000695828 0)
(1.06405 -0.000158433 0)
(1.05965 3.46134e-05 0)
(1.05603 0.000132869 0)
(1.05331 0.000128584 0)
(1.05148 8.48513e-05 0)
(1.05055 2.46782e-05 0)
(1.04711 0.00134801 0)
(1.04812 0.00411074 0)
(1.05012 0.00713317 0)
(1.05321 0.0105424 0)
(1.05745 0.0146254 0)
(1.06302 0.0194986 0)
(1.07011 0.0256752 0)
(1.079 0.0331692 0)
(1.08984 0.0429984 0)
(1.10384 0.054871 0)
(1.12086 0.069855 0)
(1.14268 0.0893531 2.55093e-22)
(1.17114 0.109425 3.36456e-22)
(1.20941 0.145214 6.87654e-22)
(1.24782 0.157516 -1.00946e-21)
(1.31637 0.184736 -1.41912e-21)
(1.401 0.211002 -4.11371e-24)
(1.3707 0.201166 1.61712e-21)
(0.911891 0.0140328 1.9992e-21)
(0.466446 -0.218558 2.22967e-21)
(-0.0428089 -0.570589 1.87031e-21)
(-0.0965069 -0.746698 1.33043e-21)
(0.469892 -0.474335 -3.16773e-22)
(0.789706 -0.262577 2.30551e-22)
(0.924507 -0.114704 -4.36855e-23)
(1.00299 -0.0637937 1.76909e-22)
(1.05245 -0.0152665 -1.18113e-22)
(1.07074 -0.0069203 1.6639e-22)
(1.08309 -0.00551023 -1.34177e-22)
(1.08342 -0.00371692 1.34131e-22)
(1.08246 -0.00316476 -1.79307e-23)
(1.07797 -0.00308229 -3.07524e-23)
(1.07338 -0.0027057 0)
(1.06822 -0.0026869 0)
(1.06349 -0.00227588 0)
(1.05922 -0.0020055 0)
(1.05576 -0.00158059 0)
(1.05307 -0.00115475 0)
(1.05127 -0.000708013 0)
(1.05033 -0.000238999 0)
(1.04298 0.00158837 0)
(1.04373 0.00483692 0)
(1.04524 0.00839939 0)
(1.04753 0.0124065 0)
(1.05066 0.0172381 0)
(1.0547 0.0229138 0)
(1.0597 0.0303089 0)
(1.06589 0.0389336 0)
(1.07362 0.0509049 0)
(1.08284 0.0643532 0)
(1.0948 0.0849302 1.56895e-22)
(1.10936 0.105342 -2.29273e-22)
(1.12695 0.144318 1.01281e-22)
(1.14156 0.173655 -6.20871e-22)
(1.19356 0.22049 1.93611e-21)
(1.24475 0.279596 0)
(1.29999 0.345423 7.14436e-21)
(1.37959 0.455432 -5.9952e-21)
(1.15334 0.432844 1.99294e-21)
(0.777627 0.270484 9.50821e-21)
(0.375364 0.0798497 -3.03121e-22)
(0.0589051 -0.150254 8.06725e-24)
(0.113299 -0.258209 -7.57562e-22)
(0.5771 -0.0517729 1.51598e-21)
(0.87646 0.0616687 1.04709e-21)
(0.980979 0.045258 8.3607e-22)
(1.05344 0.0483816 0)
(1.07483 0.0217383 5.99726e-23)
(1.08667 0.0146862 -4.38481e-23)
(1.08668 0.00325538 4.66664e-23)
(1.08445 0.000470327 4.84157e-23)
(1.07936 -0.0036222 2.63452e-25)
(1.07376 -0.00408252 0)
(1.06815 -0.00497205 0)
(1.06299 -0.00454892 0)
(1.05856 -0.00415561 0)
(1.0549 -0.00335095 0)
(1.05215 -0.00249396 0)
(1.0503 -0.00152068 0)
(1.04934 -0.000518277 0)
(1.03839 0.00164103 0)
(1.03888 0.00500912 0)
(1.03982 0.0086723 0)
(1.04121 0.0128072 0)
(1.04305 0.0177733 0)
(1.04527 0.0237466 0)
(1.04796 0.0314779 0)
(1.05089 0.0411621 0)
(1.05433 0.054138 0)
(1.05767 0.0710943 0)
(1.06239 0.0925475 0)
(1.06575 0.122869 2.03104e-22)
(1.07472 0.153816 -2.31957e-22)
(1.09435 0.21201 0)
(1.11211 0.245444 -1.78066e-22)
(1.13804 0.325539 6.30352e-23)
(1.14781 0.40234 0)
(1.17184 0.536464 -2.44487e-22)
(1.13283 0.701413 7.05222e-22)
(0.922797 0.77245 -6.58575e-21)
(0.614272 0.700109 4.95628e-21)
(0.356858 0.5154 -3.90922e-21)
(0.296045 0.294634 0)
(0.396561 0.147306 0)
(0.903919 0.220516 -4.19583e-22)
(1.03618 0.150405 -1.11793e-21)
(1.10552 0.0924492 -8.54331e-23)
(1.11264 0.0436759 4.93273e-23)
(1.10708 0.0227489 -5.60669e-23)
(1.1001 0.00677387 3.34166e-24)
(1.09164 -0.000962452 0)
(1.08314 -0.00593033 0)
(1.07536 -0.0075877 0)
(1.06837 -0.00835128 0)
(1.06237 -0.00777322 0)
(1.05737 -0.00681514 0)
(1.05343 -0.00549512 0)
(1.0505 -0.00400818 0)
(1.04855 -0.00244009 0)
(1.04753 -0.000819327 0)
(1.0339 0.00150764 0)
(1.03414 0.00458422 0)
(1.03457 0.00791758 0)
(1.03515 0.0116362 0)
(1.03575 0.0160489 0)
(1.03615 0.0213165 0)
(1.03622 0.0280562 0)
(1.03543 0.0363157 0)
(1.03378 0.0474504 0)
(1.03079 0.0609256 0)
(1.02589 0.0798507 0)
(1.01963 0.103625 0)
(1.00547 0.135146 0)
(0.991894 0.179288 -1.73945e-23)
(1.04543 0.247841 -4.49744e-22)
(0.990922 0.301093 5.23062e-22)
(1.01466 0.406907 2.62384e-23)
(0.97343 0.511323 2.18953e-21)
(0.920019 0.635884 0)
(0.83176 0.74977 2.09006e-22)
(0.706736 0.791374 3.98299e-21)
(0.591143 0.721573 -2.57566e-21)
(0.561687 0.558039 -3.82423e-22)
(0.548022 0.420947 2.01065e-24)
(0.983989 0.302428 3.18541e-22)
(1.15841 0.180993 -1.03585e-22)
(1.18654 0.0660647 -7.8611e-23)
(1.1645 0.0316234 0)
(1.13443 0.00862053 5.89153e-25)
(1.11684 -0.00566811 0)
(1.09937 -0.0101002 0)
(1.08701 -0.0144296 0)
(1.07628 -0.0140867 0)
(1.06775 -0.0138249 0)
(1.06075 -0.0120565 0)
(1.05522 -0.0102326 0)
(1.05099 -0.00801089 0)
(1.04788 -0.0057717 0)
(1.04588 -0.00346301 0)
(1.04483 -0.00115783 0)
(1.03004 0.00122768 0)
(1.0301 0.0037139 0)
(1.03016 0.00634103 0)
(1.03012 0.00917476 0)
(1.02979 0.0124262 0)
(1.02897 0.0161339 0)
(1.02726 0.0208091 0)
(1.02436 0.0265106 0)
(1.01962 0.0345685 0)
(1.01248 0.0450841 0)
(1.00204 0.0617403 0)
(0.992408 0.0808325 0)
(0.97095 0.116063 0)
(0.945945 0.141293 0)
(0.926752 0.173764 4.55805e-19)
(0.879484 0.26468 0)
(0.831927 0.351312 -1.69084e-22)
(0.810596 0.413138 0)
(0.770979 0.533795 9.91836e-22)
(0.730539 0.688649 0)
(0.728288 0.800374 -1.13181e-18)
(0.712818 0.824365 -1.68463e-21)
(0.692503 0.756802 0)
(0.82423 0.524964 0)
(1.2316 0.222023 -2.31635e-22)
(1.33095 0.0293898 4.96798e-25)
(1.24851 -0.00511203 1.43784e-25)
(1.19338 -0.013001 0)
(1.15754 -0.0265507 0)
(1.12595 -0.0264402 0)
(1.10459 -0.028648 0)
(1.08809 -0.0266821 0)
(1.075 -0.023916 0)
(1.06518 -0.0208663 0)
(1.05748 -0.0174003 0)
(1.05168 -0.0140746 0)
(1.04729 -0.0107599 0)
(1.04422 -0.00759746 0)
(1.04222 -0.00450312 0)
(1.0412 -0.00150054 0)
(1.02708 0.000860942 0)
(1.02708 0.00256623 0)
(1.02699 0.00428036 0)
(1.02674 0.00595958 0)
(1.02599 0.00771657 0)
(1.02454 0.00952314 0)
(1.0216 0.0117762 0)
(1.01686 0.0144866 0)
(1.0083 0.0192829 0)
(0.996682 0.0252207 0)
(0.976959 0.0390576 0)
(0.951395 0.0570813 0)
(0.922309 0.0977975 0)
(0.904014 0.140259 0)
(0.904202 0.220105 -2.05097e-22)
(0.837277 0.240764 0)
(0.683092 0.307692 0)
(0.51795 0.348735 -3.78419e-22)
(0.456273 0.34793 1.85249e-26)
(0.51975 0.315858 1.01941e-23)
(0.730899 0.224356 -1.50224e-20)
(0.969858 0.128807 4.80149e-21)
(1.17522 -0.0745844 0)
(1.40038 -0.183969 5.38981e-22)
(1.43263 -0.17773 0)
(1.33735 -0.132202 0)
(1.25328 -0.100389 0)
(1.19572 -0.0893724 0)
(1.15307 -0.0703884 0)
(1.12229 -0.0619472 0)
(1.09941 -0.0507713 0)
(1.0813 -0.043119 0)
(1.06898 -0.0352711 0)
(1.05892 -0.0289912 0)
(1.05176 -0.0231097 0)
(1.04618 -0.0180415 0)
(1.0422 -0.0134678 0)
(1.03935 -0.00931213 0)
(1.03756 -0.00547151 0)
(1.03663 -0.00179945 0)
(1.02522 0.000506064 0)
(1.0253 0.00141418 0)
(1.02534 0.00221273 0)
(1.02525 0.00263657 0)
(1.02468 0.00277171 0)
(1.02331 0.0020105 0)
(1.02024 0.000849228 0)
(1.01468 -0.00229618 0)
(1.00491 -0.00551687 0)
(0.987155 -0.0125141 0)
(0.959869 -0.0166196 0)
(0.914604 -0.0257728 0)
(0.860029 -0.0149435 0)
(0.789913 0.00977682 0)
(0.773574 0.0895804 0)
(0.748187 0.144354 0)
(0.721123 0.125743 0)
(0.672748 0.0249652 0)
(0.643884 -0.0846697 0)
(0.707091 -0.210429 -6.08718e-35)
(0.852881 -0.353721 6.08718e-35)
(1.05463 -0.387547 0)
(1.20934 -0.455065 0)
(1.30623 -0.411344 0)
(1.30238 -0.325514 0)
(1.24413 -0.243092 0)
(1.19521 -0.186095 0)
(1.15441 -0.147046 0)
(1.12196 -0.112524 0)
(1.09928 -0.0917162 0)
(1.07899 -0.0704607 0)
(1.06699 -0.0573261 0)
(1.05601 -0.0443785 0)
(1.04859 -0.0354663 0)
(1.04277 -0.0272344 0)
(1.03856 -0.0209472 0)
(1.0355 -0.0152574 0)
(1.03335 -0.0104842 0)
(1.03201 -0.00607304 0)
(1.0313 -0.00200096 0)
(1.02434 0.000242279 0)
(1.02464 0.000581001 0)
(1.02515 0.000643097 0)
(1.02582 3.2731e-05 0)
(1.02646 -0.00141204 0)
(1.02687 -0.00446086 0)
(1.02668 -0.00957939 0)
(1.02481 -0.0179822 0)
(1.02048 -0.0316634 0)
(1.01107 -0.052044 0)
(0.99226 -0.0849365 0)
(0.950986 -0.135439 0)
(0.865331 -0.199259 -1.18842e-21)
(0.758908 -0.268932 0)
(0.723405 -0.307971 0)
(0.7822 -0.304939 0)
(0.83226 -0.324954 0)
(0.788493 -0.351342 -5.42091e-22)
(0.766559 -0.394844 0)
(0.876077 -0.415228 0)
(0.956037 -0.504936 0)
(1.07328 -0.487509 0)
(1.17145 -0.46398 0)
(1.19762 -0.390275 0)
(1.18213 -0.321595 0)
(1.14634 -0.252927 0)
(1.11921 -0.210034 0)
(1.09599 -0.16242 0)
(1.07778 -0.135555 0)
(1.0654 -0.101483 0)
(1.05362 -0.083605 0)
(1.04589 -0.0632911 0)
(1.03962 -0.0499414 0)
(1.03555 -0.0380859 0)
(1.03212 -0.029118 0)
(1.02983 -0.0217361 0)
(1.028 -0.0157225 0)
(1.02681 -0.010624 0)
(1.02601 -0.00612316 0)
(1.02563 -0.00200578 0)
(1.02397 0.000190252 0)
(1.02462 0.000399537 0)
(1.02587 0.000302825 0)
(1.02775 -0.00052862 0)
(1.03037 -0.00232286 0)
(1.03369 -0.0059162 0)
(1.03777 -0.0117605 0)
(1.04304 -0.0219082 0)
(1.04925 -0.0368899 0)
(1.05704 -0.0623884 0)
(1.06663 -0.0994583 0)
(1.06679 -0.162703 -1.46375e-21)
(1.03219 -0.261172 -1.35959e-21)
(0.930894 -0.413451 0)
(0.816131 -0.582302 0)
(0.785496 -0.68624 0)
(0.803471 -0.687698 0)
(0.749621 -0.668524 0)
(0.740012 -0.637229 0)
(0.865459 -0.584555 0)
(0.955132 -0.536943 0)
(1.00461 -0.504237 0)
(1.07697 -0.428328 0)
(1.11707 -0.35991 0)
(1.11199 -0.292465 0)
(1.09548 -0.244478 0)
(1.07263 -0.204631 0)
(1.05631 -0.165608 0)
(1.04074 -0.137032 0)
(1.03168 -0.109384 0)
(1.02704 -0.0825662 0)
(1.02299 -0.0643924 0)
(1.02201 -0.0484046 0)
(1.02092 -0.0367739 0)
(1.02074 -0.0274028 0)
(1.02051 -0.0201902 0)
(1.02041 -0.0144153 0)
(1.02029 -0.00963608 0)
(1.02022 -0.00553787 0)
(1.02018 -0.00179514 0)
(1.02345 0.000374829 0)
(1.02443 0.00101366 0)
(1.02635 0.00141143 0)
(1.02936 0.00124474 0)
(1.03375 0.000440044 0)
(1.03988 -0.00175877 0)
(1.04842 -0.00549398 0)
(1.05959 -0.0121711 0)
(1.0757 -0.0227529 0)
(1.09707 -0.0391574 0)
(1.12878 -0.0650347 0)
(1.16942 -0.102021 0)
(1.20365 -0.162793 0)
(1.1781 -0.271214 0)
(1.07533 -0.434815 0)
(0.923698 -0.608486 0)
(0.804897 -0.699154 0)
(0.693449 -0.724474 0)
(0.65542 -0.732253 0)
(0.737389 -0.683718 -6.43974e-35)
(0.849624 -0.607538 6.43974e-35)
(0.929732 -0.552545 0)
(0.982706 -0.501078 0)
(1.01604 -0.447865 0)
(1.0246 -0.38236 0)
(1.02859 -0.331582 0)
(1.01029 -0.266252 0)
(1.00711 -0.208823 0)
(1.00083 -0.158133 0)
(0.991191 -0.114242 0)
(0.994979 -0.0824265 0)
(0.998963 -0.0589923 0)
(1.00319 -0.0416896 0)
(1.00689 -0.0303906 0)
(1.00989 -0.021746 0)
(1.01211 -0.0157827 0)
(1.01369 -0.0110119 0)
(1.01469 -0.00732927 0)
(1.01529 -0.00415458 0)
(1.0156 -0.00135541 0)
(1.02208 0.000750801 0)
(1.02326 0.00219751 0)
(1.02558 0.00359018 0)
(1.02927 0.00473668 0)
(1.03467 0.00572493 0)
(1.04219 0.00614563 0)
(1.0526 0.00591991 0)
(1.06731 0.0050026 0)
(1.08755 0.00195895 0)
(1.11669 -0.00102817 0)
(1.15589 -0.00785145 0)
(1.20916 -0.0121111 0)
(1.27098 -0.0254074 0)
(1.30687 -0.0398556 0)
(1.27914 -0.110537 0)
(1.1495 -0.192828 0)
(0.969736 -0.349574 8.09143e-21)
(0.793957 -0.378699 4.00827e-21)
(0.690517 -0.504253 0)
(0.700493 -0.529662 0)
(0.768954 -0.542226 0)
(0.868118 -0.519594 0)
(0.933909 -0.497787 0)