/*--------------------------------*- C++ -*----------------------------------*\
| =========                 |                                                 |
| \\      /  F ield         | OpenFOAM: The Open Source CFD Toolbox           |
|  \\    /   O peration     | Version:  v2106                                 |
|   \\  /    A nd           | Website:  www.openfoam.com                      |
|    \\/     M anipulation  |                                                 |
\*---------------------------------------------------------------------------*/
FoamFile
{
    version     2.0;
    format      ascii;
    arch        "LSB;label=32;scalar=64";
    class       volVectorField;
    location    "0";
    object      U;
}
// * * * * * * * * * * * * * * * * * * * * * * * * * * * * * * * * * * * * * //

dimensions      [0 1 -1 0 0 0 0];

internalField   nonuniform List<vector> 
11644
(
(0.995314 -0.000211722 1.31407e-23)
(0.99521 -0.000553151 3.62381e-23)
(0.995149 -0.000806784 1.94426e-23)
(0.995132 -0.0010612 0)
(0.995126 -0.00132073 0)
(0.995123 -0.00157667 0)
(0.995122 -0.00182606 0)
(0.995122 -0.00205669 0)
(0.995123 -0.00225546 0)
(0.995119 -0.00240752 0)
(0.995107 -0.00249578 0)
(0.995098 -0.00250081 0)
(0.99515 -0.00240075 0)
(0.995276 -0.00222187 0)
(0.995119 -0.00183535 0)
(0.995041 -0.00144285 0)
(0.994713 -0.000830846 0)
(0.994449 0.000271308 0)
(0.99467 0.00152126 0)
(0.995055 0.00241495 3.37463e-30)
(0.995154 0.0030007 -3.37788e-30)
(0.995034 0.00353983 0)
(0.995005 0.00406652 0)
(0.995156 0.00450233 0)
(0.995169 0.00475706 0)
(0.995163 0.00485357 0)
(0.995288 0.00480935 0)
(0.995101 0.00466294 0)
(0.995085 0.00441024 0)
(0.995116 0.0040735 0)
(0.99512 0.0036962 0)
(0.995122 0.00328834 0)
(0.995127 0.00287072 0)
(0.99513 0.00245724 0)
(0.995134 0.00205684 0)
(0.995136 0.00167607 0)
(0.99514 0.0013195 0)
(0.995158 0.000988176 0)
(0.995232 0.000665947 0)
(0.99535 0.000249663 2.54784e-24)
(0.99604 -0.000433299 1.68791e-23)
(0.995959 -0.00130403 1.56354e-23)
(0.995898 -0.00216508 8.3973e-24)
(0.995875 -0.00300484 0)
(0.995868 -0.0038283 0)
(0.995856 -0.00463603 0)
(0.995828 -0.00541227 0)
(0.995776 -0.00613233 0)
(0.99569 -0.00676365 0)
(0.995559 -0.00726256 0)
(0.995403 -0.00756884 0)
(0.995165 -0.00763091 0)
(0.994771 -0.00736314 0)
(0.994212 -0.00666857 0)
(0.994003 -0.00560216 0)
(0.993472 -0.00397816 4.98914e-25)
(0.992859 -0.00193432 2.53803e-23)
(0.992332 0.000367662 8.76478e-23)
(0.992131 0.00308305 -1.0684e-22)
(0.992386 0.00612139 3.9255e-22)
(0.9929 0.00893281 -5.18432e-22)
(0.993345 0.0111008 1.85563e-22)
(0.993624 0.0126524 -4.27224e-23)
(0.993887 0.0138127 -2.53907e-23)
(0.994552 0.0146322 1.69172e-24)
(0.995145 0.0149127 0)
(0.995413 0.0147709 0)
(0.995985 0.0141278 0)
(0.996193 0.0132432 0)
(0.996285 0.0121642 0)
(0.996361 0.0109353 0)
(0.996359 0.00965844 0)
(0.996325 0.00837163 0)
(0.996269 0.00711309 0)
(0.996204 0.00590298 0)
(0.996141 0.00475147 0)
(0.996094 0.00365174 0)
(0.996083 0.00258428 0)
(0.99613 0.00152632 0)
(0.996204 0.000502591 0)
(0.997517 -0.00068651 0)
(0.997455 -0.00209609 0)
(0.997405 -0.0035442 0)
(0.997384 -0.00498189 0)
(0.997371 -0.00640448 1.54187e-23)
(0.997342 -0.0078092 0)
(0.997271 -0.00917504 0)
(0.997132 -0.010469 0)
(0.996895 -0.0116389 0)
(0.996537 -0.0126106 0)
(0.995958 -0.0133045 0)
(0.995215 -0.0135769 0)
(0.994388 -0.01329 -1.383e-24)
(0.993465 -0.0123655 6.41909e-23)
(0.991836 -0.010538 -1.60276e-22)
(0.99044 -0.00790534 -6.01683e-23)
(0.989071 -0.00451028 3.82647e-24)
(0.987813 -0.000619962 4.08158e-22)
(0.986923 0.00388827 4.33244e-23)
(0.98685 0.00896844 4.64312e-22)
(0.98767 0.0140734 -4.72368e-22)
(0.989183 0.0186352 -2.12215e-22)
(0.990891 0.0220677 -2.60399e-22)
(0.992543 0.0242216 8.8515e-23)
(0.993871 0.0252902 4.67312e-24)
(0.995366 0.0255658 1.43405e-22)
(0.996957 0.0249855 -5.50854e-23)
(0.997645 0.023879 1.64436e-24)
(0.99836 0.0221973 0)
(0.998774 0.0201832 0)
(0.998875 0.0180455 0)
(0.998865 0.0158239 0)
(0.998737 0.0136396 0)
(0.998558 0.011526 0)
(0.99836 0.00951028 0)
(0.998174 0.00759744 0)
(0.998019 0.00577917 0)
(0.997916 0.00403486 0)
(0.997876 0.00236393 0)
(0.997894 0.000765195 0)
(0.999785 -0.00096762 0)
(0.99973 -0.00294634 0)
(0.999703 -0.00495684 0)
(0.999698 -0.00699749 0)
(0.999694 -0.00905422 0)
(0.999657 -0.0111222 0)
(0.999547 -0.013178 0)
(0.999314 -0.0151846 0)
(0.998902 -0.0170759 0)
(0.99821 -0.0187712 0)
(0.997281 -0.0200857 1.32289e-24)
(0.995939 -0.0208608 4.49209e-23)
(0.993955 -0.0209007 -7.55403e-23)
(0.991097 -0.0199492 5.0974e-22)
(0.988634 -0.0177807 -4.08261e-22)
(0.985653 -0.0142902 -6.07996e-22)
(0.982837 -0.00949569 -5.04187e-22)
(0.98029 -0.00360107 1.2943e-21)
(0.978317 0.00336239 8.22331e-22)
(0.977918 0.0109546 -1.90395e-21)
(0.979174 0.0184687 6.45859e-22)
(0.981848 0.0254256 6.4124e-22)
(0.985339 0.0312307 -1.50503e-21)
(0.989306 0.0350516 5.31568e-22)
(0.993074 0.0369237 7.19095e-22)
(0.996219 0.0371067 1.97315e-22)
(0.998369 0.0361672 -3.3169e-22)
(1.00063 0.0338795 -6.71494e-23)
(1.00183 0.0311207 -2.47021e-24)
(1.00245 0.0280163 -7.13603e-25)
(1.00272 0.0247536 0)
(1.0026 0.0215589 0)
(1.00231 0.0184448 0)
(1.00193 0.0154936 0)
(1.00151 0.0127173 0)
(1.00113 0.0101164 0)
(1.0008 0.00767583 0)
(1.00056 0.00536472 0)
(1.00042 0.00314917 0)
(1.00038 0.00104453 0)
(1.00283 -0.00127264 0)
(1.00279 -0.00381956 0)
(1.0028 -0.00643701 0)
(1.00284 -0.00909232 0)
(1.00289 -0.0118138 0)
(1.0029 -0.014606 0)
(1.00281 -0.0174605 0)
(1.00254 -0.0203438 0)
(1.00198 -0.0232039 0)
(1.00109 -0.0258856 -5.12619e-24)
(0.999526 -0.0282305 2.99064e-22)
(0.997029 -0.0300154 -4.05316e-23)
(0.993834 -0.0308499 -1.95473e-22)
(0.990282 -0.0304003 -8.80621e-22)
(0.984973 -0.0285102 7.39458e-23)
(0.979593 -0.0245603 5.02614e-22)
(0.974562 -0.0186314 1.64053e-21)
(0.969807 -0.0107016 -4.50478e-21)
(0.965939 -0.00064037 6.54025e-21)
(0.964546 0.0108576 -3.19519e-21)
(0.966354 0.0227262 3.83218e-21)
(0.971115 0.0335395 -5.75086e-21)
(0.977656 0.0420955 2.94725e-21)
(0.98581 0.0476257 -1.15697e-21)
(0.992278 0.0499911 -6.67438e-22)
(0.997848 0.0500743 -3.59588e-22)
(1.00296 0.0477222 1.05063e-21)
(1.00525 0.0445034 -4.39279e-22)
(1.00702 0.0401657 5.25569e-22)
(1.00774 0.0355217 -2.24558e-22)
(1.00783 0.0309669 7.90235e-24)
(1.00757 0.0266273 0)
(1.00699 0.0225973 0)
(1.00629 0.018848 0)
(1.00557 0.0153854 0)
(1.0049 0.0121852 0)
(1.00434 0.00920991 0)
(1.00391 0.00643036 0)
(1.00364 0.00378811 0)
(1.00353 0.00122956 0)
(1.00663 -0.00153188 0)
(1.00664 -0.00466815 0)
(1.00673 -0.00786382 0)
(1.00688 -0.0111565 0)
(1.00706 -0.0145926 0)
(1.0072 -0.0181889 0)
(1.00724 -0.0219589 0)
(1.00707 -0.0259008 0)
(1.00655 -0.029931 2.38076e-23)
(1.00533 -0.0339273 1.95645e-22)
(1.00304 -0.0376957 -3.05743e-22)
(0.99982 -0.0408907 2.23109e-22)
(0.995425 -0.0434141 5.01119e-22)
(0.988561 -0.0451368 -2.80019e-21)
(0.981985 -0.0440041 2.15422e-21)
(0.97356 -0.0404657 3.54528e-22)
(0.963682 -0.0342563 2.20284e-22)
(0.954411 -0.0237029 -1.60891e-21)
(0.947234 -0.00885887 1.12277e-21)
(0.944191 0.00833538 1.21411e-22)
(0.94658 0.02603 -5.53482e-22)
(0.953796 0.0423344 -1.39053e-21)
(0.96488 0.0556784 2.34774e-21)
(0.978034 0.06328 -1.00682e-21)
(0.990501 0.0656747 1.60557e-22)
(1.00098 0.065271 -1.42382e-21)
(1.0075 0.0621531 2.16739e-21)
(1.01271 0.0554571 -1.70591e-22)
(1.01481 0.0490326 -5.20639e-22)
(1.01519 0.0425582 7.16573e-23)
(1.01462 0.0364432 1.00372e-22)
(1.01373 0.0309138 8.4399e-24)
(1.01269 0.0259496 0)
(1.01152 0.0214832 0)
(1.01036 0.017444 0)
(1.00932 0.013776 0)
(1.00845 0.0104145 0)
(1.00779 0.00727981 0)
(1.00736 0.00430936 0)
(1.00717 0.001449 0)
(1.01115 -0.00180943 0)
(1.01123 -0.00547358 0)
(1.01146 -0.00919829 0)
(1.01181 -0.0131177 0)
(1.01224 -0.0172474 0)
(1.01267 -0.0216749 0)
(1.01303 -0.0264453 0)
(1.01318 -0.0315717 5.04633e-24)
(1.01271 -0.0369421 -1.6204e-22)
(1.01121 -0.042466 2.37955e-22)
(1.00869 -0.0480058 -9.59633e-23)
(1.00489 -0.053606 5.969e-22)
(0.999641 -0.0590137 -6.78506e-22)
(0.99357 -0.0631417 9.37733e-22)
(0.981898 -0.0664016 4.43844e-23)
(0.967873 -0.0653212 -1.04029e-21)
(0.958423 -0.052573 -8.78976e-22)
(0.943944 -0.0417786 -5.96456e-22)
(0.931081 -0.023304 1.08992e-21)
(0.923599 0.000844526 5.94706e-21)
(0.9251 0.0270509 3.61038e-21)
(0.934652 0.0502894 -1.91711e-21)
(0.949961 0.0675801 -1.3267e-21)
(0.96746 0.0769462 8.56991e-23)
(0.991484 0.0887129 -1.73613e-22)
(1.00664 0.085221 -9.09707e-23)
(1.0187 0.0758457 -4.86897e-22)
(1.02275 0.06809 -3.34915e-22)
(1.02512 0.0581555 5.73755e-22)
(1.02505 0.0490869 1.15575e-22)
(1.0234 0.0410887 -1.412e-22)
(1.02132 0.0342196 -2.78571e-23)
(1.0193 0.0283569 -9.04555e-25)
(1.01746 0.023302 0)
(1.01574 0.0188311 0)
(1.01423 0.0148162 0)
(1.01299 0.0111666 0)
(1.01204 0.00778245 0)
(1.01142 0.00457725 0)
(1.01114 0.00147064 0)
(1.01629 -0.00204832 0)
(1.01647 -0.00608273 0)
(1.01691 -0.0103648 0)
(1.01757 -0.0147909 0)
(1.0184 -0.0195634 0)
(1.01934 -0.0247654 0)
(1.0203 -0.0305111 0)
(1.02094 -0.0367895 1.56206e-23)
(1.02054 -0.0435192 -1.43845e-22)
(1.01932 -0.0506192 4.19633e-22)
(1.01731 -0.0583007 -1.63072e-22)
(1.01414 -0.0667295 5.34553e-22)
(1.00901 -0.0756095 -1.21676e-21)
(0.998819 -0.0803113 -5.12273e-22)
(0.989219 -0.0848533 -1.12706e-21)
(0.972024 -0.090261 4.93969e-22)
(0.94823 -0.0886686 -1.1422e-24)
(0.923121 -0.0768222 -3.33521e-21)
(0.897203 -0.0525739 1.97327e-21)
(0.879345 -0.0143549 2.68786e-21)
(0.879209 0.0310034 4.03254e-21)
(0.897141 0.0713916 2.0928e-21)
(0.92742 0.0978635 1.3193e-21)
(0.959513 0.109357 -4.5742e-21)
(0.989117 0.110771 1.50742e-21)
(1.01105 0.102436 -1.30585e-21)
(1.02422 0.0916274 -6.456e-22)
(1.03826 0.0781292 1.5447e-22)
(1.03899 0.0659593 -2.58735e-22)
(1.03746 0.0545295 -1.21198e-24)
(1.03421 0.0445781 7.27025e-25)
(1.03044 0.0362905 -1.0158e-22)
(1.0268 0.029572 6.94378e-24)
(1.02391 0.024063 0)
(1.02149 0.0193457 0)
(1.01942 0.0151765 0)
(1.01774 0.011412 0)
(1.01649 0.00796599 0)
(1.01566 0.00471866 0)
(1.01528 0.00160793 0)
(1.02189 -0.00207039 0)
(1.02221 -0.0064982 0)
(1.02293 -0.0109575 0)
(1.02401 -0.0157877 0)
(1.02542 -0.0210684 0)
(1.02711 -0.0269201 0)
(1.02895 -0.0334734 1.22948e-23)
(1.03016 -0.0407262 -5.41334e-23)
(1.03027 -0.0485621 4.39431e-23)
(1.03009 -0.0572464 4.47678e-23)
(1.02942 -0.0674382 -3.45938e-23)
(1.02786 -0.0793829 -1.12691e-22)
(1.0242 -0.0939582 4.18386e-22)
(1.01218 -0.10481 -1.18089e-21)
(1.00061 -0.116516 -1.08238e-21)
(0.9812 -0.131277 4.49924e-22)
(0.952105 -0.1334 -2.00701e-21)
(0.908064 -0.129451 1.44715e-21)
(0.858545 -0.103327 2.36522e-21)
(0.816063 -0.0456946 -2.81659e-22)
(0.807187 0.0341721 -1.44746e-21)
(0.838797 0.104599 5.84364e-22)
(0.893199 0.144573 3.13052e-21)
(0.951996 0.156076 6.92066e-22)
(0.994707 0.146708 -7.26196e-22)
(1.02957 0.130504 -3.35315e-22)
(1.04413 0.109724 -6.61993e-22)
(1.05834 0.0893574 8.10325e-23)
(1.05657 0.0711846 -1.89353e-22)
(1.05239 0.0574338 5.45783e-23)
(1.04675 0.0461242 5.95e-23)
(1.04081 0.03686 -7.73721e-23)
(1.03511 0.0294868 5.38504e-23)
(1.03062 0.0237143 3.94551e-24)
(1.02735 0.018984 0)
(1.02465 0.0148664 0)
(1.02251 0.0111758 0)
(1.02093 0.00778847 0)
(1.01989 0.00457655 0)
(1.01941 0.00148019 0)
(1.02769 -0.00225962 0)
(1.0282 -0.00661431 0)
(1.02927 -0.0112391 0)
(1.0309 -0.0162181 0)
(1.03306 -0.0216574 0)
(1.03571 -0.0278017 0)
(1.03859 -0.0347813 2.34806e-25)
(1.04053 -0.0425459 -6.28973e-23)
(1.0418 -0.0511661 4.5835e-23)
(1.04352 -0.0612776 1.37811e-22)
(1.04538 -0.0735959 1.34696e-22)
(1.04697 -0.0891167 -4.78181e-22)
(1.04773 -0.109157 2.93791e-22)
(1.03852 -0.126516 -3.99023e-22)
(1.02993 -0.147857 -2.14254e-22)
(1.00601 -0.174276 2.11109e-22)
(0.971101 -0.196264 6.63132e-23)
(0.908881 -0.218915 -4.99692e-23)
(0.810263 -0.211807 1.74543e-21)
(0.69582 -0.129268 2.86147e-22)
(0.650534 0.0372147 5.07498e-22)
(0.728102 0.192086 1.66987e-22)
(0.859187 0.252259 -8.53091e-22)
(0.962821 0.238373 -3.17696e-22)
(1.03072 0.200639 -5.36918e-23)
(1.0689 0.159564 -8.8988e-22)
(1.07754 0.121438 -9.66104e-23)
(1.08494 0.0912184 -6.18395e-23)
(1.07734 0.0707788 6.56026e-23)
(1.06917 0.0562487 -6.15013e-24)
(1.06034 0.0446464 -4.4155e-23)
(1.05178 0.0352379 5.873e-24)
(1.04383 0.0278199 4.01511e-23)
(1.03735 0.0221473 4.8098e-24)
(1.03301 0.0176788 0)
(1.02967 0.0138293 0)
(1.02707 0.0103973 0)
(1.02516 0.00721912 0)
(1.02393 0.00429614 0)
(1.02336 0.00138373 0)
(1.03339 -0.00201352 0)
(1.03411 -0.00625508 0)
(1.03559 -0.0107216 0)
(1.03783 -0.0154702 0)
(1.04085 -0.0207921 0)
(1.04463 -0.0268702 0)
(1.04857 -0.0337896 -9.05624e-24)
(1.05151 -0.0414767 -8.39744e-24)
(1.0547 -0.0504037 3.88344e-23)
(1.05922 -0.0614017 2.7606e-23)
(1.06482 -0.0749358 -9.48096e-23)
(1.07117 -0.0917756 1.76828e-23)
(1.07865 -0.113247 3.31164e-23)
(1.07611 -0.137923 -5.48238e-23)
(1.07585 -0.169367 7.51824e-23)
(1.06605 -0.211537 5.82656e-24)
(1.04041 -0.266742 -1.11345e-22)
(0.981467 -0.35376 1.78996e-22)
(0.820193 -0.451303 -2.07028e-21)
(0.459439 -0.4242 -6.19707e-20)
(0.187461 0.0602286 -7.51517e-21)
(0.519674 0.514571 -3.26782e-20)
(0.897946 0.496751 1.26008e-21)
(1.06518 0.35865 -5.85821e-24)
(1.12015 0.246698 -6.34307e-23)
(1.13314 0.165121 7.64192e-23)
(1.12288 0.122192 3.26848e-22)
(1.11418 0.079328 3.72437e-23)
(1.09954 0.06237 -3.25411e-23)
(1.08613 0.0492226 -1.07892e-23)
(1.07362 0.0389676 -6.26305e-23)
(1.06234 0.0308566 5.68584e-23)
(1.05221 0.0243779 -1.21368e-23)
(1.04372 0.0193414 4.50897e-24)
(1.03816 0.0154724 0)
(1.03425 0.0122084 0)
(1.03125 0.00926243 0)
(1.02907 0.00654264 0)
(1.02764 0.00386361 0)
(1.02698 0.00140151 0)
(1.03875 -0.00193317 0)
(1.03966 -0.0056327 0)
(1.04153 -0.00948067 0)
(1.04437 -0.0136876 0)
(1.04827 -0.018454 0)
(1.05322 -0.0239472 0)
(1.0582 -0.0301908 -1.86736e-23)
(1.06249 -0.0372334 -1.82119e-23)
(1.0681 -0.0457019 -2.06839e-23)
(1.07595 -0.0564074 -2.86809e-24)
(1.08601 -0.0698175 2.27e-24)
(1.09796 -0.086123 5.68596e-23)
(1.11231 -0.105645 4.28719e-24)
(1.11776 -0.133679 4.44269e-23)
(1.13268 -0.165035 -5.68948e-23)
(1.14384 -0.212608 -1.20318e-22)
(1.1599 -0.281062 6.78364e-23)
(1.19012 -0.405066 8.65171e-22)
(0.858711 -0.452399 -7.00971e-20)
(1.16497 0.614754 4.96362e-20)
(1.31866 0.377118 3.19234e-23)
(1.25461 0.217668 -7.14665e-23)
(1.20879 0.129918 -2.7927e-24)
(1.17082 0.0936523 -7.93273e-23)
(1.14198 0.0545304 2.10502e-22)
(1.11892 0.0436465 -5.95423e-23)
(1.1001 0.0352776 -8.32209e-23)
(1.08438 0.0288403 -1.75532e-23)
(1.071 0.0236454 -4.281e-23)
(1.05923 0.0191968 -2.46834e-23)
(1.04918 0.0154898 -1.3139e-23)
(1.04247 0.0125545 0)
(1.03808 0.0100349 0)
(1.03477 0.00763953 0)
(1.03239 0.00538163 0)
(1.03087 0.00319545 0)
(1.03017 0.000939152 0)
(1.04315 -0.0012582 0)
(1.04436 -0.00435778 0)
(1.04665 -0.00748644 0)
(1.05013 -0.0109039 0)
(1.05483 -0.0146765 0)
(1.06081 -0.0190343 0)
(1.06677 -0.0240071 -2.33622e-24)
(1.07263 -0.0298186 1.5213e-23)
(1.08085 -0.0370842 -1.27583e-23)
(1.09198 -0.0463463 -1.846e-23)
(1.1063 -0.0580262 9.17461e-23)
(1.12348 -0.0720746 -1.03963e-22)
(1.1438 -0.0881778 8.14783e-23)
(1.15514 -0.113062 1.23156e-23)
(1.18243 -0.136087 1.19762e-21)
(1.20892 -0.170714 -1.30661e-22)
(1.25563 -0.21144 8.93104e-24)
(1.31887 -0.247458 1.63945e-21)
(0.00849003 0.0221706 3.42151e-19)
(0.0787935 0.0101194 -2.24834e-19)
(1.49936 0.162902 -4.64154e-22)
(1.35099 0.100919 1.44414e-23)
(1.26096 0.0539454 1.19236e-21)
(1.20486 0.0394819 2.15841e-21)
(1.15636 0.0173365 3.14737e-22)
(1.12879 0.0172306 1.52617e-23)
(1.10739 0.0162848 2.3567e-23)
(1.09046 0.0154333 -7.84188e-23)
(1.07621 0.0143111 7.86503e-24)
(1.06379 0.012785 2.51848e-23)
(1.05303 0.0109861 4.75927e-24)
(1.04572 0.00929976 0)
(1.04109 0.00765729 0)
(1.03763 0.00595425 0)
(1.03514 0.00420825 0)
(1.03358 0.0025866 0)
(1.03282 0.000852553 0)
(1.04681 -0.00122494 2.8436e-25)
(1.04806 -0.00296397 0)
(1.05066 -0.00496623 0)
(1.05451 -0.00713962 0)
(1.05974 -0.00953804 0)
(1.06645 -0.0123067 0)
(1.07346 -0.0155704 -3.58866e-24)
(1.08109 -0.0196737 8.38863e-24)
(1.0918 -0.0251102 -1.93117e-23)
(1.10583 -0.0320866 7.52178e-23)
(1.1233 -0.040741 -3.40978e-23)
(1.14412 -0.0512178 -1.93576e-22)
(1.16808 -0.0629464 -1.02924e-22)
(1.18331 -0.0831495 1.63793e-22)
(1.2131 -0.097859 2.69662e-24)
(1.24034 -0.117454 3.20439e-22)
(1.2837 -0.128998 1.23645e-21)
(1.1415 -0.0852995 -5.46087e-23)
(0.0175827 0.0299241 2.38011e-21)
(0.343696 -0.00742368 1.91265e-20)
(1.47276 -0.049231 3.11804e-22)
(1.36243 -0.037604 -1.62296e-21)
(1.26594 -0.0369486 1.68777e-22)
(1.20839 -0.0250336 -7.77032e-22)
(1.15335 -0.0235889 -1.64611e-22)
(1.12649 -0.0113285 1.20441e-22)
(1.10592 -0.00376778 -3.32269e-22)
(1.08984 0.00147593 9.01475e-23)
(1.07662 0.00456958 -3.31397e-23)
(1.06523 0.0061166 -2.38542e-23)
(1.05494 0.00651884 -5.10432e-24)
(1.04773 0.00612535 0)
(1.04324 0.00539709 0)
(1.03988 0.00444533 0)
(1.03741 0.00333519 0)
(1.03574 0.00201219 0)
(1.03494 0.000828239 0)
(1.04948 -0.000155612 5.33775e-26)
(1.05066 -0.00102362 0)
(1.05309 -0.00186214 0)
(1.05702 -0.00267702 0)
(1.06255 -0.00350433 0)
(1.06973 -0.0043761 0)
(1.07788 -0.00558302 5.73994e-25)
(1.08709 -0.00757028 -8.45862e-24)
(1.0998 -0.0105893 2.64505e-23)
(1.11587 -0.0146026 -2.44427e-23)
(1.13523 -0.0195517 9.65278e-23)
(1.15861 -0.0259926 3.34403e-23)
(1.18435 -0.0337646 -7.10034e-23)
(1.2018 -0.0508065 -4.21761e-22)
(1.23008 -0.0628504 -5.54974e-22)
(1.25168 -0.0769717 2.03657e-21)
(1.27144 -0.0779667 8.62747e-23)
(0.917658 -0.00293981 -9.7139e-22)
(-0.0791102 0.105884 8.36213e-22)
(-0.21509 0.219775 -1.40953e-21)
(-0.0719951 0.397548 -9.6467e-25)
(0.269742 0.250232 -1.29572e-22)
(0.812369 -0.106115 -1.22427e-21)
(1.43063 -0.211674 -7.65826e-22)
(1.31675 -0.16376 3.75251e-22)
(1.22666 -0.119123 2.01305e-23)
(1.17996 -0.0821514 -2.0392e-21)
(1.13011 -0.0556369 8.69973e-22)
(1.11045 -0.0350015 -3.58379e-22)
(1.09511 -0.0207298 -2.00282e-22)
(1.08276 -0.010319 -2.30746e-22)
(1.07232 -0.00358495 1.13698e-22)
(1.06309 0.00063994 7.13311e-25)
(1.05465 0.00283667 7.76319e-24)
(1.04846 0.00348616 0)
(1.04432 0.00332922 0)
(1.04118 0.00282547 0)
(1.03891 0.00214425 0)
(1.03742 0.00131088 0)
(1.03678 0.0003389 0)
(1.04941 0.000340032 -1.07841e-23)
(1.05091 0.000954648 0)
(1.05352 0.00153927 0)
(1.05744 0.00216535 0)
(1.06293 0.00297002 0)
(1.0702 0.00409928 0)
(1.07925 0.00525325 -1.80868e-26)
(1.0897 0.00566811 2.94597e-23)
(1.10336 0.00551031 2.04865e-23)
(1.12043 0.00503456 -1.1474e-22)
(1.14088 0.00434122 1.35544e-22)
(1.16546 0.00261012 4.92469e-22)
(1.19314 0.000715794 -6.46434e-22)
(1.21577 -0.0143748 8.42692e-22)
(1.24696 -0.0266764 -1.06074e-22)
(1.27875 -0.0475512 7.67999e-22)
(1.27228 -0.0769064 9.17414e-22)
(0.67368 -0.0647782 -1.56132e-20)
(-0.0902469 -0.142549 2.83367e-22)
(-0.353404 -0.186316 -1.22346e-20)
(0.0485965 -0.260192 -2.4368e-22)
(0.598958 -0.360524 5.29269e-21)
(1.19826 -0.538448 -2.31166e-21)
(1.28385 -0.393797 -9.46993e-22)
(1.20891 -0.264932 1.22543e-21)
(1.14865 -0.174254 5.26651e-22)
(1.12593 -0.114763 3.73712e-22)
(1.09138 -0.071707 6.1032e-22)
(1.08381 -0.0454375 -1.23106e-21)
(1.07643 -0.0286167 -2.88522e-22)
(1.07015 -0.0163826 4.03737e-22)
(1.06434 -0.00777172 -1.76613e-22)
(1.05837 -0.0022026 -2.69426e-23)
(1.05275 0.000777295 6.49695e-25)
(1.04848 0.00180955 0)
(1.04498 0.00192176 0)
(1.04217 0.00170773 0)
(1.0401 0.00124584 0)
(1.03878 0.000817863 0)
(1.03817 0.000172352 7.73326e-23)
(1.0482 0.00068686 1.02006e-23)
(1.04945 0.00235987 0)
(1.05186 0.00434499 0)
(1.05553 0.00648587 0)
(1.06064 0.00894553 0)
(1.06745 0.0119858 0)
(1.0766 0.0155657 0)
(1.08803 0.018913 6.49062e-24)
(1.10183 0.0220652 -1.74787e-23)
(1.11863 0.0256396 -3.04417e-23)
(1.13902 0.0301326 -2.36198e-23)
(1.16365 0.0346376 8.08136e-23)
(1.1936 0.0410236 -1.30573e-22)
(1.23183 0.0432915 -7.09982e-23)
(1.26493 0.0261976 5.54005e-22)
(1.32083 0.0107791 1.00936e-21)
(1.34465 -0.0455817 1.77468e-22)
(0.825818 -0.166908 -2.27089e-20)
(0.191256 -0.438966 1.22097e-21)
(-0.164371 -0.717354 8.51735e-21)
(0.144662 -0.861121 -1.50755e-20)
(0.71377 -0.839489 -5.19338e-21)
(0.96406 -0.668071 -5.99275e-21)
(1.01787 -0.446254 -1.66701e-20)
(1.03105 -0.272126 2.26307e-22)
(1.04758 -0.177254 -5.77322e-22)
(1.04015 -0.0996277 -3.80835e-22)
(1.04984 -0.061285 5.57716e-22)
(1.05381 -0.0398694 -3.31387e-22)
(1.0553 -0.0251921 1.35771e-23)
(1.05555 -0.0145744 1.24694e-22)
(1.05433 -0.00717268 -1.44708e-23)
(1.05222 -0.00221432 -1.9698e-23)
(1.05024 0.000671422 0)
(1.04796 0.00152086 0)
(1.04537 0.00159891 0)
(1.04306 0.00146544 0)
(1.0412 0.00113689 0)
(1.03984 0.000749 0)
(1.03909 0.000469947 -6.88988e-24)
(1.04555 0.00113781 -3.3631e-24)
(1.04659 0.00364789 0)
(1.04858 0.00648628 0)
(1.05166 0.00973932 0)
(1.05593 0.0135696 0)
(1.0617 0.0182405 0)
(1.07002 0.0239386 0)
(1.08127 0.0302604 0)
(1.09459 0.0371741 9.22699e-24)
(1.10979 0.0452916 -3.90675e-23)
(1.12825 0.0557224 9.922e-24)
(1.15123 0.0681459 -2.06287e-22)
(1.18008 0.0852901 4.83844e-22)
(1.21912 0.106397 -1.18835e-22)
(1.26441 0.102753 2.00381e-22)
(1.33802 0.118498 -5.98263e-22)
(1.42412 0.101659 -3.16108e-22)
(1.19355 -0.0177356 -1.48844e-21)
(0.601641 -0.317029 1.2401e-20)
(0.207105 -0.651847 1.0252e-21)
(0.19635 -0.845472 -1.64637e-21)
(0.437844 -0.747382 -8.46433e-22)
(0.662336 -0.494968 1.32977e-21)
(0.790926 -0.324124 -9.45549e-21)
(0.893775 -0.195502 -1.26018e-22)
(0.953149 -0.121557 8.85657e-22)
(0.989361 -0.0475766 -1.37189e-22)
(1.01552 -0.0298706 -1.58622e-22)
(1.03105 -0.0184475 1.46039e-22)
(1.0399 -0.0109617 -5.49225e-23)
(1.04437 -0.00564508 5.38632e-23)
(1.04624 -0.00189107 -1.8866e-23)
(1.04732 0.000700321 0)
(1.048 0.00182502 0)
(1.04728 0.00187997 0)
(1.04531 0.00164764 0)
(1.04329 0.0013911 2.43392e-23)
(1.04166 0.00108099 3.36596e-23)
(1.04055 0.000662105 2.00715e-23)
(1.03999 0.000208831 0)
(1.04185 0.00144221 0)
(1.04255 0.00453592 0)
(1.04402 0.00795568 0)
(1.04628 0.0118668 0)
(1.0494 0.0165348 0)
(1.05366 0.0222487 0)
(1.06032 0.0293158 0)
(1.07002 0.0377002 0)
(1.08141 0.0477743 -1.93335e-29)
(1.09373 0.0601978 9.01123e-24)
(1.10792 0.0763623 -6.5331e-24)
(1.12547 0.0965736 1.08001e-22)
(1.14703 0.123907 -4.21047e-22)
(1.17757 0.160438 7.11086e-22)
(1.22263 0.181706 3.20136e-21)
(1.28285 0.234441 -3.14193e-22)
(1.38403 0.288927 -4.19184e-21)
(1.39309 0.335798 -5.20799e-21)
(1.05725 0.173526 9.3359e-22)
(0.6375 -0.12128 2.97304e-20)
(0.340371 -0.360112 -4.06364e-21)
(0.23257 -0.419997 -1.69866e-21)
(0.356206 -0.317082 1.49912e-21)
(0.625021 -0.158401 -1.02866e-21)
(0.80717 -0.0537013 1.03206e-21)
(0.89156 -0.01727 4.05222e-22)
(0.966668 0.0274007 6.88144e-24)
(1.0034 0.0155607 -1.24424e-22)
(1.02444 0.0128629 -3.15937e-23)
(1.03554 0.00905491 2.36271e-23)
(1.04112 0.0068587 -4.1537e-24)
(1.04402 0.00546042 -8.01463e-26)
(1.0461 0.00456372 0)
(1.04768 0.00353142 0)
(1.04743 0.00251996 0)
(1.04553 0.00178902 0)
(1.04348 0.00125443 0)
(1.04187 0.000803131 0)
(1.04081 0.000399979 0)
(1.04016 5.40809e-06 -3.61491e-24)
(1.03757 0.00155103 0)
(1.03788 0.00485412 0)
(1.03869 0.00848771 0)
(1.04 0.0126403 0)
(1.0418 0.0176095 0)
(1.04435 0.0236387 0)
(1.04893 0.0311375 0)
(1.05612 0.0404092 0)
(1.06409 0.0521496 0)
(1.07176 0.0671416 0)
(1.07953 0.0868758 -2.35007e-24)
(1.08806 0.11205 -3.11529e-25)
(1.09808 0.144992 -4.2779e-24)
(1.1117 0.188641 8.20506e-24)
(1.14553 0.229428 7.86903e-21)
(1.17002 0.299073 7.07299e-23)
(1.21888 0.386828 7.90922e-21)
(1.29997 0.538949 2.95168e-21)
(1.20019 0.657168 -4.23464e-21)
(0.922735 0.630038 7.24118e-21)
(0.607081 0.477812 3.43966e-21)
(0.376313 0.268287 -2.10887e-21)
(0.355664 0.081042 -4.32203e-22)
(0.500437 0.00362723 -4.42972e-23)
(0.736305 0.104333 1.31545e-20)
(0.889084 0.112732 6.71915e-23)
(0.990349 0.0987734 -1.13206e-22)
(1.02371 0.0615611 7.26771e-23)
(1.03889 0.0428672 -2.57152e-23)
(1.04492 0.027306 -3.76394e-24)
(1.04714 0.0176404 0)
(1.04792 0.0113245 0)
(1.04877 0.00723592 0)
(1.04968 0.00434306 0)
(1.04879 0.002482 0)
(1.04642 0.00134404 0)
(1.04407 0.000630217 0)
(1.04225 0.000181554 0)
(1.04098 -8.96762e-06 0)
(1.04014 -6.11682e-05 0)
(1.03312 0.00153513 0)
(1.03306 0.00470231 0)
(1.03323 0.00811038 0)
(1.03359 0.0119741 0)
(1.03409 0.0165545 0)
(1.03491 0.0220672 0)
(1.03713 0.0290541 0)
(1.04111 0.038152 0)
(1.04468 0.0501007 0)
(1.04664 0.0655333 0)
(1.04702 0.0857378 0)
(1.04545 0.111841 4.9411e-25)
(1.04307 0.14481 1.48549e-23)
(1.03881 0.191409 3.07989e-23)
(1.05416 0.238877 2.78873e-21)
(1.06213 0.301759 -1.25487e-21)
(1.05311 0.384634 1.92131e-21)
(1.04478 0.518763 1.28835e-21)
(1.02831 0.677253 8.50664e-22)
(0.937063 0.775283 5.88197e-21)
(0.79725 0.763976 3.30913e-21)
(0.674744 0.64134 3.01559e-21)
(0.622686 0.460597 -2.93131e-21)
(0.603078 0.306656 3.2778e-22)
(0.676376 0.251907 -2.11056e-22)
(0.954045 0.215569 -3.61826e-21)
(1.06167 0.138043 -4.09978e-22)
(1.07433 0.0878977 4.02266e-24)
(1.072 0.0579316 1.18793e-24)
(1.06648 0.0358784 0)
(1.06116 0.0220069 0)
(1.05699 0.0128558 0)
(1.05465 0.00686246 0)
(1.05339 0.0030355 0)
(1.05094 0.000978183 0)
(1.04763 -7.26495e-05 0)
(1.04469 -0.000559409 0)
(1.04246 -0.000666148 0)
(1.0409 -0.000482488 0)
(1.03992 -0.000159562 0)
(1.0288 0.00137274 0)
(1.02858 0.00397121 0)
(1.02837 0.00669712 0)
(1.02809 0.00969881 0)
(1.02756 0.0131982 0)
(1.02679 0.0173888 0)
(1.02646 0.022857 0)
(1.02676 0.0305625 0)
(1.02575 0.0411278 0)
(1.02215 0.0549076 0)
(1.01548 0.0728502 8.9386e-24)
(1.00484 0.0964156 0)
(0.990176 0.125718 0)
(0.970765 0.167428 8.12459e-22)
(0.94711 0.22216 -2.16431e-21)
(0.952306 0.287337 4.72959e-21)
(0.928968 0.351208 1.59579e-22)
(0.888546 0.40589 -4.92063e-22)
(0.856373 0.48216 -1.93993e-21)
(0.823852 0.569541 -4.83002e-22)
(0.786579 0.637541 -1.08479e-21)
(0.772934 0.656157 -4.42707e-22)
(0.776592 0.631528 4.20012e-23)
(0.776165 0.542387 5.7427e-23)
(0.820348 0.375293 -2.05421e-23)
(1.14049 0.215584 -2.87321e-21)
(1.15759 0.119628 -3.66442e-22)
(1.13732 0.078693 0)
(1.11178 0.0485669 0)
(1.09265 0.0287019 6.74286e-23)
(1.07832 0.0159436 0)
(1.06823 0.0073982 0)
(1.06177 0.00187281 0)
(1.05736 -0.00122649 0)
(1.0528 -0.00238306 0)
(1.04832 -0.0026192 0)
(1.04472 -0.002379 0)
(1.04209 -0.00182796 -4.0058e-24)
(1.04031 -0.00110327 -2.87381e-24)
(1.03932 -0.000324218 0)
(1.02555 0.000827578 0)
(1.02539 0.0024987 0)
(1.02508 0.00418449 0)
(1.02445 0.00596931 0)
(1.02327 0.00796992 0)
(1.02136 0.01029 0)
(1.01881 0.0133647 0)
(1.01569 0.0182191 0)
(1.01068 0.0254145 0)
(1.00257 0.0350502 0)
(0.9902 0.0478208 -1.0647e-22)
(0.972033 0.0650733 0)
(0.947222 0.0873159 0)
(0.915738 0.118815 -1.03739e-22)
(0.875116 0.159537 -1.19423e-23)
(0.830168 0.223574 2.50337e-22)
(0.781764 0.317158 0)
(0.712948 0.41787 -1.03019e-22)
(0.666229 0.513266 2.74904e-21)
(0.670207 0.587158 8.60671e-21)
(0.727352 0.602303 3.13798e-22)
(0.82286 0.586988 9.50835e-21)
(0.932967 0.493232 -1.06235e-21)
(1.05217 0.36464 0)
(1.18812 0.206414 -1.06238e-21)
(1.27619 0.0922002 -1.17591e-20)
(1.2376 0.0460149 1.13719e-21)
(1.18309 0.0295969 0)
(1.14082 0.0137758 0)
(1.11194 0.00502663 8.80191e-22)
(1.09112 -0.00129387 0)
(1.0766 -0.00539382 0)
(1.06664 -0.0076581 0)
(1.0593 -0.0081334 0)
(1.05293 -0.00729098 0)
(1.0476 -0.00607863 7.24705e-24)
(1.04357 -0.00473957 -9.41743e-24)
(1.04071 -0.00336332 0)
(1.03889 -0.00197836 0)
(1.03801 -0.000648752 -2.21306e-23)
(1.02415 0.000161281 0)
(1.02397 0.000755486 0)
(1.02362 0.00123934 0)
(1.02291 0.00167663 0)
(1.02159 0.00198573 0)
(1.01928 0.00215204 0)
(1.01554 0.0023376 -3.56344e-24)
(1.01024 0.00322966 0)
(1.00268 0.00522886 0)
(0.991707 0.00824346 0)
(0.975436 0.0124115 0)
(0.951333 0.01846 0)
(0.917312 0.0276785 0)
(0.875633 0.0446463 1.42557e-21)
(0.803331 0.0706626 -1.70341e-23)
(0.719284 0.118179 -2.80929e-22)
(0.651249 0.175479 0)
(0.604666 0.216581 0)
(0.598982 0.239022 2.97843e-21)
(0.661891 0.239781 2.86589e-20)
(0.785441 0.205888 9.89501e-20)
(0.932314 0.188241 -1.87677e-20)
(1.08438 0.0953484 0)
(1.21776 0.0149557 0)
(1.32101 -0.0621722 0)
(1.33338 -0.0733066 -2.6276e-23)
(1.25461 -0.0562475 8.70599e-23)
(1.18977 -0.0411751 -3.53808e-23)
(1.14619 -0.0342661 0)
(1.11553 -0.0280882 0)
(1.09341 -0.0248757 0)
(1.07756 -0.0220967 0)
(1.06599 -0.0193471 3.18024e-23)
(1.05719 -0.0161616 1.30326e-23)
(1.05022 -0.0128061 6.56568e-25)
(1.04489 -0.0098337 0)
(1.04098 -0.00722034 0)
(1.03824 -0.00493554 0)
(1.03651 -0.0028746 0)
(1.03567 -0.000932539 0)
(1.02428 -0.000175775 0)
(1.02406 -0.000580071 0)
(1.02382 -0.00120378 0)
(1.0234 -0.00208352 0)
(1.02256 -0.003437 0)
(1.02077 -0.00541179 0)
(1.01722 -0.00811622 0)
(1.01172 -0.0114115 0)
(1.00403 -0.015445 -5.72176e-24)
(0.99314 -0.0207318 0)
(0.976687 -0.0280999 0)
(0.951136 -0.0382849 0)
(0.910647 -0.0486666 -2.58593e-21)
(0.851478 -0.0574884 -1.50758e-20)
(0.773219 -0.0516683 0)
(0.694044 -0.05659 0)
(0.650745 -0.08999 0)
(0.631352 -0.135413 0)
(0.641867 -0.188171 -6.42228e-22)
(0.716004 -0.23549 -7.14132e-21)
(0.858159 -0.282938 -8.78285e-20)
(1.00991 -0.283616 3.71865e-20)
(1.15358 -0.315842 0)
(1.25856 -0.300355 0)
(1.30319 -0.272027 0)
(1.27417 -0.204809 0)
(1.20481 -0.143743 1.65769e-21)
(1.15715 -0.103801 7.31255e-23)
(1.12566 -0.0774624 0)
(1.10149 -0.0588741 -9.11399e-25)
(1.08348 -0.0464885 -3.90271e-24)
(1.0697 -0.0371001 1.86961e-24)
(1.05898 -0.029608 0)
(1.05063 -0.0231733 0)
(1.04445 -0.0176341 0)
(1.04004 -0.0130906 0)
(1.0369 -0.00933377 0)
(1.03472 -0.00618545 0)
(1.03336 -0.00351677 0)
(1.03267 -0.00103513 0)
(1.02508 -0.000315184 0)
(1.02523 -0.0013479 0)
(1.02547 -0.00272599 0)
(1.02576 -0.00458294 0)
(1.02595 -0.0071773 0)
(1.0255 -0.0107971 0)
(1.02352 -0.0157788 0)
(1.01994 -0.0224382 0)
(1.01526 -0.031618 0)
(1.00895 -0.0445278 0)
(0.99869 -0.0629713 7.12414e-23)
(0.979622 -0.0893181 -3.53231e-22)
(0.937646 -0.123002 -1.01829e-20)
(0.872053 -0.159445 -3.66975e-21)
(0.808649 -0.190218 0)
(0.768632 -0.246668 0)
(0.753171 -0.325783 0)
(0.736771 -0.39654 0)
(0.739601 -0.465873 2.2709e-20)
(0.783007 -0.514406 -3.17108e-20)
(0.887562 -0.544831 -6.66149e-21)
(0.998982 -0.528534 1.3976e-20)
(1.09926 -0.502423 0)
(1.16067 -0.430382 0)
(1.17831 -0.345739 0)
(1.15033 -0.253506 0)
(1.11885 -0.18445 -9.37368e-22)
(1.10156 -0.13676 -4.61309e-22)
(1.08759 -0.101974 -2.80236e-22)
(1.0748 -0.0771675 -1.0719e-22)