/*--------------------------------*- C++ -*----------------------------------*\
| =========                 |                                                 |
| \\      /  F ield         | OpenFOAM: The Open Source CFD Toolbox           |
|  \\    /   O peration     | Version:  v2106                                 |
|   \\  /    A nd           | Website:  www.openfoam.com                      |
|    \\/     M anipulation  |                                                 |
\*---------------------------------------------------------------------------*/
FoamFile
{
    version     2.0;
    format      ascii;
    arch        "LSB;label=32;scalar=64";
    class       pointVectorField;
    location    "0";
    object      pointDisplacement;
}
// * * * * * * * * * * * * * * * * * * * * * * * * * * * * * * * * * * * * * //

dimensions      [0 1 0 0 0 0 0];

internalField   nonuniform List<vector> 
24440
(
(0 0 0)
(0 0 0)
(0 0 0)
(0 0 0)
(0 0 0)
(0 0 0)
(0 0 0)
(0 0 0)
(0 0 0)
(0 0 0)
(0 0 0)
(0 0 0)
(0 0 0)
(0 0 0)
(0 0 0)
(0 0 0)
(0 0 0)
(0 0 0)
(0 0 0)
(0 0 0)
(0 0 0)
(0 0 0)
(0 0 0)
(0 0 0)
(0 0 0)
(0 0 0)
(0 0 0)
(0 0 0)
(0 0 0)
(0 0 0)
(0 0 0)
(0 0 0)
(0 0 0)
(0 0 0)
(0 0 0)
(0 0 0)
(0 0 0)
(0 0 0)
(0 0 0)
(0 0 0)
(0 0 0)
(0 0 0)
(0 0 0)
(0 0 0)
(0 0 0)
(0 0 0)
(0 0 0)
(0 0 0)
(0 0 0)
(0 0 0)
(0 0 0)
(0 0 0)
(0 0 0)
(0 0 0)
(0 0 0)
(0 0 0)
(0 0 0)
(0 0 0)
(0 0 0)
(0 0 0)
(0 0 0)
(0 0 0)
(0 0 0)
(0 0 0)
(0 0 0)
(0 0 0)
(0 0 0)
(0 0 0)
(0 0 0)
(0 0 0)
(0 0 0)
(0 0 0)
(0 0 0)
(0 0 0)
(0 0 0)
(0 0 0)
(0 0 0)
(0 0 0)
(0 0 0)
(0 0 0)
(0 0 0)
(0 0 0)
(0 0 0)
(0 0 0)
(0 0 0)
(0 0 0)
(0 0 0)
(0 0 0)
(0 0 0)
(0 0 0)
(0 0 0)
(0 0 0)
(0 0 0)
(0 0 0)
(0 0 0)
(0 0 0)
(0 0 0)
(0 0 0)
(0 6.15673e-06 0)
(0 3.88247e-05 0)
(0 0.00010676 0)
(0 0.000164511 0)
(0 0.000186675 0)
(0 0.000164511 0)
(0 0.00010676 0)
(0 3.88247e-05 0)
(0 6.15673e-06 0)
(0 0 0)
(0 0 0)
(0 0 0)
(0 0 0)
(0 0 0)
(0 0 0)
(0 0 0)
(0 0 0)
(0 0 0)
(0 0 0)
(0 0 0)
(0 0 0)
(0 0 0)
(0 0 0)
(0 0 0)
(0 0 0)
(0 0 0)
(0 0 0)
(0 0 0)
(0 0 0)
(0 0 0)
(0 0 0)
(0 0 0)
(0 0 0)
(0 0 0)
(0 0 0)
(0 0 0)
(0 0 0)
(0 0 0)
(0 1.03108e-05 0)
(0 0.000136395 0)
(0 0.000401401 0)
(0 0.000723098 0)
(0 0.00103143 0)
(0 0.00124638 0)
(0 0.0014462 0)
(0 0.00151651 0)
(0 0.0014462 0)
(0 0.00124638 0)
(0 0.00103143 0)
(0 0.000723098 0)
(0 0.000401401 0)
(0 0.000136395 0)
(0 1.03108e-05 0)
(0 0 0)
(0 0 0)
(0 0 0)
(0 0 0)
(0 0 0)
(0 0 0)
(0 0 0)
(0 0 0)
(0 0 0)
(0 0 0)
(0 0 0)
(0 0 0)
(0 0 0)
(0 0 0)
(0 0 0)
(0 0 0)
(0 0 0)
(0 0 0)
(0 0 0)
(0 0 0)
(0 0 0)
(0 0 0)
(0 0 0)
(0 0 0)
(0 4.32909e-06 0)
(0 0.000179373 0)
(0 0.000611718 0)
(0 0.0012063 0)
(0 0.00181872 0)
(0 0.00250195 0)
(0 0.00309368 0)
(0 0.00346016 0)
(0 0.00381059 0)
(0 0.00393169 0)
(0 0.00381059 0)
(0 0.00346016 0)
(0 0.00309368 0)
(0 0.00250195 0)
(0 0.00181872 0)
(0 0.0012063 0)
(0 0.000611718 0)
(0 0.000179373 0)
(0 4.32909e-06 0)
(0 0 0)
(0 0 0)
(0 0 0)
(0 0 0)
(0 0 0)
(0 0 0)
(0 0 0)
(0 0 0)
(0 0 0)
(0 0 0)
(0 0 0)
(0 0 0)
(0 0 0)
(0 0 0)
(0 0 0)
(0 0 0)
(0 0 0)
(0 0 0)
(0 0 0)
(0 0 0)
(0 0 0)
(0 4.09336e-05 0)
(0 0.000425687 0)
(0 0.00113128 0)
(0 0.00198486 0)
(0 0.00304465 0)
(0 0.00411355 0)
(0 0.00503955 0)
(0 0.00590699 0)
(0 0.00652254 0)
(0 0.00689032 0)
(0 0.00705913 0)
(0 0.00689032 0)
(0 0.00652254 0)
(0 0.00590699 0)
(0 0.00503955 0)
(0 0.00411355 0)
(0 0.00304465 0)
(0 0.00198486 0)
(0 0.00113128 0)
(0 0.000425687 0)
(0 4.33351e-05 0)
(0 0 0)
(0 0 0)
(0 0 0)
(0 0 0)
(0 0 0)
(0 0 0)
(0 0 0)
(0 0 0)
(0 0 0)
(0 0 0)
(0 0 0)
(0 0 0)
(0 0 0)
(0 0 0)
(0 0 0)
(0 0 0)
(0 0 0)
(0 0 0)
(0 0 0)
(0 8.05073e-05 0)
(0 0.000564516 0)
(0 0.00140896 0)
(0 0.00258663 0)
(0 0.00398626 0)
(0 0.00544068 0)
(0 0.00677537 0)
(0 0.00804068 0)
(0 0.00851614 0)
(0 0.0090303 0)
(0 0.00946038 0)
(0 0.00979923 0)
(0 0.0100415 0)
(0 0.0102091 0)
(0 0.0103639 0)
(0 0.0104157 0)
(0 0.0103639 0)
(0 0.0102091 0)
(0 0.0100415 0)
(0 0.00979923 0)
(0 0.00946038 0)
(0 0.0090303 0)
(0 0.00851614 0)
(0 0.00804068 0)
(0 0.00677537 0)
(0 0.00544068 0)
(0 0.00398626 0)
(0 0.00258663 0)
(0 0.00137972 0)
(0 0.000510098 0)
(0 6.43306e-05 0)
(0 0 0)
(0 0 0)
(0 0 0)
(0 0 0)
(0 0 0)
(0 0 0)
(0 0 0)
(0 0 0)
(0 0 0)
(0 0 0)
(0 0 0)
(0 0 0)
(0 0 0)
(0 0 0)
(0 0 0)
(0 0 0)
(0 0 0)
(0 4.7353e-05 0)
(0 0.000541905 0)
(0 0.00150984 0)
(0 0.00284108 0)
(0 0.00440042 0)
(0 0.00623508 0)
(0 0.00711232 0)
(0 0.00788989 0)
(0 0.00875049 0)
(0 0.00955715 0)
(0 0.0102952 0)
(0 0.0109222 0)
(0 0.00951884 0)
(0 0.0101 0)
(0 0.0105587 0)
(0 0.0110213 0)
(0 0.0113842 0)
(0 0.0116429 0)
(0 0.0117979 0)
(0 0.0119622 0)
(0 0.0120172 0)
(0 0.0119622 0)
(0 0.0117979 0)
(0 0.0116429 0)
(0 0.0113842 0)
(0 0.0110213 0)
(0 0.0105587 0)
(0 0.0101 0)
(0 0.00951884 0)
(0 0.0109222 0)
(0 0.0102952 0)
(0 0.00955715 0)
(0 0.00875049 0)
(0 0.00788989 0)
(0 0.00711232 0)
(0 0.00623508 0)
(0 0.00440042 0)
(0 0.00284108 0)
(0 0.00145477 0)
(0 0.000518328 0)
(0 4.30034e-05 0)
(0 0 0)
(0 0 0)
(0 0 0)
(0 0 0)
(0 0 0)
(0 0 0)
(0 0 0)
(0 0 0)
(0 0 0)
(0 0 0)
(0 0 0)
(0 0 0)
(0 0 0)
(0 0 0)
(0 0 0)
(0 0 0)
(0 0.000299611 0)
(0 0.00122441 0)
(0 0.00261761 0)
(0 0.00436763 0)
(0 0.00631676 0)
(0 0.00829729 0)
(0 0.00730313 0)
(0 0.00825709 0)
(0 0.00917504 0)
(0 0.0100394 0)
(0 0.0108073 0)
(0 0.0115861 0)
(0 0.0122743 0)
(0 0.0128429 0)
(0 0.0115397 0)
(0 0.0120599 0)
(0 0.013379 0)
(0 0.013765 0)
(0 0.0124737 0)
(0 0.0128523 0)
(0 0.014149 0)
(0 0.0144192 0)
(0 0.0131209 0)
(0 0.013257 0)
(0 0.0145758 0)
(0 0.0147001 0)
(0 0.0134265 0)
(0 0.013483 0)
(0 0.0147563 0)
(0 0.0147001 0)
(0 0.0134265 0)
(0 0.013257 0)
(0 0.0145758 0)
(0 0.0144192 0)
(0 0.0131209 0)
(0 0.0128523 0)
(0 0.014149 0)
(0 0.013765 0)
(0 0.0124737 0)
(0 0.0120599 0)
(0 0.013379 0)
(0 0.0128429 0)
(0 0.0115397 0)
(0 0.0122743 0)
(0 0.0115861 0)
(0 0.0108073 0)
(0 0.0100394 0)
(0 0.00917504 0)
(0 0.00825709 0)
(0 0.00730313 0)
(0 0.00829729 0)
(0 0.00631676 0)
(0 0.00431506 0)
(0 0.00259695 0)
(0 0.0012231 0)
(0 0.000325725 0)
(0 0 0)
(0 0 0)
(0 0 0)
(0 0 0)
(0 0 0)
(0 0 0)
(0 0 0)
(0 0 0)
(0 0 0)
(0 0 0)
(0 0 0)
(0 0 0)
(0 0 0)
(0 0 0)
(0 0 0)
(0 6.53599e-05 0)
(0 0.000671488 0)
(0 0.00193555 0)
(0 0.00362645 0)
(0 0.00563663 0)
(0 0.00793968 0)
(0 0.0101581 0)
(0 0.00929473 0)
(0 0.0102997 0)
(0 0.00924826 0)
(0 0.0102826 0)
(0 0.0112443 0)
(0 0.0121919 0)
(0 0.0111929 0)
(0 0.0120242 0)
(0 0.0130463 0)
(0 0.0134359 0)
(0 0.0137986 0)
(0 0.0133055 0)
(0 0.012726 0)
(0 0.0134322 0)
(0 0.0139386 0)
(0 0.0142515 0)
(0 0.0137449 0)
(0 0.0145055 0)
(0 0.0149859 0)
(0 0.0152082 0)
(0 0.0147312 0)
(0 0.0152285 0)
(0 0.0156985 0)
(0 0.0158156 0)
(0 0.0153733 0)
(0 0.0156393 0)
(0 0.01607 0)
(0 0.0161313 0)
(0 0.0157106 0)
(0 0.0157872 0)
(0 0.0161988 0)
(0 0.0161864 0)
(0 0.015774 0)
(0 0.0156393 0)
(0 0.01607 0)
(0 0.0160119 0)
(0 0.0155782 0)
(0 0.0152285 0)
(0 0.0156985 0)
(0 0.015564 0)
(0 0.0150951 0)
(0 0.0145055 0)
(0 0.0149859 0)
(0 0.0147896 0)
(0 0.0142507 0)
(0 0.0134322 0)
(0 0.0139386 0)
(0 0.0135974 0)
(0 0.0130922 0)
(0 0.0120242 0)
(0 0.0130463 0)
(0 0.0121919 0)
(0 0.0111929 0)
(0 0.0102826 0)
(0 0.0112443 0)
(0 0.0102997 0)
(0 0.00924826 0)
(0 0.00929473 0)
(0 0.0101123 0)
(0 0.00793419 0)
(0 0.00572747 0)
(0 0.00359599 0)
(0 0.00191671 0)
(0 0.000705142 0)
(0 7.47424e-05 0)
(0 0 0)
(0 0 0)
(0 0 0)
(0 0 0)
(0 0 0)
(0 0 0)
(0 0 0)
(0 0 0)
(0 0 0)
(0 0 0)
(0 0 0)
(0 0 0)
(0 0 0)
(0 0 0)
(0 0.000213842 0)
(0 0.00108227 0)
(0 0.00254284 0)
(0 0.00446812 0)
(0 0.00669305 0)
(0 0.00914025 0)
(0 0.0114242 0)
(0 0.0108607 0)
(0 0.0119355 0)
(0 0.011204 0)
(0 0.0121805 0)
(0 0.0129323 0)
(0 0.0138325 0)
(0 0.0130701 0)
(0 0.0138581 0)
(0 0.0142662 0)
(0 0.0146173 0)
(0 0.0142657 0)
(0 0.0152576 0)
(0 0.0154265 0)
(0 0.0155627 0)
(0 0.0153954 0)
(0 0.0161517 0)
(0 0.0162868 0)
(0 0.0163745 0)
(0 0.0162422 0)
(0 0.016681 0)
(0 0.0167794 0)
(0 0.0168241 0)
(0 0.0167249 0)
(0 0.0169129 0)
(0 0.0169851 0)
(0 0.0169954 0)
(0 0.0169253 0)
(0 0.0169722 0)
(0 0.0170304 0)
(0 0.0170294 0)
(0 0.0169708 0)
(0 0.0169129 0)
(0 0.0169851 0)
(0 0.0169709 0)
(0 0.016896 0)
(0 0.016681 0)
(0 0.0167794 0)
(0 0.0167419 0)
(0 0.0166281 0)
(0 0.0161517 0)
(0 0.0162868 0)
(0 0.0162105 0)
(0 0.0160533 0)
(0 0.0152576 0)
(0 0.0154265 0)
(0 0.015581 0)
(0 0.015287 0)
(0 0.0149582 0)
(0 0.0138581 0)
(0 0.0142662 0)
(0 0.0146208 0)
(0 0.0138325 0)
(0 0.0130701 0)
(0 0.0121805 0)
(0 0.0129027 0)
(0 0.0119278 0)
(0 0.011204 0)
(0 0.0108737 0)
(0 0.0114581 0)
(0 0.00911727 0)
(0 0.00675972 0)
(0 0.00451497 0)
(0 0.0025723 0)
(0 0.00109771 0)
(0 0.000219118 0)
(0 0 0)
(0 0 0)
(0 0 0)
(0 0 0)
(0 0 0)
(0 0 0)
(0 0 0)
(0 0 0)
(0 0 0)
(0 0 0)
(0 0 0)
(0 0 0)
(0 0 0)
(0 0 0)
(0 0.000329739 0)
(0 0.00134448 0)
(0 0.00295868 0)
(0 0.00503603 0)
(0 0.00740157 0)
(0 0.00985655 0)
(0 0.0121955 0)
(0 0.0119057 0)
(0 0.012972 0)
(0 0.0124769 0)
(0 0.0134423 0)
(0 0.0139434 0)
(0 0.0148009 0)
(0 0.0143867 0)
(0 0.0151673 0)
(0 0.0153601 0)
(0 0.0156961 0)
(0 0.0155077 0)
(0 0.0163166 0)
(0 0.0164057 0)
(0 0.0165062 0)
(0 0.01642 0)
(0 0.0169366 0)
(0 0.0169796 0)
(0 0.0170155 0)
(0 0.0169776 0)
(0 0.0170851 0)
(0 0.0170851 0)
(0 0.0170851 0)
(0 0.0170851 0)
(0 0.0170851 0)
(0 0.0170851 0)
(0 0.0170851 0)
(0 0.0170851 0)
(0 0.0170851 0)
(0 0.0170851 0)
(0 0.0170851 0)
(0 0.0170851 0)
(0 0.0170851 0)
(0 0.0170851 0)
(0 0.0170851 0)
(0 0.0170851 0)
(0 0.0170851 0)
(0 0.0170851 0)
(0 0.0170851 0)
(0 0.0170851 0)
(0 0.0169366 0)
(0 0.0169796 0)
(0 0.0169322 0)
(0 0.0168874 0)
(0 0.0163166 0)
(0 0.0164057 0)
(0 0.0164818 0)
(0 0.0162495 0)
(0 0.016083 0)
(0 0.0151585 0)
(0 0.0153825 0)
(0 0.0155536 0)
(0 0.0147804 0)
(0 0.0143995 0)
(0 0.0135189 0)
(0 0.0139261 0)
(0 0.0129582 0)
(0 0.0125321 0)
(0 0.0118956 0)
(0 0.0122015 0)
(0 0.00985251 0)
(0 0.00738981 0)
(0 0.00501988 0)
(0 0.00294183 0)
(0 0.00133054 0)
(0 0.000321823 0)
(0 0 0)
(0 0 0)
(0 0 0)
(0 0 0)
(0 0 0)
(0 0 0)
(0 0 0)
(0 0 0)
(0 0 0)
(0 0 0)
(0 0 0)
(0 0 0)
(0 0 0)
(0 0 0)
(0 0.000349598 0)
(0 0.00138746 0)
(0 0.00302642 0)
(0 0.00512879 0)
(0 0.0075179 0)
(0 0.00999302 0)
(0 0.0123462 0)
(0 0.0123505 0)
(0 0.0134179 0)
(0 0.0132597 0)
(0 0.0142239 0)
(0 0.0143823 0)
(0 0.0152234 0)
(0 0.0150685 0)
(0 0.0158037 0)
(0 0.0158747 0)
(0 0.0161695 0)
(0 0.0161054 0)
(0 0.0167707 0)
(0 0.0167981 0)
(0 0.0168709 0)
(0 0.0168456 0)
(0 0.0170851 0)
(0 0.0170851 0)
(0 0.0170851 0)
(0 0.0170851 0)
(0 0.0170851 0)
(0 0.0170851 0)
(0 0.0170851 0)
(0 0.0170851 0)
(0 0.0170851 0)
(0 0.0170851 0)
(0 0.0170851 0)
(0 0.0170851 0)
(0 0.0170851 0)
(0 0.0170851 0)
(0 0.0170851 0)
(0 0.0170851 0)
(0 0.0170851 0)
(0 0.0170844 0)
(0 0.0170819 0)
(0 0.0167707 0)
(0 0.0167981 0)
(0 0.0168162 0)
(0 0.0166454 0)
(0 0.0165851 0)
(0 0.0158027 0)
(0 0.0158757 0)
(0 0.0159235 0)
(0 0.0152234 0)
(0 0.0150904 0)
(0 0.0142409 0)
(0 0.0143461 0)
(0 0.0133763 0)
(0 0.0132713 0)
(0 0.0123045 0)
(0 0.0123186 0)
(0 0.00996229 0)
(0 0.00748669 0)
(0 0.00509981 0)
(0 0.00300218 0)
(0 0.00137007 0)
(0 0.000340589 0)
(0 0 0)
(0 0 0)
(0 0 0)
(0 0 0)
(0 0 0)
(0 0 0)
(0 0 0)
(0 0 0)
(0 0 0)
(0 0 0)
(0 0 0)
(0 0 0)
(0 0 0)
(0 0 0)
(0 0.000285702 0)
(0 0.00124864 0)
(0 0.00280914 0)
(0 0.0048341 0)
(0 0.00715209 0)
(0 0.0095682 0)
(0 0.0118813 0)
(0 0.0122151 0)
(0 0.0132807 0)
(0 0.0134144 0)
(0 0.0143797 0)
(0 0.0142459 0)
(0 0.015091 0)
(0 0.0152218 0)
(0 0.0159229 0)
(0 0.0158854 0)
(0 0.01618 0)
(0 0.0162158 0)
(0 0.0168462 0)
(0 0.0168373 0)
(0 0.0169054 0)
(0 0.0169135 0)
(0 0.0170851 0)
(0 0.0170851 0)
(0 0.0170851 0)
(0 0.0170851 0)
(0 0.0170851 0)
(0 0.0170851 0)
(0 0.0170851 0)
(0 0.0170851 0)
(0 0.0170851 0)
(0 0.0170851 0)
(0 0.0170851 0)
(0 0.0170851 0)
(0 0.0170851 0)
(0 0.0170851 0)
(0 0.0170851 0)
(0 0.0170851 0)
(0 0.0168462 0)
(0 0.01683 0)
(0 0.0168211 0)
(0 0.0166506 0)
(0 0.01667 0)
(0 0.0159081 0)
(0 0.0158842 0)
(0 0.0158117 0)
(0 0.0151013 0)
(0 0.0152032 0)
(0 0.0143576 0)
(0 0.0142535 0)
(0 0.0132852 0)
(0 0.0133893 0)
(0 0.0122166 0)
(0 0.0119115 0)
(0 0.00959038 0)
(0 0.00716658 0)
(0 0.00484208 0)
(0 0.00281231 0)
(0 0.00124894 0)
(0 0.000285078 0)
(0 0 0)
(0 0 0)
(0 0 0)
(0 0 0)
(0 0 0)
(0 0 0)
(0 0 0)
(0 0 0)
(0 0 0)
(0 0 0)
(0 0 0)
(0 0 0)
(0 0 0)
(0 0 0)
(0 0.000144504 0)
(0 0.000907656 0)
(0 0.00225761 0)
(0 0.00407313 0)
(0 0.00633257 0)
(0 0.00864298 0)
(0 0.0108966 0)
(0 0.0114942 0)
(0 0.0125626 0)
(0 0.0129391 0)
(0 0.0139657 0)
(0 0.0135428 0)
(0 0.0144165 0)
(0 0.0148364 0)
(0 0.015576 0)
(0 0.0153987 0)
(0 0.0157202 0)
(0 0.0158923 0)
(0 0.016614 0)
(0 0.0165636 0)
(0 0.0166552 0)
(0 0.0167091 0)
(0 0.0170644 0)
(0 0.0170469 0)
(0 0.0170678 0)
(0 0.0170786 0)
(0 0.0170851 0)
(0 0.0170851 0)
(0 0.0170851 0)
(0 0.0170851 0)
(0 0.0170851 0)
(0 0.0170851 0)
(0 0.0170851 0)
(0 0.0170851 0)
(0 0.0170644 0)
(0 0.0170443 0)
(0 0.0170165 0)
(0 0.0170414 0)
(0 0.016614 0)
(0 0.0165636 0)
(0 0.016495 0)
(0 0.0162778 0)
(0 0.0164119 0)
(0 0.015576 0)
(0 0.0153987 0)
(0 0.0151975 0)
(0 0.0144165 0)
(0 0.0148364 0)
(0 0.0139396 0)
(0 0.0135428 0)
(0 0.0125626 0)
(0 0.0129731 0)
(0 0.0114942 0)
(0 0.0108966 0)
(0 0.00864298 0)
(0 0.00625096 0)
(0 0.00411317 0)
(0 0.00228387 0)
(0 0.000922029 0)
(0 0.00014936 0)
(0 0 0)
(0 0 0)
(0 0 0)
(0 0 0)
(0 0 0)
(0 0 0)
(0 0 0)
(0 0 0)
(0 0 0)
(0 0 0)
(0 0 0)
(0 0 0)
(0 0 0)
(0 0 0)
(0 1.78802e-05 0)
(0 0.00053077 0)
(0 0.00161626 0)
(0 0.00317822 0)
(0 0.00507386 0)
(0 0.00713682 0)
(0 0.00930157 0)
(0 0.0101224 0)
(0 0.0112231 0)
(0 0.0119448 0)
(0 0.0129644 0)
(0 0.0121867 0)
(0 0.0131518 0)
(0 0.0138511 0)
(0 0.0146658 0)
(0 0.0143392 0)
(0 0.014699 0)
(0 0.0150229 0)
(0 0.0158973 0)
(0 0.0157518 0)
(0 0.0158841 0)
(0 0.016005 0)
(0 0.01667 0)
(0 0.0165744 0)
(0 0.0166442 0)
(0 0.0167362 0)
(0 0.0170156 0)
(0 0.0169621 0)
(0 0.0169856 0)
(0 0.0170344 0)
(0 0.0170851 0)
(0 0.0170756 0)
(0 0.0170793 0)
(0 0.0170851 0)
(0 0.0170851 0)
(0 0.0170851 0)
(0 0.0170851 0)
(0 0.0170851 0)
(0 0.0170851 0)
(0 0.0170851 0)
(0 0.0170756 0)
(0 0.0170703 0)
(0 0.0170845 0)
(0 0.0170849 0)
(0 0.0170156 0)
(0 0.0169621 0)
(0 0.016933 0)
(0 0.0169913 0)
(0 0.01667 0)
(0 0.0165744 0)
(0 0.0164965 0)
(0 0.0165957 0)
(0 0.015909 0)
(0 0.0157755 0)
(0 0.015615 0)
(0 0.0153496 0)
(0 0.0156381 0)
(0 0.0146256 0)
(0 0.0143225 0)
(0 0.0139686 0)
(0 0.0131337 0)
(0 0.0138511 0)
(0 0.0129644 0)
(0 0.0121867 0)
(0 0.0112231 0)
(0 0.0119448 0)
(0 0.0101224 0)
(0 0.00930157 0)
(0 0.00713682 0)
(0 0.00507386 0)
(0 0.00317822 0)
(0 0.00161626 0)
(0 0.000495103 0)
(0 2.14774e-05 0)
(0 0 0)
(0 0 0)
(0 0 0)
(0 0 0)
(0 0 0)
(0 0 0)
(0 0 0)
(0 0 0)
(0 0 0)
(0 0 0)
(0 0 0)
(0 0 0)
(0 0 0)
(0 0 0)
(0 0 0)
(0 0.000163144 0)
(0 0.000859705 0)
(0 0.00202269 0)
(0 0.0035308 0)
(0 0.00541509 0)
(0 0.00736333 0)
(0 0.00828239 0)
(0 0.00936689 0)
(0 0.0102943 0)
(0 0.0112997 0)
(0 0.0103432 0)
(0 0.0112561 0)
(0 0.0122447 0)
(0 0.0131003 0)
(0 0.0120894 0)
(0 0.012787 0)
(0 0.0133663 0)
(0 0.0138532 0)
(0 0.0134903 0)
(0 0.0145006 0)
(0 0.0139944 0)
(0 0.0143073 0)
(0 0.0147869 0)
(0 0.0155036 0)
(0 0.0150696 0)
(0 0.0152431 0)
(0 0.015693 0)
(0 0.0161387 0)
(0 0.015754 0)
(0 0.015867 0)
(0 0.0162452 0)
(0 0.016468 0)
(0 0.0161131 0)
(0 0.0161757 0)
(0 0.0165117 0)
(0 0.0165701 0)
(0 0.0162423 0)
(0 0.0162253 0)
(0 0.0165567 0)
(0 0.016468 0)
(0 0.0161131 0)
(0 0.0160243 0)
(0 0.0163996 0)
(0 0.0161387 0)
(0 0.015754 0)
(0 0.0156128 0)
(0 0.0160043 0)
(0 0.0155036 0)
(0 0.0150696 0)
(0 0.0148451 0)
(0 0.0152839 0)
(0 0.0145006 0)
(0 0.0139944 0)
(0 0.0137005 0)
(0 0.0141879 0)
(0 0.0131003 0)
(0 0.0120894 0)
(0 0.0112561 0)
(0 0.0122447 0)
(0 0.0112997 0)
(0 0.0103432 0)
(0 0.00936689 0)
(0 0.0102943 0)
(0 0.00828239 0)
(0 0.00736333 0)
(0 0.00541509 0)
(0 0.0035308 0)
(0 0.00202269 0)
(0 0.000859705 0)
(0 0.000163144 0)
(0 0 0)
(0 0 0)
(0 0 0)
(0 0 0)
(0 0 0)
(0 0 0)
(0 0 0)
(0 0 0)
(0 0 0)
(0 0 0)
(0 0 0)
(0 0 0)
(0 0 0)
(0 0 0)
(0 0 0)
(0 0 0)
(0 0 0)
(0 0.00024585 0)
(0 0.00101518 0)
(0 0.00217625 0)
(0 0.0036162 0)
(0 0.00519343 0)
(0 0.00675039 0)
(0 0.00795863 0)
(0 0.00924341 0)
(0 0.00832161 0)
(0 0.00882329 0)
(0 0.0101111 0)
(0 0.0108764 0)
(0 0.00963348 0)
(0 0.0103745 0)
(0 0.0116574 0)
(0 0.0123473 0)
(0 0.0117089 0)
(0 0.0119553 0)
(0 0.012655 0)
(0 0.0134401 0)
(0 0.0128124 0)
(0 0.0130453 0)
(0 0.0136748 0)
(0 0.0142097 0)
(0 0.0135784 0)
(0 0.0136825 0)
(0 0.0143312 0)
(0 0.0146712 0)
(0 0.014065 0)
(0 0.0141358 0)
(0 0.0147414 0)
(0 0.014824 0)
(0 0.0142216 0)
(0 0.0141924 0)
(0 0.0147975 0)
(0 0.0146712 0)
(0 0.014065 0)
(0 0.0139658 0)
(0 0.0145727 0)
(0 0.0142097 0)
(0 0.0135784 0)
(0 0.0134286 0)
(0 0.0140598 0)
(0 0.0134401 0)
(0 0.0128124 0)
(0 0.0125526 0)
(0 0.0131777 0)
(0 0.0123473 0)
(0 0.0117089 0)
(0 0.0109711 0)
(0 0.0103745 0)
(0 0.0116574 0)
(0 0.0108764 0)
(0 0.00963348 0)
(0 0.00882329 0)
(0 0.0101111 0)
(0 0.00924341 0)
(0 0.00795863 0)
(0 0.00675039 0)
(0 0.00519343 0)
(0 0.00832161 0)
(0 0.0036162 0)
(0 0.00217625 0)
(0 0.00101518 0)
(0 0.00024585 0)
(0 0 0)
(0 0 0)
(0 0 0)
(0 0 0)
(0 0 0)
(0 0 0)
(0 0 0)
(0 0 0)
(0 0 0)
(0 0 0)
(0 0 0)
(0 0 0)
(0 0 0)
(0 0 0)
(0 0 0)
(0 0 0)
(0 0 0)
(0 0 0)
(0 3.11769e-06 0)
(0 0.000279294 0)
(0 0.000946437 0)
(0 0.00185468 0)
(0 0.00303571 0)
(0 0.00429527 0)
(0 0.00551309 0)
(0 0.00622402 0)
(0 0.00754361 0)
(0 0.00829176 0)
(0 0.00682329 0)
(0 0.00749942 0)
(0 0.00890821 0)
(0 0.00958411 0)
(0 0.00885781 0)
(0 0.0091551 0)
(0 0.00989319 0)
(0 0.0106899 0)
(0 0.0099235 0)
(0 0.010135 0)
(0 0.0109086 0)
(0 0.0114042 0)
(0 0.0106367 0)
(0 0.0108076 0)
(0 0.01158 0)
(0 0.0119485 0)
(0 0.0111662 0)
(0 0.0112332 0)
(0 0.0120172 0)
(0 0.0121077 0)
(0 0.0113237 0)
(0 0.0112869 0)
(0 0.0120722 0)
(0 0.0119485 0)
(0 0.0111662 0)
(0 0.0110728 0)
(0 0.0118526 0)
(0 0.0114042 0)
(0 0.0106367 0)
(0 0.0104411 0)
(0 0.011271 0)
(0 0.0106899 0)
(0 0.0099235 0)
(0 0.00968906 0)
(0 0.0104472 0)
(0 0.00958411 0)
(0 0.00885781 0)
(0 0.00811837 0)
(0 0.00749942 0)
(0 0.00890821 0)
(0 0.00829176 0)
(0 0.00682329 0)
(0 0.00622402 0)
(0 0.00754361 0)
(0 0.00551309 0)
(0 0.00429527 0)
(0 0.00303571 0)
(0 0.00185468 0)
(0 0.000946437 0)
(0 0.000279294 0)
(0 3.11769e-06 0)
(0 0 0)
(0 0 0)
(0 0 0)
(0 0 0)
(0 0 0)
(0 0 0)
(0 0 0)
(0 0 0)
(0 0 0)
(0 0 0)
(0 0 0)
(0 0 0)
(0 0 0)
(0 0 0)
(0 0 0)
(0 0 0)
(0 0 0)
(0 0 0)
(0 0 0)
(0 0 0)
(0 0.000146676 0)
(0 0.000610899 0)
(0 0.00123756 0)
(0 0.00208382 0)
(0 0.00308124 0)
(0 0.0036333 0)
(0 0.00484135 0)
(0 0.00547535 0)
(0 0.00417429 0)
(0 0.00469063 0)
(0 0.00607525 0)
(0 0.00662792 0)
(0 0.00589121 0)
(0 0.00613007 0)
(0 0.00688284 0)
(0 0.00754657 0)
(0 0.00675358 0)
(0 0.00686736 0)
(0 0.0076491 0)
(0 0.00822625 0)
(0 0.00741234 0)
(0 0.0075549 0)
(0 0.00837694 0)
(0 0.0086945 0)
(0 0.00785568 0)
(0 0.00791208 0)
(0 0.00875398 0)
(0 0.00884066 0)
(0 0.00799622 0)
(0 0.00795736 0)
(0 0.00880174 0)
(0 0.0086945 0)
(0 0.00785568 0)
(0 0.00777709 0)
(0 0.00861158 0)
(0 0.00822625 0)
(0 0.00741234 0)
(0 0.00724969 0)
(0 0.00805418 0)
(0 0.00754657 0)
(0 0.00675358 0)
(0 0.0065624 0)
(0 0.00734331 0)
(0 0.00662792 0)
(0 0.00589121 0)
(0 0.00516978 0)
(0 0.00469063 0)
(0 0.00607525 0)
(0 0.00547535 0)
(0 0.00417429 0)
(0 0.0036333 0)
(0 0.00484135 0)
(0 0.00308124 0)
(0 0.00208382 0)
(0 0.00123756 0)
(0 0.000610899 0)
(0 0.000146676 0)
(0 0 0)
(0 0 0)
(0 0 0)
(0 0 0)
(0 0 0)
(0 0 0)
(0 0 0)
(0 0 0)
(0 0 0)
(0 0 0)
(0 0 0)
(0 0 0)
(0 0 0)
(0 0 0)
(0 0 0)
(0 0 0)
(0 0 0)
(0 0 0)
(0 0 0)
(0 0 0)
(0 0 0)
(0 0 0)
(0 0 0)
(0 1.24906e-05 0)
(0 0.00021187 0)
(0 0.000591299 0)
(0 0.00124042 0)
(0 0.00157812 0)
(0 0.00252967 0)
(0 0.00297279 0)
(0 0.00192103 0)
(0 0.00225755 0)
(0 0.00340053 0)
(0 0.00380114 0)
(0 0.00316768 0)
(0 0.00333619 0)
(0 0.0039879 0)
(0 0.00443771 0)
(0 0.00375577 0)
(0 0.00391387 0)
(0 0.00461144 0)
(0 0.00504923 0)
(0 0.0043134 0)
(0 0.0044188 0)
(0 0.00516444 0)
(0 0.00540844 0)
(0 0.00464234 0)
(0 0.00468443 0)
(0 0.00545432 0)
(0 0.00552761 0)
(0 0.00475313 0)
(0 0.00471826 0)
(0 0.0054912 0)
(0 0.00540844 0)
(0 0.00464234 0)
(0 0.00458378 0)
(0 0.00534456 0)
(0 0.00504923 0)
(0 0.0043134 0)
(0 0.00419359 0)
(0 0.00491812 0)
(0 0.00443771 0)
(0 0.00375577 0)
(0 0.00358686 0)
(0 0.00425178 0)
(0 0.00380114 0)
(0 0.00316768 0)
(0 0.00257683 0)
(0 0.00225755 0)
(0 0.00340053 0)
(0 0.00297279 0)
(0 0.00192103 0)
(0 0.00157812 0)
(0 0.00252967 0)
(0 0.00124042 0)
(0 0.000591299 0)
(0 0.00021187 0)
(0 1.24906e-05 0)
(0 0 0)
(0 0 0)
(0 0 0)
(0 0 0)
(0 0 0)
(0 0 0)
(0 0 0)
(0 0 0)
(0 0 0)
(0 0 0)
(0 0 0)
(0 0 0)
(0 0 0)
(0 0 0)
(0 0 0)
(0 0 0)
(0 0 0)
(0 0 0)
(0 0 0)
(0 0 0)
(0 0 0)
(0 0 0)
(0 0 0)
(0 0 0)
(0 0 0)
(0 0 0)
(0 2.26417e-06 0)
(0 0.000170106 0)
(0 0.000296294 0)
(0 0.000821593 0)
(0 0.00106448 0)
(0 0.000441808 0)
(0 0.000597422 0)
(0 0.00130953 0)
(0 0.00154689 0)
(0 0.00106481 0)
(0 0.00117382 0)
(0 0.00160534 0)
(0 0.00197108 0)
(0 0.0014834 0)
(0 0.00157738 0)
(0 0.00208111 0)
(0 0.00236248 0)
(0 0.00181917 0)
(0 0.00188391 0)
(0 0.00243744 0)
(0 0.00259741 0)
(0 0.00202248 0)
(0 0.00204876 0)
(0 0.00262767 0)
(0 0.00268029 0)
(0 0.0020954 0)
(0 0.00206992 0)
(0 0.00265202 0)
(0 0.00259741 0)
(0 0.00202248 0)
(0 0.00198602 0)
(0 0.00255538 0)
(0 0.00236248 0)
(0 0.00181917 0)
(0 0.00174604 0)
(0 0.00227762 0)
(0 0.00197108 0)
(0 0.0014834 0)
(0 0.00138417 0)
(0 0.00185443 0)
(0 0.00154689 0)
(0 0.00106481 0)
(0 0.000716042 0)
(0 0.000597422 0)
(0 0.00130953 0)
(0 0.00106448 0)
(0 0.000441808 0)
(0 0.000296294 0)
(0 0.000821593 0)
(0 0.000170106 0)
(0 2.26417e-06 0)
(0 0 0)
(0 0 0)
(0 0 0)
(0 0 0)
(0 0 0)
(0 0 0)
(0 0 0)
(0 0 0)
(0 0 0)
(0 0 0)
(0 0 0)
(0 0 0)
(0 0 0)
(0 0 0)
(0 0 0)
(0 0 0)
(0 0 0)
(0 0 0)
(0 0 0)
(0 0 0)
(0 0 0)
(0 0 0)
(0 0 0)
(0 0 0)
(0 0 0)
(0 0 0)
(0 0 0)
(0 0 0)
(0 0 0)
(0 0 0)
(0 0 0)
(0 8.31543e-05 0)
(0 3.00759e-05 0)
(0 0 0)
(0 0.00013076 0)
(0 0.000218451 0)
(0 6.68785e-06 0)
(0 2.92323e-05 0)
(0 0.000314805 0)
(0 0.00041244 0)
(0 6.16401e-05 0)
(0 9.81489e-05 0)
(0 0.000504696 0)
(0 0.000585785 0)
(0 0.000133727 0)
(0 0.0001642 0)
(0 0.000650925 0)
(0 0.000696437 0)
(0 0.000186344 0)
(0 0.000197972 0)
(0 0.000719826 0)
(0 0.00073854 0)
(0 0.000207906 0)
(0 0.000197972 0)
(0 0.000719826 0)
(0 0.000696437 0)
(0 0.000186344 0)
(0 0.0001642 0)
(0 0.000650925 0)
(0 0.000585785 0)
(0 0.000133727 0)
(0 9.81489e-05 0)
(0 0.000504696 0)
(0 0.00041244 0)
(0 6.16401e-05 0)
(0 2.92323e-05 0)
(0 0.000314805 0)
(0 0.000218451 0)
(0 6.68785e-06 0)
(0 0 0)
(0 0.00013076 0)
(0 8.31543e-05 0)
(0 0 0)
(0 0 0)
(0 0 0)
(0 3.00759e-05 0)
(0 0 0)
(0 0 0)
(0 0 0)
(0 0 0)
(0 0 0)
(0 0 0)
(0 0 0)
(0 0 0)
(0 0 0)
(0 0 0)
(0 0 0)
(0 0 0)
(0 0 0)
(0 0 0)
(0 0 0)
(0 0 0)
(0 0 0)
(0 0 0)
(0 0 0)
(0 0 0)
(0 0 0)
(0 0 0)
(0 0 0)
(0 0 0)
(0 0 0)
(0 0 0)
(0 0 0)
(0 0 0)
(0 0 0)
(0 0 0)
(0 0 0)
(0 0 0)
(0 0 0)
(0 0 0)
(0 0 0)
(0 0 0)
(0 0 0)
(0 0 0)
(0 0 0)
(0 0 0)
(0 6.01031e-07 0)
(0 0 0)
(0 0 0)
(0 2.31297e-06 0)
(0 1.37618e-06 0)
(0 0 0)
(0 6.01031e-07 0)
(0 1.37618e-06 0)
(0 0 0)
(0 0 0)
(0 0 0)
(0 0 0)
(0 0 0)
(0 0 0)
(0 0 0)
(0 0 0)
(0 0 0)
(0 0 0)
(0 0 0)
(0 0 0)
(0 0 0)
(0 0 0)
(0 0 0)
(0 0 0)
(0 0 0)
(0 0 0)
(0 0 0)
(0 0 0)
(0 0 0)
(0 0 0)
(0 0 0)
(0 0 0)
(0 0 0)
(0 0 0)
(0 0 0)
(0 0 0)
(0 0 0)
(0 0 0)
(0 0 0)
(0 0 0)
(0 0 0)
(0 0 0)
(0 0 0)
(0 0 0)
(0 0 0)
(0 0 0)
(0 0 0)
(0 0 0)
(0 0 0)
(0 0 0)
(0 0 0)
(0 0 0)
(0 0 0)
(0 0 0)
(0 0 0)
(0 0 0)
(0 0 0)
(0 0 0)
(0 0 0)
(0 0 0)
(0 0 0)
(0 0 0)
(0 0 0)
(0 0 0)
(0 0 0)
(0 0 0)
(0 0 0)
(0 0 0)
(0 0 0)
(0 0 0)
(0 0 0)
(0 0 0)
(0 0 0)
(0 0 0)
(0 0 0)
(0 0 0)
(0 0 0)
(0 0 0)
(0 0 0)
(0 0 0)
(0 0 0)
(0 0 0)
(0 0 0)
(0 0 0)
(0 0 0)
(0 0 0)
(0 0 0)
(0 0 0)
(0 0 0)
(0 0 0)
(0 0 0)
(0 0 0)
(0 0 0)
(0 0 0)
(0 0 0)
(0 0 0)
(0 0 0)
(0 0 0)
(0 0 0)
(0 0 0)
(0 0 0)
(0 0 0)
(0 0 0)
(0 0 0)
(0 0 0)
(0 0 0)
(0 0 0)
(0 0 0)
(0 0 0)
(0 0 0)
(0 0 0)
(0 0 0)
(0 0 0)
(0 0 0)
(0 0 0)
(0 0 0)
(0 0 0)
(0 0 0)
(0 0 0)
(0 0 0)
(0 0 0)
(0 0 0)
(0 0 0)
(0 0 0)
(0 0 0)
(0 0 0)
(0 0 0)
(0 0 0)
(0 0 0)
(0 0 0)
(0 0 0)
(0 0 0)
(0 0 0)
(0 0 0)
(0 0 0)
(0 0 0)
(0 0 0)
(0 0 0)
(0 0 0)
(0 0 0)
(0 0 0)
(0 0 0)
(0 0 0)
(0 0 0)
(0 0 0)
(0 0 0)
(0 0 0)
(0 0 0)
(0 0 0)
(0 0 0)
(0 0 0)
(0 0 0)
(0 0 0)
(0 0 0)
(0 0 0)
(0 0 0)
(0 0 0)
(0 0 0)
(0 0 0)
(0 0 0)
(0 0 0)
(0 0 0)
(0 0 0)
(0 0 0)
(0 0 0)
(0 0 0)
(0 0 0)
(0 0 0)
(0 0 0)
(0 0 0)
(0 0 0)
(0 0 0)
(0 0 0)
(0 0 0)
(0 0 0)
(0 0 0)
(0 0 0)
(0 0 0)
(0 0 0)
(0 0 0)
(0 0 0)
(0 0 0)
(0 0 0)
(0 0 0)
(0 0 0)
(0 0 0)
(0 0 0)
(0 0 0)
(0 0 0)
(0 0 0)
(0 0 0)
(0 0 0)
(0 0 0)
(0 0 0)
(0 0 0)
(0 0 0)
(0 0 0)
(0 0 0)
(0 0 0)
(0 0 0)
(0 0 0)
(0 0 0)
(0 0 0)
(0 0 0)
(0 0 0)
(0 0 0)
(0 0 0)
(0 0 0)
(0 0 0)
(0 0 0)
(0 0 0)
(0 0 0)
(0 0 0)
(0 0 0)
(0 0 0)
(0 0 0)
(0 0 0)
(0 0 0)
(0 0 0)
(0 0 0)
(0 0 0)
(0 0 0)
(0 0 0)
(0 0 0)
(0 0 0)
(0 0 0)
(0 0 0)
(0 0 0)
(0 0 0)
(0 0 0)
(0 0 0)
(0 0 0)
(0 0 0)
(0 0 0)
(0 0 0)
(0 0 0)
(0 0 0)
(0 0 0)
(0 0 0)
(0 0 0)
(0 0 0)
(0 0 0)
(0 0 0)
(0 0 0)
(0 0 0)
(0 0 0)
(0 0 0)
(0 0 0)
(0 0 0)
(0 0 0)
(0 0 0)
(0 0 0)
(0 0 0)
(0 0 0)
(0 0 0)
(0 0 0)
(0 0 0)
(0 0 0)
(0 0 0)
(0 0 0)
(0 0 0)
(0 0 0)
(0 0 0)
(0 0 0)
(0 0 0)
(0 0 0)
(0 0 0)
(0 0 0)
(0 0 0)
(0 0 0)
(0 0 0)
(0 0 0)
(0 0 0)
(0 0 0)
(0 0 0)
(0 0 0)
(0 0 0)
(0 0 0)
(0 0 0)
(0 0 0)
(0 0 0)
(0 0 0)
(0 0 0)
(0 0 0)
(0 0 0)
(0 0 0)
(0 0 0)
(0 0 0)
(0 0 0)
(0 0 0)
(0 0 0)
(0 0 0)
(0 0 0)
(0 0 0)
(0 0 0)
(0 0 0)
(0 0 0)
(0 0 0)
(0 0 0)
(0 0 0)
(0 0 0)
(0 0 0)
(0 0 0)
(0 0 0)
(0 0 0)
(0 0 0)
(0 0 0)
(0 0 0)
(0 0 0)
(0 0 0)
(0 0 0)
(0 0 0)
(0 0 0)
(0 0 0)
(0 0 0)
(0 0 0)
(0 0 0)
(0 0 0)
(0 0 0)
(0 0 0)
(0 0 0)
(0 0 0)
(0 0 0)
(0 0 0)
(0 0 0)
(0 0 0)
(0 0 0)
(0 0 0)
(0 0 0)
(0 0 0)
(0 0 0)
(0 0 0)
(0 0 0)
(0 0 0)
(0 0 0)
(0 0 0)
(0 0 0)
(0 0 0)
(0 0 0)
(0 0 0)
(0 0 0)
(0 0 0)
(0 0 0)
(0 0 0)
(0 0 0)
(0 0 0)
(0 0 0)
(0 0 0)
(0 0 0)
(0 0 0)
(0 0 0)
(0 0 0)
(0 0 0)
(0 0 0)
(0 0 0)
(0 0 0)
(0 0 0)
(0 0 0)
(0 0 0)
(0 0 0)
(0 0 0)
(0 0 0)
(0 0 0)
(0 0 0)
(0 0 0)
(0 0 0)
(0 0 0)
(0 0 0)
(0 0 0)
(0 0 0)
(0 0 0)
(0 0 0)
(0 0 0)
(0 0 0)
(0 0 0)
(0 0 0)
(0 0 0)
(0 0 0)
(0 0 0)
(0 0 0)
(0 0 0)
(0 0 0)
(0 0 0)
(0 0 0)
(0 0 0)
(0 0 0)
(0 0 0)
(0 0 0)
(0 0 0)
(0 0 0)
(0 0 0)
(0 0 0)
(0 0 0)
(0 0 0)
(0 0 0)
(0 0 0)
(0 0 0)
(0 0 0)
(0 0 0)
(0 0 0)
(0 0 0)
(0 0 0)
(0 0 0)
(0 0 0)
(0 0 0)
(0 0 0)
(0 0 0)
(0 0 0)
(0 0 0)
(0 0 0)
(0 0 0)
(0 0 0)
(0 0 0)
(0 0 0)
(0 0 0)
(0 0 0)
(0 0 0)
(0 0 0)
(0 0 0)
(0 0 0)
(0 0 0)
(0 0 0)
(0 0 0)
(0 0 0)
(0 0 0)
(0 0 0)
(0 0 0)
(0 0 0)
(0 0 0)
(0 0 0)
(0 0 0)
(0 0 0)
(0 0 0)
(0 0 0)
(0 0 0)
(0 0 0)
(0 0 0)
(0 0 0)
(0 0 0)
(0 0 0)
(0 0 0)
(0 0 0)
(0 0 0)
(0 0 0)
(0 0 0)
(0 0 0)
(0 0 0)
(0 0 0)
(0 0 0)
(0 0 0)
(0 0 0)
(0 0 0)
(0 0 0)
(0 0 0)
(0 0 0)
(0 0 0)
(0 0 0)
(0 0 0)
(0 0 0)
(0 0 0)
(0 0 0)
(0 0 0)
(0 0 0)
(0 0 0)
(0 0 0)
(0 0 0)
(0 0 0)
(0 0 0)
(0 0 0)
(0 0 0)
(0 0 0)
(0 0 0)
(0 0 0)
(0 0 0)
(0 0 0)
(0 0 0)
(0 0 0)
(0 0 0)
(0 0 0)
(0 0 0)
(0 0 0)
(0 0 0)
(0 0 0)
(0 0 0)
(0 0 0)
(0 0 0)
(0 0 0)
(0 0 0)
(0 0 0)
(0 0 0)
(0 0 0)
(0 0 0)
(0 0 0)
(0 0 0)
(0 0 0)
(0 0 0)
(0 0 0)
(0 0 0)
(0 0 0)
(0 0 0)
(0 0 0)
(0 0 0)
(0 0 0)
(0 0 0)
(0 0 0)
(0 0 0)
(0 0 0)
(0 0 0)
(0 0 0)
(0 0 0)
(0 0 0)
(0 0 0)
(0 0 0)
(0 0 0)
(0 0 0)
(0 0 0)
(0 0 0)
(0 0 0)
(0 0 0)
(0 0 0)
(0 0 0)
(0 0 0)
(0 0 0)
(0 0 0)
(0 0 0)
(0 0 0)
(0 0 0)
(0 0 0)
(0 0 0)
(0 0 0)
(0 0 0)
(0 0 0)
(0 0 0)
(0 0 0)
(0 0 0)
(0 0 0)
(0 0 0)
(0 0 0)
(0 0 0)
(0 0 0)
(0 0 0)
(0 0 0)
(0 0 0)
(0 0 0)
(0 0 0)
(0 0 0)
(0 0 0)
(0 0 0)
(0 0 0)
(0 0 0)
(0 0 0)
(0 0 0)
(0 0 0)
(0 0 0)
(0 0 0)
(0 0 0)
(0 0 0)
(0 0 0)
(0 0 0)
(0 0 0)
(0 0 0)
(0 0 0)
(0 0 0)
(0 0 0)
(0 0 0)
(0 0 0)
(0 0 0)
(0 0 0)
(0 0 0)
(0 0 0)
(0 0 0)
(0 0 0)
(0 0 0)
(0 0 0)
(0 0 0)
(0 0 0)
(0 0 0)
(0 0 0)
(0 0 0)
(0 0 0)
(0 0 0)
(0 0 0)
(0 0 0)
(0 0 0)
(0 0 0)
(0 0 0)
(0 0 0)
(0 0 0)
(0 0 0)
(0 0 0)
(0 0 0)
(0 0 0)
(0 0 0)
(0 0 0)
(0 0 0)
(0 0 0)
(0 0 0)
(0 0 0)
(0 0 0)
(0 0 0)
(0 0 0)
(0 0 0)
(0 0 0)
(0 0 0)
(0 0 0)
(0 0 0)
(0 0 0)
(0 0 0)
(0 0 0)
(0 0 0)
(0 0 0)
(0 0 0)
(0 0 0)
(0 0 0)
(0 0 0)
(0 0 0)
(0 0 0)
(0 0 0)
(0 0 0)
(0 0 0)
(0 0 0)
(0 0 0)
(0 0 0)
(0 0 0)
(0 0 0)
(0 0 0)
(0 0 0)
(0 0 0)
(0 0 0)
(0 0 0)
(0 0 0)
(0 0 0)
(0 0 0)
(0 0 0)
(0 0 0)
(0 0 0)
(0 0 0)
(0 0 0)
(0 0 0)
(0 0 0)
(0 0 0)
(0 0 0)
(0 0 0)
(0 0 0)
(0 0 0)
(0 0 0)
(0 0 0)
(0 0 0)
(0 0 0)
(0 0 0)
(0 0 0)
(0 0 0)
(0 0 0)
(0 0 0)
(0 0 0)
(0 0 0)
(0 0 0)
(0 0 0)
(0 0 0)
(0 0 0)
(0 0 0)
(0 0 0)
(0 0 0)
(0 0 0)
(0 0 0)
(0 0 0)
(0 0 0)
(0 0 0)
(0 0 0)
(0 0 0)
(0 0 0)
(0 0 0)
(0 0 0)
(0 0 0)
(0 0 0)
(0 0 0)
(0 0 0)
(0 0 0)
(0 0 0)
(0 0 0)
(0 0 0)
(0 0 0)
(0 0 0)
(0 0 0)
(0 0 0)
(0 0 0)
(0 0 0)
(0 0 0)
(0 0 0)
(0 0 0)
(0 0 0)
(0 0 0)
(0 0 0)
(0 0 0)
(0 0 0)
(0 0 0)
(0 0 0)
(0 0 0)
(0 0 0)
(0 0 0)
(0 0 0)
(0 0 0)
(0 0 0)
(0 0 0)
(0 0 0)
(0 0 0)
(0 0 0)
(0 0 0)
(0 0 0)
(0 0 0)
(0 0 0)
(0 0 0)
(0 0 0)
(0 0 0)
(0 0 0)
(0 0 0)
(0 0 0)
(0 0 0)
(0 0 0)
(0 0 0)
(0 0 0)
(0 0 0)
(0 0 0)
(0 0 0)
(0 0 0)
(0 0 0)
(0 0 0)
(0 0 0)
(0 0 0)
(0 0 0)
(0 0 0)
(0 0 0)
(0 0 0)
(0 0 0)
(0 0 0)
(0 0 0)
(0 0 0)
(0 0 0)
(0 0 0)
(0 0 0)
(0 0 0)
(0 0 0)
(0 0 0)
(0 0 0)
(0 0 0)
(0 0 0)
(0 0 0)
(0 0 0)
(0 0 0)
(0 0 0)
(0 0 0)
(0 0 0)
(0 0 0)
(0 0 0)
(0 0 0)
(0 0 0)
(0 0 0)
(0 0 0)
(0 0 0)
(0 0 0)
(0 0 0)
(0 0 0)
(0 0 0)
(0 0 0)
(0 0 0)
(0 0 0)
(0 0 0)
(0 0 0)
(0 0 0)
(0 0 0)
(0 0 0)
(0 0 0)
(0 0 0)
(0 0 0)
(0 0 0)
(0 0 0)
(0 0 0)
(0 0 0)
(0 0 0)
(0 0 0)
(0 0 0)
(0 0 0)
(0 0 0)
(0 0 0)
(0 0 0)
(0 0 0)
(0 0 0)
(0 0 0)
(0 0 0)
(0 0 0)
(0 0 0)
(0 0 0)
(0 0 0)
(0 0 0)
(0 0 0)
(0 0 0)
(0 0 0)
(0 0 0)
(0 0 0)
(0 0 0)
(0 0 0)
(0 0 0)
(0 0 0)
(0 0 0)
(0 0 0)
(0 0 0)
(0 0 0)
(0 0 0)
(0 0 0)
(0 0 0)
(0 0 0)
(0 0 0)
(0 0 0)
(0 0 0)
(0 0 0)
(0 0 0)
(0 0 0)
(0 0 0)
(0 0 0)
(0 0 0)
(0 0 0)
(0 0 0)
(0 0 0)
(0 0 0)
(0 0 0)
(0 0 0)
(0 0 0)
(0 0 0)
(0 0 0)
(0 0 0)
(0 0 0)
(0 0 0)
(0 0 0)
(0 0 0)
(0 0 0)
(0 0 0)
(0 0 0)
(0 0 0)
(0 0 0)
(0 0 0)
(0 0 0)
(0 0 0)
(0 0 0)
(0 0 0)
(0 0 0)
(0 0 0)
(0 0 0)
(0 0 0)
(0 0 0)
(0 0 0)
(0 0 0)
(0 0 0)
(0 0 0)
(0 0 0)
(0 0 0)
(0 0 0)
(0 0 0)
(0 0 0)
(0 0 0)
(0 0 0)
(0 0 0)
(0 0 0)
(0 0 0)
(0 0 0)
(0 0 0)
(0 0 0)
(0 0 0)
(0 0 0)
(0 0 0)
(0 0 0)
(0 0 0)
(0 0 0)
(0 0 0)
(0 0 0)
(0 0 0)
(0 0 0)
(0 0 0)
(0 0 0)
(0 0 0)
(0 0 0)
(0 0 0)
(0 0 0)
(0 0 0)
(0 0 0)
(0 0 0)
(0 0 0)
(0 0 0)
(0 0 0)
(0 0 0)
(0 0 0)
(0 0 0)
(0 0 0)
(0 0 0)
(0 0 0)
(0 0 0)
(0 0 0)
(0 0 0)
(0 0 0)
(0 0 0)
(0 0 0)
(0 0 0)
(0 0 0)
(0 0 0)
(0 0 0)
(0 0 0)
(0 0 0)
(0 0 0)
(0 0 0)
(0 0 0)
(0 0 0)
(0 0 0)
(0 0 0)
(0 0 0)
(0 0 0)
(0 0 0)
(0 0 0)
(0 0 0)
(0 0 0)
(0 0 0)
(0 0 0)