/*--------------------------------*- C++ -*----------------------------------*\
| =========                 |                                                 |
| \\      /  F ield         | OpenFOAM: The Open Source CFD Toolbox           |
|  \\    /   O peration     | Version:  v2106                                 |
|   \\  /    A nd           | Website:  www.openfoam.com                      |
|    \\/     M anipulation  |                                                 |
\*---------------------------------------------------------------------------*/
FoamFile
{
    version     2.0;
    format      ascii;
    arch        "LSB;label=32;scalar=64";
    class       volVectorField;
    location    "0";
    object      U;
}
// * * * * * * * * * * * * * * * * * * * * * * * * * * * * * * * * * * * * * //

dimensions      [0 1 -1 0 0 0 0];

internalField   nonuniform List<vector> 
11644
(
(0.996156 -0.000213613 3.64491e-24)
(0.996054 -0.000562753 1.00516e-23)
(0.995993 -0.000829658 5.39293e-24)
(0.995977 -0.00110007 0)
(0.995973 -0.00138343 0)
(0.995972 -0.00167452 0)
(0.995973 -0.00196745 0)
(0.995974 -0.0022558 0)
(0.995975 -0.00253025 0)
(0.995983 -0.0027724 0)
(0.995959 -0.00297687 0)
(0.995949 -0.00311255 0)
(0.996031 -0.00315731 0)
(0.996181 -0.00313566 0)
(0.996022 -0.00293624 0)
(0.996067 -0.00272769 0)
(0.996016 -0.0024325 0)
(0.995662 -0.00181684 0)
(0.995332 -0.000766487 0)
(0.995352 0.000339965 3.24824e-30)
(0.995551 0.00127789 -3.25635e-30)
(0.99582 0.00204202 0)
(0.995997 0.00262165 0)
(0.996053 0.00311862 0)
(0.995951 0.00347159 0)
(0.995932 0.00371315 0)
(0.996091 0.00382863 0)
(0.995914 0.00382019 0)
(0.995924 0.00369973 0)
(0.995959 0.00348825 0)
(0.995946 0.00322069 0)
(0.995957 0.00290489 0)
(0.99596 0.00256777 0)
(0.995964 0.00221977 0)
(0.995967 0.00187348 0)
(0.995971 0.00153705 0)
(0.995976 0.00121675 0)
(0.995992 0.000916507 0)
(0.99606 0.000625952 0)
(0.996177 0.000238053 7.06711e-25)
(0.996886 -0.000429271 4.68186e-24)
(0.996815 -0.00129879 4.33691e-24)
(0.996768 -0.00216821 2.32922e-24)
(0.996763 -0.00303087 0)
(0.996781 -0.00389435 0)
(0.996799 -0.00476354 0)
(0.996808 -0.00563247 0)
(0.996801 -0.00648295 0)
(0.99677 -0.00728566 0)
(0.996684 -0.00800669 0)
(0.9966 -0.00857602 0)
(0.996439 -0.00895923 0)
(0.996091 -0.00906755 0)
(0.995583 -0.00880307 0)
(0.99545 -0.00820762 0)
(0.994984 -0.00714532 -7.37332e-24)
(0.994223 -0.00542994 -8.01872e-24)
(0.993509 -0.003133 -9.3741e-23)
(0.99324 -0.000607814 5.00517e-23)
(0.993317 0.00189382 8.52759e-22)
(0.993463 0.00425373 -7.22731e-22)
(0.993617 0.00648732 -1.29363e-22)
(0.993952 0.00856027 3.92552e-23)
(0.994427 0.0102467 1.5032e-23)
(0.995069 0.0114379 1.07613e-24)
(0.995572 0.0120857 0)
(0.995765 0.0123259 0)
(0.996379 0.0120854 0)
(0.99663 0.0115618 0)
(0.99677 0.0108087 0)
(0.996908 0.00986047 0)
(0.996946 0.00882637 0)
(0.99696 0.00773781 0)
(0.996943 0.00663941 0)
(0.996912 0.00555714 0)
(0.996875 0.00450765 0)
(0.996844 0.00349085 0)
(0.996846 0.00248917 0)
(0.996906 0.00148142 0)
(0.996991 0.000489554 0)
(0.998344 -0.000672791 0)
(0.9983 -0.0020507 0)
(0.998285 -0.00347438 0)
(0.998307 -0.00490512 0)
(0.998353 -0.00634088 4.2768e-24)
(0.998398 -0.00778364 0)
(0.998418 -0.00922543 0)
(0.998388 -0.0106387 0)
(0.99827 -0.0119839 0)
(0.998057 -0.0131855 0)
(0.997638 -0.0141844 0)
(0.997016 -0.0148424 0)
(0.996299 -0.0150041 1.5591e-24)
(0.995479 -0.0146122 4.64843e-23)
(0.993995 -0.0133529 4.6893e-22)
(0.992424 -0.0111989 -3.61109e-22)
(0.990714 -0.0081173 2.11512e-22)
(0.989302 -0.004353 -2.77534e-22)
(0.988553 -7.93427e-05 3.98861e-23)
(0.988418 0.00463657 -6.431e-22)
(0.988801 0.00935032 4.52529e-22)
(0.989575 0.0135654 8.2591e-22)
(0.990698 0.0170465 -3.23688e-22)
(0.992213 0.0197641 -4.53341e-22)
(0.99369 0.0215525 5.16708e-22)
(0.99514 0.0224205 -4.6755e-22)
(0.996787 0.0223871 -3.61407e-23)
(0.99746 0.0217644 -2.12584e-24)
(0.998218 0.0205437 0)
(0.998744 0.0189204 0)
(0.998984 0.0170985 0)
(0.999096 0.015138 0)
(0.999078 0.013161 0)
(0.998994 0.0112083 0)
(0.99888 0.00931452 0)
(0.998761 0.00749114 0)
(0.998663 0.00573104 0)
(0.998606 0.0040213 0)
(0.998606 0.00235668 0)
(0.998647 0.000762991 0)
(1.00054 -0.00092619 0)
(1.00052 -0.00281687 0)
(1.00054 -0.00475721 0)
(1.0006 -0.006729 0)
(1.00068 -0.00873513 0)
(1.00076 -0.0107692 0)
(1.00079 -0.0128172 0)
(1.00073 -0.0148501 0)
(1.00051 -0.0168103 0)
(1.00004 -0.0186355 0)
(0.999307 -0.0201627 -2.03789e-24)
(0.998229 -0.0212382 1.93692e-22)
(0.99653 -0.0216826 -9.25602e-23)
(0.993971 -0.0211792 -6.467e-22)
(0.991468 -0.0194868 2.73846e-22)
(0.988339 -0.0164021 3.36874e-23)
(0.985051 -0.0119493 7.26195e-22)
(0.982208 -0.00637274 1.5594e-21)
(0.980302 0.000391093 -2.41382e-21)
(0.979742 0.00794445 2.24953e-21)
(0.980471 0.0154951 -2.4233e-21)
(0.982308 0.0223251 -1.97009e-21)
(0.984973 0.0278883 3.04636e-21)
(0.988188 0.031762 -9.3774e-22)
(0.991664 0.0341229 9.29428e-23)
(0.995022 0.0349675 -2.37421e-22)
(0.997222 0.0346372 5.52206e-22)
(0.999757 0.032817 6.29248e-23)
(1.0012 0.0304535 -6.94639e-23)
(1.00203 0.0276708 1.90503e-24)
(1.00246 0.0246506 0)
(1.00254 0.0216016 0)
(1.00243 0.0185901 0)
(1.00221 0.0156965 0)
(1.00193 0.0129431 0)
(1.00166 0.0103354 0)
(1.00142 0.00786473 0)
(1.00125 0.00550558 0)
(1.00117 0.0032415 0)
(1.00116 0.00107338 0)
(1.00344 -0.00118482 0)
(1.00343 -0.00359545 0)
(1.0035 -0.00603531 0)
(1.00362 -0.00854049 0)
(1.00377 -0.0111069 0)
(1.00391 -0.0137532 0)
(1.00399 -0.0164649 0)
(1.00392 -0.0192139 0)
(1.00361 -0.021956 0)
(1.00296 -0.0245705 1.33804e-24)
(1.00181 -0.0269108 -3.30015e-22)
(0.999808 -0.0288212 -3.93088e-22)
(0.996993 -0.0298955 -1.64391e-24)
(0.993526 -0.029768 3.11693e-22)
(0.988297 -0.028095 1.80513e-21)
(0.982747 -0.0244064 -1.80261e-21)
(0.97736 -0.0188473 3.04273e-22)
(0.97191 -0.0111119 3.51856e-21)
(0.967707 -0.00105887 -5.88058e-21)
(0.966057 0.0107327 1.22793e-21)
(0.967539 0.022854 -6.32336e-22)
(0.971836 0.033774 2.80131e-21)
(0.977641 0.0422098 -1.0376e-21)
(0.984557 0.0473464 -6.05228e-22)
(0.990452 0.0497542 2.10688e-21)
(0.995895 0.0501546 -1.34983e-21)
(1.00129 0.0481295 -9.72793e-22)
(1.00376 0.0453298 7.36527e-22)
(1.00584 0.0413071 -1.90906e-22)
(1.007 0.0368013 3.93125e-22)
(1.00747 0.0322584 -1.2192e-23)
(1.00745 0.0278686 0)
(1.00711 0.0237295 0)
(1.00661 0.0198493 0)
(1.00606 0.0162411 0)
(1.00553 0.0128849 0)
(1.00508 0.00975614 0)
(1.00473 0.0068153 0)
(1.00452 0.00400968 0)
(1.00444 0.00130437 0)
(1.00699 -0.00144924 0)
(1.00702 -0.00432474 0)
(1.00715 -0.00730439 0)
(1.00737 -0.0103276 0)
(1.00764 -0.0134728 0)
(1.00791 -0.0167531 0)
(1.00811 -0.0201837 0)
(1.00813 -0.0237597 0)
(1.00786 -0.0274378 -5.16211e-25)
(1.00708 -0.0311075 2.93308e-22)
(1.00538 -0.034667 -2.10035e-22)
(1.00266 -0.0377976 -1.05702e-21)
(0.998629 -0.0402447 8.92349e-22)
(0.992197 -0.0417539 1.54768e-21)
(0.985463 -0.0407031 -5.60582e-22)
(0.97672 -0.0372039 -1.18861e-21)
(0.96626 -0.030969 1.255e-22)
(0.956538 -0.0206104 7.90245e-22)
(0.948637 -0.00571817 -6.05336e-21)
(0.945199 0.0116865 1.02771e-20)
(0.947317 0.0296709 -7.24343e-21)
(0.95448 0.0462556 1.66995e-21)
(0.965175 0.0597076 3.69203e-22)
(0.977857 0.067215 9.29404e-22)
(0.98918 0.0691242 8.61451e-22)
(0.999057 0.0684738 2.74101e-22)
(1.00536 0.0654548 -1.8532e-21)
(1.01099 0.058657 -8.83807e-22)
(1.0135 0.052195 1.39777e-21)
(1.0144 0.0456772 -3.38587e-22)
(1.01441 0.0393655 -2.48345e-23)
(1.01394 0.033507 -1.69899e-24)
(1.01315 0.028164 0)
(1.01218 0.0233236 0)
(1.01119 0.0189304 0)
(1.01028 0.0149362 0)
(1.0095 0.0112705 0)
(1.0089 0.00787022 0)
(1.00851 0.00465504 0)
(1.00834 0.00155588 0)
(1.01116 -0.00162755 0)
(1.01124 -0.00501334 0)
(1.01149 -0.00840663 0)
(1.01186 -0.0119577 0)
(1.01233 -0.0156878 0)
(1.01283 -0.0196397 0)
(1.01328 -0.0238552 0)
(1.01357 -0.0283641 -8.21719e-24)
(1.01346 -0.0331254 6.49886e-23)
(1.01255 -0.0381471 -1.70254e-22)
(1.01058 -0.0432419 -1.0501e-21)
(1.00731 -0.0482882 1.23394e-21)
(1.00241 -0.0532598 1.0982e-21)
(0.996272 -0.0569284 -1.00849e-21)
(0.984816 -0.0598803 8.73196e-22)
(0.970947 -0.0585837 -1.4256e-21)
(0.961489 -0.046799 -5.37916e-22)
(0.946593 -0.0358975 -4.37999e-21)
(0.93285 -0.0177012 -5.67199e-21)
(0.924842 0.00641835 3.49284e-21)
(0.925959 0.0327514 2.25188e-21)
(0.935442 0.0563024 -9.08854e-22)
(0.950479 0.0741237 -3.07026e-21)
(0.967767 0.0837788 -5.97962e-21)
(0.990609 0.0958479 1.83638e-21)
(1.00537 0.0918245 -1.10516e-21)
(1.01746 0.0819014 8.27045e-22)
(1.02146 0.0736609 -1.41936e-21)
(1.02425 0.063302 -2.99447e-22)
(1.02468 0.0537659 2.70197e-22)
(1.02367 0.0453532 2.37182e-22)
(1.02214 0.0379885 9.92088e-23)
(1.02047 0.0315323 -5.24798e-24)
(1.01878 0.0258519 0)
(1.01715 0.020831 0)
(1.0157 0.0163493 0)
(1.0145 0.0122945 0)
(1.01357 0.00856044 0)
(1.01296 0.00502726 0)
(1.01268 0.00164682 0)
(1.01587 -0.00189967 0)
(1.01603 -0.00562012 0)
(1.01643 -0.00948332 0)
(1.01703 -0.0135062 0)
(1.0178 -0.0177527 0)
(1.01867 -0.0223404 0)
(1.01958 -0.0273442 0)
(1.02033 -0.0328071 2.20444e-23)
(1.02043 -0.0387425 -1.86074e-22)
(1.01973 -0.0451018 -4.10421e-22)
(1.01812 -0.0519268 3.27105e-22)
(1.01531 -0.059319 -6.10231e-22)
(1.01093 -0.0669154 1.09631e-21)
(1.00087 -0.0722475 -1.57793e-21)
(0.991895 -0.0756496 9.11722e-22)
(0.975364 -0.0805039 2.67576e-21)
(0.951292 -0.0789213 -1.67651e-21)
(0.92603 -0.0673168 4.39726e-21)
(0.899061 -0.0434871 -2.95023e-21)
(0.880622 -0.00571384 -9.81414e-22)
(0.879932 0.039245 -2.26957e-21)
(0.897443 0.079527 8.2265e-21)
(0.92707 0.106682 -5.98382e-22)
(0.959466 0.118662 5.6848e-21)
(0.988873 0.120567 -5.8705e-22)
(1.01072 0.111666 2.19889e-21)
(1.02396 0.0998233 -3.27392e-22)
(1.03805 0.0861836 -7.04444e-22)
(1.03925 0.0728422 6.32694e-22)
(1.03809 0.0604757 3.7401e-22)
(1.03533 0.0497102 -2.43474e-23)
(1.03211 0.0407573 1.41973e-22)
(1.02894 0.0333433 -4.79258e-23)
(1.02617 0.0270819 0)
(1.0237 0.021663 0)
(1.02156 0.0168974 0)
(1.01982 0.0126453 0)
(1.01851 0.00875968 0)
(1.01764 0.00517877 0)
(1.01723 0.00168615 0)
(1.02105 -0.00195645 0)
(1.02131 -0.00602184 0)
(1.02191 -0.0102233 0)
(1.02283 -0.0146113 0)
(1.02402 -0.019354 0)
(1.02545 -0.0245283 0)
(1.02704 -0.0302532 2.33073e-24)
(1.02836 -0.0365802 -1.19787e-23)
(1.02887 -0.0435 -1.38564e-23)
(1.02893 -0.051034 2.76134e-22)
(1.02844 -0.0595879 -2.91798e-22)
(1.02713 -0.0697149 -3.31864e-22)
(1.02391 -0.0831041 5.51096e-22)
(1.01313 -0.0933673 -5.21366e-23)
(1.00257 -0.103851 1.2536e-22)
(0.983823 -0.118352 4.76359e-22)
(0.955821 -0.120672 -6.9006e-22)
(0.911302 -0.118095 -1.17477e-21)
(0.86112 -0.0926823 -1.18063e-22)
(0.817862 -0.0360193 5.1173e-21)
(0.808216 0.0429914 7.21597e-22)
(0.838929 0.113478 -6.45068e-21)
(0.892899 0.154423 -3.64315e-21)
(0.950678 0.16706 3.04484e-21)
(0.99467 0.158366 -2.50812e-21)
(1.03011 0.142517 -2.93688e-22)
(1.04497 0.121445 1.97376e-21)
(1.06009 0.0995708 -3.75166e-22)
(1.05877 0.079937 7.58719e-22)
(1.05475 0.0644343 -2.11322e-22)
(1.04928 0.0517065 -2.99306e-23)
(1.04361 0.0414254 1.32176e-22)
(1.03832 0.0332572 -1.92411e-22)
(1.03399 0.0267095 -1.25711e-23)
(1.03049 0.0212317 0)
(1.02757 0.0165115 0)
(1.02523 0.0123438 0)
(1.02348 0.00858581 0)
(1.02233 0.0050306 0)
(1.02178 0.00172623 0)
(1.02654 -0.00214263 0)
(1.02693 -0.00633336 0)
(1.02779 -0.0106579 0)
(1.02911 -0.0152809 0)
(1.03086 -0.0203145 0)
(1.03303 -0.025874 0)
(1.03547 -0.0321 8.27876e-24)
(1.03741 -0.039026 -1.06905e-23)
(1.03865 -0.046519 -6.90786e-24)
(1.04002 -0.0548992 2.87759e-23)
(1.04156 -0.0650442 -3.1556e-22)
(1.04314 -0.0776619 2.1222e-22)
(1.04437 -0.0944783 9.09858e-23)
(1.038 -0.111522 -5.7451e-23)
(1.03054 -0.131785 -2.6207e-23)
(1.00874 -0.159458 -6.01515e-23)
(0.975332 -0.182432 -5.24753e-22)
(0.914302 -0.207388 -5.24574e-22)
(0.814857 -0.20307 3.60474e-21)
(0.698078 -0.121758 1.7646e-21)
(0.65157 0.0444814 -1.4587e-21)
(0.727932 0.199475 1.04674e-21)
(0.857233 0.260686 -9.39932e-22)
(0.959959 0.249157 9.84809e-22)
(1.02878 0.213928 -3.96074e-22)
(1.06955 0.174255 -2.47107e-22)
(1.08005 0.135981 2.24591e-22)
(1.08984 0.103898 1.66554e-22)
(1.08265 0.0810247 -2.64223e-22)
(1.07421 0.0639418 1.92548e-22)
(1.06499 0.0502985 -4.59408e-23)
(1.05613 0.0393905 4.30691e-23)
(1.04816 0.0309819 -8.40224e-23)
(1.0418 0.0245669 5.77292e-24)
(1.03709 0.0194115 0)
(1.0333 0.0150264 0)
(1.03033 0.0111786 0)
(1.02815 0.00773519 0)
(1.02673 0.00453789 0)
(1.02606 0.00142201 0)
(1.03213 -0.00195261 0)
(1.03267 -0.00623016 0)
(1.03385 -0.0106056 0)
(1.03566 -0.01531 0)
(1.0381 -0.020406 0)
(1.04116 -0.0260954 0)
(1.04448 -0.0324686 1.00784e-23)
(1.04707 -0.0394523 -8.81454e-24)
(1.04935 -0.0470215 -1.17842e-24)
(1.05256 -0.0556991 -5.63349e-23)
(1.05703 -0.0664299 7.51606e-24)
(1.06306 -0.0800874 1.94065e-22)
(1.07088 -0.0964675 -2.13364e-22)
(1.07246 -0.119441 -8.1389e-24)
(1.07521 -0.149488 -3.06021e-22)
(1.07047 -0.192345 -1.95769e-23)
(1.04966 -0.251269 -3.56684e-23)
(0.993802 -0.344868 1.15414e-22)
(0.829654 -0.450435 -1.69903e-21)
(0.460804 -0.425353 -5.91232e-20)
(0.187972 0.0628715 7.42473e-22)
(0.520116 0.514984 -3.89698e-20)
(0.891788 0.49919 1.40931e-21)
(1.05652 0.368322 6.87811e-23)
(1.11474 0.262202 -3.78721e-23)
(1.1338 0.183836 1.99545e-23)
(1.12756 0.13968 -2.3576e-22)
(1.12334 0.0939268 8.48045e-23)
(1.10913 0.0736559 -6.77423e-23)
(1.095 0.0572467 2.68264e-23)
(1.08123 0.044245 -1.68574e-23)
(1.06875 0.0340654 -7.80242e-24)
(1.0578 0.0263247 2.62089e-23)
(1.04907 0.020593 -1.08456e-23)
(1.04301 0.0162359 0)
(1.03841 0.0125822 0)
(1.03487 0.00939531 0)
(1.03227 0.00648087 0)
(1.03063 0.00387952 0)
(1.02981 0.0012802 0)
(1.03758 -0.00214088 0)
(1.03833 -0.0059797 0)
(1.03987 -0.0101089 0)
(1.04219 -0.014483 0)
(1.04535 -0.0193293 0)
(1.04933 -0.0247967 0)
(1.05346 -0.0308774 -7.18759e-24)
(1.05665 -0.0373379 9.48936e-24)
(1.06012 -0.0443151 2.94306e-23)
(1.06546 -0.0524373 7.06056e-23)
(1.07303 -0.0621134 1.18788e-22)
(1.08345 -0.0738846 1.64673e-22)
(1.09857 -0.088558 -3.82888e-22)
(1.1072 -0.111498 -1.51486e-22)
(1.12877 -0.138783 4.03407e-22)
(1.14915 -0.185985 -9.52808e-23)
(1.177 -0.257962 2.69155e-22)
(1.22034 -0.393543 1.28818e-21)
(0.911392 -0.488743 -8.75287e-20)
(1.11911 0.587035 6.52935e-20)
(1.29471 0.391705 1.22513e-22)
(1.24402 0.241939 2.65712e-22)
(1.21057 0.154923 6.82177e-24)
(1.17966 0.115715 -3.37259e-24)
(1.15695 0.0707747 3.43601e-22)
(1.13403 0.0552803 -1.37123e-22)
(1.11388 0.0426886 -9.22127e-23)
(1.09575 0.0328692 -8.17913e-23)
(1.07992 0.0251976 -3.12317e-23)
(1.06626 0.019293 -2.36333e-23)
(1.05521 0.0149658 -5.26887e-24)
(1.04778 0.0118527 0)
(1.04257 0.00932048 0)
(1.0386 0.00707144 0)
(1.0357 0.00500609 0)
(1.03373 0.00291465 0)
(1.03282 0.00108108 0)
(1.04268 -0.00162006 0)
(1.04359 -0.00521744 0)
(1.04546 -0.00887048 0)
(1.04829 -0.0127538 0)
(1.05217 -0.0170697 0)
(1.05705 -0.0219425 0)
(1.06181 -0.0272531 -3.01876e-25)
(1.06546 -0.0327131 -1.52454e-23)
(1.07007 -0.038573 1.3654e-24)
(1.07722 -0.0453236 1.17581e-22)
(1.08731 -0.0530715 -2.13902e-22)
(1.10082 -0.0615195 1.57456e-22)
(1.11989 -0.0706592 3.76905e-22)
(1.13573 -0.0875327 3.26286e-22)
(1.16983 -0.10184 5.53494e-21)
(1.20962 -0.129966 -2.03197e-22)
(1.27591 -0.16732 -3.43985e-23)
(1.37661 -0.207221 2.1222e-21)
(0.0165773 0.00595399 4.40598e-19)
(0.0483648 -0.00248 -1.6912e-19)
(1.45862 0.206482 -2.89105e-22)
(1.34185 0.143282 1.70481e-22)
(1.27063 0.0887493 2.29602e-21)
(1.22195 0.0655543 3.38823e-21)
(1.18018 0.0332038 5.93589e-22)
(1.15122 0.026868 -1.22281e-22)
(1.12688 0.0212176 -9.58255e-23)
(1.10599 0.0168635 5.19562e-23)
(1.08796 0.0132645 -1.63765e-23)
(1.07226 0.010319 -8.35249e-24)
(1.05939 0.0081131 4.65635e-24)
(1.05083 0.00662952 0)
(1.04512 0.00539472 0)
(1.04085 0.00415099 0)
(1.03784 0.0029623 0)
(1.03594 0.00180414 0)
(1.03499 0.000475739 0)
(1.047 -0.00122461 -4.12694e-25)
(1.04812 -0.0040973 0)
(1.05033 -0.00704055 0)
(1.05366 -0.0102471 0)
(1.05815 -0.0137151 0)
(1.06375 -0.0175977 0)
(1.06886 -0.0217225 1.48898e-24)
(1.07291 -0.0259704 1.98087e-23)
(1.07851 -0.0305577 7.66857e-23)
(1.08697 -0.0357809 -5.57406e-22)
(1.09849 -0.0415364 3.73027e-22)
(1.11302 -0.0469051 6.79085e-22)
(1.13164 -0.0508243 -4.98306e-22)
(1.14858 -0.0585721 6.56577e-22)
(1.18096 -0.0575585 -6.78944e-22)
(1.22324 -0.0583221 1.32973e-21)
(1.28993 -0.0525259 -1.31523e-21)
(1.27357 -0.0174892 -2.96967e-23)
(0.141236 0.00906235 -5.69993e-21)
(0.165063 0.0410865 1.39845e-20)
(1.44224 0.0361038 -3.77431e-22)
(1.37298 0.0267455 3.36375e-22)
(1.29441 0.00545067 -1.94899e-21)
(1.24029 0.00170947 5.77838e-23)
(1.18771 -0.0120987 7.89449e-22)
(1.15657 -0.00693448 -8.19241e-22)
(1.1309 -0.00405812 1.08469e-22)
(1.10941 -0.00173529 -1.60886e-22)
(1.09092 -0.000387389 1.01563e-22)
(1.0748 0.000318217 2.66893e-23)
(1.06117 0.000785663 -1.05645e-23)
(1.05213 0.00119219 0)
(1.04644 0.0013635 0)
(1.04223 0.00127635 0)
(1.0392 0.0010106 0)
(1.03727 0.000682471 0)
(1.03629 0.000242127 0)
(1.05074 -0.00131446 -3.23914e-26)
(1.05191 -0.00304012 0)
(1.05436 -0.00499345 0)
(1.05796 -0.00708811 0)
(1.06279 -0.00935968 0)
(1.06877 -0.0119264 0)
(1.07425 -0.0147175 -4.10698e-24)
(1.07883 -0.0177157 -7.12589e-24)
(1.08539 -0.0211969 -1.30408e-22)
(1.09463 -0.0252409 2.06811e-22)
(1.10642 -0.0296341 7.55868e-22)
(1.12017 -0.0337736 -8.36663e-22)
(1.13505 -0.037182 2.38898e-22)
(1.14742 -0.0370814 -1.51221e-22)
(1.16535 -0.0289219 1.62991e-21)
(1.18893 -0.00552181 -2.59089e-21)
(1.22867 0.0419003 1.23027e-21)
(1.12474 0.153691 1.4937e-21)
(0.14787 0.25637 7.43594e-22)
(-0.254434 0.398637 2.57352e-22)
(-0.0976998 0.552942 1.17993e-22)
(0.197895 0.462205 3.00449e-22)
(0.520359 0.0876085 1.39794e-21)
(1.44407 -0.0794576 1.50071e-21)
(1.37131 -0.0864319 -2.14139e-21)
(1.28549 -0.0817035 -2.1244e-21)
(1.23084 -0.0641731 2.35625e-21)
(1.17563 -0.0564874 7.97822e-22)
(1.14726 -0.0404863 -2.76153e-22)
(1.12406 -0.0289417 -2.20834e-22)
(1.10455 -0.0198819 1.43176e-22)
(1.08763 -0.013548 -3.77091e-23)
(1.07268 -0.00912464 -4.60717e-23)
(1.05977 -0.00593472 9.51162e-24)
(1.05125 -0.00361183 0)
(1.046 -0.00208757 0)
(1.04217 -0.00115028 0)
(1.0394 -0.00062034 0)
(1.03759 -0.000351228 0)
(1.0367 -8.26031e-05 0)
(1.05334 -0.000207158 3.44164e-23)
(1.05453 -0.00125946 0)
(1.05679 -0.00223475 0)
(1.06045 -0.00320752 0)
(1.06553 -0.00420598 0)
(1.07184 -0.00530894 0)
(1.07793 -0.00668945 4.64261e-27)
(1.08318 -0.00850135 -6.68309e-23)
(1.09075 -0.0110244 1.66855e-22)
(1.10083 -0.014407 -1.94947e-22)
(1.11275 -0.0184772 3.42101e-22)
(1.12595 -0.0236079 -9.02415e-22)
(1.13778 -0.0299913 8.46368e-22)
(1.14263 -0.0329569 -1.72584e-21)
(1.14317 -0.0317546 -8.67227e-22)
(1.12712 -0.0151219 2.61187e-22)
(1.0955 0.0405325 -4.41571e-21)
(0.776941 0.210333 4.91309e-21)
(-0.121299 0.466108 2.47257e-21)
(-0.37886 0.51227 8.6007e-22)
(0.0755094 0.336452 -3.5313e-21)
(0.620141 0.105703 -2.72725e-21)
(1.11293 -0.173824 -6.94002e-22)
(1.44161 -0.267482 -3.84397e-21)
(1.32939 -0.210352 2.80183e-21)
(1.24206 -0.166372 9.42215e-22)
(1.19508 -0.122061 -3.77176e-21)
(1.14432 -0.0916858 1.30052e-21)
(1.12337 -0.0666899 -6.04914e-22)
(1.10619 -0.0481371 -6.59226e-22)
(1.09146 -0.0337022 4.11015e-22)
(1.07825 -0.0233031 -3.01883e-22)
(1.06604 -0.0157637 3.92503e-23)
(1.05526 -0.0106638 4.2234e-25)
(1.04827 -0.00725641 0)
(1.04404 -0.00488405 0)
(1.04091 -0.00318779 0)
(1.03862 -0.00197025 0)
(1.03711 -0.00102782 0)
(1.0365 -0.000280975 3.8107e-23)
(1.05339 0.000281187 2.00259e-22)
(1.05489 0.00062809 0)
(1.05738 0.000934034 0)
(1.06111 0.00116939 0)
(1.06627 0.00147729 0)
(1.07276 0.00190345 0)
(1.07956 0.00208656 0)
(1.08592 0.00140939 -1.06952e-23)
(1.09438 -0.000219699 -4.15744e-23)
(1.1055 -0.0028602 8.26482e-23)
(1.11875 -0.0069815 -6.30889e-23)
(1.13377 -0.0136876 2.27057e-22)
(1.14816 -0.0227294 -1.78861e-22)
(1.1595 -0.0421216 -5.76922e-23)
(1.14813 -0.0522878 8.00861e-22)
(1.12307 -0.0809842 -5.4189e-22)
(1.02432 -0.0871208 8.37321e-22)
(0.441508 0.0279335 -5.91154e-20)
(-0.233703 0.104285 1.21432e-21)
(-0.0759009 -0.108253 -1.30146e-20)
(0.407035 -0.359706 4.85433e-21)
(0.851231 -0.526447 1.04224e-20)
(1.30088 -0.588796 5.86092e-21)
(1.30052 -0.440228 1.02121e-20)
(1.19896 -0.310261 1.8286e-21)
(1.16088 -0.228188 -3.66496e-21)
(1.11097 -0.155979 -7.78315e-22)
(1.09842 -0.110783 1.15553e-22)
(1.08903 -0.0803446 -1.11576e-22)
(1.08044 -0.0576525 1.15838e-24)
(1.07259 -0.0401759 -1.96091e-22)
(1.06473 -0.0275182 1.15812e-22)
(1.05657 -0.0184128 4.37702e-23)
(1.04902 -0.0123063 0)
(1.04413 -0.00847977 0)
(1.04111 -0.00590094 0)
(1.03883 -0.00397478 0)
(1.03718 -0.00254893 0)
(1.03614 -0.0013562 0)
(1.03572 -0.000479024 -2.18693e-23)
(1.05231 0.000557423 3.3008e-24)
(1.05368 0.00203796 0)
(1.05618 0.00369882 0)
(1.05985 0.00534937 0)
(1.06485 0.00710753 0)
(1.07128 0.00911652 0)
(1.07868 0.0110989 0)
(1.08654 0.0121029 0)
(1.09632 0.0119359 2.01968e-24)
(1.10882 0.0107422 2.50543e-23)
(1.1244 0.0083047 1.52973e-23)
(1.14353 0.00279989 -1.34959e-22)
(1.16597 -0.00536452 -4.14868e-22)
(1.19105 -0.0224519 5.3572e-22)
(1.19335 -0.0572842 6.913e-23)
(1.2059 -0.117234 1.98363e-21)
(1.07638 -0.203481 -7.59186e-22)
(0.372562 -0.254056 4.50051e-21)
(0.0863308 -0.481743 -9.05291e-22)
(0.256457 -0.731338 -1.46411e-21)
(0.598805 -0.847651 1.12157e-20)
(0.891086 -0.843086 -9.15295e-21)
(1.03437 -0.696702 4.69932e-21)
(1.06528 -0.487371 9.75915e-21)
(1.0487 -0.330198 1.00691e-21)
(1.05557 -0.236852 -9.08157e-22)
(1.03989 -0.153929 -2.43654e-22)
(1.04658 -0.107344 6.64703e-22)
(1.04959 -0.0780943 -2.77517e-22)
(1.05093 -0.0554449 -9.08527e-23)
(1.05083 -0.0383187 9.12121e-24)
(1.04894 -0.0258525 -2.27747e-23)
(1.04569 -0.0168569 0)
(1.04227 -0.0108947 0)
(1.03983 -0.00749348 0)
(1.03814 -0.00526842 0)
(1.03673 -0.00360112 6.75113e-24)
(1.03561 -0.00237517 9.33637e-24)
(1.03483 -0.00137522 5.56737e-24)
(1.03441 -0.000411323 0)
(1.05 0.00104757 0)
(1.05114 0.00337926 0)
(1.05332 0.00596854 0)
(1.05665 0.00881951 0)
(1.06125 0.0119892 0)
(1.06731 0.0156232 0)
(1.07501 0.0196636 0)
(1.08421 0.0232268 0)
(1.09549 0.0259411 1.1259e-26)
(1.10937 0.0280751 -3.35247e-24)
(1.1271 0.030109 -2.1924e-23)
(1.15024 0.0306675 -3.08999e-22)
(1.18021 0.0303406 -2.57125e-23)
(1.219 0.0290777 -1.58272e-21)
(1.25264 -0.00629782 1.13736e-21)
(1.31927 -0.0504661 -7.07389e-22)
(1.23402 -0.156346 -1.35567e-21)
(0.709897 -0.389204 -1.40103e-21)
(0.410789 -0.663783 -1.37435e-21)
(0.409264 -0.812594 -1.42543e-20)
(0.554612 -0.810581 2.62349e-21)
(0.718356 -0.690026 1.49226e-21)
(0.817689 -0.542509 -8.14247e-23)
(0.852768 -0.421487 2.53932e-21)
(0.899309 -0.278009 -1.54606e-21)
(0.954248 -0.194678 9.80226e-24)
(0.975667 -0.116052 1.35169e-22)
(0.99742 -0.0803067 2.13023e-22)
(1.01365 -0.0577308 -7.16469e-25)
(1.02422 -0.0402693 -1.03566e-23)
(1.03073 -0.02734 -1.59591e-24)
(1.03406 -0.0178447 2.06517e-26)
(1.03557 -0.0110277 0)
(1.03613 -0.00685445 0)
(1.03614 -0.00471063 0)
(1.03561 -0.00334793 0)
(1.03485 -0.00232779 0)
(1.03411 -0.00154196 0)
(1.03355 -0.000924234 0)
(1.03331 -0.000282436 -1.00269e-24)
(1.0464 0.0014771 0)
(1.04728 0.00455058 0)
(1.04905 0.00785913 0)
(1.05181 0.0115621 0)
(1.05567 0.0158458 0)
(1.06088 0.0209113 0)
(1.0681 0.0269046 0)
(1.07761 0.0333196 0)
(1.08931 0.0399345 0)
(1.10333 0.0470996 0)
(1.12096 0.0559715 1.31991e-24)
(1.14412 0.0661854 3.21665e-23)
(1.17476 0.0793825 -5.61142e-24)
(1.21778 0.0981398 -3.80641e-23)
(1.27152 0.0888743 2.29592e-21)
(1.36797 0.098107 -6.97884e-23)
(1.40912 0.0523598 8.69605e-22)
(1.10577 -0.111977 2.42382e-21)
(0.755308 -0.396266 -6.23406e-22)
(0.555796 -0.622836 4.76171e-21)
(0.48586 -0.70329 -1.73415e-21)
(0.506754 -0.626339 -5.03159e-21)
(0.590048 -0.453987 -3.03865e-21)
(0.683599 -0.278227 1.85537e-22)
(0.795033 -0.164762 -3.67587e-21)
(0.879304 -0.113833 1.77327e-22)
(0.92632 -0.045945 9.61435e-23)
(0.963455 -0.0316434 -9.94283e-23)
(0.990446 -0.0209729 -4.45194e-24)
(1.00746 -0.0140831 1.42923e-23)
(1.01827 -0.00881797 0)
(1.02504 -0.00497001 0)
(1.02959 -0.00232012 0)
(1.03273 -0.00108544 0)
(1.03428 -0.000765872 0)
(1.03432 -0.000602864 0)
(1.0338 -0.000454628 0)
(1.03321 -0.000291904 0)
(1.03276 -0.000175484 0)
(1.03253 -8.6568e-05 0)
(1.04186 0.00166047 0)
(1.04246 0.00518699 0)
(1.04372 0.00901212 0)
(1.0457 0.0133275 0)
(1.04848 0.0183995 0)
(1.05234 0.0244694 0)
(1.05819 0.0318033 0)
(1.06659 0.040322 0)
(1.0769 0.050278 0)
(1.08865 0.06219 0)
(1.10264 0.0776161 0)
(1.12055 0.0970256 -9.27339e-25)
(1.14303 0.122992 -2.92589e-23)
(1.17577 0.157392 -1.28334e-23)
(1.22708 0.181515 8.2082e-22)
(1.29975 0.242636 3.5215e-22)
(1.40801 0.301116 -8.05142e-22)
(1.33358 0.307491 -3.19573e-22)
(1.08468 0.194954 -9.75336e-22)
(0.807003 0.0290657 -1.12887e-20)
(0.569313 -0.108942 -8.75599e-21)
(0.41788 -0.176412 4.84217e-21)
(0.404106 -0.171839 1.99992e-21)
(0.512817 -0.118608 -4.32492e-23)
(0.730126 -0.0280835 -3.11704e-22)
(0.840636 0.00400473 2.80654e-22)
(0.911995 0.0432124 6.72867e-24)
(0.957484 0.029883 -3.64921e-23)
(0.988103 0.0235829 7.90804e-24)
(1.00606 0.016306 0)
(1.01714 0.0117991 0)
(1.02428 0.00872607 0)
(1.02939 0.00656386 0)
(1.03315 0.00467351 0)
(1.03488 0.00309569 0)
(1.03475 0.00196811 0)
(1.03404 0.00120524 0)
(1.03335 0.000697289 0)
(1.03284 0.000345479 0)
(1.03251 7.17296e-05 0)
(1.037 0.00168142 0)
(1.03721 0.00535623 0)
(1.03779 0.00935689 0)
(1.03882 0.013917 0)
(1.04029 0.0192692 0)
(1.04249 0.0256652 0)
(1.04643 0.033467 0)
(1.05264 0.04287 0)
(1.05983 0.0545614 0)
(1.06708 0.0692342 0)
(1.07469 0.0885031 -1.08691e-23)
(1.08336 0.113251 0)
(1.0937 0.146133 0)
(1.10847 0.188163 -3.90836e-22)
(1.12374 0.249423 8.02062e-22)
(1.16422 0.312176 1.32192e-21)
(1.22822 0.432874 5.42864e-22)
(1.22645 0.588531 3.73715e-22)
(1.1142 0.690334 2.18801e-21)
(0.931282 0.703869 1.25784e-20)
(0.736302 0.635315 -7.27426e-21)
(0.597541 0.494145 4.50236e-21)
(0.552483 0.316418 1.22052e-23)
(0.593338 0.161648 8.00284e-23)
(0.682544 0.103018 -1.2954e-22)
(0.83354 0.164242 1.03171e-20)
(0.936465 0.124324 3.22021e-21)
(0.986577 0.0872961 0)
(1.01062 0.0627473 0)
(1.02164 0.041825 -3.37733e-23)
(1.02775 0.028461 0)
(1.03149 0.019391 0)
(1.03449 0.0131747 0)
(1.03699 0.00872827 0)
(1.03766 0.00561813 0)
(1.03667 0.00349872 0)
(1.03534 0.00207628 0)
(1.03425 0.0011152 -1.11112e-24)
(1.03346 0.00050136 -7.97127e-25)
(1.03291 9.46285e-05 0)
(1.03206 0.00173998 0)
(1.03186 0.00519059 0)
(1.03181 0.00892157 0)
(1.03194 0.0131103 0)
(1.03217 0.0179887 0)
(1.03267 0.0238211 0)
(1.03441 0.0311002 0)
(1.03772 0.0402727 0)
(1.04081 0.0521076 0)
(1.0425 0.0672988 0)
(1.04277 0.0871852 5.3876e-23)
(1.04134 0.113045 0)
(1.03879 0.14655 0)
(1.03608 0.190211 4.99324e-22)
(1.02959 0.247024 -1.61537e-21)
(1.01191 0.313288 -2.9112e-22)
(1.00184 0.394237 0)
(0.988091 0.488756 5.25323e-22)
(0.943906 0.575347 -7.604e-21)
(0.877935 0.629741 -1.32094e-20)
(0.80946 0.639921 2.14595e-21)
(0.782452 0.600594 -4.898e-21)
(0.789224 0.544641 3.19077e-22)
(0.793376 0.460079 0)
(0.776346 0.353099 7.47502e-22)
(0.896656 0.272541 -1.09894e-21)
(1.00676 0.180117 -6.34128e-21)
(1.04964 0.124364 0)
(1.05427 0.0843178 0)
(1.05106 0.0547334 -2.28883e-22)
(1.04753 0.0364147 0)
(1.04474 0.023913 0)
(1.04349 0.0154001 0)
(1.04318 0.00958686 0)
(1.04181 0.00583457 0)
(1.03941 0.00343721 2.01016e-24)
(1.03714 0.00191234 -2.61218e-24)
(1.0354 0.000968229 0)
(1.03416 0.000425531 0)
(1.03332 0.00010883 -6.13852e-24)
(1.02738 0.00155576 0)
(1.02708 0.00438306 0)
(1.02671 0.00735522 0)
(1.02621 0.0105785 0)
(1.02542 0.0143145 0)
(1.02437 0.0187803 0)
(1.02376 0.0245366 -9.88415e-25)
(1.02376 0.0323385 0)
(1.02258 0.0428414 0)
(1.01889 0.0565228 0)
(1.01236 0.0743402 0)
(1.00218 0.0977997 0)
(0.987457 0.127673 0)
(0.970096 0.166873 5.54891e-22)
(0.956636 0.216894 2.41006e-23)
(0.932238 0.2734 1.06586e-22)
(0.902804 0.336471 0)
(0.869135 0.417281 0)
(0.829972 0.503241 -2.1195e-21)
(0.798984 0.586414 -8.43823e-21)
(0.786085 0.618023 -2.68682e-20)
(0.803865 0.610408 2.89257e-21)
(0.839363 0.57855 0)
(0.895127 0.512898 0)
(0.932341 0.399024 0)
(1.04163 0.274599 8.07347e-23)
(1.1223 0.169947 5.70168e-22)
(1.12838 0.11522 7.42913e-23)
(1.10531 0.0758714 0)
(1.0853 0.0489405 0)
(1.07048 0.0318339 0)
(1.06021 0.0198695 0)
(1.05389 0.0117268 8.82123e-24)
(1.0499 0.00641899 3.61494e-24)
(1.04593 0.00336003 1.82117e-25)
(1.04191 0.00160861 0)
(1.03862 0.00064298 0)
(1.03623 0.000182946 0)
(1.03461 4.82256e-05 0)
(1.03365 2.9732e-05 0)
(1.02392 0.000851489 0)
(1.0237 0.00271136 0)
(1.02324 0.00453032 0)
(1.02237 0.00646072 0)
(1.02087 0.0086393 0)
(1.01863 0.0111853 0)
(1.01591 0.0145551 0)
(1.01271 0.0196481 0)
(1.00764 0.0270601 7.72683e-24)
(0.999356 0.0370257 0)
(0.986793 0.0502358 0)
(0.968904 0.0681121 0)
(0.945014 0.0917954 7.55403e-22)
(0.915088 0.122789 2.23112e-21)
(0.879647 0.169319 0)
(0.840224 0.233659 0)
(0.794698 0.308914 0)
(0.750105 0.38825 0)
(0.724892 0.459633 4.42154e-21)
(0.735754 0.526739 1.17492e-20)
(0.779203 0.534801 -2.44006e-20)
(0.841856 0.528374 1.15475e-20)
(0.919804 0.462266 0)
(1.01737 0.381362 0)
(1.10583 0.265175 0)
(1.20327 0.161492 0)
(1.22566 0.0879056 -5.96608e-22)
(1.18908 0.058754 -3.64615e-23)
(1.14408 0.0375227 0)
(1.11162 0.0237961 -2.52801e-25)
(1.08838 0.0140072 -1.19107e-23)
(1.07253 0.0070072 -8.6137e-24)
(1.06201 0.00227956 0)
(1.05465 -0.000382562 0)
(1.04841 -0.00139972 0)
(1.04311 -0.00167939 0)
(1.03906 -0.00155753 0)
(1.03621 -0.00122325 0)
(1.03437 -0.000740872 0)
(1.03344 -0.000258287 0)
(1.02255 9.89964e-05 0)
(1.02218 0.000713796 0)
(1.02164 0.00119163 0)
(1.02064 0.00165944 0)
(1.01895 0.00201996 0)
(1.01622 0.00227752 0)
(1.01221 0.00263264 0)
(1.00677 0.00375982 0)
(0.998955 0.00609382 0)
(0.987378 0.00958663 0)
(0.97021 0.0146283 -7.65986e-23)
(0.945684 0.0217873 1.0397e-22)
(0.912586 0.0342639 -2.0726e-21)
(0.865517 0.0527603 -8.20793e-21)
(0.802983 0.0878614 0)
(0.745171 0.133508 0)
(0.699704 0.178126 0)
(0.666445 0.212399 0)
(0.663703 0.234955 -1.4292e-20)
(0.71786 0.252779 1.6961e-20)
(0.818413 0.229443 -2.34754e-20)
(0.928548 0.228112 1.05345e-19)
(1.04663 0.150409 0)
(1.16165 0.0954044 0)
(1.24035 0.0186626 0)
(1.29665 -0.0192027 0)
(1.26532 -0.0314864 7.57663e-22)
(1.20502 -0.0210194 1.13133e-21)
(1.15515 -0.0167831 -2.7292e-23)
(1.11981 -0.0131303 3.65673e-22)