/*--------------------------------*- C++ -*----------------------------------*\
| =========                 |                                                 |
| \\      /  F ield         | OpenFOAM: The Open Source CFD Toolbox           |
|  \\    /   O peration     | Version:  v2106                                 |
|   \\  /    A nd           | Website:  www.openfoam.com                      |
|    \\/     M anipulation  |                                                 |
\*---------------------------------------------------------------------------*/
FoamFile
{
    version     2.0;
    format      ascii;
    arch        "LSB;label=32;scalar=64";
    class       volScalarField;
    location    "0";
    object      p;
}
// * * * * * * * * * * * * * * * * * * * * * * * * * * * * * * * * * * * * * //

dimensions      [0 2 -2 0 0 0 0];

internalField   nonuniform List<scalar> 
11644
(
0.0734362
0.0737211
0.0743126
0.0752319
0.0764509
0.0779667
0.079772
0.0818448
0.0841677
0.0867006
0.0894513
0.0923635
0.0953281
0.0982992
0.101268
0.103648
0.104948
0.106873
0.110945
0.11486
0.115597
0.11289
0.109725
0.108753
0.108509
0.107075
0.104906
0.102652
0.100296
0.0979224
0.0956394
0.0934914
0.0914939
0.0896899
0.088105
0.0867686
0.0856892
0.0848766
0.0843507
0.0840954
0.0729935
0.0733014
0.0739009
0.0747938
0.0759961
0.0775042
0.0793072
0.0813844
0.0837095
0.0862867
0.0890471
0.0919203
0.0949297
0.0979198
0.100642
0.103178
0.106226
0.110203
0.113779
0.115351
0.115941
0.1155
0.113127
0.110186
0.108122
0.106546
0.104684
0.102418
0.100071
0.0977199
0.0953942
0.0931842
0.0911581
0.0893274
0.0877288
0.0863834
0.085309
0.0845076
0.0839723
0.0837007
0.0717913
0.0721363
0.0727991
0.0737639
0.0750168
0.0765536
0.0783762
0.0804867
0.0828829
0.0855076
0.0883318
0.0914047
0.0945633
0.0977958
0.101171
0.105294
0.110317
0.114028
0.114885
0.113846
0.114303
0.116563
0.117039
0.114633
0.110637
0.107405
0.104869
0.102395
0.0998668
0.0973374
0.0949166
0.0926138
0.0904834
0.0885874
0.0869448
0.0855546
0.0844245
0.0835545
0.082959
0.0826493
0.0699677
0.0703299
0.0710452
0.0720949
0.0734645
0.0751369
0.0770945
0.0793339
0.0818445
0.0846501
0.0877949
0.0911576
0.0948019
0.0986959
0.103185
0.108052
0.112017
0.113914
0.114418
0.114176
0.114786
0.11655
0.117339
0.116999
0.114247
0.110344
0.106575
0.103237
0.100127
0.0971997
0.0944466
0.0919282
0.0896383
0.0875925
0.0857978
0.084268
0.083014
0.0820521
0.0813932
0.0810582
0.0674537
0.0678342
0.0685962
0.0697117
0.0712126
0.0730656
0.0752654
0.0777853
0.0805954
0.0837575
0.0872489
0.0910667
0.0951937
0.100064
0.105286
0.109781
0.112458
0.114505
0.11635
0.117786
0.118593
0.119017
0.118662
0.118243
0.116718
0.113383
0.109103
0.104825
0.101001
0.0973623
0.0940433
0.0911112
0.0885066
0.086163
0.0841134
0.0823875
0.080987
0.0799415
0.0792299
0.0788839
0.0641664
0.0645861
0.0653777
0.0665957
0.0681909
0.0701995
0.0726284
0.0754701
0.0787522
0.0824156
0.0863634
0.0906907
0.0956516
0.100796
0.105994
0.11084
0.11482
0.118907
0.12259
0.125067
0.126374
0.125925
0.123999
0.121305
0.118817
0.115473
0.111033
0.106334
0.101707
0.0974849
0.0935141
0.0898874
0.0867419
0.0840532
0.0817503
0.0798385
0.0783179
0.0771591
0.0764034
0.0759914
0.0601598
0.0605604
0.0613728
0.0626091
0.0642516
0.0663762
0.0689631
0.0720978
0.0757379
0.0798147
0.0843603
0.0897077
0.0955149
0.101593
0.107858
0.112496
0.117455
0.126072
0.130354
0.134547
0.135739
0.136237
0.134403
0.130506
0.122871
0.118677
0.113039
0.107439
0.101696
0.0965256
0.0919534
0.0877959
0.0841178
0.0810472
0.0785288
0.0764558
0.0748468
0.0736317
0.0728362
0.0724426
0.0552869
0.0555945
0.0564103
0.0575578
0.0592676
0.0614365
0.064171
0.0674615
0.0712353
0.0757339
0.0813052
0.0875778
0.0957637
0.101125
0.106783
0.114338
0.123966
0.13543
0.142212
0.148981
0.151314
0.151002
0.147587
0.141512
0.132233
0.12293
0.115781
0.108605
0.100566
0.0943373
0.0888224
0.0843052
0.0803637
0.0769947
0.0742411
0.072054
0.0703392
0.0691884
0.0683693
0.068068
0.0491672
0.0496877
0.0504506
0.0517168
0.0533607
0.0554318
0.0581736
0.0614385
0.0654924
0.0708946
0.0774205
0.0848147
0.0947279
0.101667
0.113372
0.123303
0.133983
0.127641
0.153763
0.161408
0.166687
0.167025
0.161908
0.144459
0.143661
0.133612
0.122306
0.108988
0.0988605
0.0912927
0.0847928
0.0793849
0.0751376
0.0717063
0.0688989
0.066759
0.0650595
0.0637505
0.0629517
0.0623961
0.0428669
0.0431981
0.0437829
0.0448162
0.0460896
0.0479636
0.0504542
0.0537634
0.0582767
0.0645092
0.0726487
0.0806135
0.089639
0.104883
0.114831
0.123888
0.135719
0.146298
0.162036
0.176276
0.188279
0.189249
0.181447
0.166771
0.153178
0.139126
0.125868
0.105722
0.0958679
0.0874365
0.0792545
0.0728785
0.0681767
0.0646249
0.0620048
0.060024
0.0586449
0.0575296
0.0568937
0.0565614
0.0363093
0.0360494
0.0364867
0.0368957
0.0378579
0.0392799
0.0411373
0.0440592
0.0484864
0.0542497
0.0629403
0.0748533
0.0829643
0.10502
0.112412
0.126355
0.134465
0.1435
0.156804
0.180941
0.214729
0.219271
0.198973
0.174967
0.155969
0.136739
0.124697
0.0995151
0.0910989
0.0790622
0.0700175
0.0638431
0.0592058
0.0559035
0.0537939
0.052224
0.0511202
0.0506025
0.0500702
0.0502391
0.027532
0.02809
0.0281057
0.0283893
0.028875
0.029418
0.0304297
0.032271
0.0354708
0.0401034
0.0466763
0.0582196
0.0761463
0.0747269
0.103485
0.118526
0.128202
0.121041
0.0842895
0.166817
0.157041
0.148206
0.131537
0.107391
0.0933428
0.0757792
0.0640499
0.0568755
0.0517699
0.0482008
0.0457792
0.0443698
0.0435589
0.0428293
0.0423554
0.042225
0.0416522
0.0198087
0.0198775
0.0193743
0.0192137
0.0189848
0.0188803
0.0188109
0.0189531
0.0200239
0.0228796
0.0267959
0.0325575
0.0483808
0.0728919
0.0910447
0.117797
0.133921
0.0953588
-0.147407
-0.138229
0.0995844
0.140287
0.119481
0.0978331
0.0682248
0.0520237
0.0456108
0.0408471
0.037373
0.0355395
0.0346338
0.0341177
0.0337918
0.0336493
0.0335682
0.0339494
0.0338631
0.0140227
0.0119879
0.0117983
0.0111783
0.010322
0.00928351
0.00727163
0.00510926
0.00291529
0.00186632
0.00178728
0.00119184
-0.000180532
0.0238212
0.0465795
0.0942212
0.179702
0.295479
0.0248506
-0.0513276
0.233714
0.159376
0.0813567
0.0564115
0.023623
0.0233061
0.0225071
0.0212625
0.0211284
0.0220345
0.0231685
0.0244206
0.0248665
0.0252094
0.0254878
0.0254455
0.0272701
0.00541143
0.00743325
0.00677511
0.00530729
0.00311191
0.000282743
-0.00370788
-0.00849229
-0.0140419
-0.0199886
-0.0255266
-0.0334551
-0.0466005
-0.0455261
-0.0618651
-0.0150797
0.120789
0.581981
0.0408113
-1.81276
-2.91957
-1.69178
0.0639306
0.484272
0.094544
-0.0227579
-0.0227453
-0.0169151
-0.00730092
-0.00255452
0.000988134
0.00422683
0.00829441
0.0118453
0.0148602
0.0169504
0.018484
0.0194928
0.0199054
0.0178894
-0.000308348
0.00105383
0.0001559
-0.00178906
-0.00474263
-0.00835706
-0.0121139
-0.0173761
-0.025156
-0.0348563
-0.0492909
-0.074922
-0.110748
-0.159862
-0.250858
-0.419149
-0.47266
-0.186415
0.308341
0.211772
0.126812
0.233589
0.495237
-0.199937
-0.335835
-0.247204
-0.152253
-0.073435
-0.0452707
-0.0245224
-0.014098
-0.00739786
-0.00145494
0.00247287
0.00523693
0.00803331
0.0104043
0.0119944
0.0126351
0.0111173
-0.00306227
-0.00676133
-0.00805686
-0.00944013
-0.0116219
-0.0147131
-0.0178947
-0.0213878
-0.0290109
-0.0431845
-0.066687
-0.109235
-0.175583
-0.245782
-0.41938
-0.750587
-1.30635
-1.66245
1.19445
4.65448
5.89245
4.20307
0.633485
-1.52141
-0.87938
-0.471943
-0.195062
-0.136403
-0.0800242
-0.0439564
-0.024764
-0.013191
-0.0072611
-0.00497597
-0.00263004
-0.000167558
0.00153289
0.00252819
0.00349948
0.00701373
-0.0058808
-0.00768262
-0.00971817
-0.0115532
-0.0131886
-0.0153028
-0.0185953
-0.0221848
-0.0288116
-0.0428614
-0.0654597
-0.0986682
-0.147418
-0.260692
-0.352146
-0.699904
-1.34725
-2.29151
-1.38643
0.244986
0.921615
0.0707046
-1.5077
-2.00133
-0.879936
-0.423914
-0.223374
-0.117967
-0.0770816
-0.0486353
-0.0286335
-0.0163841
-0.011189
-0.00841101
-0.00575322
-0.00393084
-0.00247734
-0.000783175
0.00118868
0.00279707
-0.00652
-0.005904
-0.00704617
-0.00871743
-0.0103676
-0.0119963
-0.0143108
-0.017989
-0.0229967
-0.0288852
-0.0348482
-0.0372893
-0.0209578
-0.0639079
-0.0786787
-0.0464217
-0.213517
-0.914764
-2.03708
-3.35968
-3.91481
-3.07057
-1.75457
-0.674411
-0.000849773
-0.0346671
-0.0489077
-0.00964867
-0.0282032
-0.0269802
-0.0212995
-0.0158189
-0.0112259
-0.00755388
-0.00531427
-0.00358177
-0.00179776
-3.49352e-05
0.00123503
0.000650706
-0.00802826
-0.00739455
-0.00691257
-0.00693464
-0.0075193
-0.00845997
-0.00933309
-0.0106483
-0.0102135
-0.00531676
0.00694473
0.0347723
0.0941257
0.173925
0.246567
0.596431
0.956269
1.18784
0.8071
0.035674
-0.310088
0.140881
0.865176
1.14401
0.832385
0.380593
0.164399
0.0862644
0.0310432
0.00496753
-0.00563843
-0.0090963
-0.00805197
-0.00565836
-0.00411177
-0.00267352
-0.00178214
-0.00155465
-0.00189055
-0.00233058
-0.0103283
-0.00974493
-0.00875144
-0.00817032
-0.00806358
-0.00830022
-0.00828415
-0.00697307
-0.0031769
0.00458981
0.0183933
0.045152
0.087622
0.186984
0.289697
0.561192
1.09629
2.02817
3.03603
3.91082
4.22801
3.67677
2.72809
1.72774
0.721886
0.36295
0.15718
0.0655252
0.0324028
0.00892968
-0.000999318
-0.00556729
-0.00673912
-0.00655934
-0.00539762
-0.00437254
-0.00393663
-0.00422655
-0.00503779
-0.0054435
-0.0112911
-0.0110437
-0.0111452
-0.0115162
-0.0120765
-0.0130026
-0.0137867
-0.0135961
-0.0128862
-0.0125122
-0.0132368
-0.011717
-0.0368484
-0.0194421
-0.0923665
-0.0663181
0.209292
0.834958
1.73993
2.6823
2.91025
2.15182
1.15097
0.362324
-0.0810147
-0.147275
-0.0634599
-0.0631596
-0.0286649
-0.0236114
-0.0185877
-0.0155659
-0.0139901
-0.0125561
-0.0105395
-0.0087292
-0.00753614
-0.00675274
-0.00642909
-0.00662601
-0.0108572
-0.0119337
-0.0133138
-0.0147031
-0.0161604
-0.0181113
-0.0206988
-0.0238603
-0.0291077
-0.0379308
-0.0555025
-0.0740624
-0.152084
-0.275854
-0.341066
-0.783841
-1.18396
-1.55071
-2.21144
-2.59153
-2.59786
-2.27109
-1.6366
-1.26256
-0.843636
-0.388658
-0.317004
-0.176765
-0.088635
-0.0640539
-0.0419901
-0.0302546
-0.0234512
-0.0190976
-0.0154713
-0.012937
-0.0109493
-0.00914765
-0.00754137
-0.0064484
-0.00884861
-0.0109923
-0.0125674
-0.0139904
-0.0154574
-0.0174635
-0.020451
-0.0249758
-0.0321724
-0.0418157
-0.05963
-0.0792217
-0.127475
-0.237211
-0.384099
-0.732847
-1.20271
-1.79094
-2.5914
-3.1582
-3.12693
-2.5755
-1.79361
-1.20976
-0.738831
-0.400163
-0.256164
-0.138675
-0.086347
-0.0633532
-0.0428115
-0.0315267
-0.0233757
-0.0181143
-0.0144311
-0.0122285
-0.0105265
-0.00892072
-0.00724437
-0.00504132
-0.00599812
-0.00735184
-0.0080576
-0.00883909
-0.00968043
-0.0107716
-0.0123449
-0.0146187
-0.0181934
-0.0191634
-0.0195509
-0.0140409
0.00596395
-0.00641509
-0.0535033
-0.174135
-0.402266
-0.657562
-0.944804
-1.119
-1.0819
-0.884375
-0.605767
-0.358632
-0.146755
-0.0367099
0.00141223
0.0113289
-0.0115016
-0.0174109
-0.0168964
-0.0157391
-0.0119408
-0.00930716
-0.00754175
-0.0064017
-0.00549165
-0.00468683
-0.00399909
-0.00259764
-0.00441975
-0.00350634
-0.00321067
-0.00328659
-0.00347648
-0.00347543
-0.00337068
-0.00264043
-0.000395766
0.00690225
0.0241662
0.0478703
0.107136
0.172054
0.316053
0.471634
0.66844
0.8806
1.16776
1.36675
1.3855
1.20884
0.929581
0.721288
0.518386
0.351815
0.195767
0.124161
0.0584524
0.0319008
0.0124053
0.00399551
0.00119144
0.000152705
-0.000207764
-0.000268634
6.42899e-06
9.11559e-05
-0.000181452
-0.00120472
-0.00536851
-0.00307939
-0.00223894
-0.00169078
-0.00137166
-0.000988749
-6.13978e-05
0.00183546
0.00605849
0.011968
0.0259597
0.0458652
0.0908275
0.176796
0.377719
0.649893
1.03016
1.38348
1.89906
2.20116
2.2039
1.92824
1.40771
1.07915
0.683889
0.406424
0.198134
0.108162
0.0582682
0.0354514
0.0189965
0.0115613
0.00620012
0.00346496
0.00208732
0.00144681
0.00109193
0.000552378
-0.000253084
-0.00255088
-0.00707901
-0.00610342
-0.00536743
-0.00466293
-0.00415777
-0.00376886
-0.00327863
-0.00244669
-0.00125382
-0.000907263
-0.00183702
-0.00763469
-0.00196174
0.0222146
0.103977
0.249119
0.411418
0.618218
0.87497
1.03269
1.04025
0.898564
0.656305
0.452127
0.278444
0.127131
0.0385398
0.013066
0.0027531
0.00570082
0.00491887
0.00328173
0.00107728
-0.000428707
-0.0013394
-0.00207201
-0.00269305
-0.00344144
-0.00414273
-0.00488382
-0.00698632
-0.00805856
-0.00810959
-0.00790001
-0.00756797
-0.00738455
-0.0077098
-0.0087537
-0.0112043
-0.0160557
-0.0295794
-0.0511758
-0.089219
-0.154392
-0.24051
-0.319884
-0.455113
-0.516168
-0.647743
-0.756479
-0.747317
-0.620355
-0.479943
-0.421351
-0.297627
-0.223571
-0.143339
-0.0783252
-0.0449106
-0.0257281
-0.0128437
-0.00925231
-0.00704639
-0.00608035
-0.00592234
-0.00615119
-0.00642335
-0.00660619
-0.00650136
-0.0052752
-0.0046551
-0.00602011
-0.00652017
-0.00681215
-0.00684576
-0.0070716
-0.00773306
-0.00884261
-0.0123925
-0.018089
-0.0326086
-0.0463103
-0.0951693
-0.186908
-0.350879
-0.548759
-0.81381
-1.02863
-1.38305
-1.62018
-1.59891
-1.36492
-1.01829
-0.809145
-0.547955
-0.352622
-0.188843
-0.0945726
-0.0458453
-0.031402
-0.0178889
-0.0125608
-0.0088605
-0.00744244
-0.00644544
-0.00597226
-0.00568997
-0.00519186
-0.0045754
-0.00330352
-0.00184225
-0.00166977
-0.00196604
-0.00232079
-0.00249703
-0.00260787
-0.00277926
-0.00301299
-0.00393442
-0.00394504
-0.00470289
-0.00358635
-0.0191518
-0.0604732
-0.158512
-0.290985
-0.46405
-0.651575
-0.883236
-1.03989
-1.05234
-0.90705
-0.685716
-0.499995
-0.320087
-0.180192
-0.0746397
-0.0280898
-0.00917837
-0.00816272
-0.00642125
-0.00564159
-0.0041038
-0.00336998
-0.00281596
-0.00233274
-0.001871
-0.00133136
-0.000953747
-0.00117837
-0.000386455
0.000724716
0.00107744
0.00117746
0.0013396
0.00182027
0.00254515
0.00375961
0.0065973
0.0124542
0.0248378
0.0441623
0.073129
0.112189
0.145353
0.186734
0.223287
0.205392
0.24991
0.292471
0.269255
0.212342
0.159944
0.176652
0.151269
0.114055
0.0880709
0.0554041
0.0332247
0.0169493
0.00751553
0.00349214
0.00166558
0.00117102
0.000819689
0.000749102
0.000859064
0.000829955
0.00060805
-0.00036328
-0.000790917
-0.00026204
0.000340214
0.000954837
0.00165589
0.00267571
0.004276
0.00694168
0.0117974
0.0181223
0.0331281
0.058331
0.112129
0.196532
0.31558
0.471421
0.652852
0.780752
1.0263
1.21066
1.20233
1.00684
0.74904
0.613198
0.432618
0.278794
0.167728
0.0900121
0.0435622
0.0231945
0.0123214
0.00730662
0.00403106
0.00238196
0.00151529
0.000979154
0.000608106
0.000101715
-0.000340446
-0.000676007
-0.00143664
-0.00206514
-0.00188433
-0.00135068
-0.000565541
0.000468029
0.00187326
0.00395162
0.00743101
0.0113859
0.0182254
0.0320823
0.0666913
0.128201
0.223214
0.346848
0.514411
0.659275
0.858054
1.00735
1.00595
0.844183
0.631191
0.476021
0.306366
0.187428
0.100879
0.0454886
0.0172735
0.00773578
0.00459499
0.00296154
0.00127376
0.000443047
-0.000133956
-0.000593838
-0.00101788
-0.00136482
-0.00149177
-0.00094898
-0.000978648
-0.0020469
-0.00242462
-0.00252503
-0.0023005
-0.00194203
-0.00163527
-0.00138108
-0.00124059
-0.00335804
-0.00654265
-0.0115863
-0.0221627
-0.0253513
-0.027993
-0.0277797
-0.00529875
0.0347131
0.0320103
0.0177839
0.000733382
0.00415151
-0.000891654
-0.0450668
-0.0631648
-0.0572557
-0.046254
-0.0379144
-0.0228619
-0.0135426
-0.0075751
-0.00391283
-0.00267473
-0.00215098
-0.00181772
-0.00173628
-0.00171485
-0.00155202
-0.00117141
-0.000251529
-0.00015583
-0.00053489
-0.000906903
-0.00129188
-0.00172459
-0.00219658
-0.00286519
-0.0038672
-0.0059316
-0.0110235
-0.0200829
-0.0407566
-0.0839252
-0.139692
-0.220527
-0.325707
-0.44081
-0.516986
-0.701621
-0.852277
-0.864916
-0.719405
-0.534012
-0.45573
-0.341227
-0.233544
-0.148639
-0.0888872
-0.044307
-0.0219048
-0.0112177
-0.00568251
-0.00353218
-0.002247
-0.00125811
-0.00072142
-0.000375161
1.11223e-07
0.000368037
0.000746486
0.000154499
0.000952185
0.00103234
0.000870003
0.000452241
-1.24392e-05
-0.000787692
-0.00198651
-0.00393882
-0.00774863
-0.0132683
-0.0292811
-0.0676113
-0.129175
-0.217956
-0.33027
-0.473912
-0.588689
-0.769827
-0.919085
-0.909734
-0.761237
-0.57175
-0.45639
-0.309254
-0.201539
-0.118108
-0.059979
-0.0244944
-0.00924673
-0.00414261
-0.000952343
0.00035951
0.00104511
0.00165528
0.00200646
0.00223601
0.00228713
0.00221659
0.00154073
-3.97635e-05
0.00118985
0.00159799
0.00177079
0.00173832
0.00164975
0.00171578
0.00184774
0.00180558
0.00305147
0.00491719
0.00671114
0.00259212
-0.0105606
-0.0270222
-0.0604036
-0.12023
-0.170928
-0.216123
-0.240674
-0.220846
-0.18292
-0.132949
-0.07969
-0.022715
0.00367157
0.0127488
0.0197022
0.019196
0.0138018
0.00941448
0.00666717
0.00540058
0.00466986
0.00431114
0.0041334
0.00398063
0.00372099
0.00324109
0.00205171
-0.000400702
0.0001338
0.000452602
0.000771841
0.00107515
0.00151575
0.00224902
0.00356129
0.0055066
0.00997449
0.0168589
0.0345545
0.0635415
0.10441
0.169114
0.234541
0.291266
0.334552
0.465075
0.558461
0.576095
0.482519
0.36015
0.325807
0.26968
0.201618
0.131213
0.0861865
0.0508255
0.0278859
0.0171051
0.0113588
0.00818307
0.00596236
0.00467478
0.00393288
0.00342644
0.00309464
0.00263059
0.00203252
-0.000322406
-0.00093757
-0.00093044
-0.000688741
-0.000422766
4.5235e-05
0.00082588
0.00174608
0.00310114
0.00750783
0.0132923
0.0294808
0.0654628
0.116244
0.197614
0.290903
0.408616
0.499599
0.663048
0.798791
0.797436
0.669383
0.517578
0.433479
0.323728
0.230631
0.143282
0.088132
0.0460149
0.0252854
0.0157002
0.00927107
0.00641042
0.004241
0.00284024
0.00216566
0.0015339
0.00127265
0.00121122
0.00185514
0.000491961
-0.000574463
-0.00093633
-0.00107598
-0.00108049
-0.00108764
-0.00120451
-0.00132135
-0.0021248
-0.00244115
-0.00298853
-0.00171032
0.00913166
0.0249348
0.0457199
0.0886186
0.152958
0.207714
0.28173
0.342174
0.351172
0.301148
0.237798
0.188001
0.124397
0.0780301
0.0501757
0.0279249
0.0126178
0.00794884
0.00461812
0.00313915
0.00253998
0.00170304
0.00118412
0.000808174
0.000547454
0.000619669
0.00102771
0.00231505
0.00143167
0.000952643
0.000563748
0.000272315
-8.18726e-05
-0.000542965
-0.00130377
-0.00268037
-0.0053038
-0.0101539
-0.0172056
-0.0326044
-0.0541828
-0.0830002
-0.131293
-0.167995
-0.201404
-0.220387
-0.292113
-0.338837
-0.320333
-0.264665
-0.185225
-0.165193
-0.137028
-0.106422
-0.0663791
-0.0418595
-0.0236553
-0.00930602
-0.00448717
-0.00172253
0.000216123
0.00088391
0.00141407
0.00170979
0.00183148
0.0020954
0.00251655
0.00312442
0.00201625
0.00242594
0.00247611
0.00237652
0.00205036
0.00160038
0.000744711
-0.000748082
-0.00178368
-0.00774357
-0.0152557
-0.0343996
-0.0705523
-0.117851
-0.18687
-0.261788
-0.352371
-0.419373
-0.546606
-0.65029
-0.640764
-0.536537
-0.405657
-0.338914
-0.254005
-0.182773
-0.116155
-0.0684551
-0.0332769
-0.0133483
-0.00524253
-0.000323914
0.00118086
0.00253502
0.00304541
0.0037064
0.00404422
0.00421417
0.00416776
0.00356654
0.00225258
0.00333488
0.00373374
0.00393673
0.00391907
0.00386156
0.00374937
0.00354938
0.00412905
0.00296302
0.00100945
-0.00646587
-0.0247924
-0.050039
-0.0853807
-0.133291
-0.19489
-0.244437
-0.326631
-0.399526
-0.407587
-0.343642
-0.261908
-0.213079
-0.151581
-0.101247
-0.061802
-0.0319896
-0.0117799
-0.00225185
0.00185209
0.00365645
0.00373583
0.00430275
0.00466509
0.0049836
0.00517387
0.00502927
0.00464294
0.00342262
0.00224814
0.00302478
0.0034806
0.00384342
0.00413093
0.00462832
0.00541314
0.00647926
0.0089529
0.013036
0.0189374
0.0292114
0.0423375
0.0595033
0.0860938
0.0992256
0.107241
0.113323
0.136114
0.141978
0.135779
0.115762
0.0889862
0.080831
0.0741067
0.0635792
0.0436576
0.0291758
0.0189305
0.0118494
0.00890651
0.00705596
0.00542724
0.00492986
0.0045006
0.00436736
0.00422945
0.00400471
0.00365314
0.0028836
0.00195961
0.001706
0.00181552
0.00206982
0.00254951
0.00340924
0.00462692
0.00619428
0.00891428
0.0155915
0.0259874
0.0464849
0.0780187
0.12181
0.180728
0.233501
0.299474
0.345772
0.444145
0.513198
0.502346
0.428517
0.330927
0.277463
0.210483
0.156004
0.101404
0.0601744
0.0332508
0.0173139
0.0100976
0.00629451
0.00449516
0.00390284
0.00308677
0.00265356
0.00235663
0.00220012
0.00220357
0.00258003
0.00189425
0.000818838
0.000480258
0.000382802
0.000712311
0.0013037
0.00217837
0.00353815
0.0053453
0.00972184
0.0169502
0.0326883
0.0556417
0.088345
0.132775
0.182082
0.237648
0.281458
0.359292
0.424229
0.410063
0.341227
0.256777
0.207356
0.151208
0.101298
0.0618675
0.0353311
0.0188914
0.00784688
0.00415898
0.00248236
0.00234747
0.00204655
0.00173917
0.00153951
0.00147751
0.00160371
0.0019256
0.00295242
0.0024267
0.00150927
0.00101543
0.000727973
0.000681866
0.000728719
0.000754781
0.000988383
0.000533842
2.93666e-05
0.000229577
0.000448964
-0.00113515
-0.00314837
-0.00361494
0.000301293
0.00516047
0.00472212
0.00371725
0.0106507
-0.00761743
-0.0265011
-0.031001
-0.0347387
-0.0373628
-0.0360697
-0.0283891
-0.0188228
-0.0110622
-0.00690865
-0.00384096
-0.00104187
0.00048472
0.00148781
0.0019311
0.00221544
0.00240424
0.00273472
0.00315094
0.00386518
0.00303155
0.0030888
0.00299871
0.00285266
0.00257641
0.0021073
0.00152705
0.000867064
-0.00117531
-0.005153
-0.0119883
-0.0253501
-0.045699
-0.0767418
-0.114711
-0.151961
-0.197025
-0.23647
-0.306561
-0.348638
-0.363765
-0.326971
-0.260863
-0.22052
-0.169458
-0.128997
-0.0869081
-0.0526506
-0.0286053
-0.0137512
-0.00536691
-0.000432165
0.00175814
0.00298983
0.00384977
0.00430167
0.00457493
0.00462647
0.00469495
0.00456912
0.0032491
0.00418207
0.00453127
0.0046369
0.00438887
0.00395526
0.00327675
0.00265403
0.000956957
-0.00232887
-0.00888581
-0.0238712
-0.0461209
-0.0773095
-0.119679
-0.162238
-0.209237
-0.252391
-0.326794
-0.384376
-0.375759
-0.317853
-0.244092
-0.197227
-0.149052
-0.106686
-0.066801
-0.0381523
-0.0175849
-0.00376376
0.00171007
0.00437381
0.00542946
0.00587311
0.0062655
0.00632687
0.00636442
0.00615822
0.00576596
0.00494543
0.00293067
0.00396055
0.0043956
0.00457415
0.00452067
0.00443205
0.00433402
0.00436112
0.00458229
0.00449702
0.00389737
0.00071516
-0.00242937
-0.00852458
-0.0188891
-0.0307592
-0.0442221
-0.0513028
-0.0720867
-0.0993936
-0.0873561
-0.0510863
-0.0238746
-0.012839
-0.00129844
0.00775884
0.0135166
0.0144112
0.013695
0.0135432
0.0117401
0.0102006
0.00879837
0.00797702
0.00750026
0.00720437
0.00698359
0.0066191
0.00608815
0.00511904
0.00246333
0.00264236
0.00277797
0.00284536
0.00300413
0.00330898
0.00378878
0.00459414
0.00604278
0.00876682
0.0136764
0.0240806
0.0424659
0.0658492
0.0916552
0.115762
0.143259
0.17635
0.218179
0.237202
0.236314
0.228073
0.197084
0.168437
0.140668
0.115539
0.0882503
0.06112
0.0392756
0.0253428
0.0176503
0.0124309
0.00973533
0.00801869
0.00690411
0.00621175
0.00587976
0.00557724
0.00529225
0.00498247
0.00228497
0.00154896
0.00129242
0.00121919
0.00137548
0.00173182
0.00221699
0.00284656
0.00410604
0.00731061
0.0122445
0.0248985
0.0454494
0.0729598
0.108368
0.14339
0.181015
0.225172
0.289002
0.334128
0.331995
0.295579
0.241273
0.201741
0.167222
0.131974
0.095709
0.0644048
0.0397416
0.0236967
0.0162485
0.0104174
0.00762498
0.00587375
0.00483688
0.00415087
0.00380579
0.00371173
0.00389053
0.00464763
0.00275249
0.00180424
0.00135679
0.00109758
0.00103538
0.00103464
0.00100904
0.000765245
0.000239551
0.000570539
0.0017295
0.00451425
0.00643963
0.0126488
0.0233442
0.0359112
0.0507472
0.0658926
0.100286
0.141258
0.14843
0.119891
0.0937765
0.0821299
0.068749
0.0529736
0.0378083
0.0256957
0.0186224
0.0118932
0.00790568
0.00534935
0.00439966
0.0037244
0.0031858
0.0028332
0.00269483
0.00293488
0.00344091
0.00458377
0.00346865
0.00311599
0.00282307
0.0025983
0.00232471
0.00196522
0.00140652
0.000572053
-0.00183289
-0.00575102
-0.00868757
-0.0166089
-0.0344908
-0.0530101
-0.072662
-0.0934694
-0.110574
-0.137424
-0.15548
-0.139805
-0.12975
-0.132916
-0.108645
-0.079762
-0.06321
-0.0491149
-0.0343447
-0.0208327
-0.00703869
-0.00230959
-0.000279233
0.00204304
0.00284532
0.00339786
0.0036512
0.00367828
0.00384758
0.00409617
0.00443056
0.00499302
0.00385741
0.00434024
0.0045321
0.00455976
0.00447123
0.00423329
0.00378012
0.0027916
0.00104938
-0.003978
-0.0093207
-0.0207709
-0.0419418
-0.067567
-0.0975084
-0.128795
-0.156905
-0.199484
-0.250131
-0.26906
-0.265212
-0.242201
-0.193447
-0.150633
-0.124111
-0.0954143
-0.0647379
-0.0412755
-0.0204079
-0.00893861
-0.00269172
0.00232268
0.00405801
0.005011
0.00543026
0.00572673
0.00597649
0.00600033
0.00581121
0.0052914
0.00410574
0.00502543
0.00555603
0.00589141
0.00605685
0.00612491
0.00621702
0.00612402
0.00636727
0.00471042
0.00177589
-0.00371822
-0.011345
-0.0219454
-0.034733
-0.0496217
-0.0628092
-0.0843327
-0.125687
-0.161912
-0.165278
-0.139583
-0.105542
-0.0817021
-0.0687465
-0.051206
-0.0352199
-0.0211894
-0.0109709
-0.00301449
0.00222208
0.00506645
0.00547022
0.0060928
0.00656569
0.00684762
0.00694813
0.00673887
0.0062648
0.0051541
0.00419602
0.00494128
0.00543241
0.00581625
0.00615264
0.00659212
0.00724187
0.00834421
0.0102831
0.013588
0.0166318
0.0214633
0.0335381
0.0448501
0.0561537
0.067478
0.0751584
0.0934455
0.0915187
0.0651379
0.0585284
0.0742605
0.0688773
0.0511029
0.0439433
0.0366899
0.0281561
0.0207907
0.0112528
0.0086968
0.00872947
0.00694814
0.00611808
0.00586453
0.00598157
0.00597688
0.00590093
0.00568994
0.00532961
0.00464411
0.00396142
0.00390976
0.00400266
0.00424705
0.00466037
0.00525301
0.00624608
0.00767419
0.0103895
0.0163932
0.0243186
0.0356732
0.0566383
0.0791386
0.101702
0.126502
0.142337
0.186245
0.218981
0.218489
0.212826
0.202314
0.163273
0.124055
0.105931
0.0834421
0.0620977
0.0424962
0.0240689
0.0151722
0.0103659
0.00633053
0.00503637
0.00461483
0.00435755
0.00403328
0.00384476
0.00380778
0.0038747
0.0040984
0.00357308
0.00269944
0.00233553
0.00229624
0.0025278
0.00298176
0.00378126
0.00512632
0.00710574
0.0116487
0.0185825
0.0280953
0.0416441
0.0580173
0.0738193
0.091909
0.103403
0.131086
0.164759
0.177978
0.169504
0.143622
0.10354
0.0751913
0.0628843
0.0473777
0.0350042
0.0234478
0.0147057
0.00910415
0.00545507
0.0034584
0.00351532
0.00304513
0.00279392
0.00273085
0.00266087
0.00276467
0.00313069
0.00403964
0.00351997
0.00256917
0.00206621
0.00180783
0.00179895
0.00199872
0.00234202
0.00260629
0.0031022
0.00316329
0.00506448
0.00664324
0.00418444
0.00322462
0.0006618
-0.00156682
-0.00443538
-0.011386
-0.00548237
0.00802682
0.000228348
-0.030724
-0.0445514
-0.0390477
-0.0359657
-0.0302198
-0.0222974
-0.014812
-0.00613656
-0.0027347
-0.0015412
0.000627158
0.00192163
0.0024819
0.00270455
0.00286602
0.00303279
0.00327545
0.0036915
0.00440998
0.00376772
0.00357425
0.00340869
0.00323422
0.00310747
0.00295691
0.00285251
0.00211104
0.00104682
-0.00256893
-0.00686914
-0.012738
-0.0268108
-0.0420009
-0.0578064
-0.0764302
-0.0879842
-0.117392
-0.14073
-0.141865
-0.142853
-0.152872
-0.133351
-0.10689
-0.0918286
-0.0727866
-0.053789
-0.0343499
-0.0173346
-0.00908398
-0.00369798
0.000873376
0.00238263
0.00356494
0.00412613
0.00439807
0.00453695
0.00463994
0.00476012
0.004771
0.00386156
0.00454611
0.00484149
0.00485729
0.00469943
0.00439587
0.0041621
0.00316102
0.00197058
-0.00191186
-0.00853029
-0.0166617
-0.029663
-0.0446554
-0.0579745
-0.0723974
-0.082353
-0.108935
-0.141157
-0.151633
-0.147191
-0.129889
-0.0947684
-0.0700396
-0.0588026
-0.0452919
-0.0335362
-0.0206396
-0.0096677
-0.00329785
0.00164116
0.00438322
0.00528077
0.00595115
0.00603755
0.00609035
0.00600112
0.00582095
0.00546148
0.00480455
0.00349409
0.00439422
0.00483802
0.00504546
0.0050076
0.00477632
0.0045211
0.00426044
0.00405474
0.00322851
0.000450174
-0.00273928
-0.0035481
-0.00476206
-0.00332819
-0.00301654
-0.00175468
-0.00599999
-0.0206327
-0.0338565
-0.0286862
-0.000721125
0.0220021
0.0274204
0.0260842
0.0233762
0.0182099
0.0147308
0.0110516
0.0100003
0.0100691
0.00893525
0.00808517
0.00751866
0.00710576
0.00687719
0.00656736
0.00617413
0.00563193
0.00477829
0.00293171
0.00325377
0.00343661
0.00359192
0.00366169
0.00365918
0.00378966
0.00425814
0.00541656
0.00787267
0.0107484
0.014794
0.026223
0.0386374
0.0520284
0.0643682
0.0758217
0.0922329
0.103878
0.0981015
0.0992635
0.122111
0.113306
0.099834
0.0888367
0.0748894
0.0596266
0.0437727
0.0290154
0.0207201
0.0155663
0.0110843
0.00908648
0.00747388
0.00661225
0.0061461
0.00578192
0.0054382
0.00506324
0.00465346
0.00258375
0.00214194
0.00196709
0.00196292
0.00205125
0.00228973
0.00271912
0.00337349
0.00460326
0.00726856
0.0122075
0.01842
0.0297875
0.042208
0.053191
0.0637614
0.075053
0.0972603
0.125109
0.136519
0.139314
0.135816
0.112939
0.0969446
0.0847905
0.073063
0.0600561
0.0449362
0.0305312
0.0215401
0.0145181
0.00973103
0.00703118
0.00555016
0.00468064
0.00410999
0.00382491
0.00378638
0.00385939
0.00415136
0.00260692
0.00191811
0.0015737
0.00142586
0.00139345
0.00157271
0.00175802
0.00181983
0.00183732
0.00225674
0.0037175
0.00463722
0.00475174
0.00440837
0.00250374
0.000858996
0.00263172
0.0124976
0.0365401
0.0559179
0.0618995
0.0508795
0.0354259
0.0295013
0.0277558
0.0265926
0.0241644
0.0201199
0.0159041
0.0116408
0.00773021
0.00532591
0.00407338
0.0033269
0.00272797
0.00231969
0.00222066
0.00235138
0.00276413
0.00361236
0.00287923
0.0025018
0.00223362
0.00201364
0.00189754
0.00169829
0.00157905
0.000918657
-0.000663921
-0.00298643
-0.00578121
-0.0110909
-0.021431
-0.0338168
-0.0472197
-0.0583377
-0.0687261
-0.0732309
-0.0700848
-0.0562566
-0.0515566
-0.0585382
-0.0527305
-0.0455792
-0.036545
-0.0283487
-0.0192991
-0.0105048
-0.00352648
-0.000321749
1.50275e-05
0.00105913
0.00188093
0.00214427
0.00210961
0.00208861
0.00217355
0.00239197
0.00277028
0.00340418
0.00295845
0.00313157
0.00316396
0.00313845
0.00306759
0.00288074
0.00252201
0.00165678
-0.000120172
-0.00323182
-0.00711844
-0.0139866
-0.0245878
-0.0367801
-0.0483067
-0.0564516
-0.0681937
-0.0829264
-0.100424
-0.104747
-0.10552
-0.100589
-0.0820716
-0.0691232
-0.0565075
-0.0490338
-0.0380004
-0.0256734
-0.0151293
-0.00761956
-0.0035661
-0.000438469
0.00172159
0.0022303
0.00280312
0.00316162
0.00334386
0.00347643
0.00352422
0.0033735
0.0028537
0.00334103
0.00367842
0.0039298
0.00403271
0.00404435
0.00405744
0.00388476
0.00336897
0.00222208
0.000279058
-0.00159716
-0.00341934
-0.00427429
-0.00363156
-0.000314356
-0.00335168
-0.0146071
-0.0383142
-0.0549281
-0.058972
-0.0505954
-0.0343155
-0.0262966
-0.0211626
-0.0223339
-0.0194468
-0.0154392
-0.0104276
-0.0053669
-0.00175208
0.00100576
0.00232439
0.00301713
0.0035916
0.0039163
0.00406376
0.00397749
0.00365469
0.00303151
0.00280067
0.00330575
0.00370474
0.00403793
0.00426985
0.0045268