/*--------------------------------*- C++ -*----------------------------------*\
| =========                 |                                                 |
| \\      /  F ield         | OpenFOAM: The Open Source CFD Toolbox           |
|  \\    /   O peration     | Version:  v2106                                 |
|   \\  /    A nd           | Website:  www.openfoam.com                      |
|    \\/     M anipulation  |                                                 |
\*---------------------------------------------------------------------------*/
FoamFile
{
    version     2.0;
    format      ascii;
    arch        "LSB;label=32;scalar=64";
    class       volVectorField;
    location    "0";
    object      U;
}
// * * * * * * * * * * * * * * * * * * * * * * * * * * * * * * * * * * * * * //

dimensions      [0 1 -1 0 0 0 0];

internalField   nonuniform List<vector> 
11644
(
(0.000325644 -6.34137e-05 1.2035e-22)
(0.000299511 -0.000191096 3.3189e-22)
(0.000263476 -0.000291333 1.78067e-22)
(0.000247475 -0.000370815 0)
(0.000246871 -0.000438576 0)
(0.00023774 -0.000487168 0)
(0.000230942 -0.000539142 0)
(0.000228731 -0.000580486 0)
(0.000228868 -0.000601095 0)
(0.000216812 -0.000614972 0)
(0.000228416 -0.000564804 0)
(0.000256735 -0.000539848 0)
(0.000241737 -0.000496629 0)
(0.000172885 -0.000444939 0)
(0.000469139 -0.000302741 0)
(-8.23059e-05 -0.000268462 0)
(-0.00237144 0.000859839 0)
(-0.00307213 0.00378882 0)
(0.0010573 0.00529139 0)
(0.00588654 0.00253053 8.27293e-31)
(0.00612844 -0.00256981 -8.24677e-31)
(0.00135814 -0.00573644 0)
(-0.00314888 -0.00440426 0)
(-0.00261905 -0.00129956 0)
(-0.000133122 -1.80739e-05 0)
(0.000540809 8.56669e-06 0)
(0.000223956 0.000184189 0)
(0.000259705 0.000254534 0)
(0.000250852 0.000327095 0)
(0.000212229 0.000386611 0)
(0.000217827 0.000457031 0)
(0.000227523 0.000470327 0)
(0.000223932 0.000473098 0)
(0.0002272 0.000452302 0)
(0.000233964 0.000417973 0)
(0.000240251 0.000389693 0)
(0.00024399 0.000333212 0)
(0.000260102 0.000265612 0)
(0.000294948 0.000173525 0)
(0.000320149 5.87619e-05 2.33346e-23)
(0.000556111 -0.000126336 1.54589e-22)
(0.00055696 -0.000372345 1.43199e-22)
(0.000535889 -0.000671792 7.69075e-23)
(0.000498633 -0.000963449 0)
(0.000446725 -0.00124745 0)
(0.000420171 -0.00151475 0)
(0.000404337 -0.00176221 0)
(0.000386117 -0.00197934 0)
(0.000341465 -0.00217885 0)
(0.000321986 -0.00232099 0)
(0.000232134 -0.00246839 0)
(0.000126651 -0.00249223 0)
(0.00010278 -0.0023803 0)
(0.000129834 -0.0022161 0)
(-0.000614206 -0.00173344 0)
(-0.00187138 -0.000431191 -2.84439e-23)
(-0.00231523 4.86044e-05 1.3033e-22)
(-0.000191835 -0.00211623 6.59427e-22)
(0.00205667 -0.00420659 -7.85497e-22)
(0.00314466 -0.0026309 -8.49469e-21)
(0.00328659 0.00124447 7.89733e-21)
(0.00242368 0.00313861 2.3003e-22)
(6.54021e-05 0.00117134 4.7376e-22)
(-0.0023881 -0.00110625 -1.38502e-22)
(-0.00213818 -0.000630504 5.191e-23)
(-0.000839701 0.000885384 0)
(-7.30167e-06 0.00150049 0)
(5.97583e-06 0.00176566 0)
(4.60976e-05 0.00197044 0)
(0.000182386 0.00200977 0)
(0.000240843 0.00194825 0)
(0.000276485 0.00187379 0)
(0.000336924 0.00173156 0)
(0.000364598 0.00156806 0)
(0.000384234 0.00136778 0)
(0.000420777 0.0011354 0)
(0.000475094 0.000883592 0)
(0.000518828 0.000616712 0)
(0.000537634 0.00034633 0)
(0.00053453 0.000116805 0)
(0.000953014 -0.000137339 0)
(0.0009778 -0.000442325 0)
(0.00100989 -0.000741549 0)
(0.00101393 -0.00110091 0)
(0.000986778 -0.00148639 1.41214e-22)
(0.000948366 -0.00189107 0)
(0.000905271 -0.0022678 0)
(0.000843448 -0.00261107 0)
(0.000794228 -0.00289436 0)
(0.000671886 -0.00317061 0)
(0.000580588 -0.0032731 0)
(0.000411305 -0.00337863 0)
(4.26065e-05 -0.00346284 -9.71513e-24)
(-0.000765215 -0.00312019 1.25476e-21)
(-0.00160413 -0.0027608 -1.60821e-21)
(-0.00149607 -0.00278612 -6.2169e-21)
(0.00110187 -0.00472458 3.72714e-21)
(0.00215592 -0.00816016 2.81535e-21)
(-0.000606288 -0.00830328 -3.16344e-21)
(-0.0038267 -0.00410099 1.88884e-20)
(-0.00396507 0.0015671 -1.7437e-20)
(-0.000889727 0.00622345 3.34302e-21)
(0.0020515 0.00670638 -4.91867e-21)
(0.00112485 0.00347168 5.99909e-21)
(-0.0016257 0.00146656 -2.82378e-21)
(-0.00184998 0.00151474 1.3441e-21)
(-0.00106109 0.00203238 -1.238e-21)
(-0.000274222 0.00256869 5.30677e-24)
(0.000125731 0.00264526 0)
(0.000310853 0.00269613 0)
(0.000463928 0.00269708 0)
(0.000615103 0.00252797 0)
(0.000693297 0.00234029 0)
(0.000785022 0.00207268 0)
(0.000848247 0.00176108 0)
(0.000906478 0.00140225 0)
(0.000941395 0.00106009 0)
(0.000958161 0.000725499 0)
(0.000938183 0.000434915 0)
(0.000915266 0.000139548 0)
(0.00134583 -0.000125371 0)
(0.00137415 -0.000407918 0)
(0.00142582 -0.00065131 0)
(0.00146371 -0.00093594 0)
(0.00149343 -0.00120464 0)
(0.00149068 -0.00153507 0)
(0.00144931 -0.00187879 0)
(0.00137354 -0.00222478 0)
(0.00125159 -0.00257381 0)
(0.00106757 -0.00282354 0)
(0.000867363 -0.00315208 1.80452e-23)
(0.000585912 -0.00334382 1.38726e-22)
(0.000131581 -0.00331002 2.29046e-21)
(-0.000262671 -0.00329611 -3.07062e-21)
(-0.000248373 -0.00375024 -3.42961e-21)
(0.00157295 -0.00519772 -3.79351e-21)
(0.00335773 -0.00690857 7.5611e-21)
(0.00175495 -0.0067181 -9.68445e-21)
(-0.00363396 -0.00423904 2.06182e-20)
(-0.00822569 -0.0018286 -1.59246e-20)
(-0.008455 -0.000597511 7.43e-21)
(-0.0043077 0.00189239 4.80001e-21)
(0.00110182 0.00464859 -7.44032e-21)
(0.00292713 0.00521242 -1.09178e-20)
(0.00123879 0.00381311 6.65259e-21)
(-0.000810413 0.00254868 3.92769e-21)
(-0.000826127 0.00223879 3.32843e-21)
(-0.000412267 0.00243123 -3.08741e-21)
(6.92797e-05 0.00265375 6.24832e-22)
(0.000378577 0.00263439 -1.33947e-23)
(0.000647099 0.0024772 0)
(0.00091907 0.0023491 0)
(0.00111108 0.00208899 0)
(0.00124356 0.00181144 0)
(0.00134118 0.00150732 0)
(0.00138154 0.00120025 0)
(0.0013811 0.000936696 0)
(0.00137228 0.00065772 0)
(0.00133953 0.000411915 0)
(0.00131633 0.000115491 0)
(0.00161269 -0.000141729 0)
(0.00163683 -0.000197391 0)
(0.00163876 -0.000434167 0)
(0.00169116 -0.000501911 0)
(0.00172854 -0.000650568 0)
(0.00178287 -0.00075654 0)
(0.00179622 -0.000915782 0)
(0.0017717 -0.00111449 0)
(0.00166408 -0.00138014 0)
(0.00164963 -0.00164414 -1.19403e-22)
(0.00143539 -0.00195575 2.78421e-21)
(0.000916061 -0.00222669 4.03042e-21)
(0.000432863 -0.00269276 2.8384e-21)
(0.000549004 -0.00304187 -1.77537e-20)
(0.00168811 -0.00388323 -1.83688e-20)
(0.00302757 -0.0047377 2.79975e-20)
(0.00263283 -0.00384856 1.77798e-21)
(-0.00132938 -0.000669762 -1.5638e-20)
(-0.00535884 0.000950667 2.33445e-20)
(-0.00820726 -5.34778e-05 -3.75353e-20)
(-0.00850332 -0.00178921 3.91655e-20)
(-0.00599712 -0.00291392 -3.06986e-20)
(-0.0020301 -0.00137113 2.15952e-20)
(0.0016001 0.00186365 7.63232e-22)
(0.00194009 0.00324457 -2.82965e-20)
(0.000793839 0.00268619 1.49438e-20)
(-0.000420481 0.00210002 1.97783e-20)
(-0.000453802 0.00196529 -1.01211e-20)
(0.000176972 0.00174338 1.4087e-21)
(0.000827106 0.00167063 -1.82211e-21)
(0.00109635 0.001545 -9.66264e-23)
(0.00122162 0.00138349 0)
(0.0014527 0.00117201 0)
(0.00156261 0.000999392 0)
(0.00163082 0.000846114 0)
(0.00162761 0.000736074 0)
(0.00162664 0.000580042 0)
(0.00160885 0.000492044 0)
(0.00163206 0.000247713 0)
(0.00161396 0.000171012 0)
(0.00175152 6.78058e-05 0)
(0.00172798 -0.0001132 0)
(0.00175787 -4.90388e-05 0)
(0.00175966 -0.000117836 0)
(0.0017889 -0.000148789 0)
(0.00181101 -0.000178014 0)
(0.00184474 -0.000201568 0)
(0.001852 -0.000274713 0)
(0.00194063 -0.000252791 3.57473e-22)
(0.00183736 -0.000484645 -3.95951e-22)
(0.00163524 -0.000709911 -2.57728e-21)
(0.00174573 -0.000968967 1.42773e-21)
(0.00181569 -0.00147326 3.83413e-21)
(0.00201714 -0.00257936 -2.59067e-20)
(0.00206988 -0.0028005 2.07116e-20)
(0.000784608 -0.00192458 2.11147e-20)
(-0.00248696 0.000673076 -1.81685e-20)
(-0.00401861 0.00330917 -2.206e-20)
(-0.00407339 0.00314861 3.29191e-20)
(-0.00359651 0.000761057 5.84604e-22)
(-0.00389806 -0.00236103 1.55494e-21)
(-0.00460286 -0.00489888 -9.66594e-21)
(-0.00482516 -0.00517538 -6.13693e-21)
(-0.00368738 -0.00244195 4.68432e-22)
(-0.000639902 0.000483542 -5.66857e-21)
(0.000386111 0.00168905 -1.44719e-20)
(0.00050506 0.00176652 2.41894e-20)
(0.000303763 0.00109905 -3.72852e-22)
(0.000485851 0.000853074 -2.93663e-21)
(0.000790569 0.000766195 2.81838e-22)
(0.00126923 0.000644633 6.99415e-22)
(0.00152644 0.000495464 1.00833e-22)
(0.00154287 0.000542376 0)
(0.00163646 0.000460314 0)
(0.00168402 0.000426273 0)
(0.00172409 0.00037091 0)
(0.0017449 0.000298716 0)
(0.00177881 0.000185348 0)
(0.00177726 0.000168344 0)
(0.00181325 -5.34076e-05 0)
(0.0017315 1.17564e-05 0)
(0.00171879 -0.000157301 0)
(0.00167773 -0.000146017 0)
(0.00166469 -0.00034368 0)
(0.00169437 -0.000331793 0)
(0.00170548 -0.00042854 0)
(0.00172626 -0.00048935 0)
(0.00174836 -0.000466027 2.40717e-23)
(0.00173873 -0.000557292 -8.44382e-22)
(0.001704 -0.000774044 1.6852e-21)
(0.00185363 -0.00121049 7.05497e-23)
(0.00200813 -0.00180212 -1.14583e-21)
(0.00277412 -0.00228272 1.28078e-21)
(0.00270772 -0.00246416 1.43688e-20)
(0.00191016 -0.00194765 -1.92057e-20)
(-0.00141143 -0.000467985 7.75964e-21)
(-0.00491244 0.00196067 2.47667e-20)
(-0.00519571 0.00439196 3.72565e-20)
(-0.00277528 0.00362131 5.15896e-20)
(-0.000395661 0.00172136 1.02476e-21)
(0.000126936 -0.00174007 1.07427e-20)
(-0.00234238 -0.00515454 2.97819e-21)
(-0.00569648 -0.00655167 2.26089e-20)
(-0.00645313 -0.00395956 5.13172e-20)
(-0.00334253 -0.0010575 -1.34824e-20)
(-0.000168229 0.0006851 2.55198e-20)
(0.000324723 0.00177799 -1.4534e-20)
(0.000865939 0.00182204 6.16714e-21)
(0.000430735 0.00171718 -7.50494e-21)
(0.000577475 0.00147061 3.4278e-21)
(0.000993031 0.00117048 -9.84135e-22)
(0.00133566 0.000982176 -1.4427e-21)
(0.00151662 0.000865501 -6.78937e-23)
(0.00159334 0.000857912 0)
(0.00165948 0.00073692 0)
(0.00171776 0.000576825 0)
(0.00174167 0.000504842 0)
(0.00178563 0.000245938 0)
(0.00184056 0.000245437 0)
(0.00186988 4.76617e-06 0)
(0.00181543 -0.000454478 0)
(0.00183036 -6.32782e-05 0)
(0.00183023 -0.000627051 0)
(0.00184151 -0.000468207 0)
(0.00180762 -0.000686349 0)
(0.00181231 -0.000812762 0)
(0.0018081 -0.00104619 0)
(0.00183253 -0.00126937 -1.19353e-22)
(0.00188594 -0.00184314 2.96122e-22)
(0.00224572 -0.00237986 3.22336e-21)
(0.00275781 -0.00280615 1.59567e-21)
(0.00300599 -0.00393509 -4.62726e-21)
(0.00176525 -0.00471442 -7.32966e-21)
(0.00509439 -0.00327477 1.05349e-21)
(0.000765736 -0.00252895 1.35998e-21)
(-0.00298825 0.000191901 -1.88393e-21)
(-0.00489086 -0.00082458 8.10588e-21)
(-0.00560109 -0.000232856 -2.73801e-20)
(-0.00102256 -0.000941398 -1.03012e-20)
(0.00162481 -0.000828498 1.3027e-20)
(0.00250922 -0.000624573 -4.38969e-21)
(-0.000130703 -0.00137864 1.85688e-20)
(-0.00419765 -0.00228364 -6.32171e-21)
(-0.00829713 -0.00156705 -4.47295e-20)
(-0.00667228 -0.000967405 7.67681e-21)
(-0.00251245 0.0010174 -3.79249e-21)
(-0.00017489 0.00248091 -2.61283e-21)
(-0.000660154 0.00428254 4.53204e-21)
(0.000817565 0.00393563 -9.36614e-21)
(0.00114822 0.00305516 1.57289e-21)
(0.00122746 0.00290816 9.18331e-22)
(0.00139932 0.00246224 -8.01857e-22)
(0.00166958 0.00186471 -5.98336e-22)
(0.00177517 0.00155016 0)
(0.00186479 0.00123745 0)
(0.00192786 0.00103378 0)
(0.00201058 0.000765265 0)
(0.00201967 0.000840053 0)
(0.00203889 0.000182525 0)
(0.00203454 0.000531238 0)
(0.00199706 0.000537937 0)
(0.00194928 -0.000157733 0)
(0.00194574 0.00017426 0)
(0.00192322 -9.98467e-05 0)
(0.00201306 -0.000513093 0)
(0.00214571 -0.000946738 0)
(0.00222368 -0.00141798 1.49277e-22)
(0.00243115 -0.00226471 -1.14322e-22)
(0.00294551 -0.00315859 -2.17564e-22)
(0.00334207 -0.00407563 -1.69368e-22)
(0.00337133 -0.00552768 1.38425e-21)
(0.00349314 -0.00613618 3.26748e-21)
(0.00375038 -0.00524742 -1.41576e-22)
(0.00077754 -0.00428202 -1.27354e-20)
(-0.00247748 -0.00421693 -1.01951e-20)
(-0.00435934 -0.00360572 5.88556e-21)
(-0.00719885 -0.00683024 -7.10037e-21)
(0.000522917 -0.00755769 1.70321e-20)
(-0.00195725 -0.00575491 -2.66036e-21)
(0.000235247 -0.0038266 -2.77638e-20)
(0.00092122 0.000168084 -1.3955e-20)
(-0.00148273 0.00130018 3.61921e-20)
(-0.00384675 0.00437402 -4.71096e-21)
(-0.00433585 0.000468397 1.29705e-20)
(-0.00820094 0.0028325 2.04708e-20)
(-0.00734917 0.00374293 5.68842e-21)
(-0.00364928 0.00294606 -4.53067e-21)
(0.000728533 0.00493109 9.99617e-23)
(0.000998647 0.00598004 -2.96272e-21)
(0.00138137 0.00574029 1.78069e-21)
(0.00191811 0.00468989 1.21853e-22)
(0.00225421 0.00390316 -5.80387e-22)
(0.00235097 0.00308976 1.51148e-21)
(0.00238131 0.00211737 1.11136e-23)
(0.00235998 0.00148968 0)
(0.00227431 0.00091305 0)
(0.00221434 0.000374751 0)
(0.00224694 9.39284e-06 0)
(0.00224601 0.000232964 0)
(0.00230946 -0.000577551 0)
(0.00196637 6.74016e-05 0)
(0.00207518 -0.000171961 0)
(0.00207475 -8.03175e-05 0)
(0.00234024 -0.000821284 0)
(0.00253746 -0.00090604 0)
(0.00275171 -0.0013456 0)
(0.00300988 -0.00186222 4.7387e-23)
(0.00367713 -0.0027604 -6.0311e-23)
(0.00443761 -0.00389141 -2.07119e-22)
(0.0048117 -0.005373 1.1016e-21)
(0.0044425 -0.00639521 7.0929e-22)
(0.00403037 -0.00941399 -3.97038e-21)
(0.00317236 -0.0130819 2.68074e-21)
(-0.0025661 -0.00943223 -3.35656e-21)
(-0.0024759 -0.00769865 -5.28961e-21)
(-0.00333625 -0.00677758 2.1102e-21)
(-0.00211442 -0.0093707 -1.32837e-21)
(-0.00365449 -0.00928219 7.11144e-21)
(-0.00538843 -0.00760183 -4.29786e-21)
(-0.00340954 -0.00449407 1.00172e-20)
(-0.00395465 -0.00170908 8.93993e-21)
(-0.00558849 0.000959877 -1.53402e-20)
(-0.0082654 0.00385704 1.96061e-21)
(-0.00809347 0.00719804 3.75608e-21)
(-0.0067928 0.00835484 3.20915e-21)
(-0.00649988 0.00582615 -1.02015e-20)
(-0.00611095 0.00862778 1.61168e-22)
(-0.000551138 0.0124988 -1.35371e-21)
(0.000999428 0.0093963 3.12939e-21)
(0.00217151 0.006781 -1.17384e-21)
(0.00307122 0.00576945 -7.25865e-22)
(0.00351502 0.0046057 4.82368e-22)
(0.00359778 0.00359106 1.60556e-22)
(0.00338697 0.00262554 2.30072e-22)
(0.00317603 0.00195275 0)
(0.00295447 0.00137552 0)
(0.002749 0.00116059 0)
(0.00249451 0.000345648 0)
(0.00249563 0.000384384 0)
(0.0023792 0.000101628 0)
(0.00196691 -0.00144964 0)
(0.00210326 -0.000145076 0)
(0.00274437 -0.00122387 0)
(0.00287008 -0.000560114 0)
(0.00297994 -0.000462562 0)
(0.00311916 -0.000575263 0)
(0.00384757 -0.00114005 -8.49541e-23)
(0.00475376 -0.00169123 1.99333e-22)
(0.00557337 -0.00261893 5.6842e-23)
(0.00644605 -0.00460671 -1.29199e-22)
(0.0058606 -0.00510439 -2.57782e-22)
(0.00412756 -0.00537144 -2.1974e-23)
(0.00383257 -0.0150218 8.24879e-22)
(-0.00381838 -0.0121856 -1.34662e-21)
(-0.00213778 -0.0114786 2.96808e-21)
(-0.00342537 -0.0116841 1.29411e-21)
(-0.00492683 -0.0100476 -2.95241e-24)
(-0.00680675 -0.00605048 1.43964e-21)
(-0.00850255 -0.000719408 -1.06656e-21)
(-0.00431522 0.00106189 -3.57166e-20)
(-0.00237922 -0.00411814 -1.17385e-19)
(-0.00861755 -0.00716012 -1.74572e-20)
(-0.0139434 -0.0020935 -1.63982e-21)
(-0.0118954 0.00563633 2.81378e-22)
(-0.00822615 0.0112475 7.31693e-23)
(-0.00765927 0.0141853 -1.20281e-22)
(-0.00539717 0.00792842 1.34235e-21)
(0.000378426 0.0157329 2.16092e-21)
(0.00101967 0.00627092 -1.32039e-21)
(0.00333864 0.00561724 -7.0104e-22)
(0.00437899 0.00489436 4.56242e-22)
(0.00440974 0.00320242 9.12335e-23)
(0.00455752 0.00229804 -1.50634e-22)
(0.00439961 0.00180436 6.6923e-23)
(0.00381876 0.00115592 0)
(0.00361233 0.000916517 0)
(0.00344574 0.000901961 0)
(0.00324363 0.00141616 0)
(0.00260305 0.00021087 0)
(0.00245222 0.0013312 0)
(0.00254276 0.00163592 0)
(0.00232476 0.000305742 0)
(0.0017682 0.000988277 0)
(0.00168229 0.00111232 0)
(0.00222992 0.000686172 0)
(0.0030502 0.000487972 0)
(0.00421604 0.000187119 -2.66957e-22)
(0.00532885 -0.000108274 -3.86999e-22)
(0.00661653 -0.000615085 -4.73358e-22)
(0.00746071 -0.00177142 -4.03193e-22)
(0.0086634 -0.00408581 -5.694e-22)
(0.00802843 -0.00523786 -1.19293e-21)
(0.0036906 -0.00777624 3.25954e-21)
(0.00526281 -0.0149867 2.32885e-21)
(-0.000738457 -0.0161844 -1.39423e-21)
(-0.00565676 -0.0125746 2.52026e-21)
(-0.0104989 -0.00752877 2.73288e-22)
(-0.0155353 -0.000296524 6.97825e-23)
(-0.0160785 0.0125493 -4.2921e-20)
(-0.0342528 -0.0180837 -5.01287e-20)
(-0.0232881 0.0030781 9.78223e-23)
(-0.0154776 0.0115116 -5.04317e-23)
(-0.00841799 0.0170859 9.78081e-22)
(-0.00108705 0.0173367 -7.18747e-22)
(0.000559338 0.00980678 2.11258e-21)
(0.00523944 0.00682963 -2.31902e-22)
(0.00630537 0.00535219 -6.4567e-22)
(0.00569932 0.00267416 -3.11259e-22)
(0.00538994 0.00126964 -4.46363e-22)
(0.0049546 0.000583934 -3.46179e-22)
(0.00479589 0.000347784 -2.63482e-22)
(0.0038952 -3.44633e-05 0)
(0.0029793 -0.000384024 0)
(0.00235935 -0.00091103 0)
(0.00239759 -0.000864345 0)
(0.00286935 -0.000185725 0)
(0.0030828 -0.00145077 0)
(0.00190793 0.00105072 0)
(0.00213883 0.000822873 0)
(0.00229171 0.00145755 0)
(0.00300885 0.000697146 0)
(0.00335652 0.000776888 0)
(0.00380878 0.00108318 0)
(0.00428321 0.00157627 2.96874e-23)
(0.00556072 0.00156967 1.20202e-22)
(0.00731735 0.00148542 -2.30426e-22)
(0.00900194 0.000952504 -7.10873e-22)
(0.0113973 -0.00263165 1.41092e-21)
(0.0140217 -0.00742073 -1.95888e-21)
(0.0117006 -0.0120519 -4.79635e-22)
(0.0123564 -0.0193295 -9.075e-22)
(0.000840648 -0.0235829 -1.9851e-20)
(-0.0144972 -0.0185568 1.54504e-21)
(-0.0257438 -0.00654466 7.37028e-22)
(-0.0565992 0.0236987 1.68825e-21)
(0.0117813 0.00375375 4.16249e-19)
(0.0354835 -0.00409371 7.29281e-20)
(-0.0591479 -0.0137468 -4.82399e-22)
(-0.0295629 0.0155093 -1.37329e-22)
(-0.0121098 0.0274345 5.84056e-21)
(0.00291416 0.0246787 1.31056e-20)
(0.0089562 0.0150698 8.82028e-22)
(0.0118203 0.00998416 1.04778e-21)
(0.00945172 0.00423373 2.97139e-22)
(0.00782256 0.000442316 -4.64795e-22)
(0.00634994 -0.00079276 -7.05507e-23)
(0.00528142 -0.00111002 2.00622e-22)
(0.0049319 -0.00120348 -3.86462e-23)
(0.00481724 -0.000766286 0)
(0.00428439 -0.000513887 0)
(0.0038043 -0.000449316 0)
(0.00302553 -0.0012143 0)
(0.0028416 -0.000688203 0)
(0.00254273 -0.00103405 0)
(0.00153786 -0.00386334 5.10651e-24)
(0.00186257 -0.00128444 0)
(0.00308365 -0.00146124 0)
(0.00328101 -0.000549059 0)
(0.00283929 0.000701781 0)
(0.00252425 0.00196978 0)
(0.00324967 0.00253163 4.7913e-23)
(0.00531818 0.00304593 3.01266e-22)
(0.00755169 0.0026651 -1.06335e-21)
(0.01049 0.00202982 3.32407e-21)
(0.0153975 0.000503916 -3.79861e-21)
(0.0192078 -0.00291934 -1.22365e-20)
(0.0234744 -0.010302 1.23071e-20)
(0.0231289 -0.023356 -3.49687e-21)
(0.011227 -0.0379733 2.88527e-21)
(-0.0233806 -0.0494063 3.25284e-21)
(-0.0607618 -0.0327263 -3.16264e-21)
(-0.431096 0.137054 1.43509e-21)
(0.202001 0.314207 -1.48173e-20)
(0.247968 -0.311262 1.68199e-20)
(-0.342961 -0.0819301 1.01909e-20)
(-0.0562731 0.0497263 -8.25297e-21)
(-0.00505957 0.0544806 4.26707e-21)
(0.0144297 0.0324001 -2.29263e-21)
(0.0214654 0.014256 -3.19713e-21)
(0.0176027 0.00561849 -6.7857e-22)
(0.0139454 0.00134709 6.33267e-22)
(0.0094438 -0.000810968 3.34197e-22)
(0.00686705 -0.00206952 -6.25766e-22)
(0.0052103 -0.00279653 -5.46417e-23)
(0.00388124 -0.00245819 -7.69986e-23)
(0.00348687 -0.00198388 0)
(0.00368082 -0.000766891 0)
(0.00401471 0.000426163 0)
(0.00375127 0.00135261 0)
(0.00240483 0.00115514 0)
(0.00188755 0.00372686 0)
(0.00474699 0.00289626 -2.23102e-25)
(0.00306363 0.00107373 0)
(0.00148155 0.00112486 0)
(0.000612987 0.00192247 0)
(0.000573401 0.00246775 0)
(0.00103064 0.00305561 0)
(0.00347174 0.00281407 2.26875e-23)
(0.0052379 0.00329645 -3.12811e-22)
(0.00828648 0.00429543 -1.84202e-22)
(0.0121819 0.00571536 -5.31007e-22)
(0.0172102 0.00777971 5.63539e-22)
(0.0268484 0.00711058 -1.46639e-21)
(0.0401184 0.00223327 -1.54874e-21)
(0.0491522 -0.0194625 1.6588e-20)
(0.0529065 -0.0585558 -2.35872e-20)
(0.022473 -0.118004 8.28162e-21)
(-0.0791154 -0.166658 4.17547e-21)
(-1.14284 0.0289626 -2.08665e-20)
(-0.315643 0.606442 5.90841e-21)
(0.691804 0.631413 1.22622e-21)
(1.00907 -0.00588926 -1.39512e-21)
(0.638036 -0.68714 8.81605e-21)
(-0.331556 -0.623866 -1.9424e-20)
(-0.959532 0.0458352 -9.70664e-21)
(-0.0471312 0.176057 8.439e-21)
(0.0437132 0.0990254 3.35824e-21)
(0.0474998 0.0370935 -1.77184e-20)
(0.0410113 0.00158726 -7.76785e-23)
(0.0267508 -0.00468585 1.99608e-21)
(0.0171792 -0.00620751 -2.12344e-22)
(0.0119641 -0.00457895 -2.91543e-21)
(0.00817183 -0.00382282 7.07438e-24)
(0.00551717 -0.00296318 1.35144e-22)
(0.00417374 -0.0028857 8.82031e-23)
(0.00205059 -0.00322112 0)
(0.00142882 -0.0027108 0)
(0.0013426 -0.00218704 0)
(0.00213148 -0.00135478 0)
(0.0038296 -0.00110912 0)
(0.00582131 -0.00297009 0)
(-0.00130645 0.00213313 1.89263e-22)
(-2.68425e-05 0.00324017 0)
(0.00019147 0.00443912 0)
(0.000191065 0.00414218 0)
(0.00087137 0.00375497 0)
(0.0024579 0.00378689 0)
(0.00475645 0.00412453 8.19119e-25)
(0.00628188 0.00424683 5.16928e-22)
(0.00647068 0.00640334 7.70291e-22)
(0.00810887 0.011441 -2.61378e-21)
(0.0133104 0.0173241 3.89417e-21)
(0.0243213 0.0256029 3.01411e-21)
(0.0398644 0.0511961 -3.3542e-21)
(0.0701695 0.0237919 4.50912e-21)
(0.137922 -0.010473 -1.37621e-20)
(0.225135 -0.1449 -2.66289e-21)
(0.147434 -0.358408 5.51764e-20)
(-1.83367 -0.554223 -4.10771e-20)
(0.163072 -0.576635 -1.01925e-20)
(0.540608 -0.877685 4.42219e-19)
(1.37705 0.181977 -5.41262e-21)
(0.382738 1.0095 2.35121e-20)
(-0.290936 0.504644 1.02426e-20)
(-1.20925 0.560889 6.67983e-22)
(0.18878 0.288903 -2.21447e-21)
(0.181547 0.0720213 -1.24825e-20)
(0.108893 -0.00891295 1.41458e-20)
(0.0427528 -0.0494619 -2.35264e-21)
(0.0256614 -0.0235206 -3.63658e-24)
(0.0132373 -0.0166163 -2.75014e-21)
(0.00851082 -0.0110931 2.47158e-21)
(0.00690325 -0.0060481 -1.37656e-21)
(0.00709865 -0.00425861 -2.91021e-22)
(0.00592205 -0.00440275 -4.28782e-25)
(0.00361076 -0.00391365 0)
(0.00187632 -0.00380444 0)
(0.00112067 -0.0041217 0)
(0.00103275 -0.00444373 0)
(0.000760051 -0.00339786 0)
(-0.000880338 -0.00214506 1.74529e-22)
(-0.00150406 -0.00263044 -7.63497e-22)
(-0.000339001 -0.00074485 0)
(0.00121518 0.000428835 0)
(0.00217156 0.00127238 0)
(0.00232501 0.00165593 0)
(0.00244488 0.00218548 0)
(0.00236045 0.00438384 0)
(0.00154262 0.00901958 2.84673e-23)
(-0.00139805 0.0128191 5.25119e-22)
(-0.004831 0.0200559 -6.83302e-22)
(-0.00683533 0.0328836 -1.87279e-21)
(-0.00356287 0.0508477 3.15851e-21)
(0.0194977 0.0845106 4.52817e-22)
(0.068271 0.16366 -4.981e-21)
(0.181099 0.126467 2.11705e-20)
(0.415055 0.118885 2.07043e-20)
(0.661628 -0.106615 2.04874e-20)
(-0.619178 -1.17724 -1.07669e-19)
(0.308098 -2.37782 1.48516e-20)
(-0.562994 -1.6706 7.54363e-20)
(-1.358 0.224437 1.0776e-20)
(-0.13648 2.02133 -1.05624e-19)
(0.0302209 2.45643 -5.3133e-20)
(-0.279834 0.790145 -8.62356e-20)
(0.622356 -0.0977923 8.06821e-21)
(0.30074 -0.126907 1.60131e-20)
(0.0752177 -0.164377 5.81851e-21)
(0.0226433 -0.0848045 -2.98505e-21)
(-0.002192 -0.0508766 -1.22648e-21)
(-0.00647905 -0.0329908 1.28102e-22)
(-0.00491232 -0.020129 1.33688e-21)
(-0.00102866 -0.0130245 -6.60212e-22)
(0.00219934 -0.00973099 -1.43693e-22)
(0.00352061 -0.00529922 0)
(0.0033058 -0.00286772 0)
(0.00306525 -0.00209965 0)
(0.00286626 -0.00149903 0)
(0.00182358 -0.000478451 0)
(0.000109173 0.000828455 0)
(-0.000981918 0.00287374 7.63732e-22)
(0.00226657 -0.000827831 -7.69806e-23)
(0.00153595 -0.00219736 0)
(0.00103261 -0.00310199 0)
(0.000923351 -0.00224045 0)
(0.000360197 -0.00116079 0)
(-0.0014006 0.000287957 0)
(-0.00529849 0.00299241 0)
(-0.00905862 0.00763318 0)
(-0.0135262 0.0137917 -1.7108e-23)
(-0.0188634 0.0204328 2.15503e-22)
(-0.0277878 0.0324311 6.13826e-22)
(-0.0414568 0.0542995 -2.04492e-21)
(-0.0582641 0.102677 -2.67562e-21)
(-0.0520201 0.186085 4.56607e-21)
(0.0607006 0.313959 1.24103e-21)
(0.267743 0.58465 4.45789e-21)
(1.05614 0.755393 -2.50827e-20)
(2.40525 -0.339066 -1.3877e-20)
(0.261084 -1.38057 2.96869e-20)
(-2.55937 -0.847517 9.48101e-20)
(-3.82033 0.00139095 -2.46691e-20)
(-2.11065 0.945468 -6.36873e-21)
(0.89778 1.36593 -2.06347e-20)
(2.41209 0.0124034 -5.1971e-19)
(0.61728 -0.823423 -8.52142e-21)
(0.145849 -0.446967 1.06813e-20)
(-0.0502208 -0.190418 -2.52907e-21)
(-0.0560383 -0.107369 2.47812e-21)
(-0.0402296 -0.0572442 3.56288e-22)
(-0.0263036 -0.0341808 -4.59106e-23)
(-0.0182482 -0.0222387 2.95967e-22)
(-0.0119569 -0.0155601 -2.28337e-24)
(-0.00748186 -0.0093169 0)
(-0.00433025 -0.0042915 0)
(-0.000923528 -0.001194 0)
(0.000642416 0.000522463 0)
(0.00110432 0.00183582 2.22913e-22)
(0.00120716 0.00288353 3.08274e-22)
(0.00185323 0.00209178 1.83827e-22)
(0.00275256 0.000619532 0)
(0.00212541 0.000484872 0)
(0.00162448 -0.00148978 0)
(0.000391861 -0.00278878 0)
(-0.000571492 -0.00334911 0)
(-0.00161142 -0.00315248 0)
(-0.00413691 -0.00232994 0)
(-0.00928599 -0.00163191 0)
(-0.0132086 -0.00124947 0)
(-0.0167077 0.000175139 4.97755e-25)
(-0.0247236 0.000902579 3.15081e-23)
(-0.0422175 0.00296029 1.67649e-22)
(-0.0773285 0.00646754 1.61669e-21)
(-0.149974 0.0418382 -3.2474e-21)
(-0.255578 0.0311504 7.3144e-21)
(-0.288054 0.286686 3.59129e-20)
(-0.417929 0.716611 6.14384e-21)
(0.806299 1.29715 -1.14886e-20)
(2.70116 2.23282 -3.22925e-20)
(0.63027 2.758 1.31577e-20)
(-1.9651 1.82047 1.45313e-19)
(-2.85106 -0.0731649 -7.78414e-20)
(-1.66499 -1.90829 -1.00195e-19)
(1.20235 -2.74244 1.20902e-20)
(2.82878 -2.03145 -1.00462e-20)
(-0.0754223 -1.07606 7.94253e-21)
(-0.386773 -0.492461 -1.55425e-20)
(-0.257203 -0.0405645 9.10007e-21)
(-0.149881 -0.0499392 -3.68083e-21)
(-0.0770355 -0.0121076 2.77995e-21)
(-0.0414555 -0.00735632 1.99194e-22)
(-0.0245195 -0.00512511 -5.56751e-23)
(-0.0161793 -0.00357714 -7.27166e-25)
(-0.0126048 -0.000977257 0)
(-0.00888455 0.000349078 0)
(-0.003901 0.00145288 0)
(-0.0013805 0.00247546 0)
(-0.000325483 0.00275809 0)
(0.000669735 0.00223941 0)
(0.00187838 0.00109749 0)
(0.00225193 -0.000650581 -3.31075e-23)
(0.00244397 0.000293396 0)
(0.00249849 0.000110133 0)
(0.00139434 -0.000165762 0)
(2.51494e-06 -0.00105492 0)
(-0.00139775 -0.00168047 0)
(-0.00343561 -0.00272493 0)
(-0.00629298 -0.00527196 0)
(-0.00845927 -0.0107105 0)
(-0.0101042 -0.0175782 0)
(-0.0166589 -0.0284245 0)
(-0.0326602 -0.0465998 -4.54585e-23)
(-0.0670746 -0.0818374 -4.60188e-22)
(-0.144809 -0.110592 1.17659e-21)
(-0.318342 -0.246318 -1.67833e-21)
(-0.615127 -0.125472 7.96292e-20)
(-1.10808 0.0466581 -4.14346e-21)
(-0.80482 0.904839 5.44312e-20)
(0.565678 2.59347 2.33198e-20)
(1.0051 3.24464 -2.3268e-20)
(0.798261 2.08024 1.00564e-19)
(0.789943 -0.197133 3.36323e-20)
(0.985461 -2.41681 9.70947e-20)
(1.27335 -3.35896 -2.94317e-20)
(0.44456 -2.40163 -1.47472e-20)
(-1.37262 -0.370508 7.77664e-20)
(-0.869443 0.0508398 4.47745e-21)
(-0.320452 0.238787 -1.48653e-21)
(-0.14609 0.103697 1.08864e-21)
(-0.0676715 0.0762844 -9.96705e-22)
(-0.0336633 0.042472 -2.53393e-23)
(-0.017526 0.0250877 0)
(-0.0113014 0.0153505 0)
(-0.00933685 0.00929069 0)
(-0.0066805 0.00439039 0)
(-0.003411 0.00200231 0)
(-0.00113216 0.0011245 0)
(0.00036578 0.000561191 0)
(0.00174641 -0.000239813 0)
(0.00268574 -0.000316208 0)
(0.00246781 -0.000289658 0)
(0.00226123 0.000624748 0)
(0.00233139 0.00184855 0)
(0.00164504 0.00244129 0)
(0.000704902 0.00204506 0)
(-0.000208078 0.000921079 0)
(-0.00047203 -0.00165258 0)
(0.00060099 -0.00636864 0)
(0.00221173 -0.0145933 0)
(0.00502367 -0.026021 0)
(0.00843872 -0.0427918 0)
(0.0131033 -0.0729589 0)
(0.0169828 -0.129135 8.6931e-24)
(0.0173804 -0.221289 -2.96461e-22)
(-0.0867276 -0.399843 1.58538e-22)
(-0.449638 -0.623606 2.82013e-20)
(-1.46412 -0.896321 -2.72055e-20)
(-2.17789 -0.616802 1.87952e-20)
(-0.560135 -0.432533 2.11455e-20)
(1.19728 -0.222328 3.04407e-20)
(2.258 -0.241767 5.31344e-20)
(2.57922 -0.342341 1.76725e-20)
(2.17742 -0.361541 -8.06274e-21)
(0.931617 -0.0735001 -3.43983e-21)
(-1.06225 0.444014 -1.40135e-20)
(-2.30975 0.910434 -1.50887e-21)
(-0.782826 0.746759 -2.01334e-20)
(-0.0828171 0.395103 -3.26879e-21)
(0.0169955 0.21838 -1.36108e-22)
(0.0149072 0.126278 -4.50346e-24)
(0.01107 0.0714516 0)
(0.00735028 0.0421766 0)
(0.00369375 0.0256199 0)
(0.00124739 0.0139836 0)
(0.00016785 0.00565979 0)
(-0.000601296 0.000947639 0)
(-0.000117876 -0.00139189 0)
(0.000879005 -0.00232945 0)
(0.0018793 -0.00248217 0)
(0.00253608 -0.00174342 0)
(0.00252204 -0.00045142 0)
(-0.000359476 0.000893353 0)
(-0.000169569 0.0019519 0)
(0.000525699 0.00261466 0)
(0.00128214 0.00238174 0)
(0.00224407 0.0010706 0)
(0.00441696 -0.00145348 0)
(0.00884486 -0.00518466 0)
(0.0138703 -0.0102707 0)
(0.0216043 -0.0170531 0)
(0.0372442 -0.0258511 0)
(0.0685211 -0.0424167 4.34689e-22)
(0.123691 -0.0701268 0)
(0.237276 -0.154853 0)
(0.344896 -0.254539 7.01996e-21)
(0.305974 -0.745366 -4.54946e-20)
(-0.807216 -1.43783 4.29441e-20)
(-1.20056 -2.47562 8.60494e-22)
(-0.44478 -2.93967 -9.70146e-21)
(0.422689 -2.37005 -1.37427e-20)
(0.886335 -1.05829 -2.34421e-19)
(0.935662 0.463034 -3.10446e-20)
(0.552208 1.95161 4.96037e-20)
(-0.235692 2.98078 -3.30791e-21)
(-1.07144 2.9998 2.52243e-23)
(-1.28237 1.91468 -1.00241e-21)
(0.347339 0.724293 -7.25991e-20)
(0.351299 0.245528 -5.28192e-21)
(0.234234 0.151589 0)
(0.119381 0.0675704 0)
(0.0652475 0.04104 4.42625e-22)
(0.0358634 0.0252412 0)
(0.0207381 0.0162213 0)
(0.0133967 0.00932652 0)
(0.00849492 0.0043227 0)
(0.00400899 0.000756064 0)
(0.00185406 -0.00160228 0)
(0.000915353 -0.00277077 0)
(0.000313213 -0.00286371 -3.66876e-23)
(-0.000153571 -0.00211647 -2.63201e-23)
(-2.85385e-05 -0.00101316 0)
(-0.00157617 -0.000349821 0)
(-0.00102185 -0.000548439 0)
(0.000870754 -0.000702674 0)
(0.00298644 -0.00112421 0)
(0.00511885 -0.00161145 0)
(0.00838622 -0.00209062 0)
(0.013312 -0.00177752 0)
(0.0181873 0.000557191 0)
(0.0253146 0.00521942 0)
(0.0419651 0.0147801 0)
(0.0786803 0.0310538 4.09232e-21)
(0.14831 0.075906 0)
(0.318173 0.104284 0)
(0.690474 0.175128 4.12132e-20)
(1.16157 0.116627 -2.26037e-20)
(0.871692 -0.461134 2.22352e-21)
(-0.0883645 -0.876889 0)
(-0.868482 -0.952882 -4.2803e-21)
(-1.29021 -0.748276 -2.81557e-20)
(-1.49317 -0.127946 -4.55691e-20)
(-1.45965 0.362238 3.77401e-20)
(-1.22161 0.957819 2.10606e-20)
(-0.772928 1.06383 -5.94611e-21)
(0.0241188 0.870469 0)
(0.986964 0.391093 5.66292e-21)
(1.1857 -0.153419 -3.27552e-20)
(0.673376 -0.186193 3.60674e-20)
(0.307481 -0.109315 0)
(0.141569 -0.0801819 0)
(0.0736832 -0.0342415 4.89425e-21)
(0.0391564 -0.0171712 0)
(0.0236112 -0.00727053 0)
(0.0170489 -0.00186533 0)