/*--------------------------------*- C++ -*----------------------------------*\
| =========                 |                                                 |
| \\      /  F ield         | OpenFOAM: The Open Source CFD Toolbox           |
|  \\    /   O peration     | Version:  v2106                                 |
|   \\  /    A nd           | Website:  www.openfoam.com                      |
|    \\/     M anipulation  |                                                 |
\*---------------------------------------------------------------------------*/
FoamFile
{
    version     2.0;
    format      ascii;
    arch        "LSB;label=32;scalar=64";
    class       volScalarField;
    location    "0";
    object      p;
}
// * * * * * * * * * * * * * * * * * * * * * * * * * * * * * * * * * * * * * //

dimensions      [0 2 -2 0 0 0 0];

internalField   nonuniform List<scalar> 
11644
(
-0.0494649
-0.0491973
-0.0488432
-0.0484877
-0.0480527
-0.0475859
-0.0471453
-0.0468742
-0.0470516
-0.0477869
-0.0489815
-0.0507489
-0.0530932
-0.0567177
-0.0613875
-0.0658516
-0.0698505
-0.0748461
-0.0826865
-0.0876611
-0.0870099
-0.0865911
-0.0904298
-0.0906445
-0.0890379
-0.0870776
-0.0853567
-0.0833336
-0.0810549
-0.0789909
-0.0772266
-0.0757533
-0.0743015
-0.0728412
-0.0715583
-0.0705144
-0.0696743
-0.0690516
-0.0686521
-0.0685052
-0.0505367
-0.0502816
-0.0498204
-0.0492076
-0.0485255
-0.0478673
-0.0472889
-0.0467993
-0.0464931
-0.0465803
-0.0473111
-0.0489027
-0.0516803
-0.0547215
-0.0585728
-0.063661
-0.0697566
-0.077392
-0.0833214
-0.0857745
-0.0867933
-0.0850195
-0.0912946
-0.0899673
-0.0885094
-0.0867323
-0.0841611
-0.0822132
-0.0807524
-0.0791223
-0.0773552
-0.0755796
-0.0739839
-0.0725982
-0.071463
-0.0705095
-0.0697694
-0.069238
-0.0689327
-0.0687974
-0.0510268
-0.050921
-0.0505726
-0.0499179
-0.0490751
-0.0481197
-0.0471772
-0.0463514
-0.0456594
-0.0451733
-0.0453034
-0.046164
-0.0478892
-0.0508881
-0.0554346
-0.0622255
-0.0708437
-0.0803025
-0.08246
-0.0828198
-0.0918695
-0.0897654
-0.0911469
-0.0911722
-0.0897193
-0.0875885
-0.0852872
-0.0827696
-0.0805497
-0.078708
-0.0770711
-0.0754134
-0.0739455
-0.0726781
-0.0715267
-0.0705048
-0.0696593
-0.0689966
-0.0684903
-0.0681923
-0.0514132
-0.0512636
-0.0509284
-0.0504043
-0.0496255
-0.0485801
-0.0473089
-0.0459487
-0.0446356
-0.0436309
-0.0428337
-0.0424641
-0.0435706
-0.0462408
-0.0515613
-0.0591487
-0.067212
-0.0755951
-0.0814591
-0.088987
-0.0970966
-0.0949996
-0.0971076
-0.0951128
-0.0924818
-0.0897821
-0.08699
-0.0845473
-0.0820196
-0.0796871
-0.0777353
-0.0760674
-0.0744441
-0.0728969
-0.0714196
-0.0700805
-0.0688781
-0.0678992
-0.0671237
-0.0666682
-0.0517609
-0.0517078
-0.0514516
-0.050923
-0.050136
-0.049055
-0.0475978
-0.0458516
-0.0439142
-0.0419428
-0.0402712
-0.0396984
-0.040395
-0.0436715
-0.0488293
-0.0574238
-0.0667054
-0.0763191
-0.0839943
-0.0954805
-0.103529
-0.10047
-0.102824
-0.100696
-0.0971744
-0.0942895
-0.0909919
-0.0882872
-0.0862558
-0.0837369
-0.0807193
-0.0780909
-0.0757086
-0.0733813
-0.0712614
-0.0692824
-0.0675099
-0.0659854
-0.0649934
-0.0643977
-0.0524525
-0.0523398
-0.0520117
-0.0515069
-0.0507224
-0.0495768
-0.0480652
-0.0461156
-0.0436432
-0.0410431
-0.0392242
-0.0384862
-0.0393194
-0.0394144
-0.0430227
-0.0507954
-0.0618573
-0.0746648
-0.0856175
-0.0983097
-0.106193
-0.10675
-0.10605
-0.105933
-0.103954
-0.099161
-0.09652
-0.0952382
-0.0921899
-0.0893676
-0.0857338
-0.0814838
-0.0774625
-0.0738845
-0.0706013
-0.0676946
-0.0653219
-0.063535
-0.0623311
-0.0618865
-0.0534249
-0.0530797
-0.0528181
-0.0522645
-0.0515212
-0.0503884
-0.0489258
-0.0469566
-0.0443671
-0.0419379
-0.0396641
-0.0377144
-0.0351519
-0.0353004
-0.0361685
-0.0385004
-0.0507024
-0.0658866
-0.0844405
-0.104818
-0.11496
-0.113667
-0.116535
-0.113207
-0.111076
-0.109019
-0.107893
-0.104369
-0.0999448
-0.0953865
-0.0904669
-0.0850423
-0.0791886
-0.0739722
-0.069401
-0.065534
-0.062303
-0.059952
-0.0581863
-0.0571184
-0.0531734
-0.0536952
-0.0535246
-0.0531331
-0.0523355
-0.0512544
-0.049919
-0.04804
-0.0457899
-0.0433542
-0.039869
-0.0349019
-0.0361309
-0.023919
-0.026085
-0.0317314
-0.041788
-0.063109
-0.0890768
-0.114242
-0.138035
-0.143604
-0.140442
-0.136202
-0.125652
-0.121848
-0.117993
-0.118326
-0.108941
-0.101751
-0.0940551
-0.0869172
-0.0793627
-0.0722703
-0.066342
-0.0613368
-0.0573162
-0.0540419
-0.0520406
-0.0509808
-0.0541634
-0.0537897
-0.053283
-0.0528804
-0.052196
-0.0513471
-0.050076
-0.0481337
-0.045708
-0.042864
-0.0401323
-0.0357899
-0.0271736
-0.0198574
-0.0175574
-0.0223338
-0.031028
-0.0457888
-0.0854817
-0.117072
-0.154375
-0.167588
-0.16312
-0.146326
-0.145008
-0.145056
-0.131192
-0.1311
-0.118998
-0.107867
-0.0960949
-0.0853297
-0.0758656
-0.0669577
-0.0596589
-0.0538595
-0.0496987
-0.0466204
-0.0447406
-0.0438004
-0.0546082
-0.0538173
-0.0536046
-0.0526899
-0.0519083
-0.050637
-0.0484013
-0.0455116
-0.0425594
-0.0378547
-0.033247
-0.0297143
-0.0180311
0.00278437
-0.000495249
0.00730695
-0.00512162
-0.0336168
-0.0766295
-0.147137
-0.198405
-0.207813
-0.189597
-0.177879
-0.164552
-0.156719
-0.138478
-0.124263
-0.115323
-0.103459
-0.0902321
-0.0782428
-0.0677984
-0.0581714
-0.0505154
-0.0446495
-0.0398128
-0.0364908
-0.03348
-0.0324696
-0.0525086
-0.0536195
-0.0531498
-0.0525404
-0.0512447
-0.0490424
-0.0458872
-0.0415247
-0.0372578
-0.0310204
-0.0217376
-0.0114257
-0.00130767
0.00324647
0.0237164
0.050909
0.063778
0.048899
-0.0189427
-0.165602
-0.28033
-0.237367
-0.191004
-0.172256
-0.162312
-0.147194
-0.140478
-0.109015
-0.097606
-0.0856174
-0.0741305
-0.0631118
-0.0526547
-0.0437368
-0.0366745
-0.0312038
-0.02657
-0.0231936
-0.0216503
-0.0197041
-0.0550618
-0.0531511
-0.051697
-0.0510798
-0.0495847
-0.0476699
-0.0448
-0.0406681
-0.034404
-0.0270967
-0.0174745
-0.00265908
0.00550414
0.0198899
0.0587499
0.0885795
0.149353
0.242176
0.343657
-0.0625244
-0.146769
-0.155187
-0.135489
-0.113462
-0.0869652
-0.0708791
-0.0602229
-0.0499159
-0.0399676
-0.0317549
-0.0252393
-0.019781
-0.0152837
-0.012099
-0.0094019
-0.00813148
-0.00790195
-0.0537698
-0.0512852
-0.0525142
-0.0517722
-0.0507127
-0.0493566
-0.0480236
-0.0461687
-0.0415992
-0.0337468
-0.028508
-0.0158901
-0.015312
0.00954972
0.0576453
0.11382
0.23052
0.475091
0.847747
-0.188294
-0.170316
-0.146236
-0.110571
-0.0864712
-0.0502216
-0.0432853
-0.0326226
-0.0207481
-0.0114068
-0.006979
-0.00380222
-0.000734802
0.0022625
0.00522997
0.00769015
0.0107577
0.0097807
-0.0422019
-0.0513675
-0.0525785
-0.0515017
-0.0518247
-0.052929
-0.0558231
-0.059196
-0.0617161
-0.0600664
-0.0499351
-0.0478309
-0.0641097
-0.0508623
-0.0413423
0.0252049
0.14771
0.406827
0.698336
-0.166212
-0.205311
-0.145772
-0.0891133
-0.0670592
-0.0336063
-0.0222797
-0.0119368
0.0187499
0.0228881
0.021028
0.0208552
0.0213344
0.0238213
0.0260317
0.0266601
0.0278342
0.0370795
-0.0426166
-0.0457962
-0.0461521
-0.0454313
-0.0496275
-0.052856
-0.0631256
-0.0799509
-0.0769028
-0.0979238
-0.0969809
-0.11089
-0.159795
-0.192389
-0.167733
-0.101615
-0.133795
-0.0369546
0.46535
1.36357
0.45295
-0.162206
-0.138194
-0.21152
-0.0917387
-0.035131
0.0116756
0.0189841
0.00233677
0.0382491
0.049309
0.0449528
0.054278
0.0474119
0.0449751
0.0472666
0.0479863
0.0478685
0.0440157
0.0374613
-0.0426292
-0.0452939
-0.0425004
-0.0439498
-0.0517763
-0.058212
-0.0743149
-0.0814007
-0.107426
-0.13965
-0.155732
-0.178435
-0.175026
-0.208652
-0.264814
-0.334597
-0.40454
-0.407795
0.0589622
0.163987
-0.658481
-0.780065
-0.405735
0.0774226
0.0657184
0.0982467
0.0600188
0.0568605
0.0913153
0.0918249
0.0996726
0.0867906
0.075334
0.0817875
0.0748578
0.0719509
0.0640384
0.0609263
0.0598049
0.0531856
-0.0458259
-0.0431121
-0.0474107
-0.0495154
-0.0548453
-0.0665691
-0.0817921
-0.102248
-0.118681
-0.15473
-0.209422
-0.26392
-0.259026
-0.286492
-0.281336
-0.453503
-0.535981
-0.158258
-0.436733
-0.360066
0.123772
-0.0329634
0.0531918
0.501769
0.28467
0.192663
0.154265
0.158566
0.173181
0.141647
0.103503
0.0961613
0.105387
0.108262
0.105404
0.0954515
0.0881679
0.0849301
0.0821921
0.0808818
-0.0332787
-0.0303168
-0.0353772
-0.0465163
-0.0613833
-0.07898
-0.0940347
-0.135071
-0.151406
-0.173488
-0.219366
-0.284333
-0.352024
-0.283282
-0.202023
-0.113007
-0.119292
-0.381249
0.688405
0.474394
-0.147122
-0.0312683
0.91214
0.902231
0.188149
0.101146
0.125884
0.233946
0.191178
0.141153
0.125282
0.135943
0.143788
0.123213
0.118586
0.112637
0.10575
0.0987513
0.0953295
0.0970442
-0.0146453
-0.0184135
-0.0286725
-0.0433692
-0.0600352
-0.0751308
-0.0955275
-0.126458
-0.161344
-0.201385
-0.232465
-0.2371
-0.405815
-0.309382
-0.379409
-0.0722659
0.478104
0.951257
0.155933
0.0359883
0.764999
1.34667
0.326412
-0.755804
-0.187126
0.0843553
0.223812
0.226315
0.190455
0.17802
0.172475
0.175002
0.142379
0.125594
0.115554
0.111263
0.105695
0.0990629
0.0943708
0.096134
-0.00211425
-0.00657966
-0.0175374
-0.0329239
-0.0499241
-0.070414
-0.097425
-0.106657
-0.144042
-0.194439
-0.236714
-0.272107
-0.361892
-0.469832
-0.263395
-0.303469
-0.23622
1.35974
2.76415
1.25016
0.301158
-0.98056
-1.91145
0.0832043
0.0314119
0.136221
0.347511
0.213314
0.268838
0.220316
0.19595
0.162537
0.132453
0.142643
0.124896
0.112159
0.100417
0.0896497
0.0822132
0.0807937
0.0112128
0.00710809
0.00206144
-0.0036944
-0.0154154
-0.0370067
-0.0643535
-0.0946661
-0.132494
-0.187043
-0.274926
-0.167034
-0.276489
-0.464275
-0.382787
-0.161355
-0.126938
-0.862104
-0.238132
0.489812
0.567919
0.743247
1.15382
0.46565
-0.0987861
0.109317
0.39299
0.292589
0.178415
0.297062
0.224523
0.178367
0.150257
0.142404
0.119799
0.101304
0.0893409
0.0835806
0.0796721
0.077029
0.0399447
0.0374646
0.0331083
0.0272968
0.0218447
0.0121927
-0.00736637
-0.0355365
-0.0714112
-0.098762
-0.120609
-0.149243
-0.106787
-0.454768
-0.242604
0.300789
-0.0236511
1.01212
2.12285
1.30686
0.0299058
-1.22808
-0.748285
0.540322
0.424914
0.69533
0.65906
0.308463
0.270814
0.244132
0.214558
0.186937
0.150987
0.122462
0.10171
0.0907899
0.0839524
0.0780802
0.0745027
0.0707977
0.0754157
0.074603
0.0735795
0.0715003
0.0691949
0.0694005
0.058643
0.0526722
0.0161075
0.00134091
-0.0389522
-0.047824
-0.170323
-0.400898
0.726057
-0.351084
-1.25417
-2.74252
-0.300019
-0.389935
0.111888
-0.411571
4.66738
2.39477
1.25877
-0.572128
0.825088
0.473961
0.277555
0.28395
0.212779
0.172691
0.122719
0.105633
0.0840486
0.0757304
0.067898
0.0620059
0.0588648
0.0581405
0.111419
0.11108
0.110993
0.114914
0.11804
0.122152
0.123805
0.123882
0.150692
0.163616
0.188679
0.196067
0.176087
0.0603768
-0.187463
0.726112
1.24199
0.619758
-0.690955
-2.92015
3.94589
1.36035
-0.285866
-1.25929
-0.526442
0.854683
0.444704
0.16584
0.140321
0.120228
0.119914
0.112515
0.0995184
0.0843306
0.065678
0.0563732
0.0509946
0.0502728
0.0479166
0.0452858
0.151126
0.151093
0.152238
0.155353
0.162967
0.172402
0.19152
0.212162
0.252024
0.277969
0.301936
0.309421
0.394374
0.602154
0.901585
0.39074
-0.0291806
-0.979623
0.203954
1.27603
-2.01148
-0.509184
0.752423
0.886263
0.599969
-0.112042
-0.22123
-0.013131
0.0825522
0.0507122
0.0637294
0.0584984
0.0514875
0.0474367
0.0425193
0.0382684
0.0357778
0.0335764
0.0309817
0.0260913
0.185022
0.187991
0.192414
0.198653
0.208778
0.225475
0.249285
0.28684
0.338478
0.396082
0.487845
0.439994
0.521545
0.0537572
0.425191
1.23513
1.76958
1.33626
0.42051
-0.252386
-0.802476
-0.835607
-1.37871
-1.4231
-1.07689
-0.262455
0.203894
-0.053328
0.066372
-0.0791123
-0.0246314
-0.00503032
0.00400643
0.0122106
0.0127042
0.00867135
0.00514795
0.00494077
0.00280951
0.00102903
0.210632
0.212227
0.220362
0.229055
0.244359
0.263229
0.286743
0.333585
0.373517
0.41676
0.460685
0.469779
0.492733
0.620122
0.505346
0.379009
0.306871
0.929031
0.204644
0.589979
-1.90039
-1.55794
-1.40241
-0.858016
0.16086
0.095588
-0.190133
-0.0842011
0.0133683
-0.0144519
-0.00768862
-0.0218558
-0.0240519
-0.00831219
-0.0136532
-0.0144821
-0.0136329
-0.0156908
-0.0162074
-0.0150994
0.238273
0.243131
0.248209
0.257117
0.271273
0.291104
0.317428
0.346108
0.382146
0.420789
0.487366
0.404993
0.398297
0.146847
0.55435
0.533511
0.266195
0.308666
-0.175656
-0.176639
-1.2727
-0.980968
-0.631183
-0.314246
-0.423555
-0.395034
-0.0607536
0.0164831
0.00431658
-0.0215402
-0.010747
-0.017916
-0.0282998
-0.0351109
-0.0359371
-0.0331578
-0.0333146
-0.0334536
-0.0343191
-0.034142
0.258895
0.26023
0.266661
0.276557
0.288176
0.303738
0.32141
0.342115
0.353602
0.370819
0.368174
0.373788
0.26326
0.23769
0.141861
-0.00755899
-0.10137
-0.194976
0.728498
2.13167
-3.35092
-1.78175
-0.815406
-0.602684
-0.393866
-0.0742547
0.0566686
0.0628912
0.00249708
0.016998
0.00212254
-0.015531
-0.0414759
-0.0481502
-0.0500228
-0.0540862
-0.0561189
-0.0556497
-0.0549122
-0.0531976
0.271478
0.278782
0.281379
0.286642
0.296259
0.308944
0.322158
0.334982
0.340839
0.335552
0.273477
0.387752
0.176167
-0.255789
-0.39987
-0.512048
-0.589717
-0.624813
-0.755184
-0.645594
-0.936846
-0.804892
-0.55913
-0.153231
0.154991
0.284889
0.261981
0.00943436
-0.0609175
0.0547855
-0.00756523
-0.0401035
-0.0601904
-0.062424
-0.068618
-0.0723535
-0.075089
-0.0790587
-0.0823112
-0.0770236
0.283543
0.281194
0.28709
0.295584
0.305911
0.314297
0.323625
0.330404
0.332719
0.322307
0.294569
0.199056
0.0939788
0.0356822
-0.281428
-0.723053
-1.16749
-1.36488
-1.41901
-1.06193
-0.600806
0.0459974
0.131841
0.123153
0.00996878
-0.066569
-0.00677495
0.0144222
0.0401889
-0.0106408
-0.0612291
-0.0831403
-0.0913192
-0.0910675
-0.094961
-0.0974161
-0.0963333
-0.0923756
-0.0884213
-0.0953206
0.291459
0.2954
0.297347
0.298799
0.302553
0.306789
0.312145
0.30806
0.304356
0.295491
0.266576
0.129252
-0.146163
-0.483943
-0.572307
-0.622771
-0.754084
-0.654049
-0.759916
0.00588775
-1.29199
-0.564396
-0.27256
0.0440224
0.283752
0.349988
0.298942
0.0494626
-0.0254016
-0.0658619
-0.0832066
-0.0996229
-0.111289
-0.107021
-0.112308
-0.114769
-0.114973
-0.115814
-0.118003
-0.117904
0.292559
0.298996
0.303316
0.305291
0.307236
0.308233
0.306385
0.297238
0.276982
0.264558
0.182311
0.0528853
-0.078035
-0.332936
-0.796694
-1.15391
-1.2636
-1.05916
-1.27501
-0.459251
-0.0973294
0.532404
0.427145
0.591076
0.509957
0.255804
-0.0031799
-0.0470533
-0.0352913
-0.0965491
-0.113269
-0.140793
-0.145032
-0.145377
-0.146498
-0.146256
-0.145076
-0.144168
-0.142599
-0.141915
0.290371
0.292593
0.295818
0.298447
0.30095
0.302377
0.2963
0.283577
0.271652
0.224094
0.136472
-0.0388612
-0.292563
-0.479372
-0.593694
-0.856338
-1.19044
-1.18237
-1.07459
-0.49528
-0.147446
0.0446348
0.267359
0.30762
0.100665
0.088584
0.0846964
0.0150133
-0.0767293
-0.151108
-0.176734
-0.194391
-0.18396
-0.176489
-0.176468
-0.172017
-0.164664
-0.161336
-0.158041
-0.156158
0.292374
0.292898
0.290818
0.287748
0.286266
0.281898
0.274039
0.263804
0.244814
0.222294
0.0796612
-0.0536111
-0.253975
-0.600546
-1.09486
-1.19516
-1.616
-1.3396
-0.990523
-0.262541
-0.618
-0.133652
0.182895
0.44599
0.111254
0.163112
-0.164136
-0.175707
-0.155277
-0.16124
-0.252903
-0.225233
-0.210013
-0.198997
-0.192912
-0.187208
-0.18243
-0.178637
-0.177694
-0.174377
0.291602
0.290627
0.291497
0.290794
0.288386
0.280785
0.270342
0.255221
0.226204
0.163326
0.0477567
-0.106833
-0.337976
-0.555927
-0.875541
-1.27797
-1.61722
-1.5665
-1.31109
-0.232288
-1.77489
-0.814058
0.305119
0.108939
0.0170293
-0.0835547
-0.0962301
-0.116384
-0.17526
-0.185464
-0.225003
-0.241507
-0.235576
-0.230926
-0.220353
-0.210794
-0.203446
-0.19714
-0.192881
-0.190664
0.292515
0.291758
0.290781
0.288961
0.285772
0.277034
0.263865
0.245877
0.221352
0.178688
0.0687633
-0.127114
-0.39185
-0.596981
-0.934128
-1.22386
-1.46756
-1.46154
-1.54808
-1.47433
-0.741758
-0.432252
-0.081996
-0.0621406
-0.070738
-0.166501
-0.19356
-0.12448
-0.152373
-0.225652
-0.281229
-0.271804
-0.247985
-0.243929
-0.23085
-0.218125
-0.211335
-0.206854
-0.204789
-0.203076
0.296226
0.301572
0.29852
0.291549
0.281737
0.276658
0.263864
0.24475
0.209977
0.166973
0.0700819
-0.00522268
-0.23678
-0.558714
-0.830702
-0.926377
-1.00464
-0.985552
-0.926313
-0.247791
-0.915136
-0.363893
-0.0235975
0.0370216
-0.0482091
0.102252
0.0229108
-0.162856
-0.273843
-0.265888
-0.29328
-0.274059
-0.264501
-0.253072
-0.233751
-0.221366
-0.217239
-0.213634
-0.211411
-0.209867
0.292934
0.293254
0.294187
0.293738
0.289724
0.281405
0.272314
0.252389
0.22286
0.17644
0.0567107
-0.0786506
-0.176484
-0.227861
-0.381252
-0.594197
-0.762009
-0.682922
-0.537454
-0.470969
0.884366
0.538609
0.362349
0.443713
0.201553
-0.0550121
-0.193137
-0.238012
-0.220301
-0.245241
-0.280226
-0.275469
-0.277009
-0.260288
-0.242988
-0.231226
-0.223797
-0.217076
-0.215692
-0.21503
0.295206
0.294998
0.292091
0.287765
0.282856
0.276715
0.268117
0.249789
0.228754
0.195099
0.150934
0.0967322
-0.0440412
-0.191495
-0.293091
-0.247632
-0.173973
-0.0350967
0.278809
0.510619
0.252731
0.199844
0.0986146
-0.00209988
-0.0471939
-0.112154
-0.0411916
-0.132029
-0.221081
-0.279261
-0.311251
-0.285071
-0.268054
-0.252848
-0.24035
-0.230836
-0.22498
-0.22315
-0.221215
-0.22078
0.305471
0.305071
0.302344
0.299129
0.293617
0.285226
0.272545
0.263957
0.248284
0.224177
0.173373
0.126497
0.0966895
-0.00785434
-0.129477
-0.190357
-0.168038
0.0501062
0.274987
0.379163
-0.127729
-0.234025
-0.12008
-0.0805296
-0.0853686
-0.142417
-0.223748
-0.329079
-0.310426
-0.291689
-0.308466
-0.283006
-0.265169
-0.250609
-0.24394
-0.236316
-0.231138
-0.227403
-0.225668
-0.224454
0.315759
0.313227
0.312849
0.313616
0.311462
0.306816
0.297871
0.28232
0.246625
0.255291
0.239175
0.216992
0.217404
0.171993
0.0188712
-0.0703753
-0.118326
-0.29114
0.392367
1.10282
-1.48277
-0.889578
-0.288642
-0.43478
-0.449907
-0.464553
-0.457221
-0.409274
-0.339374
-0.301982
-0.298441
-0.26133
-0.265653
-0.252901
-0.24614
-0.2397
-0.232697
-0.22602
-0.221208
-0.223129
0.326089
0.324584
0.324324
0.324239
0.326064
0.322757
0.321486
0.325373
0.31292
0.331182
0.304124
0.24462
0.23494
0.203074
0.107096
0.0288983
-0.067018
-0.133701
-0.0550651
-0.212578
-0.782896
-0.836828
-0.7957
-0.721397
-0.683619
-0.589279
-0.486674
-0.400943
-0.33745
-0.319234
-0.291058
-0.269271
-0.253291
-0.239302
-0.233811
-0.225565
-0.225056
-0.222512
-0.222441
-0.220658
0.331323
0.331626
0.332914
0.336652
0.340962
0.348466
0.355388
0.362456
0.373014
0.434799
0.435588
0.520693
0.533853
0.451864
0.452385
0.411489
0.353487
0.192329
-0.0216252
-0.267978
-0.655385
-0.638322
-0.701428
-0.750228
-0.682316
-0.6638
-0.57607
-0.511667
-0.434835
-0.328504
-0.303714
-0.286386
-0.24642
-0.240512
-0.230412
-0.222062
-0.216995
-0.208866
-0.207126
-0.207396
0.338248
0.339111
0.342366
0.34662
0.352737
0.362451
0.374157
0.404301
0.443823
0.468866
0.502657
0.550889
0.683301
0.871281
1.00417
0.989024
0.964123
0.955121
0.789349
0.95475
-0.989246
-0.755375
-0.63564
-0.70831
-0.638176
-0.57868
-0.523905
-0.39349
-0.328354
-0.31644
-0.283075
-0.271389
-0.243654
-0.224346
-0.21379
-0.204202
-0.199551
-0.20162
-0.200962
-0.204486
0.343216
0.343238
0.346953
0.352166
0.360166
0.372426
0.390034
0.427886
0.4599
0.524941
0.607677
0.675452
0.760788
0.864393
0.995247
1.09825
1.21515
1.13626
0.983709
0.629449
-0.0206381
-0.237357
-0.498038
-0.53531
-0.544674
-0.429372
-0.390734
-0.381545
-0.368029
-0.300031
-0.281849
-0.250032
-0.232774
-0.206805
-0.202373
-0.200533
-0.200046
-0.201352
-0.202121
-0.200865
0.34154
0.341814
0.34611
0.352972
0.363356
0.377882
0.400741
0.431658
0.466216
0.523281
0.584254
0.685389
0.861834
0.97816
1.01549
1.03454
1.1245
1.06339
0.900974
0.668566
-0.425079
-0.614039
-0.84892
-0.806944
-0.74164
-0.633709
-0.553369
-0.426772
-0.330671
-0.285572
-0.24893
-0.232398
-0.221827
-0.210384
-0.203362
-0.199908
-0.194977
-0.193372
-0.191098
-0.191739
0.338535
0.336644
0.339108
0.343931
0.353203
0.365688
0.38464
0.419812
0.45078
0.495216
0.567088
0.611029
0.66784
0.748959
0.798604
0.818487
0.845735
0.688152
0.44959
0.0409223
-0.700617
-0.880478
-1.09135
-0.999145
-0.767805
-0.61508
-0.481498
-0.37988
-0.341477
-0.301727
-0.229077
-0.20174
-0.206261
-0.195294
-0.185857
-0.183987
-0.181402
-0.182312
-0.182074
-0.182348
0.330303
0.329707
0.332009
0.336585
0.345935
0.360193
0.382212
0.401064
0.424416
0.467605
0.510593
0.588909
0.660183
0.697177
0.689928
0.630743
0.779679
0.610948
0.315585
0.491529
-1.61327
-1.40725
-1.50009
-1.4344
-0.829647
-0.712644
-0.562003
-0.430601
-0.314796
-0.239084
-0.201184
-0.186137
-0.178174
-0.178076
-0.174614
-0.172262
-0.170663
-0.174247
-0.173668
-0.175568
0.315137
0.312923
0.317763
0.329238
0.337163
0.347407
0.363223
0.393297
0.420611
0.441551
0.479756
0.506837
0.532039
0.533053
0.547019
0.545732
0.50588
0.36294
-0.0605053
-0.423401
-0.79935
-0.956816
-0.992372
-0.899662
-0.73549
-0.588193
-0.482871
-0.363041
-0.293106
-0.216888
-0.178065
-0.170917
-0.169532
-0.163441
-0.162639
-0.162102
-0.161593
-0.160963
-0.160703
-0.161435
0.306966
0.309808
0.311044
0.31178
0.315425
0.32366
0.334085
0.347904
0.371391
0.407522
0.442662
0.453747
0.491086
0.561619
0.652742
0.70264
0.638244
0.547331
0.369406
0.185176
-0.259574
-0.381316
-0.463281
-0.451596
-0.414989
-0.301543
-0.224266
-0.16928
-0.157894
-0.178889
-0.156211
-0.14528
-0.145165
-0.145023
-0.145735
-0.145151
-0.149206
-0.152592
-0.154332
-0.155613
0.28363
0.285968
0.289618
0.293057
0.296955
0.301871
0.309318
0.319667
0.322658
0.335928
0.351127
0.442928
0.548563
0.606323
0.604555
0.637782
0.690629
0.709117
0.726698
0.678318
0.473712
0.34254
0.275907
0.209009
0.100294
0.075711
-0.007701
-0.0993457
-0.13266
-0.126667
-0.120468
-0.131429
-0.12669
-0.133775
-0.13894
-0.141877
-0.14386
-0.144494
-0.14692
-0.150124
0.262633
0.259164
0.258833
0.258237
0.258311
0.259557
0.264385
0.271428
0.278486
0.292137
0.318314
0.334265
0.420409
0.541272
0.596169
0.710097
0.796748
0.872014
0.904635
0.816334
0.667858
0.47054
0.282919
0.14698
0.0710841
0.0223509
0.00337612
-0.0515189
-0.0649149
-0.0805104
-0.115683
-0.11814
-0.123447
-0.12523
-0.131312
-0.134947
-0.138264
-0.140773
-0.141754
-0.145945
0.244362
0.24291
0.24025
0.235584
0.231581
0.226849
0.220658
0.226666
0.220739
0.236056
0.238495
0.264474
0.296945
0.329024
0.386235
0.489814
0.565449
0.694015
0.720482
0.557539
0.283332
0.117436
0.0197301
-0.00907495
0.0219455
-0.023958
-0.0346396
-0.0711448
-0.106629
-0.105869
-0.119085
-0.122052
-0.12926
-0.119997
-0.126556
-0.133607
-0.137713
-0.141553
-0.142631
-0.141003
0.229185
0.227366
0.225408
0.222624
0.22005
0.213422
0.20711
0.200035
0.18895
0.179395
0.191615
0.219636
0.235251
0.212717
0.188702
0.189446
0.235383
0.190705
0.159726
0.103917
0.0143102
-0.0780701
-0.106832
-0.0854389
-0.027027
-0.0657379
-0.106951
-0.142549
-0.138004
-0.119269
-0.119748
-0.129709
-0.131194
-0.130595
-0.132568
-0.140279
-0.139804
-0.138925
-0.1367
-0.137263
0.214996
0.217065
0.215032
0.211074
0.204745
0.196445
0.189121
0.181027
0.170243
0.141992
0.137934
0.13724
0.120665
0.0968703
0.0829651
0.153453
0.15716
0.181435
0.222688
0.0111178
-0.101823
-0.209519
-0.205667
-0.134804
-0.136352
-0.127882
-0.163172
-0.133157
-0.11579
-0.111858
-0.10654
-0.119662
-0.121432
-0.123334
-0.124092
-0.126667
-0.13032
-0.133567
-0.134751
-0.134433
0.205546
0.207399
0.20548
0.201925
0.196606
0.189454
0.184446
0.178413
0.1936
0.211895
0.197598
0.180983
0.205096
0.258851
0.324161
0.397181
0.43965
0.386066
0.286847
0.216995
0.199553
0.106928
0.0664814
0.0272926
-0.039546
-0.0832473
-0.132803
-0.145373
-0.148832
-0.148266
-0.146069
-0.128099
-0.128083
-0.124931
-0.124773
-0.126533
-0.12852
-0.128637
-0.130344
-0.130011
0.195205
0.194556
0.194835
0.19424
0.192979
0.190083
0.185724
0.184366
0.180743
0.196475
0.218348
0.30206
0.386332
0.462973
0.541894
0.672927
0.727924
0.888704
0.922442
0.725417
0.576224
0.296965
0.14905
0.324449
0.174267
0.100874
-0.0119515
-0.0711342
-0.104171
-0.106072
-0.10591
-0.122459
-0.124551
-0.124529
-0.127589
-0.12619
-0.125246
-0.123261
-0.122539
-0.128638
0.187991
0.187287
0.186761
0.185016
0.18334
0.181228
0.179734
0.187884
0.204122
0.233174
0.268129
0.299717
0.399628
0.549859
0.674497
0.773181
0.82334
0.883068
0.986397
0.897918
0.847301
0.648151
0.435524
0.309227
0.23698
0.153814
0.0768292
0.0234663
-0.0477461
-0.0944263
-0.128998
-0.127286
-0.127662
-0.123528
-0.122789
-0.125908
-0.127985
-0.130863
-0.132839
-0.130253
0.181279
0.180493
0.180003
0.179918
0.18016
0.181601
0.182942
0.188004
0.204943
0.225353
0.280412
0.35702
0.428335
0.501595
0.579025
0.634945
0.699854
0.711721
0.740846
0.790241
0.655673
0.316711
0.208709
0.156651
0.0922673
0.0184074
-0.0470146
-0.102757
-0.115615
-0.108815
-0.125695
-0.138088
-0.136128
-0.135453
-0.13769
-0.139035
-0.136246
-0.133783
-0.130344
-0.130123
0.17729
0.173337
0.172061
0.172631
0.173008
0.174617
0.175759
0.177643
0.200243
0.216125
0.242057
0.266689
0.306534
0.34568
0.371219
0.378465
0.358474
0.369688
0.335798
0.274136
0.193253
-0.00908757
-0.0523341
-0.0150894
-0.0667751
-0.0544314
-0.0746361
-0.0889918
-0.101923
-0.131817
-0.14282
-0.136135
-0.136701
-0.135177
-0.134405
-0.132223
-0.130182
-0.128484
-0.12725
-0.123895
0.169891
0.171091
0.170044
0.168613
0.168525
0.172094
0.178318
0.187429
0.195615
0.21076
0.254546
0.292291
0.314637
0.33782
0.352826
0.310046
0.280209
0.214845
0.16199
0.0539395
0.000733726
-0.215997
-0.243225
-0.283084
-0.336345
-0.309072
-0.280192
-0.187491
-0.175412
-0.155058
-0.130341
-0.124703
-0.138648
-0.132836
-0.12607
-0.122785
-0.12218
-0.121193
-0.121064
-0.120013
0.161581
0.16241
0.164689
0.167841
0.171713
0.172608
0.188538
0.192071
0.202765
0.220916
0.237219
0.273602
0.280473
0.28761
0.307498
0.317464
0.348404
0.243026
0.0620416
1.01179e-05
-0.0424264
-0.0946783
-0.0833399
-0.0710758
-0.113446
-0.172216
-0.203201
-0.202675
-0.194422
-0.166477
-0.148551
-0.137717
-0.132113
-0.129723
-0.121457
-0.117855
-0.114185
-0.110889
-0.109573
-0.110602
0.160346
0.162636
0.162987
0.162212
0.162553
0.166169
0.176252
0.180097
0.186887
0.218843
0.236321
0.252711
0.314261
0.401353
0.479084
0.554331
0.53204
0.62003
0.530668
0.359767
0.286647
0.195576
0.132316
0.0198953
-0.0357522
-0.0682292
-0.102473
-0.11194
-0.111451
-0.121756
-0.128807
-0.123855
-0.11759
-0.113688
-0.111474
-0.109193
-0.10829
-0.10968
-0.109461
-0.109724
0.151524
0.153179
0.154133
0.156798
0.158976
0.161262
0.166448
0.173503
0.186328
0.214721
0.267735
0.31382
0.384697
0.474845
0.558326
0.640126
0.685376
0.728552
0.730234
0.626371
0.528721
0.46711
0.357293
0.236663
0.152702
0.072707
0.0105456
-0.0517124
-0.101796
-0.118751
-0.108803
-0.113438
-0.103089
-0.105725
-0.106898
-0.106884
-0.107362
-0.108395
-0.108708
-0.105012
0.141954
0.138806
0.139185
0.141059
0.144483
0.147605
0.153198
0.160585
0.17708
0.205139
0.235046
0.275098
0.350538
0.438904
0.51737
0.603745
0.654006
0.686031
0.700372
0.619064
0.54345
0.409496
0.253199
0.142634
0.0279627
-0.00811218
-0.0305706
-0.0625737
-0.0880048
-0.0839356
-0.0904998
-0.0968179
-0.0972699
-0.0992521
-0.101485
-0.101365
-0.101026
-0.100478
-0.0986309
-0.0964451
0.134646
0.134156
0.131578
0.129339
0.129599
0.130412
0.130718
0.133641
0.144258
0.158949
0.177633
0.203341
0.237506
0.307116
0.380374
0.446243
0.509637
0.55733
0.531232
0.381917
0.24284
0.0433334
-0.116708
-0.124413
-0.210808
-0.161163
-0.130099
-0.0999005
-0.0819313
-0.0812798
-0.0875992
-0.0870787
-0.0851064
-0.0862779
-0.0894528
-0.0889827
-0.0909922
-0.0911351
-0.0910036
-0.0874267
0.124955
0.125067
0.125464
0.125792
0.125889
0.12336
0.126448
0.122256
0.120022
0.137775
0.145088
0.151954
0.152897
0.156542
0.144533
0.126001
0.0973604
0.0886848
0.131593
-0.0508043
-0.0377922
-0.124818
-0.162877
-0.240919
-0.241417
-0.19742
-0.160994
-0.131343
-0.116736
-0.0963521
-0.0813585
-0.0719603
-0.0797648
-0.0795819
-0.0801805
-0.0805414
-0.0812108
-0.0812186
-0.0811859
-0.0808657
0.120463
0.121547
0.12098
0.12044
0.118001
0.114889
0.110663
0.104854
0.094376
0.0792762
0.0558035
0.0249522
0.00630239
0.000852706
0.0147287
0.034261
0.055309
0.0752904
0.0265893
-0.0699431
-0.29201
-0.348104
-0.32046
-0.277644
-0.215342
-0.190242
-0.152021
-0.0950705
-0.0519444
-0.0412502
-0.051355
-0.05711
-0.0661424
-0.0632242
-0.0654675
-0.0675544
-0.0682897
-0.0702637
-0.0720997
-0.0740214
0.116332
0.119856
0.118387
0.115035
0.111052
0.104631
0.0970927
0.0914876
0.0840779
0.0677932
0.0428381
0.0153302
0.0216114
0.0427638
0.0646442
0.106516
-0.0420037
-0.0582903
-0.0919015
-0.0739647
-0.0776855
-0.0513097
-0.0286991
0.0110941
-0.040268
-0.0441787
-0.0554319
-0.0586807
-0.0493635
-0.047861
-0.0479727
-0.0523018
-0.055145
-0.0562973
-0.0590519
-0.0624264
-0.0639022
-0.0671824
-0.0691751
-0.0710782
0.104242
0.102492
0.102568
0.104297
0.104083
0.100256
0.0957322
0.0860622
0.0707983
0.0600435
0.0536948
0.0368065
0.0264812
0.0301313
0.0203486
0.0495055
0.0694851
0.0978196
0.137348
0.164149
0.201069
0.183928
0.207588
0.229927
0.247766
0.201975
0.147602
0.078696
0.0297481
-0.00309826
-0.0127127
-0.026114
-0.0450485
-0.0549722
-0.063839
-0.0654944
-0.0658521
-0.0657632
-0.0653205
-0.0648027
0.101009
0.09788
0.0962356
0.0947554
0.0927074
0.0890856
0.0861824
0.0808494
0.0764255
0.0644726
0.0399257
0.0282405
0.0421609
0.0661118
0.094081
0.142728
0.0589741
0.15951
0.248308
0.300937
0.321096
0.368495
0.371661
0.360412
0.309818
0.281496
0.229951
0.162092
0.106446
0.0523092
0.0069952
-0.023225
-0.0375461
-0.0482639
-0.0561983
-0.0591224
-0.0640141
-0.0674081
-0.0679589
-0.0626555
0.105281
0.103106
0.100877
0.0990594
0.0963891
0.0971294
0.0949051
0.0909497
0.0830015
0.0796828
0.0776545
0.0710852
0.0541273
0.0416982
0.032552
0.0454374
0.075349
0.123297
0.139567
0.24398
0.324181
0.344948
0.335288
0.307075
0.286797
0.222542
0.163754
0.105643
0.054876
0.023177
0.00439579
-0.0182608
-0.0375704
-0.0488654
-0.0555692
-0.0607383
-0.0619146
-0.0604885
-0.05938
-0.0553201
0.105349
0.10496
0.105863
0.107006
0.107761
0.108575
0.109424
0.112099
0.0991765
0.087465
0.065602
0.0300622
-0.00839073
-0.0544775
-0.128853
-0.143122
-0.0985141
-0.0639226
0.00831456
0.098267
0.111173
0.119161
0.129571
0.148937
0.216805
0.181655
0.144588
0.102385
0.0473818
0.0109263
-0.0220761
-0.0307967
-0.0378809
-0.0447448
-0.0452519
-0.0469688
-0.048279
-0.0492192
-0.0505359
-0.0518489
0.105008
0.108674
0.111665
0.111567
0.111443
0.110979
0.116311
0.11787
0.111302
0.106445
0.0973037
0.0729902
0.0371471
-0.0116998
-0.0929942
-0.173556
-0.150735
-0.228427
-0.175654
-0.130762
-0.0765928
-0.0809875
-0.0175135
-0.0344562
-0.0441079