/*--------------------------------*- C++ -*----------------------------------*\
| =========                 |                                                 |
| \\      /  F ield         | OpenFOAM: The Open Source CFD Toolbox           |
|  \\    /   O peration     | Version:  v2106                                 |
|   \\  /    A nd           | Website:  www.openfoam.com                      |
|    \\/     M anipulation  |                                                 |
\*---------------------------------------------------------------------------*/
FoamFile
{
    version     2.0;
    format      ascii;
    arch        "LSB;label=32;scalar=64";
    class       volVectorField;
    location    "0";
    object      U;
}
// * * * * * * * * * * * * * * * * * * * * * * * * * * * * * * * * * * * * * //

dimensions      [0 1 -1 0 0 0 0];

internalField   nonuniform List<vector> 
11644
(
(0.00205118 9.11378e-05 -2.17232e-21)
(0.00207418 0.000282309 -5.9906e-21)
(0.00211148 0.000451666 -3.21411e-21)
(0.00212485 0.000608804 0)
(0.00213401 0.000769388 0)
(0.00215512 0.000977994 0)
(0.0021932 0.0010908 0)
(0.00215494 0.00118518 0)
(0.00211448 0.00131467 0)
(0.0021079 0.00146319 0)
(0.00209221 0.00160473 0)
(0.00216995 0.00163707 0)
(0.00198698 0.00158813 0)
(0.00260001 0.00159112 0)
(0.00264706 0.00148119 0)
(0.00216107 0.00144976 0)
(0.00255033 0.00141069 0)
(0.00183618 0.000465044 0)
(0.00130873 0.00222893 0)
(0.00322432 0.00156731 5.38932e-30)
(0.00322967 0.000214737 -5.37595e-30)
(0.00111348 -0.00051035 0)
(0.00157268 0.0013793 0)
(0.00265446 0.000456484 0)
(0.00236123 0.000446105 0)
(0.00257329 0.000306688 0)
(0.00276362 0.000147183 0)
(0.00220449 5.91631e-05 0)
(0.00234051 -0.000124983 0)
(0.00228162 -0.000206135 0)
(0.00218332 -0.000178566 0)
(0.00219111 -0.000187424 0)
(0.00224563 -0.000227717 0)
(0.00224168 -0.000293325 0)
(0.00218036 -0.000312995 0)
(0.00217022 -0.000250248 0)
(0.0021446 -0.000197357 0)
(0.00213328 -0.000152479 0)
(0.0021235 -9.01168e-05 0)
(0.00210745 -4.10529e-05 -4.2119e-22)
(0.00172971 0.000172478 -2.79032e-21)
(0.00171845 0.000538476 -2.58473e-21)
(0.00167708 0.000951159 -1.38818e-21)
(0.00160011 0.00136906 0)
(0.00157757 0.00184182 0)
(0.00157127 0.00230287 0)
(0.00152261 0.00284883 0)
(0.00144418 0.00335665 0)
(0.00132953 0.00366488 0)
(0.00119201 0.00377104 0)
(0.00119184 0.00367523 0)
(0.00106021 0.0033748 0)
(0.00139375 0.00293451 0)
(0.00094456 0.00208729 0)
(0.00114331 0.0013785 0)
(0.0024136 0.000832026 4.23706e-22)
(0.00267312 0.000338872 2.17078e-21)
(0.0027499 0.00132065 -3.30768e-21)
(0.00427048 -0.00049777 1.01893e-20)
(0.00297034 -0.00101222 -7.06802e-20)
(0.00292816 0.00268843 6.65074e-20)
(0.00394242 0.00199452 -1.15015e-20)
(0.00250114 -0.000325872 9.21596e-21)
(0.00228065 0.000590105 -2.50019e-21)
(0.00228763 0.000477644 -4.69812e-22)
(0.00155693 0.00017594 0)
(0.000918882 -0.000426226 0)
(0.00140638 -0.000996525 0)
(0.00128913 -0.00141964 0)
(0.00134195 -0.00169538 0)
(0.00153957 -0.00191343 0)
(0.00164316 -0.00193488 0)
(0.00170407 -0.00179594 0)
(0.00175295 -0.00153289 0)
(0.00181097 -0.00127207 0)
(0.00179638 -0.00105488 0)
(0.00184841 -0.000825824 0)
(0.00184302 -0.000594789 0)
(0.00187817 -0.000358448 0)
(0.00193397 -9.83301e-05 0)
(0.00130258 0.000273725 0)
(0.00126185 0.000773642 0)
(0.00117672 0.00133001 0)
(0.00104106 0.00190999 0)
(0.000952703 0.00251885 -2.54891e-21)
(0.000789018 0.00311597 0)
(0.00056122 0.00374214 0)
(0.000289747 0.00431125 0)
(6.71144e-05 0.00479163 0)
(-0.000101763 0.00509214 0)
(-0.000158265 0.00505629 0)
(0.000251248 0.00478176 0)
(0.000323974 0.00399994 1.02688e-22)
(0.00184077 0.00284378 4.11787e-21)
(0.00298594 0.00146139 6.75763e-21)
(0.00274382 8.50809e-05 1.06359e-19)
(0.00351752 -0.000885261 -6.85293e-20)
(0.00508283 -0.0005516 5.27161e-20)
(0.00536463 -0.000756511 1.85738e-20)
(0.00399612 0.000106526 2.68472e-19)
(0.00377048 0.000507291 -4.15727e-19)
(0.00489333 0.000993987 -9.10804e-21)
(0.004 0.000484232 7.18965e-20)
(0.00271607 0.0011393 -1.02599e-19)
(0.00210906 0.000293772 7.29399e-20)
(0.00159484 -0.000465946 -5.29263e-22)
(0.00139897 -0.00115039 -4.73541e-21)
(0.000371195 -0.0021412 5.36175e-23)
(0.000225014 -0.00263342 0)
(0.000189746 -0.00287809 0)
(0.000267423 -0.00289305 0)
(0.000477891 -0.00278875 0)
(0.000695684 -0.00258716 0)
(0.000932695 -0.00231112 0)
(0.00113003 -0.00197252 0)
(0.00126963 -0.00161539 0)
(0.00139923 -0.00122341 0)
(0.00144638 -0.000836189 0)
(0.00153199 -0.000475052 0)
(0.00162981 -0.000196657 0)
(0.00097019 0.00018932 0)
(0.000900361 0.000782821 0)
(0.00075763 0.00148948 0)
(0.00058876 0.00222261 0)
(0.00040479 0.00293504 0)
(9.80702e-05 0.00365374 0)
(-0.000313197 0.00437859 0)
(-0.000782223 0.00507374 0)
(-0.00128077 0.00568036 0)
(-0.00171809 0.00613932 0)
(-0.00187456 0.00639941 -1.51642e-22)
(-0.00184298 0.00614866 -2.93576e-21)
(-0.000685473 0.00586618 3.04269e-20)
(-0.000184196 0.00452519 -9.31087e-20)
(0.000717063 0.00277804 2.05448e-19)
(0.00356877 0.000859207 -1.65437e-20)
(0.00423388 3.24411e-05 8.58621e-20)
(0.00554511 0.000121755 -1.72622e-19)
(0.00597274 -0.000550549 -5.11913e-20)
(0.00683127 -0.000554566 -8.07253e-20)
(0.00620297 0.000145082 1.42205e-19)
(0.00464849 0.00080271 3.6547e-20)
(0.00438459 0.000573079 1.08287e-19)
(0.00275192 0.000239803 -2.04269e-19)
(0.00161254 -0.000322737 1.58564e-19)
(-0.000152623 -0.00169428 -1.83989e-19)
(-0.00178843 -0.00244781 7.47233e-20)
(-0.0015518 -0.00311555 -2.24353e-20)
(-0.00171283 -0.0034626 -1.44506e-20)
(-0.00144761 -0.00369754 9.46347e-23)
(-0.00105751 -0.00373268 0)
(-0.000677835 -0.00358699 0)
(-0.000285009 -0.00328687 0)
(0.000133009 -0.00288801 0)
(0.000481984 -0.00243153 0)
(0.000827912 -0.00198044 0)
(0.00107678 -0.00154694 0)
(0.0012053 -0.00109789 0)
(0.0012904 -0.000621972 0)
(0.00139214 -0.000101641 0)
(0.000569575 0.000339172 0)
(0.000513406 0.000895472 0)
(0.000373013 0.00163424 0)
(0.000163397 0.00235465 0)
(-0.000106154 0.00313368 0)
(-0.000507712 0.00393307 0)
(-0.00106711 0.00476037 0)
(-0.00168667 0.0056238 0)
(-0.00233474 0.00652036 0)
(-0.00281627 0.00744695 2.82694e-21)
(-0.00288415 0.00837085 -1.27205e-21)
(-0.00230371 0.00899277 1.54405e-20)
(-0.00200669 0.00826908 5.47279e-20)
(-0.000239963 0.00717495 2.46432e-20)
(0.0024191 0.00525647 -4.31821e-19)
(0.00290093 0.00195643 2.51332e-19)
(0.00446197 0.00148253 -2.55474e-19)
(0.00761554 0.00156785 -3.86754e-19)
(0.00827565 0.000529885 6.91194e-19)
(0.00938178 3.47505e-05 -2.06337e-19)
(0.00893557 -0.000536128 -4.62438e-21)
(0.00673656 -4.12978e-05 -2.59652e-19)
(0.00555927 3.69449e-05 1.59005e-19)
(0.00367941 -0.000138067 2.62485e-19)
(0.00198428 -0.000793763 -1.78607e-19)
(0.000565824 -0.00271388 3.83085e-19)
(-0.000533567 -0.00403285 -5.39725e-20)
(-0.00254408 -0.00461471 -1.26061e-19)
(-0.00300326 -0.00474295 5.92896e-20)
(-0.00283802 -0.0047448 9.9868e-22)
(-0.00230999 -0.00466976 -1.07928e-21)
(-0.0017365 -0.00436291 0)
(-0.00113519 -0.00389431 0)
(-0.000484922 -0.00339406 0)
(2.37722e-05 -0.00286535 0)
(0.000451998 -0.00233999 0)
(0.000733012 -0.00177444 0)
(0.000857881 -0.00117445 0)
(0.000954374 -0.000563521 0)
(0.00106175 -0.000289718 0)
(0.000109001 0.000271799 0)
(7.35608e-05 0.00117126 0)
(6.06762e-07 0.00189635 0)
(-0.000167879 0.00268673 0)
(-0.000432287 0.00339478 0)
(-0.000840858 0.00420984 0)
(-0.00137918 0.00513064 0)
(-0.00200209 0.00616352 0)
(-0.00264633 0.007365 -6.18313e-22)
(-0.00327972 0.00871185 1.37382e-20)
(-0.0039251 0.00960249 -7.92265e-20)
(-0.00455669 0.00956514 -3.09327e-20)
(-0.00445929 0.00982076 3.91197e-19)
(-0.0033841 0.00950787 -5.27646e-19)
(-0.0020101 0.0074227 2.21141e-19)
(0.00237591 0.00467191 -1.51546e-19)
(0.00487836 0.00524457 -4.98229e-19)
(0.00723257 0.00591105 7.03878e-19)
(0.00942009 0.00295064 -4.74586e-19)
(0.0100471 0.000350792 3.08739e-19)
(0.0100769 0.00155636 3.89838e-19)
(0.00939803 0.00039514 -1.71753e-19)
(0.00659619 -0.00194983 -7.42583e-19)
(0.00439193 -0.00218875 6.80267e-19)
(0.00165376 -0.00198131 -4.84416e-20)
(-0.000145589 -0.0039209 -2.59167e-19)
(-0.00284924 -0.0051939 5.65196e-19)
(-0.0027549 -0.00619958 -3.61222e-19)
(-0.00318518 -0.00613691 9.07078e-20)
(-0.00347574 -0.00567101 -4.30571e-20)
(-0.00307778 -0.00523825 2.32379e-20)
(-0.00220894 -0.00486324 2.85023e-22)
(-0.00143688 -0.00430212 0)
(-0.000746448 -0.00366983 0)
(-0.000212053 -0.00307644 0)
(0.000171257 -0.00246825 0)
(0.000443132 -0.00194666 0)
(0.000562288 -0.00141461 0)
(0.000641983 -0.000912462 0)
(0.000670669 -8.05288e-05 0)
(-0.000339163 0.000436161 0)
(-0.00038225 0.00105846 0)
(-0.000404481 0.00204389 0)
(-0.000457295 0.00279939 0)
(-0.000582364 0.0036238 0)
(-0.000855324 0.00451289 0)
(-0.00125522 0.0054803 0)
(-0.00179839 0.00668641 -1.39062e-22)
(-0.00244425 0.00802917 -5.33517e-21)
(-0.00340544 0.00923373 -1.66391e-20)
(-0.00444896 0.0105078 2.06787e-20)
(-0.0049933 0.0116468 5.59007e-20)
(-0.00420179 0.0120513 -1.51592e-19)
(-0.00482219 0.0123153 1.63473e-19)
(-0.00153333 0.0135931 1.30094e-20)
(0.000946297 0.0113927 -1.34459e-19)
(0.00692713 0.00866342 4.24565e-19)
(0.0060554 0.00848974 -6.70948e-19)
(0.00726161 0.00651433 -3.51563e-19)
(0.00848368 0.00428053 3.08553e-19)
(0.00957431 0.00392392 3.99203e-19)
(0.00911086 5.63083e-05 -3.70535e-19)
(0.00743219 -0.00225764 -2.34648e-19)
(0.00614318 -0.00301471 -1.53466e-19)
(0.00187634 -0.00266826 -8.56276e-21)
(0.000152336 -0.00576602 4.78633e-20)
(0.000710764 -0.00694399 -1.91289e-19)
(-0.000827505 -0.00702314 2.50543e-19)
(-0.00182275 -0.00707762 -8.56519e-20)
(-0.00218835 -0.00677947 3.61571e-20)
(-0.00225279 -0.00590262 -6.11043e-20)
(-0.00180735 -0.00508406 6.00318e-22)
(-0.00103118 -0.00458219 -7.8381e-22)
(-0.000412584 -0.00407965 0)
(-1.9882e-05 -0.00356451 0)
(0.000235128 -0.00306376 0)
(0.00032279 -0.00246602 0)
(0.000357233 -0.00181067 0)
(0.000336459 -0.000976308 0)
(0.000352264 -0.000539759 0)
(-0.000731568 0.000545557 0)
(-0.000728277 0.0016811 0)
(-0.000704836 0.00245426 0)
(-0.000642622 0.00320544 0)
(-0.000612702 0.00409403 0)
(-0.00070166 0.00497776 0)
(-0.000903143 0.00609706 0)
(-0.00126081 0.0072885 -8.12936e-22)
(-0.00195805 0.00842324 4.35822e-20)
(-0.00303212 0.00953524 -5.82339e-20)
(-0.004036 0.0108021 4.78754e-20)
(-0.00467063 0.0130934 -1.12554e-19)
(-0.00456109 0.0130563 1.3059e-19)
(-0.00313728 0.0139408 2.02653e-19)
(-0.00215483 0.0154049 -3.83657e-19)
(-0.00355106 0.0138588 1.62879e-20)
(-0.000848119 0.0138024 4.1084e-19)
(0.00488462 0.0115024 3.09371e-19)
(0.00630059 0.0106644 -4.51503e-19)
(0.0067895 0.00883933 -1.0217e-19)
(0.00690218 0.00576831 -2.27077e-20)
(0.00781616 0.00280015 -4.45766e-19)
(0.00846566 7.78743e-05 7.93764e-20)
(0.00834763 -0.00174318 8.03187e-19)
(0.00551301 -0.0037436 -3.52748e-19)
(0.00125603 -0.00526867 -3.23793e-19)
(0.0017137 -0.00507217 9.5831e-20)
(0.00110988 -0.00626843 -1.01076e-19)
(0.00132474 -0.00848268 -1.99241e-20)
(0.000730037 -0.00829442 9.74278e-20)
(0.000289924 -0.00727904 -2.32267e-20)
(3.58088e-05 -0.00607686 3.73313e-20)
(0.000103562 -0.00532856 -1.80421e-20)
(0.00033909 -0.00488062 0)
(0.000406251 -0.00427702 0)
(0.000406704 -0.00358282 0)
(0.000312111 -0.00282585 0)
(0.000195299 -0.00219491 0)
(0.000125952 -0.00139431 0)
(5.33892e-05 -0.000331891 0)
(-0.00112852 0.0003539 0)
(-0.00105734 0.00144111 0)
(-0.000915591 0.00261521 0)
(-0.000819111 0.00391115 0)
(-0.000675707 0.00489066 0)
(-0.000556115 0.00601647 0)
(-0.000496785 0.00704571 6.68882e-22)
(-0.000584646 0.00815631 1.63693e-20)
(-0.00111042 0.00918208 -3.86644e-20)
(-0.00187697 0.010662 -1.63029e-20)
(-0.00239417 0.0131624 -2.08216e-20)
(-0.00256472 0.0154182 1.70784e-19)
(-0.00236537 0.0173564 -1.30044e-19)
(-0.00427449 0.0191896 5.96665e-20)
(0.000533365 0.0186621 1.74825e-19)
(0.00297089 0.0168906 3.72702e-20)
(0.00500081 0.0212816 2.65592e-19)
(0.00224102 0.0167505 1.10537e-19)
(0.0073975 0.0151166 -5.17355e-19)
(0.00752794 0.0138573 -6.04573e-20)
(0.00953031 0.0127337 -5.64362e-19)
(0.0133022 0.00867781 6.85291e-19)
(0.014719 0.00378473 -4.33264e-20)
(0.0138875 -0.00112547 -1.9142e-19)
(0.0130955 -0.0061148 -9.03349e-20)
(0.0153236 -0.00724066 9.19341e-20)
(0.00873167 -0.00678838 -6.00794e-20)
(0.00850442 -0.00817909 3.6111e-20)
(0.00622065 -0.00810177 -3.2658e-20)
(0.00481209 -0.00913575 -5.23231e-22)
(0.00384122 -0.00903922 6.15296e-21)
(0.00275859 -0.00805342 -2.56162e-20)
(0.00182291 -0.00697999 1.33772e-20)
(0.00135938 -0.00644846 -1.17231e-21)
(0.000960625 -0.00584343 0)
(0.000576218 -0.00493067 0)
(0.00026038 -0.00401811 0)
(6.15742e-06 -0.00277381 0)
(-0.000168615 -0.00177965 0)
(-0.000264155 -0.000493017 0)
(-0.00170931 0.000908509 0)
(-0.00164403 0.00232701 0)
(-0.00148532 0.00349835 0)
(-0.00115867 0.00441075 0)
(-0.000809487 0.00549805 0)
(-0.00035355 0.00662447 0)
(1.94609e-05 0.00793558 1.79168e-21)
(6.6968e-05 0.0094228 -1.3928e-20)
(-0.000289451 0.010962 1.31512e-20)
(-0.000435276 0.0129735 -6.77961e-21)
(-0.000461067 0.0154492 -1.37192e-20)
(-0.00169196 0.0201668 3.7032e-20)
(-0.00299343 0.0258174 -8.54849e-21)
(0.00419677 0.0221679 -2.63909e-20)
(0.00291317 0.0247991 1.43222e-20)
(0.00732553 0.0205433 7.98559e-20)
(0.00870653 0.0205374 5.80982e-20)
(0.00731456 0.0183156 -1.52034e-19)
(0.00450604 0.0155688 -1.39466e-19)
(0.00601545 0.0183169 -2.29531e-19)
(0.010541 0.0202342 -1.41119e-19)
(0.0200352 0.0173663 2.94523e-22)
(0.0240907 0.00989239 -6.29203e-20)
(0.0264637 0.00213746 -2.37614e-19)
(0.0251353 -0.00419179 2.89008e-20)
(0.0242019 -0.00613576 1.49266e-19)
(0.0187312 -0.0105 -3.4275e-20)
(0.014992 -0.0132102 1.74605e-20)
(0.0126997 -0.0122099 -1.12944e-20)
(0.0103621 -0.0115389 4.73373e-20)
(0.00808313 -0.0110701 -5.5337e-20)
(0.00569651 -0.0107869 9.95569e-21)
(0.00358595 -0.00977454 8.49679e-21)
(0.00228522 -0.00867776 5.79674e-22)
(0.00132738 -0.00782305 0)
(0.000555886 -0.00670392 0)
(-4.08847e-05 -0.00543304 0)
(-0.000463754 -0.00421901 0)
(-0.000737061 -0.0025804 0)
(-0.000879375 -0.0011934 0)
(-0.00272254 0.000990954 0)
(-0.00252157 0.00207539 0)
(-0.00243014 0.00374503 0)
(-0.00196344 0.00493311 0)
(-0.00149448 0.0063604 0)
(-0.000980009 0.00786472 0)
(-0.000416741 0.00963966 -5.6279e-22)
(-6.71521e-05 0.0113153 -1.33009e-21)
(-0.000525564 0.0133712 4.25352e-21)
(-0.00093356 0.0166209 -9.67309e-21)
(-0.000224229 0.0184913 2.33565e-21)
(-2.21708e-05 0.0200906 2.63449e-20)
(-0.00126536 0.0294028 -3.06909e-20)
(0.0030017 0.0290255 4.30419e-21)
(0.00346667 0.0276992 -7.32249e-20)
(0.00984972 0.0235323 -1.04472e-20)
(0.0136333 0.0187422 8.5384e-21)
(0.0104901 0.0115802 -5.01384e-21)
(0.00105385 0.00796623 -4.57472e-20)
(-0.00718655 0.0189581 -2.38521e-19)
(0.00479674 0.0377335 4.64321e-19)
(0.0314373 0.0336597 -4.19286e-19)
(0.0414598 0.0151742 -2.09074e-21)
(0.0417319 0.00197583 1.66322e-21)
(0.036689 -0.00822142 -7.369e-21)
(0.0289617 -0.0167083 -1.09101e-20)
(0.0260704 -0.0102215 -6.69267e-21)
(0.0214293 -0.0196701 6.41389e-22)
(0.0194287 -0.0146347 -6.11345e-21)
(0.0162774 -0.0146371 9.14255e-21)
(0.0118861 -0.0151367 -1.19436e-20)
(0.00808093 -0.0148081 1.13748e-20)
(0.00477641 -0.0133508 -6.36538e-21)
(0.00230642 -0.0118423 7.57406e-22)
(0.00093633 -0.010329 0)
(6.64165e-07 -0.00854431 0)
(-0.00075625 -0.00654473 0)
(-0.00146276 -0.00483668 0)
(-0.00186729 -0.00279734 0)
(-0.00224118 -0.000786861 0)
(-0.0041065 0.00010841 0)
(-0.00432069 0.00272158 0)
(-0.00399568 0.00392124 0)
(-0.00391639 0.00574364 0)
(-0.00355307 0.00741814 0)
(-0.00281278 0.00916485 0)
(-0.00219237 0.0112775 5.65442e-23)
(-0.00262297 0.0136802 9.88011e-23)
(-0.00297221 0.0160717 2.94047e-22)
(-0.00314443 0.0197618 -1.94456e-21)
(-0.00367345 0.0233958 1.31352e-23)
(-0.00212937 0.0254126 4.12333e-21)
(0.000209152 0.03191 -3.35969e-21)
(-0.0030671 0.03406 -1.44771e-20)
(0.00883616 0.0314627 -7.28647e-21)
(0.0104214 0.0318837 -5.72396e-20)
(0.0201507 0.0233838 3.36188e-20)
(0.0270896 0.00748589 -3.89817e-21)
(0.0199094 -0.0321264 4.30007e-19)
(0.0764909 0.0108196 -3.15707e-19)
(0.0558619 -0.0110911 -1.1878e-20)
(0.0449806 -0.0191124 -2.33952e-21)
(0.0394562 -0.019925 1.45444e-20)
(0.0360148 -0.0194941 -2.08351e-20)
(0.029461 -0.0220008 -2.85696e-21)
(0.0258475 -0.0194421 1.11991e-20)
(0.0195046 -0.0210407 -5.31649e-21)
(0.0137916 -0.0210749 -2.39339e-21)
(0.00860039 -0.0197543 -3.30918e-22)
(0.00426171 -0.0176827 3.14865e-22)
(0.000850638 -0.0155965 -3.32691e-22)
(-0.0013615 -0.013589 0)
(-0.00251478 -0.0111448 0)
(-0.00319733 -0.00865154 0)
(-0.00359116 -0.00600332 0)
(-0.00408664 -0.00414116 0)
(-0.00412707 -0.00110094 0)
(-0.00592719 0.00164537 0)
(-0.00648115 0.00248057 0)
(-0.00689741 0.00424969 0)
(-0.00684643 0.00616683 0)
(-0.0064915 0.00809136 0)
(-0.00618574 0.0102335 0)
(-0.00630306 0.0126875 9.75916e-22)
(-0.0076789 0.0155745 -2.56737e-21)
(-0.0101127 0.0193431 2.05513e-21)
(-0.0106862 0.0234147 4.43621e-21)
(-0.0133214 0.0288917 8.94242e-21)
(-0.0135142 0.0333351 1.91676e-20)
(-0.0108923 0.038999 -2.04841e-20)
(-0.00787147 0.0431017 -1.1221e-20)
(0.00231266 0.0429965 -1.1019e-21)
(0.0145651 0.0419281 5.81571e-21)
(0.0307025 0.0400606 -1.55701e-21)
(0.0611567 0.0333217 -5.26649e-21)
(0.00259149 -0.0275929 -6.08976e-18)
(-0.0122753 -0.029661 2.46513e-19)
(0.0615719 -0.0376286 2.88972e-23)
(0.0437584 -0.0300255 1.70364e-20)
(0.0372352 -0.0243175 2.5949e-20)
(0.0350204 -0.0295612 1.14537e-20)
(0.0322072 -0.0252271 3.38553e-21)
(0.0237783 -0.0251849 5.99952e-21)
(0.0187293 -0.0273278 -2.35507e-20)
(0.0119426 -0.0268215 7.77543e-21)
(0.0058659 -0.0251016 -3.25599e-21)
(0.000974248 -0.0224794 2.93243e-21)
(-0.00297118 -0.0195419 1.66987e-22)
(-0.00510254 -0.0166852 0)
(-0.00639194 -0.013524 0)
(-0.00718462 -0.010562 0)
(-0.00768812 -0.00779225 0)
(-0.00765586 -0.00471296 0)
(-0.00744786 -0.00208334 0)
(-0.0118814 0.000966221 5.63788e-23)
(-0.010841 0.00201521 0)
(-0.0112555 0.0040305 0)
(-0.0120404 0.0056064 0)
(-0.0127999 0.00757797 0)
(-0.0131406 0.00988223 0)
(-0.0139698 0.012717 -9.64442e-22)
(-0.0179441 0.0158928 4.23598e-21)
(-0.024496 0.0221672 7.96118e-21)
(-0.0295504 0.0263247 -1.20828e-20)
(-0.0308842 0.0327661 3.30914e-20)
(-0.0359099 0.0448797 -3.45188e-20)
(-0.0414098 0.0493355 -1.11769e-20)
(-0.0317966 0.0595469 1.16735e-20)
(-0.0186256 0.0540045 -1.49343e-19)
(0.00167412 0.0651225 2.77495e-20)
(0.0236976 0.0686664 1.80468e-19)
(0.127788 0.0470985 -5.84386e-20)
(0.0907728 -0.00893946 4.88863e-19)
(0.0457583 -0.0211588 -5.39809e-20)
(0.0536176 -0.0533658 4.8149e-20)
(0.026738 -0.0410823 9.55327e-20)
(0.0216011 -0.0225948 -3.7164e-20)
(0.0219571 -0.0316052 -1.74121e-20)
(0.0114216 -0.0319995 3.03097e-20)
(0.0168058 -0.0381671 -4.54822e-20)
(0.0142041 -0.0321505 4.8638e-20)
(0.00413305 -0.0313433 -7.47354e-22)
(-0.00164328 -0.0305133 -2.79558e-20)
(-0.00646811 -0.0266281 1.24586e-20)
(-0.00973501 -0.0229063 -1.53471e-21)
(-0.0123975 -0.0189695 0)
(-0.0128608 -0.0149072 0)
(-0.0128213 -0.0110491 0)
(-0.0125864 -0.00776652 0)
(-0.0123523 -0.00421808 0)
(-0.0124863 -0.00212581 0)
(-0.0151241 0.00094098 6.31782e-24)
(-0.0148438 0.00102867 0)
(-0.016611 0.00272987 0)
(-0.0175108 0.0047961 0)
(-0.01905 0.00707139 0)
(-0.0211998 0.00883409 0)
(-0.0230786 0.00974826 -4.08318e-22)
(-0.0316679 0.0113624 8.05284e-21)
(-0.0421759 0.0146123 -2.26278e-21)
(-0.0506882 0.0237574 -8.4801e-21)
(-0.051784 0.0303963 -4.01638e-20)
(-0.0589103 0.0441128 -5.90532e-20)
(-0.0717722 0.0425064 5.41385e-20)
(-0.0251225 0.0546794 1.8083e-19)
(-0.0288834 0.0814461 4.23703e-19)
(-0.041225 0.0838125 -2.74064e-19)
(0.00944765 0.102468 -2.90467e-19)
(0.242593 0.133158 -4.25604e-19)
(0.207297 -0.0167617 7.79226e-20)
(0.18465 0.146176 2.80966e-19)
(-0.250148 0.126221 1.91347e-20)
(0.119638 -0.10522 2.97203e-19)
(0.32166 0.0480247 2.08224e-19)
(0.0535935 -0.081179 -1.12105e-19)
(0.00800349 -0.0446975 -1.20574e-19)
(0.0408355 -0.0664338 -1.91306e-19)
(0.0197448 -0.0346185 1.34573e-19)
(-0.00344896 -0.0233789 4.38274e-20)
(0.00639169 -0.0344771 -7.25929e-20)
(0.00351128 -0.0292726 -1.45555e-20)
(-0.00698211 -0.03134 -1.58712e-21)
(-0.0128777 -0.0272257 -1.53667e-20)
(-0.0170537 -0.0277149 4.31886e-22)
(-0.0194622 -0.0246953 -2.14703e-21)
(-0.022565 -0.0217613 0)
(-0.0221561 -0.0171102 0)
(-0.0219236 -0.012508 0)
(-0.0215638 -0.00845077 0)
(-0.0201044 -0.00506645 0)
(-0.020784 -0.00284971 0)
(-0.0204066 0.000254638 -2.4143e-21)
(-0.0188185 2.20678e-05 0)
(-0.0195049 -0.000358494 0)
(-0.0213242 0.001289 0)
(-0.0236372 0.00200419 0)
(-0.0237308 0.00292022 0)
(-0.0308361 0.00509644 -1.06618e-22)
(-0.0416288 0.00481305 1.04374e-21)
(-0.0547111 0.0098708 2.15888e-20)
(-0.0668244 0.0170151 1.5883e-20)
(-0.0892782 0.0222915 -3.68687e-20)
(-0.108611 0.00890878 1.36853e-20)
(-0.108337 0.0785966 -3.09763e-21)
(-0.0515739 0.0918494 7.87385e-20)
(-0.0719134 0.0543317 6.0921e-20)
(-0.104275 0.113243 -1.87968e-19)
(0.00709509 0.133531 -3.36414e-19)
(0.466645 -0.144025 -1.60989e-18)
(-1.17709 0.743667 1.40837e-19)
(1.40692 -0.473775 5.91159e-18)
(-0.0115703 0.494568 2.75551e-19)
(2.63649 0.821145 -2.06201e-19)
(-0.610861 -0.653243 -5.82078e-19)
(0.135485 -0.0242331 7.01466e-19)
(0.0189297 -0.0552762 2.75965e-19)
(-0.0240428 0.00325006 -5.50289e-19)
(0.0589918 -0.000633534 4.29076e-19)
(-0.0128946 -0.0516959 8.53431e-20)
(-0.0227232 0.00564893 4.49299e-20)
(-0.015516 -0.0228708 4.02796e-20)
(-0.0157282 -0.0285609 -3.1024e-20)
(-0.0219086 -0.0272601 -3.02812e-20)
(-0.0261047 -0.0261272 6.38065e-21)
(-0.0298618 -0.0248168 8.2115e-23)
(-0.0289352 -0.0199831 0)
(-0.0304754 -0.0158139 0)
(-0.0295783 -0.011691 0)
(-0.0286358 -0.0066513 0)
(-0.0285871 -0.00420184 0)
(-0.0305286 -0.00163552 -3.48769e-21)
(-0.0182957 -0.000691567 -6.96091e-22)
(-0.0214384 -0.000972865 0)
(-0.0225479 -0.0022005 0)
(-0.022973 -0.00188579 0)
(-0.0245047 -0.000764459 0)
(-0.030395 -0.00143104 0)
(-0.0367705 -0.00351448 0)
(-0.0446253 -0.0021235 -1.49923e-21)
(-0.0579362 0.0122343 -9.02272e-21)
(-0.068461 0.0193299 -2.38956e-21)
(-0.0809919 0.0321724 -2.44448e-20)
(-0.0932005 0.0554427 7.88764e-20)
(-0.116316 0.0264406 5.64969e-20)
(-0.164408 0.0599028 -1.43209e-19)
(-0.0956337 0.114365 -1.0693e-19)
(-0.0574092 0.120959 -4.29051e-20)
(-0.141142 0.130656 -4.74842e-19)
(-0.0202445 0.684237 3.85902e-18)
(0.548878 -1.79105 1.86044e-18)
(-3.40072 2.22417 1.66298e-18)
(4.3308 -0.367239 3.0723e-18)
(-3.38808 -1.56565 -2.45248e-18)
(1.04227 1.99438 -1.21235e-18)
(-0.616565 -0.557475 1.60222e-18)
(-0.122724 0.0493725 5.85939e-19)
(0.0430176 -0.097714 -4.29774e-19)
(-0.0539562 -0.0164651 6.98835e-20)
(0.000533086 0.008074 -1.62602e-19)
(0.0205057 -0.0432661 -4.17658e-20)
(0.0114836 -0.0355789 6.86728e-20)
(0.000171164 -0.0338017 -2.57672e-20)
(-0.0163579 -0.0323634 1.58288e-20)
(-0.0297373 -0.0226835 -2.01138e-21)
(-0.0394228 -0.0202941 0)
(-0.0389348 -0.0185842 0)
(-0.0350309 -0.0153746 0)
(-0.0348438 -0.0105839 0)
(-0.0352426 -0.00636601 0)
(-0.0349382 -0.00403981 0)
(-0.0321858 -0.000831352 5.1321e-22)
(-0.0180631 -0.00172326 -9.73243e-22)
(-0.0175886 -0.00243092 0)
(-0.0178695 -0.00509729 0)
(-0.0204102 -0.00766261 0)
(-0.0238869 -0.00847275 0)
(-0.0268239 -0.00982677 0)
(-0.0366112 -0.0139849 0)
(-0.0598484 -0.0177845 0)
(-0.0845986 -0.0150823 -2.25296e-22)
(-0.105001 -0.00219146 3.30693e-21)
(-0.11851 0.019539 -1.57851e-20)
(-0.120139 0.0525309 1.07131e-20)
(-0.10672 0.0714108 7.41855e-20)
(-0.141787 0.0662057 -6.19777e-20)
(-0.181839 0.051317 -2.24099e-19)
(-0.0898863 0.129701 -5.55443e-19)
(-0.00902615 0.000962919 -1.13614e-19)
(-1.1073 0.254653 2.96918e-20)
(2.96609 2.29673 2.83924e-19)
(-0.112553 -4.72884 1.49249e-18)
(-3.50722 1.1287 -2.19839e-18)
(1.5206 4.34502 2.91217e-18)
(2.11782 -2.83624 4.33701e-19)
(0.0268718 -0.00541676 -6.02999e-18)
(0.134405 -0.155599 2.06866e-19)
(-0.0492743 0.0113838 7.73518e-20)
(-0.00227709 -0.0187276 -8.88263e-20)
(0.0371 -0.0402013 1.34746e-19)
(0.0148938 -0.0408594 -3.92456e-20)
(-0.0105002 -0.0263934 -1.43235e-20)
(-0.0256778 -0.0148371 4.9416e-22)
(-0.0375053 -0.00885327 1.29351e-21)
(-0.0426802 -0.0106336 0)
(-0.0409773 -0.0132125 0)
(-0.0405174 -0.0127654 0)
(-0.0399092 -0.0100002 0)
(-0.0373893 -0.00672455 -4.02358e-21)
(-0.0354538 -0.00516903 -5.56434e-21)
(-0.0356629 -0.00377059 -3.31807e-21)
(-0.0359434 0.000234614 0)
(-0.0143401 -0.000571326 0)
(-0.0138938 -0.00504523 0)
(-0.0164446 -0.00635686 0)
(-0.0180321 -0.00908958 0)
(-0.0202891 -0.0127945 0)
(-0.0240824 -0.0154777 0)
(-0.0290138 -0.0118 0)
(-0.0368294 -0.0121504 0)
(-0.0600525 -0.018108 1.32546e-23)
(-0.0939465 -0.0211412 8.72823e-22)
(-0.124912 -0.0163491 -2.7462e-21)
(-0.147544 0.00602596 4.40055e-21)
(-0.150391 0.0525195 -1.01022e-20)
(-0.163831 0.0624416 -1.65286e-20)
(-0.14764 0.149798 -6.09725e-19)
(-0.162439 -0.0188792 -1.76316e-19)
(0.121537 0.171095 1.4375e-19)
(0.888771 -1.2756 4.84048e-19)
(-2.78107 0.172139 -1.94808e-19)
(0.997986 4.17649 2.45943e-18)
(2.89965 -0.707734 1.45572e-19)
(0.731004 -3.62735 -4.27907e-19)
(-2.42414 0.985101 3.54511e-19)
(0.986449 1.21115 -1.92941e-19)
(-0.0972968 0.24148 -3.99222e-19)
(-0.048294 -0.0867982 1.32298e-19)
(0.00700141 -0.0225268 -6.35108e-20)
(0.0154069 -0.0298008 -1.03043e-20)
(0.00148568 -0.00549573 -2.90422e-20)
(-0.00301558 0.00222356 -3.39893e-21)
(-0.00368946 -0.0018809 1.43797e-22)
(-0.00810445 -0.0136517 2.05211e-24)
(-0.0209341 -0.0222085 0)
(-0.0399841 -0.0177274 0)
(-0.0464671 -0.009377 0)
(-0.0452163 -0.00736443 0)
(-0.0433866 -0.00618331 0)
(-0.041793 -0.00432773 0)
(-0.0388531 -0.00135382 0)
(-0.0387467 -0.00132701 5.9759e-22)
(-0.00680101 -0.00247385 0)
(-0.00588135 -0.00687946 0)
(-0.00802064 -0.0129004 0)
(-0.0121992 -0.0180104 0)
(-0.0157434 -0.0222483 0)
(-0.0208128 -0.0264271 0)
(-0.0309348 -0.0277162 0)
(-0.0481216 -0.0220133 0)
(-0.0717596 -0.0145098 0)
(-0.099901 -0.0113305 0)
(-0.125429 -0.0111375 1.31202e-22)
(-0.158865 -0.00414725 -3.84504e-21)
(-0.157019 0.0182681 2.13162e-21)
(-0.163627 0.0566785 -1.04833e-20)
(-0.22894 -0.00976839 -1.34849e-18)
(-0.331085 0.191108 5.10692e-20)
(-0.0674379 1.00648 -1.11646e-18)
(0.866576 0.745743 8.74288e-20)
(0.797818 -1.84138 1.63075e-19)
(-0.696505 -2.21453 -2.78053e-18)
(-0.876556 0.607318 5.07651e-19)
(-0.377039 2.69044 -1.74478e-18)
(1.36321 1.5069 1.91231e-19)
(0.964042 -1.00821 1.01381e-19)
(-0.817958 -0.555869 8.84226e-19)
(-0.0996302 -0.0118992 -8.48899e-20)
(0.0171665 -0.032197 -7.93671e-21)
(0.0129715 -0.0133357 1.85086e-20)
(-0.0073679 -0.00547442 -1.70966e-20)
(0.00135122 -0.0113324 1.69811e-22)
(-0.00724461 -0.0173831 0)
(-0.0191115 -0.019059 0)
(-0.0353225 -0.0112267 0)
(-0.0501544 -0.00259454 0)
(-0.0524851 0.00057906 0)
(-0.0494695 0.0012256 0)
(-0.0456001 0.00203609 0)
(-0.0410439 0.00152132 0)
(-0.0383261 0.000116662 0)
(-0.0387928 0.000406617 0)
(-0.00322384 -0.00240691 0)
(-0.00283135 -0.00602784 0)
(-1.66659e-05 -0.0100163 0)
(5.95672e-05 -0.01665 0)
(-0.0030368 -0.0240567 0)
(-0.00937067 -0.0317817 0)
(-0.0240096 -0.0386904 0)
(-0.04693 -0.0419781 0)
(-0.0679957 -0.039161 0)
(-0.094753 -0.0399344 0)
(-0.130845 -0.0355383 0)
(-0.157604 -0.0296865 4.61603e-22)
(-0.227296 -0.0368324 2.52324e-21)
(-0.237449 -0.0102256 5.59055e-21)
(-0.187155 0.0857595 -4.95508e-19)
(0.327007 0.113449 6.66597e-19)
(-1.19909 -1.10995 -3.35761e-19)
(-0.131937 1.51524 -2.6748e-20)
(0.636173 2.49893 1.38692e-18)
(0.884073 1.21738 -1.23786e-18)
(0.744282 -0.137015 -2.32235e-19)
(0.837602 -1.37139 7.14892e-19)
(0.662163 -2.55294 -1.64707e-19)
(-0.50434 -0.629985 -9.71707e-20)
(0.129912 0.669689 -5.44537e-21)
(0.0289545 -0.088287 -3.80853e-19)
(-0.0496039 0.000184189 5.25741e-20)
(-0.0497728 0.0241551 3.63771e-21)
(0.000201784 0.00700575 -4.43239e-22)
(0.00107205 0.00882782 0)
(-0.00178036 0.00700035 0)
(-0.0178202 0.00514983 0)
(-0.0395363 0.00847566 0)
(-0.0503151 0.00834528 0)
(-0.0492815 0.00582891 0)
(-0.044863 0.00325257 0)
(-0.0409006 0.0012291 0)
(-0.0400928 -0.000464769 0)
(-0.0416557 -7.799e-05 0)
(-0.0414334 0.000340914 0)
(0.0110859 -0.00359552 0)
(0.00664425 -0.0108779 0)
(0.00365507 -0.0166071 0)
(0.00389389 -0.0206164 0)
(0.00399398 -0.0253375 0)
(0.00182778 -0.0313597 0)
(-0.0100222 -0.0392723 0)
(-0.0393299 -0.0511819 0)
(-0.0716129 -0.0548337 0)
(-0.0971779 -0.0567935 0)
(-0.120419 -0.0505703 -1.42879e-20)
(-0.151075 -0.0533343 0)
(-0.164446 -0.0543225 0)
(-0.195344 -0.0477044 -2.22543e-19)
(-0.676756 -0.0896186 -9.5751e-19)
(-0.197049 0.309937 -7.7266e-19)
(1.98007 0.852774 -1.33075e-20)
(-0.452504 -2.63527 1.02842e-20)
(-1.60736 -3.66907 3.82233e-19)
(-1.35925 -2.08068 1.95317e-18)
(-0.7907 1.18829 1.3308e-20)
(-1.45639 3.38549 9.05025e-19)
(-1.00511 3.86217 -2.45171e-20)
(1.32614 0.861907 6.20676e-20)
(1.86309 -1.19008 1.72347e-20)
(-0.449696 0.0508644 -2.04271e-19)
(0.00688199 0.000362626 4.7137e-19)
(0.0171079 0.0128078 0)
(0.00927352 0.0190075 0)
(0.0134696 0.0175477 -1.23385e-20)
(-0.00411354 0.0210829 0)
(-0.0227681 0.0216454 0)
(-0.0357871 0.0191882 0)
(-0.041943 0.0108764 0)
(-0.0450193 0.00784398 0)
(-0.0442513 0.0068475 0)
(-0.0429205 0.00676586 0)
(-0.0418931 0.00674742 6.6221e-22)
(-0.0380851 0.00472496 4.75076e-22)
(-0.0333283 0.00154358 0)
(0.0131213 -0.00147673 0)
(0.0163135 -0.00711791 0)
(0.0164357 -0.0142989 0)
(0.0142974 -0.0223179 0)
(0.0125042 -0.0299718 0)
(0.00878272 -0.0375037 0)
(-0.000996648 -0.0426069 0)
(-0.0213447 -0.0524619 0)
(-0.0538136 -0.0675521 0)
(-0.0903958 -0.0865033 0)
(-0.123915 -0.0999179 6.45591e-20)
(-0.162604 -0.130264 0)
(-0.212119 -0.124315 0)
(-0.179256 -0.225036 -5.26482e-21)
(0.121584 -0.14449 -1.22554e-18)
(-0.733671 -1.29888 -1.05723e-19)
(-1.4881 -1.15016 0)
(-1.5523 0.0471542 1.24643e-19)
(-0.307912 1.08715 5.23252e-19)
(0.697489 -0.057637 -6.81421e-19)
(0.60278 -0.0593738 -1.32309e-18)
(-0.472086 -1.13965 3.39386e-19)
(-1.59032 -0.0362128 2.16957e-19)
(-1.35677 1.16597 0)
(-0.472218 1.18185 -1.23668e-19)
(0.376824 0.100968 -7.45127e-19)
(0.027511 0.146897 -3.89922e-20)
(-0.0362505 0.0647118 0)
(0.00521104 0.0854451 0)
(0.0100174 0.0573644 6.86298e-20)
(0.00443204 0.0475534 0)
(-0.0054206 0.0353524 0)
(-0.020547 0.0238564 0)
(-0.0378976 0.018704 0)
(-0.0432629 0.0178526 0)
(-0.0407362 0.0143298 -1.19803e-21)
(-0.036974 0.0107004 1.55682e-21)
(-0.0333987 0.00620941 0)
(-0.0325393 0.00262639 0)