/*--------------------------------*- C++ -*----------------------------------*\
| =========                 |                                                 |
| \\      /  F ield         | OpenFOAM: The Open Source CFD Toolbox           |
|  \\    /   O peration     | Version:  v2106                                 |
|   \\  /    A nd           | Website:  www.openfoam.com                      |
|    \\/     M anipulation  |                                                 |
\*---------------------------------------------------------------------------*/
FoamFile
{
    version     2.0;
    format      ascii;
    arch        "LSB;label=32;scalar=64";
    class       pointVectorField;
    location    "0";
    object      pointDisplacement;
}
// * * * * * * * * * * * * * * * * * * * * * * * * * * * * * * * * * * * * * //

dimensions      [0 1 0 0 0 0 0];

internalField   nonuniform List<vector> 
24440
(
(0 0 0)
(0 0 0)
(0 0 0)
(0 0 0)
(0 0 0)
(0 0 0)
(0 0 0)
(0 0 0)
(0 0 0)
(0 0 0)
(0 0 0)
(0 0 0)
(0 0 0)
(0 0 0)
(0 0 0)
(0 0 0)
(0 0 0)
(0 0 0)
(0 0 0)
(0 0 0)
(0 0 0)
(0 0 0)
(0 0 0)
(0 0 0)
(0 0 0)
(0 0 0)
(0 0 0)
(0 0 0)
(0 0 0)
(0 0 0)
(0 0 0)
(0 0 0)
(0 0 0)
(0 0 0)
(0 0 0)
(0 0 0)
(0 0 0)
(0 0 0)
(0 0 0)
(0 0 0)
(0 0 0)
(0 0 0)
(0 0 0)
(0 0 0)
(0 0 0)
(0 0 0)
(0 0 0)
(0 0 0)
(0 0 0)
(0 0 0)
(0 0 0)
(0 0 0)
(0 0 0)
(0 0 0)
(0 0 0)
(0 0 0)
(0 0 0)
(0 0 0)
(0 0 0)
(0 0 0)
(0 0 0)
(0 0 0)
(0 0 0)
(0 0 0)
(0 0 0)
(0 0 0)
(0 0 0)
(0 0 0)
(0 0 0)
(0 0 0)
(0 0 0)
(0 0 0)
(0 0 0)
(0 0 0)
(0 0 0)
(0 0 0)
(0 0 0)
(0 0 0)
(0 0 0)
(0 0 0)
(0 0 0)
(0 0 0)
(0 0 0)
(0 0 0)
(0 0 0)
(0 0 0)
(0 0 0)
(0 0 0)
(0 0 0)
(0 0 0)
(0 0 0)
(0 0 0)
(0 0 0)
(0 0 0)
(0 0 0)
(0 0 0)
(0 0 0)
(0 0 0)
(0 -4.21853e-06 0)
(0 -2.66023e-05 0)
(0 -7.31506e-05 0)
(0 -0.000112721 0)
(0 -0.000127908 0)
(0 -0.000112721 0)
(0 -7.31506e-05 0)
(0 -2.66023e-05 0)
(0 -4.21853e-06 0)
(0 0 0)
(0 0 0)
(0 0 0)
(0 0 0)
(0 0 0)
(0 0 0)
(0 0 0)
(0 0 0)
(0 0 0)
(0 0 0)
(0 0 0)
(0 0 0)
(0 0 0)
(0 0 0)
(0 0 0)
(0 0 0)
(0 0 0)
(0 0 0)
(0 0 0)
(0 0 0)
(0 0 0)
(0 0 0)
(0 0 0)
(0 0 0)
(0 0 0)
(0 0 0)
(0 0 0)
(0 0 0)
(0 0 0)
(0 -7.06489e-06 0)
(0 -9.34567e-05 0)
(0 -0.000275036 0)
(0 -0.00049546 0)
(0 -0.000706727 0)
(0 -0.00085401 0)
(0 -0.000990925 0)
(0 -0.0010391 0)
(0 -0.000990925 0)
(0 -0.00085401 0)
(0 -0.000706727 0)
(0 -0.00049546 0)
(0 -0.000275036 0)
(0 -9.34567e-05 0)
(0 -7.06489e-06 0)
(0 0 0)
(0 0 0)
(0 0 0)
(0 0 0)
(0 0 0)
(0 0 0)
(0 0 0)
(0 0 0)
(0 0 0)
(0 0 0)
(0 0 0)
(0 0 0)
(0 0 0)
(0 0 0)
(0 0 0)
(0 0 0)
(0 0 0)
(0 0 0)
(0 0 0)
(0 0 0)
(0 0 0)
(0 0 0)
(0 0 0)
(0 0 0)
(0 -2.96625e-06 0)
(0 -0.000122904 0)
(0 -0.000419143 0)
(0 -0.000826545 0)
(0 -0.00124617 0)
(0 -0.00171431 0)
(0 -0.00211976 0)
(0 -0.00237087 0)
(0 -0.00261098 0)
(0 -0.00269396 0)
(0 -0.00261098 0)
(0 -0.00237087 0)
(0 -0.00211976 0)
(0 -0.00171431 0)
(0 -0.00124617 0)
(0 -0.000826545 0)
(0 -0.000419143 0)
(0 -0.000122904 0)
(0 -2.96625e-06 0)
(0 0 0)
(0 0 0)
(0 0 0)
(0 0 0)
(0 0 0)
(0 0 0)
(0 0 0)
(0 0 0)
(0 0 0)
(0 0 0)
(0 0 0)
(0 0 0)
(0 0 0)
(0 0 0)
(0 0 0)
(0 0 0)
(0 0 0)
(0 0 0)
(0 0 0)
(0 0 0)
(0 0 0)
(0 -2.80473e-05 0)
(0 -0.000291677 0)
(0 -0.000775145 0)
(0 -0.00136 0)
(0 -0.00208616 0)
(0 -0.00281857 0)
(0 -0.00345305 0)
(0 -0.00404741 0)
(0 -0.00446918 0)
(0 -0.00472118 0)
(0 -0.00483685 0)
(0 -0.00472118 0)
(0 -0.00446918 0)
(0 -0.00404741 0)
(0 -0.00345305 0)
(0 -0.00281857 0)
(0 -0.00208616 0)
(0 -0.00136 0)
(0 -0.000775145 0)
(0 -0.000291677 0)
(0 -2.96928e-05 0)
(0 0 0)
(0 0 0)
(0 0 0)
(0 0 0)
(0 0 0)
(0 0 0)
(0 0 0)
(0 0 0)
(0 0 0)
(0 0 0)
(0 0 0)
(0 0 0)
(0 0 0)
(0 0 0)
(0 0 0)
(0 0 0)
(0 0 0)
(0 0 0)
(0 0 0)
(0 -5.51628e-05 0)
(0 -0.000386801 0)
(0 -0.000965407 0)
(0 -0.00177234 0)
(0 -0.00273135 0)
(0 -0.0037279 0)
(0 -0.00464242 0)
(0 -0.0055094 0)
(0 -0.00583517 0)
(0 -0.00618747 0)
(0 -0.00648216 0)
(0 -0.00671433 0)
(0 -0.00688036 0)
(0 -0.00699517 0)
(0 -0.00710123 0)
(0 -0.00713675 0)
(0 -0.00710123 0)
(0 -0.00699517 0)
(0 -0.00688036 0)
(0 -0.00671433 0)
(0 -0.00648216 0)
(0 -0.00618747 0)
(0 -0.00583517 0)
(0 -0.0055094 0)
(0 -0.00464242 0)
(0 -0.0037279 0)
(0 -0.00273135 0)
(0 -0.00177234 0)
(0 -0.000945368 0)
(0 -0.000349514 0)
(0 -4.40787e-05 0)
(0 0 0)
(0 0 0)
(0 0 0)
(0 0 0)
(0 0 0)
(0 0 0)
(0 0 0)
(0 0 0)
(0 0 0)
(0 0 0)
(0 0 0)
(0 0 0)
(0 0 0)
(0 0 0)
(0 0 0)
(0 0 0)
(0 0 0)
(0 -3.24458e-05 0)
(0 -0.000371308 0)
(0 -0.00103453 0)
(0 -0.00194668 0)
(0 -0.00301512 0)
(0 -0.00427221 0)
(0 -0.00487329 0)
(0 -0.00540607 0)
(0 -0.00599575 0)
(0 -0.00654847 0)
(0 -0.00705415 0)
(0 -0.00748376 0)
(0 -0.00652221 0)
(0 -0.00692043 0)
(0 -0.00723471 0)
(0 -0.0075517 0)
(0 -0.00780037 0)
(0 -0.00797758 0)
(0 -0.00808381 0)
(0 -0.0081964 0)
(0 -0.00823405 0)
(0 -0.0081964 0)
(0 -0.00808381 0)
(0 -0.00797758 0)
(0 -0.00780037 0)
(0 -0.0075517 0)
(0 -0.00723471 0)
(0 -0.00692043 0)
(0 -0.00652221 0)
(0 -0.00748376 0)
(0 -0.00705415 0)
(0 -0.00654847 0)
(0 -0.00599575 0)
(0 -0.00540607 0)
(0 -0.00487329 0)
(0 -0.00427221 0)
(0 -0.00301512 0)
(0 -0.00194668 0)
(0 -0.000996794 0)
(0 -0.000355153 0)
(0 -2.94655e-05 0)
(0 0 0)
(0 0 0)
(0 0 0)
(0 0 0)
(0 0 0)
(0 0 0)
(0 0 0)
(0 0 0)
(0 0 0)
(0 0 0)
(0 0 0)
(0 0 0)
(0 0 0)
(0 0 0)
(0 0 0)
(0 0 0)
(0 -0.000205291 0)
(0 -0.000838951 0)
(0 -0.00179356 0)
(0 -0.00299266 0)
(0 -0.00432818 0)
(0 -0.00568522 0)
(0 -0.00500403 0)
(0 -0.00565768 0)
(0 -0.00628665 0)
(0 -0.00687888 0)
(0 -0.00740506 0)
(0 -0.00793868 0)
(0 -0.00841023 0)
(0 -0.00879981 0)
(0 -0.0079069 0)
(0 -0.00826331 0)
(0 -0.00916715 0)
(0 -0.00943165 0)
(0 -0.00854685 0)
(0 -0.00880628 0)
(0 -0.00969473 0)
(0 -0.00987989 0)
(0 -0.00899032 0)
(0 -0.00908359 0)
(0 -0.00998721 0)
(0 -0.0100724 0)
(0 -0.00919969 0)
(0 -0.00923844 0)
(0 -0.0101109 0)
(0 -0.0100724 0)
(0 -0.00919969 0)
(0 -0.00908359 0)
(0 -0.00998721 0)
(0 -0.00987989 0)
(0 -0.00899032 0)
(0 -0.00880628 0)
(0 -0.00969473 0)
(0 -0.00943165 0)
(0 -0.00854685 0)
(0 -0.00826331 0)
(0 -0.00916715 0)
(0 -0.00879981 0)
(0 -0.0079069 0)
(0 -0.00841023 0)
(0 -0.00793868 0)
(0 -0.00740506 0)
(0 -0.00687888 0)
(0 -0.00628665 0)
(0 -0.00565768 0)
(0 -0.00500403 0)
(0 -0.00568522 0)
(0 -0.00432818 0)
(0 -0.00295664 0)
(0 -0.0017794 0)
(0 -0.000838055 0)
(0 -0.000223184 0)
(0 0 0)
(0 0 0)
(0 0 0)
(0 0 0)
(0 0 0)
(0 0 0)
(0 0 0)
(0 0 0)
(0 0 0)
(0 0 0)
(0 0 0)
(0 0 0)
(0 0 0)
(0 0 0)
(0 0 0)
(0 -4.47839e-05 0)
(0 -0.000460097 0)
(0 -0.00132622 0)
(0 -0.00248481 0)
(0 -0.00386216 0)
(0 -0.00544019 0)
(0 -0.00696019 0)
(0 -0.00636866 0)
(0 -0.00705725 0)
(0 -0.00633682 0)
(0 -0.00704554 0)
(0 -0.0077045 0)
(0 -0.0083538 0)
(0 -0.00766927 0)
(0 -0.00823889 0)
(0 -0.00893922 0)
(0 -0.00920616 0)
(0 -0.00945463 0)
(0 -0.00911678 0)
(0 -0.00871973 0)
(0 -0.0092036 0)
(0 -0.00955061 0)
(0 -0.00976498 0)
(0 -0.00941785 0)
(0 -0.00993903 0)
(0 -0.0102682 0)
(0 -0.0104205 0)
(0 -0.0100937 0)
(0 -0.0104344 0)
(0 -0.0107565 0)
(0 -0.0108367 0)
(0 -0.0105336 0)
(0 -0.0107159 0)
(0 -0.011011 0)
(0 -0.011053 0)
(0 -0.0107647 0)
(0 -0.0108172 0)
(0 -0.0110992 0)
(0 -0.0110907 0)
(0 -0.0108082 0)
(0 -0.0107159 0)
(0 -0.011011 0)
(0 -0.0109712 0)
(0 -0.010674 0)
(0 -0.0104344 0)
(0 -0.0107565 0)
(0 -0.0106643 0)
(0 -0.010343 0)
(0 -0.00993903 0)
(0 -0.0102682 0)
(0 -0.0101337 0)
(0 -0.00976442 0)
(0 -0.0092036 0)
(0 -0.00955061 0)
(0 -0.00931678 0)
(0 -0.00897067 0)
(0 -0.00823889 0)
(0 -0.00893922 0)
(0 -0.0083538 0)
(0 -0.00766927 0)
(0 -0.00704554 0)
(0 -0.0077045 0)
(0 -0.00705725 0)
(0 -0.00633682 0)
(0 -0.00636866 0)
(0 -0.00692884 0)
(0 -0.00543643 0)
(0 -0.00392441 0)
(0 -0.00246394 0)
(0 -0.00131331 0)
(0 -0.000483157 0)
(0 -5.12127e-05 0)
(0 0 0)
(0 0 0)
(0 0 0)
(0 0 0)
(0 0 0)
(0 0 0)
(0 0 0)
(0 0 0)
(0 0 0)
(0 0 0)
(0 0 0)
(0 0 0)
(0 0 0)
(0 0 0)
(0 -0.000146523 0)
(0 -0.00074156 0)
(0 -0.00174233 0)
(0 -0.00306151 0)
(0 -0.00458601 0)
(0 -0.00626281 0)
(0 -0.00782776 0)
(0 -0.00744163 0)
(0 -0.00817807 0)
(0 -0.00767687 0)
(0 -0.00834599 0)
(0 -0.00886105 0)
(0 -0.00947788 0)
(0 -0.0089555 0)
(0 -0.00949541 0)
(0 -0.00977508 0)
(0 -0.0100156 0)
(0 -0.00977475 0)
(0 -0.0104544 0)
(0 -0.0105701 0)
(0 -0.0106634 0)
(0 -0.0105488 0)
(0 -0.011067 0)
(0 -0.0111595 0)
(0 -0.0112196 0)
(0 -0.011129 0)
(0 -0.0114296 0)
(0 -0.0114971 0)
(0 -0.0115277 0)
(0 -0.0114597 0)
(0 -0.0115886 0)
(0 -0.011638 0)
(0 -0.0116451 0)
(0 -0.0115971 0)
(0 -0.0116292 0)
(0 -0.0116691 0)
(0 -0.0116684 0)
(0 -0.0116282 0)
(0 -0.0115886 0)
(0 -0.011638 0)
(0 -0.0116283 0)
(0 -0.011577 0)
(0 -0.0114296 0)
(0 -0.0114971 0)
(0 -0.0114714 0)
(0 -0.0113934 0)
(0 -0.011067 0)
(0 -0.0111595 0)
(0 -0.0111072 0)
(0 -0.0109996 0)
(0 -0.0104544 0)
(0 -0.0105701 0)
(0 -0.0106759 0)
(0 -0.0104745 0)
(0 -0.0102492 0)
(0 -0.00949541 0)
(0 -0.00977508 0)
(0 -0.010018 0)
(0 -0.00947788 0)
(0 -0.0089555 0)
(0 -0.00834599 0)
(0 -0.00884081 0)
(0 -0.00817279 0)
(0 -0.00767687 0)
(0 -0.00745053 0)
(0 -0.00785095 0)
(0 -0.00624706 0)
(0 -0.00463169 0)
(0 -0.00309361 0)
(0 -0.00176252 0)
(0 -0.000752141 0)
(0 -0.000150137 0)
(0 0 0)
(0 0 0)
(0 0 0)
(0 0 0)
(0 0 0)
(0 0 0)
(0 0 0)
(0 0 0)
(0 0 0)
(0 0 0)
(0 0 0)
(0 0 0)
(0 0 0)
(0 0 0)
(0 -0.000225934 0)
(0 -0.000921222 0)
(0 -0.00202726 0)
(0 -0.00345064 0)
(0 -0.00507148 0)
(0 -0.00675361 0)
(0 -0.00835621 0)
(0 -0.00815765 0)
(0 -0.00888826 0)
(0 -0.00854908 0)
(0 -0.0092105 0)
(0 -0.00955386 0)
(0 -0.0101414 0)
(0 -0.00985763 0)
(0 -0.0103925 0)
(0 -0.0105246 0)
(0 -0.0107548 0)
(0 -0.0106257 0)
(0 -0.01118 0)
(0 -0.011241 0)
(0 -0.0113099 0)
(0 -0.0112508 0)
(0 -0.0116048 0)
(0 -0.0116343 0)
(0 -0.0116589 0)
(0 -0.0116329 0)
(0 -0.0117065 0)
(0 -0.0117065 0)
(0 -0.0117065 0)
(0 -0.0117065 0)
(0 -0.0117065 0)
(0 -0.0117065 0)
(0 -0.0117065 0)
(0 -0.0117065 0)
(0 -0.0117065 0)
(0 -0.0117065 0)
(0 -0.0117065 0)
(0 -0.0117065 0)
(0 -0.0117065 0)
(0 -0.0117065 0)
(0 -0.0117065 0)
(0 -0.0117065 0)
(0 -0.0117065 0)
(0 -0.0117065 0)
(0 -0.0117065 0)
(0 -0.0117065 0)
(0 -0.0116048 0)
(0 -0.0116343 0)
(0 -0.0116018 0)
(0 -0.011571 0)
(0 -0.01118 0)
(0 -0.011241 0)
(0 -0.0112932 0)
(0 -0.011134 0)
(0 -0.0110199 0)
(0 -0.0103865 0)
(0 -0.01054 0)
(0 -0.0106572 0)
(0 -0.0101274 0)
(0 -0.0098664 0)
(0 -0.00926299 0)
(0 -0.00954199 0)
(0 -0.00887883 0)
(0 -0.00858687 0)
(0 -0.00815073 0)
(0 -0.00836037 0)
(0 -0.00675084 0)
(0 -0.00506342 0)
(0 -0.00343957 0)
(0 -0.00201571 0)
(0 -0.000911672 0)
(0 -0.00022051 0)
(0 0 0)
(0 0 0)
(0 0 0)
(0 0 0)
(0 0 0)
(0 0 0)
(0 0 0)
(0 0 0)
(0 0 0)
(0 0 0)
(0 0 0)
(0 0 0)
(0 0 0)
(0 0 0)
(0 -0.000239541 0)
(0 -0.000950671 0)
(0 -0.00207368 0)
(0 -0.00351419 0)
(0 -0.00515119 0)
(0 -0.00684711 0)
(0 -0.00845949 0)
(0 -0.00846246 0)
(0 -0.00919382 0)
(0 -0.00908543 0)
(0 -0.0097461 0)
(0 -0.00985462 0)
(0 -0.0104309 0)
(0 -0.0103248 0)
(0 -0.0108285 0)
(0 -0.0108772 0)
(0 -0.0110792 0)
(0 -0.0110353 0)
(0 -0.0114911 0)
(0 -0.0115099 0)
(0 -0.0115597 0)
(0 -0.0115424 0)
(0 -0.0117065 0)
(0 -0.0117065 0)
(0 -0.0117065 0)
(0 -0.0117065 0)
(0 -0.0117065 0)
(0 -0.0117065 0)
(0 -0.0117065 0)
(0 -0.0117065 0)
(0 -0.0117065 0)
(0 -0.0117065 0)
(0 -0.0117065 0)
(0 -0.0117065 0)
(0 -0.0117065 0)
(0 -0.0117065 0)
(0 -0.0117065 0)
(0 -0.0117065 0)
(0 -0.0117065 0)
(0 -0.011706 0)
(0 -0.0117043 0)
(0 -0.0114911 0)
(0 -0.0115099 0)
(0 -0.0115223 0)
(0 -0.0114052 0)
(0 -0.0113639 0)
(0 -0.0108279 0)
(0 -0.0108779 0)
(0 -0.0109106 0)
(0 -0.0104309 0)
(0 -0.0103398 0)
(0 -0.00975772 0)
(0 -0.00982979 0)
(0 -0.00916531 0)
(0 -0.00909335 0)
(0 -0.00843089 0)
(0 -0.00844058 0)
(0 -0.00682606 0)
(0 -0.00512981 0)
(0 -0.00349434 0)
(0 -0.00205707 0)
(0 -0.000938757 0)
(0 -0.000233368 0)
(0 0 0)
(0 0 0)
(0 0 0)
(0 0 0)
(0 0 0)
(0 0 0)
(0 0 0)
(0 0 0)
(0 0 0)
(0 0 0)
(0 0 0)
(0 0 0)
(0 0 0)
(0 0 0)
(0 -0.00019576 0)
(0 -0.000855553 0)
(0 -0.0019248 0)
(0 -0.00331228 0)
(0 -0.00490054 0)
(0 -0.00655603 0)
(0 -0.00814093 0)
(0 -0.00836968 0)
(0 -0.00909982 0)
(0 -0.00919142 0)
(0 -0.00985286 0)
(0 -0.00976117 0)
(0 -0.0103402 0)
(0 -0.0104298 0)
(0 -0.0109102 0)
(0 -0.0108845 0)
(0 -0.0110864 0)
(0 -0.0111109 0)
(0 -0.0115428 0)
(0 -0.0115367 0)
(0 -0.0115834 0)
(0 -0.011589 0)
(0 -0.0117065 0)
(0 -0.0117065 0)
(0 -0.0117065 0)
(0 -0.0117065 0)
(0 -0.0117065 0)
(0 -0.0117065 0)
(0 -0.0117065 0)
(0 -0.0117065 0)
(0 -0.0117065 0)
(0 -0.0117065 0)
(0 -0.0117065 0)
(0 -0.0117065 0)
(0 -0.0117065 0)
(0 -0.0117065 0)
(0 -0.0117065 0)
(0 -0.0117065 0)
(0 -0.0115428 0)
(0 -0.0115317 0)
(0 -0.0115256 0)
(0 -0.0114089 0)
(0 -0.0114221 0)
(0 -0.0109001 0)
(0 -0.0108837 0)
(0 -0.010834 0)
(0 -0.0103473 0)
(0 -0.0104171 0)
(0 -0.0098377 0)
(0 -0.00976633 0)
(0 -0.00910291 0)
(0 -0.0091742 0)
(0 -0.00837069 0)
(0 -0.00816163 0)
(0 -0.00657124 0)
(0 -0.00491047 0)
(0 -0.00331775 0)
(0 -0.00192697 0)
(0 -0.000855764 0)
(0 -0.000195333 0)
(0 0 0)
(0 0 0)
(0 0 0)
(0 0 0)
(0 0 0)
(0 0 0)
(0 0 0)
(0 0 0)
(0 0 0)
(0 0 0)
(0 0 0)
(0 0 0)
(0 0 0)
(0 0 0)
(0 -9.90126e-05 0)
(0 -0.000621917 0)
(0 -0.00154689 0)
(0 -0.00279087 0)
(0 -0.00433902 0)
(0 -0.00592209 0)
(0 -0.00746623 0)
(0 -0.00787573 0)
(0 -0.00860774 0)
(0 -0.00886576 0)
(0 -0.00956913 0)
(0 -0.00927942 0)
(0 -0.00987807 0)
(0 -0.0101658 0)
(0 -0.0106725 0)
(0 -0.0105511 0)
(0 -0.0107713 0)
(0 -0.0108892 0)
(0 -0.0113837 0)
(0 -0.0113492 0)
(0 -0.011412 0)
(0 -0.0114489 0)
(0 -0.0116924 0)
(0 -0.0116803 0)
(0 -0.0116947 0)
(0 -0.0117021 0)
(0 -0.0117065 0)
(0 -0.0117065 0)
(0 -0.0117065 0)
(0 -0.0117065 0)
(0 -0.0117065 0)
(0 -0.0117065 0)
(0 -0.0117065 0)
(0 -0.0117065 0)
(0 -0.0116924 0)
(0 -0.0116786 0)
(0 -0.0116596 0)
(0 -0.0116766 0)
(0 -0.0113837 0)
(0 -0.0113492 0)
(0 -0.0113022 0)
(0 -0.0111534 0)
(0 -0.0112453 0)
(0 -0.0106725 0)
(0 -0.0105511 0)
(0 -0.0104132 0)
(0 -0.00987807 0)
(0 -0.0101658 0)
(0 -0.00955129 0)
(0 -0.00927942 0)
(0 -0.00860774 0)
(0 -0.00888903 0)
(0 -0.00787573 0)
(0 -0.00746623 0)
(0 -0.00592209 0)
(0 -0.0042831 0)
(0 -0.0028183 0)
(0 -0.00156488 0)
(0 -0.000631765 0)
(0 -0.00010234 0)
(0 0 0)
(0 0 0)
(0 0 0)
(0 0 0)
(0 0 0)
(0 0 0)
(0 0 0)
(0 0 0)
(0 0 0)
(0 0 0)
(0 0 0)
(0 0 0)
(0 0 0)
(0 0 0)
(0 -1.22513e-05 0)
(0 -0.000363678 0)
(0 -0.00110744 0)
(0 -0.00217768 0)
(0 -0.00347656 0)
(0 -0.00489008 0)
(0 -0.00637334 0)
(0 -0.00693576 0)
(0 -0.00768994 0)
(0 -0.00818447 0)
(0 -0.00888311 0)
(0 -0.00835023 0)
(0 -0.00901149 0)
(0 -0.00949065 0)
(0 -0.0100489 0)
(0 -0.00982505 0)
(0 -0.0100716 0)
(0 -0.0102936 0)
(0 -0.0108927 0)
(0 -0.010793 0)
(0 -0.0108836 0)
(0 -0.0109664 0)
(0 -0.0114221 0)
(0 -0.0113566 0)
(0 -0.0114044 0)
(0 -0.0114675 0)
(0 -0.0116589 0)
(0 -0.0116222 0)
(0 -0.0116383 0)
(0 -0.0116718 0)
(0 -0.0117065 0)
(0 -0.0117 0)
(0 -0.0117025 0)
(0 -0.0117065 0)
(0 -0.0117065 0)
(0 -0.0117065 0)
(0 -0.0117065 0)
(0 -0.0117065 0)
(0 -0.0117065 0)
(0 -0.0117065 0)
(0 -0.0117 0)
(0 -0.0116964 0)
(0 -0.0117061 0)
(0 -0.0117064 0)
(0 -0.0116589 0)
(0 -0.0116222 0)
(0 -0.0116023 0)
(0 -0.0116423 0)
(0 -0.0114221 0)
(0 -0.0113566 0)
(0 -0.0113033 0)
(0 -0.0113712 0)
(0 -0.0109007 0)
(0 -0.0108092 0)
(0 -0.0106992 0)
(0 -0.0105174 0)
(0 -0.0107151 0)
(0 -0.0100213 0)
(0 -0.00981367 0)
(0 -0.00957113 0)
(0 -0.00899911 0)
(0 -0.00949065 0)
(0 -0.00888311 0)
(0 -0.00835023 0)
(0 -0.00768994 0)
(0 -0.00818447 0)
(0 -0.00693576 0)
(0 -0.00637334 0)
(0 -0.00489008 0)
(0 -0.00347656 0)
(0 -0.00217768 0)
(0 -0.00110744 0)
(0 -0.000339239 0)
(0 -1.47161e-05 0)
(0 0 0)
(0 0 0)
(0 0 0)
(0 0 0)
(0 0 0)
(0 0 0)
(0 0 0)
(0 0 0)
(0 0 0)
(0 0 0)
(0 0 0)
(0 0 0)
(0 0 0)
(0 0 0)
(0 0 0)
(0 -0.000111784 0)
(0 -0.000589061 0)
(0 -0.00138593 0)
(0 -0.00241927 0)
(0 -0.00371036 0)
(0 -0.00504528 0)
(0 -0.00567501 0)
(0 -0.0064181 0)
(0 -0.00705354 0)
(0 -0.00774244 0)
(0 -0.00708707 0)
(0 -0.00771254 0)
(0 -0.00838994 0)
(0 -0.0089762 0)
(0 -0.00828353 0)
(0 -0.00876154 0)
(0 -0.00915843 0)
(0 -0.00949205 0)
(0 -0.00924341 0)
(0 -0.00993566 0)
(0 -0.00958881 0)
(0 -0.0098032 0)
(0 -0.0101318 0)
(0 -0.0106229 0)
(0 -0.0103255 0)
(0 -0.0104445 0)
(0 -0.0107527 0)
(0 -0.011058 0)
(0 -0.0107945 0)
(0 -0.0108719 0)
(0 -0.0111311 0)
(0 -0.0112837 0)
(0 -0.0110405 0)
(0 -0.0110835 0)
(0 -0.0113136 0)
(0 -0.0113536 0)
(0 -0.0111291 0)
(0 -0.0111174 0)
(0 -0.0113445 0)
(0 -0.0112837 0)
(0 -0.0110405 0)
(0 -0.0109797 0)
(0 -0.0112368 0)
(0 -0.011058 0)
(0 -0.0107945 0)
(0 -0.0106978 0)
(0 -0.010966 0)
(0 -0.0106229 0)
(0 -0.0103255 0)
(0 -0.0101717 0)
(0 -0.0104724 0)
(0 -0.00993566 0)
(0 -0.00958881 0)
(0 -0.00938748 0)
(0 -0.00972138 0)
(0 -0.0089762 0)
(0 -0.00828353 0)
(0 -0.00771254 0)
(0 -0.00838994 0)
(0 -0.00774244 0)
(0 -0.00708707 0)
(0 -0.0064181 0)
(0 -0.00705354 0)
(0 -0.00567501 0)
(0 -0.00504528 0)
(0 -0.00371036 0)
(0 -0.00241927 0)
(0 -0.00138593 0)
(0 -0.000589061 0)
(0 -0.000111784 0)
(0 0 0)
(0 0 0)
(0 0 0)
(0 0 0)
(0 0 0)
(0 0 0)
(0 0 0)
(0 0 0)
(0 0 0)
(0 0 0)
(0 0 0)
(0 0 0)
(0 0 0)
(0 0 0)
(0 0 0)
(0 0 0)
(0 0 0)
(0 -0.000168454 0)
(0 -0.000695588 0)
(0 -0.00149114 0)
(0 -0.00247779 0)
(0 -0.00355849 0)
(0 -0.0046253 0)
(0 -0.00545317 0)
(0 -0.00633349 0)
(0 -0.00570189 0)
(0 -0.00604563 0)
(0 -0.006928 0)
(0 -0.00745238 0)
(0 -0.00660076 0)
(0 -0.00710849 0)
(0 -0.00798753 0)
(0 -0.00846023 0)
(0 -0.00802281 0)
(0 -0.00819164 0)
(0 -0.00867106 0)
(0 -0.00920901 0)
(0 -0.00877893 0)
(0 -0.00893852 0)
(0 -0.00936984 0)
(0 -0.00973635 0)
(0 -0.00930378 0)
(0 -0.0093751 0)
(0 -0.00981959 0)
(0 -0.0100526 0)
(0 -0.00963717 0)
(0 -0.00968569 0)
(0 -0.0101007 0)
(0 -0.0101573 0)
(0 -0.00974448 0)
(0 -0.0097245 0)
(0 -0.0101391 0)
(0 -0.0100526 0)
(0 -0.00963717 0)
(0 -0.00956923 0)
(0 -0.00998504 0)
(0 -0.00973635 0)
(0 -0.00930378 0)
(0 -0.00920116 0)
(0 -0.00963363 0)
(0 -0.00920901 0)
(0 -0.00877893 0)
(0 -0.00860094 0)
(0 -0.00902921 0)
(0 -0.00846023 0)
(0 -0.00802281 0)
(0 -0.00751726 0)
(0 -0.00710849 0)
(0 -0.00798753 0)
(0 -0.00745238 0)
(0 -0.00660076 0)
(0 -0.00604563 0)
(0 -0.006928 0)
(0 -0.00633349 0)
(0 -0.00545317 0)
(0 -0.0046253 0)
(0 -0.00355849 0)
(0 -0.00570189 0)
(0 -0.00247779 0)
(0 -0.00149114 0)
(0 -0.000695588 0)
(0 -0.000168454 0)
(0 0 0)
(0 0 0)
(0 0 0)
(0 0 0)
(0 0 0)
(0 0 0)
(0 0 0)
(0 0 0)
(0 0 0)
(0 0 0)
(0 0 0)
(0 0 0)
(0 0 0)
(0 0 0)
(0 0 0)
(0 0 0)
(0 0 0)
(0 0 0)
(0 -2.13621e-06 0)
(0 -0.00019137 0)
(0 -0.000648489 0)
(0 -0.00127081 0)
(0 -0.00208004 0)
(0 -0.00294308 0)
(0 -0.00377751 0)
(0 -0.00426463 0)
(0 -0.00516881 0)
(0 -0.00568143 0)
(0 -0.00467525 0)
(0 -0.00513853 0)
(0 -0.00610382 0)
(0 -0.00656694 0)
(0 -0.00606928 0)
(0 -0.00627298 0)
(0 -0.00677871 0)
(0 -0.00732463 0)
(0 -0.00679949 0)
(0 -0.00694439 0)
(0 -0.00747449 0)
(0 -0.00781404 0)
(0 -0.00728818 0)
(0 -0.00740526 0)
(0 -0.00793453 0)
(0 -0.00818698 0)
(0 -0.00765098 0)
(0 -0.00769685 0)
(0 -0.00823404 0)
(0 -0.00829604 0)
(0 -0.00775889 0)
(0 -0.00773364 0)
(0 -0.00827177 0)
(0 -0.00818698 0)
(0 -0.00765098 0)
(0 -0.00758695 0)
(0 -0.00812125 0)
(0 -0.00781404 0)
(0 -0.00728818 0)
(0 -0.00715413 0)
(0 -0.00772279 0)
(0 -0.00732463 0)
(0 -0.00679949 0)
(0 -0.00663885 0)
(0 -0.0071583 0)
(0 -0.00656694 0)
(0 -0.00606928 0)
(0 -0.00556262 0)
(0 -0.00513853 0)
(0 -0.00610382 0)
(0 -0.00568143 0)
(0 -0.00467525 0)
(0 -0.00426463 0)
(0 -0.00516881 0)
(0 -0.00377751 0)
(0 -0.00294308 0)
(0 -0.00208004 0)
(0 -0.00127081 0)
(0 -0.000648489 0)
(0 -0.00019137 0)
(0 -2.13621e-06 0)
(0 0 0)
(0 0 0)
(0 0 0)
(0 0 0)
(0 0 0)
(0 0 0)
(0 0 0)
(0 0 0)
(0 0 0)
(0 0 0)
(0 0 0)
(0 0 0)
(0 0 0)
(0 0 0)
(0 0 0)
(0 0 0)
(0 0 0)
(0 0 0)
(0 0 0)
(0 0 0)
(0 -0.000100501 0)
(0 -0.000418582 0)
(0 -0.000847966 0)
(0 -0.00142781 0)
(0 -0.00211124 0)
(0 -0.0024895 0)
(0 -0.00331724 0)
(0 -0.00375166 0)
(0 -0.00286018 0)
(0 -0.00321397 0)
(0 -0.0041627 0)
(0 -0.00454138 0)
(0 -0.0040366 0)
(0 -0.00420027 0)
(0 -0.00471605 0)
(0 -0.00517084 0)
(0 -0.00462748 0)
(0 -0.00470545 0)
(0 -0.00524109 0)
(0 -0.00563655 0)
(0 -0.00507886 0)
(0 -0.00517654 0)
(0 -0.0057398 0)
(0 -0.00595738 0)
(0 -0.00538263 0)
(0 -0.00542128 0)
(0 -0.00599814 0)
(0 -0.00605753 0)
(0 -0.00547893 0)
(0 -0.0054523 0)
(0 -0.00603086 0)
(0 -0.00595738 0)
(0 -0.00538263 0)
(0 -0.00532878 0)
(0 -0.00590057 0)
(0 -0.00563655 0)
(0 -0.00507886 0)
(0 -0.00496741 0)
(0 -0.00551864 0)
(0 -0.00517084 0)
(0 -0.00462748 0)
(0 -0.00449649 0)
(0 -0.00503156 0)
(0 -0.00454138 0)
(0 -0.0040366 0)
(0 -0.00354228 0)
(0 -0.00321397 0)
(0 -0.0041627 0)
(0 -0.00375166 0)
(0 -0.00286018 0)
(0 -0.0024895 0)
(0 -0.00331724 0)
(0 -0.00211124 0)
(0 -0.00142781 0)
(0 -0.000847966 0)
(0 -0.000418582 0)
(0 -0.000100501 0)
(0 0 0)
(0 0 0)
(0 0 0)
(0 0 0)
(0 0 0)
(0 0 0)
(0 0 0)
(0 0 0)
(0 0 0)
(0 0 0)
(0 0 0)
(0 0 0)
(0 0 0)
(0 0 0)
(0 0 0)
(0 0 0)
(0 0 0)
(0 0 0)
(0 0 0)
(0 0 0)
(0 0 0)
(0 0 0)
(0 0 0)
(0 -8.55842e-06 0)
(0 -0.000145171 0)
(0 -0.000405152 0)
(0 -0.000849922 0)
(0 -0.00108131 0)
(0 -0.0017333 0)
(0 -0.00203692 0)
(0 -0.00131627 0)
(0 -0.00154685 0)
(0 -0.00233001 0)
(0 -0.0026045 0)
(0 -0.00217046 0)
(0 -0.00228592 0)
(0 -0.00273247 0)
(0 -0.00304068 0)
(0 -0.00257342 0)
(0 -0.00268175 0)
(0 -0.00315971 0)
(0 -0.00345968 0)
(0 -0.0029555 0)
(0 -0.00302772 0)
(0 -0.00353862 0)
(0 -0.00370581 0)
(0 -0.00318088 0)
(0 -0.00320972 0)
(0 -0.00373725 0)
(0 -0.00378746 0)
(0 -0.00325679 0)
(0 -0.00323291 0)
(0 -0.00376252 0)
(0 -0.00370581 0)
(0 -0.00318088 0)
(0 -0.00314076 0)
(0 -0.00366204 0)
(0 -0.00345968 0)
(0 -0.0029555 0)
(0 -0.00287341 0)
(0 -0.00336985 0)
(0 -0.00304068 0)
(0 -0.00257342 0)
(0 -0.00245768 0)
(0 -0.00291328 0)
(0 -0.0026045 0)
(0 -0.00217046 0)
(0 -0.00176562 0)
(0 -0.00154685 0)
(0 -0.00233001 0)
(0 -0.00203692 0)
(0 -0.00131627 0)
(0 -0.00108131 0)
(0 -0.0017333 0)
(0 -0.000849922 0)
(0 -0.000405152 0)
(0 -0.000145171 0)
(0 -8.55842e-06 0)
(0 0 0)
(0 0 0)
(0 0 0)
(0 0 0)
(0 0 0)
(0 0 0)
(0 0 0)
(0 0 0)
(0 0 0)
(0 0 0)
(0 0 0)
(0 0 0)
(0 0 0)
(0 0 0)
(0 0 0)
(0 0 0)
(0 0 0)
(0 0 0)
(0 0 0)
(0 0 0)
(0 0 0)
(0 0 0)
(0 0 0)
(0 0 0)
(0 0 0)
(0 0 0)
(0 -1.55139e-06 0)
(0 -0.000116555 0)
(0 -0.000203018 0)
(0 -0.000562947 0)
(0 -0.000729374 0)
(0 -0.000302723 0)
(0 -0.000409347 0)
(0 -0.000897277 0)
(0 -0.00105991 0)
(0 -0.000729599 0)
(0 -0.000804289 0)
(0 -0.00109996 0)
(0 -0.00135056 0)
(0 -0.00101641 0)
(0 -0.0010808 0)
(0 -0.00142595 0)
(0 -0.00161875 0)
(0 -0.00124648 0)
(0 -0.00129084 0)
(0 -0.00167011 0)
(0 -0.00177972 0)
(0 -0.00138579 0)
(0 -0.00140379 0)
(0 -0.00180045 0)
(0 -0.00183651 0)
(0 -0.00143575 0)
(0 -0.00141829 0)
(0 -0.00181714 0)
(0 -0.00177972 0)
(0 -0.00138579 0)
(0 -0.0013608 0)
(0 -0.00175092 0)
(0 -0.00161875 0)
(0 -0.00124648 0)
(0 -0.00119637 0)
(0 -0.0015606 0)
(0 -0.00135056 0)
(0 -0.00101641 0)
(0 -0.000948417 0)
(0 -0.00127063 0)
(0 -0.00105991 0)
(0 -0.000729599 0)
(0 -0.000490625 0)
(0 -0.000409347 0)
(0 -0.000897277 0)
(0 -0.000729374 0)
(0 -0.000302723 0)
(0 -0.000203018 0)
(0 -0.000562947 0)
(0 -0.000116555 0)
(0 -1.55139e-06 0)
(0 0 0)
(0 0 0)
(0 0 0)
(0 0 0)
(0 0 0)
(0 0 0)
(0 0 0)
(0 0 0)
(0 0 0)
(0 0 0)
(0 0 0)
(0 0 0)
(0 0 0)
(0 0 0)
(0 0 0)
(0 0 0)
(0 0 0)
(0 0 0)
(0 0 0)
(0 0 0)
(0 0 0)
(0 0 0)
(0 0 0)
(0 0 0)
(0 0 0)
(0 0 0)
(0 0 0)
(0 0 0)
(0 0 0)
(0 0 0)
(0 0 0)
(0 -5.69765e-05 0)
(0 -2.06077e-05 0)
(0 0 0)
(0 -8.95952e-05 0)
(0 -0.00014968 0)
(0 -4.58245e-06 0)
(0 -2.00297e-05 0)
(0 -0.000215701 0)
(0 -0.0002826 0)
(0 -4.22352e-05 0)
(0 -6.72506e-05 0)
(0 -0.000345813 0)
(0 -0.000401374 0)
(0 -9.16287e-05 0)
(0 -0.000112508 0)
(0 -0.000446007 0)
(0 -0.000477192 0)
(0 -0.000127681 0)
(0 -0.000135649 0)
(0 -0.000493218 0)
(0 -0.000506041 0)
(0 -0.000142455 0)
(0 -0.000135649 0)
(0 -0.000493218 0)
(0 -0.000477192 0)
(0 -0.000127681 0)
(0 -0.000112508 0)
(0 -0.000446007 0)
(0 -0.000401374 0)
(0 -9.16287e-05 0)
(0 -6.72506e-05 0)
(0 -0.000345813 0)
(0 -0.0002826 0)
(0 -4.22352e-05 0)
(0 -2.00297e-05 0)
(0 -0.000215701 0)
(0 -0.00014968 0)
(0 -4.58245e-06 0)
(0 0 0)
(0 -8.95952e-05 0)
(0 -5.69765e-05 0)
(0 0 0)
(0 0 0)
(0 0 0)
(0 -2.06077e-05 0)
(0 0 0)
(0 0 0)
(0 0 0)
(0 0 0)
(0 0 0)
(0 0 0)
(0 0 0)
(0 0 0)
(0 0 0)
(0 0 0)
(0 0 0)
(0 0 0)
(0 0 0)
(0 0 0)
(0 0 0)
(0 0 0)
(0 0 0)
(0 0 0)
(0 0 0)
(0 0 0)
(0 0 0)
(0 0 0)
(0 0 0)
(0 0 0)
(0 0 0)
(0 0 0)
(0 0 0)
(0 0 0)
(0 0 0)
(0 0 0)
(0 0 0)
(0 0 0)
(0 0 0)
(0 0 0)
(0 0 0)
(0 0 0)
(0 0 0)
(0 0 0)
(0 0 0)
(0 0 0)
(0 -4.1182e-07 0)
(0 0 0)
(0 0 0)
(0 -1.58482e-06 0)
(0 -9.42943e-07 0)
(0 0 0)
(0 -4.1182e-07 0)
(0 -9.42943e-07 0)
(0 0 0)
(0 0 0)
(0 0 0)
(0 0 0)
(0 0 0)
(0 0 0)
(0 0 0)
(0 0 0)
(0 0 0)
(0 0 0)
(0 0 0)
(0 0 0)
(0 0 0)
(0 0 0)
(0 0 0)
(0 0 0)
(0 0 0)
(0 0 0)
(0 0 0)
(0 0 0)
(0 0 0)
(0 0 0)
(0 0 0)
(0 0 0)
(0 0 0)
(0 0 0)
(0 0 0)
(0 0 0)
(0 0 0)
(0 0 0)
(0 0 0)
(0 0 0)
(0 0 0)
(0 0 0)
(0 0 0)
(0 0 0)
(0 0 0)
(0 0 0)
(0 0 0)
(0 0 0)
(0 0 0)
(0 0 0)
(0 0 0)
(0 0 0)
(0 0 0)
(0 0 0)
(0 0 0)
(0 0 0)
(0 0 0)
(0 0 0)
(0 0 0)
(0 0 0)
(0 0 0)
(0 0 0)
(0 0 0)
(0 0 0)
(0 0 0)
(0 0 0)
(0 0 0)
(0 0 0)
(0 0 0)
(0 0 0)
(0 0 0)
(0 0 0)
(0 0 0)
(0 0 0)
(0 0 0)
(0 0 0)
(0 0 0)
(0 0 0)
(0 0 0)
(0 0 0)
(0 0 0)
(0 0 0)
(0 0 0)
(0 0 0)
(0 0 0)
(0 0 0)
(0 0 0)
(0 0 0)
(0 0 0)
(0 0 0)
(0 0 0)
(0 0 0)
(0 0 0)
(0 0 0)
(0 0 0)
(0 0 0)
(0 0 0)
(0 0 0)
(0 0 0)
(0 0 0)
(0 0 0)
(0 0 0)
(0 0 0)
(0 0 0)
(0 0 0)
(0 0 0)
(0 0 0)
(0 0 0)
(0 0 0)
(0 0 0)
(0 0 0)
(0 0 0)
(0 0 0)
(0 0 0)
(0 0 0)
(0 0 0)
(0 0 0)
(0 0 0)
(0 0 0)
(0 0 0)
(0 0 0)
(0 0 0)
(0 0 0)
(0 0 0)
(0 0 0)
(0 0 0)
(0 0 0)
(0 0 0)
(0 0 0)
(0 0 0)
(0 0 0)
(0 0 0)
(0 0 0)
(0 0 0)
(0 0 0)
(0 0 0)
(0 0 0)
(0 0 0)
(0 0 0)
(0 0 0)
(0 0 0)
(0 0 0)
(0 0 0)
(0 0 0)
(0 0 0)
(0 0 0)
(0 0 0)
(0 0 0)
(0 0 0)
(0 0 0)
(0 0 0)
(0 0 0)
(0 0 0)
(0 0 0)
(0 0 0)
(0 0 0)
(0 0 0)
(0 0 0)
(0 0 0)
(0 0 0)
(0 0 0)
(0 0 0)
(0 0 0)
(0 0 0)
(0 0 0)
(0 0 0)
(0 0 0)
(0 0 0)
(0 0 0)
(0 0 0)
(0 0 0)
(0 0 0)
(0 0 0)
(0 0 0)
(0 0 0)
(0 0 0)
(0 0 0)
(0 0 0)
(0 0 0)
(0 0 0)
(0 0 0)
(0 0 0)
(0 0 0)
(0 0 0)
(0 0 0)
(0 0 0)
(0 0 0)
(0 0 0)
(0 0 0)
(0 0 0)
(0 0 0)
(0 0 0)
(0 0 0)
(0 0 0)
(0 0 0)
(0 0 0)
(0 0 0)
(0 0 0)
(0 0 0)
(0 0 0)
(0 0 0)
(0 0 0)
(0 0 0)
(0 0 0)
(0 0 0)
(0 0 0)
(0 0 0)
(0 0 0)
(0 0 0)
(0 0 0)
(0 0 0)
(0 0 0)
(0 0 0)
(0 0 0)
(0 0 0)
(0 0 0)
(0 0 0)
(0 0 0)
(0 0 0)
(0 0 0)
(0 0 0)
(0 0 0)
(0 0 0)
(0 0 0)
(0 0 0)
(0 0 0)
(0 0 0)
(0 0 0)
(0 0 0)
(0 0 0)
(0 0 0)
(0 0 0)
(0 0 0)
(0 0 0)
(0 0 0)
(0 0 0)
(0 0 0)
(0 0 0)
(0 0 0)
(0 0 0)
(0 0 0)
(0 0 0)
(0 0 0)
(0 0 0)
(0 0 0)
(0 0 0)
(0 0 0)
(0 0 0)
(0 0 0)
(0 0 0)
(0 0 0)
(0 0 0)
(0 0 0)
(0 0 0)
(0 0 0)
(0 0 0)
(0 0 0)
(0 0 0)
(0 0 0)
(0 0 0)
(0 0 0)
(0 0 0)
(0 0 0)
(0 0 0)
(0 0 0)
(0 0 0)
(0 0 0)
(0 0 0)
(0 0 0)
(0 0 0)
(0 0 0)
(0 0 0)
(0 0 0)
(0 0 0)
(0 0 0)
(0 0 0)
(0 0 0)
(0 0 0)
(0 0 0)
(0 0 0)
(0 0 0)
(0 0 0)
(0 0 0)
(0 0 0)
(0 0 0)
(0 0 0)
(0 0 0)
(0 0 0)
(0 0 0)
(0 0 0)
(0 0 0)
(0 0 0)
(0 0 0)
(0 0 0)
(0 0 0)
(0 0 0)
(0 0 0)
(0 0 0)
(0 0 0)
(0 0 0)
(0 0 0)
(0 0 0)
(0 0 0)
(0 0 0)
(0 0 0)
(0 0 0)
(0 0 0)
(0 0 0)
(0 0 0)
(0 0 0)
(0 0 0)
(0 0 0)
(0 0 0)
(0 0 0)
(0 0 0)
(0 0 0)
(0 0 0)
(0 0 0)
(0 0 0)
(0 0 0)
(0 0 0)
(0 0 0)
(0 0 0)
(0 0 0)
(0 0 0)
(0 0 0)
(0 0 0)
(0 0 0)
(0 0 0)
(0 0 0)
(0 0 0)
(0 0 0)
(0 0 0)
(0 0 0)
(0 0 0)
(0 0 0)
(0 0 0)
(0 0 0)
(0 0 0)
(0 0 0)
(0 0 0)
(0 0 0)
(0 0 0)
(0 0 0)
(0 0 0)
(0 0 0)
(0 0 0)
(0 0 0)
(0 0 0)
(0 0 0)
(0 0 0)
(0 0 0)
(0 0 0)
(0 0 0)
(0 0 0)
(0 0 0)
(0 0 0)
(0 0 0)
(0 0 0)
(0 0 0)
(0 0 0)
(0 0 0)
(0 0 0)
(0 0 0)
(0 0 0)
(0 0 0)
(0 0 0)
(0 0 0)
(0 0 0)
(0 0 0)
(0 0 0)
(0 0 0)
(0 0 0)
(0 0 0)
(0 0 0)
(0 0 0)
(0 0 0)
(0 0 0)
(0 0 0)
(0 0 0)
(0 0 0)
(0 0 0)
(0 0 0)
(0 0 0)
(0 0 0)
(0 0 0)
(0 0 0)
(0 0 0)
(0 0 0)
(0 0 0)
(0 0 0)
(0 0 0)
(0 0 0)
(0 0 0)
(0 0 0)
(0 0 0)
(0 0 0)
(0 0 0)
(0 0 0)
(0 0 0)
(0 0 0)
(0 0 0)
(0 0 0)
(0 0 0)
(0 0 0)
(0 0 0)
(0 0 0)
(0 0 0)
(0 0 0)
(0 0 0)
(0 0 0)
(0 0 0)
(0 0 0)
(0 0 0)
(0 0 0)
(0 0 0)
(0 0 0)
(0 0 0)
(0 0 0)
(0 0 0)
(0 0 0)
(0 0 0)
(0 0 0)
(0 0 0)
(0 0 0)
(0 0 0)
(0 0 0)
(0 0 0)
(0 0 0)
(0 0 0)
(0 0 0)
(0 0 0)
(0 0 0)
(0 0 0)
(0 0 0)
(0 0 0)
(0 0 0)
(0 0 0)
(0 0 0)
(0 0 0)
(0 0 0)
(0 0 0)
(0 0 0)
(0 0 0)
(0 0 0)
(0 0 0)
(0 0 0)
(0 0 0)
(0 0 0)
(0 0 0)
(0 0 0)
(0 0 0)
(0 0 0)
(0 0 0)
(0 0 0)
(0 0 0)
(0 0 0)
(0 0 0)
(0 0 0)
(0 0 0)
(0 0 0)
(0 0 0)
(0 0 0)
(0 0 0)
(0 0 0)
(0 0 0)
(0 0 0)
(0 0 0)
(0 0 0)
(0 0 0)
(0 0 0)
(0 0 0)
(0 0 0)
(0 0 0)
(0 0 0)
(0 0 0)
(0 0 0)
(0 0 0)
(0 0 0)
(0 0 0)
(0 0 0)
(0 0 0)
(0 0 0)
(0 0 0)
(0 0 0)
(0 0 0)
(0 0 0)
(0 0 0)
(0 0 0)
(0 0 0)
(0 0 0)
(0 0 0)
(0 0 0)
(0 0 0)
(0 0 0)
(0 0 0)
(0 0 0)
(0 0 0)
(0 0 0)
(0 0 0)
(0 0 0)
(0 0 0)
(0 0 0)
(0 0 0)
(0 0 0)
(0 0 0)
(0 0 0)
(0 0 0)
(0 0 0)
(0 0 0)
(0 0 0)
(0 0 0)
(0 0 0)
(0 0 0)
(0 0 0)
(0 0 0)
(0 0 0)
(0 0 0)
(0 0 0)
(0 0 0)
(0 0 0)
(0 0 0)
(0 0 0)
(0 0 0)
(0 0 0)
(0 0 0)
(0 0 0)
(0 0 0)
(0 0 0)
(0 0 0)
(0 0 0)
(0 0 0)
(0 0 0)
(0 0 0)
(0 0 0)
(0 0 0)
(0 0 0)
(0 0 0)
(0 0 0)
(0 0 0)
(0 0 0)
(0 0 0)
(0 0 0)
(0 0 0)
(0 0 0)
(0 0 0)
(0 0 0)
(0 0 0)
(0 0 0)
(0 0 0)
(0 0 0)
(0 0 0)
(0 0 0)
(0 0 0)
(0 0 0)
(0 0 0)
(0 0 0)
(0 0 0)
(0 0 0)
(0 0 0)
(0 0 0)
(0 0 0)
(0 0 0)
(0 0 0)
(0 0 0)
(0 0 0)
(0 0 0)
(0 0 0)
(0 0 0)
(0 0 0)
(0 0 0)
(0 0 0)
(0 0 0)
(0 0 0)
(0 0 0)
(0 0 0)
(0 0 0)
(0 0 0)
(0 0 0)
(0 0 0)
(0 0 0)
(0 0 0)
(0 0 0)
(0 0 0)
(0 0 0)
(0 0 0)
(0 0 0)
(0 0 0)
(0 0 0)
(0 0 0)
(0 0 0)
(0 0 0)
(0 0 0)
(0 0 0)
(0 0 0)
(0 0 0)
(0 0 0)
(0 0 0)
(0 0 0)
(0 0 0)
(0 0 0)
(0 0 0)
(0 0 0)
(0 0 0)
(0 0 0)
(0 0 0)
(0 0 0)
(0 0 0)
(0 0 0)
(0 0 0)
(0 0 0)
(0 0 0)
(0 0 0)
(0 0 0)
(0 0 0)
(0 0 0)
(0 0 0)
(0 0 0)
(0 0 0)
(0 0 0)
(0 0 0)
(0 0 0)
(0 0 0)
(0 0 0)
(0 0 0)
(0 0 0)
(0 0 0)
(0 0 0)
(0 0 0)
(0 0 0)
(0 0 0)
(0 0 0)
(0 0 0)
(0 0 0)
(0 0 0)
(0 0 0)
(0 0 0)
(0 0 0)
(0 0 0)
(0 0 0)
(0 0 0)
(0 0 0)
(0 0 0)
(0 0 0)
(0 0 0)
(0 0 0)
(0 0 0)
(0 0 0)
(0 0 0)
(0 0 0)
(0 0 0)
(0 0 0)
(0 0 0)
(0 0 0)
(0 0 0)
(0 0 0)
(0 0 0)
(0 0 0)
(0 0 0)
(0 0 0)
(0 0 0)
(0 0 0)
(0 0 0)
(0 0 0)
(0 0 0)
(0 0 0)
(0 0 0)
(0 0 0)
(0 0 0)
(0 0 0)
(0 0 0)
(0 0 0)
(0 0 0)
(0 0 0)
(0 0 0)
(0 0 0)
(0 0 0)
(0 0 0)
(0 0 0)
(0 0 0)
(0 0 0)
(0 0 0)
(0 0 0)
(0 0 0)
(0 0 0)
(0 0 0)
(0 0 0)
(0 0 0)
(0 0 0)
(0 0 0)
(0 0 0)
(0 0 0)
(0 0 0)
(0 0 0)
(0 0 0)
(0 0 0)
(0 0 0)
(0 0 0)
(0 0 0)
(0 0 0)
(0 0 0)
(0 0 0)
(0 0 0)
(0 0 0)
(0 0 0)
(0 0 0)
(0 0 0)
(0 0 0)
(0 0 0)
(0 0 0)
(0 0 0)
(0 0 0)
(0 0 0)
(0 0 0)
(0 0 0)
(0 0 0)
(0 0 0)
(0 0 0)
(0 0 0)
(0 0 0)
(0 0 0)
(0 0 0)
(0 0 0)
(0 0 0)
(0 0 0)
(0 0 0)
(0 0 0)
(0 0 0)
(0 0 0)
(0 0 0)
(0 0 0)
(0 0 0)
(0 0 0)
(0 0 0)
(0 0 0)
(0 0 0)
(0 0 0)
(0 0 0)
(0 0 0)
(0 0 0)
(0 0 0)
(0 0 0)
(0 0 0)
(0 0 0)
(0 0 0)
(0 0 0)
(0 0 0)
(0 0 0)