/*--------------------------------*- C++ -*----------------------------------*\
| =========                 |                                                 |
| \\      /  F ield         | OpenFOAM: The Open Source CFD Toolbox           |
|  \\    /   O peration     | Version:  v2106                                 |
|   \\  /    A nd           | Website:  www.openfoam.com                      |
|    \\/     M anipulation  |                                                 |
\*---------------------------------------------------------------------------*/
FoamFile
{
    version     2.0;
    format      ascii;
    arch        "LSB;label=32;scalar=64";
    class       volScalarField;
    location    "0";
    object      p;
}
// * * * * * * * * * * * * * * * * * * * * * * * * * * * * * * * * * * * * * //

dimensions      [0 2 -2 0 0 0 0];

internalField   nonuniform List<scalar> 
11644
(
0.0674209
0.0668867
0.0658179
0.0642651
0.0619921
0.0589149
0.055089
0.0503601
0.0447519
0.0384752
0.0317871
0.0250829
0.0187512
0.0133777
0.0087088
0.00395013
-0.000610453
-0.00494077
-0.013261
-0.0200644
-0.0279867
-0.0363756
-0.0456429
-0.0526573
-0.0579393
-0.0610572
-0.0612038
-0.0593191
-0.0557103
-0.0509344
-0.0454658
-0.0396219
-0.0337487
-0.0281545
-0.0232259
-0.0190112
-0.0155294
-0.012855
-0.0110042
-0.01011
0.0694872
0.0691719
0.0681132
0.0663239
0.0639604
0.0610425
0.0573439
0.0529047
0.0477211
0.0419517
0.0355358
0.0286479
0.0217009
0.0141837
0.00738487
0.0015434
-0.00415104
-0.00846078
-0.0169433
-0.0272208
-0.0390398
-0.0414239
-0.0489847
-0.0567913
-0.061664
-0.0635719
-0.0632481
-0.0604428
-0.055713
-0.0498887
-0.043654
-0.0373676
-0.0313249
-0.0258085
-0.0208153
-0.0164186
-0.012837
-0.0100797
-0.00829035
-0.00754275
0.0697307
0.0698206
0.0694192
0.0683331
0.0665782
0.0643128
0.0614908
0.0580739
0.0540403
0.0491543
0.0433387
0.0363644
0.0280418
0.0195634
0.0108942
0.00281541
-0.00506845
-0.01487
-0.0244612
-0.0314719
-0.0401798
-0.0457863
-0.0534573
-0.0604038
-0.0649604
-0.0658632
-0.0631339
-0.0588759
-0.0532245
-0.0465932
-0.0396321
-0.0329913
-0.026922
-0.0214663
-0.0166308
-0.0126108
-0.00937417
-0.00700162
-0.00565168
-0.00523741
0.0698122
0.0696724
0.0695643
0.0693133
0.0687962
0.0678247
0.0664228
0.0645356
0.0620433
0.0586737
0.053838
0.0466352
0.0380063
0.0263436
0.0141493
0.00343114
-0.0079765
-0.0214559
-0.0337256
-0.0389477
-0.0431862
-0.0593017
-0.0637912
-0.0644936
-0.065667
-0.0641421
-0.0607888
-0.0544788
-0.0473487
-0.0402948
-0.0334838
-0.0269385
-0.0210531
-0.0159692
-0.0116617
-0.00819208
-0.00557644
-0.00379276
-0.00269908
-0.0022603
0.0697652
0.069878
0.069886
0.070003
0.0703433
0.070614
0.070742
0.0705821
0.0699282
0.0683817
0.065463
0.0603436
0.0511668
0.0389521
0.0225628
0.00646948
-0.0057554
-0.0295283
-0.0481793
-0.059613
-0.0601535
-0.0822464
-0.0733675
-0.0626333
-0.0600556
-0.0550048
-0.0489346
-0.043564
-0.0372281
-0.030832
-0.0248827
-0.0191379
-0.0139131
-0.00947252
-0.00585986
-0.00299714
-0.000896014
0.000651668
0.00176515
0.00257279
0.0696638
0.0695552
0.0696193
0.0702609
0.071119
0.072202
0.0735493
0.0749542
0.076136
0.0769324
0.0763503
0.0727126
0.0658054
0.0506993
0.0271435
6.59443e-05
-0.0189345
-0.0527309
-0.0770051
-0.090032
-0.0934604
-0.0912512
-0.0787622
-0.0557212
-0.0405921
-0.0341184
-0.029259
-0.0246098
-0.0230467
-0.0199999
-0.0154217
-0.0107964
-0.00660271
-0.00285639
0.000208927
0.00268285
0.00472237
0.00628744
0.00751172
0.00799678
0.0683965
0.0682961
0.0683836
0.0686401
0.0692976
0.0707479
0.0728072
0.0755682
0.0785633
0.0802938
0.0789582
0.0739938
0.0670333
0.0629192
0.0449788
0.0103016
-0.0364229
-0.0509099
-0.0666642
-0.080226
-0.0992028
-0.0814893
-0.0616963
-0.0407887
-0.00589932
0.00714488
0.00743238
-0.000818649
-0.00705571
-0.00886593
-0.00724605
-0.00354006
0.000139874
0.00343579
0.00623305
0.00833458
0.00995584
0.011064
0.0118766
0.012381
0.0635893
0.0639028
0.0643916
0.064621
0.0653859
0.0664754
0.0682784
0.0708605
0.0737583
0.0741744
0.069911
0.0626741
0.054846
0.0542419
0.0311324
0.0198554
-0.0266071
-0.0632371
-0.087122
-0.0999763
-0.0933269
-0.0708981
-0.0427491
-0.0228822
-0.000972023
0.025332
0.015861
0.0168502
0.00607533
0.00131705
-0.000110656
0.0017528
0.00496027
0.00790733
0.0103655
0.0123622
0.0138975
0.0154248
0.0162171
0.0170274
0.0592389
0.0588219
0.057874
0.0579163
0.0582043
0.0583759
0.0589263
0.0598327
0.0598471
0.0559278
0.0483302
0.0379717
0.0244603
0.0169689
-0.00328097
-0.0391422
-0.0406842
-0.0835252
-0.135368
-0.144256
-0.121646
-0.0928904
-0.0457614
-0.0168387
0.0202549
0.00468248
0.0113896
0.00729338
0.00577045
0.00629309
0.00470727
0.00506643
0.00807818
0.0111023
0.0137841
0.0162318
0.0180843
0.0192947
0.020482
0.0202081
0.0555741
0.0545149
0.0532268
0.0518465
0.0497569
0.0481376
0.0460892
0.0435324
0.0394049
0.0310342
0.0177072
0.00636622
-0.00146278
-0.00436599
-0.0182919
-0.0556822
-0.0893236
-0.13386
-0.180099
-0.216456
-0.185108
-0.101392
-0.0270155
0.00577416
0.0177946
0.0185508
0.0170103
0.0035794
0.00166606
0.00347776
0.00553874
0.00821492
0.0114501
0.0145777
0.0176435
0.0199146
0.0216164
0.0224129
0.0235414
0.0247959
0.0500223
0.0484075
0.048039
0.0458764
0.0432666
0.0399211
0.0357495
0.029919
0.0213141
0.0125741
0.0020217
-0.0112687
-0.015752
-0.00205735
-0.0298769
-0.0200119
-0.0504064
-0.107115
-0.214242
-0.358115
-0.287693
-0.0109546
0.089029
0.080048
0.0595245
0.0264612
-0.00281367
0.00600608
-0.0034834
0.000883783
0.00866382
0.0134969
0.0169312
0.0204026
0.0233219
0.0251067
0.0262257
0.027758
0.0280925
0.0293128
0.0455422
0.0452629
0.042539
0.0406499
0.0381494
0.0338933
0.0293113
0.0240915
0.0163197
0.0091795
0.00559819
-0.00243717
-0.0112098
-0.0125575
-0.00822844
0.00164341
0.0140611
0.0407916
0.0871559
0.393603
0.157578
0.0518276
-0.00155125
-0.0280361
-0.012856
-0.00313826
0.0133824
0.0223968
0.0273148
0.030619
0.0326614
0.0336277
0.0339925
0.0335463
0.0330886
0.0330271
0.0310706
0.0429621
0.0429061
0.0428153
0.0421013
0.039878
0.0363568
0.0322907
0.0296323
0.0281857
0.0284576
0.0302531
0.0420279
0.0441256
0.0655171
0.104555
0.113939
0.13754
0.203327
0.289262
0.10612
0.127545
0.0589722
0.0133429
0.00909475
0.0014174
0.0270762
0.0479189
0.0522121
0.0538405
0.0532341
0.0502052
0.0463988
0.0433402
0.0414166
0.0395098
0.0389282
0.0388857
0.0413324
0.0416552
0.0458652
0.0469318
0.0473331
0.04569
0.0421463
0.0447576
0.0470824
0.0654566
0.0646521
0.0839851
0.116783
0.151854
0.215916
0.230042
0.22863
0.261662
0.234891
0.0162922
0.0973597
0.0417379
0.0276296
0.0612402
0.0611465
0.0995548
0.103865
0.0941996
0.0903719
0.0811001
0.0704178
0.0621002
0.0563324
0.0536055
0.0519815
0.0495032
0.0500359
0.0453069
0.0507938
0.0542571
0.0549855
0.057805
0.059945
0.0586375
0.0577339
0.0689737
0.102992
0.120805
0.170182
0.1928
0.197597
0.175764
0.193449
0.273179
0.430505
0.0789658
-0.454521
0.215331
0.365724
0.135541
0.0826493
-0.023883
0.0575614
0.0750284
0.108318
0.0886409
0.0842316
0.141109
0.12061
0.108751
0.0845921
0.0729162
0.0694449
0.0665167
0.0642169
0.059765
0.0547241
0.0676276
0.066416
0.0677818
0.0707248
0.0748955
0.0772253
0.0739513
0.0758984
0.0911527
0.102057
0.106568
0.126637
0.193778
0.156499
0.17779
0.158954
0.206648
0.290186
0.127956
-0.398647
-0.121816
0.300772
0.00700994
-0.14687
-0.144752
0.0999322
0.0718147
0.103616
0.175617
0.145769
0.115228
0.106633
0.107143
0.0874967
0.0725155
0.0652502
0.0603898
0.0574387
0.057034
0.0544974
0.0975151
0.0853161
0.0837547
0.0865826
0.0886017
0.0872904
0.0787148
0.0735846
0.0968301
0.103653
0.102999
0.144728
0.111242
-0.0433475
0.352431
0.125563
-0.0798479
-0.0877776
0.554871
1.38998
-0.538237
-0.726351
-1.12122
-0.222365
-0.0511748
-0.0372607
0.0786328
0.154629
0.108624
0.131512
0.114332
0.104125
0.104936
0.0862926
0.0745686
0.0660427
0.0596059
0.0556146
0.0523632
0.0534453
0.0954983
0.0991126
0.0979635
0.0945778
0.087279
0.084709
0.093545
0.0869133
0.0649565
0.0977496
0.133243
0.120284
0.235295
-0.0098527
0.185597
-0.111617
-0.374355
-0.156437
-0.715329
0.265725
-0.613706
-2.13426
0.362543
0.7055
-0.0944679
0.0242446
0.0513356
0.00342839
0.0183938
0.0547809
0.100619
0.121119
0.0888447
0.0822474
0.0829828
0.0803161
0.0736164
0.0677362
0.0650864
0.0744065
0.0884337
0.0958332
0.0936167
0.0883767
0.0840526
0.0882637
0.093448
0.104023
0.0898237
0.0585875
0.0417542
0.0525329
0.0910423
0.134774
-0.103425
-0.0986923
-0.379636
-0.125621
-0.698593
-1.30484
-0.73772
-0.0233993
0.169322
-0.562738
0.12516
-0.079907
-0.105403
0.00156933
0.0158573
0.0806292
0.104759
0.0943973
0.0844141
0.0857074
0.0842004
0.088676
0.0878104
0.0844333
0.082089
0.0835322
0.0998768
0.101808
0.101658
0.0976479
0.0962848
0.0902598
0.0929415
0.0962177
0.100694
0.076461
0.042776
-0.152809
0.26329
-0.00642949
0.104994
-0.0420722
0.270394
-0.864514
-0.419398
-0.705604
-0.495991
-0.605657
-0.299395
1.27949
-0.312123
-0.142508
-0.0129394
0.0222558
-0.0261736
0.0536139
0.0646552
0.0676434
0.0798197
0.0841706
0.0825651
0.0864026
0.0863041
0.0859288
0.0853405
0.0837878
0.107912
0.104442
0.106228
0.109982
0.110106
0.106086
0.0987701
0.0870061
0.0897816
0.0799439
0.0395339
0.153022
0.0991395
0.192066
0.0860209
0.0377643
-0.0556204
0.44619
-0.301533
-0.833349
-0.524623
0.522616
1.06658
-1.01742
0.273112
-0.0800203
-0.177729
-0.033697
-0.0722385
0.0192305
0.035259
0.0532634
0.0675606
0.0773943
0.0800461
0.0800439
0.083452
0.085816
0.0835583
0.0796174
0.118719
0.117767
0.114321
0.111605
0.110034
0.108935
0.109902
0.103637
0.117624
0.117471
0.146017
0.199737
0.294889
0.526707
-0.216144
0.427871
0.11368
-1.8201
0.271957
0.846334
-1.29164
-1.45843
0.991977
1.08441
-0.521232
0.131677
-0.337882
-0.132984
-0.0465469
3.4672e-07
0.0248638
0.0381637
0.0506082
0.0687417
0.0766995
0.0788546
0.0802188
0.0791653
0.0791332
0.0793094
0.111594
0.117493
0.122186
0.123444
0.124995
0.110145
0.114916
0.126965
0.140727
0.148097
0.163279
0.177992
0.151511
0.233851
1.71945
0.700981
0.986937
0.000258501
1.1853
5.67944
-5.23079
-0.410406
1.33042
0.140219
0.0257919
-0.754723
-0.367408
0.175486
0.0761369
0.0298734
0.0288196
0.0346809
0.0556302
0.0635931
0.0702207
0.0732234
0.0760728
0.0791619
0.0850785
0.0815794
0.115195
0.110482
0.113068
0.118155
0.123723
0.122678
0.123435
0.134838
0.13884
0.158375
0.182172
0.238891
0.21711
0.183803
-0.352487
0.497308
2.06598
1.85519
0.116745
-1.61382
1.49453
0.576838
-0.401427
-0.537616
0.0890117
0.315732
0.056366
0.0625823
0.0596928
0.0551412
0.0463683
0.0506221
0.0659558
0.07028
0.0684983
0.0759451
0.0810254
0.0849046
0.0860294
0.0851892
0.121961
0.122758
0.122641
0.12442
0.128506
0.129414
0.140555
0.155784
0.124032
0.14284
0.132228
0.108349
0.0975666
0.327689
0.933725
0.0376406
-0.555758
-0.855399
-0.317318
0.723055
0.187123
0.932795
1.34596
0.624535
0.304183
0.0149296
0.143317
0.158184
0.139223
0.124204
0.0708781
0.0656489
0.0777827
0.079342
0.0797025
0.0822061
0.0838699
0.084395
0.0845398
0.0873533
0.122131
0.124124
0.128448
0.132194
0.137067
0.139917
0.147533
0.155023
0.158423
0.180864
0.218553
0.184851
0.263914
-0.0177516
-0.0291542
0.585167
0.567874
0.511598
-1.70472
-2.5396
0.0579468
0.212748
0.971714
1.0067
0.774437
0.609963
0.229597
0.148026
0.0428679
0.0911374
0.0791245
0.0873783
0.0833354
0.0856663
0.0865902
0.0870804
0.090417
0.0924872
0.0947275
0.0959469
0.117651
0.116602
0.121067
0.128209
0.13301
0.145229
0.161064
0.161598
0.175555
0.216409
0.217768
0.264696
0.282377
0.714674
0.385306
-0.228438
-1.14278
-0.890425
-1.41616
-0.88677
0.0583594
-0.0123597
1.68213
1.17337
0.193342
-0.0702193
0.032208
0.128372
0.061425
0.0734902
0.0539485
0.0902564
0.0862989
0.0931009
0.0954529
0.100324
0.104043
0.105803
0.104945
0.106231
0.116091
0.116617
0.119842
0.125064
0.135629
0.148187
0.164536
0.186277
0.217701
0.248293
0.283164
0.257069
0.2688
-0.000755585
0.301042
0.668874
0.483964
0.0811125
-0.551143
-1.32143
0.721339
-0.301927
-0.104946
0.0497865
-0.0364507
0.226338
0.190231
-0.0778397
0.0170947
0.0166495
0.0424305
0.06631
0.082844
0.0872167
0.0883774
0.104245
0.108613
0.107675
0.109402
0.107804
0.109497
0.107662
0.112794
0.120221
0.131157
0.141927
0.159585
0.182873
0.226538
0.216619
0.283507
0.251093
0.363571
0.59131
0.492126
0.346766
-0.142875
-0.0145781
0.431868
0.839089
-2.07717
-1.0402
-0.0869149
0.127327
-0.526834
-0.51718
-0.413217
-0.0493579
0.0391217
-0.0137421
0.0535495
0.0705341
0.0890952
0.100837
0.102328
0.105735
0.109383
0.110832
0.110913
0.1065
0.0873172
0.100069
0.101461
0.104442
0.111635
0.122545
0.14236
0.151103
0.158789
0.158604
0.121714
0.32109
0.315936
0.225419
0.455675
0.430639
0.414754
0.186234
0.514241
0.108282
-1.68417
-2.04508
-0.821192
-0.76507
-0.327518
-0.0401097
0.0602558
-0.0632471
0.0394185
0.0799764
0.0962951
0.096368
0.0966446
0.111868
0.113173
0.113944
0.114445
0.11418
0.113779
0.119875
0.0771799
0.0741836
0.078784
0.0844543
0.0894664
0.0961518
0.104635
0.113401
0.126791
0.142103
0.147517
0.17899
0.176482
0.0895547
0.233253
0.27451
0.197186
-0.147645
0.0238881
-0.131793
-0.74024
-0.755703
-0.482218
-0.309887
-0.377521
-0.439091
-0.205583
0.106097
0.133492
0.134682
0.133374
0.120869
0.115226
0.127657
0.127105
0.127631
0.127844
0.128081
0.129463
0.125953
0.0469081
0.056609
0.0561386
0.0560901
0.0571543
0.0584637
0.0627188
0.0600059
0.0568834
0.0598288
0.0291539
0.0520768
0.0823637
-0.0610568
-0.272676
-0.314457
-0.196419
-0.167091
0.470951
0.795061
-1.10229
-0.985891
-0.880589
-0.634918
-0.0210014
0.294386
0.307739
0.125907
0.224561
0.2292
0.168511
0.139152
0.12692
0.134716
0.138277
0.140833
0.141163
0.137498
0.136064
0.13741
0.0263008
0.0238286
0.0253531
0.0257993
0.0251561
0.0210313
0.016264
0.00640833
-0.00834438
-0.0146474
-0.0721637
-0.158892
-0.248749
-0.240096
-0.239633
-0.386271
-0.489413
-0.452739
-0.254817
-0.213293
0.932438
0.330042
-0.180961
0.186181
0.178379
0.0220563
0.0336166
0.247917
0.27808
0.277023
0.183795
0.156822
0.154178
0.151511
0.149034
0.148216
0.1489
0.149309
0.148867
0.145951
0.010155
0.00850298
0.00598128
0.00123566
-0.00378093
-0.014837
-0.02212
-0.033714
-0.0457477
-0.0726056
-0.166856
-0.176646
-0.297023
-0.380871
-0.563983
-0.583935
-0.548745
-0.455675
-0.22149
-0.020269
0.265878
0.444391
0.342932
0.181107
0.368744
0.533956
0.485418
0.301358
0.232896
0.227532
0.215069
0.184456
0.174874
0.171531
0.161711
0.159386
0.15531
0.153734
0.1511
0.15512
-0.0120987
-0.0127416
-0.0151771
-0.0185903
-0.0266091
-0.0385509
-0.0520396
-0.066696
-0.0535228
-0.0628441
-0.108526
-0.256292
-0.304509
-0.283376
-0.51527
-0.666474
-1.05725
-0.883783
-1.16886
-1.73804
1.42487
0.766875
0.747316
0.671566
0.599282
0.380349
0.259876
0.263618
0.27427
0.227004
0.170142
0.168648
0.167701
0.176741
0.168717
0.164072
0.159556
0.156396
0.153251
0.153191
-0.0271845
-0.0259976
-0.0291709
-0.0349287
-0.0446334
-0.0614642
-0.0662082
-0.0683153
-0.0728209
-0.0901116
-0.128173
-0.1098
-0.144112
-0.291919
-0.343171
-0.356755
-0.52408
-0.373384
-0.467015
-0.57492
-0.206352
-0.0297477
0.301837
0.201745
0.232229
0.281867
0.279175
0.169176
0.149467
0.180735
0.154205
0.154675
0.16646
0.171399
0.165396
0.162798
0.160894
0.161828
0.162846
0.162221
-0.0333769
-0.035646
-0.0370221
-0.0416873
-0.0472226
-0.0557314
-0.0598038
-0.0632236
-0.0653515
-0.071259
-0.142219
-0.27708
-0.310152
-0.0850347
-0.00883226
-0.127952
-0.198083
-0.0799541
-0.352199
-0.722302
-0.166933
-0.335549
0.0916804
0.179645
0.280565
0.166073
0.106231
0.144255
0.133934
0.127657
0.120242
0.141021
0.15531
0.160391
0.163811
0.16669
0.164567
0.163103
0.160442
0.158077
-0.0432233
-0.0454057
-0.0446819
-0.0448244
-0.0450418
-0.0458959
-0.047102
-0.0516914
-0.0596604
-0.0737437
-0.0969595
-0.0279879
-0.0159161
-0.000483752
0.000439226
0.0610604
0.644733
0.370736
0.0626555
-0.203645
-0.499539
-0.278589
-0.110126
-0.160468
-0.0361779
-0.169953
-0.140361
-0.0577443
-0.00659853
0.0678103
0.107651
0.128233
0.137082
0.142642
0.157613
0.155741
0.156702
0.159269
0.161143
0.162982
-0.0454553
-0.049358
-0.0478399
-0.048094
-0.0466494
-0.0414762
-0.038182
-0.0275519
-0.0217885
-0.0417164
-0.0258476
-0.0253398
0.0742724
0.330906
0.46693
0.693249
0.81256
0.981037
-0.346712
-0.561036
-0.929095
-0.990169
-0.0271025
-0.341677
-0.163605
-0.184297
-0.103125
-0.0116492
0.0199477
0.0181368
0.071357
0.117492
0.127867
0.135445
0.144352
0.151374
0.155158
0.159362
0.158853
0.159141
-0.0555336
-0.0538607
-0.0526008
-0.0501223
-0.0476435
-0.0399407
-0.0321747
-0.0174815
-0.00953992
0.00971253
0.0880148
0.254028
0.337774
0.421113
0.493841
0.748713
0.918184
0.711579
0.303936
0.0299633
-0.512596
-0.403328
-0.31752
-0.429194
-0.306927
-0.244233
-0.295127
-0.221014
-0.107221
0.0102407
0.0443081
0.0877982
0.100905
0.116929
0.12794
0.145154
0.150284
0.154841
0.157666
0.158908
-0.0635912
-0.0654851
-0.0630428
-0.0587414
-0.0514737
-0.0380927
-0.0194233
-0.00338754
0.0409616
0.0510555
0.148725
0.235544
0.458443
0.742569
0.932262
1.02731
1.01761
0.904387
0.628136
0.276508
-0.0573667
-0.616387
-0.627028
-0.526081
-0.484929
-0.423368
-0.317409
-0.108494
-0.0510623
-0.0297958
0.0325079
0.0751725
0.0956167
0.110471
0.125888
0.141159
0.152799
0.159582
0.161726
0.167599
-0.0756739
-0.0779932
-0.0765312
-0.0694196
-0.0616709
-0.0507533
-0.0235765
0.0046855
0.0580618
0.125795
0.25018
0.435632
0.493295
0.627345
0.752067
0.910052
1.15373
0.984973
0.775951
0.426166
-0.561035
-0.634595
-0.33936
-0.428214
-0.342783
-0.254289
-0.257085
-0.207292
-0.155635
-0.0270674
0.0464285
0.0659372
0.10227
0.127153
0.13889
0.147759
0.165552
0.172797
0.173094
0.177143
-0.0799356
-0.0785184
-0.0781915
-0.0756794
-0.0687812
-0.0521721
-0.0349405
-0.00374225
0.0254402
0.0878735
0.242475
0.441732
0.610225
0.848824
1.0238
1.09245
1.31908
1.29198
1.10668
0.709963
-0.204726
-0.566992
-0.500411
-0.436883
-0.210852
-0.2019
-0.100982
0.0179012
0.0671236
0.0560242
0.0896557
0.105284
0.129309
0.149543
0.151193
0.165733
0.174886
0.182054
0.185962
0.181361
-0.0964019
-0.0963251
-0.0920399
-0.0850636
-0.0776026
-0.0663438
-0.0539713
-0.0214416
0.0304074
0.0997373
0.214644
0.413485
0.622687
0.807593
1.00957
1.19327
1.2981
1.29164
1.11485
0.671324
0.598111
0.250335
0.254698
0.200995
0.214011
0.212275
0.15149
0.078158
0.106405
0.143445
0.148389
0.148941
0.165101
0.17328
0.179117
0.184164
0.189517
0.193121
0.194278
0.194854
-0.110988
-0.107888
-0.107842
-0.106253
-0.101754
-0.0920663
-0.0804691
-0.0550279
-0.0372888
0.0816061
0.208902
0.389186
0.538545
0.756135
0.993286
1.16145
1.32075
1.31849
1.45731
1.38812
0.54046
0.383182
0.356639
0.247319
0.151176
0.129081
0.277155
0.316988
0.337269
0.237478
0.201041
0.196448
0.204859
0.206298
0.210015
0.20308
0.20554
0.20654
0.207627
0.204288
-0.132339
-0.134312
-0.131949
-0.127541
-0.120628
-0.10856
-0.100185
-0.092297
-0.0385212
0.0253253
0.0969737
0.247343
0.433289
0.531938
0.70131
0.664125
0.883514
0.763159
1.00628
0.658418
1.1995
0.959052
0.84247
0.833919
0.431012
0.444829
0.426294
0.347569
0.305978
0.272162
0.25438
0.264089
0.250133
0.236106
0.232152
0.22809
0.225435
0.225031
0.224357
0.2309
-0.153851
-0.155265
-0.155825
-0.158588
-0.154315
-0.146421
-0.132281
-0.109881
-0.0766451
-0.0530344
0.0706536
0.13781
0.243315
0.465958
0.608317
0.700596
0.726402
0.617342
0.594574
0.607127
0.46833
0.522847
0.662143
0.488311
0.341947
0.429061
0.420836
0.465523
0.412779
0.350922
0.33504
0.301341
0.283552
0.269948
0.261124
0.254935
0.246184
0.242668
0.242141
0.244223
-0.176616
-0.175535
-0.176034
-0.176833
-0.175018
-0.170992
-0.165819
-0.136876
-0.106562
-0.0622943
-0.0383867
0.0286947
0.0726064
0.135237
0.171663
0.217272
0.127319
0.184121
-0.0440407
-0.540636
0.648725
0.35116
0.374921
0.402961
0.379713
0.442017
0.452878
0.476413
0.441888
0.396783
0.382577
0.358225
0.312728
0.295542
0.282256
0.273275
0.264376
0.256983
0.252974
0.254324
-0.188694
-0.195522
-0.195998
-0.195848
-0.194024
-0.189591
-0.189823
-0.181487
-0.169783
-0.14035
-0.109675
-0.12841
-0.10807
-0.046503
-0.00474515
0.018193
-0.11266
-0.186601
-0.307562
-0.481565
0.00118312
-0.0222692
0.164981
0.232295
0.29421
0.376688
0.435677
0.506685
0.522261
0.454253
0.423647
0.384615
0.340548
0.31918
0.298766
0.282886
0.271974
0.265481
0.262387
0.262615
-0.215214
-0.215328
-0.216281
-0.2148
-0.217609
-0.220614
-0.223123
-0.220882
-0.221847
-0.259663
-0.296013
-0.298322
-0.272551
-0.335151
-0.390387
-0.44826
-0.489929
-0.462015
-0.452302
-0.345987
-0.0368763
0.0703666
0.315117
0.524761
0.639196
0.676072
0.657323
0.641445
0.582389
0.523292
0.464576
0.398937
0.374377
0.33915
0.314722
0.29542
0.283424
0.275866
0.271226
0.265507
-0.239529
-0.242669
-0.244254
-0.245641
-0.249
-0.253206
-0.259759
-0.269132
-0.294373
-0.333864
-0.374681
-0.445649
-0.492965
-0.497715
-0.513057
-0.512938
-0.527385
-0.490925
-0.435116
-0.427814
0.313082
0.492206
0.621353
0.684683
0.780507
0.746671
0.709209
0.660485
0.574873
0.512057
0.45513
0.406752
0.372802
0.340018
0.315072
0.298948
0.284186
0.273788
0.267856
0.266899
-0.265727
-0.268887
-0.272299
-0.272087
-0.279685
-0.289899
-0.303284
-0.318091
-0.367489
-0.458448
-0.522778
-0.588252
-0.680037
-0.744703
-0.826846
-0.826483
-0.893788
-0.612331
-0.433767
-0.376904
0.287317
0.507399
0.699043
0.810743
0.865611
0.82271
0.751423
0.689066
0.602139
0.537038
0.464692
0.398585
0.345103
0.323258
0.302536
0.287096
0.2752
0.266499
0.263676
0.256412
-0.278524
-0.279559
-0.28551
-0.296454
-0.308144
-0.326509
-0.349837
-0.388027
-0.446226
-0.510502
-0.626819
-0.798351
-0.956887
-1.04417
-1.13444
-1.14044
-1.10051
-1.02661
-0.864568
-0.433596
0.193017
0.610632
0.79886
0.845459
0.863182
0.838993
0.791195
0.670252
0.555755
0.487644
0.375591
0.358733
0.322586
0.298467
0.279209
0.26559
0.257496
0.249906
0.245585
0.243687
-0.287021
-0.289053
-0.296323
-0.305123
-0.321708
-0.34509
-0.3777
-0.428242
-0.497613
-0.626486
-0.766948
-0.881751
-1.06055
-1.28214
-1.49872
-1.59781
-1.53852
-1.30137
-0.775196
-0.248134
0.116449
0.350292
0.623486
0.815926
0.852199
0.81147
0.720711
0.60611
0.51568
0.410035
0.34702
0.305344
0.285558
0.267677
0.25747
0.24443
0.237239
0.233591
0.234055
0.232859
-0.294953
-0.299842
-0.305272
-0.315376
-0.332724
-0.360555
-0.391744
-0.456419
-0.523731
-0.605151
-0.799549
-1.00296
-1.24253
-1.47951
-1.67064
-1.72619
-1.63664
-1.48124
-1.05072
-0.584876
0.0818492
0.509988
0.786312
0.912658
0.878842
0.768273
0.619216
0.508001
0.416916
0.291087
0.236206
0.268661
0.25922
0.25362
0.240161
0.228923
0.22451
0.221569
0.219711
0.218999
-0.286251
-0.29272
-0.301346
-0.315226
-0.332235
-0.365734
-0.404286
-0.460301
-0.522496
-0.629364
-0.755721
-0.916406
-1.10147
-1.29771
-1.42942
-1.44549
-1.27314
-0.997803
-0.517718
-0.0304683
0.0898783
0.338979
0.568845
0.69587
0.669455
0.590957
0.509106
0.383045
0.32963
0.292429
0.252001
0.23449
0.219569
0.21566
0.216893
0.21136
0.210961
0.210089
0.210119
0.203438
-0.278999
-0.279936
-0.284897
-0.294808
-0.311294
-0.338765
-0.375678
-0.431799
-0.491208
-0.577853
-0.690545
-0.814018
-0.956406
-1.10091
-1.18809
-1.16211
-0.890429
-0.740189
-0.211042
0.196005
0.426777
0.781043
0.876289
0.85339
0.753436
0.648433
0.513361
0.380759
0.268347
0.188784
0.186597
0.185079
0.181533
0.185029
0.187258
0.190467
0.193027
0.195377
0.192618
0.191145
-0.258393
-0.259193
-0.263475
-0.272166
-0.287988
-0.311598
-0.342526
-0.383089
-0.435654
-0.495946
-0.591166
-0.688461
-0.791619
-0.869581
-0.88604
-0.870115
-0.688886
-0.344854
0.0286457
0.561905
0.718743
0.605228
0.626561
0.68639
0.576802
0.446307
0.362968
0.249389
0.200777
0.169458
0.148039
0.143835
0.143745
0.15659
0.16181
0.16636
0.168482
0.171119
0.172283
0.171591
-0.240529
-0.238956
-0.24151
-0.24724
-0.257192
-0.272537
-0.301387
-0.316886
-0.379598
-0.411677
-0.483655
-0.532219
-0.66803
-0.857639
-0.963632
-0.887384
-0.897636
-0.473294
-0.359683
0.472223
0.48666
0.675487
0.699318
0.627258
0.513007
0.395296
0.282423
0.168556
0.115845
0.0788067
0.0713184
0.0937311
0.112796
0.133464
0.138385
0.144777
0.148946
0.152395
0.153488
0.158848
-0.21651
-0.220632
-0.222363
-0.225494
-0.23101
-0.2376
-0.248421
-0.261658
-0.274384
-0.293839
-0.307534
-0.341213
-0.374904
-0.44285
-0.522168
-0.542812
-0.617957
-0.474888
-0.37419
-0.0166963
-0.0433372
0.0897439
0.0447572
0.0279785
-0.0111826
-0.0272479
-0.0254701
-0.0305765
-0.00892119
0.0270833
0.0667783
0.0782225
0.0951583
0.110551
0.124533
0.133327
0.138742
0.142624
0.146299
0.147117
-0.183797
-0.187773
-0.189976
-0.190223
-0.189354
-0.18839
-0.189128
-0.186238
-0.166414
-0.162775
-0.162309
-0.161212
-0.179757
-0.205108
-0.232577
-0.281108
-0.214297
-0.312414
-0.417095
-0.407086
-0.580316
-0.593719
-0.481929
-0.443333
-0.369402
-0.370184
-0.244714
-0.131964
-0.0460984
-0.00349334
0.0249128
0.0572372
0.0840254
0.104479
0.123368
0.129635
0.134276
0.138165
0.138982
0.139587
-0.15022
-0.150562
-0.145891
-0.142777
-0.138618
-0.13086
-0.11845
-0.106485
-0.0767278
-0.0520063
-0.0405611
-0.0185262
-0.00817303
-0.0197424
-0.0269195
-0.0268977
-0.115968
-0.300692
-0.530649
-0.653413
-0.723711
-0.684338
-0.655861
-0.585473
-0.486938
-0.385059
-0.272615
-0.195758
-0.0852657
-0.0211782
0.0286793
0.0621982
0.0922717
0.103534
0.114759
0.121704
0.123304
0.125767
0.127079
0.127036
-0.128383
-0.120573
-0.114261
-0.107076
-0.0994701
-0.0852274
-0.0599966
-0.0470343
-0.0148683
0.00965149
0.0455449
0.0795257
0.060843
0.0136409
-0.0204499
-0.0964914
-0.140344
-0.331565
-0.438163
-0.507418
-0.608575
-0.612203
-0.498788
-0.328217
-0.220292
-0.146453
-0.0930052
-0.0359537
0.00829373
0.0411329
0.0783084
0.0905843
0.0982573
0.103404
0.114288
0.117185
0.119655
0.122585
0.124535
0.122615
-0.109783
-0.105587
-0.0993726
-0.0922139
-0.0804039
-0.0621254
-0.0376445
-0.0199147
0.0296931
0.0771978
0.117393
0.154224
0.206205
0.234712
0.210994
0.13362
-0.0710061
-0.148231
-0.309119
-0.442837
-0.468756
-0.384002
-0.310142
-0.191083
-0.117976
-0.103988
-0.0485946
0.00481767
0.0452913
0.0734346
0.0961813
0.113209
0.118515
0.119015
0.115943
0.119666
0.119989
0.11781
0.115697
0.117735
-0.100789
-0.100749
-0.097598
-0.088929
-0.0756314
-0.0560691
-0.0305829
-0.0030067
0.0386064
0.0907346
0.158777
0.202114
0.26344
0.29862
0.301181
0.236656
0.208046
0.107006
-0.0185387
-0.301177
-0.452456
-0.561123
-0.536157
-0.399228
-0.264395
-0.182855
-0.0925468
0.000284513
0.0571407
0.100571
0.13339
0.136044
0.117788
0.115228
0.110659
0.111811
0.113843
0.116479
0.116717
0.115381
-0.0899219
-0.0961809
-0.0923214
-0.0834872
-0.0709726
-0.0543513
-0.0312728
-0.00266299
0.0262335
0.0762438
0.101371
0.160112
0.200052
0.203325
0.175032
0.0832032
-0.048342
-0.30558
-0.476531
-0.526068
-0.489846
-0.459738
-0.415243
-0.32264
-0.227542
-0.118421
-0.0431938
0.0107394
0.0607866
0.0912524
0.105483
0.112903
0.112913
0.113548
0.10975
0.106917
0.104126
0.105001
0.102731
0.105113
-0.0814201
-0.0821804
-0.0796176
-0.0734277
-0.0637681
-0.0543707
-0.0411363
-0.0109958
-0.00330989
0.0177361
0.0473886
0.0460314
0.0099793
-0.0738366
-0.189801
-0.338989
-0.487484
-0.517668
-0.564759
-0.516302
-0.558074
-0.520305
-0.387882
-0.299641
-0.0833439
-0.0179748
0.0172264
0.0559736
0.0936899
0.10027
0.110913
0.109955
0.108055
0.103589
0.100037
0.0948148
0.0903297
0.0906841
0.0923987
0.0954888
-0.0818399
-0.078525
-0.0738701
-0.0695732
-0.0614994
-0.0522423
-0.0550855
-0.0415133
-0.0260665
-0.0226306
-0.0378037
-0.0735226
-0.125882
-0.180016
-0.312907
-0.405053
-0.586385
-0.629556
-0.614954
-0.700291
-0.58684
-0.420475
-0.209429
-0.0842067
-0.036066
0.00468016
0.033596
0.05624
0.0701555
0.0847665
0.0855545
0.106956
0.106714
0.103826
0.0995035
0.0959384
0.0910053
0.0881898
0.0881318
0.0897896
-0.0936262
-0.0910127
-0.0887888
-0.0864934
-0.0816176
-0.078279
-0.0766652
-0.0737479
-0.0751101
-0.0761311
-0.0703368
-0.0752222
-0.0826423
-0.0856512
-0.100288
-0.0939832
-0.141188
-0.156248
-0.233264
-0.325743
-0.389856
-0.388893
-0.343894
-0.324615
-0.235444
-0.170114
-0.0911304
-0.0139622
0.0198365
0.0768958
0.104312
0.120795
0.11407
0.102153
0.0989393
0.0955108
0.0913138
0.088359
0.0862536
0.0844555
-0.102567
-0.102762
-0.102364
-0.101197
-0.0992336
-0.0956752
-0.0981928
-0.0921047
-0.0830341
-0.0969156
-0.088045
-0.0908558
-0.0573913
-0.0221571
0.00425719
0.05235
0.0814078
0.0383889
-0.0366326
-0.133823
-0.1696
-0.15374
-0.164434
-0.172708
-0.118042
-0.0980406
-0.0701631
-0.0216906
0.0230254
0.0584726
0.051783
0.0691967
0.0823243
0.085394
0.0862766
0.0849558
0.0819003
0.0777656
0.07337
0.0699593
-0.106578
-0.107075
-0.107844
-0.107959
-0.10812
-0.108751
-0.11028
-0.113992
-0.116379
-0.1236
-0.127405
-0.136236
-0.131265
-0.127199
-0.119216
-0.132346
-0.134726
-0.0817213
-0.0338915
-0.0333218
0.0131684
0.106969
0.0356691
-0.0261197
-0.0444682
-0.0308292
-0.0206275
0.00157145
0.0170654
0.0334325
0.0516708
0.0600987
0.0559062
0.0581809
0.0579321
0.0563217
0.0548815
0.0536036
0.0528681
0.0529592
-0.113763
-0.111204
-0.112585
-0.117763
-0.121782
-0.122626
-0.131915
-0.144535
-0.160474
-0.178942
-0.209709
-0.257232
-0.328784
-0.368837
-0.37253
-0.362403
-0.312105
-0.143759
-0.0934638
-0.0485048
0.0134665
0.061991
0.0545383
0.0945149
0.0724481
0.0938413
0.0426411
0.0457265
0.0471561
0.0400275
0.0330718
0.0249205
0.0274753
0.0467599
0.0399304
0.0325788
0.0314662
0.0293999
0.0301816
0.0333496
-0.123188
-0.12731
-0.129806
-0.133777
-0.139969
-0.145073
-0.156473
-0.173662
-0.197528
-0.22151
-0.238847
-0.24457
-0.248947
-0.25148
-0.258812
-0.275406
-0.288947
-0.219661
-0.167888
-0.0746182
0.0277555
0.0618117
-0.0478547
-0.157486
-0.194486
-0.162192
-0.111074
-0.0623861
-0.0303571
-0.00508189
0.0221371
0.0245259
0.023215
0.0239355
0.0226426
0.0197774
0.0190925
0.018844
0.019259
0.0227454
-0.130343
-0.133419
-0.137805
-0.144135
-0.149952
-0.157131
-0.164269
-0.174533
-0.189885
-0.209082
-0.225923
-0.234102
-0.23122
-0.207531
-0.230667
-0.130197
-0.128445
0.0233558
0.00793825
-0.00626592
-0.0731502
-0.0579857
-0.268828
-0.253827
-0.28115
-0.249382
-0.193027
-0.122386
-0.0655421
-0.028915
-0.00931712
-0.011332
-0.000979957
0.00692693
0.0102314
0.0124162
0.0154743
0.0181759
0.0196012
0.0170883
-0.124866
-0.12433
-0.125055
-0.133137
-0.137574
-0.143764
-0.146176
-0.163292
-0.167189
-0.176096
-0.230232
-0.243666
-0.256344
-0.211792
-0.204616
-0.182731
-0.128299
-0.0741523
-0.0679353
0.0164642
0.0838498
0.147312
0.110449
0.0478612
-0.0082053
-0.0780125
-0.0676473
-0.0861778
-0.065442
-0.0543346
-0.0488686
-0.0309282