/*--------------------------------*- C++ -*----------------------------------*\
| =========                 |                                                 |
| \\      /  F ield         | OpenFOAM: The Open Source CFD Toolbox           |
|  \\    /   O peration     | Version:  v2106                                 |
|   \\  /    A nd           | Website:  www.openfoam.com                      |
|    \\/     M anipulation  |                                                 |
\*---------------------------------------------------------------------------*/
FoamFile
{
    version     2.0;
    format      ascii;
    arch        "LSB;label=32;scalar=64";
    class       volVectorField;
    location    "0";
    object      U;
}
// * * * * * * * * * * * * * * * * * * * * * * * * * * * * * * * * * * * * * //

dimensions      [0 1 -1 0 0 0 0];

internalField   nonuniform List<vector> 
11644
(
(0.000667752 0.000187544 1.10164e-20)
(0.000720115 0.000413165 3.038e-20)
(0.00070284 0.000577844 1.62996e-20)
(0.000455491 0.000625891 0)
(0.000452951 0.000909719 0)
(0.000573436 0.00107849 0)
(0.000674187 0.00128327 0)
(0.000690946 0.0012551 0)
(0.000737857 0.000979624 0)
(0.000711841 0.000424721 0)
(0.00105302 -0.000288211 0)
(0.0011888 -0.00132728 0)
(0.00112351 -0.0026452 0)
(0.00181138 -0.003904 0)
(0.00141481 -0.00558703 0)
(0.00197785 -0.00665029 0)
(0.00449238 -0.00850345 0)
(0.0033498 -0.0102172 0)
(-0.000259432 -0.00835044 0)
(-0.00243292 -0.00419873 5.9487e-31)
(0.000804976 -0.00094071 -8.41836e-31)
(0.00161776 0.000580808 0)
(0.00301613 -0.000267798 0)
(0.00279316 -0.000625126 0)
(0.00269769 -0.000622077 0)
(0.00183406 -0.000713148 0)
(0.00165061 -0.00177905 0)
(0.00112222 -0.00268647 0)
(0.000700229 -0.00316762 0)
(0.000521715 -0.00365756 0)
(0.000555345 -0.00389102 0)
(0.000441427 -0.00379745 0)
(0.000482368 -0.00352325 0)
(0.000512901 -0.0031357 0)
(0.000524807 -0.00282536 0)
(0.000429236 -0.00229359 0)
(0.000456655 -0.0018135 0)
(0.000299003 -0.0013618 0)
(0.000239765 -0.000895555 0)
(0.000373914 -0.000345867 2.13597e-21)
(0.00032156 0.000219647 1.41505e-20)
(0.000201556 0.000568 1.31079e-20)
(0.00016279 0.000914936 7.03983e-21)
(0.000158315 0.00130103 0)
(0.000242038 0.00148363 0)
(0.000122217 0.00161049 0)
(9.71472e-05 0.00170625 0)
(0.000261777 0.00167693 0)
(0.000545104 0.00142548 0)
(0.000778222 0.00071927 0)
(0.000698888 -0.000623681 0)
(0.00134079 -0.00263319 0)
(0.00177589 -0.0049234 0)
(0.00227037 -0.00805211 0)
(0.00363725 -0.0109878 0)
(0.00512944 -0.0138202 -8.38045e-22)
(0.0045247 -0.0152194 5.58027e-21)
(0.000832711 -0.0129773 -1.98438e-20)
(-0.000858853 -0.0103683 -5.69958e-20)
(0.00169137 -0.0086847 -7.575e-20)
(0.00171561 -0.00681868 1.11993e-19)
(0.00361487 -0.0057923 1.88329e-20)
(0.0013146 -0.00461875 2.25956e-20)
(0.00115769 -0.00353047 -6.08527e-21)
(0.00151996 -0.00309796 3.83135e-22)
(0.00182211 -0.00377272 0)
(0.00159895 -0.00489081 0)
(0.000971313 -0.00582196 0)
(0.000661594 -0.00678697 0)
(0.000108478 -0.00718742 0)
(-0.000373987 -0.00702499 0)
(-0.000511016 -0.00680475 0)
(-0.000768845 -0.0062992 0)
(-0.000737313 -0.00563152 0)
(-0.000740185 -0.00467969 0)
(-0.000821312 -0.00383867 0)
(-0.00073818 -0.00302428 0)
(-0.000909836 -0.00212295 0)
(-0.000836428 -0.00134621 0)
(-0.000672149 -0.000445756 0)
(0.000859789 -0.000115224 0)
(0.000556927 0.000101983 0)
(0.00012654 0.000380557 0)
(7.49178e-05 0.000771971 0)
(0.000111067 0.000897227 1.29262e-20)
(7.92134e-05 0.00106588 0)
(9.1682e-06 0.00106221 0)
(0.000105864 0.000926251 0)
(0.000364802 0.000593447 0)
(0.000897689 1.60006e-05 0)
(0.00187609 -0.00116335 0)
(0.0029899 -0.00302668 0)
(0.00481371 -0.00605499 1.99794e-22)
(0.00646601 -0.00942471 9.14198e-21)
(0.00711141 -0.0135133 -9.73503e-20)
(0.00673642 -0.0169067 8.65678e-20)
(0.00335209 -0.0170229 -1.10554e-19)
(0.000567301 -0.0153633 2.40323e-19)
(0.00131351 -0.0152907 -1.92111e-19)
(0.00264502 -0.0152494 4.6549e-19)
(0.00219086 -0.0141092 -8.54265e-20)
(0.00175582 -0.011704 -4.78509e-19)
(0.000120987 -0.00733667 5.97681e-20)
(0.000718089 -0.00510596 1.00548e-19)
(0.00138199 -0.00481243 -9.0563e-20)
(0.00195106 -0.00596383 1.04739e-19)
(0.00104492 -0.00681774 -1.23204e-20)
(0.000622558 -0.00784006 9.76399e-23)
(-0.000412188 -0.00830101 0)
(-0.00108809 -0.00840796 0)
(-0.00173434 -0.00812728 0)
(-0.00223512 -0.00727752 0)
(-0.00230929 -0.00638642 0)
(-0.00218843 -0.0054141 0)
(-0.00222313 -0.00435078 0)
(-0.00181643 -0.00353573 0)
(-0.00171952 -0.00264148 0)
(-0.00148817 -0.00176928 0)
(-0.00130759 -0.000956856 0)
(-0.00104995 -0.000238741 0)
(0.00114673 0.000134589 0)
(0.00105236 -0.00024166 0)
(0.000921636 -4.12827e-05 0)
(0.000788809 -0.000258887 0)
(0.000520499 -0.000261073 0)
(0.000321343 -0.000184322 0)
(6.82368e-05 -0.00015364 0)
(8.02441e-05 -0.000186259 0)
(0.00015205 -0.000253325 0)
(0.00069758 -0.000645297 0)
(0.00206844 -0.000923802 -5.17145e-23)
(0.00371615 -0.00210181 1.21617e-20)
(0.00545808 -0.00345769 -2.19364e-20)
(0.00636238 -0.00729415 -1.72252e-19)
(0.00693399 -0.0131869 3.99235e-19)
(0.00412714 -0.0165422 -4.48926e-19)
(0.00290569 -0.01958 3.07109e-19)
(0.00195741 -0.0213578 -4.88175e-19)
(0.00421039 -0.0232927 5.44042e-19)
(0.00357645 -0.0228367 -7.20542e-19)
(0.00325705 -0.0164026 5.63948e-19)
(-0.000433578 -0.0125451 -2.12622e-19)
(-0.0016773 -0.00814527 3.25331e-19)
(-0.000715518 -0.00607804 -6.13662e-21)
(0.000655007 -0.0056519 1.57349e-19)
(0.000155025 -0.0067081 -3.93025e-19)
(-0.000970743 -0.00857277 1.86308e-19)
(-0.00310961 -0.00866119 -4.38852e-21)
(-0.00494728 -0.00823774 -2.79256e-20)
(-0.00538391 -0.0073424 2.18515e-22)
(-0.00512971 -0.00614498 0)
(-0.00491954 -0.00483127 0)
(-0.00461808 -0.00345292 0)
(-0.00404344 -0.00236989 0)
(-0.00346571 -0.0015006 0)
(-0.00279779 -0.000847349 0)
(-0.00240556 -0.000253087 0)
(-0.00193178 -0.000100487 0)
(-0.0016796 0.000318864 0)
(-0.0014559 -9.62133e-05 0)
(0.00128564 -0.000455026 0)
(0.0013476 -2.15634e-05 0)
(0.00145057 -0.000354248 0)
(0.00142533 -0.000242183 0)
(0.00116435 -0.000359034 0)
(0.000880029 -0.000253572 0)
(0.000698615 -0.000178561 0)
(0.000486326 7.52907e-05 0)
(0.000597985 0.000494104 0)
(0.00108036 0.00148004 -2.71882e-21)
(0.00051826 0.00194054 3.41842e-21)
(0.000325728 0.00250948 -4.82444e-21)
(-2.49777e-05 0.000289165 2.32803e-20)
(0.00473498 -0.00229718 -5.49201e-21)
(0.00790512 -0.00846819 1.51682e-19)
(0.00451078 -0.0148167 -5.14201e-19)
(0.00476433 -0.0212841 5.12377e-19)
(0.0095112 -0.0248511 -8.12621e-19)
(0.0103714 -0.022329 -6.2641e-19)
(0.00889341 -0.0203251 1.74158e-18)
(0.0064316 -0.0172842 -1.37247e-18)
(0.00292834 -0.0125766 5.02325e-19)
(0.000933333 -0.0081266 5.52862e-19)
(-0.00122519 -0.0057531 -5.06585e-19)
(-0.00411486 -0.00619747 5.14881e-19)
(-0.00319518 -0.00761812 -1.30409e-19)
(-0.00445898 -0.00789255 -2.37928e-20)
(-0.00779574 -0.00717483 6.77567e-20)
(-0.00828512 -0.00595907 -9.06781e-20)
(-0.00980141 -0.00338743 2.55403e-20)
(-0.00948864 -0.00145183 -1.58251e-21)
(-0.00778704 -9.0877e-05 0)
(-0.00636312 0.00103054 0)
(-0.00512172 0.001759 0)
(-0.00387743 0.00197646 0)
(-0.0030267 0.00211045 0)
(-0.00222078 0.00174502 0)
(-0.0016216 0.00159433 0)
(-0.00102824 0.000582275 0)
(-0.00111294 0.000705283 0)
(0.00185459 5.73112e-05 0)
(0.0017728 8.63249e-05 0)
(0.00204319 3.33965e-05 0)
(0.00213569 8.49418e-05 0)
(0.00192562 9.13286e-05 0)
(0.00164406 0.000249357 0)
(0.00137151 0.000442915 0)
(0.000945813 0.00131745 0)
(0.000708026 0.00258661 -3.21087e-21)
(-0.000652181 0.00413415 3.67316e-20)
(-0.00148507 0.00679158 9.32797e-20)
(-0.00247462 0.00695328 -1.11421e-20)
(0.000390986 0.0107373 -3.96613e-19)
(-0.00313872 0.00863814 3.31174e-19)
(0.00207625 -0.00125089 7.78301e-20)
(0.0142574 -0.0110406 -3.4334e-19)
(0.0172493 -0.0155759 6.50608e-19)
(0.0149177 -0.0182664 -5.50657e-19)
(0.0149862 -0.0206247 -2.25793e-20)
(0.01033 -0.018165 2.60563e-19)
(0.00559219 -0.0137738 -1.89719e-19)
(0.0030547 -0.0119437 4.2715e-19)
(0.0011942 -0.00853223 -5.90469e-20)
(-0.00279558 -0.00973995 4.88258e-19)
(-0.00723451 -0.0072167 -6.84936e-19)
(-0.0140049 -0.00736433 -9.7939e-20)
(-0.0146312 -0.00978552 -2.29884e-19)
(-0.0130004 -0.00745885 1.64126e-19)
(-0.0132666 -0.00173008 2.15125e-19)
(-0.0118059 0.000569332 -1.4296e-19)
(-0.0109766 0.00286502 -1.24413e-20)
(-0.00895284 0.00392783 1.45891e-21)
(-0.00604119 0.00379663 0)
(-0.00408161 0.00373505 0)
(-0.00238092 0.00309414 0)
(-0.00123868 0.00226353 0)
(-0.000454952 0.00135184 0)
(0.000259874 0.000676727 0)
(0.000334226 0.000471868 0)
(0.000317342 -0.000157378 0)
(0.00236298 0.00118256 0)
(0.00251098 -0.000104125 0)
(0.00246857 0.00117108 0)
(0.00243363 0.000674811 0)
(0.00255031 0.00131714 0)
(0.00241354 0.00132586 0)
(0.00226578 0.0019832 0)
(0.00172692 0.00276532 2.35176e-22)
(0.000194986 0.00451893 -1.212e-20)
(-0.00233295 0.00640121 -5.97194e-20)
(-0.00451924 0.00741087 1.50276e-19)
(-0.00508503 0.0136466 6.77044e-20)
(-0.00624967 0.0138799 6.04066e-20)
(0.00301813 0.0141559 1.60851e-19)
(-0.000751183 0.0169465 -1.29607e-19)
(0.000184396 0.00530884 -4.54908e-19)
(0.0118414 -0.0137314 7.11758e-19)
(0.0131077 -0.0171656 -4.07773e-19)
(0.00965535 -0.0167826 1.36153e-18)
(0.00500123 -0.0168922 1.23393e-18)
(-0.00224239 -0.01982 1.58293e-18)
(-0.00422973 -0.0142453 -8.74018e-19)
(-0.00677778 -0.0107864 3.69836e-20)
(-0.0091148 -0.00460048 3.22659e-20)
(-0.023886 -0.00822575 3.79558e-19)
(-0.0279709 -0.0105241 2.60569e-19)
(-0.0184657 -0.00602627 -3.97313e-19)
(-0.0243213 -0.00200751 -2.06476e-19)
(-0.0159088 0.00145241 2.12027e-19)
(-0.0115542 0.00479536 -6.10747e-20)
(-0.00847886 0.005941 1.75047e-20)
(-0.0068511 0.00615033 2.24163e-21)
(-0.00474673 0.00565114 -4.63721e-21)
(-0.00233044 0.00458852 0)
(-0.000822081 0.00445943 0)
(0.000404295 0.00405107 0)
(0.00105951 0.00401495 0)
(0.00158431 0.00244546 0)
(0.00192906 0.00249417 0)
(0.00194208 0.000151387 0)
(0.00289168 -0.00235579 0)
(0.0032581 2.37857e-06 0)
(0.00348021 -0.00143411 0)
(0.00357964 0.00017012 0)
(0.00355719 0.00075984 0)
(0.00374509 0.00165806 0)
(0.00362109 0.00247503 0)
(0.00303789 0.00443332 -6.96278e-21)
(0.000561844 0.00574985 -3.46794e-20)
(-0.00136545 0.00756247 -2.55863e-20)
(-0.00146085 0.0101213 2.88851e-19)
(-0.00231195 0.00716048 -1.61678e-19)
(-0.0107016 0.0108839 -3.94741e-19)
(0.00114339 0.0219305 -7.32693e-20)
(-0.00811359 0.00560962 1.44658e-19)
(-0.00842085 0.00628576 -7.06374e-19)
(0.0065311 0.00696078 -2.28047e-20)
(0.0112772 -0.0155776 -4.2354e-19)
(0.013378 -0.0202155 6.21389e-19)
(0.01155 -0.0250184 2.78783e-18)
(0.00194293 -0.0275699 6.56332e-19)
(-0.00510076 -0.015556 2.16887e-18)
(-0.0135408 -0.012809 3.93086e-19)
(-0.0127913 -0.0124072 2.96401e-19)
(-0.0317048 -0.0153612 1.97311e-19)
(-0.0356132 -0.00277634 -9.67921e-19)
(-0.0353052 0.00462787 5.34108e-19)
(-0.0262686 0.000299827 -9.0966e-20)
(-0.0168182 0.00911127 -1.39434e-20)
(-0.0105874 0.00722036 -5.46334e-20)
(-0.00436129 0.00825329 3.00764e-20)
(-0.00156169 0.00783344 1.0247e-19)
(-0.000952765 0.00679775 -2.30386e-20)
(0.00052816 0.0047488 0)
(0.00202381 0.0034505 0)
(0.00292438 0.0029344 0)
(0.00386014 0.00184923 0)
(0.00404145 0.00243385 0)
(0.00413373 -3.12282e-05 0)
(0.00405752 0.00190214 0)
(0.00381533 0.00165808 0)
(0.00343929 0.00207654 0)
(0.00301066 0.00245143 0)
(0.00300188 0.0027023 0)
(0.00353821 0.0018056 0)
(0.00446464 0.00202748 0)
(0.00512889 0.00258319 -2.11636e-21)
(0.00445342 0.00461894 -1.07919e-20)
(0.00325801 0.00631063 1.90782e-20)
(0.00464319 0.00641401 -4.57471e-21)
(0.0075397 0.00688123 1.36308e-19)
(0.00998505 0.00933482 -1.81178e-19)
(0.00870353 0.0332372 4.0927e-20)
(0.0174101 0.0198784 -2.56928e-19)
(0.00903667 0.0100643 5.65857e-19)
(0.028684 0.00945304 -1.26856e-19)
(0.0114891 0.00410368 6.29109e-19)
(0.0210154 0.0031805 -4.04222e-19)
(0.0246959 -0.0254078 9.68814e-19)
(0.0174233 -0.0320952 9.47854e-19)
(0.00327403 -0.0451133 -8.71858e-20)
(-0.010866 -0.0354658 -7.61834e-19)
(-0.0193599 -0.0235819 6.39126e-19)
(-0.0275179 -0.0201797 1.43103e-19)
(-0.0335589 -0.00853329 -2.3716e-19)
(-0.0202636 3.55312e-05 7.45461e-20)
(-0.0215529 0.00796541 5.48183e-20)
(-0.0144508 -0.00571239 2.10949e-19)
(-0.00961329 0.0107955 -2.55172e-19)
(-0.00341131 0.00907802 -6.2533e-20)
(0.00191454 0.0107366 1.95796e-19)
(0.00484695 0.00883026 -9.76052e-20)
(0.0050566 0.00691589 2.87814e-20)
(0.00464309 0.00503142 -9.3958e-21)
(0.00468362 0.00221753 0)
(0.0046603 0.000535614 0)
(0.00468273 -0.00135526 0)
(0.00504642 -0.00177316 0)
(0.00543016 -0.00120569 0)
(0.00593667 -0.00123767 0)
(0.00293469 0.00392708 0)
(0.00361436 -0.000969813 0)
(0.00358164 0.00277691 0)
(0.00464831 0.000660578 0)
(0.00522575 0.00163259 0)
(0.00599143 0.00173198 0)
(0.00590066 0.0043868 -4.86451e-21)
(0.00590272 0.00541239 2.50812e-20)
(0.00830903 0.00411884 1.65578e-20)
(0.0124513 0.00565142 -2.30537e-20)
(0.0182275 0.00265784 3.06942e-20)
(0.0236794 -0.00284877 -4.56962e-20)
(0.0195017 0.0216757 2.69035e-21)
(0.0159303 0.0139687 -6.10378e-20)
(0.019455 -0.000698897 -2.70525e-20)
(0.0378054 0.0260516 -4.2002e-20)
(0.0392457 0.00299185 2.95702e-19)
(0.0522181 -0.00606974 -1.24034e-19)
(0.0425967 -0.0271432 -1.26741e-19)
(0.0335318 -0.0576045 1.14531e-19)
(-0.00132166 -0.069726 7.27147e-19)
(-0.0290122 -0.0541644 2.66914e-19)
(-0.0401917 -0.0305723 -1.60769e-19)
(-0.0311483 -0.0114917 -1.13136e-19)
(-0.0238493 0.000899858 1.58809e-19)
(-0.0208808 -0.00896794 -8.02553e-19)
(-0.0182549 0.0192835 4.60727e-20)
(-0.00244572 -0.00407094 9.67413e-20)
(0.00464612 0.006521 -6.2872e-20)
(0.00751661 0.00820021 2.47332e-20)
(0.00911075 0.00840659 -3.00011e-20)
(0.0115342 0.00835848 -2.05341e-20)
(0.0119138 0.00756631 2.39728e-20)
(0.00999863 0.00555825 1.17972e-21)
(0.00974984 0.00459124 0)
(0.00961814 0.00399621 0)
(0.0090803 0.00462891 0)
(0.007586 0.00140582 0)
(0.00694856 0.00376189 0)
(0.00602306 -0.00294734 0)
(0.00238434 -0.00892504 0)
(0.00312495 -0.000426206 0)
(0.00513637 -0.00368433 0)
(0.00539975 -0.000774494 0)
(0.00550676 0.00128424 0)
(0.0054333 0.00281602 0)
(0.00550547 0.0048665 1.4608e-21)
(0.00728139 0.00536134 5.49217e-21)
(0.0153892 0.000456494 -2.17184e-20)
(0.0221756 -0.00179318 -4.07483e-21)
(0.0247747 0.00308651 2.97252e-20)
(0.0369879 -0.00800917 -1.27439e-20)
(0.0467144 -0.0144678 -1.69643e-20)
(0.0148973 0.0066464 3.29355e-20)
(0.0445854 0.0137312 -1.03173e-19)
(0.0240617 0.0149915 3.02547e-20)
(0.0372665 0.0239547 1.98081e-20)
(0.0734948 0.0109919 1.05551e-20)
(0.10417 -0.0247169 6.93569e-20)
(0.094645 -0.105391 7.70716e-19)
(-0.00396909 -0.159474 -1.28574e-18)
(-0.0939274 -0.091652 1.01429e-18)
(-0.0809318 -0.0159167 -1.10683e-20)
(-0.0538419 0.0094254 4.87903e-20)
(-0.0319442 0.0045903 -1.01022e-20)
(-0.00766638 0.00247518 -4.24764e-20)
(0.00835429 0.0147852 -8.5001e-20)
(0.0203016 0.0173044 2.59128e-20)
(0.0201306 0.00884092 1.78609e-21)
(0.0132729 -0.000376695 -2.20907e-20)
(0.0125616 0.00012647 1.57525e-21)
(0.0152307 0.0033197 1.20485e-20)
(0.016135 0.00458012 -7.21384e-21)
(0.0133436 0.00261932 -1.24937e-21)
(0.0106621 0.000300984 0)
(0.00978326 -0.000394013 0)
(0.00919554 -0.000122478 0)
(0.00891872 0.0023104 0)
(0.0075413 -0.00195252 0)
(0.00726225 0.00837163 0)
(0.00533688 0.00637749 0)
(0.00238919 0.0060954 0)
(0.00107935 0.00555663 0)
(-0.000394963 0.00703993 0)
(0.000795208 0.00524244 0)
(0.00195043 0.00508341 0)
(0.00425979 0.00495371 3.21407e-22)
(0.0101822 0.00310671 -8.63404e-22)
(0.016865 0.00330416 1.42796e-21)
(0.0258638 -0.000757192 -3.62553e-21)
(0.0243361 0.00710468 1.93889e-21)
(0.0259014 0.00859024 6.57325e-21)
(0.028 0.000162244 -5.77778e-21)
(0.0388354 0.0166396 -5.85233e-21)
(0.0404105 0.0239501 -6.63315e-20)
(0.043077 0.0417911 1.3289e-20)
(0.0556204 0.0540189 1.26073e-19)
(0.0828717 0.0693857 1.49461e-20)
(0.123267 0.115406 -5.71592e-19)
(-0.0908745 0.117553 -1.92038e-18)
(-0.040581 0.0591569 1.93204e-20)
(-0.00268892 0.0530047 1.01809e-19)
(0.0237153 0.0497852 3.76672e-20)
(0.0339522 -0.000227643 1.58008e-20)
(0.0306256 0.0284809 2.14163e-21)
(0.0194531 0.00408881 -3.06029e-21)
(0.0149886 -0.00608907 5.54905e-21)
(0.0110365 -0.00585468 -4.12753e-21)
(0.0100706 -0.0042134 5.86864e-22)
(0.0135081 -0.00135141 7.3685e-22)
(0.0153955 0.000894317 3.53367e-22)
(0.0124845 -0.000211733 0)
(0.00937672 -0.00195498 0)
(0.00717341 -0.00425642 0)
(0.00726653 -0.00347652 0)
(0.00772763 -0.0037472 0)
(0.0105336 -0.00576027 0)
(-0.00184453 0.00863028 0)
(0.00191335 0.000228716 0)
(0.00115071 0.00497642 0)
(0.00243832 0.00236204 0)
(0.00198508 0.00240631 0)
(0.00208053 0.00364704 0)
(0.00168935 0.00510937 1.095e-22)
(0.00633051 0.00362906 4.25912e-21)
(0.00488968 0.00737115 -7.4005e-21)
(0.0036329 0.00740552 5.02729e-21)
(0.00205739 0.0112406 -2.75119e-21)
(-0.010571 0.0139217 -4.79791e-21)
(-0.0196098 0.011091 1.23693e-20)
(-0.00335158 0.0257446 -6.56751e-20)
(-0.0185677 0.0292646 4.37578e-20)
(-0.00419186 0.0495572 -8.36974e-20)
(0.00250583 0.0800607 -5.83711e-20)
(0.0253955 0.117996 1.28532e-20)
(-0.0253491 0.192328 3.98478e-18)
(0.0317869 0.194636 1.06885e-18)
(0.030473 0.0886983 7.92571e-21)
(0.0188838 0.0432676 -3.55707e-20)
(0.0104749 0.038772 -3.42895e-20)
(0.016555 0.0104798 1.38902e-20)
(0.000568207 0.0235428 -2.8063e-20)
(0.00846179 0.00247342 -1.09173e-20)
(0.00393124 -0.00278824 4.24203e-21)
(0.00649049 -0.00398438 1.8011e-21)
(0.00326896 -0.00717226 -4.20502e-21)
(0.00603041 -0.00623907 4.70422e-21)
(0.0119525 -0.00233621 -1.07525e-21)
(0.0147219 -0.000584219 0)
(0.013844 0.000268824 0)
(0.0123538 0.000540758 0)
(0.0096159 -0.00292062 0)
(0.00955793 0.00170319 0)
(0.00368096 -0.00986267 0)
(-0.000813336 -0.018085 2.24802e-22)
(0.000472564 -0.00634281 0)
(0.00345368 -0.00583574 0)
(0.00395782 -0.00357737 0)
(0.000811332 -0.000621006 0)
(-0.00365692 0.000120999 0)
(-0.00330386 0.00170658 5.75822e-22)
(-0.00196361 0.000923848 2.67914e-20)
(-0.002729 0.00450296 -1.59447e-20)
(-0.0100427 0.0103252 -2.37313e-20)
(-0.0104809 0.0124143 7.56771e-21)
(-0.0229868 0.00486633 9.65439e-20)
(-0.0448117 0.00594148 -7.06048e-20)
(-0.0405332 0.0127315 -1.25374e-20)
(-0.0462196 0.0296446 -2.55605e-19)
(-0.0588759 0.0691612 3.24046e-19)
(-0.043192 0.0901938 -4.63388e-19)
(0.154168 0.0374693 2.69581e-20)
(-0.121982 -0.126791 9.51864e-19)
(0.0626739 0.190113 -2.00066e-19)
(0.203619 0.0550606 -1.7974e-20)
(0.0470923 0.0131166 1.70217e-20)
(0.013602 0.00720743 -5.15238e-19)
(0.00675981 0.0106289 -3.82793e-19)
(0.00691909 0.0244564 1.85511e-19)
(-0.00731636 0.0186302 -1.4302e-19)
(-0.00591398 0.00483938 -1.05109e-19)
(0.000911293 -8.94823e-05 -3.23755e-20)
(-0.00268304 -0.00602929 -7.87207e-22)
(-0.00265931 -0.00583537 3.51847e-21)
(0.00235221 -0.00524375 -5.42958e-21)
(0.00490704 -0.00222827 0)
(0.00720654 -0.0012467 0)
(0.00705692 0.00149403 0)
(0.00632253 0.00360053 0)
(0.00359851 0.00421956 0)
(0.00037996 0.0208596 0)
(0.00895501 0.0113604 1.29687e-23)
(0.00328392 0.00905736 0)
(-0.00401548 0.00242165 0)
(-0.00741078 0.00254192 0)
(-0.00806404 0.00299592 0)
(-0.0075417 0.00340664 0)
(-0.0068259 0.00280447 -2.00743e-21)
(-0.0079398 0.00109492 1.27519e-21)
(-0.0121762 0.000137673 4.63568e-21)
(-0.0195993 0.000652673 -1.77373e-20)
(-0.0289262 -0.00204387 1.51029e-19)
(-0.0372549 -0.00667758 -1.4523e-19)
(-0.0629966 -0.0228449 3.90747e-20)
(-0.0353775 0.0223238 -1.01743e-19)
(-0.0571374 0.0396967 2.87609e-19)
(-0.0894644 0.0383995 -3.41987e-19)
(-0.0666125 0.122747 -2.13624e-19)
(0.41727 0.0525182 -5.36253e-19)
(0.0915799 -0.0900826 -1.09712e-19)
(-0.512086 0.312483 2.84008e-20)
(0.394502 -0.000590762 -1.14441e-20)
(-0.107913 -0.0338584 -8.93223e-20)
(-0.223732 0.0204453 -4.92295e-19)
(0.416323 -0.0239697 -2.05164e-19)
(0.0285253 -0.0301909 -5.15465e-19)
(-0.00916777 0.00910414 4.93646e-19)
(-0.0362289 0.0138078 -2.36103e-19)
(0.000686834 0.00793445 1.57942e-19)
(-0.00217384 0.0159881 -1.48491e-19)
(0.000121093 0.00811847 -5.31156e-20)
(-0.00435731 0.00415491 5.02067e-20)
(-0.00480645 -0.000709483 -6.15825e-20)
(-0.00521234 -0.000597499 1.63123e-20)
(-0.00458612 -0.00393271 5.60545e-22)
(0.00334497 -0.00404045 0)
(0.00115053 -0.00346861 0)
(-0.000322424 -0.00261777 0)
(0.00240949 -0.00144089 0)
(0.0097649 -0.00918694 0)
(0.0180455 -0.0110986 0)
(-0.0115047 0.00162084 -3.60195e-21)
(-0.00808154 -0.000464899 0)
(-0.00846709 -0.000401668 0)
(-0.00964057 -0.00175145 0)
(-0.0125298 -0.00283712 0)
(-0.0126565 -0.00404314 0)
(-0.0117263 -0.000874144 9.49032e-23)
(-0.0189583 0.000958626 2.85673e-21)
(-0.0275276 -0.000114865 -1.29636e-20)
(-0.037365 0.00231959 2.32996e-20)
(-0.0417957 -0.00864157 -5.70218e-20)
(-0.0621975 -0.0445468 -1.05615e-19)
(-0.0479879 0.00704553 2.10346e-19)
(-0.0452623 -0.00779896 -2.10482e-19)
(-0.155992 -0.0396345 2.6748e-20)
(-0.202977 0.0613104 2.79051e-19)
(-0.134236 0.103122 -9.34792e-19)
(0.667213 0.154615 3.50417e-18)
(-1.20071 1.17408 -1.16237e-18)
(0.798917 0.513602 9.23505e-18)
(1.12351 0.335523 -1.53007e-19)
(-0.972392 -1.11012 1.26829e-19)
(-0.197843 -0.389389 1.606e-19)
(0.453769 -0.0800332 1.99187e-18)
(-0.0703921 -0.0187324 1.77336e-19)
(0.0270465 -0.0499628 6.44166e-19)
(0.0105212 -0.0427808 -2.57146e-19)
(0.00318943 0.0414081 -8.357e-20)
(0.0237924 -0.0222172 -3.66836e-19)
(0.007255 0.00277001 1.05887e-20)
(0.00380992 0.00734658 -3.3518e-20)
(0.00083247 0.00426857 -1.18286e-21)
(-0.00480869 0.00461684 -6.55694e-21)
(-0.00543885 0.00188588 -1.0688e-22)
(0.000221996 0.000385053 0)
(0.00138643 -3.28078e-05 0)
(0.00422614 -0.00161708 0)
(0.00535615 -0.00210178 0)
(0.00215409 0.000739174 0)
(-0.00204239 0.000891778 7.96999e-21)
(-0.00470081 5.48542e-05 3.19552e-21)
(-0.00368594 -0.00375185 0)
(-0.0022077 -0.00523833 0)
(-0.00448681 -0.00594108 0)
(-0.00537846 -0.00672473 0)
(-0.00993775 -0.00574031 0)
(-0.018822 -0.00763854 0)
(-0.0224537 -0.00575764 1.58164e-21)
(-0.0228401 -0.00273249 -3.09018e-20)
(-0.0198519 -0.00582074 6.37648e-20)
(-0.0206626 -0.0130893 -5.79508e-20)
(-0.0403397 -0.00999766 1.25048e-20)
(-0.0522892 -0.0780441 -5.92649e-20)
(-0.0973358 -0.133499 2.16926e-19)
(-0.132887 -0.0653301 -3.68075e-19)
(-0.253393 -0.151794 1.80735e-19)
(-0.0669729 0.0174551 1.31836e-19)
(-0.112313 0.85358 2.02543e-18)
(-0.520324 -0.511788 -6.41897e-19)
(-0.309442 2.01816 -1.07842e-18)
(0.662681 -2.42528 -1.87101e-18)
(1.78771 2.32556 -4.04462e-18)
(-0.950989 -1.14938 4.08161e-19)
(-0.509143 0.321918 -8.83046e-18)
(0.10367 0.0400236 1.17038e-18)
(-0.00063417 0.0565972 -9.50844e-19)
(0.0569715 -0.00770673 -1.37811e-19)
(0.0211021 -0.0326346 4.82695e-20)
(-0.00195122 0.00795194 -5.20557e-20)
(-0.0124788 0.00741856 2.73679e-20)
(-0.00981352 0.00659546 -6.00501e-20)
(-0.0039129 0.00381421 3.14292e-20)
(-0.00318655 0.00271071 2.04604e-21)
(-0.00167728 -0.000585112 0)
(-0.00361837 0.00268017 0)
(-0.000830206 0.00135731 0)
(0.00263872 0.000579809 0)
(0.00406676 0.00154477 0)
(0.00308928 0.0052463 0)
(0.00709463 0.000788688 1.37697e-20)
(-0.00813228 0.000970863 2.17738e-21)
(-0.0105148 -0.00211293 0)
(-0.00855626 -0.00132102 0)
(-0.00661255 -0.00233338 0)
(-0.00492394 -0.00498154 0)
(-0.00611133 -0.00680327 0)
(-0.00987323 -0.0101709 0)
(-0.0144915 -0.0195265 0)
(-0.018128 -0.0292845 -1.14769e-21)
(-0.0167272 -0.0398879 -5.54643e-21)
(-0.00667285 -0.045782 4.00176e-21)
(0.00722518 -0.0586003 2.06429e-20)
(0.00449542 -0.100458 -2.57531e-20)
(-0.0707964 -0.183045 -1.7799e-19)
(-0.0971116 -0.236752 6.22421e-20)
(-0.15747 -0.192145 3.77014e-19)
(-0.320422 -0.377154 3.318e-19)
(-0.988059 0.804671 3.5488e-19)
(-0.877069 -1.77992 -5.44304e-20)
(0.325681 -1.37853 -1.83433e-18)
(1.1608 2.32141 -8.14532e-19)
(0.538551 -1.31291 1.17023e-18)
(-0.835979 0.0155333 -1.32179e-18)
(0.0834049 0.566548 2.3718e-20)
(0.0781051 0.243832 6.50731e-19)
(0.126231 -0.0195348 -1.64663e-19)
(0.0806425 -0.112413 -1.93986e-19)
(0.0142307 -0.0275669 2.70682e-19)
(-0.00986626 -0.0183167 -1.52794e-20)
(0.00285617 -0.0108964 -3.51469e-20)
(-0.00324345 -0.00849404 1.3761e-20)
(-0.00354763 -0.00656017 4.87513e-21)
(-0.00623568 -1.659e-05 0)
(-0.0060014 0.00575983 0)
(-0.00721884 0.00469581 0)
(-0.00663564 0.00311337 0)
(-0.00757431 0.00402174 2.04046e-20)
(-0.00745093 0.00278585 2.82183e-20)
(-0.00635758 0.00143587 1.68268e-20)
(-0.00139784 -0.00218395 0)
(-0.00667358 -0.00210747 0)
(-0.00897566 -0.0028363 0)
(-0.00816586 -0.0031182 0)
(-0.00621002 -0.00156263 0)
(-0.00252201 -0.00116879 0)
(-0.00138053 -0.00404627 0)
(-0.00168464 -0.0052473 0)
(0.0089451 -0.00566183 0)
(0.0195275 -0.0207393 -9.30384e-24)
(0.0317483 -0.0431613 2.01014e-21)
(0.0317882 -0.0637088 -1.27099e-21)
(0.0756193 -0.0816235 -2.64759e-20)
(0.0920631 -0.131593 5.48788e-20)
(0.102467 -0.158114 -1.91005e-19)
(0.0794787 -0.246204 2.40859e-18)
(0.043616 -0.549948 2.24046e-19)
(-0.897986 -0.279695 -7.85731e-19)
(-0.696331 -0.792358 -1.78257e-18)
(0.525789 1.48942 -8.7185e-19)
(3.21719 -0.642186 -1.1352e-18)
(0.236937 -4.4285 3.8728e-19)
(-3.14203 1.04331 1.56007e-18)
(-0.118926 1.57393 7.0412e-19)
(-0.467103 -0.264346 -3.50938e-20)
(0.662027 -0.305821 -4.97539e-19)
(0.146389 -0.139122 2.3849e-19)
(-0.0243091 -0.123649 -4.81655e-20)
(-0.0520673 -0.0492458 4.73932e-20)
(-0.0459362 -0.0387158 6.49901e-20)
(-0.0302641 -0.0240726 -1.61162e-21)
(-0.0266439 -0.00442947 5.45197e-22)
(-0.0168344 0.0034192 1.26231e-23)
(-0.00500302 0.00974295 0)
(0.00339046 0.00442122 0)
(-0.00248021 0.00211655 0)
(-0.00282134 0.00213773 0)
(-0.00290518 0.00283118 0)
(-0.00466659 0.000740014 0)
(-0.00601765 -4.68022e-05 0)
(-0.00335203 -0.00028983 -3.03054e-21)
(-0.00107091 -6.60226e-05 0)
(-0.003818 0.00482653 0)
(-0.00126072 0.00496346 0)
(-0.000357567 0.0057891 0)
(0.000185914 0.00669204 0)
(0.00162493 0.00571333 0)
(0.00485151 0.0021412 0)
(0.00959701 -0.00169062 0)
(0.0232963 -0.00365973 0)
(0.0474181 -0.0201367 0)
(0.0666418 -0.0257096 8.51182e-22)
(0.109951 -0.0560973 -7.81126e-21)
(0.16587 -0.0687367 5.41769e-21)
(0.260293 -0.0406919 9.08343e-21)
(0.229358 -0.265415 7.0264e-18)
(-0.252988 -0.370623 -1.62781e-19)
(-0.658562 0.0031162 3.01454e-18)
(1.08217 -1.26683 1.11057e-18)
(-0.458688 -1.05987 -1.31633e-18)
(-1.16073 -2.08669 3.7414e-18)
(0.314508 -2.23097 -2.53128e-18)
(1.15998 -1.54344 -3.20158e-19)
(-0.525078 -0.558103 1.05152e-18)
(-1.2486 -1.16576 1.35887e-19)
(0.916233 -0.248063 -1.75575e-18)
(0.078915 -0.324438 1.71636e-20)
(-0.161705 -0.0449266 -1.90881e-20)
(-0.137628 -0.018478 1.04134e-21)
(-0.0862091 -0.0163697 1.57065e-20)
(-0.0588924 0.00182497 -4.8945e-23)
(-0.0340082 0.00235315 0)
(-0.0148266 0.00354402 0)
(-0.000280491 -0.000861139 0)
(-0.000619496 -0.00111293 0)
(-0.00357587 0.00104656 0)
(-0.0027638 0.001481 0)
(-0.0022302 0.002082 0)
(-0.00214266 0.00257229 0)
(0.000399007 0.00121877 0)
(0.000496966 0.000831468 0)
(-0.00438147 0.00250432 0)
(-0.00755196 0.00569129 0)
(-0.00932541 0.00910119 0)
(-0.00640737 0.0131682 0)
(-0.00337729 0.0151087 0)
(0.00294204 0.0157279 0)
(0.010054 0.0153978 0)
(0.0197922 0.0103388 0)
(0.0391011 0.0109663 0)
(0.0662969 0.00538244 0)
(0.0923516 0.0192694 0)
(0.132977 0.0129555 -3.42923e-22)
(0.170064 -0.00729069 3.21041e-21)
(0.212959 -0.0176385 -1.79037e-20)
(0.403452 0.0668102 2.39948e-18)
(0.306137 0.0342428 -8.18637e-19)
(-0.952957 -0.828565 2.08784e-18)
(1.1643 0.121543 -9.99899e-21)
(0.532092 -0.363967 2.02519e-18)
(-0.411684 0.211469 -1.12301e-19)
(-0.106054 0.913525 2.58579e-19)
(0.074355 0.12995 1.05903e-18)
(-0.946246 -0.203596 4.06317e-21)
(-0.214526 -0.0551282 2.87854e-20)
(0.367437 -1.05361 2.16022e-19)
(-0.480594 -0.269452 -9.8079e-20)
(-0.21677 0.0599907 -2.78867e-19)
(-0.142008 0.0201258 -3.03944e-21)
(-0.101511 0.0442132 1.84659e-23)
(-0.0636528 0.0315284 0)
(-0.041101 0.0136481 0)
(-0.0186392 0.0122152 0)
(-0.00537163 0.00739856 0)
(-0.00479685 0.00919659 0)
(-0.00355308 0.00698133 0)
(-0.00103885 0.00489616 0)
(0.00173087 0.00205812 0)
(0.00399932 -0.00044276 0)
(0.00285243 -0.00247789 0)
(0.00127166 0.000238392 0)
(-0.0127606 0.00359029 0)
(-0.00950687 0.00694134 0)
(-0.00889072 0.00822952 0)
(-0.00840963 0.0101481 0)
(-0.00585483 0.0131503 0)
(0.00153757 0.0181456 0)
(0.0141385 0.0246269 0)
(0.0277292 0.0269331 0)
(0.0397996 0.0287384 0)
(0.0515125 0.0391791 0)
(0.0837905 0.0558984 -1.08921e-20)
(0.0839835 0.0907031 0)
(0.169092 0.103316 0)
(0.144918 0.173256 4.3284e-19)
(0.37495 0.430642 7.45183e-19)
(0.595138 0.313612 3.94585e-18)
(1.65543 0.639058 8.45013e-20)
(-0.631751 -1.01771 -1.60414e-19)
(-2.04841 -1.12386 1.18779e-18)
(-2.15411 -0.473645 -4.21568e-18)
(0.355994 -0.254906 8.41065e-19)
(1.94337 -0.461382 -1.55741e-18)
(1.39038 -1.21498 9.61311e-20)
(-0.424096 0.0205289 -1.07432e-19)
(-0.623118 1.02165 -1.73962e-20)
(-0.752957 0.341123 -2.48693e-20)
(-0.29955 0.291965 2.63871e-19)
(-0.133731 0.120755 0)
(-0.0367559 0.0799148 0)
(-0.0234622 0.0456197 7.16049e-21)
(-0.00977312 0.0211386 0)
(-0.0032125 0.0166447 0)
(-0.00227491 0.0143275 0)
(0.0018852 0.0152997 0)
(0.00700924 0.00853144 0)
(0.00664529 0.00383946 0)
(0.00506523 0.000590734 0)
(0.00280736 0.000388698 -3.35824e-21)
(0.00143847 0.00122364 -2.40924e-21)
(0.00282943 0.00164981 0)
(-0.0165524 0.000677209 0)
(-0.0123619 0.00241148 0)
(-0.00942629 0.00557938 0)
(-0.0085425 0.00846409 0)
(-0.00892508 0.0122674 0)
(-0.00595558 0.017171 0)
(0.00156314 0.0253025 0)
(0.013779 0.0403854 0)
(0.0295975 0.0505111 0)
(0.0301663 0.0734152 0)
(0.0492659 0.0760368 6.3327e-20)
(0.0401854 0.122551 0)
(0.0369341 0.132258 0)
(0.0277429 0.102258 -6.54425e-20)
(0.329445 0.268387 -3.26601e-18)
(0.9974 0.410019 -3.15026e-19)
(-0.169925 -0.205563 0)
(-1.25933 0.591066 2.63984e-19)
(-1.33575 1.70261 -1.39601e-18)
(-0.892368 1.14559 1.72086e-18)
(0.922732 1.02274 3.16117e-18)
(1.53224 1.05926 2.69663e-18)
(1.59009 -0.150694 -2.43704e-19)
(0.598973 -0.622959 0)
(-0.68846 0.810888 -4.07723e-19)
(-0.517961 0.646524 6.82074e-19)
(-0.0565334 0.218244 -2.26054e-19)
(0.0353365 0.157634 0)
(0.0267167 0.0973735 0)
(0.0108878 0.0325724 -6.74141e-20)
(0.00316651 0.0210343 0)
(0.00063174 0.0136303 0)
(0.00584049 0.00893691 0)
(0.0117966 0.00474726 0)
(0.0135775 0.00243689 0)
(0.0106817 0.00211724 6.07552e-21)
(0.00764715 0.0021907 -7.89505e-21)
(0.00646902 0.00154411 0)
(0.00596131 0.000509646 0)
(0.00408663 -0.000752525 -1.85531e-20)
(-0.0165222 -0.00259321 0)