/*--------------------------------*- C++ -*----------------------------------*\
| =========                 |                                                 |
| \\      /  F ield         | OpenFOAM: The Open Source CFD Toolbox           |
|  \\    /   O peration     | Version:  v2106                                 |
|   \\  /    A nd           | Website:  www.openfoam.com                      |
|    \\/     M anipulation  |                                                 |
\*---------------------------------------------------------------------------*/
FoamFile
{
    version     2.0;
    format      ascii;
    arch        "LSB;label=32;scalar=64";
    class       volVectorField;
    location    "0";
    object      U;
}
// * * * * * * * * * * * * * * * * * * * * * * * * * * * * * * * * * * * * * //

dimensions      [0 1 -1 0 0 0 0];

internalField   nonuniform List<vector> 
11644
(
(0.996662 -0.000220602 1.72082e-23)
(0.996553 -0.000575028 4.74551e-23)
(0.99649 -0.000837534 2.54608e-23)
(0.996474 -0.00110576 0)
(0.996466 -0.00138391 0)
(0.996463 -0.0016677 0)
(0.99646 -0.00194805 0)
(0.996456 -0.00221395 0)
(0.996453 -0.00245238 0)
(0.99644 -0.00265227 0)
(0.996445 -0.00278987 0)
(0.996419 -0.00285287 0)
(0.99642 -0.002813 0)
(0.996574 -0.00266869 0)
(0.996408 -0.00236634 0)
(0.996393 -0.00197374 0)
(0.996341 -0.00146671 0)
(0.996097 -0.000782818 0)
(0.995855 0.000174985 0)
(0.995866 0.00134925 3.3712e-30)
(0.99615 0.00245099 -3.3888e-30)
(0.9965 0.00325544 0)
(0.996631 0.00370271 0)
(0.996538 0.00397233 0)
(0.996444 0.00418225 0)
(0.996477 0.00432843 0)
(0.99667 0.00434674 0)
(0.996498 0.00423746 0)
(0.996434 0.00403989 0)
(0.996459 0.00374978 0)
(0.996482 0.00340767 0)
(0.996474 0.00304415 0)
(0.996478 0.00266224 0)
(0.996478 0.00228434 0)
(0.996477 0.00191628 0)
(0.996478 0.00156458 0)
(0.996482 0.00123235 0)
(0.9965 0.000921584 0)
(0.996567 0.000618532 0)
(0.996675 0.000231833 3.33649e-24)
(0.997417 -0.000454232 2.21038e-23)
(0.997331 -0.00136938 2.04752e-23)
(0.997267 -0.00228089 1.09966e-23)
(0.997251 -0.00317567 0)
(0.997258 -0.00406572 0)
(0.997261 -0.00495772 0)
(0.997249 -0.005842 0)
(0.997214 -0.00669686 0)
(0.997145 -0.0074911 0)
(0.997045 -0.00818002 0)
(0.996873 -0.0087172 0)
(0.99666 -0.00902323 0)
(0.996335 -0.00904365 0)
(0.995721 -0.00870526 0)
(0.995531 -0.00792195 0)
(0.995053 -0.0066858 -2.54384e-24)
(0.994558 -0.00496961 3.74241e-24)
(0.994132 -0.00292219 -7.28082e-23)
(0.993724 -0.000644248 7.12498e-23)
(0.993476 0.00186191 3.08835e-22)
(0.993559 0.00455268 -2.80892e-22)
(0.99406 0.00724614 -5.75141e-23)
(0.994875 0.00958282 2.79176e-23)
(0.995576 0.0111393 -4.82045e-24)
(0.996031 0.0120258 1.85235e-24)
(0.996378 0.0124201 0)
(0.996571 0.0124825 0)
(0.997116 0.0121546 0)
(0.997397 0.0115188 0)
(0.997504 0.0106769 0)
(0.997558 0.00969155 0)
(0.997585 0.00861446 0)
(0.997561 0.00751516 0)
(0.99752 0.00641923 0)
(0.997469 0.00535037 0)
(0.997416 0.00431913 0)
(0.997374 0.00332567 0)
(0.997362 0.00235727 0)
(0.9974 0.0013982 0)
(0.997466 0.000460276 0)
(0.998964 -0.000719825 0)
(0.998903 -0.002212 0)
(0.998865 -0.00375328 0)
(0.998868 -0.00530497 0)
(0.998896 -0.00686674 2.01914e-23)
(0.998919 -0.00844497 0)
(0.998913 -0.0100331 0)
(0.998852 -0.0116083 0)
(0.998706 -0.0131248 0)
(0.998425 -0.0145239 0)
(0.997974 -0.0157074 0)
(0.997322 -0.0165587 0)
(0.99651 -0.0169202 1.95019e-24)
(0.995739 -0.0166582 -1.58216e-22)
(0.994091 -0.0156655 1.80756e-22)
(0.992765 -0.0138552 4.30998e-22)
(0.991457 -0.0111971 9.01837e-23)
(0.99018 -0.00771317 -3.54996e-22)
(0.989173 -0.00361585 -1.45459e-22)
(0.988632 0.000847563 -2.02782e-22)
(0.988706 0.00539511 -1.1644e-22)
(0.989483 0.00983986 6.90524e-23)
(0.991006 0.0139075 7.43655e-22)
(0.993011 0.0171857 -6.98901e-22)
(0.994751 0.0191882 1.27044e-22)
(0.996185 0.0201179 -9.24546e-23)
(0.997561 0.0202295 1.28146e-22)
(0.998251 0.0196856 -1.3516e-24)
(0.998931 0.0186408 0)
(0.999399 0.0172055 0)
(0.99961 0.0155612 0)
(0.999665 0.0138053 0)
(0.999623 0.0120075 0)
(0.999513 0.0102298 0)
(0.999373 0.00850004 0)
(0.999229 0.00683317 0)
(0.999104 0.00522852 0)
(0.999021 0.00366986 0)
(0.998994 0.00215803 0)
(0.999017 0.000703422 0)
(1.00135 -0.00102775 0)
(1.00131 -0.0031108 0)
(1.00132 -0.00526089 0)
(1.00138 -0.00746579 0)
(1.00147 -0.00973424 0)
(1.00156 -0.0120704 0)
(1.00161 -0.0144729 0)
(1.00157 -0.0169199 0)
(1.00137 -0.019369 0)
(1.00094 -0.0217375 0)
(1.00022 -0.0238925 -1.1789e-24)
(0.999051 -0.0256576 -9.25285e-23)
(0.997292 -0.026838 1.05848e-22)
(0.994531 -0.0272774 1.18752e-22)
(0.992298 -0.02633 5.17856e-23)
(0.989177 -0.0241334 8.37009e-22)
(0.986062 -0.0204813 -7.72856e-22)
(0.983235 -0.0153786 -1.12105e-21)
(0.981243 -0.00909596 1.27494e-22)
(0.980409 -0.002161 6.10213e-23)
(0.980661 0.00504018 4.85713e-22)
(0.982119 0.0119262 -2.7811e-22)
(0.984765 0.0180369 7.22164e-22)
(0.988429 0.022903 -8.32135e-22)
(0.992317 0.0263424 6.88441e-22)
(0.995545 0.0279937 5.33806e-23)
(0.99779 0.0282493 -1.78443e-22)
(1.00003 0.0272839 1.07818e-23)
(1.00135 0.0256246 1.69529e-23)
(1.00213 0.0235156 1.20627e-25)
(1.00256 0.0211288 0)
(1.00267 0.0186452 0)
(1.00257 0.0161527 0)
(1.00235 0.0137138 0)
(1.00209 0.0113644 0)
(1.00182 0.00911543 0)
(1.00158 0.00695985 0)
(1.0014 0.00489158 0)
(1.00131 0.00287883 0)
(1.0013 0.000953296 0)
(1.00455 -0.0013093 0)
(1.00456 -0.00398249 0)
(1.00466 -0.00674211 0)
(1.00483 -0.00959726 0)
(1.00505 -0.0125846 0)
(1.00529 -0.0157276 0)
(1.00548 -0.0190342 0)
(1.00556 -0.0225011 0)
(1.00541 -0.0260934 0)
(1.00493 -0.0297332 1.23581e-23)
(1.00383 -0.0332837 1.25652e-23)
(1.00194 -0.0365272 -4.87284e-22)
(0.999256 -0.0390619 1.48249e-22)
(0.996332 -0.0403537 -5.49143e-22)
(0.990925 -0.0405803 1.79543e-21)
(0.985438 -0.0385099 -1.15152e-21)
(0.979891 -0.0343381 4.02311e-22)
(0.974504 -0.0279603 3.68451e-22)
(0.970153 -0.018967 3.5263e-22)
(0.967662 -0.00798143 -1.70023e-21)
(0.967808 0.00385107 2.39945e-21)
(0.970697 0.0150313 2.32791e-22)
(0.975747 0.0242354 -1.74225e-21)
(0.982567 0.0309297 2.21084e-22)
(0.9887 0.0351098 -4.37355e-23)
(0.994567 0.0372762 -1.18382e-21)
(0.999761 0.0371713 9.4774e-22)
(1.0026 0.0356409 6.24387e-22)
(1.00476 0.0330215 -6.83506e-22)
(1.00595 0.0298746 7.3677e-24)
(1.00646 0.0265718 1.67556e-23)
(1.00658 0.0232346 0)
(1.00638 0.0200008 0)
(1.006 0.0168957 0)
(1.00556 0.0139471 0)
(1.00513 0.0111523 0)
(1.00474 0.00850135 0)
(1.00445 0.00596917 0)
(1.00426 0.00354418 0)
(1.00421 0.00115508 0)
(1.00849 -0.00157424 0)
(1.00858 -0.00478273 0)
(1.00882 -0.0080718 0)
(1.00918 -0.0115329 0)
(1.00965 -0.0152098 0)
(1.01017 -0.0191587 0)
(1.01067 -0.0234167 0)
(1.01105 -0.0280108 0)
(1.01116 -0.0329269 -4.6281e-23)
(1.01072 -0.0381002 -1.19686e-22)
(1.00949 -0.0433864 1.98278e-22)
(1.00738 -0.0484979 6.24847e-22)
(1.00396 -0.0532734 -7.73455e-22)
(0.997639 -0.0579165 1.30605e-21)
(0.991261 -0.0591451 -3.68634e-21)
(0.982193 -0.0579985 1.96012e-21)
(0.971859 -0.0543334 -5.64687e-22)
(0.961015 -0.045742 1.30321e-21)
(0.952349 -0.0318764 -1.01812e-21)
(0.947361 -0.0149958 6.50497e-22)
(0.947455 0.00291599 -2.54092e-21)
(0.952482 0.0198569 3.77775e-21)
(0.961621 0.0340508 -1.9181e-21)
(0.972702 0.0430111 1.40694e-21)
(0.984295 0.0475426 -2.59977e-21)
(0.994154 0.0495346 3.24465e-21)
(1.00098 0.0487892 -1.46025e-21)
(1.00681 0.0451844 -2.72812e-22)
(1.00977 0.0410707 3.2351e-22)
(1.01122 0.0365224 2.01189e-22)
(1.01163 0.0319682 4.26109e-23)
(1.01149 0.0276557 -3.26557e-23)
(1.01106 0.0235908 0)
(1.01043 0.019813 0)
(1.00973 0.0162904 0)
(1.00907 0.0130023 0)
(1.00849 0.00991685 0)
(1.00804 0.00697952 0)
(1.00776 0.0041341 0)
(1.00765 0.00138893 0)
(1.01305 -0.00180633 0)
(1.01324 -0.0053988 0)
(1.01368 -0.00916949 0)
(1.01435 -0.0131214 0)
(1.01519 -0.0173868 0)
(1.01618 -0.0220467 0)
(1.01721 -0.0272012 0)
(1.01817 -0.032918 -6.80689e-24)
(1.01876 -0.0391975 -6.16217e-23)
(1.01875 -0.0460072 2.09435e-22)
(1.01798 -0.0533779 -2.40727e-22)
(1.01588 -0.0614625 -6.01735e-23)
(1.01185 -0.0698716 3.28591e-22)
(1.00703 -0.0765667 -7.29079e-22)
(0.995026 -0.0837009 -2.6684e-21)
(0.980594 -0.0856986 2.92728e-21)
(0.968896 -0.0744683 1.37875e-21)
(0.952762 -0.0661248 -1.52592e-21)
(0.937525 -0.0490375 -3.56225e-21)
(0.927244 -0.0254655 -2.20535e-21)
(0.92563 0.00125141 -3.60758e-21)
(0.932785 0.0256718 -4.84312e-21)
(0.946018 0.0440852 -2.71579e-21)
(0.961529 0.0549996 5.09266e-22)
(0.981739 0.0681603 -2.47415e-21)
(0.996035 0.0675578 1.60305e-21)
(1.00778 0.0620379 1.22574e-21)
(1.01297 0.0568663 -2.13417e-22)
(1.01665 0.0499776 -4.91392e-22)
(1.01824 0.0434408 2.75452e-22)
(1.01834 0.0373349 -2.11226e-24)
(1.01767 0.031769 1.81041e-23)
(1.01668 0.0268058 4.47181e-24)
(1.01564 0.0223476 0)
(1.01458 0.018285 0)
(1.0136 0.0145371 0)
(1.01277 0.0110382 0)
(1.01214 0.00775049 0)
(1.01172 0.00458542 0)
(1.01155 0.00149309 0)
(1.01804 -0.00186542 0)
(1.01836 -0.0057577 0)
(1.01907 -0.0097747 0)
(1.02012 -0.0140779 0)
(1.0215 -0.0187812 0)
(1.02315 -0.0240057 0)
(1.025 -0.0298894 0)
(1.02682 -0.0365333 9.688e-23)
(1.02828 -0.0440076 -3.47347e-23)
(1.02938 -0.0525202 -2.32582e-22)
(1.02982 -0.0623771 -6.33965e-22)
(1.02896 -0.0734583 1.35122e-21)
(1.02585 -0.0854639 -7.73848e-22)
(1.01511 -0.094362 -7.18946e-22)
(1.00548 -0.10196 1.1935e-22)
(0.988912 -0.110235 -1.45348e-22)
(0.963413 -0.111944 -3.664e-22)
(0.935197 -0.102785 -3.53053e-22)
(0.905524 -0.0806039 -1.34238e-21)
(0.883803 -0.0435119 -1.49822e-21)
(0.879127 0.00197263 4.78379e-21)
(0.893662 0.0436893 -1.84669e-21)
(0.920723 0.0719979 -2.08374e-21)
(0.950188 0.0857022 -9.74005e-22)
(0.976751 0.0891576 -5.12793e-22)
(0.997385 0.084051 1.51797e-21)
(1.01045 0.0764836 -1.25043e-21)
(1.02413 0.0675596 -1.11781e-22)
(1.02662 0.0585369 1.38526e-22)
(1.02734 0.0499957 3.45047e-23)
(1.02669 0.042256 5.12852e-23)
(1.0252 0.0354226 -1.2153e-22)
(1.02331 0.0295162 5.55595e-23)
(1.02157 0.0243904 0)
(1.02001 0.019854 0)
(1.01863 0.0157376 0)
(1.01749 0.0119434 0)
(1.01662 0.0083769 0)
(1.01605 0.00498879 0)
(1.01581 0.00168013 0)
(1.02321 -0.00193375 0)
(1.0237 -0.00585402 0)
(1.02471 -0.00991057 0)
(1.02626 -0.014334 0)
(1.0283 -0.0191879 0)
(1.03081 -0.0246755 0)
(1.03372 -0.0309613 2.78325e-24)
(1.03668 -0.0381868 3.42486e-23)
(1.03962 -0.0465907 -2.75702e-22)
(1.04269 -0.0567168 1.40656e-22)
(1.04538 -0.0690675 -1.05896e-22)
(1.04691 -0.0838958 -1.19318e-22)
(1.04587 -0.102071 -1.53493e-22)
(1.03402 -0.116755 2.18143e-21)
(1.02306 -0.131832 1.68404e-21)
(1.00318 -0.149625 -1.1717e-21)
(0.971546 -0.155731 3.85207e-22)
(0.923494 -0.155468 2.64526e-21)
(0.86967 -0.132119 -2.402e-21)
(0.822302 -0.0767427 4.29704e-21)
(0.80718 0.00256522 1.30021e-21)
(0.833783 0.0744552 -2.26773e-21)
(0.88412 0.116756 1.64002e-21)
(0.938729 0.13137 -1.917e-23)
(0.978853 0.125481 -3.00102e-22)
(1.01084 0.113505 -6.42912e-22)
(1.0254 0.0961164 1.52672e-21)
(1.03918 0.080445 -1.40836e-22)
(1.0399 0.0656944 -5.70146e-23)
(1.03875 0.0548481 1.5445e-22)
(1.03662 0.0458603 -2.25587e-22)
(1.0339 0.0381375 4.22094e-23)
(1.03092 0.0314817 2.36938e-23)
(1.02816 0.0258332 2.30373e-24)
(1.02593 0.0209341 0)
(1.02405 0.01654 0)
(1.02253 0.0125232 0)
(1.02139 0.00875531 0)
(1.02065 0.00516077 0)
(1.02032 0.00165753 0)
(1.02828 -0.00189308 0)
(1.02894 -0.00552738 0)
(1.03033 -0.00951433 0)
(1.03241 -0.0136927 0)
(1.0352 -0.0183838 0)
(1.0387 -0.023748 0)
(1.04283 -0.029992 -2.05698e-23)
(1.04728 -0.0372948 2.18928e-23)
(1.05249 -0.0462646 8.77686e-23)
(1.05848 -0.057598 -4.12772e-23)
(1.06464 -0.0716525 -4.12634e-22)
(1.07029 -0.0891688 6.30591e-22)
(1.07458 -0.112249 -2.25256e-22)
(1.06573 -0.133677 -1.21163e-22)
(1.05796 -0.158897 5.78246e-22)
(1.03315 -0.189751 5.5417e-22)
(0.995731 -0.215861 1.62908e-23)
(0.930626 -0.243414 -6.85761e-22)
(0.82713 -0.241744 -2.56134e-22)
(0.705621 -0.163768 9.73055e-22)
(0.650999 0.00111259 -1.07555e-21)
(0.719792 0.158027 2.17192e-21)
(0.84502 0.222705 -9.97639e-22)
(0.944563 0.21398 -8.92833e-22)
(1.00913 0.181569 3.63304e-22)
(1.04486 0.145461 -9.17983e-22)
(1.05379 0.111698 9.90939e-23)
(1.061 0.0862147 6.0558e-23)
(1.05658 0.0687713 1.29558e-22)
(1.05209 0.056724 -1.40237e-22)
(1.04768 0.0471232 -6.05109e-23)
(1.04335 0.0391319 -1.06827e-23)
(1.03917 0.032275 3.89537e-23)
(1.03526 0.02638 -3.78211e-24)
(1.03219 0.0213078 0)
(1.02972 0.016809 0)
(1.02777 0.012705 0)
(1.02633 0.0089205 0)
(1.0254 0.00529847 0)
(1.02497 0.00183551 0)
(1.03293 -0.00148239 0)
(1.03376 -0.00488227 0)
(1.03543 -0.00822389 0)
(1.03805 -0.0119519 0)
(1.04164 -0.0161592 0)
(1.04623 -0.0210058 0)
(1.05165 -0.0266598 1.47158e-23)
(1.05805 -0.0335055 -4.62527e-23)
(1.06621 -0.0423388 3.1578e-23)
(1.07587 -0.0538266 6.13899e-23)
(1.08666 -0.0684422 4.86936e-23)
(1.0979 -0.0865943 -1.3845e-22)
(1.10904 -0.109143 6.28975e-23)
(1.10846 -0.138408 1.47831e-23)
(1.10963 -0.173009 -4.1018e-22)
(1.09969 -0.220003 3.28322e-23)
(1.0733 -0.280639 9.55421e-23)
(1.01317 -0.375382 -1.28831e-22)
(0.84814 -0.483552 -1.00447e-21)
(0.477059 -0.468411 -4.00659e-20)
(0.18728 0.0122755 -2.33177e-20)
(0.503374 0.472729 -1.36045e-20)
(0.87373 0.466436 8.72996e-22)
(1.03773 0.337805 8.50404e-24)
(1.09126 0.233229 -8.23903e-23)
(1.10354 0.158025 -1.09028e-24)
(1.09404 0.117926 4.40927e-24)
(1.08654 0.0804755 -1.17727e-22)
(1.07549 0.0657122 -4.63146e-24)
(1.06624 0.054131 8.17999e-23)
(1.05891 0.0451109 3.97585e-24)
(1.05284 0.0379028 -4.99228e-23)
(1.04751 0.0315887 1.35943e-23)
(1.04258 0.0259093 -8.92045e-24)
(1.03857 0.0209352 0)
(1.03547 0.0165176 0)
(1.03306 0.0124735 0)
(1.0313 0.00871477 0)
(1.03016 0.00515107 0)
(1.02964 0.00163455 0)
(1.03685 -0.00136856 0)
(1.03785 -0.00387708 0)
(1.03992 -0.00656823 0)
(1.04307 -0.0095118 0)
(1.04733 -0.0127649 0)
(1.05283 -0.0165393 0)
(1.05954 -0.0210218 1.98307e-23)
(1.06821 -0.0267488 2.19268e-23)
(1.07955 -0.034439 2.27545e-23)
(1.0931 -0.0445574 1.50809e-24)
(1.1089 -0.057642 -2.10459e-23)
(1.12666 -0.0741527 -2.93412e-23)
(1.14574 -0.0934715 -8.97197e-24)
(1.15296 -0.124807 3.28303e-23)
(1.17172 -0.159182 -1.48497e-22)
(1.18387 -0.211675 6.02032e-23)
(1.20169 -0.285914 -6.49792e-23)
(1.23573 -0.418103 9.50227e-22)
(0.906164 -0.481779 -7.62527e-20)
(1.11958 0.587963 1.41327e-20)
(1.28012 0.365819 8.61149e-23)
(1.21861 0.213358 3.32543e-22)
(1.17378 0.131658 -5.0839e-24)
(1.13741 0.0980856 2.9382e-23)
(1.11157 0.0642324 -3.05564e-22)
(1.09256 0.0539525 7.25381e-23)
(1.07867 0.0458785 1.03322e-22)
(1.06883 0.0395075 4.89557e-23)
(1.06129 0.0341437 4.22978e-23)
(1.05514 0.0291388 2.99771e-23)
(1.0496 0.0242673 1.58341e-23)
(1.04482 0.019737 0)
(1.04112 0.0156116 0)
(1.03825 0.0118189 0)
(1.03615 0.00824134 0)
(1.0348 0.00490629 0)
(1.03416 0.001595 0)
(1.03962 -0.000867042 0)
(1.04083 -0.0025514 0)
(1.04317 -0.00433259 0)
(1.04664 -0.00617488 0)
(1.05141 -0.00819869 0)
(1.05767 -0.0105109 0)
(1.06566 -0.013331 -5.63621e-25)
(1.07659 -0.0172526 -1.20956e-23)
(1.09086 -0.0227532 2.28645e-23)
(1.10785 -0.0299582 -2.07044e-23)
(1.12781 -0.0391347 1.7236e-23)
(1.15099 -0.0508837 -9.06831e-24)
(1.17732 -0.0643085 -8.23604e-23)
(1.19236 -0.0920422 -2.5402e-22)
(1.22605 -0.117008 -1.06466e-21)
(1.25648 -0.157873 9.99018e-23)
(1.30587 -0.204881 1.73962e-22)
(1.37898 -0.248106 1.49481e-21)
(0.00635529 0.0163746 2.61637e-19)
(0.0790553 0.00412002 -2.29118e-19)
(1.45418 0.166802 -3.74614e-22)
(1.30969 0.108206 5.94835e-23)
(1.22083 0.0669362 -1.39955e-21)
(1.16762 0.0553074 -2.68769e-21)
(1.12484 0.0377224 -1.45838e-22)
(1.10241 0.0360525 -1.60878e-22)
(1.08672 0.0336392 3.24004e-23)
(1.07567 0.0310439 3.53076e-24)
(1.06755 0.0282535 3.8692e-23)
(1.06129 0.0251153 -4.25898e-24)
(1.05574 0.0215134 5.48674e-24)
(1.05057 0.0176985 0)
(1.04639 0.0140853 0)
(1.04315 0.0107444 0)
(1.04077 0.00762149 0)
(1.03919 0.00452792 0)
(1.03841 0.00167798 0)
(1.04182 -0.000303011 9.18247e-26)
(1.04287 -0.000990504 0)
(1.0451 -0.00165786 0)
(1.04865 -0.002279 0)
(1.05365 -0.00290471 0)
(1.06031 -0.0035015 0)
(1.06938 -0.00429269 7.59701e-25)
(1.08213 -0.00579917 -2.01374e-23)
(1.09842 -0.00811686 7.78314e-23)
(1.11755 -0.0111595 -1.58383e-22)
(1.13987 -0.014825 3.16678e-22)
(1.16636 -0.0197009 3.38088e-22)
(1.19665 -0.024778 -5.77561e-22)
(1.21999 -0.045969 1.31862e-22)
(1.26039 -0.0603475 1.06976e-22)
(1.29818 -0.0880682 -6.43611e-22)
(1.34777 -0.113038 -4.14761e-22)
(1.26811 -0.105262 -1.24387e-22)
(-0.00596864 -0.0288748 1.27077e-21)
(0.318849 -0.0303807 8.98375e-21)
(1.41818 -0.0427268 -1.35071e-21)
(1.31358 -0.0218227 3.06688e-23)
(1.21943 -0.00993839 -7.54798e-22)
(1.16917 0.00551843 1.7933e-21)
(1.12483 0.00967329 1.33003e-22)
(1.10423 0.0176886 -2.00364e-22)
(1.08917 0.0207664 -3.42813e-22)
(1.07859 0.0218053 1.31621e-22)
(1.07103 0.0214774 -5.06379e-23)
(1.06548 0.0201968 -7.83549e-25)
(1.06062 0.0179728 2.23467e-23)
(1.05557 0.0150306 0)
(1.05104 0.0119859 0)
(1.04746 0.00909871 0)
(1.04484 0.00637328 0)
(1.04315 0.00374913 0)
(1.04237 0.00103391 0)
(1.04209 0.000352246 2.41952e-26)
(1.04333 0.000728943 0)
(1.04554 0.00114444 0)
(1.04898 0.00170554 0)
(1.05385 0.00250556 0)
(1.06045 0.0037071 0)
(1.07006 0.00522971 -5.32168e-24)
(1.08361 0.00657662 2.14819e-23)
(1.10042 0.00799401 2.67257e-23)
(1.11999 0.00985718 -6.09074e-23)
(1.14275 0.0125822 -5.47293e-23)
(1.16994 0.0154977 3.77981e-22)
(1.20164 0.0199058 -3.5664e-22)
(1.23109 0.00742489 -5.83779e-22)
(1.27563 0.00412058 7.42511e-22)
(1.321 -0.01379 -1.08049e-22)
(1.37388 -0.0349356 9.14316e-22)
(1.20177 -0.0553646 -2.69103e-22)
(0.179578 -0.19147 3.05083e-22)
(-0.0605404 -0.356654 -6.58088e-22)
(-0.250741 -0.211933 -1.86798e-22)
(0.00208262 -0.0713788 4.97615e-22)
(0.697048 -0.200419 7.42013e-22)
(1.33463 -0.226221 2.13509e-21)
(1.24509 -0.134854 -2.49163e-21)
(1.17124 -0.0688531 4.93026e-22)
(1.1406 -0.0309012 -8.17944e-22)
(1.10761 -0.0067404 -1.37416e-22)
(1.09594 0.00468148 -1.38218e-22)
(1.08613 0.0108876 -1.50509e-22)
(1.07825 0.0140394 2.09613e-22)
(1.07217 0.0152715 -4.23114e-24)
(1.06774 0.0151842 -2.82126e-23)
(1.06407 0.0140154 -2.27883e-23)
(1.0597 0.0119716 0)
(1.05508 0.00959371 0)
(1.05129 0.00730018 0)
(1.04846 0.00505749 0)
(1.04658 0.00298737 0)
(1.04562 0.00097101 0)
(1.0413 0.000517612 3.11696e-23)
(1.04232 0.00178391 0)
(1.04433 0.00326555 0)
(1.04746 0.00498301 0)
(1.0518 0.00714871 0)
(1.05775 0.0100098 0)
(1.06684 0.0137209 -7.43344e-26)
(1.08 0.0180206 -4.85602e-24)
(1.09584 0.0233069 -8.11177e-23)
(1.11395 0.030198 4.00117e-23)
(1.13495 0.0393879 1.61542e-22)
(1.15987 0.0505502 -4.53152e-22)
(1.18986 0.0659046 3.87657e-22)
(1.22456 0.065649 2.85658e-22)
(1.27135 0.0774932 2.46444e-21)
(1.33652 0.0891936 -2.14113e-21)
(1.40965 0.0751533 -2.63792e-21)
(1.28767 0.0191898 -7.2465e-21)
(0.60734 -0.264204 1.66099e-21)
(0.0684544 -0.557749 1.70033e-20)
(-0.369212 -0.727371 -2.3341e-21)
(-0.0352488 -0.713373 -8.94708e-21)
(0.780821 -0.565247 1.70729e-21)
(1.09548 -0.344872 -1.35729e-21)
(1.10451 -0.184351 -4.69767e-22)
(1.09115 -0.0803848 8.96708e-23)
(1.09574 -0.0339035 1.69266e-22)
(1.08638 -0.00305236 -6.4479e-22)
(1.0838 0.00427359 1.38563e-22)
(1.07983 0.00783631 -2.82306e-22)
(1.07561 0.00968046 -2.68877e-24)
(1.07196 0.0106775 5.0398e-23)
(1.0688 0.0106575 2.87103e-23)
(1.06636 0.00995881 -4.8993e-26)
(1.06273 0.00857369 0)
(1.05824 0.0069285 0)
(1.05444 0.00538114 0)
(1.05153 0.00387498 0)
(1.04951 0.00239691 0)
(1.04853 0.00107071 -3.82389e-23)
(1.03948 0.000758268 4.1905e-24)
(1.04024 0.0026063 0)
(1.04187 0.00475577 0)
(1.04435 0.0073094 0)
(1.04776 0.010479 0)
(1.05244 0.0145152 0)
(1.06006 0.0197432 0)
(1.07158 0.0263216 8.24135e-24)
(1.08492 0.0348946 2.08993e-23)
(1.09963 0.0461049 1.12464e-22)
(1.11635 0.0610741 -1.25177e-22)
(1.13591 0.0799822 -2.50982e-22)
(1.15963 0.105787 8.79952e-22)
(1.1929 0.138966 -7.75208e-23)
(1.23802 0.156036 -1.33519e-21)
(1.29831 0.197671 6.68835e-22)
(1.38687 0.229103 -4.51442e-21)
(1.43962 0.265346 1.27337e-20)
(1.00667 0.0677938 -4.61355e-21)
(0.49033 -0.204411 -2.484e-21)
(-0.093235 -0.521179 5.12247e-22)
(-0.163994 -0.68742 -1.61582e-20)
(0.398659 -0.511016 -3.79922e-21)
(0.827674 -0.239117 -1.18959e-20)
(0.948207 -0.0800376 -5.50558e-22)
(1.01688 -0.0267292 1.08253e-21)
(1.05635 0.0175706 4.34732e-22)
(1.07495 0.01553 -2.25614e-22)
(1.07914 0.0136391 -8.64861e-24)
(1.07832 0.0115758 7.8306e-23)
(1.07543 0.00940823 -4.29511e-23)
(1.07202 0.00770612 -3.31834e-23)
(1.06956 0.00675851 -8.20346e-24)
(1.06793 0.00585853 0)
(1.0646 0.00481274 0)
(1.06012 0.00383444 0)
(1.05622 0.0029652 0)
(1.05335 0.00210119 0)
(1.05155 0.00119957 0)
(1.05064 0.000217888 3.81878e-24)
(1.03699 0.00100996 6.21351e-24)
(1.03741 0.00309008 0)
(1.03848 0.00553832 0)
(1.04015 0.00840127 0)
(1.04244 0.0119645 0)
(1.0456 0.0164387 0)
(1.05116 0.0223181 0)
(1.05997 0.0300987 0)
(1.06959 0.0406503 -8.54614e-24)
(1.07922 0.0547246 6.65351e-23)
(1.08943 0.0736816 -1.40087e-22)
(1.10051 0.0980984 2.01791e-22)
(1.11335 0.130449 -3.80256e-23)
(1.12994 0.175782 -1.85684e-22)
(1.16971 0.214439 -8.26706e-24)
(1.20779 0.2826 -9.38017e-22)
(1.26601 0.35674 -1.14269e-21)
(1.3572 0.488883 -4.90937e-21)
(1.2419 0.570767 -9.52363e-21)
(0.831474 0.477405 2.1926e-21)
(0.339478 0.231145 2.5177e-21)
(0.0237253 -0.0694484 1.7498e-21)
(0.126848 -0.202714 4.50739e-21)
(0.554178 -0.0461845 7.74483e-20)
(0.88995 0.093987 -4.46251e-22)
(0.998243 0.0735294 9.3841e-22)
(1.06938 0.0636956 1.85242e-22)
(1.08391 0.0374539 1.27952e-22)
(1.08634 0.0250599 -6.35507e-25)
(1.08351 0.0157613 -4.21748e-23)
(1.07891 0.0094905 -2.468e-23)
(1.07445 0.00543139 6.40621e-24)
(1.07137 0.0029347 0)
(1.06927 0.00142013 0)
(1.06559 0.000671641 0)
(1.06093 0.000322616 0)
(1.05693 8.77421e-05 3.18731e-23)
(1.05398 -0.000108642 4.40784e-23)
(1.05199 -0.000154834 2.62844e-23)
(1.05076 -0.000158442 0)
(1.0341 0.0010253 0)
(1.0343 0.00315141 0)
(1.03486 0.00545934 0)
(1.03572 0.0081379 0)
(1.03686 0.011472 0)
(1.03842 0.0156132 0)
(1.04154 0.0211977 0)
(1.04672 0.0291643 0)
(1.05165 0.0402487 -8.12442e-26)
(1.05525 0.0550867 -2.18951e-24)
(1.0576 0.0750076 -1.02446e-23)
(1.05831 0.101143 -7.03483e-23)
(1.0586 0.13459 1.73536e-22)
(1.05665 0.182831 2.87486e-23)
(1.07858 0.233709 1.33109e-21)
(1.08583 0.306555 -9.18476e-22)
(1.11293 0.395263 1.91986e-21)
(1.10271 0.534648 3.2908e-21)
(1.06545 0.733156 4.02164e-22)
(0.915636 0.847206 2.19615e-21)
(0.663207 0.790718 7.20676e-21)
(0.420776 0.58112 6.71528e-21)
(0.317989 0.333425 -1.1669e-21)
(0.383587 0.203118 -6.72365e-22)
(0.929404 0.248674 1.44383e-22)
(1.06954 0.159452 2.22163e-21)
(1.11903 0.082677 -3.38107e-22)
(1.11564 0.0483804 1.36427e-22)
(1.10609 0.028251 5.5286e-23)
(1.09561 0.014466 -3.70806e-23)
(1.0864 0.00615003 1.61638e-24)
(1.07901 0.00087913 -4.64987e-26)
(1.07403 -0.00232854 0)
(1.07034 -0.00388806 0)
(1.0657 -0.00398695 0)
(1.06072 -0.00353553 0)
(1.05658 -0.00292756 0)
(1.0535 -0.00219114 0)
(1.05135 -0.00126621 0)
(1.05008 -0.000356383 -4.73386e-24)
(1.03131 0.000865096 0)
(1.03133 0.00263257 0)
(1.03152 0.00445237 0)
(1.03177 0.00651577 0)
(1.03192 0.00902957 0)
(1.03196 0.0121422 0)
(1.03239 0.0164603 0)
(1.0334 0.0231988 0)
(1.03329 0.0330112 0)
(1.03108 0.04616 0)
(1.02593 0.0636544 -3.95527e-24)
(1.01678 0.0869098 -4.17851e-23)
(1.00378 0.11632 7.02743e-23)
(0.985577 0.161113 -3.21783e-23)
(0.985535 0.212244 1.10983e-20)
(0.96557 0.277495 3.23832e-22)
(0.961529 0.37808 3.22235e-21)
(0.917644 0.473124 -3.52182e-21)
(0.867711 0.567357 -1.3877e-22)
(0.806397 0.673472 -9.95332e-21)
(0.713387 0.747289 -8.35523e-21)
(0.617374 0.743679 -1.29411e-20)
(0.549461 0.656761 3.03011e-21)
(0.576734 0.482476 1.57389e-21)
(1.0446 0.275026 -7.14919e-23)
(1.20239 0.160553 6.07841e-22)
(1.18648 0.0558133 2.80447e-23)
(1.15668 0.0316682 2.06572e-23)
(1.13049 0.0132361 -9.43913e-24)
(1.11075 0.00209717 6.83175e-24)
(1.09566 -0.00431085 0)
(1.0845 -0.00828323 0)
(1.07663 -0.0102968 0)
(1.07053 -0.0104591 0)
(1.06456 -0.00915276 0)
(1.05916 -0.00749923 0)
(1.05492 -0.00578994 0)
(1.0518 -0.00405075 0)
(1.04971 -0.0023304 0)
(1.04857 -0.000702087 0)
(1.02909 0.000495992 0)
(1.02909 0.00150642 0)
(1.02913 0.00255183 0)
(1.02906 0.00370288 0)
(1.02866 0.00500902 0)
(1.02764 0.0065718 0)
(1.02581 0.00878156 0)
(1.02322 0.0127315 0)
(1.01892 0.0190196 0)
(1.012 0.0276242 0)
(1.00081 0.0392446 0)
(0.983585 0.0547546 -7.5795e-25)
(0.958384 0.0751874 2.48155e-23)
(0.926174 0.107222 -8.87631e-23)
(0.907458 0.158159 3.62849e-21)
(0.857897 0.21047 1.74218e-21)
(0.824387 0.296596 3.23484e-21)
(0.791989 0.403276 -6.09589e-22)
(0.716903 0.535361 -1.50963e-21)
(0.654826 0.667712 1.72668e-21)
(0.632903 0.754189 1.81477e-21)
(0.655462 0.751912 -3.92979e-21)
(0.72906 0.641075 -1.81523e-21)
(0.898973 0.426858 -1.5053e-21)
(1.26674 0.146628 7.11536e-22)
(1.31617 0.05868 6.20047e-22)
(1.23299 -0.0147503 -4.45769e-22)
(1.18245 -0.0155271 1.79868e-23)
(1.14563 -0.0210485 -1.2299e-24)
(1.11989 -0.0224015 0)
(1.10081 -0.0225798 0)
(1.08687 -0.0221263 0)
(1.07653 -0.0206137 0)
(1.06835 -0.0179437 0)
(1.06145 -0.0145745 0)
(1.05593 -0.0114171 0)
(1.05179 -0.0085374 0)
(1.04884 -0.00589417 0)
(1.04695 -0.00343912 0)
(1.04602 -0.00111617 0)
(1.02822 6.94679e-05 0)
(1.02824 0.000269022 0)
(1.02826 0.000414902 0)
(1.02816 0.000495583 0)
(1.02767 0.00044806 0)
(1.02636 0.000225696 0)
(1.02348 -6.44087e-05 0)
(1.01891 0.000174658 0)
(1.01234 0.00128212 0)
(1.00289 0.00293037 0)
(0.988504 0.00534369 3.56407e-23)
(0.966361 0.00852529 0)
(0.933261 0.0147911 0)
(0.890996 0.0256387 9.62898e-22)
(0.839407 0.0525652 7.29142e-21)
(0.782093 0.104734 6.11719e-21)
(0.66244 0.168511 -2.23333e-22)
(0.555851 0.275655 -8.65521e-24)
(0.499053 0.367922 -8.91308e-22)
(0.528133 0.415608 -9.00701e-22)
(0.667119 0.401527 2.54598e-21)
(0.847348 0.305623 -4.834e-21)
(1.05847 0.146761 -1.09016e-21)
(1.26311 -0.0173251 7.32345e-22)
(1.40123 -0.107149 5.93531e-23)
(1.31648 -0.132352 -8.35107e-22)
(1.22716 -0.0988483 1.61398e-22)
(1.17513 -0.0761304 0)
(1.14047 -0.0629654 0)
(1.11522 -0.0517397 3.62093e-23)
(1.09644 -0.0435159 0)
(1.08231 -0.036952 0)
(1.07128 -0.0308897 0)
(1.06251 -0.0250338 0)
(1.05579 -0.0195538 0)
(1.05085 -0.0148851 0)
(1.04726 -0.0108871 0)
(1.04473 -0.00742461 -5.24575e-24)
(1.04314 -0.004311 -3.76336e-24)
(1.04237 -0.00140674 0)
(1.02847 -0.000149079 0)
(1.02858 -0.000582512 0)
(1.02875 -0.00121205 0)
(1.02891 -0.00210779 0)
(1.0289 -0.00344009 0)
(1.02815 -0.00537256 0)
(1.02562 -0.00805633 0)
(1.02114 -0.0114565 0)
(1.01496 -0.0157788 0)
(1.00636 -0.0217697 0)
(0.993123 -0.030293 1.51747e-22)
(0.971759 -0.0430377 0)
(0.93532 -0.0574281 0)
(0.877831 -0.0711372 -3.01585e-21)
(0.792996 -0.0774387 -2.51463e-20)
(0.690996 -0.0564546 -3.40794e-21)
(0.601602 -0.102471 0)
(0.570436 -0.195391 -8.58813e-23)
(0.591014 -0.306912 -8.44888e-23)
(0.693381 -0.404969 1.75371e-21)
(0.870333 -0.480911 -4.38843e-21)
(1.05529 -0.506855 1.90542e-20)
(1.21454 -0.501148 -1.37691e-21)
(1.30534 -0.434829 0)
(1.29732 -0.327878 3.75047e-23)
(1.2257 -0.227748 4.54459e-22)
(1.1716 -0.164279 -1.97554e-22)
(1.13707 -0.125092 0)
(1.11398 -0.0964447 0)
(1.0958 -0.0753014 -7.8152e-23)
(1.08169 -0.059799 0)
(1.07033 -0.0479948 0)
(1.06084 -0.0382955 0)
(1.05317 -0.0301165 0)
(1.04772 -0.0231197 0)
(1.04408 -0.0173292 9.49029e-24)
(1.04152 -0.0124875 -1.23325e-23)
(1.03974 -0.00837558 0)
(1.03864 -0.00478785 0)
(1.03811 -0.00147994 -2.89809e-23)
(1.02915 -0.000239613 0)
(1.02959 -0.0010073 0)
(1.0302 -0.00207681 0)
(1.03101 -0.00358999 0)
(1.03195 -0.00576252 0)
(1.03249 -0.00887645 0)
(1.03154 -0.0133194 -4.66646e-24)
(1.02911 -0.0194834 0)
(1.0262 -0.0281384 0)
(1.02255 -0.0405577 0)
(1.0163 -0.0585743 0)
(1.00455 -0.0864615 0)
(0.975198 -0.123311 0)
(0.903378 -0.169956 9.31444e-21)
(0.811648 -0.21501 1.95769e-22)
(0.756518 -0.255249 -7.61966e-23)
(0.751543 -0.353743 0)
(0.74158 -0.453573 0)
(0.745276 -0.541425 -1.32922e-21)
(0.789853 -0.608737 -3.76781e-20)
(0.898666 -0.638616 -4.05146e-21)
(1.01119 -0.621211 2.47035e-21)
(1.0983 -0.561963 0)
(1.13607 -0.461967 0)
(1.12631 -0.347176 0)
(1.10489 -0.256309 -7.91152e-24)
(1.09364 -0.193002 -2.42668e-23)
(1.08238 -0.147358 -1.1889e-24)
(1.07416 -0.11219 0)
(1.06663 -0.08641 0)
(1.05984 -0.0669833 0)
(1.05343 -0.0523538 0)
(1.04721 -0.0408748 4.16464e-23)
(1.04181 -0.0317182 1.70667e-23)
(1.03828 -0.0242062 8.598e-25)
(1.03629 -0.018102 0)
(1.03499 -0.0130479 0)
(1.03414 -0.00874794 0)
(1.03373 -0.00500499 0)
(1.03366 -0.00159754 0)
(1.0301 -0.000326004 0)
(1.03092 -0.00110735 0)
(1.0321 -0.00216364 0)
(1.03375 -0.00370901 0)
(1.03592 -0.00599255 0)
(1.03825 -0.00935912 0)
(1.03984 -0.0143781 0)
(1.04094 -0.021726 0)
(1.04342 -0.0323536 1.19225e-23)
(1.0479 -0.047731 0)
(1.05375 -0.0698166 0)
(1.05919 -0.103929 0)
(1.05066 -0.151463 -6.19906e-22)
(0.992736 -0.219538 -3.31285e-22)
(0.904474 -0.30559 0)
(0.864318 -0.391421 0)
(0.857998 -0.476859 0)
(0.823773 -0.53678 0)
(0.81114 -0.576385 -4.55572e-21)
(0.815516 -0.605294 -5.87758e-21)
(0.863548 -0.596457 1.88185e-20)
(0.920263 -0.545864 -6.43393e-21)
(0.968576 -0.471375 0)
(0.991035 -0.383804 0)
(1.00004 -0.301677 0)
(1.01158 -0.238797 0)
(1.01998 -0.186639 -1.49861e-21)
(1.02601 -0.14329 -6.79622e-22)
(1.03179 -0.10974 0)
(1.03469 -0.0839856 -1.19351e-24)
(1.03564 -0.0642777 -3.42477e-24)
(1.03496 -0.0493572 1.37349e-24)
(1.03283 -0.0378643 0)
(1.03037 -0.0290045 0)
(1.02907 -0.0220795 0)
(1.02875 -0.0166119 0)
(1.02865 -0.0121209 0)
(1.02862 -0.00830094 0)
(1.02876 -0.00487304 0)
(1.02904 -0.00174119 0)
(1.03108 -0.000221438 0)
(1.03207 -0.000737547 0)
(1.0337 -0.00138305 0)
(1.03615 -0.00242579 0)
(1.03956 -0.00407071 0)
(1.04379 -0.00662782 0)
(1.0483 -0.0106762 0)
(1.05349 -0.0170246 0)
(1.06168 -0.0263983 0)
(1.07453 -0.0397708 0)
(1.09317 -0.0585157 6.14567e-23)
(1.11736 -0.0865618 -5.81998e-23)
(1.13768 -0.127037 1.68779e-21)
(1.11435 -0.192796 -5.05583e-22)
(1.04302 -0.29316 0)
(0.979795 -0.392548 0)
(0.928631 -0.47528 0)
(0.86434 -0.530791 0)
(0.82904 -0.56507 -2.56044e-20)
(0.804876 -0.578613 4.22672e-20)
(0.806052 -0.560677 -7.00354e-22)
(0.823804 -0.493362 6.6522e-21)
(0.85533 -0.418922 0)
(0.884637 -0.337368 0)
(0.913457 -0.266022 0)
(0.942439 -0.208844 0)
(0.960577 -0.160116 3.12924e-21)
(0.97711 -0.122118 -4.53334e-22)
(0.993105 -0.0929418 -4.65663e-22)