/*--------------------------------*- C++ -*----------------------------------*\
| =========                 |                                                 |
| \\      /  F ield         | OpenFOAM: The Open Source CFD Toolbox           |
|  \\    /   O peration     | Version:  v2106                                 |
|   \\  /    A nd           | Website:  www.openfoam.com                      |
|    \\/     M anipulation  |                                                 |
\*---------------------------------------------------------------------------*/
FoamFile
{
    version     2.0;
    format      ascii;
    arch        "LSB;label=32;scalar=64";
    class       volVectorField;
    location    "0";
    object      U;
}
// * * * * * * * * * * * * * * * * * * * * * * * * * * * * * * * * * * * * * //

dimensions      [0 1 -1 0 0 0 0];

internalField   nonuniform List<vector> 
11644
(
(0.993077 -0.000244565 1.95617e-23)
(0.992959 -0.000647742 5.39453e-23)
(0.992887 -0.000954195 2.8943e-23)
(0.99287 -0.00127039 0)
(0.992866 -0.00160964 0)
(0.992863 -0.00196882 0)
(0.992859 -0.00234414 0)
(0.992856 -0.00272788 0)
(0.992852 -0.00310906 0)
(0.992846 -0.00347714 0)
(0.992855 -0.00380589 0)
(0.992816 -0.00408933 0)
(0.992814 -0.00428777 0)
(0.992992 -0.00437492 0)
(0.992854 -0.00435266 0)
(0.992886 -0.00419574 0)
(0.992972 -0.00391623 0)
(0.992843 -0.00345447 0)
(0.992716 -0.00286012 0)
(0.992662 -0.00218 3.30653e-30)
(0.992573 -0.00149119 -3.29614e-30)
(0.992307 -0.000591442 0)
(0.992281 0.000589846 0)
(0.992634 0.0015362 0)
(0.992894 0.00201322 0)
(0.992907 0.00229761 0)
(0.993052 0.00260228 0)
(0.992913 0.00270457 0)
(0.992839 0.00274107 0)
(0.992847 0.00268064 0)
(0.992865 0.00254424 0)
(0.992862 0.00235535 0)
(0.992861 0.00212592 0)
(0.99286 0.00187271 0)
(0.99286 0.00160701 0)
(0.992862 0.00133757 0)
(0.992866 0.00106987 0)
(0.992883 0.00081061 0)
(0.992943 0.00055292 0)
(0.993045 0.000210751 3.79281e-24)
(0.993914 -0.000498945 2.51268e-23)
(0.993834 -0.00151251 2.32755e-23)
(0.993779 -0.00255299 1.25005e-23)
(0.993783 -0.00359455 0)
(0.993822 -0.00466015 0)
(0.993874 -0.00577023 0)
(0.993925 -0.00692786 0)
(0.993964 -0.00812118 0)
(0.993978 -0.0093273 0)
(0.993966 -0.0105048 0)
(0.993855 -0.0116233 0)
(0.993746 -0.0125701 0)
(0.993532 -0.0133081 0)
(0.992944 -0.0138009 0)
(0.992722 -0.0137993 0)
(0.992174 -0.013388 1.37776e-24)
(0.991439 -0.0123949 -1.46605e-23)
(0.990995 -0.0109401 5.2162e-24)
(0.990742 -0.00914836 -7.46615e-23)
(0.990585 -0.0070403 8.69779e-22)
(0.990326 -0.00452048 -8.89881e-22)
(0.990113 -0.00175857 1.33181e-22)
(0.990208 0.000848593 -4.29483e-23)
(0.990738 0.00317718 1.74833e-23)
(0.991466 0.00514403 -2.04335e-24)
(0.992017 0.00657024 0)
(0.992189 0.00744503 0)
(0.992718 0.00797654 0)
(0.99309 0.0080979 0)
(0.99329 0.00790994 0)
(0.993412 0.00750277 0)
(0.993523 0.0069196 0)
(0.993584 0.00622521 0)
(0.993616 0.00545804 0)
(0.993627 0.00465029 0)
(0.993626 0.00382488 0)
(0.993623 0.00299154 0)
(0.993637 0.00214891 0)
(0.993691 0.00129178 0)
(0.993767 0.000428269 0)
(0.995598 -0.000768041 0)
(0.99557 -0.00237538 0)
(0.995591 -0.00405467 0)
(0.995672 -0.00579736 0)
(0.995802 -0.00760596 2.29529e-23)
(0.99596 -0.00949706 0)
(0.996122 -0.0114796 0)
(0.996263 -0.0135459 0)
(0.996347 -0.0156673 0)
(0.996308 -0.0178073 0)
(0.996162 -0.0198392 0)
(0.99571 -0.0217272 0)
(0.994972 -0.0232654 -1.76409e-26)
(0.994311 -0.0242109 8.01991e-23)
(0.992684 -0.0246147 2.85193e-22)
(0.991151 -0.0241087 -8.05998e-22)
(0.989725 -0.0227251 -4.9121e-22)
(0.988209 -0.0204359 3.19265e-22)
(0.986859 -0.0171894 -3.37357e-22)
(0.9857 -0.012902 1.79321e-21)
(0.98502 -0.00792302 -7.79475e-22)
(0.985031 -0.00287482 -3.94631e-22)
(0.985772 0.00161419 -6.20352e-22)
(0.987061 0.00545737 1.13469e-21)
(0.988579 0.00875274 2.57543e-22)
(0.990069 0.0112725 -3.50578e-22)
(0.991649 0.0129401 -8.9844e-23)
(0.992542 0.0136933 -6.31076e-25)
(0.993323 0.013843 0)
(0.994017 0.0134542 0)
(0.994529 0.0126731 0)
(0.994825 0.0116402 0)
(0.995015 0.010425 0)
(0.995109 0.00910589 0)
(0.995142 0.00772853 0)
(0.995142 0.00632513 0)
(0.995132 0.00491162 0)
(0.995136 0.00348987 0)
(0.995171 0.00206157 0)
(0.995226 0.000676579 0)
(0.998117 -0.00106755 0)
(0.998141 -0.00321544 0)
(0.998257 -0.00547151 0)
(0.99847 -0.00782641 0)
(0.998763 -0.0103061 0)
(0.999107 -0.0129418 0)
(0.999468 -0.0157456 0)
(0.999796 -0.0187178 0)
(1.00002 -0.0218402 0)
(1.00007 -0.025037 0)
(0.999749 -0.0282752 -1.08446e-24)
(0.999043 -0.0313385 4.12258e-23)
(0.997771 -0.0340207 1.58796e-23)
(0.995382 -0.0362351 -1.64764e-22)
(0.993183 -0.0370118 -3.89342e-22)
(0.989906 -0.0366571 8.30239e-22)
(0.98633 -0.0347624 -1.21892e-21)
(0.98281 -0.0311525 1.39072e-21)
(0.979683 -0.025604 -1.34119e-22)
(0.977241 -0.0187048 -9.92223e-22)
(0.976058 -0.0110826 5.12235e-22)
(0.976418 -0.00335639 -1.90565e-22)
(0.978337 0.00363943 -6.95472e-22)
(0.981001 0.00945162 1.8022e-21)
(0.984008 0.0141819 -1.38128e-21)
(0.987037 0.0176157 4.03214e-22)
(0.989544 0.0197043 2.31216e-22)
(0.992285 0.0206107 -3.25335e-23)
(0.994153 0.0205159 -3.21232e-23)
(0.995399 0.0197116 1.76678e-24)
(0.996262 0.0183925 0)
(0.996877 0.016713 0)
(0.997212 0.014853 0)
(0.997384 0.0128812 0)
(0.997443 0.0108651 0)
(0.997441 0.00883909 0)
(0.997415 0.00682576 0)
(0.997396 0.00483222 0)
(0.997405 0.00287013 0)
(0.997449 0.000941047 0)
(1.00135 -0.00126712 0)
(1.00144 -0.00391304 0)
(1.0017 -0.00664905 0)
(1.0021 -0.00952669 0)
(1.00263 -0.0126034 0)
(1.00325 -0.0159144 0)
(1.00392 -0.0194938 0)
(1.00456 -0.0233663 0)
(1.00507 -0.0275313 0)
(1.00526 -0.0319934 -4.76956e-24)
(1.00504 -0.0366704 -5.58137e-23)
(1.00418 -0.0413889 -3.17433e-22)
(1.0023 -0.0457771 -1.54307e-22)
(0.999979 -0.0489734 1.95131e-21)
(0.994755 -0.0514319 2.83092e-23)
(0.989315 -0.0514758 -2.69614e-21)
(0.983168 -0.0494018 1.67305e-21)
(0.975515 -0.044258 -4.63257e-22)
(0.969162 -0.0358144 -8.69412e-23)
(0.964325 -0.0249505 1.48292e-21)
(0.962381 -0.0129171 -6.02874e-22)
(0.963763 -0.00115909 -1.45571e-21)
(0.967792 0.00901931 1.22933e-21)
(0.972821 0.0169818 -1.72291e-21)
(0.977941 0.0229195 3.11259e-21)
(0.983362 0.026953 -4.12048e-22)
(0.988624 0.0289702 -2.28759e-21)
(0.992194 0.0294814 4.27129e-22)
(0.995283 0.0287386 2.87827e-22)
(0.997597 0.0270755 1.0473e-22)
(0.999018 0.024868 -3.29864e-23)
(0.999846 0.0223235 0)
(1.00034 0.0195952 0)
(1.00055 0.0168372 0)
(1.0006 0.0140964 0)
(1.00055 0.0114077 0)
(1.00047 0.0087865 0)
(1.00041 0.00622112 0)
(1.00038 0.00370026 0)
(1.00041 0.00123042 0)
(1.00512 -0.00151045 0)
(1.00531 -0.00448146 0)
(1.00574 -0.00757812 0)
(1.00639 -0.0108509 0)
(1.00725 -0.0143786 0)
(1.00826 -0.0182317 0)
(1.00939 -0.0224827 0)
(1.01052 -0.0271881 0)
(1.01152 -0.0324154 2.1728e-23)
(1.0123 -0.0382235 1.5716e-22)
(1.0127 -0.0445767 -2.83347e-22)
(1.01216 -0.0512993 -7.1247e-22)
(1.00998 -0.0579803 1.56651e-21)
(1.00466 -0.0650645 -1.482e-21)
(0.998313 -0.0684418 3.22693e-21)
(0.988171 -0.0693242 -5.65824e-21)
(0.976212 -0.0674593 3.68568e-23)
(0.963035 -0.060028 5.21852e-21)
(0.951878 -0.0467052 -3.2579e-21)
(0.944365 -0.0303338 -9.95963e-22)
(0.941771 -0.0125052 6.01057e-21)
(0.944816 0.00481313 -1.53438e-21)
(0.952238 0.0197532 -5.64308e-21)
(0.96157 0.030397 2.27944e-21)
(0.971607 0.0369103 3.848e-21)
(0.980092 0.0406957 -3.80181e-21)
(0.986733 0.0420634 1.99016e-21)
(0.993437 0.0407742 -5.35873e-22)
(0.997747 0.0385795 -1.36557e-22)
(1.00091 0.0356394 -1.10591e-22)
(1.00304 0.032162 -2.44432e-22)
(1.00414 0.028443 4.7775e-23)
(1.0046 0.0246706 0)
(1.00475 0.0209713 0)
(1.00469 0.0174159 0)
(1.00453 0.0140081 0)
(1.00434 0.010734 0)
(1.00418 0.00758663 0)
(1.00409 0.00449724 0)
(1.00408 0.00148967 0)
(1.00927 -0.00153893 0)
(1.00956 -0.00478295 0)
(1.01019 -0.0081385 0)
(1.01116 -0.0116916 0)
(1.01242 -0.0155387 0)
(1.01396 -0.0197908 0)
(1.0157 -0.0245476 0)
(1.01756 -0.0299394 -1.47458e-24)
(1.01955 -0.036164 7.40371e-23)
(1.02155 -0.0434191 -2.45205e-22)
(1.02298 -0.0518162 5.93004e-22)
(1.02304 -0.0613247 -3.63298e-22)
(1.02067 -0.0717975 -3.64554e-22)
(1.01678 -0.0800985 9.73311e-22)
(1.00477 -0.0901693 2.66575e-22)
(0.989794 -0.0942667 -9.65082e-22)
(0.975043 -0.0851837 -1.15869e-21)
(0.956919 -0.0778096 4.81386e-21)
(0.938972 -0.0622986 -3.80448e-22)
(0.925908 -0.0397416 1.83417e-22)
(0.920955 -0.013418 -1.11696e-22)
(0.925408 0.0113853 2.10354e-21)
(0.936088 0.0309502 2.21264e-21)
(0.949899 0.0444957 1.68134e-21)
(0.965347 0.0597416 2.38439e-22)
(0.979218 0.0612548 3.60137e-22)
(0.99077 0.0585562 -1.85175e-21)
(0.997008 0.0549665 -1.11691e-22)
(1.00223 0.0501352 6.33978e-22)
(1.00593 0.0451428 -2.77352e-22)
(1.00852 0.0400318 2.76416e-22)
(1.0099 0.0348762 2.15496e-23)
(1.01029 0.0298913 -1.12611e-23)
(1.01016 0.0251262 0)
(1.00984 0.0206652 0)
(1.00943 0.0164905 0)
(1.00903 0.0125645 0)
(1.00871 0.00882242 0)
(1.00849 0.00526478 0)
(1.00842 0.00172148 0)
(1.01358 -0.00164136 0)
(1.01399 -0.00490097 0)
(1.01485 -0.00828301 0)
(1.01617 -0.011921 0)
(1.01793 -0.0159032 0)
(1.0201 -0.0203501 0)
(1.02263 -0.0254011 0)
(1.02558 -0.031275 -4.35208e-23)
(1.02924 -0.0384036 8.78074e-23)
(1.03303 -0.0471833 4.40771e-23)
(1.03619 -0.0577555 -1.66542e-22)
(1.03784 -0.0699178 6.18333e-23)
(1.03715 -0.0829776 -7.28145e-22)
(1.02695 -0.0959325 -6.09634e-22)
(1.0174 -0.104621 -5.75502e-22)
(1.00173 -0.113411 7.108e-22)
(0.973843 -0.118377 -1.13058e-21)
(0.942059 -0.111444 -2.68742e-21)
(0.909037 -0.0917366 -5.49429e-21)
(0.88409 -0.0564856 3.77017e-22)
(0.875009 -0.0119523 -1.30361e-21)
(0.885452 0.0300522 -7.17888e-22)
(0.907823 0.0603177 -2.58553e-21)
(0.934453 0.0767087 -4.07905e-21)
(0.957822 0.0833537 -3.12719e-22)
(0.978536 0.0807791 -5.56881e-22)
(0.992211 0.0749172 -5.76348e-22)
(1.00542 0.0701895 3.23131e-24)
(1.01037 0.062342 2.39147e-23)
(1.01363 0.0547472 -6.35664e-22)
(1.01592 0.0477595 3.73528e-22)
(1.01713 0.0411757 -5.5087e-23)
(1.01745 0.0349079 -5.92984e-23)
(1.01689 0.0290719 0)
(1.01606 0.0237005 0)
(1.01524 0.0187975 0)
(1.0145 0.0142732 0)
(1.01391 0.0100229 0)
(1.01353 0.00590822 0)
(1.01337 0.00200365 0)
(1.01785 -0.00158516 0)
(1.01838 -0.00473051 0)
(1.0195 -0.00807424 0)
(1.0212 -0.0115811 0)
(1.02349 -0.0154558 0)
(1.02638 -0.0198178 0)
(1.02985 -0.0248643 -1.53516e-24)
(1.03442 -0.0309786 -1.89373e-23)
(1.04035 -0.0388033 1.458e-22)
(1.04653 -0.0487459 -9.11704e-23)
(1.0523 -0.0609817 -4.85756e-23)
(1.05682 -0.0758679 -2.78819e-22)
(1.05871 -0.095047 2.55506e-22)
(1.04807 -0.11205 -1.4455e-21)
(1.03835 -0.12822 6.8302e-22)
(1.01826 -0.147627 7.39648e-22)
(0.985004 -0.158145 2.50332e-21)
(0.935973 -0.163177 -9.80733e-22)
(0.876989 -0.142973 2.82007e-21)
(0.82522 -0.0908998 -2.15572e-21)
(0.804008 -0.0129205 5.37251e-22)
(0.824306 0.0598574 2.83711e-21)
(0.869347 0.10595 -3.9274e-21)
(0.918093 0.124495 1.93131e-21)
(0.95765 0.122689 1.04867e-21)
(0.987608 0.115495 1.68695e-21)
(1.00351 0.100643 -1.42989e-21)
(1.01898 0.0876497 -4.45647e-22)
(1.02268 0.0741021 5.35209e-22)
(1.02441 0.0634097 -1.54563e-22)
(1.02561 0.0543128 3.19592e-22)
(1.02608 0.0463424 -3.1197e-23)
(1.02599 0.039025 -9.20426e-23)
(1.02495 0.032228 1.21918e-23)
(1.02337 0.0260417 0)
(1.0219 0.0204707 0)
(1.02066 0.0153964 0)
(1.01972 0.0107357 0)
(1.01909 0.00634256 0)
(1.01882 0.00203168 0)
(1.02187 -0.00133433 0)
(1.02251 -0.00430171 0)
(1.02384 -0.00726473 0)
(1.02592 -0.0105109 0)
(1.02876 -0.0140732 0)
(1.0324 -0.0181097 0)
(1.03702 -0.022826 1.34368e-23)
(1.04368 -0.028803 -4.66031e-23)
(1.05227 -0.036784 2.28863e-24)
(1.06141 -0.0470729 -2.29794e-23)
(1.07067 -0.0598487 1.14963e-22)
(1.07961 -0.0758947 -1.71255e-22)
(1.08727 -0.0978399 1.49096e-22)
(1.08161 -0.121258 2.21588e-24)
(1.07566 -0.147407 8.41329e-23)
(1.05278 -0.18322 -4.42585e-22)
(1.01596 -0.214731 -1.49621e-22)
(0.950359 -0.249488 1.16547e-21)
(0.841907 -0.25622 -4.82698e-22)
(0.712409 -0.183846 1.22865e-21)
(0.64821 -0.0210907 6.31356e-22)
(0.706788 0.137501 -1.39242e-21)
(0.822882 0.207941 -2.02912e-22)
(0.916713 0.20789 1.54921e-21)
(0.9796 0.183956 -8.77654e-22)
(1.01697 0.154032 -1.87301e-21)
(1.02919 0.124573 -5.26566e-23)
(1.04038 0.101346 3.30514e-23)
(1.03986 0.0834673 -2.4326e-22)
(1.03851 0.0696345 1.64901e-22)
(1.0376 0.0586278 1.51927e-22)
(1.03663 0.04951 1.04236e-22)
(1.03566 0.0414771 -2.17729e-22)
(1.03406 0.0340702 4.87869e-23)
(1.03155 0.0273631 0)
(1.02923 0.0214027 0)
(1.02734 0.0160685 0)
(1.02592 0.0111708 0)
(1.02498 0.00662287 0)
(1.02455 0.0022573 0)
(1.02542 -0.00133523 0)
(1.02618 -0.00374484 0)
(1.02774 -0.00629738 0)
(1.03016 -0.00900966 0)
(1.03347 -0.0119512 0)
(1.03777 -0.0152839 0)
(1.0437 -0.0192644 -6.7457e-24)
(1.05268 -0.0245763 1.3507e-23)
(1.06393 -0.0317043 -2.10572e-23)
(1.0763 -0.0409102 -6.35168e-23)
(1.08972 -0.0526023 -2.30065e-23)
(1.10432 -0.0676084 1.09333e-22)
(1.11889 -0.0863985 -8.39905e-23)
(1.12333 -0.115953 2.34762e-22)
(1.13018 -0.150926 6.03528e-22)
(1.12692 -0.202495 -1.43189e-22)
(1.10639 -0.272235 -2.62009e-23)
(1.0499 -0.381126 2.31379e-23)
(0.878688 -0.507714 -7.68075e-22)
(0.490807 -0.505638 -3.42045e-20)
(0.186195 -0.0271659 -1.18608e-20)
(0.484501 0.432412 -5.5975e-21)
(0.835245 0.440445 1.17812e-21)
(0.992485 0.332718 -7.38956e-24)
(1.04984 0.244578 4.81962e-23)
(1.06984 0.180404 -1.90133e-22)
(1.06736 0.141018 -2.08872e-23)
(1.06866 0.105242 2.13393e-23)
(1.06167 0.0866656 -5.37696e-23)
(1.0557 0.0714505 2.69412e-23)
(1.05152 0.0594743 -9.88215e-24)
(1.04834 0.0497085 -7.01794e-24)
(1.04603 0.0414509 -1.11228e-23)
(1.04371 0.0340164 2.20828e-23)
(1.04025 0.0272062 0)
(1.03691 0.0211666 0)
(1.03423 0.015826 0)
(1.03223 0.0109664 0)
(1.03092 0.0064128 0)
(1.0303 0.00201948 0)
(1.02837 -0.000955553 0)
(1.02919 -0.00290286 0)
(1.03094 -0.00495277 0)
(1.03358 -0.0069699 0)
(1.03724 -0.00914528 0)
(1.04208 -0.0115009 0)
(1.04933 -0.0143653 -1.36884e-23)
(1.06036 -0.0182878 -2.719e-23)
(1.07384 -0.0234165 -4.84874e-23)
(1.08895 -0.0298004 -6.53882e-23)
(1.10631 -0.0379008 -9.71767e-23)
(1.12649 -0.0484136 -1.50006e-22)
(1.14971 -0.0617164 4.14581e-22)
(1.16232 -0.0900486 -7.81175e-23)
(1.19218 -0.121331 7.41895e-23)
(1.21675 -0.176223 1.35596e-22)
(1.25118 -0.2585 -2.35063e-24)
(1.30551 -0.410942 1.62372e-21)
(1.00991 -0.550263 -1.09789e-19)
(1.00279 0.520078 1.41998e-20)
(1.19987 0.375062 -1.84233e-23)
(1.16143 0.245027 -1.05015e-22)
(1.13602 0.171527 -3.69011e-23)
(1.11244 0.136183 -3.80125e-23)
(1.09901 0.098504 -6.24729e-23)
(1.08507 0.0813683 7.16748e-23)
(1.07426 0.0673272 2.60945e-23)
(1.06626 0.0557464 1.15455e-23)
(1.06042 0.0463033 -3.13686e-24)
(1.05641 0.0384997 -1.44024e-23)
(1.05323 0.0316009 -1.81091e-23)
(1.04887 0.0252232 0)
(1.04445 0.0195413 0)
(1.04095 0.0145685 0)
(1.03838 0.0101465 0)
(1.03668 0.00601997 0)
(1.03586 0.00216852 0)
(1.03063 -0.000567224 0)
(1.03146 -0.00200675 0)
(1.03316 -0.0032431 0)
(1.0359 -0.00458118 0)
(1.03977 -0.00591619 0)
(1.04496 -0.00717611 0)
(1.05313 -0.00857281 9.47392e-24)
(1.06552 -0.0104343 -1.6234e-23)
(1.08029 -0.0125073 -2.90457e-23)
(1.09695 -0.0146694 1.47632e-23)
(1.11629 -0.0171295 3.71078e-23)
(1.13992 -0.0202317 2.37468e-22)
(1.16839 -0.0233742 -7.50855e-22)
(1.19297 -0.0440669 1.05813e-23)
(1.23816 -0.0593647 -4.03436e-21)
(1.28645 -0.0944128 2.87521e-23)
(1.36237 -0.138567 -1.99693e-22)
(1.48859 -0.185695 2.47977e-21)
(0.0175615 -0.00894011 1.97627e-19)
(0.0437861 -0.0178596 -1.42729e-19)
(1.33692 0.226946 -2.42195e-22)
(1.24589 0.1758 -7.37151e-25)
(1.18809 0.132609 -1.16539e-21)
(1.15112 0.11139 -1.39048e-21)
(1.12536 0.0821215 -1.51345e-22)
(1.10667 0.0691993 1.07724e-22)
(1.0918 0.0576453 -3.30974e-23)
(1.08032 0.0476128 1.92828e-24)
(1.07191 0.0394091 -1.21524e-23)
(1.06611 0.0326744 1.02504e-23)
(1.06196 0.0268152 -7.39545e-24)
(1.05682 0.0214343 0)
(1.05139 0.0165934 0)
(1.04709 0.0123557 0)
(1.04392 0.00852977 0)
(1.04184 0.00499618 0)
(1.04079 0.00142774 0)
(1.03215 -0.000496922 -1.37463e-26)
(1.03302 -0.00119501 0)
(1.03481 -0.00189121 0)
(1.03755 -0.00245853 0)
(1.0413 -0.00281204 0)
(1.04636 -0.0028943 0)
(1.05468 -0.00264343 -3.57604e-24)
(1.06719 -0.00199965 5.61026e-23)
(1.08157 -0.00060196 -1.33622e-23)
(1.09796 0.00196842 -1.74915e-22)
(1.1173 0.00601861 -1.88625e-22)
(1.14095 0.011613 4.53503e-22)
(1.17041 0.0207151 1.41473e-22)
(1.2021 0.012918 1.55385e-22)
(1.25079 0.016702 -9.06593e-22)
(1.30791 0.00698767 -6.31132e-22)
(1.38633 0.000185361 -5.51639e-22)
(1.4505 0.0108898 3.05311e-22)
(0.17167 -0.033408 -1.08906e-20)
(0.120235 -0.0247436 6.45129e-21)
(1.26023 0.06398 1.04673e-22)
(1.26249 0.088969 7.37494e-22)
(1.20608 0.0847835 1.07594e-22)
(1.17195 0.0792695 -3.4792e-22)
(1.14367 0.0613945 4.07286e-22)
(1.12349 0.0525978 -3.33396e-22)
(1.10648 0.0440013 5.03305e-24)
(1.09254 0.0361444 -1.81006e-22)
(1.08193 0.0296316 2.60603e-24)
(1.07438 0.0243044 1.35723e-23)
(1.06916 0.0198328 -4.30063e-24)
(1.06333 0.0158772 0)
(1.05715 0.0123316 0)
(1.05223 0.00921323 0)
(1.04857 0.00635538 0)
(1.04609 0.0037194 0)
(1.04479 0.001335 0)
(1.03307 -0.000161464 5.60701e-26)
(1.03385 -0.000386642 0)
(1.0355 -0.000615626 0)
(1.03797 -0.000561921 0)
(1.04135 -0.000177187 0)
(1.04595 0.000705781 0)
(1.05347 0.00245359 4.52363e-24)
(1.06464 0.00541061 -7.1447e-23)
(1.07719 0.010116 1.50481e-22)
(1.09134 0.0171699 -3.43716e-22)
(1.10795 0.0273495 9.72815e-22)
(1.12753 0.0408975 -1.05667e-21)
(1.15206 0.0599855 3.40121e-22)
(1.18552 0.0688159 7.38047e-22)
(1.22906 0.0908371 -8.91331e-22)
(1.28745 0.106877 1.03708e-21)
(1.36617 0.127267 -2.40459e-21)
(1.43936 0.147585 2.25503e-21)
(0.545284 -0.0511323 -9.34792e-22)
(0.199392 -0.408371 -3.03853e-21)
(-0.0578162 -0.510852 -1.12131e-23)
(-0.226718 -0.359741 -8.67631e-22)
(0.0608135 -0.221162 -1.22195e-21)
(1.08499 -0.062337 -9.51143e-22)
(1.22551 0.0308631 1.69787e-21)
(1.19871 0.0532957 -4.72113e-23)
(1.17828 0.0534663 1.5203e-21)
(1.15547 0.0418066 -8.54058e-23)
(1.13566 0.0345829 -2.65353e-23)
(1.11772 0.0281072 2.37836e-22)
(1.10227 0.0224393 -9.37207e-23)
(1.09001 0.0177861 8.68078e-23)
(1.08086 0.0140717 5.73809e-24)
(1.07446 0.0112326 2.72207e-24)
(1.0678 0.00894474 0)
(1.06114 0.00701764 0)
(1.05587 0.00530695 0)
(1.05204 0.00372797 0)
(1.04959 0.00223551 0)
(1.0485 0.000820315 0)
(1.03375 0.000140911 6.23737e-23)
(1.03422 0.000216039 0)
(1.03556 0.000577092 0)
(1.03762 0.00105102 0)
(1.04046 0.00190244 0)
(1.04419 0.00325764 0)
(1.04993 0.00561644 -1.29862e-25)
(1.05856 0.00989414 4.98148e-24)
(1.06787 0.016909 -6.39859e-23)
(1.07782 0.0270489 3.28215e-23)
(1.08891 0.041223 1.77623e-22)
(1.10114 0.0600359 3.15368e-22)
(1.11573 0.0865879 -7.98143e-22)
(1.14334 0.111246 -4.85441e-22)
(1.17573 0.150422 -2.63942e-21)
(1.22001 0.208239 1.92802e-21)
(1.29218 0.264959 3.57753e-21)
(1.39635 0.361139 3.8377e-21)
(1.02084 0.29958 -2.42164e-21)
(0.503735 0.0732296 1.80273e-20)
(0.0187913 -0.0932772 3.11112e-21)
(-0.357043 -0.220703 2.73374e-21)
(-0.072741 -0.187708 -4.92951e-21)
(0.872764 -0.0282631 8.06998e-22)
(1.17885 0.0436775 -1.45843e-21)
(1.19405 0.0465541 1.21723e-21)
(1.18286 0.036963 -1.71122e-21)
(1.16401 0.0214784 -9.41125e-23)
(1.14431 0.0157135 -6.18289e-22)
(1.12542 0.0108306 -1.18257e-22)
(1.10892 0.0071992 -2.17496e-22)
(1.09529 0.00453813 8.17689e-23)
(1.08508 0.00264782 -1.26949e-23)
(1.07752 0.00151938 -2.31148e-25)
(1.06995 0.00115917 0)
(1.06299 0.00101722 0)
(1.05756 0.000782893 0)
(1.05369 0.000477837 0)
(1.05123 0.00014933 0)
(1.0498 -0.000160828 3.10842e-23)
(1.0337 8.34805e-05 5.57159e-23)
(1.03427 0.000396823 0)
(1.03535 0.000812595 0)
(1.03698 0.0013448 0)
(1.03912 0.00224651 0)
(1.04178 0.00358623 0)
(1.04538 0.00601628 0)
(1.05041 0.0108105 -1.3802e-24)
(1.05552 0.0183786 5.80016e-25)
(1.06005 0.0293103 1.13358e-22)
(1.06399 0.0443861 7.11434e-23)
(1.06713 0.0644428 -1.90877e-22)
(1.06995 0.0919079 8.73559e-22)
(1.07187 0.136246 -1.09081e-21)
(1.09498 0.184058 5.37883e-22)
(1.1072 0.252343 -1.54416e-21)
(1.14233 0.350666 1.63459e-21)
(1.17824 0.506389 1.23967e-20)
(1.11151 0.719945 -5.03896e-21)
(0.709875 0.69977 -1.07607e-20)
(0.23834 0.590959 -1.81234e-21)
(-0.147491 0.430536 9.00937e-21)
(-0.0247125 0.19287 2.70606e-21)
(0.731273 0.116147 -3.67011e-20)
(1.22196 0.0905821 2.05618e-22)
(1.22115 0.0426384 -5.80013e-22)
(1.20044 0.00892992 3.86333e-22)
(1.17314 -0.0028428 -2.79631e-22)
(1.14959 -0.00605355 -3.76887e-23)
(1.12917 -0.00859531 -2.1324e-24)
(1.11158 -0.00938005 -1.26034e-22)
(1.09723 -0.00962486 2.72549e-23)
(1.08633 -0.00949852 -7.06826e-24)
(1.07747 -0.00859136 0)
(1.06931 -0.00685097 0)
(1.06241 -0.00519165 0)
(1.0571 -0.00386277 0)
(1.05326 -0.00268796 0)
(1.05065 -0.0014985 0)
(1.04919 -0.000409346 -1.24671e-22)
(1.03351 -7.79369e-08 -6.58583e-25)
(1.03402 0.000280805 0)
(1.03494 0.000527997 0)
(1.03621 0.000918158 0)
(1.03773 0.00154294 0)
(1.03931 0.00247588 0)
(1.04064 0.00419606 0)
(1.04177 0.00797376 0)
(1.04236 0.014269 -4.46815e-24)
(1.04205 0.0231245 -9.50944e-23)
(1.0394 0.0353503 1.57708e-22)
(1.03333 0.0519113 -3.1149e-22)
(1.02371 0.0740077 7.75854e-22)
(1.00816 0.110855 -4.56957e-22)
(1.00892 0.163141 -4.24065e-22)
(0.984754 0.226314 -9.85663e-22)
(0.960514 0.330992 2.12171e-21)
(0.902574 0.481637 2.29065e-21)
(0.858594 0.650363 3.29591e-21)
(0.672338 0.814229 2.42081e-21)
(0.342297 0.858441 2.64959e-22)
(0.151884 0.729704 3.57597e-22)
(0.330142 0.472997 -4.79916e-21)
(0.892939 0.195418 -1.93018e-20)
(1.32198 0.0419821 1.9075e-22)
(1.2701 -0.00277705 -4.89087e-22)
(1.21413 -0.0378763 1.62266e-23)
(1.17862 -0.0371702 -2.94686e-22)
(1.15039 -0.0337018 -1.62127e-22)
(1.12818 -0.0310444 -4.07111e-23)
(1.11003 -0.0275413 3.26284e-23)
(1.0956 -0.0245397 8.70801e-25)
(1.08391 -0.0215272 0)
(1.07398 -0.0179554 0)
(1.06574 -0.0140475 0)
(1.05933 -0.010651 0)
(1.05447 -0.00777006 3.62323e-23)
(1.05095 -0.00521379 5.01069e-23)
(1.04864 -0.00288506 2.98792e-23)
(1.04743 -0.000870061 0)
(1.03326 3.98478e-05 0)
(1.03363 -1.47756e-05 0)
(1.03438 -4.75431e-05 0)
(1.03546 9.23085e-06 0)
(1.03668 0.000115237 0)
(1.03762 0.000296262 0)
(1.03732 0.000708963 0)
(1.03577 0.00219451 0)
(1.0332 0.00519211 4.44428e-26)
(1.02939 0.00946136 -1.14294e-24)
(1.0223 0.0154275 -9.09957e-24)
(1.00964 0.0233448 -8.203e-23)
(0.988706 0.0349745 1.33436e-22)
(0.958327 0.0508406 -4.843e-22)
(0.93847 0.0990156 4.52628e-21)
(0.882205 0.147546 5.83023e-22)
(0.810347 0.229401 -4.40408e-22)
(0.709059 0.329302 -9.68712e-22)
(0.599023 0.510346 6.92596e-22)
(0.471496 0.693255 -2.76e-21)
(0.384852 0.741141 -8.65926e-21)
(0.440796 0.58589 -1.09662e-20)
(0.739319 0.290685 -3.08485e-21)
(1.21625 0.0173134 2.34338e-21)
(1.38619 -0.105734 -1.27502e-21)
(1.28922 -0.0971219 -1.67221e-21)
(1.20834 -0.0991222 -1.73652e-22)
(1.16968 -0.0804047 2.40378e-22)
(1.14135 -0.06606 -2.03655e-22)
(1.11971 -0.0553315 -8.73215e-24)
(1.10258 -0.0460104 -6.49811e-24)
(1.08876 -0.0385981 5.44333e-26)
(1.07702 -0.031913 0)
(1.06709 -0.0255642 0)
(1.05952 -0.0197166 0)
(1.05409 -0.014841 0)
(1.05005 -0.0107548 0)
(1.04715 -0.00724553 0)
(1.04526 -0.00414506 0)
(1.04429 -0.00131989 -5.38129e-24)
(1.03311 -5.84678e-06 0)
(1.03358 -0.000230132 0)
(1.03434 -0.000496606 0)
(1.03544 -0.000849633 0)
(1.03674 -0.00135442 0)
(1.03768 -0.00208556 0)
(1.03699 -0.00315484 0)
(1.03455 -0.00432195 0)
(1.03111 -0.00546778 0)
(1.02636 -0.00723608 0)
(1.01827 -0.00975537 3.79324e-24)
(1.00389 -0.0143936 1.6808e-23)
(0.978612 -0.0177399 1.58276e-22)
(0.937924 -0.0291067 -2.1844e-22)
(0.8971 0.00337206 1.26313e-20)
(0.824695 0.0252199 -9.28888e-22)
(0.725853 0.0809754 4.89565e-21)
(0.50821 0.172685 5.13152e-22)
(0.370386 0.272944 -4.1831e-22)
(0.374737 0.308928 -9.9979e-23)
(0.533411 0.224788 1.29162e-20)
(0.794669 0.0289717 3.05691e-20)
(1.1239 -0.193562 -7.16308e-21)
(1.37322 -0.30578 -1.26952e-21)
(1.32508 -0.264215 1.34933e-21)
(1.24417 -0.195221 8.10367e-22)
(1.16989 -0.152428 -7.29892e-23)
(1.13949 -0.119721 1.11105e-22)
(1.1181 -0.0945113 3.29405e-23)
(1.10126 -0.075646 -1.21787e-24)
(1.0877 -0.060449 0)
(1.07618 -0.0487068 0)
(1.06596 -0.0388929 0)
(1.05731 -0.0305322 0)
(1.05121 -0.0233923 0)
(1.04719 -0.0175342 0)
(1.04425 -0.0126766 0)
(1.04213 -0.00856932 0)
(1.04076 -0.00492951 0)
(1.04011 -0.00158763 0)
(1.03324 5.20603e-06 0)
(1.03388 -0.000172098 0)
(1.03485 -0.00050699 0)
(1.03623 -0.0011192 0)
(1.03797 -0.00208349 0)
(1.03954 -0.00356596 0)
(1.03961 -0.00586018 0)
(1.03802 -0.0092372 0)
(1.03616 -0.0140349 0)
(1.03392 -0.0212921 0)
(1.02961 -0.031921 0)
(1.02082 -0.0489896 1.76599e-24)
(1.0015 -0.0689539 6.48487e-24)
(0.963189 -0.106313 9.11916e-23)
(0.896038 -0.109978 4.10781e-21)
(0.7818 -0.112847 -7.89068e-21)
(0.637957 -0.0529566 3.26073e-21)
(0.493239 -0.0837801 -9.27253e-22)
(0.44032 -0.214759 -2.70185e-23)
(0.52677 -0.385506 -4.38892e-21)
(0.738594 -0.532418 -2.17969e-21)
(0.987732 -0.61837 7.28439e-21)
(1.19656 -0.604827 3.54888e-21)
(1.27197 -0.486002 3.31266e-21)
(1.18139 -0.33723 -2.12044e-22)
(1.15315 -0.249385 -3.15536e-22)
(1.10747 -0.183008 -5.60129e-22)
(1.09298 -0.141535 3.83742e-24)
(1.08252 -0.1102 3.54182e-25)
(1.07412 -0.0861584 0)
(1.06663 -0.0673199 0)
(1.05942 -0.05295 0)
(1.05223 -0.0414724 0)
(1.04583 -0.0322428 0)
(1.04167 -0.0246669 0)
(1.03929 -0.0184857 0)
(1.03764 -0.0133357 0)
(1.03644 -0.00897495 0)
(1.03572 -0.00513797 0)
(1.03544 -0.00162463 0)
(1.0333 3.58476e-05 0)
(1.03417 4.60943e-05 0)
(1.0355 -0.000123207 0)
(1.03738 -0.000621606 0)
(1.03984 -0.00158881 0)
(1.04253 -0.00324541 0)
(1.0443 -0.00604755 0)
(1.04507 -0.0106371 0)
(1.04679 -0.0175889 0)
(1.04999 -0.0280158 0)
(1.05378 -0.0433177 -2.15986e-23)
(1.05718 -0.0678083 0)
(1.05508 -0.100281 0)
(1.0291 -0.148774 8.6683e-22)
(0.937152 -0.231975 -2.68563e-21)
(0.765319 -0.239994 7.00635e-21)
(0.690398 -0.298314 6.04603e-23)
(0.707522 -0.423913 -8.2794e-24)
(0.715778 -0.557742 1.61846e-22)
(0.764976 -0.65963 1.9486e-21)
(0.854761 -0.696258 1.02664e-21)
(0.952552 -0.662763 8.06189e-22)
(1.01165 -0.563716 6.83159e-22)
(1.0276 -0.437479 -2.36801e-22)
(1.04013 -0.333417 5.0783e-23)
(1.03566 -0.244335 2.45741e-21)
(1.03859 -0.186233 -2.16734e-22)
(1.03989 -0.143059 0)
(1.04157 -0.110725 0)
(1.04276 -0.0853418 1.12784e-23)
(1.04245 -0.0657944 0)
(1.04067 -0.0508477 0)
(1.03749 -0.0391766 0)
(1.03402 -0.0301328 0)
(1.03207 -0.0230473 0)
(1.03137 -0.0173715 0)
(1.03096 -0.0126243 0)
(1.03067 -0.00856832 -5.96319e-24)
(1.03059 -0.00496893 -4.27806e-24)
(1.03069 -0.0016296 0)
(1.03316 0.000133458 0)
(1.0341 0.00048421 0)
(1.03573 0.000739503 0)
(1.03814 0.00074538 0)
(1.04143 0.000341125 0)
(1.04547 -0.000687401 0)
(1.04951 -0.00283453 0)
(1.05355 -0.00699456 0)
(1.05977 -0.0137498 0)
(1.06939 -0.0239056 0)
(1.08292 -0.0386265 1.802e-22)
(1.10095 -0.0618183 0)
(1.12304 -0.0961499 0)
(1.1277 -0.142828 -1.66213e-21)
(1.068 -0.238188 -1.08854e-20)
(0.92061 -0.372599 1.0199e-22)
(0.874914 -0.505455 0)
(0.826596 -0.579558 4.70691e-22)
(0.782154 -0.611824 -6.82533e-21)
(0.76154 -0.615686 -1.57625e-20)
(0.786453 -0.578733 2.72604e-21)
(0.823769 -0.495754 -2.46288e-21)
(0.867641 -0.411882 -1.71604e-22)
(0.906597 -0.339346 0)
(0.939571 -0.278777 4.91589e-22)
(0.957421 -0.216829 -2.42005e-21)
(0.971985 -0.165393 -1.04149e-21)
(0.989194 -0.125785 0)
(1.00263 -0.0964633 0)
(1.01242 -0.0732645 5.18744e-23)
(1.01893 -0.0556543 0)
(1.02251 -0.0421287 0)
(1.02356 -0.0317102 0)
(1.02345 -0.0239885 0)
(1.02388 -0.018357 0)
(1.02471 -0.0139784 1.07882e-23)
(1.02529 -0.0103102 -1.40191e-23)
(1.02564 -0.00714188 0)
(1.02591 -0.00423805 0)
(1.02617 -0.00148295 -3.29445e-23)
(1.03245 0.000413559 0)
(1.03333 0.00125308 0)
(1.03511 0.00211111 0)
(1.03787 0.00287945 0)
(1.04177 0.00349206 0)
(1.04689 0.00381361 0)
(1.05297 0.00351368 -5.30467e-24)
(1.06012 0.00171244 0)
(1.0702 -0.00208134 0)
(1.08486 -0.00805665 0)
(1.10585 -0.0167486 0)
(1.13506 -0.0291148 0)
(1.17633 -0.0492151 0)
(1.21873 -0.0736611 -8.08678e-22)
(1.21559 -0.135667 -3.95925e-23)
(1.11461 -0.241702 -3.1057e-23)
(1.01498 -0.373347 0)
(0.913927 -0.467516 0)
(0.826632 -0.540464 -8.68402e-21)
(0.755953 -0.550201 -3.00026e-20)
(0.713785 -0.540137 9.36513e-21)
(0.707803 -0.471305 -3.34441e-22)
(0.74073 -0.393981 0)
(0.793317 -0.311061 0)
(0.840464 -0.230759 0)
(0.880561 -0.165527 2.37194e-23)
(0.917548 -0.122531 -1.64392e-22)
(0.946075 -0.0904934 -4.03635e-24)
(0.970109 -0.0674671 0)
(0.987349 -0.049915 0)
(0.999618 -0.0368999 0)
(1.00769 -0.0270271 0)
(1.01256 -0.0196298 4.73422e-23)
(1.01568 -0.0145635 1.94008e-23)
(1.01824 -0.0112272 9.77391e-25)
(1.02022 -0.00869023 0)
(1.02149 -0.00651312 0)
(1.0222 -0.00457387 0)
(1.02257 -0.00274072 0)
(1.02275 -0.000900682 0)
(1.03082 0.000681123 0)
(1.03169 0.00213869 0)
(1.03346 0.0036634 0)
(1.03623 0.00534166 0)
(1.04019 0.00722945 0)
(1.04558 0.00932128 0)
(1.05259 0.0115612 0)
(1.06151 0.0133966 0)
(1.07358 0.0145221 -3.16583e-23)
(1.09022 0.015439 0)
(1.11348 0.0162941 0)
(1.1459 0.0192953 0)
(1.19146 0.0222159 -3.02589e-22)
(1.2522 0.0316832 -6.46514e-22)
(1.29975 0.0278486 0)
(1.2543 -0.00617372 0)
(1.1657 -0.0881638 0)
(1.0464 -0.151766 0)
(0.918554 -0.233838 4.33479e-20)
(0.797572 -0.238427 8.8062e-20)
(0.696173 -0.264325 1.101e-20)
(0.643799 -0.246993 -5.45799e-21)
(0.64857 -0.221925 0)
(0.686297 -0.183046 0)
(0.738941 -0.132375 0)
(0.805181 -0.0838405 0)
(0.871453 -0.0511604 -5.5664e-21)
(0.916129 -0.0346235 -5.94403e-22)
(0.947938 -0.0228702 0)
(0.971399 -0.0158497 -1.35674e-24)
(0.987916 -0.0108086 2.99397e-24)
(0.999082 -0.0071309 4.54029e-25)
(1.00663 -0.00462208 0)
(1.01197 -0.00336724 0)
(1.0158 -0.00288934 0)
(1.01825 -0.00251957 0)
(1.01971 -0.00205564 0)
(1.02054 -0.00148933 0)
(1.02096 -0.000899991 0)
(1.02121 -0.000186703 0)
(1.02852 0.000824104 0)
(1.02925 0.00283957 0)
(1.03072 0.0050111 0)
(1.03305 0.00760942 0)
(1.03642 0.0107283 0)
(1.04113 0.014522 0)
(1.04766 0.0191533 0)
(1.05643 0.0245045 0)
(1.06802 0.0306286 0)
(1.08307 0.0385166 0)
(1.10286 0.0489371 9.38527e-23)
(1.12964 0.0652734 -7.58145e-23)
(1.16496 0.0881914 1.50524e-21)
(1.21471 0.125408 1.00679e-21)
(1.27341 0.171901 0)
(1.27578 0.215965 0)
(1.22577 0.219032 0)
(1.12255 0.227241 0)
(0.991105 0.185388 9.88693e-20)
(0.854464 0.193361 -1.57993e-19)
(0.729013 0.152207 2.17324e-21)
(0.660994 0.125319 -5.48383e-21)
(0.653308 0.0899351 0)
(0.673918 0.0620315 0)