/*--------------------------------*- C++ -*----------------------------------*\
| =========                 |                                                 |
| \\      /  F ield         | OpenFOAM: The Open Source CFD Toolbox           |
|  \\    /   O peration     | Version:  v2106                                 |
|   \\  /    A nd           | Website:  www.openfoam.com                      |
|    \\/     M anipulation  |                                                 |
\*---------------------------------------------------------------------------*/
FoamFile
{
    version     2.0;
    format      ascii;
    arch        "LSB;label=32;scalar=64";
    class       volVectorField;
    location    "0";
    object      U;
}
// * * * * * * * * * * * * * * * * * * * * * * * * * * * * * * * * * * * * * //

dimensions      [0 1 -1 0 0 0 0];

internalField   nonuniform List<vector> 
11644
(
(0.993067 -0.000242707 1.39792e-23)
(0.992949 -0.000641649 3.85506e-23)
(0.992879 -0.000943603 2.06833e-23)
(0.992862 -0.00125542 0)
(0.992858 -0.00158962 0)
(0.992854 -0.00194263 0)
(0.992851 -0.00231053 0)
(0.992847 -0.00268525 0)
(0.992844 -0.00305551 0)
(0.992836 -0.00341088 0)
(0.992847 -0.00372484 0)
(0.992809 -0.00399098 0)
(0.992803 -0.00417111 0)
(0.99298 -0.00423951 0)
(0.992837 -0.00419535 0)
(0.992867 -0.00401819 0)
(0.992962 -0.00372262 0)
(0.992858 -0.0032517 0)
(0.992719 -0.00266165 0)
(0.992606 -0.00196516 3.29332e-30)
(0.99248 -0.0012233 -3.28208e-30)
(0.99226 -0.000275244 0)
(0.992324 0.000884551 0)
(0.992696 0.0017568 0)
(0.992911 0.00218782 0)
(0.992904 0.00244952 0)
(0.99305 0.00272885 0)
(0.992909 0.00281093 0)
(0.992832 0.00282799 0)
(0.99284 0.00274987 0)
(0.99286 0.00259762 0)
(0.992856 0.00239626 0)
(0.992855 0.00215625 0)
(0.992854 0.00189484 0)
(0.992853 0.00162279 0)
(0.992855 0.00134811 0)
(0.992859 0.00107679 0)
(0.992875 0.000814911 0)
(0.992936 0.000554991 0)
(0.993038 0.000211301 2.71043e-24)
(0.993898 -0.000496468 1.79562e-23)
(0.993817 -0.00150406 1.66332e-23)
(0.99376 -0.00253619 8.93317e-24)
(0.993762 -0.00356729 0)
(0.9938 -0.00462008 0)
(0.993848 -0.00571466 0)
(0.993894 -0.00685313 0)
(0.993928 -0.00802286 0)
(0.993936 -0.00920013 0)
(0.993918 -0.0103431 0)
(0.9938 -0.0114216 0)
(0.993683 -0.012323 0)
(0.993464 -0.0130105 0)
(0.992871 -0.013446 0)
(0.992655 -0.0133908 0)
(0.992122 -0.0129283 3.59839e-24)
(0.991403 -0.0118925 -1.31789e-23)
(0.990938 -0.0103772 1.44243e-23)
(0.990664 -0.00850522 -9.67325e-23)
(0.99053 -0.0063646 1.06024e-21)
(0.990316 -0.00389649 -1.08851e-21)
(0.990132 -0.00121815 1.70783e-22)
(0.990244 0.00135328 -5.8933e-23)
(0.990805 0.00368059 1.52485e-23)
(0.991553 0.00560224 -3.46468e-24)
(0.992093 0.00694734 0)
(0.992253 0.00775616 0)
(0.992775 0.00822618 0)
(0.993141 0.0082943 0)
(0.993331 0.008061 0)
(0.993443 0.0076163 0)
(0.993549 0.00700133 0)
(0.993602 0.00628212 0)
(0.993628 0.0054957 0)
(0.993634 0.00467388 0)
(0.993629 0.00383871 0)
(0.993623 0.00299865 0)
(0.993634 0.00215179 0)
(0.993686 0.00129255 0)
(0.993761 0.000428143 0)
(0.995575 -0.000766209 0)
(0.995543 -0.00237026 0)
(0.995559 -0.00404536 0)
(0.995634 -0.00578003 0)
(0.995756 -0.00757708 1.64027e-23)
(0.995904 -0.00945222 0)
(0.996056 -0.0114138 0)
(0.996183 -0.0134535 0)
(0.996252 -0.0155415 0)
(0.996197 -0.0176403 0)
(0.996031 -0.0196238 0)
(0.995566 -0.0214519 0)
(0.994821 -0.0229216 -4.44345e-25)
(0.994161 -0.0237961 7.26082e-23)
(0.992532 -0.0241206 2.34721e-22)
(0.991013 -0.0235345 -7.07558e-22)
(0.989567 -0.0220533 -6.54155e-22)
(0.988051 -0.0196708 4.10574e-22)
(0.986766 -0.0163897 -1.82577e-22)
(0.985712 -0.012136 1.55581e-21)
(0.985108 -0.00721787 -4.5773e-22)
(0.985143 -0.00223601 -6.61588e-22)
(0.985868 0.00220386 -6.85885e-22)
(0.987172 0.00602211 1.19219e-21)
(0.988732 0.00927068 2.67524e-22)
(0.990247 0.0117175 -3.01438e-22)
(0.991809 0.0132996 -8.1429e-23)
(0.992686 0.0139733 -1.72866e-26)
(0.993453 0.0140549 0)
(0.994128 0.0136074 0)
(0.994618 0.012779 0)
(0.994894 0.0117096 0)
(0.995068 0.0104661 0)
(0.995147 0.00912676 0)
(0.995167 0.00773582 0)
(0.995157 0.00632456 0)
(0.995138 0.00490705 0)
(0.995136 0.00348437 0)
(0.995167 0.00205769 0)
(0.995219 0.000675588 0)
(0.998092 -0.00106996 0)
(0.998112 -0.00322198 0)
(0.998221 -0.00548053 0)
(0.998423 -0.00783697 0)
(0.998703 -0.0103154 0)
(0.999031 -0.0129457 0)
(0.999372 -0.0157395 0)
(0.999678 -0.0186955 0)
(0.999878 -0.0217943 0)
(0.999903 -0.0249603 0)
(0.999554 -0.0281531 -9.5084e-25)
(0.998818 -0.0311606 3.92684e-23)
(0.997516 -0.0337758 -1.04056e-22)
(0.995094 -0.0359124 9.14394e-23)
(0.992892 -0.0365969 -4.65363e-22)
(0.989589 -0.0361386 8.95545e-22)
(0.986041 -0.0341513 -1.59765e-21)
(0.982609 -0.0305091 1.69553e-21)
(0.979596 -0.0249858 -4.68382e-23)
(0.977285 -0.0181112 -1.58228e-21)
(0.976196 -0.0104941 9.52353e-22)
(0.976593 -0.00278719 -8.83929e-23)
(0.9785 0.00417111 -1.02484e-21)
(0.981202 0.00993139 2.29994e-21)
(0.98427 0.0145988 -1.53165e-21)
(0.987322 0.0179625 4.27112e-22)
(0.989832 0.0199726 7.38308e-24)
(0.992534 0.0208014 6.50003e-23)
(0.994362 0.0206377 -3.79564e-23)
(0.995572 0.0197796 1.71645e-24)
(0.996406 0.0184208 0)
(0.996987 0.0167143 0)
(0.997293 0.0148368 0)
(0.99744 0.0128548 0)
(0.997478 0.0108344 0)
(0.99746 0.00880871 0)
(0.997421 0.00679859 0)
(0.997393 0.0048114 0)
(0.997395 0.00285607 0)
(0.997435 0.000936379 0)
(1.00134 -0.00127467 0)
(1.00143 -0.00393664 0)
(1.00167 -0.00668979 0)
(1.00206 -0.00958361 0)
(1.00257 -0.0126744 0)
(1.00317 -0.0159984 0)
(1.00382 -0.0195878 0)
(1.00443 -0.0234666 0)
(1.0049 -0.0276325 0)
(1.00505 -0.0320857 -1.28983e-24)
(1.00478 -0.0367422 -4.08972e-23)
(1.00386 -0.0414205 -3.7851e-22)
(1.00194 -0.0457435 -1.73635e-22)
(0.999588 -0.0488634 2.21146e-21)
(0.994328 -0.051247 4.19002e-22)
(0.988893 -0.0512164 -3.29469e-21)
(0.982819 -0.049101 1.86142e-21)
(0.975346 -0.0439932 -1.4535e-21)
(0.96911 -0.0355675 1.2449e-21)
(0.964367 -0.0246957 1.83403e-21)
(0.962496 -0.0126345 -1.1553e-21)
(0.963924 -0.000848556 -1.93348e-21)
(0.967995 0.00931649 1.54884e-21)
(0.973121 0.017238 -1.88585e-21)
(0.978297 0.0231006 3.66103e-21)
(0.983743 0.0270735 -7.91236e-22)
(0.988996 0.029033 -2.53919e-21)
(0.992547 0.029478 4.44327e-22)
(0.995582 0.0286792 3.87917e-22)
(0.997822 0.0269795 6.9703e-23)
(0.999186 0.0247547 -2.91643e-23)
(0.999975 0.022205 0)
(1.00043 0.0194815 0)
(1.00061 0.0167322 0)
(1.00063 0.014003 0)
(1.00056 0.0113279 0)
(1.00047 0.00872259 0)
(1.00039 0.00617351 0)
(1.00035 0.00367363 0)
(1.00037 0.00121992 0)
(1.00514 -0.00152307 0)
(1.00532 -0.00452202 0)
(1.00575 -0.00764676 0)
(1.00639 -0.0109503 0)
(1.00722 -0.0145123 0)
(1.00822 -0.0184011 0)
(1.00932 -0.0226895 0)
(1.01042 -0.0274324 0)
(1.01138 -0.0326949 2.18342e-23)
(1.01209 -0.0385253 1.96083e-22)
(1.0124 -0.0448811 -2.57901e-22)
(1.01178 -0.0515817 -5.99383e-22)
(1.00954 -0.0582351 1.42461e-21)
(1.00416 -0.0652863 -1.58013e-21)
(0.997829 -0.0686136 3.25007e-21)
(0.98777 -0.0694865 -6.10677e-21)
(0.975973 -0.0676538 6.55306e-22)
(0.962894 -0.060222 5.55253e-21)
(0.951822 -0.0468794 -3.5744e-21)
(0.944352 -0.0304726 -1.4049e-21)
(0.941826 -0.0126078 6.45516e-21)
(0.944941 0.00473467 -2.04541e-21)
(0.95247 0.0196683 -5.13438e-21)
(0.96188 0.0302576 1.8511e-21)
(0.972007 0.0367385 4.01572e-21)
(0.980541 0.0404858 -3.81436e-21)
(0.987198 0.0418081 2.10952e-21)
(0.993842 0.0405052 -4.71538e-22)
(0.998092 0.0382895 -2.79631e-22)
(1.00118 0.0353299 -2.71685e-23)
(1.00321 0.031858 -2.78708e-22)
(1.00424 0.0281662 4.94443e-23)
(1.00467 0.0244265 0)
(1.00478 0.0207647 0)
(1.00469 0.0172458 0)
(1.0045 0.0138735 0)
(1.0043 0.0106336 0)
(1.00413 0.00751838 0)
(1.00403 0.0044551 0)
(1.00402 0.00147952 0)
(1.00933 -0.00156203 0)
(1.00962 -0.00483998 0)
(1.01025 -0.00823748 0)
(1.0112 -0.0118329 0)
(1.01246 -0.015729 0)
(1.01398 -0.0200361 0)
(1.01571 -0.0248565 0)
(1.01753 -0.0303195 -4.3196e-25)
(1.01946 -0.0366065 6.64007e-23)
(1.02136 -0.0439043 -2.25001e-22)
(1.0227 -0.0523266 7.09256e-22)
(1.02267 -0.0618627 -3.83773e-22)
(1.02022 -0.072344 -6.65998e-22)
(1.01632 -0.080669 1.01328e-21)
(1.00431 -0.0907513 8.34321e-22)
(0.9894 -0.0948718 -1.39493e-21)
(0.974749 -0.0856949 -2.38542e-21)
(0.956704 -0.0783307 4.68135e-21)
(0.93883 -0.0627428 -4.94923e-22)
(0.925797 -0.0401348 1.04771e-21)
(0.920913 -0.0137577 -3.34106e-23)
(0.92547 0.0110642 1.91885e-21)
(0.936311 0.0305834 1.89799e-21)
(0.95021 0.0440281 9.43756e-22)
(0.965793 0.0591588 5.44876e-22)
(0.979653 0.0606566 -2.33734e-22)
(0.991182 0.0579449 -1.85271e-21)
(0.997407 0.0543798 -2.14315e-22)
(1.00256 0.0495638 1.10815e-21)
(1.00619 0.0446054 -4.2033e-22)
(1.00866 0.0395268 2.53453e-22)
(1.00994 0.0344191 3.35212e-23)
(1.01028 0.0295 -9.49844e-24)
(1.01012 0.0248052 0)
(1.00977 0.0204096 0)
(1.00935 0.0162921 0)
(1.00894 0.0124153 0)
(1.00861 0.00871977 0)
(1.00839 0.00520427 0)
(1.00832 0.00169759 0)
(1.01369 -0.00165104 0)
(1.0141 -0.00496276 0)
(1.01497 -0.00838842 0)
(1.01629 -0.012084 0)
(1.01805 -0.0161291 0)
(1.02022 -0.0206511 0)
(1.02275 -0.0257888 0)
(1.02566 -0.0317548 -5.0106e-23)
(1.02924 -0.0389614 6.78024e-23)
(1.03292 -0.0478055 1.00547e-22)
(1.03599 -0.0584501 -1.60148e-22)
(1.03755 -0.0706892 2.55943e-22)
(1.03678 -0.0838554 -8.01454e-22)
(1.02649 -0.0967168 -5.14933e-22)
(1.01697 -0.105529 -1.12263e-21)
(1.00129 -0.114408 7.82564e-22)
(0.97348 -0.119291 -1.21368e-21)
(0.941766 -0.112278 -2.71473e-21)
(0.908816 -0.0924646 -4.38204e-21)
(0.883935 -0.0571491 8.12314e-22)
(0.874961 -0.0125832 -9.34408e-23)
(0.885564 0.0294102 -1.84961e-21)
(0.90816 0.0595751 -1.39564e-21)
(0.934889 0.0758668 -4.42161e-21)
(0.958287 0.0824329 9.5233e-23)
(0.978953 0.0798419 -1.05311e-21)
(0.992563 0.0740305 -7.45328e-22)
(1.00577 0.0692154 3.12398e-23)
(1.0106 0.0614822 6.60296e-23)
(1.01379 0.0539863 -6.76698e-22)
(1.01597 0.0470775 3.2186e-22)
(1.01709 0.04057 -4.25943e-23)
(1.01733 0.0343926 -3.73189e-23)
(1.01674 0.0286552 0)
(1.0159 0.0233773 0)
(1.01507 0.0185535 0)
(1.01433 0.0140979 0)
(1.01375 0.0099023 0)
(1.01336 0.00584439 0)
(1.01321 0.00198403 0)
(1.01803 -0.00162032 0)
(1.01856 -0.00479723 0)
(1.01969 -0.00818985 0)
(1.02141 -0.0117499 0)
(1.02371 -0.0156898 0)
(1.02661 -0.0201326 0)
(1.0301 -0.0252772 -4.09203e-24)
(1.03463 -0.0314908 -3.03577e-23)
(1.04046 -0.0394063 1.96931e-22)
(1.04656 -0.0494586 -1.10024e-22)
(1.05227 -0.0618451 -4.35619e-23)
(1.05672 -0.0769099 -4.34706e-22)
(1.05851 -0.0962227 3.65652e-22)
(1.04777 -0.11327 -1.6413e-21)
(1.038 -0.129551 7.40074e-22)
(1.01785 -0.148955 6.05497e-22)
(0.984544 -0.1593 2.45716e-21)
(0.935441 -0.164091 -1.44173e-21)
(0.876659 -0.14379 3.39992e-21)
(0.825017 -0.091605 -2.26391e-21)
(0.803978 -0.013595 7.15114e-22)
(0.824514 0.0591129 3.3232e-21)
(0.869709 0.104963 -2.61245e-21)
(0.918647 0.123414 1.42067e-21)
(0.958181 0.121416 8.06546e-22)
(0.988086 0.114107 1.60714e-21)
(1.00387 0.0992666 -1.83815e-21)
(1.01912 0.0863609 -3.63593e-22)
(1.02272 0.0729208 5.04018e-22)
(1.02438 0.0624215 -1.84927e-22)
(1.0255 0.0535019 3.35658e-22)
(1.02589 0.04566 -4.34335e-23)
(1.02572 0.0384529 -9.13706e-23)
(1.02464 0.0317754 1.46427e-23)
(1.02307 0.0257001 0)
(1.02162 0.0202218 0)
(1.02041 0.015223 0)
(1.01947 0.0106241 0)
(1.01886 0.00627175 0)
(1.01859 0.00201055 0)
(1.0221 -0.00134506 0)
(1.02274 -0.00434829 0)
(1.0241 -0.00735759 0)
(1.0262 -0.0106462 0)
(1.02908 -0.0142708 0)
(1.03276 -0.0183846 0)
(1.03741 -0.0231965 8.5334e-24)
(1.04403 -0.0292707 -3.93862e-23)
(1.05256 -0.0373717 1.03354e-23)
(1.06168 -0.0478372 -4.16488e-23)
(1.07093 -0.0608536 1.60242e-22)
(1.07983 -0.077184 -1.8002e-22)
(1.0874 -0.0993952 1.21622e-22)
(1.08152 -0.122884 4.13366e-23)
(1.07539 -0.149156 1.78401e-22)
(1.05224 -0.184772 -5.70015e-22)
(1.01523 -0.216033 -4.31091e-23)
(0.949553 -0.250436 1.04704e-21)
(0.841314 -0.256772 -4.45165e-22)
(0.712167 -0.184228 9.10571e-22)
(0.648277 -0.0214521 8.47219e-22)
(0.707186 0.137047 -1.22941e-21)
(0.823655 0.207216 -8.25128e-23)
(0.917638 0.206696 1.29513e-21)
(0.980412 0.182327 -1.02651e-21)
(1.01748 0.152216 -1.47645e-21)
(1.02946 0.122633 -7.44565e-23)
(1.0402 0.0994964 1.50765e-23)
(1.03956 0.0819768 -2.60485e-22)
(1.03817 0.0684999 1.60859e-22)
(1.03723 0.0577492 1.71805e-22)
(1.03624 0.0488334 1.00448e-22)
(1.03523 0.0409418 -2.12053e-22)
(1.03358 0.0336514 4.61721e-23)
(1.03112 0.0270537 0)
(1.02884 0.0211806 0)
(1.02699 0.0159107 0)
(1.0256 0.0110709 0)
(1.02469 0.00657037 0)
(1.02428 0.00224229 0)
(1.02568 -0.0013251 0)
(1.02645 -0.0037644 0)
(1.02804 -0.00631998 0)
(1.0305 -0.00907148 0)
(1.03387 -0.0120606 0)
(1.03825 -0.0154599 0)
(1.04422 -0.0195182 -9.35026e-24)
(1.05319 -0.0249252 1.18014e-23)
(1.06448 -0.0322166 -1.32844e-23)
(1.07692 -0.0416802 -5.40436e-23)
(1.09043 -0.0537102 -4.01333e-23)
(1.10504 -0.0691149 1.03625e-22)
(1.11952 -0.0883043 -8.12357e-23)
(1.12357 -0.118067 2.49583e-22)
(1.12996 -0.153207 6.14273e-22)
(1.12609 -0.2046 -1.64381e-22)
(1.10499 -0.273846 -3.99807e-23)
(1.04816 -0.381892 2.94884e-23)
(0.877373 -0.507433 -8.44769e-22)
(0.49052 -0.504932 -3.41414e-20)
(0.186224 -0.0266641 -7.44802e-21)
(0.485004 0.433229 -4.24661e-21)
(0.836864 0.440685 1.19569e-21)
(0.994411 0.331682 -1.97626e-23)
(1.05126 0.242548 4.20893e-23)
(1.07045 0.177774 -2.03959e-22)
(1.06738 0.138682 -5.96617e-24)
(1.06796 0.103003 -2.5736e-23)
(1.06085 0.0850593 -2.78664e-23)
(1.05487 0.0702476 3.73537e-23)
(1.05076 0.058624 -2.73623e-23)
(1.04768 0.0491479 3.94391e-24)
(1.04541 0.0410677 -1.30392e-23)
(1.04309 0.033738 2.24949e-23)
(1.03969 0.0270178 0)
(1.03643 0.021047 0)
(1.03381 0.0157524 0)
(1.03187 0.0109168 0)
(1.03059 0.00639042 0)
(1.02999 0.00200167 0)
(1.02862 -0.000979955 0)
(1.02946 -0.00289367 0)
(1.03127 -0.00494634 0)
(1.03398 -0.0069594 0)
(1.03772 -0.00913646 0)
(1.04265 -0.0115174 0)
(1.04996 -0.0144259 -1.13365e-23)
(1.06105 -0.0184411 -2.49581e-23)
(1.0747 -0.0237691 -4.86408e-23)
(1.09005 -0.0304794 -6.78182e-23)
(1.10762 -0.0390142 -1.0283e-22)
(1.12792 -0.0500734 -1.4196e-22)
(1.15106 -0.0639628 4.0932e-22)
(1.16315 -0.0927158 -1.15735e-22)
(1.19225 -0.12443 9.52258e-23)
(1.21576 -0.179391 7.16669e-23)
(1.24879 -0.26126 1.49818e-24)
(1.30152 -0.412293 1.56465e-21)
(1.00307 -0.545688 -1.06244e-19)
(1.01031 0.524441 1.57363e-20)
(1.20421 0.373292 -2.7677e-23)
(1.1638 0.241709 -1.72352e-22)
(1.13658 0.167895 -5.37274e-23)
(1.11186 0.132885 -2.0065e-23)
(1.09759 0.0960926 -1.08062e-22)
(1.08346 0.0795922 8.31338e-23)
(1.07276 0.0661305 3.67231e-23)
(1.06501 0.0550464 2.29464e-23)
(1.05942 0.045949 1.03222e-24)
(1.0556 0.0383515 -1.07591e-23)
(1.05249 0.0315507 -1.5587e-23)
(1.04822 0.0252211 0)
(1.04392 0.0195675 0)
(1.04051 0.0146058 0)
(1.038 0.0101797 0)
(1.03634 0.00603656 0)
(1.03554 0.00218295 0)
(1.03084 -0.000533368 0)
(1.0317 -0.00193644 0)
(1.03344 -0.00313928 0)
(1.03624 -0.00442667 0)
(1.04021 -0.00572505 0)
(1.04553 -0.00695979 0)
(1.05383 -0.00835935 8.73058e-24)
(1.06642 -0.0102981 -1.41507e-23)
(1.08154 -0.012581 -2.69e-23)
(1.0986 -0.015091 2.06031e-23)
(1.11834 -0.0180216 3.47952e-23)
(1.14229 -0.0217657 2.6009e-22)
(1.17085 -0.0257423 -7.95844e-22)
(1.19477 -0.0472436 -5.55824e-24)
(1.23925 -0.063511 -4.18608e-21)
(1.28612 -0.0993592 -3.99098e-24)
(1.3598 -0.14411 -2.19663e-22)
(1.48192 -0.191355 2.37426e-21)
(0.0162657 -0.00698396 1.62864e-19)
(0.0467558 -0.0161622 -1.51922e-19)
(1.34435 0.22157 -2.55147e-22)
(1.24847 0.169847 -2.17127e-23)
(1.18777 0.127301 -1.3579e-21)
(1.14944 0.107274 -1.653e-21)
(1.12263 0.0794832 -1.98984e-22)
(1.104 0.0674922 1.27456e-22)
(1.08949 0.0567023 -2.99418e-23)
(1.07849 0.0472221 -8.31534e-24)
(1.07052 0.0393785 -9.88239e-24)
(1.0651 0.0328534 1.04165e-23)
(1.06116 0.0270715 -6.20254e-24)
(1.05615 0.0216796 0)
(1.05086 0.0168032 0)
(1.04666 0.0125234 0)
(1.04358 0.00866157 0)
(1.04155 0.00508322 0)
(1.04053 0.00147564 0)
(1.03228 -0.000433183 -4.45489e-26)
(1.03318 -0.0010553 0)
(1.035 -0.00164273 0)
(1.03781 -0.00212218 0)
(1.04167 -0.0023927 0)
(1.04688 -0.0023929 0)
(1.05541 -0.00207966 -5.95286e-24)
(1.06827 -0.00146838 5.28283e-23)
(1.0832 -0.000221465 -1.61616e-23)
(1.10017 0.00207407 -1.41192e-22)
(1.1201 0.00569313 -1.764e-22)
(1.14437 0.0106119 6.43875e-22)
(1.17427 0.0187326 -9.4654e-23)
(1.20559 0.00968005 2.21424e-22)
(1.25401 0.0118213 -1.04815e-21)
(1.30977 0.000192708 -7.59518e-22)
(1.38603 -0.0088227 -5.13914e-23)
(1.44276 -0.000349157 2.95794e-22)
(0.151388 -0.0377822 -9.62949e-21)
(0.13782 -0.0224374 7.29847e-21)
(1.27336 0.0545828 -6.45417e-23)
(1.26315 0.0791276 7.85337e-22)
(1.20317 0.0776797 1.72502e-22)
(1.16809 0.074742 -6.59667e-22)
(1.13926 0.0592332 4.64872e-22)
(1.11967 0.0515567 -1.72564e-22)
(1.10334 0.0437037 -9.42903e-23)
(1.09013 0.0363042 -1.59284e-22)
(1.08017 0.0300775 -5.26095e-24)
(1.07319 0.0249069 7.95538e-24)
(1.06837 0.0204573 -6.12434e-24)
(1.06275 0.0164279 0)
(1.05671 0.0127708 0)
(1.0519 0.00954139 0)
(1.04831 0.0065723 0)
(1.04588 0.00383255 0)
(1.04461 0.00131825 0)
(1.03306 -0.00010049 6.89108e-26)
(1.03386 -0.000192586 0)
(1.03556 -0.000297418 0)
(1.03809 -0.000114808 0)
(1.04157 0.000424109 0)
(1.04633 0.0014856 0)
(1.05411 0.00340535 5.04984e-24)
(1.0658 0.00643932 -6.6884e-23)
(1.07903 0.0111107 1.80023e-22)
(1.09395 0.018042 -3.65731e-22)
(1.11138 0.0279662 9.28467e-22)
(1.13194 0.0410504 -1.0581e-21)
(1.15747 0.0594276 4.45458e-22)
(1.19111 0.0664261 3.56297e-22)
(1.23542 0.0866219 -6.07063e-22)
(1.29366 0.0993928 1.61704e-21)
(1.3713 0.115509 -2.78841e-21)
(1.43618 0.129308 2.43356e-21)
(0.511938 -0.0742402 -9.82353e-22)
(0.190322 -0.431702 -3.00782e-21)
(-0.0656662 -0.524086 2.84214e-23)
(-0.23204 -0.373269 -1.21034e-21)
(0.104904 -0.233241 -1.22694e-21)
(1.10702 -0.081518 -1.20585e-21)
(1.22006 0.0161515 1.59533e-21)
(1.19067 0.0456461 2.87499e-22)
(1.17123 0.0498023 1.41132e-21)
(1.14919 0.0414294 -2.48418e-23)
(1.13073 0.0349605 -1.08743e-22)
(1.11393 0.0289286 2.39521e-22)
(1.09944 0.0234494 -9.38156e-23)
(1.08802 0.018878 1.13506e-22)
(1.07959 0.015169 6.19229e-24)
(1.07374 0.0122468 2.14398e-24)
(1.0674 0.00979542 0)
(1.0609 0.00768075 0)
(1.05573 0.00580735 0)
(1.05195 0.00408368 0)
(1.0495 0.00246202 0)
(1.0484 0.000959564 0)
(1.03352 0.000179464 5.19142e-23)
(1.03402 0.000429649 0)
(1.03539 0.000943899 0)
(1.0375 0.00161336 0)
(1.0404 0.0026875 0)
(1.04423 0.00430551 0)
(1.05031 0.00693915 -1.03721e-25)
(1.05956 0.0114373 6.77717e-24)
(1.06964 0.0186288 -9.59465e-23)
(1.08047 0.0289155 1.11036e-22)
(1.09257 0.0432236 2.12625e-23)
(1.10607 0.0620639 4.67203e-22)
(1.12232 0.0882719 -9.66481e-22)
(1.15123 0.111688 -1.11489e-22)
(1.18563 0.149245 -2.37203e-21)
(1.23297 0.204315 2.13834e-21)
(1.30746 0.254855 3.64554e-21)
(1.41173 0.340119 4.02504e-21)
(0.996821 0.243399 -2.6926e-21)
(0.503222 0.0150197 4.21578e-21)
(0.011986 -0.168817 3.81804e-21)
(-0.365239 -0.305451 4.71638e-21)
(-0.0561989 -0.252661 -5.88659e-21)
(0.879834 -0.0589366 1.56504e-21)
(1.15908 0.0296558 -1.86664e-21)
(1.17838 0.0433092 1.28654e-21)
(1.17196 0.037444 -1.38407e-21)
(1.15665 0.0244538 -1.30503e-23)
(1.13899 0.0183613 -6.78106e-22)
(1.12156 0.0132483 3.94862e-23)
(1.10616 0.00933492 -2.6837e-22)
(1.09343 0.00640062 1.16654e-22)
(1.08395 0.0042894 -1.67984e-23)
(1.07702 0.00293364 -2.38041e-25)
(1.06984 0.00228181 0)
(1.06302 0.00187747 0)
(1.05766 0.00143055 0)
(1.05384 0.000937672 0)
(1.05144 0.000430422 0)
(1.05007 -8.86061e-05 4.0047e-23)
(1.03331 0.000196765 5.03e-23)
(1.03383 0.000645022 0)
(1.03488 0.00125763 0)
(1.0365 0.00201071 0)
(1.03866 0.00316857 0)
(1.04139 0.00481478 0)
(1.04534 0.00760313 0)
(1.05106 0.0127515 -1.17546e-24)
(1.05695 0.0207655 -7.01837e-24)
(1.06234 0.0322416 1.07565e-22)
(1.06735 0.048008 1.58931e-22)
(1.07181 0.0688846 -3.66954e-22)
(1.07631 0.0972479 8.80211e-22)
(1.08095 0.142003 -9.51536e-22)
(1.10705 0.188805 2.72559e-23)
(1.12446 0.256904 -2.33163e-21)
(1.1665 0.350794 1.21016e-21)
(1.21831 0.499136 1.2284e-20)
(1.13981 0.695237 -5.24929e-21)
(0.714641 0.64954 -1.19733e-20)
(0.265085 0.521343 -6.45491e-21)
(-0.141802 0.342259 9.67178e-21)
(-0.0755568 0.118612 3.12152e-21)
(0.694886 0.0960784 -3.41283e-20)
(1.18679 0.0981876 1.01405e-22)
(1.20064 0.0513746 -6.97607e-22)
(1.19028 0.0185713 2.57251e-22)
(1.1666 0.00444395 -2.02603e-22)
(1.14518 -0.000475999 1.73421e-23)
(1.12607 -0.00426023 -2.86583e-23)
(1.10947 -0.00602986 -1.11331e-22)
(1.0959 -0.00695125 2.56402e-23)
(1.08567 -0.0073481 -8.7541e-24)
(1.07747 -0.00690749 0)
(1.06964 -0.00558197 0)
(1.06281 -0.00424453 0)
(1.05752 -0.00318434 0)
(1.05369 -0.00225236 0)
(1.05109 -0.00128181 0)
(1.04959 -0.000363542 -1.54129e-22)
(1.03284 9.27417e-05 1.10229e-24)
(1.03333 0.000549143 0)
(1.03421 0.000978362 0)
(1.03543 0.00156485 0)
(1.0369 0.00243815 0)
(1.03849 0.00368347 0)
(1.04008 0.00582626 0)
(1.04178 0.0101899 0)
(1.04298 0.0172349 -2.2592e-24)
(1.04322 0.0271022 -1.2019e-22)
(1.04129 0.0406663 1.47948e-22)
(1.03629 0.0589569 -2.84619e-22)
(1.02837 0.0830638 9.95511e-22)
(1.0152 0.122907 -7.32132e-22)
(1.01973 0.175133 -3.79625e-22)
(1.0008 0.240332 -1.56967e-21)
(0.987166 0.346019 2.96593e-21)
(0.941867 0.499705 2.38558e-21)
(0.899296 0.674801 5.26788e-21)
(0.715921 0.82019 -1.23522e-22)
(0.387767 0.850183 -1.16971e-21)
(0.158465 0.728827 1.12287e-21)
(0.261858 0.479251 -5.05529e-21)
(0.793173 0.21827 -1.15755e-20)
(1.29099 0.0770316 4.18978e-22)
(1.25549 0.0205243 -3.78093e-22)
(1.20903 -0.0220612 2.7642e-23)
(1.17563 -0.0259633 -4.21486e-22)
(1.14851 -0.0255862 -1.00388e-22)
(1.12697 -0.0251173 -3.16462e-23)
(1.10931 -0.0231886 3.72387e-23)
(1.0953 -0.0213024 9.52211e-26)
(1.08412 -0.0191601 0)
(1.07468 -0.0162716 0)
(1.0666 -0.0128435 0)
(1.06015 -0.0097929 0)
(1.05523 -0.00718513 2.58924e-23)
(1.05165 -0.00484174 3.58075e-23)
(1.04928 -0.00266906 2.13524e-23)
(1.04803 -0.000788747 0)
(1.0324 8.40374e-05 0)
(1.03273 0.000186367 0)
(1.03343 0.00030112 0)
(1.03442 0.000524662 0)
(1.0355 0.000840335 0)
(1.03631 0.0013002 0)
(1.03603 0.00212855 0)
(1.03467 0.00428493 0)
(1.03226 0.00825887 4.64627e-26)
(1.02854 0.0138899 -8.10283e-26)
(1.02154 0.0217001 -1.16853e-23)
(1.00921 0.0321895 -6.33223e-23)
(0.989269 0.046801 1.27013e-22)
(0.961142 0.0682675 -3.57704e-22)
(0.944761 0.117783 3.45485e-21)
(0.893526 0.169632 5.25762e-22)
(0.825447 0.258135 -7.63424e-22)
(0.747224 0.364067 -1.17896e-21)
(0.659855 0.531003 1.02652e-22)
(0.529159 0.707743 -3.20762e-22)
(0.407858 0.773319 -8.27947e-21)
(0.408478 0.653437 -1.0404e-20)
(0.649457 0.387024 -2.66442e-21)
(1.12792 0.102648 2.25355e-21)
(1.38164 -0.0582209 -1.18598e-21)
(1.29122 -0.0675354 -1.52976e-21)
(1.21181 -0.0819913 -4.24578e-22)
(1.17261 -0.0681508 2.58634e-22)
(1.14351 -0.0573881 -2.89386e-22)
(1.1214 -0.0491887 -5.66653e-24)
(1.10396 -0.0416809 -5.69448e-24)
(1.09004 -0.0355957 6.0817e-26)
(1.0784 -0.0298965 0)
(1.06858 -0.0242047 0)
(1.06093 -0.0187735 0)
(1.0553 -0.014188 0)
(1.0511 -0.01031 0)
(1.04807 -0.00694956 0)
(1.04611 -0.0039701 0)
(1.04509 -0.00126099 -3.84559e-24)
(1.03212 2.18257e-06 0)
(1.03253 -0.000176735 0)
(1.0332 -0.000375221 0)
(1.03416 -0.000622217 0)
(1.03525 -0.000988677 0)
(1.03592 -0.00152183 0)
(1.03497 -0.0022816 0)
(1.03231 -0.00289636 0)
(1.02849 -0.00314969 0)
(1.02314 -0.00356836 0)
(1.01423 -0.00413672 4.924e-24)
(0.998844 -0.00584203 2.77028e-23)
(0.972683 -0.00553316 1.2234e-22)
(0.932455 -0.0102319 -1.76573e-22)
(0.896867 0.0272278 8.93355e-21)
(0.827632 0.0555148 -8.39511e-22)
(0.732201 0.111937 3.88104e-21)
(0.541063 0.210906 7.40056e-22)
(0.414456 0.346953 -5.51201e-22)
(0.397348 0.427477 9.41631e-22)
(0.513611 0.377974 1.40561e-20)
(0.734964 0.190677 2.95616e-20)
(1.05294 -0.0592165 -6.12063e-21)
(1.34789 -0.226 -9.1981e-22)
(1.35668 -0.230669 1.65285e-21)
(1.26225 -0.172675 6.57353e-22)
(1.18193 -0.140049 -5.52253e-23)
(1.14816 -0.110613 1.0022e-22)
(1.12436 -0.0880988 6.48547e-23)
(1.10586 -0.0712507 -3.21006e-24)
(1.09117 -0.0575263 0)
(1.07895 -0.0468491 0)
(1.06834 -0.0377455 0)
(1.05943 -0.0297936 0)
(1.05303 -0.0228905 0)
(1.04869 -0.0171979 0)
(1.04551 -0.0124599 0)
(1.04322 -0.00843828 0)
(1.04175 -0.00486555 0)
(1.04103 -0.00157229 0)
(1.03226 -1.73599e-05 0)
(1.03281 -0.000246192 0)
(1.03366 -0.00061805 0)
(1.03485 -0.00124079 0)
(1.03633 -0.00219502 0)
(1.03752 -0.00363183 0)
(1.03712 -0.00580057 0)
(1.03497 -0.00886859 0)
(1.03222 -0.0130991 0)
(1.02867 -0.0194575 0)
(1.02249 -0.0287027 0)
(1.01101 -0.0435489 1.84907e-24)
(0.988203 -0.060225 1.79233e-23)
(0.94704 -0.0919984 1.02827e-22)
(0.883016 -0.0862018 2.85262e-21)
(0.783836 -0.0805933 -7.53114e-21)
(0.644903 -0.0197495 2.37284e-21)
(0.475837 -0.0274689 -8.09614e-22)
(0.413044 -0.119268 -3.72742e-22)
(0.495427 -0.256108 -3.25319e-21)
(0.708777 -0.394489 -1.05409e-21)
(0.969218 -0.502911 8.31501e-21)
(1.20527 -0.53516 3.47808e-21)
(1.3143 -0.461055 4.03634e-21)
(1.22237 -0.330912 -3.7177e-22)
(1.1768 -0.240527 -4.44263e-22)
(1.12372 -0.177558 -4.25151e-22)
(1.10485 -0.137871 4.477e-24)
(1.09144 -0.107599 -3.82968e-26)
(1.08068 -0.0845576 0)
(1.07151 -0.0664425 0)
(1.06313 -0.0525998 0)
(1.05517 -0.041427 0)
(1.04826 -0.0323231 0)
(1.04367 -0.0247629 0)
(1.04092 -0.0185674 0)
(1.03898 -0.0134025 0)
(1.03759 -0.00902611 0)
(1.03673 -0.00516868 0)
(1.03636 -0.00163514 0)
(1.03242 1.61868e-06 0)
(1.03321 -0.000114026 0)
(1.03441 -0.00042458 0)
(1.0361 -0.0010787 0)
(1.03828 -0.00220921 0)
(1.04053 -0.00403971 0)
(1.04168 -0.00699491 0)
(1.04162 -0.0116295 0)
(1.04216 -0.0185155 0)
(1.04362 -0.0288024 0)
(1.04486 -0.0438743 -3.24589e-23)
(1.04446 -0.0679675 0)
(1.03629 -0.0990235 0)
(1.0025 -0.145695 6.32067e-22)
(0.90382 -0.218936 -2.10554e-21)
(0.752235 -0.20906 5.01521e-21)
(0.674846 -0.249953 6.90416e-23)
(0.674321 -0.380355 2.96178e-23)
(0.67975 -0.533818 1.10391e-22)
(0.742663 -0.660204 4.03365e-21)
(0.85349 -0.716738 2.59101e-21)
(0.975445 -0.697289 -1.31872e-21)
(1.05475 -0.598986 8.17208e-22)
(1.07419 -0.458238 -4.0215e-22)
(1.0703 -0.337743 9.23306e-23)
(1.0565 -0.245462 2.29886e-21)
(1.05543 -0.187291 -3.91943e-22)
(1.05258 -0.144461 0)
(1.05119 -0.111888 0)
(1.05 -0.086554 9.13354e-24)
(1.04788 -0.0669902 0)
(1.04474 -0.0520565 0)
(1.04057 -0.0403436 0)
(1.0364 -0.031172 0)
(1.03394 -0.0238647 0)
(1.03287 -0.0179655 0)
(1.0322 -0.0130289 0)
(1.03174 -0.00881353 -4.26143e-24)
(1.03154 -0.00508728 -3.0572e-24)
(1.03157 -0.00164447 0)
(1.03244 5.39309e-05 0)
(1.03338 0.000218695 0)
(1.03493 0.000251792 0)
(1.03718 -8.69533e-06 0)
(1.04023 -0.00073474 0)
(1.04387 -0.00216154 0)
(1.04726 -0.0047996 0)
(1.05038 -0.0094888 0)
(1.05544 -0.0168459 0)
(1.06347 -0.0278253 0)
(1.07464 -0.0437341 5.01969e-23)
(1.08914 -0.0690848 0)
(1.10472 -0.105716 0)
(1.09643 -0.15619 -2.91325e-21)
(1.02011 -0.254167 -8.93781e-21)
(0.876017 -0.378016 3.74057e-22)
(0.851857 -0.501653 0)
(0.816718 -0.571568 4.64056e-22)
(0.782429 -0.601892 -4.92783e-21)
(0.774062 -0.61047 -1.23973e-20)
(0.810583 -0.576914 2.44789e-21)
(0.853984 -0.499235 -3.47727e-21)
(0.895906 -0.417226 -2.35878e-23)
(0.927562 -0.345119 0)
(0.95818 -0.286137 2.29454e-22)
(0.976378 -0.225401 -2.86634e-21)
(0.987541 -0.172573 -7.99578e-22)
(1.00077 -0.131739 0)
(1.01137 -0.101295 0)
(1.01911 -0.0772766 8.99676e-23)
(1.02398 -0.0589937 0)
(1.02629 -0.0449572 0)
(1.02633 -0.0341123 0)
(1.02541 -0.0259568 0)
(1.02528 -0.0198677 0)
(1.02578 -0.0150938 7.70952e-24)
(1.02618 -0.0110987 -1.00184e-23)
(1.02642 -0.00765477 0)
(1.02665 -0.00452117 0)
(1.02692 -0.00157188 -2.35429e-23)
(1.03204 0.000288681 0)
(1.03295 0.000895659 0)
(1.0347 0.00149108 0)
(1.03739 0.00193456 0)
(1.04117 0.0021229 0)
(1.04606 0.00188484 0)
(1.05168 0.00082198 -3.79084e-24)
(1.05812 -0.00197016 0)
(1.06742 -0.00701745 0)
(1.08118 -0.0147022 0)
(1.10094 -0.025736 0)
(1.12831 -0.0420718 0)
(1.16603 -0.0675925 0)
(1.19749 -0.100574 -7.57918e-22)
(1.17233 -0.176583 -1.29479e-23)
(1.06308 -0.29223 -2.91011e-23)
(0.976735 -0.421186 0)
(0.8866 -0.507807 0)
(0.814031 -0.568929 -5.38268e-21)
(0.759388 -0.577497 2.05015e-21)
(0.733456 -0.559995 1.27791e-20)
(0.738619 -0.484284 -1.26442e-21)
(0.775039 -0.403824 0)
(0.824623 -0.321385 0)
(0.867718 -0.245623 0)
(0.901123 -0.181243 2.39095e-23)
(0.929911 -0.135591 -6.32984e-23)
(0.955376 -0.101259 -7.08948e-24)
(0.977012 -0.0761629 0)
(0.992453 -0.0568085 0)
(1.00339 -0.0423642 0)
(1.01045 -0.031355 0)
(1.01445 -0.0230378 3.38318e-23)
(1.01682 -0.0171868 1.38643e-23)
(1.01893 -0.0132008 6.98466e-25)
(1.02071 -0.0101587 0)
(1.02188 -0.00757894 0)
(1.02254 -0.0053122 0)
(1.02291 -0.00318377 0)
(1.02312 -0.00108162 0)
(1.03078 0.000582547 0)
(1.03166 0.00178827 0)
(1.03346 0.00304429 0)
(1.03629 0.00437483 0)
(1.04032 0.005806 0)
(1.04576 0.00728924 0)
(1.05269 0.00869071 0)
(1.06137 0.00935932 0)
(1.07325 0.00893552 -3.56988e-23)
(1.08992 0.00776753 0)
(1.11352 0.00583212 0)
(1.14649 0.00463903 0)
(1.19303 0.001415 -2.89911e-22)
(1.25038 0.00151061 -1.03048e-21)
(1.28215 -0.0207787 0)
(1.21946 -0.0763852 0)
(1.12723 -0.173295 0)
(1.01147 -0.24635 0)
(0.895174 -0.329076 3.65769e-20)
(0.788672 -0.334911 7.03944e-20)
(0.702228 -0.35224 6.29802e-21)
(0.660296 -0.320611 -3.62726e-21)
(0.670744 -0.28081 0)
(0.711534 -0.22767 0)
(0.762919 -0.165617 0)
(0.8217 -0.109237 0)
(0.880672 -0.0717816 -3.18464e-21)
(0.921727 -0.050902 -1.49629e-22)
(0.951441 -0.0354492 0)
(0.97361 -0.0252421 -9.6956e-25)
(0.989381 -0.0178278 3.75128e-24)
(1 -0.0123574 6.55602e-25)
(1.00706 -0.00847405 0)
(1.01199 -0.00618743 0)
(1.01563 -0.00496044 0)
(1.01808 -0.00403315 0)
(1.01958 -0.00313445 0)
(1.02044 -0.00222355 0)
(1.02087 -0.00132971 0)
(1.0211 -0.000328674 0)
(1.02874 0.00074262 0)
(1.02954 0.0025529 0)
(1.03114 0.00448038 0)
(1.03365 0.00676852 0)
(1.03727 0.00950056 0)
(1.04228 0.0127892 0)
(1.0491 0.0167498 0)
(1.05814 0.0211641 0)
(1.07019 0.025981 0)
(1.08614 0.032131 0)
(1.10756 0.0402209 1.58471e-22)
(1.13686 0.0536062 -7.22e-23)
(1.17638 0.0721347 1.3972e-21)
(1.23114 0.103926 1.3135e-21)
(1.2875 0.137685 0)
(1.27623 0.161371 0)
(1.21821 0.141393 0)
(1.10949 0.131795 0)
(0.978021 0.0768264 1.0849e-19)
(0.844076 0.0830039 -1.68378e-19)
(0.722095 0.0444329 3.0495e-21)
(0.655108 0.0279666 -1.07934e-20)
(0.648784 0.00722319 0)
(0.672039 -0.00446122 0)
(0.709724 -0.0062071 0)