/*--------------------------------*- C++ -*----------------------------------*\
| =========                 |                                                 |
| \\      /  F ield         | OpenFOAM: The Open Source CFD Toolbox           |
|  \\    /   O peration     | Version:  v2106                                 |
|   \\  /    A nd           | Website:  www.openfoam.com                      |
|    \\/     M anipulation  |                                                 |
\*---------------------------------------------------------------------------*/
FoamFile
{
    version     2.0;
    format      ascii;
    arch        "LSB;label=32;scalar=64";
    class       volVectorField;
    location    "0";
    object      U;
}
// * * * * * * * * * * * * * * * * * * * * * * * * * * * * * * * * * * * * * //

dimensions      [0 1 -1 0 0 0 0];

internalField   nonuniform List<vector> 
11644
(
(0.996924 -0.000240592 -1.53756e-23)
(0.996813 -0.000643426 -4.24014e-23)
(0.996742 -0.000960696 -2.27494e-23)
(0.996723 -0.00128587 0)
(0.996719 -0.0016355 0)
(0.996717 -0.00200809 0)
(0.996716 -0.00240083 0)
(0.996716 -0.0028074 0)
(0.996712 -0.00322041 0)
(0.996717 -0.00362082 0)
(0.9967 -0.00399845 0)
(0.996664 -0.00433447 0)
(0.996719 -0.00457386 0)
(0.99689 -0.00471909 0)
(0.996729 -0.00475552 0)
(0.996673 -0.00464238 0)
(0.996677 -0.00440499 0)
(0.996792 -0.00409643 0)
(0.996892 -0.00377606 0)
(0.996687 -0.00324489 3.40559e-30)
(0.996277 -0.00234138 -3.39136e-30)
(0.996029 -0.0011246 0)
(0.996144 4.51812e-05 0)
(0.996437 0.000906333 0)
(0.996599 0.00148777 0)
(0.996635 0.00193349 0)
(0.996811 0.00231242 0)
(0.996682 0.00251308 0)
(0.996655 0.00261265 0)
(0.996681 0.00260183 0)
(0.996685 0.00250757 0)
(0.996695 0.00234511 0)
(0.996697 0.00213617 0)
(0.9967 0.00189349 0)
(0.996703 0.00163071 0)
(0.996707 0.00136069 0)
(0.996714 0.00109116 0)
(0.996732 0.00082854 0)
(0.996793 0.000569015 0)
(0.996901 0.000218445 -2.98117e-24)
(0.997743 -0.00047699 -1.97499e-23)
(0.997679 -0.00145032 -1.82947e-23)
(0.997643 -0.00245195 -9.82551e-24)
(0.997659 -0.00346829 0)
(0.997708 -0.00451779 0)
(0.997771 -0.00561547 0)
(0.997836 -0.00676499 0)
(0.997892 -0.00795724 0)
(0.99793 -0.00917224 0)
(0.997925 -0.0103797 0)
(0.997873 -0.0115207 0)
(0.997791 -0.0125204 0)
(0.99753 -0.0133375 0)
(0.996987 -0.0138699 0)
(0.996717 -0.0139627 0)
(0.996266 -0.0136983 6.97246e-24)
(0.995858 -0.0130197 6.36259e-24)
(0.995424 -0.0118513 2.67994e-24)
(0.994693 -0.00986696 -8.17849e-23)
(0.993995 -0.0072303 -3.44891e-23)
(0.993634 -0.00435784 1.58788e-22)
(0.993691 -0.00162529 -2.5808e-23)
(0.994085 0.000822601 -1.47328e-23)
(0.994585 0.0030245 -7.39221e-24)
(0.995101 0.0049583 -6.48188e-24)
(0.9956 0.00645172 0)
(0.995794 0.00745673 0)
(0.996386 0.00804081 0)
(0.996771 0.00822045 0)
(0.997004 0.00808718 0)
(0.99718 0.00770296 0)
(0.997305 0.00713396 0)
(0.997392 0.00643624 0)
(0.997443 0.00565641 0)
(0.997468 0.00482871 0)
(0.997476 0.00397672 0)
(0.997479 0.00311634 0)
(0.9975 0.00224379 0)
(0.997564 0.00135012 0)
(0.997648 0.000448677 0)
(0.999343 -0.000724969 0)
(0.99933 -0.00222773 0)
(0.999372 -0.00379745 0)
(0.999476 -0.00542783 0)
(0.99963 -0.00712034 -1.80411e-23)
(0.999811 -0.00889634 0)
(0.999997 -0.0107604 0)
(1.00016 -0.0127037 0)
(1.00027 -0.0146994 0)
(1.00027 -0.016699 0)
(1.00014 -0.0186133 0)
(0.999707 -0.0203766 0)
(0.999029 -0.0217765 2.97957e-24)
(0.998315 -0.0226613 -7.34722e-23)
(0.99689 -0.0229841 -5.40145e-23)
(0.995517 -0.0225239 7.87419e-22)
(0.993975 -0.0211186 -1.16296e-21)
(0.991918 -0.0183312 7.38083e-22)
(0.990061 -0.0143984 4.13047e-22)
(0.988846 -0.00983756 -2.98728e-21)
(0.988466 -0.00509218 3.13907e-21)
(0.988883 -0.000431863 -1.37595e-21)
(0.98988 0.00381784 -3.2881e-23)
(0.99109 0.0075461 -7.65377e-23)
(0.992372 0.0106382 5.54564e-22)
(0.993693 0.0129193 1.36363e-23)
(0.995369 0.0144089 1.15075e-22)
(0.996239 0.0150781 -4.28111e-24)
(0.997066 0.0151027 0)
(0.997795 0.0145772 0)
(0.998337 0.0136578 0)
(0.99868 0.0124815 0)
(0.998886 0.011138 0)
(0.998997 0.00969601 0)
(0.999045 0.00820838 0)
(0.999055 0.00670452 0)
(0.999051 0.00519814 0)
(0.999063 0.00368771 0)
(0.999108 0.0021774 0)
(0.999171 0.00070935 0)
(1.00168 -0.000971696 0)
(1.00171 -0.00294472 0)
(1.00184 -0.00501484 0)
(1.00206 -0.00715982 0)
(1.00236 -0.0094138 0)
(1.00271 -0.0117938 0)
(1.00308 -0.0143134 0)
(1.00341 -0.016969 0)
(1.00363 -0.0197394 0)
(1.00368 -0.0225536 0)
(1.00336 -0.0253665 1.89829e-25)
(1.00271 -0.0279636 3.4691e-23)
(1.00149 -0.0301967 -3.23345e-22)
(0.999348 -0.0318471 9.06622e-23)
(0.9972 -0.0322559 4.18502e-22)
(0.994029 -0.0313771 5.2402e-22)
(0.990039 -0.0286241 -7.73985e-22)
(0.985967 -0.0241461 -1.25573e-21)
(0.982767 -0.0182033 1.59488e-21)
(0.980712 -0.011444 1.24309e-21)
(0.980008 -0.00427238 -1.05634e-21)
(0.98062 0.00287992 1.74549e-22)
(0.98256 0.00952139 -6.50146e-22)
(0.985201 0.015096 6.34788e-22)
(0.988103 0.0193552 -1.98769e-22)
(0.991174 0.0222587 -6.71455e-22)
(0.993508 0.0238828 2.53638e-23)
(0.996377 0.0241751 1.34823e-22)
(0.99831 0.0235821 4.96565e-23)
(0.999601 0.0223199 1.02466e-24)
(1.00046 0.0205653 0)
(1.00104 0.0184998 0)
(1.00136 0.0162913 0)
(1.00151 0.0140279 0)
(1.00155 0.0117643 0)
(1.00152 0.00953146 0)
(1.00148 0.00733806 0)
(1.00146 0.00518494 0)
(1.00147 0.00307164 0)
(1.00152 0.0010137 0)
(1.00464 -0.00116868 0)
(1.00472 -0.0035716 0)
(1.00496 -0.00603808 0)
(1.00533 -0.0086226 0)
(1.00581 -0.011359 0)
(1.00639 -0.0142757 0)
(1.00699 -0.017398 0)
(1.00757 -0.0207401 0)
(1.008 -0.0242871 0)
(1.00811 -0.0280487 1.8567e-23)
(1.00789 -0.0319048 2.40393e-22)
(1.00702 -0.0357506 -1.99911e-24)
(1.00516 -0.0391947 1.45578e-22)
(1.00261 -0.0415814 -1.6367e-21)
(0.99749 -0.0427164 2.35711e-21)
(0.991661 -0.0414648 -1.0137e-21)
(0.98519 -0.03803 -4.74208e-23)
(0.977557 -0.031856 -3.29626e-21)
(0.971766 -0.023087 6.27169e-21)
(0.968042 -0.01226 -1.6307e-21)
(0.967107 -0.00054816 -2.09644e-22)
(0.968945 0.0105713 -6.20399e-21)
(0.972884 0.020067 5.11912e-21)
(0.977854 0.0272331 1.78295e-22)
(0.983166 0.0322994 8.93179e-22)
(0.988606 0.0353367 -2.95366e-21)
(0.994037 0.0361622 1.99979e-21)
(0.997302 0.0357406 -5.66336e-22)
(1.00031 0.0340309 6.93e-22)
(1.00259 0.0314567 -3.6708e-22)
(1.00396 0.0284297 1.43354e-23)
(1.00467 0.0251779 0)
(1.00503 0.0218628 0)
(1.00513 0.0186081 0)
(1.00508 0.0154564 0)
(1.00496 0.0124253 0)
(1.00483 0.00951135 0)
(1.00472 0.00670265 0)
(1.00467 0.00396286 0)
(1.00469 0.00130843 0)
(1.00808 -0.00136406 0)
(1.00823 -0.00410186 0)
(1.00859 -0.00692864 0)
(1.00914 -0.00987833 0)
(1.00987 -0.0130011 0)
(1.01073 -0.0163693 0)
(1.01167 -0.0200243 0)
(1.01259 -0.0240067 0)
(1.01338 -0.0283805 1.13378e-23)
(1.01397 -0.033179 8.99554e-23)
(1.01414 -0.0383939 2.76109e-22)
(1.01334 -0.0438089 6.69438e-22)
(1.01093 -0.0489794 -1.16511e-21)
(1.00549 -0.0539398 1.48401e-22)
(0.998689 -0.0557254 -2.56267e-22)
(0.988346 -0.0547074 1.7014e-21)
(0.97618 -0.0511438 1.85567e-21)
(0.96412 -0.0428931 -2.96726e-21)
(0.954084 -0.0291373 5.36017e-22)
(0.948082 -0.012603 -2.64468e-22)
(0.946827 0.00509179 1.26719e-22)
(0.95075 0.0221445 -5.24466e-21)
(0.958533 0.0364782 8.27822e-21)
(0.968532 0.0459335 -4.28283e-21)
(0.97866 0.0507448 1.24725e-22)
(0.987477 0.0530702 4.21437e-22)
(0.993939 0.0529799 1.11835e-22)
(1.00064 0.0496353 -4.98033e-22)
(1.00455 0.0458785 1.25923e-22)
(1.00728 0.04163 1.63039e-23)
(1.00913 0.0369777 1.98866e-22)
(1.00998 0.0322325 -2.4655e-23)
(1.01018 0.027614 0)
(1.01006 0.0232143 0)
(1.00978 0.0190845 0)
(1.00944 0.0152092 0)
(1.00911 0.0115675 0)
(1.00884 0.00811357 0)
(1.00867 0.00481463 0)
(1.00862 0.00157766 0)
(1.0119 -0.00146027 0)
(1.01212 -0.00445435 0)
(1.01263 -0.00754577 0)
(1.01341 -0.0107743 0)
(1.01442 -0.0142339 0)
(1.01565 -0.0179799 0)
(1.01703 -0.0220889 0)
(1.01847 -0.0266622 7.18491e-24)
(1.02004 -0.0319048 -6.87438e-23)
(1.02154 -0.0379695 3.35753e-22)
(1.02233 -0.0448678 -4.004e-22)
(1.02171 -0.0524683 4.24418e-22)
(1.01878 -0.0607066 -3.75359e-22)
(1.01411 -0.0669988 8.07492e-23)
(1.00224 -0.0741568 1.10221e-21)
(0.987515 -0.0759477 -6.61735e-22)
(0.97429 -0.0664219 -3.2941e-21)
(0.957089 -0.0580482 1.34105e-21)
(0.940518 -0.0418313 9.60017e-22)
(0.929257 -0.0187252 7.00666e-21)
(0.926151 0.00762606 5.89931e-21)
(0.931793 0.032016 3.47509e-22)
(0.943153 0.051149 1.89223e-21)
(0.95788 0.0634048 -3.59022e-22)
(0.975251 0.0778779 8.12926e-22)
(0.989596 0.0772652 -1.67656e-21)
(1.00153 0.0718297 8.01705e-22)
(1.0069 0.0662686 -3.4421e-22)
(1.01156 0.0591459 1.0701e-21)
(1.01451 0.0521069 -9.76961e-22)
(1.0163 0.0454629 1.64171e-22)
(1.01707 0.0390986 -3.75546e-24)
(1.017 0.0330699 9.16109e-24)
(1.01641 0.0274727 0)
(1.01568 0.0223592 0)
(1.01493 0.0176917 0)
(1.01427 0.0133917 0)
(1.01374 0.00937306 0)
(1.01338 0.00553672 0)
(1.01324 0.00185383 0)
(1.01599 -0.00159049 0)
(1.01629 -0.00472793 0)
(1.01696 -0.00796216 0)
(1.01799 -0.0113593 0)
(1.01935 -0.0150137 0)
(1.02103 -0.0190055 0)
(1.02296 -0.0234519 0)
(1.02525 -0.0285716 -7.66755e-23)
(1.02812 -0.0346847 6.98955e-23)
(1.03084 -0.0420567 1.63778e-22)
(1.03275 -0.0506787 5.00599e-22)
(1.03322 -0.0603759 -8.41695e-22)
(1.03176 -0.0706678 5.10321e-22)
(1.02163 -0.0813393 7.70905e-22)
(1.01272 -0.0870161 -2.8053e-23)
(0.99726 -0.0939428 -2.64812e-22)
(0.970423 -0.0972761 -6.66706e-22)
(0.940426 -0.08902 1.98847e-21)
(0.909165 -0.0681409 7.73279e-21)
(0.886221 -0.0318508 6.73771e-22)
(0.879695 0.0130839 1.81087e-21)
(0.892112 0.0547291 -3.71657e-21)
(0.916309 0.0844374 2.24681e-21)
(0.944871 0.0993869 2.51449e-21)
(0.970035 0.104354 -1.47173e-21)
(0.991277 0.0992321 -3.2082e-22)
(1.00521 0.0904604 1.1425e-21)
(1.01899 0.0826781 -8.52165e-22)
(1.02306 0.0718809 1.13388e-21)
(1.02505 0.061854 -4.34949e-22)
(1.02595 0.0528379 -2.76726e-22)
(1.02601 0.0448174 1.50445e-22)
(1.02545 0.0375159 8.16682e-23)
(1.02417 0.0308551 0)
(1.02269 0.0248659 0)
(1.02133 0.0195124 0)
(1.02017 0.014659 0)
(1.01927 0.010213 0)
(1.01866 0.00599805 0)
(1.01839 0.00196557 0)
(1.02021 -0.00152219 0)
(1.02059 -0.00476623 0)
(1.02143 -0.00807009 0)
(1.02273 -0.0115736 0)
(1.02449 -0.0153156 0)
(1.02668 -0.0194363 0)
(1.02932 -0.0240765 -3.85453e-24)
(1.03289 -0.0295885 -1.98527e-24)
(1.03735 -0.0364039 9.5745e-23)
(1.04164 -0.0446604 3.62653e-23)
(1.04539 -0.0544699 5.48143e-23)
(1.04807 -0.0663621 -8.06977e-23)
(1.04864 -0.0825725 7.69378e-23)
(1.03843 -0.0967288 -1.0635e-21)
(1.0292 -0.110114 -1.36517e-22)
(1.01011 -0.127721 -8.48971e-22)
(0.979386 -0.136332 2.93442e-22)
(0.932459 -0.139841 -3.37046e-21)
(0.875188 -0.117928 8.12863e-22)
(0.825592 -0.0643698 -2.4421e-22)
(0.807829 0.014136 1.46059e-22)
(0.83119 0.0866204 -6.30024e-21)
(0.879351 0.132163 2.41323e-21)
(0.930523 0.14905 -4.0545e-21)
(0.972619 0.14545 -2.00292e-21)
(1.00457 0.135071 -1.4695e-22)
(1.02058 0.117539 -1.59724e-21)
(1.03707 0.100381 1.72652e-23)
(1.03937 0.0834789 6.55146e-22)
(1.03926 0.0696629 -3.27226e-22)
(1.0383 0.0580826 -3.03188e-22)
(1.03683 0.0484438 3.03886e-23)
(1.0352 0.0401499 -2.67081e-23)
(1.03309 0.0327428 1.15613e-23)
(1.03059 0.0261689 0)
(1.02838 0.0203792 0)
(1.02656 0.0152303 0)
(1.02518 0.0105237 0)
(1.02427 0.00624329 0)
(1.02383 0.00202477 0)
(1.02443 -0.00163551 0)
(1.02491 -0.00475172 0)
(1.02594 -0.00800574 0)
(1.02752 -0.0114112 0)
(1.02968 -0.0150867 0)
(1.03242 -0.0191393 0)
(1.03597 -0.023766 -2.91003e-23)
(1.04108 -0.0293776 1.27073e-22)
(1.04716 -0.0362969 1.32238e-23)
(1.0534 -0.0446739 -1.03077e-24)
(1.05973 -0.0548445 -1.05347e-22)
(1.06613 -0.0677697 1.29191e-22)
(1.07203 -0.0864634 -1.16613e-22)
(1.0678 -0.106989 -9.61391e-23)
(1.06242 -0.130158 8.14312e-23)
(1.04147 -0.164192 -2.69759e-22)
(1.00725 -0.19388 4.96269e-22)
(0.943666 -0.226896 -1.51858e-21)
(0.836927 -0.231533 1.59972e-22)
(0.709777 -0.156363 -2.72503e-21)
(0.650885 0.00804883 1.23324e-21)
(0.715071 0.165871 -1.45181e-21)
(0.834865 0.234115 1.16469e-21)
(0.931631 0.232202 -4.8668e-22)
(0.997687 0.206183 -1.36798e-22)
(1.03817 0.17337 1.0756e-21)
(1.05089 0.140718 -5.03716e-22)
(1.06393 0.113097 -1.08949e-22)
(1.06134 0.0906624 -2.6117e-22)
(1.05732 0.0736478 1.21696e-22)
(1.05324 0.0601633 9.49482e-23)
(1.04929 0.0492044 -1.79167e-23)
(1.04587 0.0402593 1.02204e-22)
(1.04264 0.0326269 -6.20801e-23)
(1.03899 0.0259088 0)
(1.03577 0.0200888 0)
(1.03318 0.014991 0)
(1.03123 0.0104031 0)
(1.02992 0.00604893 0)
(1.02931 0.00208479 0)
(1.02858 -0.0014919 0)
(1.02913 -0.00450977 0)
(1.03033 -0.00763655 0)
(1.03218 -0.01086 0)
(1.03473 -0.0143385 0)
(1.03803 -0.0181182 0)
(1.04263 -0.0224633 -1.5523e-23)
(1.04917 -0.0277057 2.41262e-23)
(1.05668 -0.033874 1.98541e-23)
(1.06497 -0.0411499 1.33739e-22)
(1.07453 -0.0503589 -1.99409e-22)
(1.08585 -0.0622452 3.45716e-24)
(1.09842 -0.0777064 -4.78619e-23)
(1.1048 -0.103601 5.08449e-22)
(1.11274 -0.135669 1.69808e-22)
(1.11285 -0.185286 -3.44428e-22)
(1.09558 -0.253895 -1.18264e-22)
(1.04098 -0.362298 7.64011e-23)
(0.869127 -0.487297 -1.422e-21)
(0.481082 -0.477994 -5.85988e-20)
(0.18734 0.00765284 1.31876e-20)
(0.498259 0.462899 -3.98728e-20)
(0.8516 0.463827 2.21727e-21)
(1.01005 0.35373 -1.59818e-22)
(1.07077 0.26389 2.39973e-23)
(1.09556 0.197462 4.53841e-23)
(1.09475 0.153854 -5.2381e-23)
(1.09731 0.112881 1.51709e-22)
(1.08794 0.090128 -1.23182e-22)
(1.07866 0.0722285 -4.36286e-23)
(1.07016 0.0577905 -5.64927e-23)
(1.06281 0.0463277 1.23863e-22)
(1.05687 0.0373269 -4.09179e-23)
(1.05211 0.0300147 8.83695e-24)
(1.04727 0.0237082 0)
(1.04289 0.0182475 0)
(1.03945 0.013501 0)
(1.03692 0.00932093 0)
(1.03528 0.00548553 0)
(1.03447 0.00171627 0)
(1.0325 -0.00126329 0)
(1.03312 -0.00414367 0)
(1.03446 -0.00692687 0)
(1.03656 -0.00994408 0)
(1.03948 -0.0131045 0)
(1.04329 -0.0164673 0)
(1.04879 -0.0202077 1.39355e-23)
(1.05629 -0.0244658 2.86787e-23)
(1.06478 -0.0290135 4.1273e-23)
(1.07472 -0.0339624 2.76367e-23)
(1.08709 -0.0400238 1.18457e-22)
(1.1031 -0.0476428 1.60581e-22)
(1.12395 -0.0575226 -4.4161e-22)
(1.13837 -0.0811119 -6.86368e-23)
(1.16979 -0.108486 -5.66455e-25)
(1.1994 -0.160249 -3.72746e-22)
(1.23998 -0.241415 -4.78462e-23)
(1.30022 -0.396894 1.76525e-21)
(1.01605 -0.557546 -1.1417e-19)
(1.00748 0.520809 3.68778e-20)
(1.21622 0.393245 -8.00617e-23)
(1.18448 0.263766 -1.54612e-22)
(1.16654 0.185867 9.61221e-23)
(1.14645 0.147047 1.15291e-22)
(1.13352 0.100401 1.16284e-23)
(1.11661 0.0805162 -2.20076e-23)
(1.10116 0.0636201 -2.00466e-23)
(1.08759 0.0499768 4.87693e-24)
(1.07641 0.0393885 -3.94985e-24)
(1.06757 0.0312544 1.10739e-23)
(1.06089 0.0248891 1.76562e-23)
(1.05485 0.0196164 0)
(1.04941 0.0150974 0)
(1.04518 0.0112003 0)
(1.04206 0.00771165 0)
(1.04004 0.00457692 0)
(1.03904 0.00154001 0)
(1.03609 -0.00142792 0)
(1.03684 -0.00379963 0)
(1.03836 -0.00634918 0)
(1.04066 -0.0089139 0)
(1.04381 -0.0115558 0)
(1.04792 -0.0143097 0)
(1.05387 -0.0171921 -8.33733e-24)
(1.06159 -0.0199787 7.78241e-24)
(1.0702 -0.0222584 9.24635e-25)
(1.08076 -0.0240327 5.22303e-23)
(1.09416 -0.0255437 -7.09228e-23)
(1.11195 -0.0266667 8.06101e-23)
(1.13633 -0.0267023 3.3272e-22)
(1.16215 -0.0407329 -1.04961e-22)
(1.20791 -0.0495341 3.17229e-21)
(1.2622 -0.0775277 -2.84589e-22)
(1.34861 -0.11603 9.85281e-23)
(1.49212 -0.160885 2.95155e-21)
(0.0255159 -0.0171599 6.57243e-19)
(0.0254834 -0.0241152 -1.03633e-19)
(1.34705 0.254387 -1.81949e-22)
(1.27509 0.199468 -1.05361e-22)
(1.2285 0.145355 5.9889e-22)
(1.19336 0.115385 1.19127e-21)
(1.16674 0.0757058 -1.24879e-23)
(1.14247 0.0605333 1.09968e-22)
(1.12143 0.0473341 -4.56797e-23)
(1.10341 0.0367182 -7.81861e-24)
(1.08863 0.0284459 -1.43318e-24)
(1.0769 0.0221213 5.19316e-24)
(1.06811 0.0173745 7.2722e-24)
(1.06088 0.0136813 0)
(1.05457 0.0105784 0)
(1.0497 0.00789858 0)
(1.04611 0.00546189 0)
(1.04368 0.00317963 0)
(1.04243 0.00104632 0)
(1.03942 -0.00101249 -7.48608e-25)
(1.04015 -0.00316917 0)
(1.04174 -0.00534759 0)
(1.04415 -0.00746942 0)
(1.04745 -0.00966458 0)
(1.05171 -0.0118504 0)
(1.05753 -0.0138454 -1.22108e-23)
(1.06454 -0.0150067 -3.83194e-23)
(1.0722 -0.0150003 4.78059e-23)
(1.08182 -0.013654 1.47471e-22)
(1.09454 -0.0105272 2.69234e-22)
(1.11121 -0.00488229 -3.28976e-22)
(1.13412 0.0064201 -2.29092e-22)
(1.16335 0.00692803 8.19612e-22)
(1.20756 0.0194207 -1.59754e-23)
(1.26813 0.0243345 -1.07245e-21)
(1.3565 0.0340484 2.65202e-21)
(1.44286 0.0639022 -5.07425e-22)
(0.272555 0.0196629 -1.91286e-21)
(0.0191841 0.00516412 1.01602e-20)
(1.27663 0.12442 -1.00088e-22)
(1.31487 0.124051 -4.87614e-22)
(1.26712 0.0914423 3.175e-22)
(1.2272 0.0710311 -7.33605e-22)
(1.19001 0.0406146 3.36178e-22)
(1.16121 0.0323364 7.25533e-24)
(1.13647 0.0248689 -2.19919e-23)
(1.11541 0.0189277 5.09001e-23)
(1.09794 0.0142138 -8.61873e-23)
(1.08381 0.0106006 6.06752e-24)
(1.07309 0.00807695 -1.79691e-23)
(1.06468 0.00638935 0)
(1.0578 0.00505886 0)
(1.05256 0.00385538 0)
(1.04881 0.00274626 0)
(1.04642 0.00165907 0)
(1.04537 0.000649333 0)
(1.04234 -0.000604854 -4.09371e-27)
(1.04308 -0.00244006 0)
(1.04464 -0.00411635 0)
(1.04711 -0.00592181 0)
(1.05049 -0.00771554 0)
(1.05473 -0.0094327 0)
(1.05965 -0.0106003 9.69644e-24)
(1.06516 -0.0105103 3.76941e-23)
(1.07111 -0.0088619 -6.85569e-23)
(1.07866 -0.00519924 3.72739e-22)
(1.08792 0.00123172 -5.32828e-22)
(1.09859 0.0113551 -1.03454e-21)
(1.11238 0.027912 1.22982e-21)
(1.13671 0.0453127 -1.98261e-21)
(1.16801 0.0742968 -2.39154e-21)
(1.21764 0.113282 -1.20348e-21)
(1.29331 0.166614 -8.46729e-22)
(1.37574 0.247691 -1.97387e-21)
(0.667116 0.145524 -8.91912e-22)
(0.102989 -0.0788878 2.23041e-21)
(-0.230562 -0.0257319 1.26988e-22)
(-0.137164 0.1864 -9.19318e-23)
(0.123116 0.10567 -3.59264e-22)
(1.1767 0.0729691 -2.19073e-21)
(1.33987 0.0619362 1.38024e-23)
(1.29101 0.0325375 8.53585e-22)
(1.24553 0.0199036 -3.51069e-21)
(1.20101 -0.000520106 -1.17616e-22)
(1.16995 -0.000994326 -1.81473e-22)
(1.14352 -0.00170868 1.41834e-22)
(1.12116 -0.00191255 2.34334e-26)
(1.10246 -0.0022236 4.05607e-23)
(1.08721 -0.00241679 2.78764e-23)
(1.07527 -0.00226151 -5.04091e-24)
(1.06595 -0.00158748 0)
(1.05887 -0.000967242 0)
(1.05359 -0.00061029 0)
(1.04986 -0.000406681 0)
(1.04748 -0.000344036 0)
(1.04612 -0.000304988 0)
(1.04457 -0.000954782 -4.3361e-25)
(1.04552 -0.00208711 0)
(1.04731 -0.00338179 0)
(1.04983 -0.00471994 0)
(1.05309 -0.00600553 0)
(1.05699 -0.00723776 0)
(1.06058 -0.00788908 -1.19575e-24)
(1.06411 -0.00733269 -3.27985e-23)
(1.06783 -0.0053862 -1.47758e-22)
(1.07167 -0.00149849 5.10149e-22)
(1.07573 0.00419437 -6.66624e-22)
(1.07923 0.012932 1.09002e-21)
(1.08198 0.0287357 -7.76202e-22)
(1.09559 0.0540903 1.29003e-21)
(1.10093 0.0932434 1.2066e-21)
(1.10628 0.165683 1.31224e-22)
(1.14169 0.259737 3.14865e-22)
(1.15788 0.437866 3.56297e-21)
(0.850389 0.612714 -4.60194e-21)
(0.0994249 0.641093 2.66678e-20)
(-0.350986 0.63213 1.10859e-21)
(-0.0814533 0.507198 4.53723e-21)
(0.505533 0.264249 -6.16737e-23)
(1.27081 0.0386443 6.16709e-21)
(1.37588 -0.0151529 2.88705e-21)
(1.3052 -0.0413356 -8.47769e-22)
(1.24942 -0.0382826 2.95454e-21)
(1.19769 -0.0460796 5.7466e-22)
(1.16636 -0.0366784 -6.19168e-22)
(1.14068 -0.0296941 7.95784e-22)
(1.11898 -0.0235878 -4.25193e-22)
(1.10078 -0.0190401 1.5898e-22)
(1.0858 -0.0154784 -1.06801e-23)
(1.07346 -0.012283 -8.8273e-25)
(1.0641 -0.00916414 0)
(1.05742 -0.00663577 0)
(1.05247 -0.00471556 0)
(1.04892 -0.00315501 0)
(1.04661 -0.00172905 0)
(1.04541 -0.000516054 1.70407e-23)
(1.04677 -0.000522479 -7.37591e-23)
(1.04751 -0.00150472 0)
(1.04913 -0.00244824 0)
(1.05156 -0.00331492 0)
(1.05473 -0.00416646 0)
(1.05829 -0.00506946 0)
(1.0609 -0.00575009 0)
(1.06239 -0.00560528 -1.7391e-23)
(1.06428 -0.00488965 -1.01555e-24)
(1.06643 -0.00404911 5.83019e-23)
(1.06701 -0.00220159 1.27211e-22)
(1.0647 0.00135883 -4.83445e-22)
(1.05766 0.00781904 1.87438e-22)
(1.03679 0.0217987 2.90106e-22)
(1.02768 0.0661744 -6.45499e-22)
(0.989977 0.120299 -7.83266e-22)
(0.951712 0.227009 -9.10967e-22)
(0.867059 0.370164 -1.67178e-20)
(0.539211 0.622886 8.68669e-21)
(-0.0112249 0.840729 -1.0027e-20)
(-0.110577 0.7487 -2.65563e-21)
(0.339738 0.407332 1.50741e-20)
(0.895162 0.0924572 2.89399e-21)
(1.42764 -0.129026 2.74715e-20)
(1.37458 -0.158389 -1.13694e-21)
(1.29254 -0.131914 1.40159e-21)
(1.21609 -0.115277 -5.4415e-22)
(1.17744 -0.0907015 -1.96712e-22)
(1.14929 -0.070139 1.34787e-22)
(1.12695 -0.0551559 -8.57521e-23)
(1.10827 -0.0429595 -6.80603e-24)
(1.09258 -0.0336977 -9.38862e-24)
(1.07907 -0.0264069 1.55613e-23)
(1.06748 -0.0203227 0)
(1.05915 -0.0151707 0)
(1.05356 -0.0110714 0)
(1.04942 -0.00782115 0)
(1.04643 -0.00513668 0)
(1.04449 -0.00283562 0)
(1.04351 -0.000840824 2.99654e-24)
(1.04746 2.15171e-05 3.94955e-24)
(1.04839 -0.000499284 0)
(1.04994 -0.00100344 0)
(1.05235 -0.00154412 0)
(1.05559 -0.00210968 0)
(1.05916 -0.00282834 0)
(1.06157 -0.00380884 0)
(1.06258 -0.00499305 0)
(1.06414 -0.00656601 -2.88297e-24)
(1.06605 -0.00908534 7.26088e-24)
(1.06648 -0.0127055 -1.04168e-22)
(1.0629 -0.0178562 2.68463e-22)
(1.05167 -0.0236323 -2.06851e-22)
(1.02471 -0.0388795 -3.93659e-22)
(0.986872 -0.0124429 2.23539e-22)
(0.908869 0.00394912 -6.76479e-22)
(0.824149 0.067351 9.17981e-22)
(0.602732 0.20106 1.96063e-21)
(0.197664 0.410521 1.20453e-22)
(0.00787454 0.410101 -1.84685e-21)
(0.276996 0.177026 1.58614e-21)
(0.788575 -0.122045 -1.93062e-21)
(1.25527 -0.351124 -2.84818e-21)
(1.42564 -0.383964 5.37188e-21)
(1.30017 -0.286744 6.07347e-22)
(1.23694 -0.219606 -1.22759e-21)
(1.16622 -0.166216 -2.03877e-22)
(1.13884 -0.12546 5.00453e-23)
(1.11942 -0.0957605 4.00635e-22)
(1.10365 -0.0736825 1.96223e-22)
(1.09039 -0.0562798 -8.41665e-23)
(1.07875 -0.0432694 7.92568e-24)
(1.06799 -0.0331403 0)
(1.05844 -0.0251956 0)
(1.05195 -0.0188128 0)
(1.04788 -0.0137818 0)
(1.0449 -0.00975989 -2.84788e-23)
(1.04272 -0.00645522 -3.93843e-23)
(1.0413 -0.00360666 -2.34853e-23)
(1.04067 -0.00112613 0)
(1.04725 0.000168417 0)
(1.04837 0.000447571 0)
(1.05017 0.000645938 0)
(1.05273 0.000602363 0)
(1.05614 0.000388036 0)
(1.06003 -9.72211e-05 0)
(1.06311 -0.00123039 0)
(1.06502 -0.0034555 0)
(1.06786 -0.00700452 1.91456e-26)
(1.07187 -0.0125584 1.15525e-23)
(1.07561 -0.0210646 -2.41788e-23)
(1.07752 -0.0348752 1.45837e-22)
(1.07358 -0.0533712 -1.61387e-22)
(1.05555 -0.0890107 6.55238e-22)
(1.00222 -0.105811 -2.19602e-21)
(0.919501 -0.150245 -1.06188e-21)
(0.720834 -0.128593 -1.94221e-21)
(0.393117 -0.00651183 5.30174e-22)
(0.266235 -0.0964826 -3.83117e-21)
(0.336125 -0.361076 6.01289e-21)
(0.648007 -0.626914 2.81549e-21)
(1.00587 -0.753185 7.72645e-21)
(1.2308 -0.681126 7.54738e-23)
(1.23483 -0.493729 -2.27766e-21)
(1.16716 -0.351382 1.42887e-21)
(1.14205 -0.269035 1.02904e-22)
(1.09565 -0.189188 -9.45003e-23)
(1.08695 -0.14207 -2.98742e-23)
(1.07962 -0.108042 -1.83953e-22)
(1.07347 -0.0818874 -1.82853e-23)
(1.06762 -0.0616064 8.39754e-24)
(1.06145 -0.0465438 1.10771e-26)
(1.05457 -0.0350644 0)
(1.04797 -0.0263167 0)
(1.04373 -0.0196638 0)
(1.04133 -0.014494 0)
(1.0396 -0.0103083 0)
(1.03833 -0.00688251 0)
(1.03754 -0.00392434 0)
(1.03724 -0.00127675 4.22973e-24)
(1.04652 0.000370262 0)
(1.04766 0.0012896 0)
(1.0496 0.00218589 0)
(1.05239 0.00289929 0)
(1.05611 0.00338208 0)
(1.06064 0.0035505 0)
(1.0651 0.0029556 0)
(1.06913 0.000746705 0)
(1.07481 -0.003446 0)
(1.08291 -0.0101601 0)
(1.09312 -0.020527 3.34427e-24)
(1.10554 -0.0375328 3.92825e-23)
(1.11851 -0.0628575 -2.81261e-22)
(1.12504 -0.101697 4.32854e-22)
(1.08899 -0.160091 -1.0502e-20)
(1.01345 -0.252514 1.05287e-21)
(0.641131 -0.288217 -2.28029e-21)
(0.493477 -0.384489 3.18101e-21)
(0.560068 -0.541171 -5.70559e-22)
(0.660439 -0.702873 1.52904e-20)
(0.805909 -0.783915 -1.1217e-21)
(0.928505 -0.746126 -4.59015e-21)
(0.979917 -0.617971 4.58626e-21)
(1.00624 -0.477382 -1.95802e-21)
(1.03865 -0.352594 1.53821e-21)
(1.03475 -0.267063 -3.5162e-22)
(1.02126 -0.184734 5.69582e-24)
(1.03042 -0.137122 8.29117e-24)
(1.03614 -0.104246 2.23467e-23)
(1.04037 -0.078202 -6.48938e-24)
(1.04237 -0.0583117 0)
(1.0422 -0.0433432 0)
(1.04008 -0.0319364 0)
(1.03724 -0.0235562 0)
(1.03556 -0.01762 0)
(1.03488 -0.0131101 0)
(1.03436 -0.00943079 0)
(1.03393 -0.00639926 0)
(1.03367 -0.00374574 0)
(1.03366 -0.0012273 0)
(1.04506 0.000687419 0)
(1.04608 0.00222271 0)
(1.04801 0.00380118 0)
(1.05093 0.00537277 0)
(1.05496 0.00686533 0)
(1.0602 0.00823811 0)
(1.06629 0.00916065 0)
(1.07308 0.00863282 0)
(1.08213 0.0061698 0)
(1.09465 0.00156183 0)
(1.11164 -0.00573606 0)
(1.13441 -0.0174477 2.45364e-24)
(1.16596 -0.0375971 2.87519e-23)
(1.20277 -0.0610394 -4.33662e-23)
(1.21252 -0.132065 -3.32261e-21)
(1.16578 -0.23466 1.95584e-21)
(0.836692 -0.389034 -1.7445e-21)
(0.699147 -0.591044 1.56388e-21)
(0.689289 -0.701404 -9.86325e-22)
(0.710453 -0.723723 7.51679e-21)
(0.747983 -0.675033 1.42634e-21)
(0.795849 -0.57988 1.32689e-21)
(0.843028 -0.482673 -9.27458e-22)
(0.895471 -0.410886 -8.41142e-22)
(0.905886 -0.315679 -8.1029e-23)
(0.93579 -0.228903 8.08795e-23)
(0.953003 -0.151983 4.77418e-22)
(0.977723 -0.110484 -3.32869e-23)
(0.996434 -0.0832475 -3.98202e-24)
(1.00964 -0.0616327 0)
(1.01868 -0.0452743 0)
(1.02407 -0.0328513 0)
(1.02671 -0.0234788 0)
(1.02788 -0.0169845 0)
(1.02887 -0.0127681 0)
(1.02965 -0.00964066 0)
(1.03003 -0.00706606 0)
(1.03016 -0.00486921 0)
(1.0302 -0.00288829 0)
(1.0303 -0.000975589 0)
(1.0426 0.00106509 0)
(1.04346 0.00322249 0)
(1.04526 0.0054987 0)
(1.0481 0.00793206 0)
(1.05213 0.0105905 0)
(1.05758 0.0135222 0)
(1.06463 0.0166509 0)
(1.07342 0.0192282 0)
(1.08485 0.0208209 0)
(1.10005 0.0215375 0)
(1.1207 0.0216617 1.08656e-22)
(1.149 0.0218051 0)
(1.18908 0.0182829 0)
(1.24668 0.0204056 -3.3046e-23)
(1.33868 0.00791809 1.32626e-21)
(1.32986 -0.0817789 -5.43746e-21)
(1.14636 -0.225445 -1.07284e-22)
(0.957672 -0.434305 5.24891e-22)
(0.813442 -0.603855 6.67152e-22)
(0.710024 -0.691297 1.99449e-20)
(0.634847 -0.688291 2.76787e-21)
(0.622012 -0.600024 -4.45825e-21)
(0.673077 -0.468955 4.51957e-22)
(0.744133 -0.327147 -4.18007e-22)
(0.792288 -0.217301 2.67337e-23)
(0.857152 -0.124819 7.44256e-22)
(0.903416 -0.0884344 3.08394e-22)
(0.93873 -0.0623888 0)
(0.967369 -0.0452165 0)
(0.987675 -0.0325028 1.496e-23)
(1.00185 -0.0230858 0)
(1.01138 -0.0160675 0)
(1.0177 -0.0109491 0)
(1.02205 -0.00779111 0)
(1.02499 -0.00603041 0)
(1.02666 -0.00472973 0)
(1.0275 -0.00357618 0)
(1.02785 -0.00250277 4.68711e-24)
(1.02796 -0.0014877 3.36258e-24)
(1.02802 -0.000476728 0)
(1.03916 0.00126903 0)
(1.03992 0.00398022 0)
(1.04145 0.00688667 0)
(1.04388 0.0101623 0)
(1.04734 0.013974 0)
(1.05215 0.0184653 0)
(1.05888 0.0237801 0)
(1.06796 0.0296268 0)
(1.07966 0.0359417 0)
(1.09453 0.0431566 0)
(1.11391 0.0522771 2.84741e-22)
(1.14022 0.0655118 0)
(1.17532 0.0824139 0)
(1.22857 0.109478 -6.98529e-22)
(1.31625 0.154721 -1.04101e-20)
(1.39107 0.208476 2.21068e-22)
(1.33627 0.216024 0)
(1.19964 0.175568 -2.76733e-21)
(1.014 0.0997625 2.91714e-20)
(0.812621 0.0624933 5.58245e-20)
(0.628304 -0.00431491 3.27392e-21)
(0.531683 -0.050276 -5.07891e-21)
(0.524186 -0.0795054 4.81903e-22)
(0.579742 -0.0802661 0)
(0.688355 -0.0560098 -3.80358e-21)
(0.800823 -0.0199316 -5.66966e-21)
(0.873575 -0.00356523 9.90105e-22)
(0.919331 0.00399244 0)
(0.955454 0.00515877 0)
(0.979725 0.00441485 1.13185e-22)
(0.99605 0.00375957 0)
(1.00722 0.00334853 0)
(1.01514 0.0028567 0)
(1.02086 0.00201942 0)
(1.02444 0.00106032 0)
(1.02615 0.000373832 -8.47963e-24)
(1.02691 5.85216e-06 1.10191e-23)
(1.02723 -0.000109938 0)
(1.02734 -0.000113444 0)
(1.0274 -3.67031e-06 2.58946e-23)
(1.03528 0.0013403 0)
(1.03575 0.00442668 0)
(1.03675 0.00778812 0)
(1.03839 0.0117007 0)
(1.0408 0.0163243 0)
(1.04427 0.021902 0)
(1.04959 0.0287079 4.1695e-24)
(1.05728 0.0367939 0)
(1.06699 0.046629 0)
(1.07848 0.0589432 0)
(1.09227 0.0752807 0)
(1.11002 0.0977588 0)
(1.13145 0.129308 0)
(1.16245 0.172396 -2.11756e-22)
(1.20999 0.240492 1.47627e-23)
(1.26397 0.339627 2.33172e-23)
(1.25697 0.437755 0)
(1.17674 0.503576 0)
(1.04102 0.51634 -4.11735e-21)
(0.882406 0.514128 -1.10028e-19)
(0.733437 0.457781 1.19298e-20)
(0.658046 0.381328 -3.56878e-21)
(0.643973 0.287479 0)
(0.658686 0.197254 0)
(0.703482 0.123585 0)
(0.780102 0.113953 1.55566e-23)
(0.862203 0.104405 8.81964e-21)
(0.929046 0.0811624 1.97025e-22)
(0.968197 0.0591308 0)
(0.989821 0.0412938 0)
(1.00351 0.0291992 0)
(1.01266 0.0208976 0)
(1.01933 0.0148709 -3.72113e-23)
(1.0243 0.0103513 -1.52492e-23)
(1.0271 0.00692902 -7.68236e-25)
(1.02798 0.0044618 0)
(1.02806 0.00274959 0)
(1.02796 0.00158445 0)
(1.02784 0.000755337 0)
(1.02779 0.000182333 0)
(1.03118 0.00156908 0)
(1.03115 0.00469854 0)
(1.03145 0.00818477 0)
(1.03219 0.0121977 0)
(1.03337 0.0169407 0)
(1.03521 0.0227254 0)
(1.03855 0.0299379 0)
(1.04379 0.0388246 0)
(1.04992 0.0501858 4.79837e-25)
(1.05604 0.064846 0)
(1.06216 0.0844503 0)
(1.06856 0.110277 0)
(1.07432 0.145702 -2.52106e-23)
(1.07982 0.191332 -1.69033e-21)
(1.0863 0.252871 0)
(1.10175 0.338161 0)
(1.10033 0.440272 0)
(1.06446 0.529221 0)
(0.987213 0.586566 -9.05315e-21)
(0.893618 0.610272 -1.14052e-20)
(0.804548 0.59364 -1.81913e-20)
(0.774339 0.543594 5.56278e-21)
(0.775048 0.476011 0)
(0.793238 0.398366 0)
(0.795096 0.307717 0)
(0.827111 0.246593 0)
(0.905522 0.195942 -6.76151e-21)
(0.978468 0.141261 -1.7618e-21)
(1.00951 0.0992518 0)
(1.01926 0.0676723 1.06641e-24)
(1.02392 0.0467401 2.70053e-24)
(1.02671 0.0323563 -3.43355e-24)
(1.0292 0.0223299 0)
(1.03148 0.0152502 0)
(1.0323 0.0102 0)
(1.03165 0.00664964 0)
(1.03061 0.0041715 0)
(1.02973 0.00243499 0)
(1.02906 0.00119569 0)
(1.02857 0.000295322 0)
(1.02675 0.0016548 0)
(1.02652 0.00451973 0)
(1.02636 0.00765033 0)
(1.02634 0.0111162 0)
(1.02635 0.0152331 0)
(1.02652 0.0202954 0)
(1.02763 0.0268112 0)
(1.02988 0.035232 0)
(1.03179 0.0463511 0)
(1.03215 0.0608533 0)
(1.03063 0.0800878 4.20892e-23)
(1.02671 0.10516 -2.58862e-23)
(1.0193 0.137471 -1.98675e-21)
(1.01187 0.178922 1.95551e-21)
(1.00051 0.227814 0)
(0.986652 0.286584 0)
(0.970238 0.364643 0)
(0.945756 0.446598 0)
(0.900504 0.517826 -1.42125e-20)
(0.853679 0.568576 2.70624e-20)
(0.817983 0.581357 3.49801e-21)
(0.820209 0.558727 -2.3642e-20)
(0.833516 0.526826 0)
(0.872951 0.477263 0)
(0.89805 0.404706 0)
(0.929808 0.319258 0)
(1.00446 0.231282 1.30669e-21)
(1.06184 0.1576 -6.9533e-22)