/*--------------------------------*- C++ -*----------------------------------*\
| =========                 |                                                 |
| \\      /  F ield         | OpenFOAM: The Open Source CFD Toolbox           |
|  \\    /   O peration     | Version:  v2106                                 |
|   \\  /    A nd           | Website:  www.openfoam.com                      |
|    \\/     M anipulation  |                                                 |
\*---------------------------------------------------------------------------*/
FoamFile
{
    version     2.0;
    format      ascii;
    arch        "LSB;label=32;scalar=64";
    class       pointVectorField;
    location    "0";
    object      pointDisplacement;
}
// * * * * * * * * * * * * * * * * * * * * * * * * * * * * * * * * * * * * * //

dimensions      [0 1 0 0 0 0 0];

internalField   nonuniform List<vector> 
24440
(
(0 0 0)
(0 0 0)
(0 0 0)
(0 0 0)
(0 0 0)
(0 0 0)
(0 0 0)
(0 0 0)
(0 0 0)
(0 0 0)
(0 0 0)
(0 0 0)
(0 0 0)
(0 0 0)
(0 0 0)
(0 0 0)
(0 0 0)
(0 0 0)
(0 0 0)
(0 0 0)
(0 0 0)
(0 0 0)
(0 0 0)
(0 0 0)
(0 0 0)
(0 0 0)
(0 0 0)
(0 0 0)
(0 0 0)
(0 0 0)
(0 0 0)
(0 0 0)
(0 0 0)
(0 0 0)
(0 0 0)
(0 0 0)
(0 0 0)
(0 0 0)
(0 0 0)
(0 0 0)
(0 0 0)
(0 0 0)
(0 0 0)
(0 0 0)
(0 0 0)
(0 0 0)
(0 0 0)
(0 0 0)
(0 0 0)
(0 0 0)
(0 0 0)
(0 0 0)
(0 0 0)
(0 0 0)
(0 0 0)
(0 0 0)
(0 0 0)
(0 0 0)
(0 0 0)
(0 0 0)
(0 0 0)
(0 0 0)
(0 0 0)
(0 0 0)
(0 0 0)
(0 0 0)
(0 0 0)
(0 0 0)
(0 0 0)
(0 0 0)
(0 0 0)
(0 0 0)
(0 0 0)
(0 0 0)
(0 0 0)
(0 0 0)
(0 0 0)
(0 0 0)
(0 0 0)
(0 0 0)
(0 0 0)
(0 0 0)
(0 0 0)
(0 0 0)
(0 0 0)
(0 0 0)
(0 0 0)
(0 0 0)
(0 0 0)
(0 0 0)
(0 0 0)
(0 0 0)
(0 0 0)
(0 0 0)
(0 0 0)
(0 0 0)
(0 0 0)
(0 0 0)
(0 5.87937e-06 0)
(0 3.70756e-05 0)
(0 0.00010195 0)
(0 0.0001571 0)
(0 0.000178265 0)
(0 0.0001571 0)
(0 0.00010195 0)
(0 3.70756e-05 0)
(0 5.87937e-06 0)
(0 0 0)
(0 0 0)
(0 0 0)
(0 0 0)
(0 0 0)
(0 0 0)
(0 0 0)
(0 0 0)
(0 0 0)
(0 0 0)
(0 0 0)
(0 0 0)
(0 0 0)
(0 0 0)
(0 0 0)
(0 0 0)
(0 0 0)
(0 0 0)
(0 0 0)
(0 0 0)
(0 0 0)
(0 0 0)
(0 0 0)
(0 0 0)
(0 0 0)
(0 0 0)
(0 0 0)
(0 0 0)
(0 0 0)
(0 9.84635e-06 0)
(0 0.000130251 0)
(0 0.000383318 0)
(0 0.000690523 0)
(0 0.000984967 0)
(0 0.00119024 0)
(0 0.00138105 0)
(0 0.00144819 0)
(0 0.00138105 0)
(0 0.00119024 0)
(0 0.000984967 0)
(0 0.000690523 0)
(0 0.000383318 0)
(0 0.000130251 0)
(0 9.84635e-06 0)
(0 0 0)
(0 0 0)
(0 0 0)
(0 0 0)
(0 0 0)
(0 0 0)
(0 0 0)
(0 0 0)
(0 0 0)
(0 0 0)
(0 0 0)
(0 0 0)
(0 0 0)
(0 0 0)
(0 0 0)
(0 0 0)
(0 0 0)
(0 0 0)
(0 0 0)
(0 0 0)
(0 0 0)
(0 0 0)
(0 0 0)
(0 0 0)
(0 4.13407e-06 0)
(0 0.000171292 0)
(0 0.00058416 0)
(0 0.00115196 0)
(0 0.00173678 0)
(0 0.00238924 0)
(0 0.00295432 0)
(0 0.00330428 0)
(0 0.00363892 0)
(0 0.00375457 0)
(0 0.00363892 0)
(0 0.00330428 0)
(0 0.00295432 0)
(0 0.00238924 0)
(0 0.00173678 0)
(0 0.00115196 0)
(0 0.00058416 0)
(0 0.000171292 0)
(0 4.13407e-06 0)
(0 0 0)
(0 0 0)
(0 0 0)
(0 0 0)
(0 0 0)
(0 0 0)
(0 0 0)
(0 0 0)
(0 0 0)
(0 0 0)
(0 0 0)
(0 0 0)
(0 0 0)
(0 0 0)
(0 0 0)
(0 0 0)
(0 0 0)
(0 0 0)
(0 0 0)
(0 0 0)
(0 0 0)
(0 3.90896e-05 0)
(0 0.00040651 0)
(0 0.00108032 0)
(0 0.00189544 0)
(0 0.00290749 0)
(0 0.00392824 0)
(0 0.00481253 0)
(0 0.00564089 0)
(0 0.00622871 0)
(0 0.00657991 0)
(0 0.00674113 0)
(0 0.00657991 0)
(0 0.00622871 0)
(0 0.00564089 0)
(0 0.00481253 0)
(0 0.00392824 0)
(0 0.00290749 0)
(0 0.00189544 0)
(0 0.00108032 0)
(0 0.00040651 0)
(0 4.13829e-05 0)
(0 0 0)
(0 0 0)
(0 0 0)
(0 0 0)
(0 0 0)
(0 0 0)
(0 0 0)
(0 0 0)
(0 0 0)
(0 0 0)
(0 0 0)
(0 0 0)
(0 0 0)
(0 0 0)
(0 0 0)
(0 0 0)
(0 0 0)
(0 0 0)
(0 0 0)
(0 7.68805e-05 0)
(0 0.000539085 0)
(0 0.00134549 0)
(0 0.00247011 0)
(0 0.00380668 0)
(0 0.00519558 0)
(0 0.00647015 0)
(0 0.00767846 0)
(0 0.00813249 0)
(0 0.00862349 0)
(0 0.0090342 0)
(0 0.00935778 0)
(0 0.00958918 0)
(0 0.00974919 0)
(0 0.009897 0)
(0 0.0099465 0)
(0 0.009897 0)
(0 0.00974919 0)
(0 0.00958918 0)
(0 0.00935778 0)
(0 0.0090342 0)
(0 0.00862349 0)
(0 0.00813249 0)
(0 0.00767846 0)
(0 0.00647015 0)
(0 0.00519558 0)
(0 0.00380668 0)
(0 0.00247011 0)
(0 0.00131756 0)
(0 0.000487118 0)
(0 6.14325e-05 0)
(0 0 0)
(0 0 0)
(0 0 0)
(0 0 0)
(0 0 0)
(0 0 0)
(0 0 0)
(0 0 0)
(0 0 0)
(0 0 0)
(0 0 0)
(0 0 0)
(0 0 0)
(0 0 0)
(0 0 0)
(0 0 0)
(0 0 0)
(0 4.52198e-05 0)
(0 0.000517493 0)
(0 0.00144183 0)
(0 0.00271309 0)
(0 0.00420218 0)
(0 0.00595419 0)
(0 0.00679192 0)
(0 0.00753446 0)
(0 0.00835629 0)
(0 0.00912661 0)
(0 0.00983139 0)
(0 0.0104301 0)
(0 0.00909002 0)
(0 0.00964502 0)
(0 0.010083 0)
(0 0.0105248 0)
(0 0.0108714 0)
(0 0.0111184 0)
(0 0.0112664 0)
(0 0.0114233 0)
(0 0.0114758 0)
(0 0.0114233 0)
(0 0.0112664 0)
(0 0.0111184 0)
(0 0.0108714 0)
(0 0.0105248 0)
(0 0.010083 0)
(0 0.00964502 0)
(0 0.00909002 0)
(0 0.0104301 0)
(0 0.00983139 0)
(0 0.00912661 0)
(0 0.00835629 0)
(0 0.00753446 0)
(0 0.00679192 0)
(0 0.00595419 0)
(0 0.00420218 0)
(0 0.00271309 0)
(0 0.00138923 0)
(0 0.000494978 0)
(0 4.10662e-05 0)
(0 0 0)
(0 0 0)
(0 0 0)
(0 0 0)
(0 0 0)
(0 0 0)
(0 0 0)
(0 0 0)
(0 0 0)
(0 0 0)
(0 0 0)
(0 0 0)
(0 0 0)
(0 0 0)
(0 0 0)
(0 0 0)
(0 0.000286114 0)
(0 0.00116925 0)
(0 0.00249969 0)
(0 0.00417088 0)
(0 0.0060322 0)
(0 0.0079235 0)
(0 0.00697413 0)
(0 0.00788511 0)
(0 0.00876172 0)
(0 0.00958712 0)
(0 0.0103205 0)
(0 0.0110642 0)
(0 0.0117214 0)
(0 0.0122643 0)
(0 0.0110199 0)
(0 0.0115166 0)
(0 0.0127763 0)
(0 0.0131449 0)
(0 0.0119118 0)
(0 0.0122733 0)
(0 0.0135116 0)
(0 0.0137696 0)
(0 0.0125298 0)
(0 0.0126598 0)
(0 0.0139192 0)
(0 0.0140379 0)
(0 0.0128216 0)
(0 0.0128756 0)
(0 0.0140915 0)
(0 0.0140379 0)
(0 0.0128216 0)
(0 0.0126598 0)
(0 0.0139192 0)
(0 0.0137696 0)
(0 0.0125298 0)
(0 0.0122733 0)
(0 0.0135116 0)
(0 0.0131449 0)
(0 0.0119118 0)
(0 0.0115166 0)
(0 0.0127763 0)
(0 0.0122643 0)
(0 0.0110199 0)
(0 0.0117214 0)
(0 0.0110642 0)
(0 0.0103205 0)
(0 0.00958712 0)
(0 0.00876172 0)
(0 0.00788511 0)
(0 0.00697413 0)
(0 0.0079235 0)
(0 0.0060322 0)
(0 0.00412067 0)
(0 0.00247996 0)
(0 0.001168 0)
(0 0.000311052 0)
(0 0 0)
(0 0 0)
(0 0 0)
(0 0 0)
(0 0 0)
(0 0 0)
(0 0 0)
(0 0 0)
(0 0 0)
(0 0 0)
(0 0 0)
(0 0 0)
(0 0 0)
(0 0 0)
(0 0 0)
(0 6.24155e-05 0)
(0 0.000641238 0)
(0 0.00184836 0)
(0 0.00346308 0)
(0 0.0053827 0)
(0 0.007582 0)
(0 0.00970044 0)
(0 0.00887601 0)
(0 0.0098357 0)
(0 0.00883164 0)
(0 0.00981938 0)
(0 0.0107378 0)
(0 0.0116427 0)
(0 0.0106887 0)
(0 0.0114826 0)
(0 0.0124586 0)
(0 0.0128306 0)
(0 0.0131769 0)
(0 0.0127061 0)
(0 0.0121527 0)
(0 0.0128271 0)
(0 0.0133107 0)
(0 0.0136095 0)
(0 0.0131257 0)
(0 0.013852 0)
(0 0.0143108 0)
(0 0.0145231 0)
(0 0.0140676 0)
(0 0.0145425 0)
(0 0.0149913 0)
(0 0.0151032 0)
(0 0.0146807 0)
(0 0.0149348 0)
(0 0.015346 0)
(0 0.0154046 0)
(0 0.0150028 0)
(0 0.015076 0)
(0 0.015469 0)
(0 0.0154572 0)
(0 0.0150634 0)
(0 0.0149348 0)
(0 0.015346 0)
(0 0.0152905 0)
(0 0.0148764 0)
(0 0.0145425 0)
(0 0.0149913 0)
(0 0.0148628 0)
(0 0.0144151 0)
(0 0.013852 0)
(0 0.0143108 0)
(0 0.0141234 0)
(0 0.0136087 0)
(0 0.0128271 0)
(0 0.0133107 0)
(0 0.0129848 0)
(0 0.0125024 0)
(0 0.0114826 0)
(0 0.0124586 0)
(0 0.0116427 0)
(0 0.0106887 0)
(0 0.00981938 0)
(0 0.0107378 0)
(0 0.0098357 0)
(0 0.00883164 0)
(0 0.00887601 0)
(0 0.00965674 0)
(0 0.00757677 0)
(0 0.00546946 0)
(0 0.003434 0)
(0 0.00183036 0)
(0 0.000673376 0)
(0 7.13753e-05 0)
(0 0 0)
(0 0 0)
(0 0 0)
(0 0 0)
(0 0 0)
(0 0 0)
(0 0 0)
(0 0 0)
(0 0 0)
(0 0 0)
(0 0 0)
(0 0 0)
(0 0 0)
(0 0 0)
(0 0.000204209 0)
(0 0.00103351 0)
(0 0.00242829 0)
(0 0.00426683 0)
(0 0.00639153 0)
(0 0.00872849 0)
(0 0.0109096 0)
(0 0.0103714 0)
(0 0.0113978 0)
(0 0.0106993 0)
(0 0.0116318 0)
(0 0.0123497 0)
(0 0.0132093 0)
(0 0.0124813 0)
(0 0.0132338 0)
(0 0.0136236 0)
(0 0.0139588 0)
(0 0.0136231 0)
(0 0.0145703 0)
(0 0.0147315 0)
(0 0.0148617 0)
(0 0.0147019 0)
(0 0.0154241 0)
(0 0.0155531 0)
(0 0.0156368 0)
(0 0.0155105 0)
(0 0.0159295 0)
(0 0.0160235 0)
(0 0.0160662 0)
(0 0.0159715 0)
(0 0.016151 0)
(0 0.0162199 0)
(0 0.0162298 0)
(0 0.0161628 0)
(0 0.0162076 0)
(0 0.0162632 0)
(0 0.0162623 0)
(0 0.0162063 0)
(0 0.016151 0)
(0 0.0162199 0)
(0 0.0162063 0)
(0 0.0161349 0)
(0 0.0159295 0)
(0 0.0160235 0)
(0 0.0159877 0)
(0 0.015879 0)
(0 0.0154241 0)
(0 0.0155531 0)
(0 0.0154802 0)
(0 0.0153301 0)
(0 0.0145703 0)
(0 0.0147315 0)
(0 0.0148791 0)
(0 0.0145983 0)
(0 0.0142843 0)
(0 0.0132338 0)
(0 0.0136236 0)
(0 0.0139621 0)
(0 0.0132093 0)
(0 0.0124813 0)
(0 0.0116318 0)
(0 0.0123215 0)
(0 0.0113904 0)
(0 0.0106993 0)
(0 0.0103838 0)
(0 0.0109419 0)
(0 0.00870655 0)
(0 0.0064552 0)
(0 0.00431157 0)
(0 0.00245642 0)
(0 0.00104826 0)
(0 0.000209246 0)
(0 0 0)
(0 0 0)
(0 0 0)
(0 0 0)
(0 0 0)
(0 0 0)
(0 0 0)
(0 0 0)
(0 0 0)
(0 0 0)
(0 0 0)
(0 0 0)
(0 0 0)
(0 0 0)
(0 0.000314885 0)
(0 0.00128391 0)
(0 0.00282539 0)
(0 0.00480916 0)
(0 0.00706814 0)
(0 0.00941253 0)
(0 0.0116461 0)
(0 0.0113693 0)
(0 0.0123876 0)
(0 0.0119149 0)
(0 0.0128367 0)
(0 0.0133152 0)
(0 0.0141341 0)
(0 0.0137386 0)
(0 0.014484 0)
(0 0.0146682 0)
(0 0.014989 0)
(0 0.0148091 0)
(0 0.0155816 0)
(0 0.0156667 0)
(0 0.0157626 0)
(0 0.0156802 0)
(0 0.0161736 0)
(0 0.0162147 0)
(0 0.016249 0)
(0 0.0162127 0)
(0 0.0163154 0)
(0 0.0163154 0)
(0 0.0163154 0)
(0 0.0163154 0)
(0 0.0163154 0)
(0 0.0163154 0)
(0 0.0163154 0)
(0 0.0163154 0)
(0 0.0163154 0)
(0 0.0163154 0)
(0 0.0163154 0)
(0 0.0163154 0)
(0 0.0163154 0)
(0 0.0163154 0)
(0 0.0163154 0)
(0 0.0163154 0)
(0 0.0163154 0)
(0 0.0163154 0)
(0 0.0163154 0)
(0 0.0163154 0)
(0 0.0161736 0)
(0 0.0162147 0)
(0 0.0161695 0)
(0 0.0161266 0)
(0 0.0155816 0)
(0 0.0156667 0)
(0 0.0157393 0)
(0 0.0155174 0)
(0 0.0153585 0)
(0 0.0144756 0)
(0 0.0146896 0)
(0 0.0148529 0)
(0 0.0141145 0)
(0 0.0137508 0)
(0 0.0129098 0)
(0 0.0132987 0)
(0 0.0123744 0)
(0 0.0119675 0)
(0 0.0113597 0)
(0 0.0116519 0)
(0 0.00940866 0)
(0 0.0070569 0)
(0 0.00479373 0)
(0 0.0028093 0)
(0 0.0012706 0)
(0 0.000307325 0)
(0 0 0)
(0 0 0)
(0 0 0)
(0 0 0)
(0 0 0)
(0 0 0)
(0 0 0)
(0 0 0)
(0 0 0)
(0 0 0)
(0 0 0)
(0 0 0)
(0 0 0)
(0 0 0)
(0 0.000333849 0)
(0 0.00132495 0)
(0 0.00289009 0)
(0 0.00489774 0)
(0 0.00717922 0)
(0 0.00954284 0)
(0 0.01179 0)
(0 0.0117942 0)
(0 0.0128134 0)
(0 0.0126624 0)
(0 0.0135832 0)
(0 0.0137344 0)
(0 0.0145376 0)
(0 0.0143897 0)
(0 0.0150917 0)
(0 0.0151596 0)
(0 0.015441 0)
(0 0.0153799 0)
(0 0.0160152 0)
(0 0.0160414 0)
(0 0.0161108 0)
(0 0.0160867 0)
(0 0.0163154 0)
(0 0.0163154 0)
(0 0.0163154 0)
(0 0.0163154 0)
(0 0.0163154 0)
(0 0.0163154 0)
(0 0.0163154 0)
(0 0.0163154 0)
(0 0.0163154 0)
(0 0.0163154 0)
(0 0.0163154 0)
(0 0.0163154 0)
(0 0.0163154 0)
(0 0.0163154 0)
(0 0.0163154 0)
(0 0.0163154 0)
(0 0.0163154 0)
(0 0.0163147 0)
(0 0.0163124 0)
(0 0.0160152 0)
(0 0.0160414 0)
(0 0.0160586 0)
(0 0.0158955 0)
(0 0.0158379 0)
(0 0.0150908 0)
(0 0.0151605 0)
(0 0.0152062 0)
(0 0.0145376 0)
(0 0.0144106 0)
(0 0.0135994 0)
(0 0.0136998 0)
(0 0.0127737 0)
(0 0.0126734 0)
(0 0.0117502 0)
(0 0.0117636 0)
(0 0.00951349 0)
(0 0.00714942 0)
(0 0.00487006 0)
(0 0.00286694 0)
(0 0.00130835 0)
(0 0.000325245 0)
(0 0 0)
(0 0 0)
(0 0 0)
(0 0 0)
(0 0 0)
(0 0 0)
(0 0 0)
(0 0 0)
(0 0 0)
(0 0 0)
(0 0 0)
(0 0 0)
(0 0 0)
(0 0 0)
(0 0.000272832 0)
(0 0.00119239 0)
(0 0.00268259 0)
(0 0.00461633 0)
(0 0.00682989 0)
(0 0.00913716 0)
(0 0.011346 0)
(0 0.0116648 0)
(0 0.0126824 0)
(0 0.0128101 0)
(0 0.013732 0)
(0 0.0136042 0)
(0 0.0144112 0)
(0 0.0145361 0)
(0 0.0152056 0)
(0 0.0151698 0)
(0 0.0154512 0)
(0 0.0154853 0)
(0 0.0160873 0)
(0 0.0160787 0)
(0 0.0161439 0)
(0 0.0161516 0)
(0 0.0163154 0)
(0 0.0163154 0)
(0 0.0163154 0)
(0 0.0163154 0)
(0 0.0163154 0)
(0 0.0163154 0)
(0 0.0163154 0)
(0 0.0163154 0)
(0 0.0163154 0)
(0 0.0163154 0)
(0 0.0163154 0)
(0 0.0163154 0)
(0 0.0163154 0)
(0 0.0163154 0)
(0 0.0163154 0)
(0 0.0163154 0)
(0 0.0160873 0)
(0 0.0160718 0)
(0 0.0160633 0)
(0 0.0159006 0)
(0 0.0159191 0)
(0 0.0151914 0)
(0 0.0151686 0)
(0 0.0150994 0)
(0 0.014421 0)
(0 0.0145183 0)
(0 0.0137108 0)
(0 0.0136113 0)
(0 0.0126867 0)
(0 0.0127861 0)
(0 0.0116663 0)
(0 0.0113749 0)
(0 0.00915835 0)
(0 0.00684373 0)
(0 0.00462395 0)
(0 0.00268562 0)
(0 0.00119268 0)
(0 0.000272236 0)
(0 0 0)
(0 0 0)
(0 0 0)
(0 0 0)
(0 0 0)
(0 0 0)
(0 0 0)
(0 0 0)
(0 0 0)
(0 0 0)
(0 0 0)
(0 0 0)
(0 0 0)
(0 0 0)
(0 0.000137994 0)
(0 0.000866767 0)
(0 0.00215591 0)
(0 0.00388964 0)
(0 0.0060473 0)
(0 0.00825362 0)
(0 0.0104057 0)
(0 0.0109764 0)
(0 0.0119966 0)
(0 0.0123562 0)
(0 0.0133365 0)
(0 0.0129327 0)
(0 0.0137671 0)
(0 0.0141681 0)
(0 0.0148743 0)
(0 0.014705 0)
(0 0.015012 0)
(0 0.0151763 0)
(0 0.0158655 0)
(0 0.0158174 0)
(0 0.0159049 0)
(0 0.0159563 0)
(0 0.0162957 0)
(0 0.0162789 0)
(0 0.0162989 0)
(0 0.0163093 0)
(0 0.0163154 0)
(0 0.0163154 0)
(0 0.0163154 0)
(0 0.0163154 0)
(0 0.0163154 0)
(0 0.0163154 0)
(0 0.0163154 0)
(0 0.0163154 0)
(0 0.0162957 0)
(0 0.0162765 0)
(0 0.0162499 0)
(0 0.0162737 0)
(0 0.0158655 0)
(0 0.0158174 0)
(0 0.0157519 0)
(0 0.0155445 0)
(0 0.0156726 0)
(0 0.0148743 0)
(0 0.014705 0)
(0 0.0145128 0)
(0 0.0137671 0)
(0 0.0141681 0)
(0 0.0133117 0)
(0 0.0129327 0)
(0 0.0119966 0)
(0 0.0123887 0)
(0 0.0109764 0)
(0 0.0104057 0)
(0 0.00825362 0)
(0 0.00596936 0)
(0 0.00392788 0)
(0 0.00218098 0)
(0 0.000880492 0)
(0 0.000142632 0)
(0 0 0)
(0 0 0)
(0 0 0)
(0 0 0)
(0 0 0)
(0 0 0)
(0 0 0)
(0 0 0)
(0 0 0)
(0 0 0)
(0 0 0)
(0 0 0)
(0 0 0)
(0 0 0)
(0 1.70747e-05 0)
(0 0.000506859 0)
(0 0.00154344 0)
(0 0.00303504 0)
(0 0.00484528 0)
(0 0.00681531 0)
(0 0.00888254 0)
(0 0.00966638 0)
(0 0.0107175 0)
(0 0.0114067 0)
(0 0.0123804 0)
(0 0.0116377 0)
(0 0.0125593 0)
(0 0.0132271 0)
(0 0.0140052 0)
(0 0.0136932 0)
(0 0.0140368 0)
(0 0.0143462 0)
(0 0.0151811 0)
(0 0.0150422 0)
(0 0.0151685 0)
(0 0.0152839 0)
(0 0.0159191 0)
(0 0.0158277 0)
(0 0.0158944 0)
(0 0.0159822 0)
(0 0.016249 0)
(0 0.0161979 0)
(0 0.0162204 0)
(0 0.0162671 0)
(0 0.0163154 0)
(0 0.0163063 0)
(0 0.0163099 0)
(0 0.0163154 0)
(0 0.0163154 0)
(0 0.0163154 0)
(0 0.0163154 0)
(0 0.0163154 0)
(0 0.0163154 0)
(0 0.0163154 0)
(0 0.0163063 0)
(0 0.0163013 0)
(0 0.0163148 0)
(0 0.0163152 0)
(0 0.016249 0)
(0 0.0161979 0)
(0 0.0161702 0)
(0 0.0162259 0)
(0 0.0159191 0)
(0 0.0158277 0)
(0 0.0157534 0)
(0 0.0158481 0)
(0 0.0151923 0)
(0 0.0150648 0)
(0 0.0149115 0)
(0 0.0146581 0)
(0 0.0149336 0)
(0 0.0139667 0)
(0 0.0136773 0)
(0 0.0133393 0)
(0 0.0125421 0)
(0 0.0132271 0)
(0 0.0123804 0)
(0 0.0116377 0)
(0 0.0107175 0)
(0 0.0114067 0)
(0 0.00966638 0)
(0 0.00888254 0)
(0 0.00681531 0)
(0 0.00484528 0)
(0 0.00303504 0)
(0 0.00154344 0)
(0 0.000472799 0)
(0 2.05098e-05 0)
(0 0 0)
(0 0 0)
(0 0 0)
(0 0 0)
(0 0 0)
(0 0 0)
(0 0 0)
(0 0 0)
(0 0 0)
(0 0 0)
(0 0 0)
(0 0 0)
(0 0 0)
(0 0 0)
(0 0 0)
(0 0.000155794 0)
(0 0.000820976 0)
(0 0.00193157 0)
(0 0.00337174 0)
(0 0.00517114 0)
(0 0.00703162 0)
(0 0.00790927 0)
(0 0.00894492 0)
(0 0.00983053 0)
(0 0.0107907 0)
(0 0.00987727 0)
(0 0.010749 0)
(0 0.0116931 0)
(0 0.0125102 0)
(0 0.0115448 0)
(0 0.012211 0)
(0 0.0127641 0)
(0 0.0132291 0)
(0 0.0128826 0)
(0 0.0138473 0)
(0 0.0133639 0)
(0 0.0136627 0)
(0 0.0141207 0)
(0 0.0148051 0)
(0 0.0143907 0)
(0 0.0145565 0)
(0 0.0149861 0)
(0 0.0154116 0)
(0 0.0150443 0)
(0 0.0151522 0)
(0 0.0155134 0)
(0 0.0157261 0)
(0 0.0153872 0)
(0 0.015447 0)
(0 0.0157678 0)
(0 0.0158236 0)
(0 0.0155106 0)
(0 0.0154944 0)
(0 0.0158108 0)
(0 0.0157261 0)
(0 0.0153872 0)
(0 0.0153024 0)
(0 0.0156608 0)
(0 0.0154116 0)
(0 0.0150443 0)
(0 0.0149095 0)
(0 0.0152833 0)
(0 0.0148051 0)
(0 0.0143907 0)
(0 0.0141764 0)
(0 0.0145954 0)
(0 0.0138473 0)
(0 0.0133639 0)
(0 0.0130833 0)
(0 0.0135487 0)
(0 0.0125102 0)
(0 0.0115448 0)
(0 0.010749 0)
(0 0.0116931 0)
(0 0.0107907 0)
(0 0.00987727 0)
(0 0.00894492 0)
(0 0.00983053 0)
(0 0.00790927 0)
(0 0.00703162 0)
(0 0.00517114 0)
(0 0.00337174 0)
(0 0.00193157 0)
(0 0.000820976 0)
(0 0.000155794 0)
(0 0 0)
(0 0 0)
(0 0 0)
(0 0 0)
(0 0 0)
(0 0 0)
(0 0 0)
(0 0 0)
(0 0 0)
(0 0 0)
(0 0 0)
(0 0 0)
(0 0 0)
(0 0 0)
(0 0 0)
(0 0 0)
(0 0 0)
(0 0.000234775 0)
(0 0.000969443 0)
(0 0.00207821 0)
(0 0.0034533 0)
(0 0.00495947 0)
(0 0.00644629 0)
(0 0.0076001 0)
(0 0.008827 0)
(0 0.00794673 0)
(0 0.00842581 0)
(0 0.00965557 0)
(0 0.0103864 0)
(0 0.0091995 0)
(0 0.00990712 0)
(0 0.0111322 0)
(0 0.011791 0)
(0 0.0111814 0)
(0 0.0114167 0)
(0 0.0120849 0)
(0 0.0128346 0)
(0 0.0122352 0)
(0 0.0124576 0)
(0 0.0130588 0)
(0 0.0135696 0)
(0 0.0129667 0)
(0 0.0130661 0)
(0 0.0136856 0)
(0 0.0140103 0)
(0 0.0134313 0)
(0 0.013499 0)
(0 0.0140773 0)
(0 0.0141562 0)
(0 0.0135809 0)
(0 0.0135531 0)
(0 0.0141309 0)
(0 0.0140103 0)
(0 0.0134313 0)
(0 0.0133367 0)
(0 0.0139162 0)
(0 0.0135696 0)
(0 0.0129667 0)
(0 0.0128237 0)
(0 0.0134264 0)
(0 0.0128346 0)
(0 0.0122352 0)
(0 0.0119871 0)
(0 0.012584 0)
(0 0.011791 0)
(0 0.0111814 0)
(0 0.0104768 0)
(0 0.00990712 0)
(0 0.0111322 0)
(0 0.0103864 0)
(0 0.0091995 0)
(0 0.00842581 0)
(0 0.00965557 0)
(0 0.008827 0)
(0 0.0076001 0)
(0 0.00644629 0)
(0 0.00495947 0)
(0 0.00794673 0)
(0 0.0034533 0)
(0 0.00207821 0)
(0 0.000969443 0)
(0 0.000234775 0)
(0 0 0)
(0 0 0)
(0 0 0)
(0 0 0)
(0 0 0)
(0 0 0)
(0 0 0)
(0 0 0)
(0 0 0)
(0 0 0)
(0 0 0)
(0 0 0)
(0 0 0)
(0 0 0)
(0 0 0)
(0 0 0)
(0 0 0)
(0 0 0)
(0 2.97724e-06 0)
(0 0.000266712 0)
(0 0.000903801 0)
(0 0.00177113 0)
(0 0.00289895 0)
(0 0.00410177 0)
(0 0.00526473 0)
(0 0.00594363 0)
(0 0.00720378 0)
(0 0.00791822 0)
(0 0.00651591 0)
(0 0.00716158 0)
(0 0.0085069 0)
(0 0.00915236 0)
(0 0.00845877 0)
(0 0.00874267 0)
(0 0.00944751 0)
(0 0.0102084 0)
(0 0.00947646 0)
(0 0.00967841 0)
(0 0.0104172 0)
(0 0.0108904 0)
(0 0.0101576 0)
(0 0.0103207 0)
(0 0.0110584 0)
(0 0.0114102 0)
(0 0.0106632 0)
(0 0.0107271 0)
(0 0.0114758 0)
(0 0.0115622 0)
(0 0.0108136 0)
(0 0.0107784 0)
(0 0.0115284 0)
(0 0.0114102 0)
(0 0.0106632 0)
(0 0.0105739 0)
(0 0.0113186 0)
(0 0.0108904 0)
(0 0.0101576 0)
(0 0.00997073 0)
(0 0.0107633 0)
(0 0.0102084 0)
(0 0.00947646 0)
(0 0.00925258 0)
(0 0.00997653 0)
(0 0.00915236 0)
(0 0.00845877 0)
(0 0.00775264 0)
(0 0.00716158 0)
(0 0.0085069 0)
(0 0.00791822 0)
(0 0.00651591 0)
(0 0.00594363 0)
(0 0.00720378 0)
(0 0.00526473 0)
(0 0.00410177 0)
(0 0.00289895 0)
(0 0.00177113 0)
(0 0.000903801 0)
(0 0.000266712 0)
(0 2.97724e-06 0)
(0 0 0)
(0 0 0)
(0 0 0)
(0 0 0)
(0 0 0)
(0 0 0)
(0 0 0)
(0 0 0)
(0 0 0)
(0 0 0)
(0 0 0)
(0 0 0)
(0 0 0)
(0 0 0)
(0 0 0)
(0 0 0)
(0 0 0)
(0 0 0)
(0 0 0)
(0 0 0)
(0 0.000140068 0)
(0 0.000583379 0)
(0 0.00118181 0)
(0 0.00198995 0)
(0 0.00294244 0)
(0 0.00346962 0)
(0 0.00462325 0)
(0 0.00522869 0)
(0 0.00398624 0)
(0 0.00447932 0)
(0 0.00580157 0)
(0 0.00632934 0)
(0 0.00562582 0)
(0 0.00585392 0)
(0 0.00657277 0)
(0 0.00720661 0)
(0 0.00644933 0)
(0 0.00655799 0)
(0 0.00730452 0)
(0 0.00785567 0)
(0 0.00707842 0)
(0 0.00721456 0)
(0 0.00799957 0)
(0 0.00830282 0)
(0 0.00750179 0)
(0 0.00755564 0)
(0 0.00835962 0)
(0 0.0084424 0)
(0 0.007636 0)
(0 0.00759889 0)
(0 0.00840523 0)
(0 0.00830282 0)
(0 0.00750179 0)
(0 0.00742674 0)
(0 0.00822363 0)
(0 0.00785567 0)
(0 0.00707842 0)
(0 0.0069231 0)
(0 0.00769134 0)
(0 0.00720661 0)
(0 0.00644933 0)
(0 0.00626677 0)
(0 0.0070125 0)
(0 0.00632934 0)
(0 0.00562582 0)
(0 0.00493688 0)
(0 0.00447932 0)
(0 0.00580157 0)
(0 0.00522869 0)
(0 0.00398624 0)
(0 0.00346962 0)
(0 0.00462325 0)
(0 0.00294244 0)
(0 0.00198995 0)
(0 0.00118181 0)
(0 0.000583379 0)
(0 0.000140068 0)
(0 0 0)
(0 0 0)
(0 0 0)
(0 0 0)
(0 0 0)
(0 0 0)
(0 0 0)
(0 0 0)
(0 0 0)
(0 0 0)
(0 0 0)
(0 0 0)
(0 0 0)
(0 0 0)
(0 0 0)
(0 0 0)
(0 0 0)
(0 0 0)
(0 0 0)
(0 0 0)
(0 0 0)
(0 0 0)
(0 0 0)
(0 1.19279e-05 0)
(0 0.000202326 0)
(0 0.000564662 0)
(0 0.00118454 0)
(0 0.00150703 0)
(0 0.00241571 0)
(0 0.00283886 0)
(0 0.00183449 0)
(0 0.00215585 0)
(0 0.00324734 0)
(0 0.0036299 0)
(0 0.00302498 0)
(0 0.0031859 0)
(0 0.00380825 0)
(0 0.0042378 0)
(0 0.00358657 0)
(0 0.00373756 0)
(0 0.0044037 0)
(0 0.00482176 0)
(0 0.00411909 0)
(0 0.00421973 0)
(0 0.00493178 0)
(0 0.00516479 0)
(0 0.0044332 0)
(0 0.0044734 0)
(0 0.00520861 0)
(0 0.0052786 0)
(0 0.004539 0)
(0 0.00450571 0)
(0 0.00524383 0)
(0 0.00516479 0)
(0 0.0044332 0)
(0 0.00437728 0)
(0 0.00510379 0)
(0 0.00482176 0)
(0 0.00411909 0)
(0 0.00400468 0)
(0 0.00469657 0)
(0 0.0042378 0)
(0 0.00358657 0)
(0 0.00342527 0)
(0 0.00406024 0)
(0 0.0036299 0)
(0 0.00302498 0)
(0 0.00246075 0)
(0 0.00215585 0)
(0 0.00324734 0)
(0 0.00283886 0)
(0 0.00183449 0)
(0 0.00150703 0)
(0 0.00241571 0)
(0 0.00118454 0)
(0 0.000564662 0)
(0 0.000202326 0)
(0 1.19279e-05 0)
(0 0 0)
(0 0 0)
(0 0 0)
(0 0 0)
(0 0 0)
(0 0 0)
(0 0 0)
(0 0 0)
(0 0 0)
(0 0 0)
(0 0 0)
(0 0 0)
(0 0 0)
(0 0 0)
(0 0 0)
(0 0 0)
(0 0 0)
(0 0 0)
(0 0 0)
(0 0 0)
(0 0 0)
(0 0 0)
(0 0 0)
(0 0 0)
(0 0 0)
(0 0 0)
(0 2.16218e-06 0)
(0 0.000162443 0)
(0 0.000282946 0)
(0 0.000784581 0)
(0 0.00101653 0)
(0 0.000421905 0)
(0 0.000570508 0)
(0 0.00125054 0)
(0 0.0014772 0)
(0 0.00101684 0)
(0 0.00112094 0)
(0 0.00153302 0)
(0 0.00188228 0)
(0 0.00141658 0)
(0 0.00150632 0)
(0 0.00198736 0)
(0 0.00225605 0)
(0 0.00173722 0)
(0 0.00179905 0)
(0 0.00232764 0)
(0 0.0024804 0)
(0 0.00193137 0)
(0 0.00195646 0)
(0 0.00250929 0)
(0 0.00255955 0)
(0 0.002001 0)
(0 0.00197667 0)
(0 0.00253255 0)
(0 0.0024804 0)
(0 0.00193137 0)
(0 0.00189656 0)
(0 0.00244026 0)
(0 0.00225605 0)
(0 0.00173722 0)
(0 0.00166738 0)
(0 0.00217502 0)
(0 0.00188228 0)
(0 0.00141658 0)
(0 0.00132181 0)
(0 0.00177089 0)
(0 0.0014772 0)
(0 0.00101684 0)
(0 0.000683785 0)
(0 0.000570508 0)
(0 0.00125054 0)
(0 0.00101653 0)
(0 0.000421905 0)
(0 0.000282946 0)
(0 0.000784581 0)
(0 0.000162443 0)
(0 2.16218e-06 0)
(0 0 0)
(0 0 0)
(0 0 0)
(0 0 0)
(0 0 0)
(0 0 0)
(0 0 0)
(0 0 0)
(0 0 0)
(0 0 0)
(0 0 0)
(0 0 0)
(0 0 0)
(0 0 0)
(0 0 0)
(0 0 0)
(0 0 0)
(0 0 0)
(0 0 0)
(0 0 0)
(0 0 0)
(0 0 0)
(0 0 0)
(0 0 0)
(0 0 0)
(0 0 0)
(0 0 0)
(0 0 0)
(0 0 0)
(0 0 0)
(0 0 0)
(0 7.94082e-05 0)
(0 2.8721e-05 0)
(0 0 0)
(0 0.000124869 0)
(0 0.00020861 0)
(0 6.38656e-06 0)
(0 2.79154e-05 0)
(0 0.000300624 0)
(0 0.00039386 0)
(0 5.88633e-05 0)
(0 9.37273e-05 0)
(0 0.00048196 0)
(0 0.000559396 0)
(0 0.000127703 0)
(0 0.000156803 0)
(0 0.000621602 0)
(0 0.000665063 0)
(0 0.00017795 0)
(0 0.000189054 0)
(0 0.000687399 0)
(0 0.00070527 0)
(0 0.00019854 0)
(0 0.000189054 0)
(0 0.000687399 0)
(0 0.000665063 0)
(0 0.00017795 0)
(0 0.000156803 0)
(0 0.000621602 0)
(0 0.000559396 0)
(0 0.000127703 0)
(0 9.37273e-05 0)
(0 0.00048196 0)
(0 0.00039386 0)
(0 5.88633e-05 0)
(0 2.79154e-05 0)
(0 0.000300624 0)
(0 0.00020861 0)
(0 6.38656e-06 0)
(0 0 0)
(0 0.000124869 0)
(0 7.94082e-05 0)
(0 0 0)
(0 0 0)
(0 0 0)
(0 2.8721e-05 0)
(0 0 0)
(0 0 0)
(0 0 0)
(0 0 0)
(0 0 0)
(0 0 0)
(0 0 0)
(0 0 0)
(0 0 0)
(0 0 0)
(0 0 0)
(0 0 0)
(0 0 0)
(0 0 0)
(0 0 0)
(0 0 0)
(0 0 0)
(0 0 0)
(0 0 0)
(0 0 0)
(0 0 0)
(0 0 0)
(0 0 0)
(0 0 0)
(0 0 0)
(0 0 0)
(0 0 0)
(0 0 0)
(0 0 0)
(0 0 0)
(0 0 0)
(0 0 0)
(0 0 0)
(0 0 0)
(0 0 0)
(0 0 0)
(0 0 0)
(0 0 0)
(0 0 0)
(0 0 0)
(0 5.73955e-07 0)
(0 0 0)
(0 0 0)
(0 2.20877e-06 0)
(0 1.31418e-06 0)
(0 0 0)
(0 5.73955e-07 0)
(0 1.31418e-06 0)
(0 0 0)
(0 0 0)
(0 0 0)
(0 0 0)
(0 0 0)
(0 0 0)
(0 0 0)
(0 0 0)
(0 0 0)
(0 0 0)
(0 0 0)
(0 0 0)
(0 0 0)
(0 0 0)
(0 0 0)
(0 0 0)
(0 0 0)
(0 0 0)
(0 0 0)
(0 0 0)
(0 0 0)
(0 0 0)
(0 0 0)
(0 0 0)
(0 0 0)
(0 0 0)
(0 0 0)
(0 0 0)
(0 0 0)
(0 0 0)
(0 0 0)
(0 0 0)
(0 0 0)
(0 0 0)
(0 0 0)
(0 0 0)
(0 0 0)
(0 0 0)
(0 0 0)
(0 0 0)
(0 0 0)
(0 0 0)
(0 0 0)
(0 0 0)
(0 0 0)
(0 0 0)
(0 0 0)
(0 0 0)
(0 0 0)
(0 0 0)
(0 0 0)
(0 0 0)
(0 0 0)
(0 0 0)
(0 0 0)
(0 0 0)
(0 0 0)
(0 0 0)
(0 0 0)
(0 0 0)
(0 0 0)
(0 0 0)
(0 0 0)
(0 0 0)
(0 0 0)
(0 0 0)
(0 0 0)
(0 0 0)
(0 0 0)
(0 0 0)
(0 0 0)
(0 0 0)
(0 0 0)
(0 0 0)
(0 0 0)
(0 0 0)
(0 0 0)
(0 0 0)
(0 0 0)
(0 0 0)
(0 0 0)
(0 0 0)
(0 0 0)
(0 0 0)
(0 0 0)
(0 0 0)
(0 0 0)
(0 0 0)
(0 0 0)
(0 0 0)
(0 0 0)
(0 0 0)
(0 0 0)
(0 0 0)
(0 0 0)
(0 0 0)
(0 0 0)
(0 0 0)
(0 0 0)
(0 0 0)
(0 0 0)
(0 0 0)
(0 0 0)
(0 0 0)
(0 0 0)
(0 0 0)
(0 0 0)
(0 0 0)
(0 0 0)
(0 0 0)
(0 0 0)
(0 0 0)
(0 0 0)
(0 0 0)
(0 0 0)
(0 0 0)
(0 0 0)
(0 0 0)
(0 0 0)
(0 0 0)
(0 0 0)
(0 0 0)
(0 0 0)
(0 0 0)
(0 0 0)
(0 0 0)
(0 0 0)
(0 0 0)
(0 0 0)
(0 0 0)
(0 0 0)
(0 0 0)
(0 0 0)
(0 0 0)
(0 0 0)
(0 0 0)
(0 0 0)
(0 0 0)
(0 0 0)
(0 0 0)
(0 0 0)
(0 0 0)
(0 0 0)
(0 0 0)
(0 0 0)
(0 0 0)
(0 0 0)
(0 0 0)
(0 0 0)
(0 0 0)
(0 0 0)
(0 0 0)
(0 0 0)
(0 0 0)
(0 0 0)
(0 0 0)
(0 0 0)
(0 0 0)
(0 0 0)
(0 0 0)
(0 0 0)
(0 0 0)
(0 0 0)
(0 0 0)
(0 0 0)
(0 0 0)
(0 0 0)
(0 0 0)
(0 0 0)
(0 0 0)
(0 0 0)
(0 0 0)
(0 0 0)
(0 0 0)
(0 0 0)
(0 0 0)
(0 0 0)
(0 0 0)
(0 0 0)
(0 0 0)
(0 0 0)
(0 0 0)
(0 0 0)
(0 0 0)
(0 0 0)
(0 0 0)
(0 0 0)
(0 0 0)
(0 0 0)
(0 0 0)
(0 0 0)
(0 0 0)
(0 0 0)
(0 0 0)
(0 0 0)
(0 0 0)
(0 0 0)
(0 0 0)
(0 0 0)
(0 0 0)
(0 0 0)
(0 0 0)
(0 0 0)
(0 0 0)
(0 0 0)
(0 0 0)
(0 0 0)
(0 0 0)
(0 0 0)
(0 0 0)
(0 0 0)
(0 0 0)
(0 0 0)
(0 0 0)
(0 0 0)
(0 0 0)
(0 0 0)
(0 0 0)
(0 0 0)
(0 0 0)
(0 0 0)
(0 0 0)
(0 0 0)
(0 0 0)
(0 0 0)
(0 0 0)
(0 0 0)
(0 0 0)
(0 0 0)
(0 0 0)
(0 0 0)
(0 0 0)
(0 0 0)
(0 0 0)
(0 0 0)
(0 0 0)
(0 0 0)
(0 0 0)
(0 0 0)
(0 0 0)
(0 0 0)
(0 0 0)
(0 0 0)
(0 0 0)
(0 0 0)
(0 0 0)
(0 0 0)
(0 0 0)
(0 0 0)
(0 0 0)
(0 0 0)
(0 0 0)
(0 0 0)
(0 0 0)
(0 0 0)
(0 0 0)
(0 0 0)
(0 0 0)
(0 0 0)
(0 0 0)
(0 0 0)
(0 0 0)
(0 0 0)
(0 0 0)
(0 0 0)
(0 0 0)
(0 0 0)
(0 0 0)
(0 0 0)
(0 0 0)
(0 0 0)
(0 0 0)
(0 0 0)
(0 0 0)
(0 0 0)
(0 0 0)
(0 0 0)
(0 0 0)
(0 0 0)
(0 0 0)
(0 0 0)
(0 0 0)
(0 0 0)
(0 0 0)
(0 0 0)
(0 0 0)
(0 0 0)
(0 0 0)
(0 0 0)
(0 0 0)
(0 0 0)
(0 0 0)
(0 0 0)
(0 0 0)
(0 0 0)
(0 0 0)
(0 0 0)
(0 0 0)
(0 0 0)
(0 0 0)
(0 0 0)
(0 0 0)
(0 0 0)
(0 0 0)
(0 0 0)
(0 0 0)
(0 0 0)
(0 0 0)
(0 0 0)
(0 0 0)
(0 0 0)
(0 0 0)
(0 0 0)
(0 0 0)
(0 0 0)
(0 0 0)
(0 0 0)
(0 0 0)
(0 0 0)
(0 0 0)
(0 0 0)
(0 0 0)
(0 0 0)
(0 0 0)
(0 0 0)
(0 0 0)
(0 0 0)
(0 0 0)
(0 0 0)
(0 0 0)
(0 0 0)
(0 0 0)
(0 0 0)
(0 0 0)
(0 0 0)
(0 0 0)
(0 0 0)
(0 0 0)
(0 0 0)
(0 0 0)
(0 0 0)
(0 0 0)
(0 0 0)
(0 0 0)
(0 0 0)
(0 0 0)
(0 0 0)
(0 0 0)
(0 0 0)
(0 0 0)
(0 0 0)
(0 0 0)
(0 0 0)
(0 0 0)
(0 0 0)
(0 0 0)
(0 0 0)
(0 0 0)
(0 0 0)
(0 0 0)
(0 0 0)
(0 0 0)
(0 0 0)
(0 0 0)
(0 0 0)
(0 0 0)
(0 0 0)
(0 0 0)
(0 0 0)
(0 0 0)
(0 0 0)
(0 0 0)
(0 0 0)
(0 0 0)
(0 0 0)
(0 0 0)
(0 0 0)
(0 0 0)
(0 0 0)
(0 0 0)
(0 0 0)
(0 0 0)
(0 0 0)
(0 0 0)
(0 0 0)
(0 0 0)
(0 0 0)
(0 0 0)
(0 0 0)
(0 0 0)
(0 0 0)
(0 0 0)
(0 0 0)
(0 0 0)
(0 0 0)
(0 0 0)
(0 0 0)
(0 0 0)
(0 0 0)
(0 0 0)
(0 0 0)
(0 0 0)
(0 0 0)
(0 0 0)
(0 0 0)
(0 0 0)
(0 0 0)
(0 0 0)
(0 0 0)
(0 0 0)
(0 0 0)
(0 0 0)
(0 0 0)
(0 0 0)
(0 0 0)
(0 0 0)
(0 0 0)
(0 0 0)
(0 0 0)
(0 0 0)
(0 0 0)
(0 0 0)
(0 0 0)
(0 0 0)
(0 0 0)
(0 0 0)
(0 0 0)
(0 0 0)
(0 0 0)
(0 0 0)
(0 0 0)
(0 0 0)
(0 0 0)
(0 0 0)
(0 0 0)
(0 0 0)
(0 0 0)
(0 0 0)
(0 0 0)
(0 0 0)
(0 0 0)
(0 0 0)
(0 0 0)
(0 0 0)
(0 0 0)
(0 0 0)
(0 0 0)
(0 0 0)
(0 0 0)
(0 0 0)
(0 0 0)
(0 0 0)
(0 0 0)
(0 0 0)
(0 0 0)
(0 0 0)
(0 0 0)
(0 0 0)
(0 0 0)
(0 0 0)
(0 0 0)
(0 0 0)
(0 0 0)
(0 0 0)
(0 0 0)
(0 0 0)
(0 0 0)
(0 0 0)
(0 0 0)
(0 0 0)
(0 0 0)
(0 0 0)
(0 0 0)
(0 0 0)
(0 0 0)
(0 0 0)
(0 0 0)
(0 0 0)
(0 0 0)
(0 0 0)
(0 0 0)
(0 0 0)
(0 0 0)
(0 0 0)
(0 0 0)
(0 0 0)
(0 0 0)
(0 0 0)
(0 0 0)
(0 0 0)
(0 0 0)
(0 0 0)
(0 0 0)
(0 0 0)
(0 0 0)
(0 0 0)
(0 0 0)
(0 0 0)
(0 0 0)
(0 0 0)
(0 0 0)
(0 0 0)
(0 0 0)
(0 0 0)
(0 0 0)
(0 0 0)
(0 0 0)
(0 0 0)
(0 0 0)
(0 0 0)
(0 0 0)
(0 0 0)
(0 0 0)
(0 0 0)
(0 0 0)
(0 0 0)
(0 0 0)
(0 0 0)
(0 0 0)
(0 0 0)
(0 0 0)
(0 0 0)
(0 0 0)
(0 0 0)
(0 0 0)
(0 0 0)
(0 0 0)
(0 0 0)
(0 0 0)
(0 0 0)
(0 0 0)
(0 0 0)
(0 0 0)
(0 0 0)
(0 0 0)
(0 0 0)
(0 0 0)
(0 0 0)
(0 0 0)
(0 0 0)
(0 0 0)
(0 0 0)
(0 0 0)
(0 0 0)
(0 0 0)
(0 0 0)
(0 0 0)
(0 0 0)
(0 0 0)
(0 0 0)
(0 0 0)
(0 0 0)
(0 0 0)
(0 0 0)
(0 0 0)
(0 0 0)
(0 0 0)
(0 0 0)
(0 0 0)
(0 0 0)
(0 0 0)
(0 0 0)
(0 0 0)
(0 0 0)
(0 0 0)
(0 0 0)
(0 0 0)
(0 0 0)
(0 0 0)
(0 0 0)
(0 0 0)
(0 0 0)
(0 0 0)
(0 0 0)
(0 0 0)
(0 0 0)
(0 0 0)
(0 0 0)
(0 0 0)
(0 0 0)
(0 0 0)
(0 0 0)
(0 0 0)
(0 0 0)
(0 0 0)
(0 0 0)
(0 0 0)
(0 0 0)
(0 0 0)
(0 0 0)
(0 0 0)
(0 0 0)
(0 0 0)
(0 0 0)
(0 0 0)
(0 0 0)
(0 0 0)
(0 0 0)
(0 0 0)
(0 0 0)
(0 0 0)
(0 0 0)
(0 0 0)
(0 0 0)
(0 0 0)
(0 0 0)
(0 0 0)
(0 0 0)
(0 0 0)
(0 0 0)
(0 0 0)
(0 0 0)
(0 0 0)
(0 0 0)
(0 0 0)
(0 0 0)
(0 0 0)
(0 0 0)
(0 0 0)
(0 0 0)
(0 0 0)
(0 0 0)
(0 0 0)
(0 0 0)
(0 0 0)
(0 0 0)
(0 0 0)
(0 0 0)
(0 0 0)
(0 0 0)
(0 0 0)
(0 0 0)
(0 0 0)
(0 0 0)
(0 0 0)
(0 0 0)
(0 0 0)
(0 0 0)
(0 0 0)
(0 0 0)
(0 0 0)
(0 0 0)
(0 0 0)
(0 0 0)
(0 0 0)
(0 0 0)
(0 0 0)
(0 0 0)
(0 0 0)
(0 0 0)
(0 0 0)
(0 0 0)
(0 0 0)
(0 0 0)
(0 0 0)
(0 0 0)
(0 0 0)
(0 0 0)
(0 0 0)
(0 0 0)
(0 0 0)
(0 0 0)
(0 0 0)
(0 0 0)
(0 0 0)
(0 0 0)
(0 0 0)
(0 0 0)
(0 0 0)
(0 0 0)
(0 0 0)
(0 0 0)
(0 0 0)
(0 0 0)
(0 0 0)
(0 0 0)
(0 0 0)
(0 0 0)
(0 0 0)
(0 0 0)
(0 0 0)
(0 0 0)
(0 0 0)
(0 0 0)
(0 0 0)
(0 0 0)
(0 0 0)
(0 0 0)
(0 0 0)
(0 0 0)
(0 0 0)
(0 0 0)
(0 0 0)
(0 0 0)
(0 0 0)
(0 0 0)
(0 0 0)
(0 0 0)
(0 0 0)
(0 0 0)
(0 0 0)
(0 0 0)
(0 0 0)
(0 0 0)
(0 0 0)
(0 0 0)
(0 0 0)
(0 0 0)
(0 0 0)
(0 0 0)
(0 0 0)
(0 0 0)
(0 0 0)
(0 0 0)
(0 0 0)
(0 0 0)
(0 0 0)
(0 0 0)
(0 0 0)
(0 0 0)
(0 0 0)
(0 0 0)
(0 0 0)
(0 0 0)
(0 0 0)
(0 0 0)
(0 0 0)
(0 0 0)
(0 0 0)
(0 0 0)
(0 0 0)
(0 0 0)
(0 0 0)
(0 0 0)
(0 0 0)
(0 0 0)
(0 0 0)
(0 0 0)
(0 0 0)
(0 0 0)
(0 0 0)
(0 0 0)
(0 0 0)
(0 0 0)
(0 0 0)
(0 0 0)
(0 0 0)
(0 0 0)
(0 0 0)
(0 0 0)
(0 0 0)
(0 0 0)
(0 0 0)
(0 0 0)
(0 0 0)
(0 0 0)
(0 0 0)
(0 0 0)
(0 0 0)
(0 0 0)
(0 0 0)
(0 0 0)
(0 0 0)
(0 0 0)
(0 0 0)
(0 0 0)
(0 0 0)
(0 0 0)
(0 0 0)
(0 0 0)
(0 0 0)
(0 0 0)
(0 0 0)
(0 0 0)
(0 0 0)
(0 0 0)
(0 0 0)
(0 0 0)
(0 0 0)
(0 0 0)
(0 0 0)
(0 0 0)
(0 0 0)
(0 0 0)
(0 0 0)
(0 0 0)
(0 0 0)
(0 0 0)
(0 0 0)
(0 0 0)
(0 0 0)
(0 0 0)
(0 0 0)
(0 0 0)
(0 0 0)
(0 0 0)
(0 0 0)
(0 0 0)
(0 0 0)
(0 0 0)
(0 0 0)
(0 0 0)
(0 0 0)
(0 0 0)
(0 0 0)
(0 0 0)
(0 0 0)
(0 0 0)
(0 0 0)
(0 0 0)
(0 0 0)
(0 0 0)
(0 0 0)
(0 0 0)
(0 0 0)
(0 0 0)
(0 0 0)
(0 0 0)
(0 0 0)
(0 0 0)
(0 0 0)
(0 0 0)
(0 0 0)
(0 0 0)
(0 0 0)
(0 0 0)
(0 0 0)
(0 0 0)
(0 0 0)
(0 0 0)
(0 0 0)
(0 0 0)
(0 0 0)
(0 0 0)
(0 0 0)
(0 0 0)
(0 0 0)
(0 0 0)
(0 0 0)
(0 0 0)
(0 0 0)
(0 0 0)
(0 0 0)
(0 0 0)
(0 0 0)
(0 0 0)
(0 0 0)
(0 0 0)
(0 0 0)
(0 0 0)
(0 0 0)
(0 0 0)
(0 0 0)
(0 0 0)
(0 0 0)
(0 0 0)
(0 0 0)
(0 0 0)
(0 0 0)
(0 0 0)
(0 0 0)
(0 0 0)
(0 0 0)
(0 0 0)
(0 0 0)
(0 0 0)
(0 0 0)
(0 0 0)
(0 0 0)
(0 0 0)
(0 0 0)
(0 0 0)
(0 0 0)
(0 0 0)
(0 0 0)
(0 0 0)
(0 0 0)
(0 0 0)
(0 0 0)
(0 0 0)
(0 0 0)
(0 0 0)
(0 0 0)
(0 0 0)
(0 0 0)
(0 0 0)
(0 0 0)
(0 0 0)
(0 0 0)
(0 0 0)
(0 0 0)
(0 0 0)
(0 0 0)
(0 0 0)
(0 0 0)
(0 0 0)
(0 0 0)
(0 0 0)
(0 0 0)
(0 0 0)
(0 0 0)
(0 0 0)
(0 0 0)
(0 0 0)
(0 0 0)
(0 0 0)
(0 0 0)