/*--------------------------------*- C++ -*----------------------------------*\
| =========                 |                                                 |
| \\      /  F ield         | OpenFOAM: The Open Source CFD Toolbox           |
|  \\    /   O peration     | Version:  v2106                                 |
|   \\  /    A nd           | Website:  www.openfoam.com                      |
|    \\/     M anipulation  |                                                 |
\*---------------------------------------------------------------------------*/
FoamFile
{
    version     2.0;
    format      ascii;
    arch        "LSB;label=32;scalar=64";
    class       volVectorField;
    location    "0";
    object      U;
}
// * * * * * * * * * * * * * * * * * * * * * * * * * * * * * * * * * * * * * //

dimensions      [0 1 -1 0 0 0 0];

internalField   nonuniform List<vector> 
11644
(
(0.994854 -0.000233396 -8.12989e-24)
(0.994747 -0.000622571 -2.24198e-23)
(0.994679 -0.00092854 -1.20288e-23)
(0.99466 -0.0012417 0)
(0.994656 -0.00157706 0)
(0.994655 -0.00193191 0)
(0.994656 -0.00230452 0)
(0.994656 -0.00268799 0)
(0.994653 -0.00307531 0)
(0.994661 -0.003446 0)
(0.994637 -0.00379544 0)
(0.994605 -0.00409605 0)
(0.994672 -0.00430022 0)
(0.994841 -0.00441643 0)
(0.994659 -0.00441065 0)
(0.994618 -0.00427383 0)
(0.994685 -0.00405673 0)
(0.994791 -0.00377616 0)
(0.994729 -0.0033659 0)
(0.994412 -0.00264387 3.4123e-30)
(0.994076 -0.00159885 -3.39481e-30)
(0.993994 -0.000401689 0)
(0.994218 0.000616261 0)
(0.994491 0.00133591 0)
(0.994568 0.00185545 0)
(0.994576 0.002264 0)
(0.994745 0.0025867 0)
(0.994602 0.00274826 0)
(0.994594 0.00280432 0)
(0.994623 0.00275513 0)
(0.994619 0.00262921 0)
(0.994632 0.00243819 0)
(0.994635 0.00220604 0)
(0.994638 0.00194435 0)
(0.994641 0.00166651 0)
(0.994645 0.00138349 0)
(0.994653 0.00110573 0)
(0.994669 0.000837479 0)
(0.994731 0.000575138 0)
(0.994839 0.000220369 -1.5763e-24)
(0.99565 -0.000462786 -1.04428e-23)
(0.995585 -0.00140642 -9.67337e-24)
(0.995549 -0.00237178 -5.19526e-24)
(0.995561 -0.00334856 0)
(0.995604 -0.00435245 0)
(0.995659 -0.00539622 0)
(0.995714 -0.00648009 0)
(0.995759 -0.00759457 0)
(0.995786 -0.00871799 0)
(0.995763 -0.00982154 0)
(0.995714 -0.010838 0)
(0.995619 -0.0117116 0)
(0.995336 -0.012389 0)
(0.994797 -0.0127627 0)
(0.994577 -0.0127347 0)
(0.994203 -0.0123685 1.85806e-24)
(0.993769 -0.0115398 7.66295e-24)
(0.993137 -0.0100886 4.69588e-23)
(0.992339 -0.00783409 7.91367e-25)
(0.991784 -0.0051417 5.13605e-22)
(0.991631 -0.0024093 -5.75742e-22)
(0.991831 0.000127885 1.45787e-22)
(0.992237 0.00242335 -1.27297e-22)
(0.992681 0.00450482 -5.55827e-24)
(0.993187 0.00628171 -3.90792e-24)
(0.993681 0.00758207 0)
(0.993867 0.00842231 0)
(0.994472 0.00882521 0)
(0.994817 0.0088546 0)
(0.995028 0.00859353 0)
(0.995203 0.00809233 0)
(0.995309 0.00743017 0)
(0.995382 0.00665589 0)
(0.99542 0.00581506 0)
(0.995435 0.00494033 0)
(0.995434 0.00405474 0)
(0.995429 0.00316956 0)
(0.995445 0.00227809 0)
(0.995508 0.00136798 0)
(0.995594 0.000454893 0)
(0.997207 -0.000707138 0)
(0.997188 -0.00216956 0)
(0.997219 -0.00369126 0)
(0.997307 -0.0052628 0)
(0.99744 -0.00688312 -9.53929e-24)
(0.997593 -0.00857139 0)
(0.997745 -0.0103276 0)
(0.997869 -0.0121388 0)
(0.997929 -0.013976 0)
(0.997891 -0.0157816 0)
(0.997703 -0.0174837 0)
(0.997238 -0.0189937 0)
(0.996565 -0.0201141 2.55505e-24)
(0.995864 -0.0207322 -9.08896e-23)
(0.994485 -0.0207237 -2.54634e-23)
(0.993067 -0.0199096 6.44721e-22)
(0.991381 -0.0180577 -6.38548e-22)
(0.989359 -0.0149041 2.61511e-22)
(0.987743 -0.0108671 3.71717e-22)
(0.986855 -0.00639621 -2.62769e-21)
(0.986713 -0.00180796 2.3165e-21)
(0.987229 0.00268474 -9.75176e-22)
(0.988226 0.0067896 6.38855e-22)
(0.989487 0.0103222 -2.89806e-22)
(0.990792 0.0130887 3.27576e-22)
(0.992109 0.0150218 -2.78199e-23)
(0.993779 0.0161457 1.18288e-22)
(0.994586 0.016512 -3.85005e-24)
(0.995394 0.0162495 0)
(0.996075 0.0154744 0)
(0.996546 0.0143533 0)
(0.996838 0.0130042 0)
(0.996995 0.0115248 0)
(0.997064 0.00997656 0)
(0.997077 0.00840735 0)
(0.99706 0.0068424 0)
(0.997038 0.00528859 0)
(0.997036 0.00374309 0)
(0.997075 0.00220558 0)
(0.997136 0.000715506 0)
(0.999497 -0.000956078 0)
(0.999516 -0.00288992 0)
(0.999615 -0.0049152 0)
(0.999802 -0.00699806 0)
(1.00005 -0.00917287 0)
(1.00034 -0.0114475 0)
(1.00064 -0.0138306 0)
(1.00088 -0.0163137 0)
(1.00101 -0.0188653 0)
(1.00095 -0.0214208 0)
(1.00054 -0.0239011 -9.93512e-25)
(0.999809 -0.0261117 -2.71802e-23)
(0.998511 -0.0279038 1.39419e-22)
(0.996313 -0.0290301 2.16151e-23)
(0.994083 -0.0289359 8.02209e-22)
(0.990879 -0.027471 -5.69905e-22)
(0.986964 -0.0241999 -9.62439e-22)
(0.983191 -0.0194244 1.22837e-21)
(0.980403 -0.0133722 -5.57569e-22)
(0.978793 -0.00654194 2.51755e-21)
(0.978429 0.000634203 -2.69122e-21)
(0.97922 0.0076131 1.30901e-21)
(0.981204 0.0139743 -1.92469e-21)
(0.983983 0.0191778 2.08389e-21)
(0.987041 0.0229729 -2.51773e-23)
(0.990177 0.0253508 -1.25775e-21)
(0.992432 0.0264792 1.15315e-22)
(0.995226 0.0262298 -1.78053e-22)
(0.997042 0.025193 -2.81869e-23)
(0.998228 0.023557 2.50886e-24)
(0.998981 0.0214949 0)
(0.999439 0.0191937 0)
(0.999662 0.0167958 0)
(0.999724 0.0143868 0)
(0.999692 0.0120116 0)
(0.999616 0.00969558 0)
(0.999534 0.00744155 0)
(0.99948 0.00524533 0)
(0.999473 0.00310445 0)
(0.999511 0.00102823 0)
(1.00241 -0.00115448 0)
(1.00248 -0.00354634 0)
(1.00267 -0.00597545 0)
(1.00298 -0.00851822 0)
(1.00339 -0.0111869 0)
(1.00386 -0.014008 0)
(1.00434 -0.016995 0)
(1.00477 -0.0201512 0)
(1.00503 -0.023454 0)
(1.00497 -0.026882 5.70696e-24)
(1.00454 -0.0303002 6.13548e-23)
(1.00343 -0.0336096 3.02035e-22)
(1.00135 -0.0364231 -8.28103e-22)
(0.99857 -0.0381586 1.3138e-21)
(0.993414 -0.0385068 3.56778e-22)
(0.987553 -0.0365589 -1.4991e-21)
(0.981339 -0.0325561 1.03722e-21)
(0.974331 -0.0260009 -1.15012e-21)
(0.96909 -0.0169335 1.19445e-21)
(0.965995 -0.00588782 -3.88907e-22)
(0.965649 0.005898 -3.03796e-22)
(0.967978 0.0169072 -1.85163e-21)
(0.972232 0.0260232 2.72111e-21)
(0.977549 0.0325904 -7.03176e-22)
(0.98304 0.0369688 1.65549e-21)
(0.988497 0.0392964 -1.27298e-21)
(0.993933 0.0393431 -1.49048e-21)
(0.996944 0.0382801 6.32947e-22)
(0.999699 0.035962 3.44959e-22)
(1.0017 0.032874 -1.37978e-22)
(1.00286 0.029445 -2.49596e-24)
(1.0034 0.0258935 0)
(1.00358 0.0223636 0)
(1.00354 0.0189444 0)
(1.00337 0.0156728 0)
(1.00316 0.012555 0)
(1.00295 0.00958404 0)
(1.00279 0.00673937 0)
(1.00271 0.00397649 0)
(1.0027 0.00130669 0)
(1.00585 -0.00138827 0)
(1.00597 -0.00412498 0)
(1.00627 -0.00696963 0)
(1.00674 -0.00990678 0)
(1.00735 -0.0129961 0)
(1.00806 -0.0162977 0)
(1.00882 -0.019844 0)
(1.00953 -0.0236616 0)
(1.01005 -0.0277903 -2.06174e-24)
(1.01031 -0.0322187 3.34056e-23)
(1.01003 -0.0369315 9.14729e-24)
(1.00874 -0.041686 4.0269e-22)
(1.00592 -0.0460508 1.46125e-22)
(1.00021 -0.0499674 4.13972e-22)
(0.993377 -0.0509583 1.63359e-21)
(0.983433 -0.0492032 -1.86705e-21)
(0.971709 -0.044919 8.54428e-22)
(0.960393 -0.0361415 -7.16091e-22)
(0.951029 -0.0220695 8.74809e-22)
(0.94577 -0.00528074 -3.12258e-21)
(0.945388 0.0125204 2.22112e-21)
(0.950104 0.0294392 -3.48402e-21)
(0.958555 0.0434303 4.62158e-21)
(0.969194 0.052215 -2.37571e-21)
(0.979497 0.0561505 3.27655e-21)
(0.988543 0.0576143 -1.68313e-21)
(0.994921 0.0566918 -2.53949e-22)
(1.00135 0.0523604 -3.22073e-22)
(1.00488 0.0478436 -3.96635e-22)
(1.00712 0.042969 -4.09333e-22)
(1.0085 0.03784 1.24351e-22)
(1.00903 0.0327574 1.58013e-23)
(1.00898 0.0279098 0)
(1.00866 0.0233628 0)
(1.0082 0.0191351 0)
(1.00772 0.015203 0)
(1.00728 0.0115334 0)
(1.00694 0.00807345 0)
(1.00671 0.00479089 0)
(1.00663 0.00157313 0)
(1.00973 -0.00147351 0)
(1.00991 -0.0045525 0)
(1.01034 -0.00769447 0)
(1.01101 -0.0109663 0)
(1.01188 -0.0144554 0)
(1.01291 -0.0181992 0)
(1.01405 -0.0222672 0)
(1.01519 -0.0267424 8.37835e-24)
(1.01633 -0.0317699 -9.06028e-24)
(1.01722 -0.0374624 1.43566e-22)
(1.01729 -0.0437654 -2.58271e-23)
(1.01597 -0.0505361 -6.72285e-23)
(1.01248 -0.057754 -3.2387e-22)
(1.0074 -0.0631967 -3.1432e-22)
(0.995685 -0.0690761 1.68981e-21)
(0.981309 -0.0699506 -1.24132e-21)
(0.969165 -0.0599783 -3.09214e-21)
(0.952601 -0.0509744 -1.46817e-21)
(0.936818 -0.0342281 -2.39303e-21)
(0.926483 -0.0108101 2.52331e-21)
(0.924525 0.0155558 3.56973e-21)
(0.931186 0.0397259 3.83289e-21)
(0.943462 0.0584833 3.30967e-22)
(0.95888 0.0699845 -2.42672e-21)
(0.977442 0.0837091 8.25036e-22)
(0.991868 0.082061 -1.99993e-21)
(1.00389 0.0753265 3.61788e-22)
(1.00882 0.0689376 -2.24541e-22)
(1.01299 0.0608495 9.91547e-22)
(1.01527 0.0530348 -5.70745e-22)
(1.01632 0.045851 1.10794e-22)
(1.01649 0.0391572 1.29878e-22)
(1.01601 0.0329381 6.72061e-24)
(1.01514 0.0272513 0)
(1.01417 0.0221098 0)
(1.01324 0.0174528 0)
(1.01243 0.0131868 0)
(1.0118 0.00922328 0)
(1.01138 0.00543175 0)
(1.01119 0.00182535 0)
(1.01393 -0.00167615 0)
(1.01419 -0.00492896 0)
(1.01478 -0.00828073 0)
(1.01568 -0.0118047 0)
(1.01687 -0.0155603 0)
(1.01832 -0.0196414 0)
(1.01996 -0.0241501 0)
(1.02183 -0.0292653 -4.786e-23)
(1.02397 -0.0352143 8.16973e-23)
(1.02577 -0.0421815 -9.63963e-23)
(1.0267 -0.0501418 1.97401e-22)
(1.02627 -0.0589641 -5.04728e-22)
(1.02406 -0.0682759 7.04007e-22)
(1.01391 -0.0774932 3.9756e-22)
(1.00515 -0.0823387 8.41784e-22)
(0.989594 -0.0885107 -7.49585e-22)
(0.963643 -0.0906206 3.53592e-22)
(0.934875 -0.0815551 -1.86827e-21)
(0.904751 -0.0599235 3.17685e-21)
(0.883034 -0.0232836 3.46857e-21)
(0.878109 0.0215809 -1.39046e-21)
(0.891911 0.0628645 2.73768e-21)
(0.917525 0.0919451 -2.73678e-22)
(0.947166 0.106049 2.26876e-21)
(0.973307 0.110172 -3.49642e-22)
(0.994651 0.103892 -2.2678e-21)
(1.00844 0.0940971 2.78827e-21)
(1.02233 0.0846818 -7.3046e-22)
(1.02565 0.0729912 1.42748e-21)
(1.02677 0.0621684 -6.59557e-22)
(1.02667 0.0525329 6.41023e-23)
(1.02584 0.044161 1.17199e-22)
(1.02458 0.0367503 -4.75415e-23)
(1.02289 0.0301103 0)
(1.02113 0.0242041 0)
(1.01955 0.0189521 0)
(1.01822 0.0142138 0)
(1.0172 0.00987864 0)
(1.01652 0.00581394 0)
(1.01621 0.00187616 0)
(1.01836 -0.00160688 0)
(1.0187 -0.00506934 0)
(1.01946 -0.00859781 0)
(1.02064 -0.0123009 0)
(1.02221 -0.0162485 0)
(1.02415 -0.0205745 0)
(1.02647 -0.0254073 -4.67082e-24)
(1.02941 -0.0310144 -2.83461e-23)
(1.03277 -0.037709 8.44688e-23)
(1.03585 -0.0455586 3.56018e-23)
(1.03837 -0.0547248 -6.34425e-23)
(1.03991 -0.0658258 1.46989e-23)
(1.03947 -0.0809562 -5.60168e-23)
(1.02933 -0.0939228 -5.7606e-22)
(1.01986 -0.106294 -8.25759e-22)
(1.00109 -0.122927 5.1906e-22)
(0.971292 -0.129923 6.87169e-22)
(0.925321 -0.131956 -3.41663e-21)
(0.869882 -0.109226 1.80049e-21)
(0.821929 -0.0550474 -9.07484e-22)
(0.80634 0.0233313 1.10091e-21)
(0.831624 0.0952228 -5.02308e-21)
(0.88132 0.139666 -2.15847e-21)
(0.934089 0.155638 -2.78731e-21)
(0.977018 0.150645 -2.1883e-21)
(1.00987 0.13879 -2.40487e-22)
(1.0256 0.120223 -1.10649e-21)
(1.04181 0.101542 -2.13252e-22)
(1.04316 0.0836632 5.40827e-22)
(1.04195 0.0691013 -3.01807e-22)
(1.03968 0.0569703 2.18543e-22)
(1.03701 0.046996 -1.09283e-22)
(1.03436 0.0386366 -1.73794e-22)
(1.03163 0.0313799 -5.40795e-24)
(1.02882 0.0250275 0)
(1.02638 0.0194705 0)
(1.0244 0.014549 0)
(1.0229 0.0100594 0)
(1.02191 0.00595685 0)
(1.02144 0.00197351 0)
(1.0229 -0.00180637 0)
(1.02333 -0.0051715 0)
(1.02428 -0.00870193 0)
(1.02575 -0.0123958 0)
(1.02774 -0.0163977 0)
(1.03027 -0.020788 0)
(1.03345 -0.0257535 5.54671e-24)
(1.03763 -0.0315843 -3.88469e-24)
(1.04227 -0.0384511 -2.48842e-23)
(1.04702 -0.0465097 7.09415e-23)
(1.05191 -0.0562448 8.04584e-23)
(1.0569 -0.0685641 -1.38937e-22)
(1.06155 -0.0863447 5.46622e-23)
(1.05713 -0.105774 -6.17706e-23)
(1.05139 -0.127841 2.108e-23)
(1.03067 -0.160234 -2.80754e-22)
(0.997052 -0.188209 1.09886e-23)
(0.934523 -0.219257 -5.24022e-22)
(0.829832 -0.221882 -9.29679e-23)
(0.705369 -0.145465 -2.51357e-21)
(0.649766 0.0190112 1.74251e-22)
(0.716972 0.175789 -3.07367e-22)
(0.838947 0.242229 2.40937e-22)
(0.937153 0.238165 4.10902e-22)
(1.00413 0.210089 6.23427e-23)
(1.04511 0.175685 5.34576e-22)
(1.05754 0.141522 -9.82471e-22)
(1.06999 0.112291 1.63027e-22)
(1.06617 0.089418 -6.70915e-22)
(1.06083 0.0720069 4.5852e-22)
(1.05517 0.0581429 -2.51911e-24)
(1.04972 0.0469517 -9.37789e-23)
(1.04494 0.0380131 1.03195e-22)
(1.04082 0.030636 -4.81374e-23)
(1.03682 0.0242824 0)
(1.03339 0.0188165 0)
(1.03065 0.014035 0)
(1.02861 0.00975642 0)
(1.02724 0.00566514 0)
(1.0266 0.00193357 0)
(1.02742 -0.00159936 0)
(1.02794 -0.00501457 0)
(1.02909 -0.00847968 0)
(1.03088 -0.0121065 0)
(1.03332 -0.0160098 0)
(1.03646 -0.0202655 0)
(1.0406 -0.0250851 -1.45562e-23)
(1.0459 -0.0306704 1.86034e-23)
(1.0517 -0.0369485 -3.65252e-23)
(1.05828 -0.0441517 7.96547e-23)
(1.06621 -0.0532685 -1.50013e-22)
(1.07597 -0.0650079 -2.14535e-23)
(1.08725 -0.080001 -4.52034e-24)
(1.09296 -0.104784 4.44064e-22)
(1.09997 -0.135913 2.06498e-22)
(1.09952 -0.183769 -2.70333e-22)
(1.08206 -0.250086 -1.42592e-22)
(1.02778 -0.355204 -7.56398e-24)
(0.858092 -0.475916 -1.43202e-21)
(0.474912 -0.462853 -6.31701e-20)
(0.187153 0.0228302 1.01523e-20)
(0.502969 0.476067 -4.3605e-20)
(0.859657 0.472946 2.26522e-21)
(1.01932 0.358635 -7.4068e-23)
(1.07995 0.265443 4.86848e-23)
(1.10427 0.196503 1.33134e-22)
(1.1027 0.152619 9.35242e-23)
(1.10404 0.109776 -1.32198e-24)
(1.09341 0.0872994 -1.88671e-23)
(1.08265 0.0692818 3.1335e-23)
(1.07238 0.0547631 -1.22297e-22)
(1.06331 0.0433167 1.15537e-22)
(1.05574 0.0344652 -3.8884e-23)
(1.04976 0.0275016 1.26457e-23)
(1.04449 0.0216818 0)
(1.03996 0.0166856 0)
(1.03641 0.012344 0)
(1.03383 0.0085047 0)
(1.03218 0.00504503 0)
(1.03136 0.00154542 0)
(1.03177 -0.00150721 0)
(1.0324 -0.00472272 0)
(1.03375 -0.00792493 0)
(1.03585 -0.0113747 0)
(1.03873 -0.0150193 0)
(1.04245 -0.0189594 0)
(1.0474 -0.0232988 1.42982e-23)
(1.05341 -0.0280402 3.06244e-23)
(1.06004 -0.0329529 4.57625e-23)
(1.06819 -0.0382541 5.68541e-23)
(1.07878 -0.0446568 1.31299e-22)
(1.09303 -0.0526622 2.16853e-22)
(1.11244 -0.0629408 -5.05274e-22)
(1.1259 -0.0856002 -1.40781e-22)
(1.15559 -0.112388 -1.84601e-22)
(1.18396 -0.162733 -5.38977e-22)
(1.22273 -0.241777 -6.17495e-23)
(1.28028 -0.393262 1.68193e-21)
(0.992739 -0.542177 -1.06358e-19)
(1.02884 0.534218 4.49983e-20)
(1.23142 0.394573 -4.76207e-23)
(1.19684 0.261307 -1.91341e-22)
(1.17682 0.181218 -2.38725e-23)
(1.1551 0.141908 1.44384e-23)
(1.14049 0.0948344 6.51583e-23)
(1.12199 0.0755068 -5.67432e-23)
(1.10493 0.0590446 -3.99879e-23)
(1.08962 0.0458841 1.88409e-24)
(1.07665 0.0356918 4.87341e-24)
(1.06604 0.027932 1.64022e-23)
(1.05787 0.0220329 2.20936e-23)
(1.05134 0.0173475 0)
(1.04586 0.0133944 0)
(1.04163 0.00998448 0)
(1.03849 0.0069035 0)
(1.03643 0.00409209 0)
(1.03543 0.00144679 0)
(1.03585 -0.0016531 0)
(1.03663 -0.00438366 0)
(1.0382 -0.00734442 0)
(1.04055 -0.0103254 0)
(1.04377 -0.0134942 0)
(1.04793 -0.0168987 0)
(1.0533 -0.0204927 -8.95598e-24)
(1.05938 -0.0239221 1.34742e-24)
(1.06611 -0.0268921 -2.82369e-25)
(1.07494 -0.0295313 3.64091e-23)
(1.08667 -0.0319997 -4.35318e-23)
(1.10272 -0.0341866 5.18591e-23)
(1.12556 -0.0356007 3.34725e-22)
(1.14941 -0.0492235 2.85546e-22)
(1.19313 -0.0582846 4.11302e-21)
(1.24554 -0.0855866 -4.43603e-22)
(1.32913 -0.12338 -1.3175e-22)
(1.46609 -0.167457 2.81644e-21)
(0.0241996 -0.0124836 6.56417e-19)
(0.0274309 -0.019361 -1.12997e-19)
(1.36868 0.24814 -2.08784e-22)
(1.28952 0.19074 -5.5827e-23)
(1.23941 0.13536 8.32014e-22)
(1.20187 0.105798 1.37504e-21)
(1.17233 0.0666951 8.74881e-23)
(1.14653 0.053041 4.40174e-23)
(1.12411 0.0411085 -3.3652e-23)
(1.10459 0.0316415 -1.10427e-23)
(1.08816 0.0242338 1.84361e-24)
(1.07466 0.0185693 2.68363e-24)
(1.06428 0.0144354 -2.95808e-25)
(1.05646 0.0113855 0)
(1.05021 0.00886537 0)
(1.04543 0.00665874 0)
(1.04193 0.00464762 0)
(1.03956 0.00272433 0)
(1.03834 0.000879363 0)
(1.03964 -0.00100289 -3.17994e-25)
(1.04042 -0.00359908 0)
(1.04209 -0.00612358 0)
(1.04466 -0.00870647 0)
(1.04818 -0.0114345 0)
(1.05264 -0.0142823 0)
(1.0579 -0.017004 3.08215e-24)
(1.0633 -0.0189975 -3.48474e-23)
(1.06933 -0.0200317 3.17072e-23)
(1.07756 -0.0200696 -1.63057e-22)
(1.08889 -0.0186976 1.24625e-22)
(1.10414 -0.015179 4.19379e-22)
(1.12543 -0.00646319 -4.38434e-22)
(1.15183 -0.00643285 -1.65912e-22)
(1.19344 0.00494295 -4.26204e-22)
(1.25152 0.0105817 -7.24931e-22)
(1.33735 0.0206651 1.51676e-21)
(1.41024 0.0507117 -2.83975e-22)
(0.249972 0.0181139 4.14036e-22)
(0.0343638 0.023373 1.07527e-20)
(1.31736 0.11575 3.10546e-22)
(1.33028 0.107826 -4.09411e-22)
(1.27686 0.0745637 3.24083e-22)
(1.23349 0.0563586 -1.8876e-22)
(1.19245 0.0282904 -8.81471e-23)
(1.16257 0.0226336 -7.97396e-24)
(1.13689 0.0173052 3.29892e-22)
(1.11485 0.0131503 -7.46026e-23)
(1.09616 0.00976095 2.16334e-23)
(1.08057 0.0071483 4.29086e-24)
(1.06836 0.0053912 -4.26065e-24)
(1.05944 0.00435709 0)
(1.05274 0.00356079 0)
(1.04767 0.00276962 0)
(1.04407 0.00200059 0)
(1.04179 0.00119798 0)
(1.04072 0.0004483 0)
(1.04282 -0.000866188 -7.5139e-28)
(1.04373 -0.00283148 0)
(1.04553 -0.00481105 0)
(1.04829 -0.00696159 0)
(1.05199 -0.00914715 0)
(1.05654 -0.01138 0)
(1.06105 -0.013224 9.18886e-25)
(1.06527 -0.0141283 1.31994e-23)
(1.07008 -0.0138649 2.25665e-23)
(1.07676 -0.0121669 1.70679e-22)
(1.08526 -0.00834698 -2.45448e-22)
(1.09512 -0.00134655 -2.37503e-22)
(1.10745 0.0111191 6.38461e-22)
(1.12824 0.0266174 -2.0339e-21)
(1.15593 0.0530481 -7.654e-22)
(1.20041 0.0924871 -1.21092e-21)
(1.27122 0.148441 -9.78075e-22)
(1.3323 0.238501 3.30128e-22)
(0.59061 0.165081 -1.03523e-21)
(-0.0177338 0.0388502 -1.1003e-21)
(-0.240776 0.164829 1.12266e-22)
(-0.0536073 0.311194 -5.27958e-22)
(0.204767 0.142228 9.06376e-22)
(1.26205 0.0571027 -2.0224e-21)
(1.35576 0.0329589 3.10108e-21)
(1.2965 0.00668065 -1.17351e-21)
(1.24711 -0.00013501 -6.86955e-22)
(1.1988 -0.0154204 6.14195e-22)
(1.1673 -0.0120203 -5.0593e-22)
(1.14074 -0.00985031 1.31245e-22)
(1.11808 -0.00774781 1.25013e-23)
(1.09881 -0.00637996 9.517e-23)
(1.08261 -0.00536352 4.01746e-23)
(1.0695 -0.0042978 1.53477e-24)
(1.05995 -0.00300241 0)
(1.05324 -0.00197009 0)
(1.04828 -0.00131223 0)
(1.04476 -0.000873911 0)
(1.04252 -0.000601144 0)
(1.04125 -0.000340223 0)
(1.04564 -0.00105687 -3.34529e-23)
(1.04661 -0.0023253 0)
(1.04858 -0.00376411 0)
(1.0514 -0.00523771 0)
(1.05507 -0.00673129 0)
(1.05943 -0.00828795 0)
(1.06309 -0.00950084 -6.14073e-25)
(1.06596 -0.009929 -2.99583e-23)
(1.06933 -0.00954352 -7.58717e-23)
(1.07328 -0.00798262 3.16442e-22)
(1.07767 -0.00527756 -4.65817e-22)
(1.08155 -0.000634241 5.97121e-22)
(1.08443 0.00847936 -4.27323e-22)
(1.09407 0.0294637 -8.66603e-22)
(1.09416 0.0621403 -4.04596e-22)
(1.09006 0.129309 9.86427e-22)
(1.11187 0.22361 -3.8522e-21)
(1.08527 0.406645 1.65079e-21)
(0.642437 0.605464 -2.38665e-21)
(-0.125581 0.71023 -8.21664e-21)
(-0.319566 0.682225 7.96452e-22)
(0.150792 0.490199 6.81682e-21)
(0.650359 0.198808 -2.15758e-21)
(1.37323 -0.0282217 3.25641e-21)
(1.37971 -0.0636718 3.67135e-21)
(1.29887 -0.075266 1.51608e-21)
(1.24253 -0.0617237 -1.39225e-21)
(1.1889 -0.0611987 1.34496e-21)
(1.15878 -0.0471791 -1.35128e-21)
(1.13402 -0.0368842 4.74187e-22)
(1.11296 -0.0283614 -3.81668e-22)
(1.09495 -0.0220236 1.56702e-22)
(1.07957 -0.0171721 -1.32996e-23)
(1.06668 -0.0131404 -4.1923e-25)
(1.05755 -0.00961733 0)
(1.05143 -0.00687895 0)
(1.04693 -0.00481992 0)
(1.0437 -0.00318124 0)
(1.04163 -0.00174188 0)
(1.04058 -0.000534268 3.15004e-23)
(1.04787 -0.000307908 1.22453e-23)
(1.04872 -0.00129913 0)
(1.05046 -0.00220901 0)
(1.05322 -0.00307627 0)
(1.05694 -0.00394416 0)
(1.06121 -0.00490448 0)
(1.06445 -0.00586399 0)
(1.0662 -0.00652671 -2.28127e-24)
(1.06872 -0.00715412 -2.20349e-23)
(1.07206 -0.00837063 2.21209e-23)
(1.07452 -0.00960236 6.57841e-24)
(1.07468 -0.010412 -7.07914e-23)
(1.07006 -0.0104955 -2.49705e-22)
(1.05098 -0.00888553 1.38026e-22)
(1.035 0.0261585 -1.06317e-22)
(0.98812 0.0650919 -1.35069e-22)
(0.9311 0.157817 7.04815e-22)
(0.780601 0.306093 2.11812e-20)
(0.311565 0.587703 7.12228e-21)
(-0.178708 0.710594 9.84832e-21)
(-0.00266563 0.520392 -1.15071e-20)
(0.578871 0.201338 1.77981e-20)
(1.06072 -0.0891381 5.97021e-21)
(1.4537 -0.234851 4.40411e-21)
(1.3422 -0.208366 -1.75465e-21)
(1.26842 -0.164697 -2.54326e-21)
(1.19539 -0.133164 -9.35263e-22)
(1.16099 -0.101883 1.25571e-21)
(1.13639 -0.0773425 -7.48653e-22)
(1.11643 -0.059363 1.08264e-22)
(1.09948 -0.0450106 -6.01564e-23)
(1.08471 -0.0342976 3.70792e-23)
(1.07153 -0.0260619 -1.61782e-23)
(1.06015 -0.0196062 0)
(1.05242 -0.0144596 0)
(1.04753 -0.0104695 0)
(1.04394 -0.00733501 0)
(1.04134 -0.00478788 0)
(1.03962 -0.0026229 0)
(1.03879 -0.000760425 -3.89516e-24)
(1.04812 0.000118735 -1.51841e-24)
(1.04928 -2.24295e-05 0)
(1.05115 -0.000182824 0)
(1.05397 -0.000469172 0)
(1.05779 -0.000790175 0)
(1.0622 -0.00122514 0)
(1.06567 -0.00203464 0)
(1.06768 -0.00345473 0)
(1.07067 -0.00577695 4.13057e-24)
(1.07469 -0.00955541 -3.92726e-24)
(1.0784 -0.0152036 -2.60762e-23)
(1.07984 -0.0235256 1.06563e-22)
(1.07551 -0.0344014 1.14884e-22)
(1.05795 -0.0580205 -8.3949e-23)
(1.01844 -0.0506198 -3.22163e-22)
(0.943757 -0.062212 5.55535e-22)
(0.823901 -0.027768 1.8929e-21)
(0.472514 0.126251 9.10252e-22)
(0.093041 0.248408 3.39231e-21)
(0.039372 0.100888 -8.07344e-21)
(0.412344 -0.190399 3.21533e-21)
(0.920414 -0.420658 -5.23598e-21)
(1.29645 -0.511268 -8.53643e-21)
(1.34556 -0.43674 8.21292e-21)
(1.24352 -0.31335 2.37716e-22)
(1.19694 -0.238715 -2.26244e-21)
(1.1355 -0.17292 1.00519e-22)
(1.11655 -0.128558 -3.92917e-22)
(1.1023 -0.0970015 2.62706e-22)
(1.0903 -0.0732422 3.13582e-23)
(1.07972 -0.0546212 -2.05274e-23)
(1.0698 -0.0408868 -6.95736e-24)
(1.0601 -0.030496 0)
(1.05129 -0.0226998 0)
(1.04559 -0.0167717 0)
(1.04222 -0.0122272 0)
(1.03977 -0.00860328 -1.50582e-23)
(1.03797 -0.0056702 -2.08246e-23)
(1.03681 -0.00315396 -1.24179e-23)
(1.03634 -0.00101065 0)
(1.04755 0.00030513 0)
(1.04879 0.00106136 0)
(1.05086 0.00180547 0)
(1.05383 0.00234373 0)
(1.05778 0.00273824 0)
(1.06251 0.00296241 0)
(1.06685 0.00259551 0)
(1.07028 0.000895228 0)
(1.07507 -0.00242142 -7.49498e-26)
(1.08182 -0.00782175 1.35323e-23)
(1.08979 -0.0161987 -3.01101e-23)
(1.09849 -0.0300046 1.5124e-24)
(1.10486 -0.049713 1.47909e-22)
(1.10313 -0.0841464 -1.99079e-22)
(1.0636 -0.120156 -1.8062e-21)
(1.00629 -0.189498 -3.74893e-22)
(0.744623 -0.210344 -3.0197e-21)
(0.347932 -0.159065 -1.99531e-21)
(0.314951 -0.317122 -5.15773e-22)
(0.437207 -0.584848 1.6891e-22)
(0.709897 -0.788557 9.5361e-22)
(0.972886 -0.823334 7.9188e-22)
(1.10965 -0.681459 1.57311e-21)
(1.13021 -0.482862 1.7286e-22)
(1.10984 -0.351538 6.44443e-22)
(1.09479 -0.266085 1.46874e-21)
(1.06288 -0.183144 -2.29292e-22)
(1.06252 -0.135516 2.89364e-22)
(1.06071 -0.102147 -2.16412e-22)
(1.05883 -0.0761266 -1.08002e-23)
(1.05608 -0.0561204 2.34915e-24)
(1.0521 -0.0413476 1.50766e-26)
(1.04685 -0.0302352 0)
(1.04153 -0.0221104 0)
(1.03821 -0.0163413 0)
(1.03646 -0.0120068 0)
(1.03518 -0.00850995 0)
(1.03422 -0.00569615 0)
(1.03361 -0.00327794 0)
(1.03338 -0.00106786 2.23648e-24)
(1.04627 0.000616216 0)
(1.0474 0.00206869 0)
(1.04947 0.0035855 0)
(1.05251 0.00506794 0)
(1.05663 0.00646186 0)
(1.06182 0.00774968 0)
(1.06749 0.00856029 0)
(1.07328 0.00788018 0)
(1.08098 0.00529445 0)
(1.09159 0.000610716 0)
(1.10557 -0.00679257 6.46082e-24)
(1.12388 -0.0193767 5.69484e-23)
(1.14684 -0.039487 -2.51028e-22)
(1.17092 -0.0669931 4.01484e-22)
(1.1649 -0.12915 -6.03789e-21)
(1.13879 -0.223017 1.8307e-22)
(0.775802 -0.318795 -1.39808e-21)
(0.537798 -0.494934 3.31204e-22)
(0.566425 -0.643811 -1.71955e-21)
(0.646397 -0.728642 -5.99151e-21)
(0.750694 -0.730076 2.79352e-21)
(0.83936 -0.653465 8.1616e-22)
(0.892818 -0.547138 9.84807e-22)
(0.947065 -0.453608 -1.97253e-21)
(0.973454 -0.336048 3.19973e-21)
(0.988883 -0.245909 -4.88381e-22)
(0.991059 -0.16538 -2.51961e-23)
(1.00734 -0.120429 -4.58806e-24)
(1.01879 -0.0904073 2.48765e-23)
(1.02681 -0.0666083 -6.50652e-24)
(1.03162 -0.0486198 0)
(1.03355 -0.0351192 0)
(1.03325 -0.0249463 0)
(1.03202 -0.0178564 0)
(1.03138 -0.0132185 0)
(1.03119 -0.00982118 0)
(1.03093 -0.00707443 0)
(1.03063 -0.00482797 0)
(1.03042 -0.0028531 0)
(1.03041 -0.000940134 0)
(1.04402 0.0010115 0)
(1.04496 0.00313863 0)
(1.04686 0.00537307 0)
(1.04981 0.00774706 0)
(1.05392 0.0102732 0)
(1.05938 0.0129913 0)
(1.06618 0.0157401 0)
(1.07425 0.017603 0)
(1.08467 0.01809 0)
(1.09849 0.0172519 0)
(1.11713 0.0152731 0)
(1.14244 0.0112943 1.00882e-24)
(1.17798 0.00214155 2.00381e-23)
(1.22495 -0.00426773 1.18527e-23)
(1.26414 -0.0576355 -1.97187e-21)
(1.2936 -0.128391 1.48106e-21)
(1.0433 -0.282684 -7.52322e-22)
(0.800052 -0.509645 -2.22278e-21)
(0.691568 -0.675245 -1.41193e-21)
(0.654855 -0.738633 -1.89541e-21)
(0.657359 -0.710352 9.282e-22)
(0.697323 -0.614494 7.89654e-22)
(0.766627 -0.496573 -1.55811e-21)
(0.835631 -0.386561 8.33254e-22)
(0.840675 -0.267374 -3.40102e-22)
(0.89693 -0.190632 -4.48744e-22)
(0.929795 -0.116395 1.99649e-22)
(0.96047 -0.0826896 5.31012e-24)
(0.984196 -0.0608397 -1.46729e-24)
(1.00042 -0.0440296 0)
(1.0114 -0.0314266 0)
(1.01826 -0.0219497 0)
(1.02231 -0.0149487 0)
(1.02481 -0.0104625 0)
(1.02653 -0.00783566 0)
(1.02749 -0.00595108 0)
(1.02785 -0.00438839 0)
(1.02792 -0.00302985 0)
(1.02788 -0.00179522 0)
(1.02789 -0.000600905 0)
(1.04065 0.00133004 0)
(1.04143 0.00405179 0)
(1.04307 0.0069543 0)
(1.04567 0.0101568 0)
(1.04938 0.0138156 0)
(1.05445 0.0180542 0)
(1.06136 0.0229508 0)
(1.07037 0.0280142 0)
(1.08191 0.0329564 0)
(1.09661 0.0380479 0)
(1.11594 0.0442249 8.80827e-23)
(1.14223 0.0525546 0)
(1.17814 0.0614528 0)
(1.23107 0.0789887 -8.67325e-22)
(1.32022 0.101642 -1.24964e-21)
(1.38245 0.0671476 -2.82854e-21)
(1.29299 0.00228184 -3.43616e-22)
(1.10316 -0.161272 3.77835e-22)
(0.905598 -0.336966 2.7324e-22)
(0.739849 -0.460956 3.07411e-20)
(0.59363 -0.506264 2.87962e-21)
(0.533667 -0.469932 1.6869e-21)
(0.559303 -0.373886 6.10227e-22)
(0.634474 -0.247943 -1.54752e-22)
(0.732006 -0.144225 -1.2025e-23)
(0.840882 -0.0661987 6.22907e-21)
(0.892535 -0.0389764 -1.06103e-21)
(0.932752 -0.0251249 0)
(0.964528 -0.0164653 0)
(0.986063 -0.0112166 3.97395e-24)
(1.00055 -0.00731936 0)
(1.01028 -0.00441863 0)
(1.01697 -0.0024311 0)
(1.02172 -0.00158626 0)
(1.02471 -0.00143776 0)
(1.02609 -0.00134073 0)
(1.02662 -0.00113623 0)
(1.02675 -0.000844576 2.47832e-24)
(1.02673 -0.000514497 1.77797e-24)
(1.02671 -0.000146739 0)
(1.03654 0.00142846 0)
(1.03714 0.00459001 0)
(1.03835 0.00800719 0)
(1.04029 0.0119126 0)
(1.04307 0.0164998 0)
(1.04701 0.0219683 0)
(1.05286 0.0285453 0)
(1.0611 0.0361672 0)
(1.07155 0.0450366 0)
(1.08412 0.0556965 0)
(1.09971 0.0696042 -3.86023e-23)
(1.12026 0.0886384 0)
(1.14634 0.114125 0)
(1.18437 0.149827 -3.4198e-22)
(1.24588 0.208618 -2.58634e-21)
(1.32306 0.298551 6.55094e-22)
(1.32009 0.382524 0)
(1.21628 0.423423 -1.79531e-21)
(1.04722 0.410431 1.40627e-20)
(0.853158 0.385663 5.0072e-20)
(0.670112 0.311082 2.97738e-21)
(0.565903 0.22776 -3.96798e-21)
(0.54629 0.136827 -1.96662e-23)
(0.58384 0.0655571 0)
(0.683957 0.0333778 -5.15032e-21)
(0.795045 0.0555436 -1.03702e-20)
(0.876966 0.0538505 -2.22319e-21)
(0.930326 0.0453144 0)
(0.966181 0.0345488 0)
(0.987957 0.0245184 1.71676e-22)
(1.00199 0.0177317 0)
(1.01143 0.013087 0)
(1.0182 0.00960229 0)
(1.02318 0.00674965 0)
(1.02601 0.00445123 0)
(1.02695 0.00278691 -4.48362e-24)
(1.0271 0.0016629 5.8264e-24)
(1.02702 0.000938215 0)
(1.02691 0.000445918 0)
(1.02684 0.000126617 1.36918e-23)
(1.03223 0.00152514 0)
(1.03241 0.0048559 0)
(1.03297 0.00850766 0)
(1.03401 0.0127201 0)
(1.03558 0.0176751 0)
(1.03796 0.02365 0)
(1.042 0.0309762 2.20464e-24)
(1.04819 0.0398461 0)
(1.05565 0.0509101 0)
(1.06366 0.064958 0)
(1.0725 0.0836149 0)
(1.08295 0.108511 0)
(1.09478 0.142627 0)
(1.1104 0.187243 -3.36841e-22)
(1.12808 0.2504 7.0624e-24)
(1.15795 0.343491 -4.31116e-23)
(1.16527 0.45887 0)
(1.11551 0.55483 0)
(1.01489 0.605538 9.04841e-22)
(0.889592 0.619326 -2.15349e-20)
(0.769894 0.58185 2.05117e-20)
(0.716945 0.512221 -2.90366e-21)
(0.711104 0.419088 0)
(0.723587 0.31814 0)
(0.742273 0.222119 0)
(0.805073 0.189714 6.67093e-23)
(0.893344 0.153726 8.99138e-21)
(0.96306 0.113078 1.74942e-22)
(0.99434 0.0799153 0)
(1.00814 0.0543953 0)
(1.0162 0.0377755 0)
(1.02136 0.026413 0)
(1.02535 0.0183897 -1.96755e-23)
(1.02856 0.0126197 -8.06304e-24)
(1.02999 0.00843235 -4.06207e-25)
(1.02975 0.00546763 0)
(1.029 0.00339782 0)
(1.02832 0.00195721 0)
(1.02782 0.000939812 0)
(1.02747 0.000213431 0)
(1.02775 0.0017001 0)
(1.02753 0.00483604 0)
(1.02749 0.00828746 0)
(1.0277 0.0121652 0)
(1.02806 0.016728 0)
(1.02878 0.0222766 0)
(1.0307 0.0292636 0)
(1.0341 0.0380872 0)
(1.03755 0.0495118 -1.3814e-25)
(1.03991 0.0643605 0)
(1.04113 0.0839909 0)
(1.04089 0.109759 0)
(1.03855 0.143638 -4.52112e-22)
(1.0359 0.187285 -2.0762e-21)
(1.02925 0.239945 0)
(1.02103 0.306273 0)
(1.01256 0.392699 0)
(0.98649 0.480031 0)
(0.930713 0.549859 -9.59142e-21)
(0.864941 0.592691 -2.15171e-20)
(0.8072 0.595409 2.75898e-21)
(0.797419 0.562556 -1.91741e-21)
(0.807856 0.515827 0)
(0.839133 0.452312 0)
(0.845817 0.366349 0)
(0.885153 0.288784 0)
(0.970878 0.212252 -1.5185e-21)
(1.03207 0.147997 -8.18126e-22)
(1.04569 0.102142 0)
(1.04361 0.0687609 5.63866e-25)
(1.04031 0.0470929 5.19611e-24)
(1.03772 0.0320762 2.85211e-24)
(1.03665 0.0216886 0)
(1.03655 0.0144598 0)
(1.03559 0.00948133 0)
(1.03364 0.00609753 0)
(1.03169 0.00378682 0)
(1.03019 0.00220612 0)
(1.0291 0.0011142 0)
(1.02833 0.000317674 0)
(1.02338 0.00143606 0)
(1.02315 0.00405646 0)
(1.02283 0.00680254 0)
(1.0224 0.00979239 0)
(1.02171 0.013323 0)
(1.02085 0.0176415 0)
(1.02047 0.023281 0)
(1.02071 0.0308922 0)
(1.01995 0.0411279 0)
(1.01681 0.0546445 0)
(1.01086 0.072393 3.06275e-23)
(1.00144 0.095961 -8.66902e-23)
(0.987985 0.125922 6.46165e-24)
(0.975217 0.164884 2.11485e-21)
(0.959752 0.213364 0)
(0.932739 0.26881 0)
(0.905893 0.338362 0)
(0.8767 0.417832 0)
(0.839983 0.488998 4.32915e-21)
(0.812658 0.552596 -2.96477e-21)
(0.801894 0.567594 5.75831e-21)
(0.820619 0.553182 -2.44727e-20)
(0.849905 0.520216 0)
(0.908437 0.468229 0)
(0.954876 0.390323 0)
(1.01227 0.296236 0)
(1.08589 0.199759 2.58993e-22)
(1.1178 0.132651 1.98353e-21)