/*--------------------------------*- C++ -*----------------------------------*\
| =========                 |                                                 |
| \\      /  F ield         | OpenFOAM: The Open Source CFD Toolbox           |
|  \\    /   O peration     | Version:  v2106                                 |
|   \\  /    A nd           | Website:  www.openfoam.com                      |
|    \\/     M anipulation  |                                                 |
\*---------------------------------------------------------------------------*/
FoamFile
{
    version     2.0;
    format      ascii;
    arch        "LSB;label=32;scalar=64";
    class       volScalarField;
    location    "0";
    object      p;
}
// * * * * * * * * * * * * * * * * * * * * * * * * * * * * * * * * * * * * * //

dimensions      [0 2 -2 0 0 0 0];

internalField   nonuniform List<scalar> 
11644
(
0.029596
0.0300337
0.0309634
0.0324101
0.0343785
0.0368872
0.0399629
0.0436308
0.0479084
0.0527998
0.058294
0.0643388
0.0708514
0.0777221
0.0847648
0.0917902
0.0985367
0.104714
0.110097
0.114479
0.117636
0.119432
0.119944
0.119429
0.117909
0.11547
0.112425
0.108998
0.105367
0.101727
0.0982047
0.094895
0.0918717
0.089181
0.0868527
0.0849039
0.0833426
0.0821778
0.0814193
0.0810596
0.0288574
0.0292878
0.0301769
0.0315535
0.0334454
0.03588
0.0388858
0.0424943
0.0467336
0.0516238
0.0571635
0.0633313
0.0700737
0.0772387
0.0846929
0.0921806
0.099409
0.106092
0.111909
0.116531
0.119714
0.121432
0.121772
0.120929
0.119056
0.116321
0.112936
0.109186
0.105303
0.101449
0.0977635
0.0943452
0.0912523
0.0885243
0.0861829
0.0842385
0.0826975
0.0815585
0.0808169
0.0804585
0.027157
0.0275927
0.0284541
0.0297574
0.0315414
0.0338474
0.0367197
0.0402058
0.0443583
0.0492234
0.0548445
0.0612474
0.0683991
0.0762328
0.0845438
0.0930613
0.101455
0.109282
0.115957
0.121099
0.124513
0.126189
0.126102
0.124487
0.121687
0.118064
0.113917
0.109495
0.105054
0.100784
0.0968005
0.0931799
0.0899647
0.087171
0.0848045
0.0828596
0.0813279
0.0801947
0.0794416
0.0790599
0.0245926
0.0249999
0.025804
0.0270108
0.0286548
0.0307851
0.0334609
0.0367535
0.0407456
0.0455373
0.0512322
0.0579204
0.0656822
0.0744467
0.0841459
0.0943589
0.104549
0.114284
0.122544
0.128789
0.132634
0.133976
0.132922
0.129955
0.125716
0.120635
0.115191
0.109742
0.104491
0.0996114
0.0952112
0.0913217
0.0879487
0.0850782
0.0826818
0.0807328
0.0792026
0.0780652
0.077302
0.0769122
0.0212682
0.021621
0.0223179
0.0233709
0.0248136
0.0266952
0.0290858
0.0320787
0.0357932
0.0403825
0.0460329
0.0529902
0.0614578
0.0716173
0.0833328
0.0960735
0.108895
0.121702
0.132573
0.140534
0.144903
0.145411
0.14263
0.137264
0.130653
0.123409
0.116212
0.109394
0.103191
0.0976319
0.0927585
0.0885936
0.0850804
0.0821501
0.0797437
0.0778077
0.0762979
0.0751808
0.0744355
0.0740603
0.0173144
0.0175773
0.0181138
0.0189383
0.0200845
0.0216043
0.0235734
0.0260971
0.029322
0.0334843
0.0389313
0.0460522
0.0552625
0.0666937
0.0808392
0.0973312
0.114356
0.131837
0.147085
0.158146
0.163247
0.161929
0.155721
0.146196
0.135794
0.12536
0.115666
0.107364
0.10026
0.0942268
0.0890703
0.0847349
0.0811629
0.0782539
0.0759069
0.0740442
0.0726078
0.0715575
0.0708641
0.0705151
0.0128476
0.0130138
0.0133429
0.013858
0.0145921
0.0155992
0.016953
0.0187625
0.0212085
0.0246568
0.0295507
0.0363573
0.0454681
0.0581465
0.0749919
0.0958211
0.114027
0.136378
0.157949
0.174966
0.183341
0.181944
0.172587
0.158711
0.139904
0.125006
0.112309
0.102414
0.0947276
0.0885852
0.0835755
0.0794171
0.0759962
0.0732636
0.0711056
0.0694224
0.0681439
0.0672175
0.0666168
0.0663175
0.00805746
0.00809055
0.00816856
0.00829918
0.00851113
0.00884238
0.00935935
0.010163
0.0114866
0.0137398
0.0172921
0.022666
0.0309337
0.0433222
0.0601158
0.0818624
0.112408
0.148135
0.183946
0.212349
0.224394
0.217688
0.197278
0.17169
0.14705
0.124938
0.10977
0.0933729
0.0856715
0.0800385
0.0757185
0.0722525
0.0693833
0.0670844
0.0653087
0.0639515
0.0629401
0.0622248
0.0617586
0.0615336
0.00314368
0.00303914
0.00282929
0.00251155
0.00209992
0.00160749
0.00107889
0.000576957
0.000340845
0.000677587
0.00186503
0.00429495
0.00864905
0.022919
0.0373479
0.0620496
0.0961585
0.145288
0.205454
0.259014
0.283938
0.269114
0.228246
0.183682
0.144831
0.114278
0.0967741
0.0783372
0.072365
0.0683145
0.0653487
0.0630743
0.0612234
0.0597187
0.0585774
0.0577282
0.0571029
0.0566619
0.0563784
0.0562291
-0.00163753
-0.00187327
-0.0023931
-0.00318917
-0.00429032
-0.00571055
-0.00746438
-0.00953913
-0.011808
-0.0142101
-0.0166211
-0.01887
-0.0209928
-0.0112705
-0.00447182
0.0172927
0.0526302
0.11423
0.213936
0.334424
0.397135
0.351011
0.253249
0.173101
0.117416
0.0823948
0.0700279
0.0562757
0.0545645
0.0534366
0.0526456
0.0521095
0.0516976
0.0513256
0.0510581
0.050887
0.0507766
0.0506949
0.0506458
0.050618
-0.00591684
-0.00634133
-0.00717514
-0.00846853
-0.0102611
-0.0126208
-0.0156715
-0.0194788
-0.0240939
-0.0297939
-0.0368125
-0.0454222
-0.0559372
-0.0573188
-0.0664825
-0.0672294
-0.0579431
-0.028825
0.0862875
0.359452
0.588954
0.397965
0.171681
0.0730813
0.0384005
0.0268878
0.0306358
0.028429
0.0327867
0.035874
0.0381702
0.0399479
0.0412997
0.0422865
0.0430718
0.0437071
0.0441958
0.0445513
0.0447671
0.0448649
-0.00953537
-0.0100712
-0.0111799
-0.0129131
-0.0153323
-0.0185532
-0.0227863
-0.0282304
-0.0351367
-0.0440723
-0.0557282
-0.0712117
-0.0917511
-0.102337
-0.138076
-0.169968
-0.229591
-0.351042
-0.656183
-0.365261
-0.156937
-0.0773857
-0.0396691
-0.014602
-0.00172418
0.00939478
0.0173378
0.0232021
0.0275327
0.0307589
0.0331836
0.0350755
0.0365538
0.0376464
0.0384319
0.0389469
0.0392167
-0.0121904
-0.0128367
-0.0141714
-0.0162106
-0.0190912
-0.0229372
-0.0279928
-0.0346036
-0.0431936
-0.054483
-0.0694518
-0.089733
-0.116876
-0.140395
-0.192003
-0.251302
-0.35572
-0.558126
-0.805524
-0.419095
-0.291161
-0.160403
-0.0912892
-0.0521904
-0.0266043
-0.0106548
0.00101386
0.00968558
0.0161152
0.0209816
0.0247093
0.0275954
0.0298192
0.0314667
0.0326581
0.03347
0.0338605
-0.0136198
-0.0144099
-0.015855
-0.0180613
-0.0211355
-0.0252453
-0.0305926
-0.0375979
-0.0468149
-0.0589299
-0.0749901
-0.0965256
-0.125153
-0.155204
-0.209789
-0.276199
-0.377463
-0.521556
-0.590351
-0.342699
-0.275924
-0.172523
-0.106986
-0.07041
-0.0408858
-0.0237504
-0.010711
-0.000732467
0.00689422
0.0128479
0.0175339
0.0211782
0.0239412
0.025989
0.027462
0.0284363
0.0290083
-0.0141021
-0.014746
-0.0161262
-0.0182629
-0.0212242
-0.025194
-0.0302592
-0.0368037
-0.045443
-0.056717
-0.0714831
-0.0907001
-0.115581
-0.146071
-0.194235
-0.258292
-0.354333
-0.498364
-0.614291
-0.664198
-0.611139
-0.40337
-0.26397
-0.185477
-0.133615
-0.0945727
-0.0695777
-0.0442751
-0.0293228
-0.0170826
-0.00723292
0.000596565
0.00693891
0.0120975
0.0161781
0.0192522
0.0215352
0.0231563
0.0242109
0.0247371
-0.013541
-0.0139822
-0.0151536
-0.0169679
-0.0194928
-0.0228391
-0.0270093
-0.0323147
-0.0391801
-0.0478972
-0.058947
-0.0730303
-0.0906653
-0.117525
-0.153014
-0.20583
-0.290488
-0.440531
-0.689108
-0.841224
-0.757446
-0.3903
-0.113939
-0.0633552
-0.0865047
-0.0756513
-0.0610037
-0.0408714
-0.0290264
-0.0185952
-0.00985166
-0.00252258
0.0035949
0.00873696
0.0128139
0.0159228
0.0182872
0.0199649
0.0209738
0.0212173
-0.0115469
-0.0119963
-0.0128803
-0.0142294
-0.0160702
-0.0184083
-0.0212392
-0.0245876
-0.0287523
-0.0338553
-0.0400181
-0.0476061
-0.0569502
-0.0663505
-0.0949548
-0.121581
-0.179138
-0.257411
-0.395673
-0.534593
-0.508245
-0.288864
-0.10601
-0.0879299
-0.0891765
-0.071791
-0.0501224
-0.0364461
-0.0260421
-0.0168634
-0.00921028
-0.00264508
0.00293261
0.00755853
0.0112097
0.0140748
0.0162374
0.017727
0.0186291
0.0190213
-0.00835279
-0.00874699
-0.00926575
-0.0100195
-0.0109889
-0.0121803
-0.0136062
-0.0149803
-0.0164118
-0.0179445
-0.0193169
-0.0204764
-0.0212636
-0.0215349
-0.0334942
-0.0372932
-0.0614623
-0.0952772
-0.157156
-0.249238
-0.318983
-0.299674
-0.246698
-0.200135
-0.125045
-0.0817234
-0.0481712
-0.0331936
-0.0221495
-0.0133095
-0.00632179
-0.000501142
0.00429709
0.00817592
0.0112396
0.0136492
0.0154625
0.0167577
0.0176341
0.0181397
-0.00443602
-0.00454132
-0.00472212
-0.00494222
-0.00514795
-0.00530385
-0.00538272
-0.00516497
-0.00449532
-0.00309526
-0.000615988
0.00323757
0.00936266
0.015364
0.0161414
0.0264569
0.0202407
-0.000836289
-0.0901622
-0.250238
-0.386162
-0.420961
-0.36256
-0.248417
-0.132753
-0.0810265
-0.043155
-0.0273323
-0.0161213
-0.00790187
-0.00171086
0.0031909
0.00710044
0.0102011
0.0126367
0.0145552
0.0160212
0.0171087
0.0178645
0.0182865
-0.000268235
-0.000189088
-9.22774e-05
9.39234e-05
0.000435793
0.00101654
0.00196202
0.00340063
0.00561952
0.00893506
0.013796
0.0203981
0.03094
0.0407109
0.0460302
0.0611652
0.0586121
0.0199059
-0.0848877
-0.250403
-0.369449
-0.375528
-0.294599
-0.186871
-0.0968591
-0.0596406
-0.0275632
-0.014963
-0.00633987
-4.86694e-05
0.00460633
0.00822548
0.0110846
0.0133426
0.015103
0.0164948
0.0175598
0.0183404
0.0188641
0.0191387
0.00363068
0.00378866
0.00409525
0.00456262
0.00524954
0.00625753
0.0077009
0.00974116
0.0126325
0.0166443
0.0221012
0.0289511
0.0390561
0.0484354
0.0547192
0.0627637
0.0511577
0.00530136
-0.0754338
-0.16755
-0.218284
-0.205129
-0.153094
-0.0991657
-0.0513449
-0.0296608
-0.00656906
0.00101869
0.00618179
0.00978983
0.0123466
0.0143113
0.015891
0.0171758
0.0181975
0.0190113
0.0196315
0.020067
0.0203381
0.0204806
0.00718911
0.00737922
0.00776571
0.00835261
0.00917924
0.0103078
0.0118058
0.0137791
0.0163755
0.0197541
0.0239812
0.0289308
0.0346281
0.0418306
0.0315344
0.0259789
0.00825136
-0.0375924
-0.0897728
-0.114513
-0.114084
-0.0929537
-0.0631369
-0.03769
-0.0183588
0.00435869
0.0119208
0.0163623
0.0187491
0.0198018
0.0203478
0.0206549
0.020885
0.0211189
0.0213738
0.0216276
0.0218447
0.0220017
0.02208
0.0220896
0.0104451
0.0106267
0.0109994
0.0115761
0.0123608
0.0133843
0.0146653
0.0162157
0.0180334
0.0200973
0.0221262
0.0243784
0.023899
0.0223286
0.00974866
-0.040766
-0.0886082
-0.136371
-0.171893
-0.167359
-0.132491
-0.0870087
-0.0420239
-0.0105413
0.0090752
0.0215262
0.0259738
0.028752
0.0290487
0.0281958
0.0271892
0.0261649
0.0252925
0.0246354
0.024223
0.0239684
0.0238216
0.0237521
0.0237157
0.0236643
0.0133999
0.0135563
0.013882
0.0143812
0.0150471
0.0158777
0.0168505
0.017937
0.0189919
0.019788
0.0197273
0.0185247
0.0130926
0.00180634
-0.0221738
-0.07326
-0.129474
-0.193201
-0.250373
-0.257657
-0.200151
-0.133438
-0.0666185
-0.0168968
0.0146169
0.0307532
0.0364256
0.037457
0.0362809
0.0342167
0.0321011
0.0301679
0.0286272
0.027418
0.0265609
0.025908
0.0254548
0.0251709
0.0250178
0.0249945
0.016048
0.0161755
0.016461
0.016894
0.017468
0.0181514
0.0188821
0.0196121
0.0201153
0.0201043
0.0188046
0.0155095
0.00796605
-0.00744436
-0.035845
-0.0800668
-0.137204
-0.198658
-0.251931
-0.257889
-0.202777
-0.138977
-0.0745783
-0.0236429
0.0107535
0.0323581
0.0425136
0.043918
0.0411643
0.0381509
0.0352422
0.0327965
0.0309114
0.0294437
0.0283162
0.0274576
0.0268502
0.0264485
0.026218
0.0261897
0.0183131
0.0184375
0.0187406
0.0191785
0.0197362
0.0203687
0.0210026
0.021564
0.0218899
0.0217606
0.0205839
0.017527
0.011403
-0.000371318
-0.0230727
-0.0578361
-0.100818
-0.144569
-0.180255
-0.187981
-0.158473
-0.116417
-0.0678186
-0.0240856
0.00882126
0.0301095
0.0420851
0.0453842
0.0431956
0.0398852
0.0367857
0.0342654
0.0322828
0.0307277
0.0295132
0.0286104
0.0279673
0.02754
0.0272849
0.0271715
0.0202203
0.0204078
0.0207426
0.0212005
0.0217614
0.0224058
0.0230799
0.023701
0.0242174
0.0244814
0.0241616
0.0227141
0.019513
0.0133648
0.00109769
-0.0213854
-0.0502
-0.0805745
-0.105573
-0.117608
-0.113581
-0.0956419
-0.0633703
-0.0284231
0.0014241
0.0221914
0.0344718
0.0399043
0.0401299
0.0382584
0.036128
0.0341741
0.0324767
0.0310838
0.0299841
0.0291586
0.0285532
0.0281287
0.0278577
0.0277125
0.0218551
0.0220973
0.0224137
0.0228553
0.0234208
0.0241103
0.0249064
0.0257723
0.0266707
0.0274811
0.0279874
0.027643
0.0259558
0.0218813
0.0149632
0.00232985
-0.0182557
-0.042979
-0.0662008
-0.0838385
-0.0904966
-0.0858206
-0.0662384
-0.0406083
-0.0162276
0.00422286
0.01958
0.0291484
0.0327947
0.0335188
0.0331687
0.0323212
0.0313641
0.0304682
0.0297058
0.0290805
0.0285915
0.0282313
0.0279963
0.0278771
0.023129
0.0232912
0.0236061
0.0240697
0.0246883
0.0254701
0.0264164
0.0275366
0.0287825
0.0300349
0.0309914
0.0312118
0.0300192
0.0260563
0.0184612
0.00609038
-0.0147377
-0.0407671
-0.0704787
-0.0956566
-0.105073
-0.105678
-0.0919662
-0.06931
-0.0425291
-0.0177504
0.00291677
0.0171879
0.0243701
0.0277387
0.029202
0.0295906
0.0295725
0.0293417
0.0290237
0.0286823
0.0283793
0.0281286
0.0279484
0.0278492
0.0240905
0.0241274
0.0244284
0.0249152
0.0255887
0.0264368
0.0274694
0.0287212
0.0301199
0.0315363
0.0326035
0.0338969
0.0326195
0.028224
0.0182749
0.0016094
-0.0235953
-0.0544938
-0.0940667
-0.127813
-0.147343
-0.147472
-0.128704
-0.103582
-0.0680578
-0.0364095
-0.0101444
0.0075419
0.0176792
0.0229486
0.0257885
0.0272191
0.0279451
0.0281799
0.028244
0.028177
0.0280596
0.0279338
0.027823
0.0277276
0.0248685
0.0249344
0.0251769
0.0255972
0.0262154
0.0270231
0.028018
0.0292242
0.030609
0.032171
0.0335215
0.0346585
0.03299
0.0271803
0.0160251
-0.00186713
-0.0275726
-0.0598847
-0.101875
-0.139068
-0.166948
-0.164443
-0.141573
-0.112825
-0.0753313
-0.0423551
-0.0155594
0.00241523
0.0138381
0.0202185
0.023757
0.0257176
0.0268143
0.0273401
0.0275906
0.0276817
0.0276832
0.0276445
0.0275961
0.0275309
0.0253072
0.0254535
0.0256943
0.0260617
0.0265853
0.0272804
0.0281457
0.0292042
0.0304158
0.0318584
0.033077
0.0335823
0.0311302
0.0243409
0.0125557
-0.00493311
-0.0284745
-0.0574364
-0.0913902
-0.118915
-0.141902
-0.137127
-0.116016
-0.0898484
-0.0586581
-0.0327333
-0.0108978
0.00441283
0.0143629
0.0200537
0.0234351
0.0253129
0.0263914
0.026935
0.0272346
0.0273597
0.0273931
0.0273736
0.0273467
0.0273318
0.0252762
0.0254251
0.025653
0.025985
0.0264312
0.0270065
0.0277117
0.0285501
0.0294477
0.0303879
0.0309568
0.0303371
0.0270101
0.0194845
0.0069875
-0.010181
-0.0312459
-0.0549863
-0.0773454
-0.0909992
-0.0969959
-0.0904904
-0.075579
-0.0551931
-0.0337197
-0.0147632
0.00127128
0.0119378
0.0184042
0.0221227
0.0244195
0.0257344
0.026523
0.0269586
0.0271947
0.0272839
0.0273029
0.0272808
0.0272568
0.0272376
0.024953
0.0250238
0.0251791
0.0254247
0.0257512
0.0261546
0.0266105
0.0270879
0.0274499
0.0274769
0.0267928
0.0244507
0.0193782
0.0107267
-0.00160865
-0.0169504
-0.0345246
-0.0529564
-0.0672612
-0.0712669
-0.0670535
-0.0579049
-0.0443185
-0.0269194
-0.0107256
0.00303357
0.0130732
0.0192765
0.0227645
0.0247659
0.0259627
0.026619
0.0269945
0.0271949
0.0272805
0.0272977
0.0272878
0.0272602
0.0272274
0.0271724
0.0245407
0.0245465
0.0246362
0.0247756
0.0249407
0.0250993
0.0251916
0.0251491
0.0247887
0.0237661
0.0216212
0.0171361
0.00934407
-0.00149472
-0.0150635
-0.0303038
-0.0451231
-0.0592703
-0.0689426
-0.0690121
-0.0629137
-0.0496644
-0.0326978
-0.0145735
0.00110952
0.012539
0.0199293
0.0241548
0.0263116
0.0272946
0.0277019
0.0276953
0.027589
0.0274536
0.0273284
0.0272149
0.0271243
0.0270526
0.0269964
0.026974
0.0241221
0.0241504
0.0241895
0.0242238
0.0242106
0.0241156
0.023859
0.023324
0.0223098
0.0204288
0.0169694
0.0108167
0.00044118
-0.0137593
-0.0317937
-0.0510142
-0.0677817
-0.0808018
-0.0899259
-0.0893007
-0.0794203
-0.0599731
-0.0364214
-0.0157987
0.0017323
0.0142579
0.0226972
0.0271161
0.0289565
0.0293147
0.028996
0.0285102
0.0280121
0.0275847
0.0272545
0.0269986
0.0268081
0.0266869
0.0266286
0.0266626
0.0236772
0.0237468
0.0237456
0.0237007
0.0235668
0.0233247
0.0228518
0.0220185
0.0205676
0.0181032
0.0139106
0.0069362
-0.00437716
-0.0205321
-0.0413799
-0.0637548
-0.0850619
-0.100138
-0.111842
-0.112369
-0.0948681
-0.0698655
-0.0415487
-0.0187555
7.2519e-05
0.0136656
0.0227859
0.0275483
0.0297175
0.0300282
0.0292992
0.0286593
0.0279751
0.0274443
0.0270304
0.0267132
0.0264916
0.0263677
0.0263214
0.0263509
0.0231816
0.0232257
0.0232142
0.0231534
0.0229952
0.0227305
0.0222327
0.0213942
0.0199229
0.0175048
0.0133837
0.00664932
-0.00369927
-0.0178908
-0.0362404
-0.0570424
-0.0794319
-0.0955929
-0.108741
-0.110256
-0.0905078
-0.0674385
-0.0414124
-0.0195662
-0.00132015
0.0116218
0.0204744
0.0256726
0.0284341
0.0291942
0.028625
0.0280607
0.0274434
0.0269772
0.0266118
0.0263348
0.0261417
0.0260218
0.0259499
0.0259166
0.0227913
0.0227868
0.0227754
0.0227407
0.0226326
0.0224209
0.0220334
0.0213791
0.0202494
0.0184295
0.0153006
0.0102387
0.00221309
-0.00875274
-0.022375
-0.0381839
-0.0553025
-0.0693384
-0.0805371
-0.0835931
-0.0735614
-0.0593655
-0.0402358
-0.0219538
-0.00600239
0.0065851
0.0158641
0.022139
0.0256322
0.0269773
0.0270848
0.0267829
0.0264034
0.0261037
0.0258459
0.0256465
0.0254985
0.0253884
0.0253042
0.0252334
0.0226009
0.0226081
0.022605
0.0225872
0.0225258
0.0224044
0.022172
0.0217678
0.0211023
0.0200262
0.0182208
0.0153197
0.010286
0.00283219
-0.00691139
-0.018474
-0.0309494
-0.0428183
-0.0517798
-0.0566882
-0.0569434
-0.0513889
-0.0392714
-0.0249751
-0.0114811
0.000174176
0.00977771
0.0167301
0.0211187
0.0234008
0.0244148
0.0247328
0.0247929
0.024738
0.0246433
0.0245546
0.0244856
0.0244382
0.0244077
0.0243776
0.0224307
0.0224592
0.0224785
0.0224897
0.0224881
0.022475
0.0224196
0.0223178
0.0221173
0.0217243
0.020939
0.0195468
0.0169451
0.0123742
0.00512193
-0.00452158
-0.015903
-0.027902
-0.0381465
-0.0453313
-0.0482678
-0.047486
-0.0399529
-0.0290593
-0.0178903
-0.00743309
0.00179839
0.00922735
0.0148609
0.0187137
0.0209954
0.0221677
0.0228133
0.0231233
0.0232694
0.0233405
0.0233705
0.0233913
0.0234182
0.0234647
0.0221337
0.0221241
0.0221568
0.0222134
0.0222986
0.0224205
0.0225736
0.0227725
0.0230093
0.0232246
0.0232252
0.0226384
0.0209364
0.0173791
0.0105516
0.000983597
-0.0113081
-0.0250922
-0.0388218
-0.0497779
-0.0539722
-0.0550585
-0.0500419
-0.0411471
-0.0308623
-0.0199028
-0.00882981
0.00084224
0.00859924
0.0142422
0.0176953
0.019702
0.0209074
0.021618
0.022042
0.0222913
0.022429
0.0225042
0.0225521
0.0226123
0.0217918
0.0217398
0.0217642
0.0218448
0.0219945
0.0222119
0.0225112
0.0229024
0.0234792
0.0240033
0.0245421
0.0243401
0.0226259
0.0191069
0.0121286
0.0021459
-0.0113066
-0.026755
-0.0445397
-0.0602362
-0.0708978
-0.0721313
-0.0663487
-0.057788
-0.0456013
-0.0322308
-0.0181024
-0.0056134
0.00412005
0.0110027
0.0152415
0.0178369
0.0194164
0.020422
0.0210393
0.0214488
0.0216948
0.0218334
0.0218991
0.0218868
0.021424
0.0214038
0.0214342
0.0215157
0.0216673
0.0218937
0.0222166
0.0226426
0.0232011
0.0236786
0.0242975
0.0238375
0.0220305
0.018771
0.0122319
0.00249803
-0.0107272
-0.0265009
-0.0456289
-0.0632235
-0.078897
-0.0803167
-0.0727186
-0.0630714
-0.0490635
-0.0339951
-0.0190976
-0.00653301
0.00299577
0.00971503
0.0141148
0.0168647
0.0185153
0.0195993
0.0203012
0.0207491
0.0210321
0.0211783
0.0212485
0.021201
0.0209004
0.0209376
0.0209936
0.0210721
0.0211882
0.0213519
0.0215784
0.021871
0.0222409
0.0225137
0.0224842
0.0215488
0.0192254
0.0152442
0.00888086
-0.000328037
-0.0122555
-0.0261162
-0.0419668
-0.0553268
-0.067585
-0.0673561
-0.0596564
-0.0503546
-0.0372944
-0.0243433
-0.0120703
-0.00230259
0.00535217
0.0108743
0.0145814
0.0169044
0.0183327
0.0192316
0.0198049
0.0201603
0.0203787
0.0204933
0.0205481
0.0205497
0.0201869
0.0202301
0.0202622
0.0202967
0.0203414
0.0204002
0.0204715
0.0205387
0.0205636
0.0203893
0.0196187
0.0178782
0.0145794
0.00948578
0.00259035
-0.00607375
-0.0164017
-0.0273711
-0.0377266
-0.0445097
-0.0475685
-0.0447879
-0.0383587
-0.0301655
-0.020265
-0.0108792
-0.00244
0.00447404
0.0100554
0.0138571
0.0162391
0.0177279
0.0186429
0.0192251
0.0195939
0.0198216
0.0199582
0.020031
0.0200728
0.0201024
0.019379
0.0193568
0.0193226
0.0192841
0.0192375
0.0191662
0.0190437
0.0187847
0.0183056
0.0174308
0.0158029
0.0130546
0.00900358
0.0035271
-0.00347976
-0.011528
-0.0202557
-0.0286693
-0.034752
-0.0364628
-0.0348312
-0.0298924
-0.0231646
-0.0149404
-0.00656991
0.000921488
0.00702314
0.01165
0.0149432
0.0169153
0.0181049
0.0187723
0.0191935
0.019461
0.0196302
0.0197334
0.0198019
0.0198367
0.0198517
0.0198474
0.0185749
0.0184939
0.0184269
0.0183428
0.0182184
0.0180088
0.0176699
0.0170677
0.0160659
0.0143917
0.0116903
0.00768358
0.0025137
-0.00380678
-0.0112504
-0.0191364
-0.0268643
-0.0335439
-0.0369805
-0.0358541
-0.0332027
-0.0265286
-0.0176582
-0.00806248
0.00107225
0.00825429
0.013642
0.0169046
0.018677
0.0194119
0.0197013
0.0197408
0.0197185
0.0196758
0.0196431
0.0196143
0.0195972
0.0195817
0.0195647
0.019553
0.0178929
0.0178461
0.0177762
0.0176571
0.0174468
0.0170946
0.0165379
0.0156658
0.0142303
0.0119037
0.00814868
0.00270088
-0.00452751
-0.0132172
-0.0225146
-0.0313976
-0.0394089
-0.0452135
-0.0481855
-0.0455283
-0.0388213
-0.0287871
-0.0167527
-0.00537195
0.0046023
0.0119054
0.017005
0.0196729
0.0210385
0.0212178
0.0208241
0.0203705
0.0199583
0.019661
0.0194471
0.0192948
0.0191953
0.0191427
0.0191217
0.0191468
0.0173408
0.0173737
0.0173026
0.0171514
0.0168745
0.0164388
0.0157497
0.0147162
0.0130246
0.0104368
0.00624029
0.000109481
-0.00823286
-0.0185618
-0.0298906
-0.0404297
-0.049771
-0.055909
-0.0595281
-0.0560183
-0.0437408
-0.0301826
-0.0158093
-0.00341768
0.00643811
0.0135545
0.0182774
0.0204902
0.02164
0.0216616
0.021004
0.0203861
0.0198357
0.0194099
0.019107
0.0188985
0.0187652
0.018702
0.0186896
0.0187332
0.016796
0.0168395
0.0167863
0.0166558
0.0164074
0.0160086
0.0153803
0.014406
0.0128407
0.0104096
0.00663661
0.00117047
-0.00608457
-0.0155274
-0.0262682
-0.0368561
-0.0470356
-0.0534691
-0.0570577
-0.0541523
-0.0419162
-0.0288266
-0.0152677
-0.00377898
0.00545075
0.0121612
0.0166099
0.0189506
0.0201709
0.0204525
0.0201342
0.0197262
0.0192644
0.0189108
0.01865
0.0184759
0.0183598
0.0182959
0.018264
0.0182636
0.0163393
0.0163256
0.016287
0.0162118
0.0160571
0.0157931
0.0153609
0.0146694
0.0135644
0.0117574
0.00902447
0.00493087
-0.000373172
-0.0070211
-0.015046
-0.0233587
-0.0316283
-0.0376307
-0.0415103
-0.0412911
-0.0353468
-0.026671
-0.016893
-0.00782289
0.000205927
0.00669134
0.0115581
0.014809
0.0168855
0.017961
0.0183134
0.0183266
0.0181515
0.0180021
0.0178904
0.0178111
0.0177554
0.0177125
0.0176741
0.0176341
0.0160956
0.0160763
0.0160566
0.0160202
0.0159506
0.0158267
0.015615
0.0152669
0.0146965
0.0137422
0.0121597
0.00967791
0.00619354
0.0018931
-0.00349404
-0.00949703
-0.0157785
-0.0213461
-0.0259417
-0.0287567
-0.0283553
-0.0248177
-0.0192732
-0.0125954
-0.00577141
0.000369336
0.00560865
0.00967694
0.0126242
0.0145611
0.0156658
0.0162503
0.016508
0.0166624
0.016745
0.0167967
0.0168354
0.016866
0.0168812
0.01687
0.0159438
0.0159615
0.0159744
0.0159828
0.0159857
0.0159841
0.0159592
0.0159137
0.0157941
0.0155596
0.0149639
0.0139099
0.0119312
0.00896223
0.00471164
-0.000613579
-0.00692591
-0.0130355
-0.0187701
-0.0231625
-0.0245199
-0.0247045
-0.0222418
-0.0173042
-0.0112777
-0.00543445
8.54733e-06
0.00455069
0.00808152
0.0107985
0.0127601
0.0140032
0.0147589
0.0152502
0.0155284
0.0157077
0.0158299
0.0159258
0.0160003
0.016061
0.0156889
0.0157011
0.0157362
0.0157856
0.0158634
0.015979
0.0161383
0.0163376
0.016593
0.0168805
0.0170761
0.0168871
0.0157649
0.013564
0.00975088
0.00449989
-0.00240873
-0.00997436
-0.0173812
-0.0236103
-0.0276319
-0.0304131
-0.0294968
-0.0255943
-0.0200455
-0.0138011
-0.00745403
-0.00162703
0.00334103
0.00726818
0.0101758
0.0121042
0.013332
0.0140885
0.014551
0.0148497
0.0150328
0.0151508
0.0152343
0.0153208
0.0153396
0.0153132
0.0153394
0.015409
0.0155371
0.0157331
0.0160219
0.0164059
0.0169295
0.0175155
0.0182459
0.0184818
0.017787
0.0163312
0.0131583
0.00825115
0.00141816
-0.0076717
-0.0176133
-0.0267821
-0.0349401
-0.0397424
-0.0393745
-0.035518
-0.0297622
-0.0226119
-0.0146604
-0.0071355
-0.000472414
0.00463405
0.00828843
0.0107485
0.0122758
0.0132379
0.0138497
0.0142482
0.0145028
0.0146494
0.0147264
0.0147438
0.0149751
0.0149474
0.0149671
0.0150326
0.0151652
0.01537
0.0156813
0.0160875
0.0166464
0.0172124
0.0179339
0.0182633
0.0178333
0.0167465
0.0141279
0.00964163
0.00319322
-0.00578611
-0.0166271
-0.027585
-0.0372502
-0.0432547
-0.0430186
-0.0383492
-0.0321787
-0.0242469
-0.0158677
-0.00781998
-0.00104935
0.00398913
0.00768085
0.0101819
0.0117048
0.0127254
0.013393
0.0138194
0.0140863
0.014232
0.0142968
0.0142474
0.0145258
0.0145396
0.0145755
0.0146341
0.0147281
0.0148683
0.0150794
0.0153476
0.0156997
0.0159575
0.0161238
0.0159071
0.0150561
0.0134523
0.0105744
0.00623081
0.000375537
-0.00685571
-0.0156805
-0.0246708
-0.0312871
-0.035467
-0.0341756
-0.0294059
-0.0237915
-0.0168524
-0.00984059
-0.0033979
0.00170491
0.00561148
0.00856068
0.0105279
0.0117948
0.0126189
0.013135
0.0134564
0.0136477
0.0137484
0.013789
0.0137668
0.0139306
0.0139612
0.013981
0.0139947
0.014009
0.0140267
0.0140542
0.0140756
0.0140525
0.0138194
0.0132562
0.0121027
0.0102781
0.00769997
0.00424777
-5.75811e-05
-0.00516696
-0.0105198
-0.0156879
-0.0204179
-0.0225857
-0.0223461
-0.0196144
-0.0156938
-0.0110694
-0.00611379
-0.0014232
0.00266092
0.00591865
0.0085763
0.0104458
0.011601
0.0123478
0.012813
0.0130833
0.0132468
0.0133398
0.0133846
0.0134076
0.0134265
0.0132396
0.0132246
0.0131791
0.0131128
0.0130305
0.0129163
0.0127377
0.012447
0.0119892
0.0112115
0.00994068
0.00810276
0.00559835
0.00237515
-0.00149045
-0.0057868
-0.0102829
-0.0142781
-0.016456
-0.017104
-0.0166788
-0.0137284
-0.0100635
-0.00591965
-0.00160592
0.00240143
0.00568782
0.00826241
0.0101848
0.0115718
0.0123815
0.0128128
0.0130569
0.0131692
0.0132289
0.0132614
0.0132717
0.0132695
0.0132642
0.0132641
0.0125399
0.0124646
0.0123795
0.0122725
0.0121272
0.0119092
0.0115645
0.0110075
0.0101083
0.0087598
0.00682018
0.00424656
0.000937386
-0.0031253
-0.00769998
-0.0122803
-0.0164791
-0.019311
-0.0196415
-0.017527
-0.0149003
-0.0107465
-0.00610613
-0.00103269
0.0037161
0.00770842
0.0105819
0.0124126
0.0134764
0.0138691
0.0138737
0.0137552
0.0136029
0.0134593
0.0133476
0.0132629
0.0131998
0.0131494
0.0131133
0.0130864
0.011952
0.0118839
0.0118047
0.011685
0.0114933
0.0111896
0.0107123
0.00993654
0.00868809
0.00674243
0.00397942
0.000223952
-0.0045447
-0.00997342
-0.015589
-0.0208506
-0.0248046
-0.0271409
-0.0265618
-0.0220722
-0.0163612
-0.0101602
-0.00336234
0.00313016
0.00817768
0.0118324
0.0141275
0.0152446
0.0156116
0.0153041
0.0147772
0.014255
0.0137996
0.0134589
0.0132087
0.0130256
0.0129009
0.0128263
0.012787
0.0127832
0.0115097
0.0115192
0.0114525
0.0113157
0.0110775
0.0107061
0.0101545
0.0092574
0.00784768
0.00557199
0.00232888
-0.00211144
-0.00785894
-0.014317
-0.0208073
-0.0267091
-0.0307974
-0.0335061
-0.0323859
-0.025996
-0.0178958
-0.0093617
-0.000833891
0.00642588
0.0112849
0.0144405
0.0160373
0.0165436
0.0163825
0.0156514
0.0149102
0.0142096
0.0136178
0.0131843
0.0128609
0.0126356
0.0124883
0.0124129
0.0123861
0.0124121
0.0110978
0.0111374
0.0110963
0.0109886
0.0107788
0.0104365
0.00989896
0.0090713
0.0077968
0.00577366
0.00290062
-0.00104118
-0.00616932
-0.012201
-0.0183467
-0.0241224
-0.0281797
-0.0308623
-0.0300298
-0.0244162
-0.0170975
-0.00873121
-0.000797687
0.00565345
0.0100585
0.0130396
0.014548
0.0151367
0.0150897
0.0146272
0.0141118
0.0135518
0.0130667
0.0126945
0.0124126
0.0122209
0.0120968
0.0120302
0.0120025
0.0120182
0.0107264
0.010734
0.0107095
0.0106509
0.0105321
0.0103242
0.00997845
0.00941387
0.00852396
0.00716678
0.0051478
0.00248301
-0.000922388
-0.00509836
-0.00953524
-0.0139296
-0.0173651
-0.0198452
-0.0207642
-0.0182863
-0.0143958
-0.00923544
-0.00393137
0.000741461
0.00455943
0.00754143
0.00960266
0.0109871
0.0118178
0.0122401
0.0123403
0.012238
0.0120677
0.011903
0.0117708
0.0116817
0.0116191
0.0115765
0.0115431
0.0115202
0.0105057
0.0104959
0.0104908
0.0104826
0.0104566
0.0103964
0.0102821
0.0100737
0.00966973
0.00903695
0.00798638
0.00653681
0.00470304
0.0023218
-0.000433152
-0.00355273
-0.00644771
-0.00929818
-0.0115036
-0.0121811
-0.0116168
-0.0100718
-0.00776312
-0.00466448
-0.00151085
0.00147969
0.00407774
0.0062117
0.00789245
0.00912915
0.0099187
0.0103645
0.0105957
0.0107221
0.0107994
0.0108515
0.0108853
0.0109053
0.0109098
0.0108931
0.01038
0.0104
0.0104278
0.0104661
0.0105114
0.0105693
0.0106359
0.0107093
0.0107482
0.0106914
0.010461
0.009918
0.00899584
0.00750375
0.0054313
0.00258858
-0.000482595
-0.00367465
-0.00643078
-0.00873788
-0.010384
-0.0116277
-0.0115456
-0.00966348
-0.00698738
-0.00377993
-0.000653072
0.00211995
0.00440795
0.00616425
0.00749557
0.00843383
0.00904953
0.0094568
0.00971903
0.00989325
0.0100129
0.010102
0.0101673
0.0102064
0.0101823
0.0102165
0.0102671
0.0103412
0.0104418
0.0105874
0.0107817
0.0110453
0.0113818
0.0117586
0.0121114
0.0122756
0.0120231
0.0111652
0.00958548
0.00703317
0.00374822
-0.000152242
-0.00404134
-0.00819898
-0.0121503
-0.0157516
-0.0171033
-0.0162389
-0.0138008
-0.0102163
-0.0062981
-0.0024647
0.000851488
0.00346279
0.00545721
0.00688299
0.00785027
0.00847412
0.00887182
0.00912729
0.00929281
0.00940782
0.00949459
0.00956884
0.00985965
0.00986433
0.0099062
0.00998862
0.0101237
0.0103229
0.0106046
0.0109945
0.0115151
0.0121845
0.0129103
0.0136914
0.0141953
0.0141211
0.0132752
0.0113494
0.00806373
0.00304402
-0.00274638
-0.0089117
-0.0152777
-0.0205988
-0.0230019
-0.0228396
-0.0202582
-0.0163301
-0.0116583
-0.00677704
-0.00235012
0.00126117
0.00389245
0.00577656
0.00703935
0.00780424
0.00830337
0.00862632
0.00883195
0.0089588
0.00903579
0.0090683
0.00947785
0.00945258
0.00947998
0.00955082
0.00968188
0.00988304
0.0101854
0.0105916
0.0111381
0.0118638
0.0126749
0.0136684
0.0144704
0.0147605
0.0142819
0.0126944
0.00977193
0.00472017
-0.00176653
-0.00880002
-0.0156603
-0.0215422
-0.0243488
-0.0243487
-0.0214447
-0.0175554
-0.0126933
-0.00768312
-0.00306072
0.000682171
0.00336706
0.00533041
0.00661744
0.00743047
0.00795704
0.00829387
0.00850811
0.00862345
0.00867143
0.0086486
0.00906393
0.0090577
0.00908151
0.00913085
0.00922283
0.00936583
0.00957755
0.00986844
0.0102275
0.010679
0.0111033
0.0115372
0.0117761
0.0116037
0.0108261
0.00922773
0.00671495
0.00286796
-0.00212441
-0.00751802
-0.0124858
-0.0165169
-0.018023
-0.0174915
-0.0151711
-0.011982
-0.00813912
-0.00422743
-0.000702487
0.00208666
0.00413586
0.00567164
0.0066878
0.00733449
0.00775258
0.00801644
0.0081747
0.00825746
0.00828948
0.00826714