/*--------------------------------*- C++ -*----------------------------------*\
| =========                 |                                                 |
| \\      /  F ield         | OpenFOAM: The Open Source CFD Toolbox           |
|  \\    /   O peration     | Version:  v2106                                 |
|   \\  /    A nd           | Website:  www.openfoam.com                      |
|    \\/     M anipulation  |                                                 |
\*---------------------------------------------------------------------------*/
FoamFile
{
    version     2.0;
    format      ascii;
    arch        "LSB;label=32;scalar=64";
    class       volScalarField;
    location    "0";
    object      p;
}
// * * * * * * * * * * * * * * * * * * * * * * * * * * * * * * * * * * * * * //

dimensions      [0 2 -2 0 0 0 0];

internalField   nonuniform List<scalar> 
11644
(
0.466593
0.470942
0.47829
0.487767
0.500728
0.516942
0.535581
0.555091
0.573143
0.586842
0.592702
0.587752
0.568431
0.530767
0.476225
0.404133
0.3211
0.235954
0.156903
0.0879201
0.0333336
-0.00309761
-0.0278946
-0.0477892
-0.0617519
-0.0738053
-0.0933351
-0.118535
-0.148451
-0.183766
-0.221323
-0.259359
-0.296355
-0.330556
-0.361028
-0.386913
-0.40736
-0.422997
-0.434214
-0.440526
0.447854
0.45174
0.460288
0.47316
0.489196
0.507559
0.52827
0.550237
0.571328
0.588424
0.599059
0.598983
0.5823
0.554573
0.50408
0.43416
0.354804
0.267324
0.182805
0.110828
0.0588197
0.0219287
-0.00576438
-0.0239853
-0.0414643
-0.0626522
-0.0851398
-0.115965
-0.153685
-0.192855
-0.232694
-0.272345
-0.310069
-0.344949
-0.376324
-0.403203
-0.425903
-0.443815
-0.45625
-0.46237
0.442429
0.443729
0.448984
0.45943
0.474022
0.492253
0.512979
0.53536
0.557739
0.578793
0.594501
0.601636
0.59892
0.575325
0.535446
0.473157
0.390612
0.297912
0.211543
0.131782
0.0658717
0.0119372
-0.0249978
-0.0424192
-0.0542344
-0.0746845
-0.107277
-0.141208
-0.180379
-0.223361
-0.265745
-0.30584
-0.343227
-0.37686
-0.406617
-0.431763
-0.452329
-0.467461
-0.476276
-0.479111
0.441782
0.442175
0.445028
0.450677
0.459904
0.473164
0.49001
0.509892
0.532351
0.555362
0.578469
0.601859
0.612564
0.620823
0.60083
0.546308
0.465908
0.362247
0.258037
0.154201
0.0685226
0.00521953
-0.0388844
-0.0686261
-0.0946721
-0.122586
-0.154835
-0.199229
-0.242342
-0.284287
-0.325989
-0.364293
-0.397742
-0.426627
-0.450362
-0.469481
-0.483435
-0.492357
-0.496843
-0.498279
0.444596
0.444586
0.445399
0.44693
0.44983
0.45562
0.46553
0.480213
0.500645
0.52784
0.564275
0.602503
0.640678
0.649067
0.639337
0.594166
0.503461
0.416662
0.324468
0.217866
0.112919
0.0193595
-0.0601952
-0.118055
-0.152408
-0.198819
-0.253299
-0.297434
-0.344776
-0.382933
-0.413846
-0.444033
-0.469148
-0.487931
-0.501432
-0.510475
-0.515717
-0.518332
-0.519607
-0.52016
0.452074
0.452318
0.451719
0.45065
0.449106
0.448284
0.449978
0.456747
0.473411
0.502493
0.539704
0.5838
0.616965
0.683659
0.722913
0.699551
0.615682
0.582989
0.494675
0.355338
0.211057
0.0924168
-0.0264041
-0.146281
-0.241348
-0.296193
-0.356037
-0.435235
-0.474401
-0.508629
-0.528157
-0.53948
-0.547489
-0.551869
-0.551833
-0.54864
-0.544463
-0.540795
-0.538663
-0.537301
0.472637
0.471134
0.469186
0.465476
0.461254
0.456391
0.451925
0.451026
0.459785
0.477454
0.506517
0.543101
0.612842
0.636894
0.690734
0.813463
0.864793
0.703447
0.571177
0.422202
0.273926
0.0996329
-0.0684425
-0.219087
-0.426733
-0.518685
-0.584872
-0.612664
-0.634515
-0.649452
-0.650321
-0.63997
-0.621815
-0.605447
-0.589319
-0.574323
-0.56211
-0.55307
-0.547472
-0.545128
0.504379
0.504537
0.502159
0.498915
0.493289
0.486823
0.47935
0.474318
0.472902
0.475165
0.49586
0.541299
0.540136
0.690637
0.758757
0.793357
0.86044
0.79812
0.641779
0.443407
0.212477
-0.0312715
-0.243824
-0.382779
-0.540508
-0.723659
-0.717848
-0.842243
-0.785545
-0.772189
-0.743084
-0.710497
-0.669817
-0.631868
-0.602593
-0.578693
-0.560211
-0.547739
-0.53929
-0.534979
0.553431
0.551605
0.55021
0.548336
0.544871
0.540521
0.534592
0.531532
0.527785
0.528144
0.53837
0.569028
0.623146
0.78111
0.840186
0.894452
0.938156
0.950852
0.889452
0.653821
0.341094
-0.0451289
-0.386406
-0.569279
-0.77719
-0.861757
-0.85426
-0.961495
-0.904991
-0.847855
-0.778705
-0.720261
-0.667572
-0.617752
-0.582416
-0.555302
-0.534177
-0.518158
-0.508306
-0.503874
0.608817
0.60934
0.61138
0.612159
0.614423
0.615808
0.618757
0.626324
0.63281
0.647801
0.67482
0.718985
0.767515
0.870174
0.892178
1.09578
1.15116
1.21219
1.19352
0.897125
0.343704
-0.266631
-0.675408
-0.904937
-0.996923
-1.06387
-0.963259
-0.939768
-0.868052
-0.79805
-0.72418
-0.66078
-0.608134
-0.558831
-0.524567
-0.499916
-0.481708
-0.468257
-0.460099
-0.454752
0.66027
0.665777
0.671834
0.681142
0.691983
0.703793
0.720346
0.743191
0.768487
0.801837
0.837122
0.909769
0.945416
0.910631
1.06493
1.14151
1.35436
1.5374
1.72241
1.57069
0.407572
-0.944224
-1.35927
-1.32061
-1.19988
-1.06276
-0.940623
-0.771888
-0.682757
-0.639594
-0.588519
-0.54
-0.500776
-0.464436
-0.438848
-0.421063
-0.406011
-0.396796
-0.389789
-0.388854
0.714967
0.717071
0.725548
0.73938
0.758804
0.783545
0.813741
0.85223
0.89166
0.940838
0.980623
1.04738
1.07819
1.0662
1.17499
1.19106
1.31441
1.52976
1.87895
-2.06833
-1.48968
-1.10686
-0.793586
-0.674782
-0.494928
-0.447344
-0.432061
-0.41168
-0.390944
-0.372739
-0.353284
-0.338416
-0.329119
-0.319228
-0.313719
-0.311702
-0.311903
0.741246
0.748644
0.763305
0.780813
0.805479
0.835294
0.870363
0.913171
0.952681
0.997899
1.03018
1.06299
1.03929
0.970189
1.00551
0.946072
0.919794
0.842373
1.11181
-1.35743
-0.925783
-0.71784
-0.492444
-0.375649
-0.273243
-0.252578
-0.260613
-0.264439
-0.265455
-0.262163
-0.254434
-0.246531
-0.241302
-0.23656
-0.233107
-0.2325
-0.223815
0.732226
0.740209
0.751729
0.771034
0.793817
0.82246
0.851033
0.881358
0.909718
0.938342
0.941582
0.922193
0.831023
0.69987
0.607673
0.421313
0.212937
-0.150326
-0.140634
0.00458071
0.0722243
-0.0842266
-0.187475
-0.229942
-0.225122
-0.211907
-0.20541
-0.20466
-0.203446
-0.197149
-0.190123
-0.183314
-0.175941
-0.169145
-0.163544
-0.159251
-0.169313
0.693527
0.691088
0.69234
0.700905
0.71433
0.732657
0.745733
0.759454
0.765204
0.76149
0.725356
0.65428
0.546934
0.436033
0.278471
0.000456844
-0.455044
-1.45891
-2.39295
-2.58159
-0.901008
1.92366
2.48489
1.53839
0.531373
-0.00255925
-0.249403
-0.349469
-0.338363
-0.294657
-0.25315
-0.219774
-0.188098
-0.168478
-0.157011
-0.149094
-0.14558
-0.145497
-0.147285
-0.147476
0.605796
0.606965
0.60398
0.597983
0.591479
0.586556
0.584711
0.581173
0.563563
0.532988
0.47871
0.40951
0.316081
0.25312
0.155746
-0.105308
-0.553904
-1.6286
-3.69144
-4.3145
-1.30439
2.6344
3.18905
1.80759
0.542775
-0.192951
-0.417359
-0.52325
-0.492677
-0.427247
-0.347627
-0.281094
-0.226301
-0.192962
-0.167902
-0.154119
-0.149024
-0.147042
-0.145409
-0.140091
0.482746
0.482702
0.479188
0.470403
0.455996
0.438134
0.417882
0.390103
0.35392
0.314677
0.267764
0.194435
0.21526
0.156482
0.0312368
-0.0341805
-0.154457
-0.249086
-0.690174
-0.926081
-0.284854
0.374935
0.462187
0.137804
-0.404505
-0.586477
-0.654272
-0.649082
-0.563943
-0.484959
-0.393216
-0.323214
-0.268116
-0.229187
-0.193243
-0.169919
-0.151181
-0.135534
-0.126447
-0.127678
0.379548
0.372755
0.363871
0.349651
0.328437
0.302885
0.272004
0.233816
0.184414
0.137301
0.0885761
0.039851
0.0177933
0.043709
0.079324
0.210172
0.211257
0.792701
1.58525
1.50288
0.615069
-0.796774
-1.82509
-1.34792
-0.972468
-0.826136
-0.662032
-0.528036
-0.47176
-0.423231
-0.360978
-0.318519
-0.271412
-0.233885
-0.20123
-0.178584
-0.158613
-0.145379
-0.137937
-0.13639
0.302206
0.29366
0.281394
0.263206
0.238677
0.207056
0.16954
0.131824
0.0845856
0.0329846
-0.0223533
-0.0535189
-0.0766545
-0.0366481
0.225379
0.357134
0.486052
0.759615
0.978576
0.55268
-0.308639
-1.32041
-1.61059
-1.46401
-1.26318
-0.904461
-0.551667
-0.397902
-0.364494
-0.321751
-0.292597
-0.272318
-0.242015
-0.221293
-0.201539
-0.188595
-0.177376
-0.170335
-0.163655
-0.158944
0.246541
0.241395
0.228342
0.208164
0.181774
0.147555
0.102965
0.056935
0.00638131
-0.0321708
-0.0879649
-0.0838308
-0.0951218
4.07065e-05
0.316702
0.375489
0.62641
0.577341
0.496788
0.199943
-0.212067
-0.557665
-0.916766
-1.2952
-1.14118
-0.84189
-0.543543
-0.400829
-0.315146
-0.264346
-0.246234
-0.233022
-0.223312
-0.217665
-0.207804
-0.200744
-0.193348
-0.187426
-0.181122
-0.177852
0.210743
0.206482
0.195969
0.179015
0.154931
0.124861
0.0861606
0.0431754
-0.00544277
-0.0416826
-0.0979654
-0.1086
-0.173765
-0.0805433
0.149131
0.068663
0.51951
0.629278
0.539846
0.471296
0.243852
-0.122287
-0.403623
-0.577478
-0.479799
-0.53967
-0.444535
-0.310768
-0.270009
-0.226889
-0.22107
-0.213889
-0.215503
-0.216178
-0.21283
-0.208636
-0.202122
-0.195911
-0.190756
-0.189698
0.192985
0.188339
0.180546
0.169969
0.155871
0.13897
0.119415
0.0960134
0.070014
0.0446217
0.0201199
-0.0206633
0.0566755
-0.141136
-0.0684475
0.0577447
-0.259399
-0.0625595
0.529844
0.937064
1.503
1.55822
1.15688
0.714282
0.231036
-0.0291875
-0.0609029
-0.137273
-0.160132
-0.168899
-0.186996
-0.193954
-0.200883
-0.205188
-0.206602
-0.206572
-0.203701
-0.200306
-0.197245
-0.194636
0.185294
0.184119
0.180797
0.176282
0.171564
0.167182
0.164632
0.163025
0.159495
0.141324
0.116689
0.0362533
0.0228201
-0.176497
-0.585853
-0.776142
-1.20265
-0.970805
-0.594346
0.244305
1.13514
1.56445
1.2235
0.933416
0.509127
0.210096
0.102611
-0.00881019
-0.0576904
-0.108321
-0.144779
-0.166966
-0.179883
-0.187526
-0.190915
-0.193067
-0.193146
-0.193949
-0.194946
-0.192519
0.181931
0.182483
0.18335
0.185647
0.188241
0.192585
0.199091
0.204266
0.218392
0.221539
0.225028
0.173972
0.135123
-0.0723603
-0.203683
-0.300298
-0.583723
-0.553921
-0.182646
0.401986
0.853172
1.15495
0.967456
0.922397
0.642806
0.424045
0.273046
0.117792
0.0145203
-0.0540964
-0.0967271
-0.124794
-0.143809
-0.157286
-0.165451
-0.169892
-0.170352
-0.169877
-0.16822
-0.169029
0.178386
0.180054
0.182561
0.188661
0.195181
0.204553
0.219641
0.227531
0.249114
0.259397
0.284332
0.286575
0.27477
0.202751
0.0914182
-0.179102
0.212898
0.453935
1.08655
1.26985
1.03195
1.4324
1.18946
1.1236
0.741174
0.488207
0.28303
0.122129
0.0533594
-0.00308646
-0.0398088
-0.0690938
-0.0918746
-0.110949
-0.123917
-0.132358
-0.137338
-0.140408
-0.14067
-0.142088
0.17633
0.178522
0.180856
0.185625
0.191382
0.198835
0.2117
0.220659
0.234315
0.235919
0.234455
0.215938
0.209022
0.121122
0.302249
0.392984
0.158967
0.114349
0.340085
0.619977
0.317191
0.371575
0.154197
0.258691
0.24785
0.26789
0.253102
0.100304
0.0222422
0.0283068
-0.00366056
-0.0266115
-0.0467235
-0.0666642
-0.0814591
-0.0948492
-0.105483
-0.113808
-0.118019
-0.116218
0.178074
0.177613
0.178065
0.179026
0.182019
0.185717
0.190582
0.19345
0.194707
0.183492
0.158
0.102023
0.0294749
-0.100564
-0.285177
-0.103462
0.0305185
0.259692
0.565065
0.753293
0.4576
0.643611
0.415427
0.213098
0.0254592
-0.0448941
0.0129619
0.0355492
0.0293227
0.0395405
0.0185412
0.0121272
-0.00182509
-0.0172225
-0.0319648
-0.0469289
-0.0582475
-0.0665847
-0.0716637
-0.0725149
0.179167
0.176761
0.178343
0.179669
0.182078
0.184052
0.185374
0.183198
0.181001
0.168697
0.156784
0.121919
0.0918343
0.0640656
0.0406167
0.00150549
0.30578
0.517926
0.780498
0.854415
0.792377
0.716821
0.315657
0.160496
0.00816301
-0.0904881
-0.134975
-0.043622
0.0455957
0.0906463
0.0829852
0.0797174
0.0621147
0.0467289
0.02908
0.0134694
0.000673845
-0.00914511
-0.0169857
-0.0230461
0.185575
0.183823
0.184806
0.186667
0.186237
0.184701
0.182832
0.177029
0.175961
0.171009
0.182531
0.194178
0.237036
0.292509
0.408717
0.410274
0.65424
0.62769
0.758029
0.6462
0.156709
-0.0147577
-0.409379
-0.510563
-0.552136
-0.280945
-0.103928
0.0214065
0.112214
0.164119
0.156318
0.148401
0.122909
0.100471
0.0754831
0.0562079
0.0398265
0.0276297
0.0186551
0.0120213
0.191913
0.19433
0.190732
0.187488
0.182215
0.177802
0.174051
0.167716
0.16535
0.163387
0.176185
0.204943
0.268181
0.346608
0.501371
0.640322
0.91639
0.873495
1.02371
0.689301
0.103134
-0.206014
-0.339644
-0.136448
-0.114408
0.0692934
0.103567
0.0905364
0.135289
0.176827
0.181296
0.172174
0.146613
0.121213
0.0956873
0.0751454
0.0578398
0.044914
0.0361519
0.0332113
0.178693
0.177479
0.179511
0.181101
0.180388
0.178144
0.176523
0.171793
0.169818
0.163423
0.155351
0.171751
0.235961
0.315118
0.486812
0.643082
0.878837
0.885837
1.05935
0.929834
1.12408
0.952441
0.631717
0.677193
0.379131
0.178855
0.0372264
0.103822
0.151944
0.176351
0.168568
0.156371
0.135922
0.119984
0.101974
0.0866035
0.0728401
0.0633046
0.0560527
0.054225
0.171235
0.169436
0.170155
0.171924
0.17448
0.175812
0.178706
0.176793
0.182587
0.179559
0.177041
0.186251
0.214265
0.220924
0.2517
0.263152
0.377083
0.382004
0.657744
0.523209
0.934011
0.823248
0.361972
0.235246
-0.0779841
0.0384641
0.107685
0.156141
0.114067
0.129638
0.1189
0.123193
0.113035
0.109759
0.0980897
0.0914127
0.0829028
0.0769777
0.0710357
0.067224
0.186524
0.186297
0.186627
0.186472
0.186981
0.186995
0.188075
0.182778
0.179764
0.165935
0.144945
0.122419
0.0799943
0.0429893
0.0668676
0.130997
0.204535
0.206553
0.300297
0.0556774
0.146104
0.00259627
-0.0349374
-0.0270471
-0.0413423
0.0107329
-0.110467
-0.078514
-0.0249184
0.0219671
0.0485092
0.0685053
0.0727733
0.0775796
0.073665
0.073538
0.0708751
0.0689144
0.0662485
0.0646481
0.199519
0.203079
0.207493
0.211003
0.214248
0.21518
0.215932
0.209392
0.198982
0.176913
0.125251
0.0657225
-0.00427435
-0.0288208
0.0226651
0.0809796
0.136659
0.213978
0.47701
0.316317
0.245519
0.242635
0.111332
0.0179763
-0.0627673
-0.135362
-0.165378
-0.105312
-0.0547054
-0.0171108
0.0129532
0.0320903
0.0408769
0.0485327
0.050382
0.0538696
0.0546361
0.0555118
0.056141
0.057731
0.20218
0.206986
0.211749
0.216707
0.223039
0.227876
0.23491
0.235532
0.233892
0.220542
0.170895
0.0878673
-0.0113506
-0.174929
-0.278236
-0.343574
-0.303626
-0.204102
0.124343
0.192291
0.37276
0.352166
0.243638
0.212355
0.0608685
0.0458005
-0.00420787
-0.00330037
-0.0106712
-0.00203531
0.00525257
0.0187468
0.0282237
0.0386568
0.0442875
0.0505601
0.0535499
0.0547007
0.0564713
0.0590852
0.196254
0.199134
0.201719
0.205479
0.21254
0.219765
0.231036
0.236233
0.235946
0.221375
0.189813
0.147474
0.115011
-0.0477043
-0.155217
-0.284361
-0.285079
-0.307903
-0.106983
-0.00703415
0.387027
0.579676
0.469585
0.503713
0.329919
0.280457
0.134647
0.0802913
0.0284714
0.00640925
-0.000129588
0.00661522
0.0173908
0.029835
0.0391407
0.0483078
0.0562753
0.0623915
0.0677658
0.0683909
0.182024
0.181393
0.184254
0.188148
0.194374
0.19974
0.207159
0.211293
0.212573
0.200141
0.173331
0.131541
0.153564
0.203846
0.320353
0.300803
0.307292
0.204971
0.334392
0.578013
0.647307
0.739328
0.623374
0.627734
0.457432
0.360616
0.186027
0.102648
0.0290878
-0.00553524
0.00106381
0.01115
0.0233152
0.0336843
0.0428928
0.0507955
0.0571618
0.0604895
0.0620986
0.0626043
0.173095
0.172585
0.17337
0.173509
0.175413
0.174728
0.175358
0.171254
0.169629
0.161127
0.148183
0.121598
0.0789768
0.0194354
0.123055
0.218164
0.418658
0.485415
0.725113
0.759874
0.488018
0.550068
0.338052
0.317615
0.198964
0.162544
0.100632
0.080377
0.0427912
0.0306942
0.0350221
0.0367826
0.0447651
0.0459587
0.0502215
0.0524358
0.0535142
0.0539515
0.0551135
0.0574826
0.160698
0.162227
0.161447
0.157943
0.154493
0.146894
0.139721
0.125272
0.108183
0.0818896
0.0515256
0.00319358
-0.00164819
-0.0536064
-0.0907193
-0.172771
-0.102214
-0.0642303
0.0204258
0.170434
0.100581
0.236946
0.14109
0.141845
0.0944561
0.0589833
0.0176382
0.0233489
0.0339981
0.0492409
0.0525962
0.0569802
0.0629219
0.0622902
0.064497
0.0650801
0.0658945
0.0677868
0.0695898
0.07137
0.135532
0.134248
0.130938
0.125449
0.118859
0.108415
0.0967412
0.0798943
0.0572639
0.0259172
-0.0151554
-0.0667169
-0.105336
-0.135771
-0.110455
-0.125614
-0.119434
-0.111941
-0.0169302
0.0231906
0.0804676
0.297622
0.168578
0.134952
0.0972455
0.0591855
-0.000838173
-0.0161478
-0.00264636
0.030085
0.0590518
0.0821577
0.0925108
0.0966636
0.0976414
0.0964761
0.0944155
0.092175
0.0896617
0.0882212
0.111895
0.107837
0.103292
0.0975824
0.0906291
0.0800634
0.0684231
0.0531791
0.0347631
0.0123963
-0.0110738
-0.0351809
-0.0480551
-0.0703809
-0.00362241
0.021136
0.0959128
0.133609
0.230144
0.240146
0.183828
0.153039
-0.0812518
-0.134011
-0.180491
-0.147726
-0.12056
-0.0498778
-0.00166922
0.0504592
0.0978983
0.119849
0.124687
0.125112
0.121745
0.117367
0.11196
0.106431
0.101213
0.0968978
0.106091
0.102104
0.096723
0.0902959
0.0816929
0.0698155
0.0568832
0.0409212
0.0247545
0.0109483
0.00558149
0.00926211
0.0463728
0.0555316
0.178537
0.236459
0.383086
0.391509
0.456756
0.314597
0.00946761
-0.0369424
-0.225299
-0.268987
-0.33376
-0.249228
-0.184432
-0.0537283
0.0365
0.087664
0.121568
0.132699
0.133483
0.12931
0.121863
0.11564
0.109923
0.106378
0.103659
0.0995745
0.103531
0.103583
0.0983519
0.0905383
0.0799104
0.0670082
0.0528205
0.0360064
0.0204574
0.00603548
-0.0027404
0.0263065
0.108779
0.164249
0.304456
0.387915
0.517639
0.526648
0.621164
0.497867
0.317622
0.132207
-0.0105123
0.0558307
0.0377932
0.136479
0.150034
0.156537
0.126065
0.111023
0.118028
0.12493
0.126841
0.121614
0.113151
0.105965
0.0991635
0.0950707
0.0921715
0.0906986
0.0922941
0.0899692
0.0880885
0.084876
0.0792878
0.0718022
0.0618818
0.0507139
0.0392089
0.0283617
0.0254683
0.0435676
0.0982462
0.124684
0.189619
0.23555
0.340222
0.367973
0.532464
0.485425
0.742475
0.702128
0.486052
0.487125
0.357738
0.310407
0.197035
0.114737
0.0729979
0.0850209
0.0986
0.104831
0.102872
0.0992376
0.0949099
0.0908103
0.0862096
0.0831123
0.0802317
0.0823234
0.091061
0.0885797
0.0859212
0.0829042
0.0798745
0.0774296
0.0732424
0.0698949
0.0647571
0.0628119
0.0667687
0.0559314
0.0553052
0.0501391
0.0808469
0.110058
0.168389
0.183188
0.305992
0.240576
0.454328
0.400229
0.238771
0.193692
0.0225099
-0.0195985
-0.0883957
-0.0139855
0.0264842
0.0455112
0.0527139
0.0622938
0.0671731
0.0728657
0.0759408
0.0787524
0.0804167
0.0821702
0.0823368
0.0807353
0.104213
0.103378
0.102937
0.102376
0.10169
0.101164
0.0990509
0.095515
0.0867634
0.0725465
0.0596683
0.043569
0.0460325
0.0648783
0.117578
0.155464
0.184564
0.188516
0.218431
0.050482
0.0104194
-0.0790115
-0.148746
-0.146399
-0.170514
-0.115919
-0.1049
-0.051513
-0.0788898
-0.0469894
-0.016462
0.00982356
0.0288605
0.0434247
0.0531814
0.0615082
0.0667971
0.0705381
0.0720718
0.0712525
0.112168
0.115056
0.119344
0.124427
0.128811
0.131995
0.133106
0.130721
0.121443
0.0992482
0.0716586
0.0490114
0.038485
0.0222508
0.0273153
0.0134647
0.0373817
0.0703665
0.166122
0.147199
0.139084
0.0469479
-0.0227507
-0.0315501
-0.0526348
-0.0457509
-0.0792188
-0.0741755
-0.0830258
-0.058897
-0.0370663
-0.016439
0.00105281
0.0141815
0.0243667
0.0330306
0.0390349
0.0440218
0.0480943
0.0504997
0.112951
0.117612
0.121735
0.126379
0.131201
0.135967
0.140032
0.141833
0.137274
0.115645
0.0750738
0.0117435
-0.0737055
-0.163709
-0.206484
-0.23814
-0.187007
-0.112333
0.0146555
0.0512402
0.291015
0.3641
0.318258
0.28902
0.171418
0.115928
0.0164814
-0.00379445
-0.0358607
-0.0350181
-0.0298213
-0.0203771
-0.00817373
0.00285828
0.012437
0.0206481
0.0268354
0.031608
0.0358571
0.0399576
0.10651
0.109445
0.110905
0.112912
0.117693
0.123759
0.130225
0.133555
0.133994
0.131823
0.127343
0.100474
0.062001
0.0109708
-0.0211534
-0.0625231
-0.0391707
-0.0207709
0.0996597
0.154698
0.323502
0.472515
0.457546
0.383695
0.281322
0.211008
0.0993365
0.0578485
-0.0153348
-0.0340203
-0.0280957
-0.0200565
-0.00791634
0.0044861
0.0152124
0.0250222
0.033192
0.0396374
0.0444754
0.0465815
0.0901753
0.0897115
0.0931331
0.0969806
0.103082
0.10946
0.116596
0.120827
0.120911
0.118371
0.12831
0.159191
0.222377
0.261479
0.280754
0.280333
0.313886
0.34142
0.469384
0.504147
0.433602
0.441576
0.338256
0.254075
0.198827
0.155699
0.0983722
0.0736956
0.00138139
-0.0212092
-0.0134074
-0.0066901
0.00517029
0.0161103
0.025783
0.0339492
0.0407027
0.0449322
0.0472662
0.0470528
0.0846558
0.0837795
0.0841146
0.0840707
0.0852713
0.0863643
0.0885794
0.0896128
0.0895473
0.0839555
0.0720248
0.0500678
0.0585054
0.10477
0.18543
0.250904
0.339723
0.382134
0.431155
0.427951
0.328726
0.267646
0.164936
0.115371
0.0729045
0.0517577
0.0337517
0.0362945
0.0228426
0.0229023
0.0204071
0.0212065
0.0271704
0.0311563
0.0353041
0.0375418
0.0394987
0.0404748
0.0418237
0.0438644
0.0803203
0.081831
0.0805495
0.077073
0.0722049
0.0658118
0.0584177
0.0469425
0.0321511
0.0138664
-0.00907172
-0.0257531
-0.0511808
-0.119951
-0.118152
-0.121654
-0.0717498
-0.0486695
0.0126815
0.0881879
0.11129
0.146777
0.150538
0.157318
0.130288
0.0990197
0.0573507
0.0408389
0.0351317
0.0411269
0.0432253
0.0463286
0.0498735
0.0502001
0.0503507
0.0497762
0.0501368
0.0511796
0.0527828
0.0544191
0.0633081
0.0629171
0.0600129
0.055343
0.048581
0.0394672
0.0285025
0.0120712
-0.00818113
-0.031294
-0.0523809
-0.0727214
-0.0622257
-0.106008
-0.113746
-0.134939
-0.144757
-0.134631
-0.111821
0.00618461
0.088016
0.139392
0.148628
0.129557
0.117367
0.111894
0.0878585
0.073952
0.0586268
0.0633582
0.0728711
0.0829889
0.0881606
0.0878299
0.0852239
0.0813318
0.0772063
0.0738206
0.0714676
0.0703977
0.0457315
0.0420852
0.0373626
0.0322787
0.0261073
0.0172186
0.00754343
-0.00498554
-0.0190356
-0.0322323
-0.0383632
-0.0460532
-0.00627539
0.00691079
0.068986
0.120885
0.17019
0.202409
0.222707
0.207843
0.0619608
0.044064
-0.0389333
-0.117198
-0.130435
-0.11622
-0.0816143
-0.0273037
0.0198432
0.0656976
0.0903043
0.107303
0.113969
0.11206
0.107238
0.100635
0.093688
0.0871739
0.0817462
0.0776459
0.0437394
0.0397299
0.0356332
0.0311639
0.0250162
0.0163414
0.00544623
-0.00483539
-0.016316
-0.0211966
-0.0233526
-0.0177988
0.0402441
0.0814451
0.175424
0.264963
0.324002
0.365745
0.337125
0.229662
0.0851411
0.0890467
0.000938791
-0.0844794
-0.0880566
-0.0914861
-0.0677829
-0.0310605
0.0173632
0.075225
0.0988685
0.107843
0.108687
0.104338
0.0990117
0.0927425
0.0878722
0.0845474
0.082289
0.0781429
0.0519279
0.0512818
0.0471786
0.0417325
0.0339671
0.0250116
0.0129065
0.00234679
-0.0107709
-0.0172444
-0.0293475
-0.0224121
0.0433834
0.0754693
0.128866
0.194236
0.222258
0.333321
0.406811
0.362063
0.324572
0.300858
0.188906
0.133761
0.164
0.1575
0.175846
0.175671
0.154203
0.138413
0.119546
0.107072
0.100394
0.0949973
0.0883127
0.0809533
0.0746416
0.0709503
0.0688489
0.0675248
0.050463
0.0501704
0.0491157
0.047402
0.0432402
0.0380003
0.0297644
0.0219698
0.0106689
0.00580981
-0.00139588
0.00383657
0.0322814
0.0316903
0.0389278
0.0717234
0.0890026
0.169779
0.249481
0.328479
0.350443
0.464234
0.430932
0.3246
0.320765
0.256402
0.222354
0.17359
0.127403
0.10231
0.0890346
0.0864831
0.0840676
0.0796721
0.0739812
0.0678414
0.0623359
0.0585847
0.0558885
0.0584352
0.0508189
0.0492227
0.04845
0.0482245
0.0476078
0.0471479
0.0447281
0.0435914
0.0397183
0.0406504
0.0439652
0.0459946
0.0489707
0.0544591
0.0749856
0.101907
0.120152
0.143389
0.152928
0.193193
0.173537
0.224787
0.139341
0.100496
0.0680947
0.00971015
-0.0102054
-0.0326291
-0.00475867
0.0292866
0.0371532
0.0468724
0.0509768
0.0544069
0.0563517
0.0572509
0.0577843
0.0588265
0.0590802
0.0578251
0.0634424
0.0631965
0.0638101
0.0653326
0.0671673
0.0695258
0.0710197
0.0725734
0.0718564
0.0704306
0.0692764
0.0723585
0.0968812
0.123543
0.160618
0.186087
0.198371
0.206734
0.162282
0.0842601
-0.00954583
-0.0420814
-0.105637
-0.133657
-0.133163
-0.141183
-0.111835
-0.0782353
-0.0472079
-0.0386208
-0.0230535
-0.000765247
0.0135948
0.0283829
0.0385
0.0457667
0.0493878
0.0518777
0.0529583
0.052005
0.0749596
0.0782724
0.0835804
0.0899606
0.0957069
0.10144
0.105817
0.108473
0.106379
0.101582
0.0944564
0.0796932
0.0703899
0.0481124
0.0245972
0.011721
0.00349396
0.0597517
0.0831369
0.0690767
0.118015
0.112841
0.080416
0.024042
0.00967817
-0.0261674
-0.0283147
-0.0340917
-0.045842
-0.0443906
-0.0350768
-0.023292
-0.00921692
0.00364512
0.0143038
0.0222796
0.0270099
0.0313989
0.0355001
0.0368609
0.0783459
0.0829335
0.0879791
0.093731
0.0994572
0.105277
0.110314
0.113404
0.108457
0.0959158
0.0657402
0.0119809
-0.0368708
-0.0706381
-0.0956503
-0.0854421
-0.0755071
-0.00662125
0.0475147
0.0605702
0.178445
0.250327
0.31829
0.29953
0.258676
0.166427
0.0992058
0.0455163
0.000166923
-0.0149443
-0.0199279
-0.017058
-0.00983033
-0.00306493
0.00471382
0.0124509
0.0186445
0.0236953
0.0275751
0.0306164
0.071764
0.0746221
0.0768352
0.0796563
0.0843615
0.0900284
0.0959929
0.1024
0.109283
0.115736
0.109537
0.0993288
0.0960045
0.0969707
0.0783055
0.0834879
0.0606516
0.0873281
0.177788
0.19165
0.267226
0.327501
0.322555
0.255453
0.211252
0.140201
0.0827477
0.0303154
-0.00802721
-0.0104331
-0.0129389
-0.00663505
-0.000330764
0.00558368
0.0126713
0.0213123
0.0287661
0.0325375
0.034347
0.0368556
0.0574648
0.0564293
0.0603497
0.0651618
0.0714403
0.0784988
0.0854968
0.0921655
0.101588
0.119232
0.144462
0.182734
0.212614
0.236005
0.243201
0.278153
0.295582
0.376313
0.398947
0.318756
0.310601
0.267053
0.190834
0.107504
0.0822986
0.0398022
0.0231694
-0.0111225
-0.0213485
-0.00398861
-0.00543848
0.00449677
0.0114591
0.0188598
0.0258419
0.0325178
0.0390164
0.0430465
0.0456657
0.0454564
0.053494
0.0542363
0.0551661
0.0559605
0.0580753
0.0609985
0.0646911
0.0682084
0.0692326
0.0720403
0.0678092
0.0750863
0.0992414
0.141198
0.169812
0.22859
0.248675
0.312998
0.328776
0.217008
0.243679
0.167142
0.120775
0.0730402
0.0586163
0.0339464
0.0380999
0.0254521
0.0227963
0.0260812
0.0222783
0.0274272
0.0310367
0.0355794
0.0388192
0.040841
0.0424588
0.0428941
0.0434461
0.0433111
0.0476632
0.0497863
0.0502881
0.0491975
0.0466529
0.0425447
0.0372844
0.0301649
0.0194259
0.00417305
-0.00576721
-0.025595
-0.0601657
-0.0606518
-0.0788218
-0.0478053
-0.0430672
-0.0164342
0.064819
0.0454272
0.137175
0.171095
0.197797
0.194856
0.177589
0.141662
0.117495
0.090625
0.066792
0.055846
0.0526675
0.0517775
0.0504577
0.0494097
0.0477689
0.0456692
0.0445417
0.0431765
0.0429694
0.043465
0.0286617
0.0288418
0.0279362
0.02624
0.0221297
0.015338
0.0061887
-0.00538056
-0.0183577
-0.032368
-0.0438633
-0.052902
-0.075365
-0.0780023
-0.107406
-0.094765
-0.10485
-0.0604757
-0.0123691
0.0274067
0.0955836
0.144517
0.150121
0.126355
0.125607
0.122733
0.12238
0.108572
0.0901732
0.0839721
0.0815658
0.0800889
0.0775434
0.0739522
0.069719
0.0651253
0.0614487
0.0578915
0.0551398
0.0535975
0.0121551
0.00887765
0.00513685
0.00124752
-0.00334582
-0.00921618
-0.0163852
-0.0239016
-0.0316364
-0.034353
-0.0308201
-0.012523
0.0103622
0.0598824
0.0905828
0.160003
0.19697
0.240274
0.187211
0.131186
0.0736294
0.0553846
-0.00703589
-0.0680499
-0.0787155
-0.077798
-0.0444648
-0.00699317
0.0334799
0.0683984
0.0858467
0.0925398
0.0949089
0.092112
0.086971
0.0813994
0.0757731
0.0702507
0.0651989
0.0617676
0.00794983
0.00337982
0.000220799
-0.00296701
-0.00629327
-0.00946867
-0.013485
-0.0173715
-0.0199817
-0.0199078
-0.00907445
0.0140817
0.0544662
0.124843
0.179167
0.251058
0.297884
0.30893
0.236068
0.194374
0.139016
0.135355
0.0670773
0.00433964
-0.00447099
-0.0160129
-0.00386087
0.00103341
0.0222415
0.0538849
0.0791178
0.0864973
0.0880254
0.0843024
0.078963
0.0736465
0.0687057
0.0649428
0.0614183
0.058284
0.0151283
0.01216
0.0101577
0.00725185
0.00346502
-2.31865e-05
-0.00414525
-0.00937193
-0.0135189
-0.0208971
-0.0202454
-0.0248166
-0.00886066
0.0416845
0.0829076
0.136267
0.202295
0.289877
0.334863
0.324828
0.286153
0.276605
0.215485
0.167967
0.157196
0.144646
0.151185
0.142296
0.130112
0.1149
0.10452
0.0901055
0.0796693
0.0720551
0.0659149
0.0596361
0.0531908
0.0487321
0.0452487
0.0458809
0.0234626
0.0244159
0.021952
0.0188531
0.0149659
0.0105743
0.00598894
-0.000332107
-0.00481268
-0.0137556
-0.0159458
-0.0287846
-0.0270616
-0.00568608
0.0085698
0.0464346
0.0937964
0.17071
0.235895
0.299593
0.315004
0.391151
0.36156
0.30127
0.263948
0.212422
0.184661
0.153449
0.126715
0.0990906
0.0810735
0.0679246
0.0619756
0.0570923
0.0520732
0.0471148
0.0435693
0.0422408
0.0421276
0.0418545
0.021352
0.0216141
0.0209592
0.0214377
0.0210558
0.0200829
0.018821
0.0158125
0.0154104
0.0120796
0.0161389
0.0210432
0.0307479
0.0443653
0.0562251
0.0963974
0.129497
0.165056
0.190566
0.222609
0.195338
0.252842
0.186362
0.141038
0.11356
0.0606603
0.0409343
0.01291
0.00853827
0.0169715
0.0332082
0.0373402
0.0399771
0.0402532
0.0400629
0.0396002
0.0390062
0.0375442
0.0358058
0.033981
0.0222881
0.0220891
0.0222401
0.0233378
0.0249854
0.0273436
0.0297774
0.031146
0.0335035
0.0346113
0.0375447
0.0468534
0.0708121
0.103841
0.129864
0.167737
0.1913
0.205521
0.194973
0.151325
0.0606499
0.0443598
-0.0134412
-0.0560182
-0.0654693
-0.0947099
-0.0769343
-0.0747821
-0.043977
-0.0284787
-0.0196065
-0.00638796
0.00668654
0.0137627
0.0190197
0.0209694
0.0202087
0.0174432
0.0150931
0.0134069
0.0319882
0.0336931
0.0360127
0.0382831
0.0410198
0.0441953
0.0476332
0.0499249
0.0512585
0.0515677
0.0493105
0.0433369
0.037705
0.0298342
0.0110781
0.0102873
0.0169332
0.0638444
0.105178
0.106397
0.091026
0.0930289
0.076766
0.0143058
0.00150764
-0.0297452
-0.0283139
-0.0474017
-0.0446787
-0.0488988
-0.043415
-0.0356165
-0.0272327
-0.0194854
-0.0123722
-0.00791923
-0.00509532
-0.00364
-0.00265392
-0.00252772
0.0357973
0.0383767
0.0414821
0.0439261
0.0473382
0.0511022
0.0545502
0.0552085
0.0508244
0.0411811
0.0170598
-0.0222795
-0.0632809
-0.0919851
-0.116096
-0.106099
-0.0910032
-0.0174331
0.0500307
0.0803382
0.136462
0.203971
0.294685
0.268505
0.229477
0.155051
0.108431
0.045424
0.00881083
-0.0207682
-0.0327922
-0.0370849
-0.0354177
-0.0320101
-0.0270424
-0.0225872
-0.0178514
-0.0131912
-0.0093508
-0.0062638
0.0263309
0.0271085
0.0301017
0.0327586
0.0370861
0.0413563
0.0461092
0.0498059
0.0506864
0.0477533
0.0334225
0.0203133
0.0153524
0.0186129
0.00868736
0.0243305
0.0218265
0.0793751
0.145752
0.159682
0.210991
0.263976
0.310127
0.266463
0.209568
0.150153
0.109687
0.0528468
0.0182478
-0.00394427
-0.0156287
-0.0184639
-0.0191065
-0.0187105
-0.0173485
-0.0162296
-0.0145922
-0.0121772
-0.00920464
-0.0046829
0.0209847
0.0198677
0.0183146
0.0191502
0.0229274
0.0274854
0.0328769
0.0398694
0.0507798
0.0671427
0.0826238
0.102744
0.118277
0.133296
0.138498
0.169964
0.194707
0.268974
0.317739
0.306927
0.312131
0.302178
0.251964
0.166475
0.103923
0.0513204
0.0193863
-0.022165
-0.0308293
-0.0231792
-0.0221673
-0.0159799