/*--------------------------------*- C++ -*----------------------------------*\
| =========                 |                                                 |
| \\      /  F ield         | OpenFOAM: The Open Source CFD Toolbox           |
|  \\    /   O peration     | Version:  v2106                                 |
|   \\  /    A nd           | Website:  www.openfoam.com                      |
|    \\/     M anipulation  |                                                 |
\*---------------------------------------------------------------------------*/
FoamFile
{
    version     2.0;
    format      ascii;
    arch        "LSB;label=32;scalar=64";
    class       volVectorField;
    location    "0";
    object      U;
}
// * * * * * * * * * * * * * * * * * * * * * * * * * * * * * * * * * * * * * //

dimensions      [0 1 -1 0 0 0 0];

internalField   nonuniform List<vector> 
11644
(
(-8.29932e-05 -8.2984e-06 -1.97685e-22)
(-8.52056e-05 -2.28872e-05 -5.45157e-22)
(-8.48089e-05 -3.39139e-05 -2.9249e-22)
(-7.72522e-05 -4.48371e-05 0)
(-7.40751e-05 -6.03969e-05 0)
(-7.43297e-05 -0.000101809 0)
(-8.81736e-05 -0.00011826 0)
(-9.45031e-05 -0.000126409 0)
(-9.98967e-05 -0.000122513 0)
(-0.000103482 -0.000113178 0)
(-0.000100515 -7.53371e-05 0)
(-8.34401e-05 -5.23575e-05 0)
(-5.6703e-05 -4.33073e-05 0)
(-4.45317e-05 -7.4473e-05 0)
(0.000250076 -0.000101303 0)
(0.000539875 -0.000383736 0)
(-0.000203876 -0.000375046 0)
(-0.00184066 -2.05211e-05 0)
(-0.00204946 0.000492007 0)
(-0.00058824 0.000202161 -1.88062e-31)
(0.000576787 -0.000155822 -8.1849e-33)
(0.00175195 -0.000261247 0)
(0.00139388 -0.000596891 0)
(-6.07297e-05 -0.000596676 0)
(-0.000651834 -0.000543399 0)
(-0.000461039 -0.000293494 0)
(-0.000232469 -0.000167822 0)
(-0.000101805 -5.48464e-05 0)
(-9.58799e-05 9.36922e-06 0)
(-7.22678e-05 4.54191e-05 0)
(-6.61138e-05 5.05906e-05 0)
(-6.50322e-05 5.56422e-05 0)
(-7.51427e-05 5.34687e-05 0)
(-8.65802e-05 4.98782e-05 0)
(-9.49862e-05 4.7035e-05 0)
(-8.77215e-05 6.40556e-05 0)
(-8.48118e-05 5.20923e-05 0)
(-7.89346e-05 4.39478e-05 0)
(-7.46918e-05 3.07045e-05 0)
(-7.56812e-05 1.27332e-05 -3.83291e-23)
(-6.32024e-05 -1.79605e-05 -2.53925e-22)
(-5.80141e-05 -4.4776e-05 -2.35216e-22)
(-5.27021e-05 -8.00338e-05 -1.26327e-22)
(-3.89511e-05 -0.000115882 0)
(-2.9875e-05 -0.000157112 0)
(-2.0697e-05 -0.000187951 0)
(-1.05358e-05 -0.000251185 0)
(-1.11963e-07 -0.000326397 0)
(9.12502e-06 -0.000402886 0)
(2.11791e-05 -0.000468727 0)
(2.49509e-05 -0.000544336 0)
(5.28457e-05 -0.000572271 0)
(0.000106306 -0.000562437 0)
(0.000206621 -0.000534705 0)
(3.97483e-05 -0.000420143 0)
(-0.000972785 0.000146846 -4.24393e-23)
(-0.00146494 0.0010484 -1.49916e-23)
(0.000786097 0.00062235 -1.10916e-21)
(0.00289652 -0.00199122 -2.05581e-22)
(0.00174133 -0.00413499 -2.18871e-21)
(-0.00115415 -0.00449588 4.30532e-21)
(-0.00305883 -0.00291185 -2.23362e-21)
(-0.00170938 -0.000440055 1.37759e-21)
(0.000496353 0.000261186 -5.97862e-24)
(0.000507004 -0.000316444 3.10208e-23)
(-0.00015608 -0.0005707 0)
(-0.000245997 -0.000480633 0)
(-0.000239891 -0.000284458 0)
(-0.000118475 -0.000118907 0)
(-7.40294e-05 2.50713e-05 0)
(-6.32432e-05 0.000139589 0)
(-6.04103e-05 0.000211515 0)
(-5.11046e-05 0.000249401 0)
(-4.94425e-05 0.000260255 0)
(-5.2429e-05 0.000246497 0)
(-4.72487e-05 0.000200476 0)
(-4.12457e-05 0.000164763 0)
(-2.662e-05 0.000121413 0)
(-2.54872e-05 7.65375e-05 0)
(-3.22655e-05 2.5232e-05 0)
(-6.33739e-05 -6.54937e-06 0)
(-4.6952e-05 -4.56833e-05 0)
(-2.05469e-05 -9.40465e-05 0)
(5.32243e-06 -0.000148492 0)
(2.58585e-05 -0.000212351 -2.31956e-22)
(5.88102e-05 -0.00027033 0)
(0.000115352 -0.00034964 0)
(0.000180182 -0.00043596 0)
(0.000237008 -0.000533847 0)
(0.000285972 -0.000644559 0)
(0.000323685 -0.000718757 0)
(0.000276524 -0.000776579 0)
(0.000225509 -0.000775019 7.74095e-24)
(-0.00014559 -0.000623404 1.98e-22)
(-0.000657788 -0.000350683 1.72765e-21)
(-0.000636233 -0.000105088 -6.52011e-21)
(0.000485731 -0.00119151 7.90821e-21)
(0.00168045 -0.00237515 -9.38627e-22)
(0.00195096 -0.00167693 -2.73565e-22)
(0.000766776 -0.000130909 3.56822e-21)
(-0.000692359 0.000139002 -7.61748e-21)
(-0.00209079 -0.00132074 1.09432e-20)
(-0.00219533 -0.0025996 -5.52589e-21)
(-0.00136987 -0.00197688 -8.58315e-22)
(-0.000220801 -0.000671951 -1.3088e-21)
(4.04409e-05 -0.000391641 -9.04418e-22)
(-0.000190202 -0.000243042 -4.40144e-22)
(-0.000217181 -7.84748e-05 -8.23814e-24)
(-0.000181928 0.000120958 0)
(-0.000123091 0.000270927 0)
(-5.73094e-05 0.000373658 0)
(-2.16928e-05 0.000431692 0)
(2.73098e-06 0.000443926 0)
(1.97709e-05 0.000421395 0)
(3.9072e-05 0.00037512 0)
(3.49706e-05 0.000308513 0)
(3.84284e-05 0.000243869 0)
(3.97286e-05 0.000170523 0)
(3.34232e-05 9.3586e-05 0)
(1.92535e-05 3.17606e-05 0)
(-6.36601e-05 -1.5123e-05 0)
(-4.73929e-05 -3.93795e-05 0)
(-1.04486e-05 -8.34145e-05 0)
(2.59169e-05 -0.000141395 0)
(7.63609e-05 -0.000200182 0)
(0.000142462 -0.000277438 0)
(0.000238073 -0.00036517 0)
(0.000341918 -0.000453378 0)
(0.000464571 -0.000553219 0)
(0.000566797 -0.000634882 0)
(0.000616768 -0.000764287 -8.56082e-24)
(0.000611651 -0.000861764 2.62863e-22)
(0.000408087 -0.000930751 -1.5492e-21)
(0.00027358 -0.000887358 -1.66757e-21)
(0.00030783 -0.000903812 -2.7322e-22)
(0.000879633 -0.00147486 4.70879e-21)
(0.000916312 -0.00230825 5.95371e-21)
(-0.000221204 -0.00174103 -1.58823e-20)
(-0.000784696 -2.87812e-06 6.93038e-21)
(-0.000713948 0.00121824 -1.40887e-20)
(-0.000478868 0.00130922 1.65601e-20)
(-2.95086e-05 0.000609915 -1.93382e-20)
(4.09449e-06 -0.00108663 2.79682e-20)
(-0.00125097 -0.00219524 -2.23757e-20)
(-0.00154478 -0.0015629 7.42984e-21)
(-0.000674669 -0.000628856 3.49334e-21)
(-0.000180859 -7.02349e-05 5.83326e-23)
(-0.00012978 0.000239457 1.44243e-21)
(-7.81234e-05 0.000422797 4.43418e-22)
(-4.56763e-05 0.000559932 -3.83454e-24)
(-5.448e-06 0.000622918 0)
(5.64373e-05 0.000601897 0)
(9.30392e-05 0.000565227 0)
(0.000110108 0.000498496 0)
(0.00012207 0.000431251 0)
(0.000116509 0.00035276 0)
(0.000108763 0.000273567 0)
(0.000105654 0.000186272 0)
(0.000100005 0.000105633 0)
(8.97847e-05 2.55623e-05 0)
(-6.23098e-05 3.32875e-06 0)
(-4.74829e-05 -1.82489e-05 0)
(-2.34379e-05 -6.27121e-05 0)
(2.49361e-05 -9.46947e-05 0)
(9.20055e-05 -0.000141368 0)
(0.000186415 -0.000207576 0)
(0.000297849 -0.0002843 0)
(0.000425239 -0.000375691 0)
(0.000552327 -0.000474571 0)
(0.000690485 -0.000606366 9.22921e-23)
(0.000845627 -0.00079078 -2.14519e-21)
(0.000920309 -0.00101351 -1.48102e-21)
(0.0010033 -0.00111779 6.2835e-21)
(0.00102903 -0.00125663 -1.80988e-20)
(0.00113894 -0.0016136 2.73066e-20)
(0.00153833 -0.00183612 4.52592e-21)
(0.000532773 -0.00134191 -1.26575e-20)
(-0.000978359 -0.000921439 1.54046e-20)
(-0.00227911 -0.000969357 -3.76974e-20)
(-0.00210953 -0.000625477 -3.22101e-20)
(-0.000699391 -0.000517134 3.0183e-20)
(0.000370543 -0.000680508 3.90603e-20)
(0.000156377 -0.000431802 -1.50945e-20)
(-0.000364202 -0.000827189 1.30073e-20)
(-0.00144737 -0.00136169 -1.57878e-20)
(-0.00149311 -0.000737808 -1.33339e-20)
(-0.00104143 1.35295e-05 2.01384e-20)
(-0.000361952 0.000480838 3.20197e-23)
(-0.000121547 0.000703535 -1.01146e-20)
(9.86519e-05 0.000780431 2.43994e-21)
(0.000201819 0.000770728 1.34485e-22)
(0.000216062 0.00071932 0)
(0.000228466 0.000615498 0)
(0.000217377 0.000528989 0)
(0.000205876 0.000441438 0)
(0.000194894 0.000360448 0)
(0.000183379 0.000279793 0)
(0.000176933 0.000194598 0)
(0.000171536 0.000112928 0)
(0.000170007 3.71351e-05 0)
(-9.8064e-05 -4.2259e-06 0)
(-7.32288e-05 -8.91892e-08 0)
(-5.04052e-05 7.27837e-06 0)
(5.82222e-06 -2.42391e-06 0)
(7.9685e-05 -1.92795e-05 0)
(0.000188455 -5.25141e-05 0)
(0.000308007 -0.000106487 0)
(0.000443687 -0.00019845 0)
(0.000590967 -0.000332927 -2.0595e-22)
(0.000846604 -0.00055978 -4.41071e-22)
(0.00118475 -0.000781751 3.10861e-21)
(0.00155132 -0.000905501 -2.16408e-22)
(0.00177852 -0.00123427 -6.56145e-21)
(0.00238004 -0.00168642 1.02564e-20)
(0.00238498 -0.00154964 -4.76679e-20)
(0.00142134 -0.00129157 4.74765e-20)
(0.000640982 -0.00075393 -4.58003e-21)
(-0.00061858 -0.00131271 -3.36768e-21)
(-0.00206123 -0.00203669 -4.18334e-20)
(-0.00216014 -0.00227606 1.14059e-19)
(-0.00103682 -0.00255624 -1.05425e-19)
(-0.000367577 -0.0022527 5.27076e-20)
(-0.00065283 -0.000971646 -2.05461e-20)
(-0.00110572 6.96016e-05 1.34732e-20)
(-0.00119645 -0.000409347 -5.20902e-20)
(-0.00139793 -0.000277169 4.7131e-20)
(-0.00112065 0.000217197 -1.2564e-20)
(-0.000683286 0.000687349 -7.69842e-21)
(-0.000192187 0.000674576 1.22749e-20)
(0.000108341 0.000669537 3.2291e-21)
(0.000320569 0.000678986 -8.69722e-23)
(0.000358446 0.000667264 -3.6923e-22)
(0.000302764 0.00060953 0)
(0.000266277 0.000521943 0)
(0.00024165 0.000440232 0)
(0.000235412 0.000370399 0)
(0.000232616 0.000286513 0)
(0.000236545 0.000227565 0)
(0.000238635 0.000113094 0)
(0.000247188 5.48879e-05 0)
(-0.000177871 1.29157e-05 0)
(-0.000171635 2.94464e-05 0)
(-0.000125202 4.11723e-05 0)
(-8.99726e-05 7.40238e-05 0)
(-1.75916e-05 0.000109355 0)
(7.70718e-05 0.000138963 0)
(0.000203576 0.000151375 0)
(0.000365969 0.000126105 -1.34246e-22)
(0.000706739 -2.9738e-06 -1.04347e-22)
(0.0011277 -0.000215579 1.03166e-21)
(0.00149657 -0.000551098 -6.64684e-21)
(0.00190898 -0.00100749 4.06796e-21)
(0.00229164 -0.00124307 1.05217e-20)
(0.00212345 -0.0013543 -7.20584e-21)
(0.00154841 -0.0017653 -1.88463e-20)
(0.000310563 -0.00162251 2.34587e-20)
(0.000614424 -0.00110678 -1.03749e-20)
(0.000518569 -0.00115019 -2.68626e-20)
(-0.000387335 -0.00191947 -1.65923e-20)
(-0.00106256 -0.00282364 1.04675e-21)
(-0.000902674 -0.00275921 -5.03251e-20)
(-0.000910285 -0.00245741 -6.28817e-20)
(-0.000980059 -0.00115959 -3.77817e-20)
(-0.00158252 -0.00114827 -2.57071e-20)
(0.000600813 -4.52973e-05 -1.3847e-20)
(-3.43409e-05 0.000472891 2.03726e-20)
(-0.00103255 0.000571888 9.56655e-21)
(-0.00056414 0.000478247 -7.19008e-21)
(-0.000498897 0.000551552 -1.0046e-20)
(-0.000285008 0.000661973 8.68447e-21)
(-4.05979e-05 0.00068105 -1.76064e-21)
(0.000183617 0.000658351 -3.15372e-22)
(0.000284375 0.00066365 3.50114e-25)
(0.000263564 0.000591147 0)
(0.000260289 0.000488477 0)
(0.000255503 0.00038017 0)
(0.000265923 0.000284178 0)
(0.000269895 0.000164077 0)
(0.000284975 0.000136832 0)
(0.000290404 -2.33616e-05 0)
(-0.000311081 3.90073e-05 0)
(-0.000308803 4.64548e-05 0)
(-0.000313028 0.000113984 0)
(-0.000298147 0.000163557 0)
(-0.000258894 0.000231022 0)
(-0.000203875 0.000305403 0)
(-0.000103563 0.000383212 0)
(0.000145322 0.000421126 8.57251e-22)
(0.000616466 0.000371101 -3.09868e-21)
(0.00118055 0.000220071 -1.26969e-21)
(0.00170614 -4.92639e-05 2.33952e-21)
(0.00196151 -0.000529321 6.68829e-21)
(0.00252661 -0.000513818 1.5913e-21)
(0.00238755 -0.00184228 -5.32456e-21)
(0.00155753 -0.000969866 -4.11146e-21)
(0.00143476 -0.00262819 1.5392e-20)
(0.000117127 -0.0010266 -9.80765e-21)
(0.00213284 -0.000448445 4.39266e-20)
(0.0011332 -0.000845774 -1.93756e-20)
(0.000361691 -0.0012986 -1.42908e-20)
(-0.000489731 -0.00110614 4.67871e-20)
(-0.0016314 -0.0018057 4.71165e-20)
(-0.00216835 -0.00125307 2.2423e-20)
(-0.00184366 -0.000174407 5.00097e-21)
(8.61846e-05 -0.000571504 1.82361e-20)
(0.000333887 0.000106838 2.16739e-20)
(-0.000330997 0.000102007 -2.40517e-20)
(-0.000838928 0.000929048 -2.38461e-22)
(-0.00090242 0.000666495 -7.15695e-21)
(-0.000850969 0.000893696 9.74727e-21)
(-0.000552838 0.00091678 -2.22874e-21)
(-0.000190086 0.000881146 6.04317e-22)
(0.000127246 0.000785468 1.04153e-22)
(0.000261828 0.000733849 0)
(0.000281786 0.000630938 0)
(0.000296497 0.000517617 0)
(0.000312085 0.000439001 0)
(0.000311618 0.00033976 0)
(0.00031227 0.000168808 0)
(0.000313745 0.000164487 0)
(-0.000477309 -5.33547e-05 0)
(-0.000481697 8.37773e-05 0)
(-0.000507845 9.40405e-05 0)
(-0.000480861 0.000173546 0)
(-0.000494781 0.00025211 0)
(-0.000480955 0.000347925 0)
(-0.000436742 0.00043268 3.49777e-23)
(-0.000157076 0.000433564 1.13706e-22)
(0.000367976 0.000410144 -1.69128e-21)
(0.000863983 0.000298103 2.23915e-21)
(0.00136179 0.000186268 -7.55571e-22)
(0.00183524 0.000468136 -4.42688e-21)
(0.00185861 -0.00109445 4.14858e-21)
(0.00101978 -0.000699283 1.90323e-20)
(0.00255513 -0.000527754 5.20474e-21)
(0.00216512 -0.00109506 -8.76848e-21)
(0.00386597 -0.000276165 -1.62156e-20)
(-0.00119926 -0.000705934 1.35034e-20)
(0.00026177 -0.000395946 -5.61739e-20)
(0.000706487 -0.000614102 4.80075e-20)
(-0.000148846 -0.000263894 5.99272e-21)
(-0.0013543 -0.000540023 1.25131e-21)
(-0.00150125 -0.000875016 4.41666e-20)
(-0.00158796 -0.00257709 2.77838e-20)
(-0.00417339 0.000513086 4.82054e-21)
(-0.00303498 0.000860106 -8.88656e-21)
(-0.00249913 0.00110944 2.92621e-20)
(-0.00160772 0.00151192 -5.44737e-22)
(-0.00166883 0.00139861 -4.1311e-23)
(-0.00140496 0.00115643 1.56539e-21)
(-0.000971302 0.00102886 -3.41049e-21)
(-0.000558672 0.000991067 8.4647e-22)
(-0.00010269 0.000888793 1.1238e-21)
(0.000179212 0.000806237 -7.60041e-23)
(0.000244494 0.000687554 0)
(0.000286121 0.000549379 0)
(0.000307561 0.000389408 0)
(0.000371451 0.000334927 0)
(0.000351985 0.000192808 0)
(0.000375801 -2.15978e-05 0)
(-0.00060256 0.000109872 0)
(-0.000640083 -1.61958e-05 0)
(-0.000582745 4.07071e-05 0)
(-0.00069157 0.000116401 0)
(-0.000746463 0.000194316 0)
(-0.000822239 0.000267644 0)
(-0.000790771 0.000305085 -3.32266e-22)
(-0.00044621 0.000186217 8.17837e-22)
(9.25083e-05 5.43427e-05 2.81498e-22)
(0.000432842 -0.000105355 -5.51322e-22)
(0.000595043 -0.000469546 -4.83668e-21)
(0.000883199 -0.000257606 6.6095e-21)
(0.00131167 0.00194134 -2.53868e-21)
(0.00269522 0.000845085 1.31766e-21)
(0.00291199 -0.000493687 1.60672e-21)
(0.0019926 -0.00138372 2.38843e-21)
(0.00159885 -0.000892167 -2.0659e-21)
(0.000920708 -0.0019944 -8.17953e-21)
(0.00111668 -0.00239052 1.69245e-20)
(0.000549484 -0.00204587 3.37781e-20)
(-0.000189551 -0.00189041 -1.17744e-20)
(-0.00138971 -0.00171814 1.14461e-20)
(-0.00282204 -0.00133574 -4.19069e-21)
(-0.00370445 -0.000541868 -1.09832e-20)
(-0.00442667 0.00119554 2.86328e-21)
(-0.00485579 0.00170114 1.5236e-20)
(-0.00471749 0.0022781 4.86474e-21)
(-0.00254451 0.00517126 -1.34636e-21)
(-0.00225761 0.00167578 5.83446e-21)
(-0.00190648 0.00104136 -3.1797e-21)
(-0.00144329 0.00109595 -2.24231e-21)
(-0.000908813 0.00108435 7.15217e-22)
(-0.000298336 0.00104991 4.5897e-22)
(0.000160586 0.000981418 1.68482e-22)
(0.000302811 0.000845822 0)
(0.000293665 0.000661067 0)
(0.000292924 0.000453622 0)
(0.000263325 0.00020518 0)
(0.000406137 0.000190201 0)
(0.000423284 5.13401e-05 0)
(-0.000734639 -5.35456e-05 0)
(-0.000730306 -5.39477e-05 0)
(-0.000916519 -3.34131e-05 0)
(-0.00099414 -3.68343e-05 0)
(-0.001028 3.94203e-05 0)
(-0.00108283 0.000115411 0)
(-0.000954363 8.00983e-05 1.78767e-22)
(-0.000471728 -3.20774e-06 -3.90969e-22)
(-1.63174e-05 -0.000171159 2.88906e-22)
(0.000208457 -0.000436664 -1.34363e-22)
(0.000219004 -0.000581703 1.34804e-21)
(2.27373e-06 -0.00102659 -4.08591e-22)
(-1.42883e-05 0.00182325 -1.38048e-22)
(0.00185961 0.000767306 -2.20681e-21)
(0.00160399 -0.000402349 -3.26896e-21)
(0.00306643 -9.55281e-06 3.50942e-21)
(0.00424965 -0.00113877 2.0408e-21)
(0.00341245 -0.00260066 4.8227e-22)
(0.00175369 -0.0040294 1.05564e-21)
(0.000240688 -0.00433047 3.90996e-20)
(-8.84929e-05 -0.00379567 -1.70102e-20)
(-0.00137648 -0.004935 2.91166e-20)
(-0.00473164 -0.00358129 -2.31292e-21)
(-0.00663716 -0.000767793 1.02599e-21)
(-0.00670911 0.00250115 -7.59644e-22)
(-0.00546089 0.00338119 -9.62534e-22)
(-0.00446222 0.000352695 -2.59141e-21)
(-0.00310236 0.00480811 -1.5557e-22)
(-0.00284794 0.00133781 -1.37528e-22)
(-0.00245671 0.00177016 -1.31818e-22)
(-0.00180938 0.00169867 1.0819e-21)
(-0.0012215 0.00152135 -7.69037e-22)
(-0.000513703 0.0013849 4.45174e-22)
(0.000191462 0.00122664 -2.67661e-22)
(0.000503641 0.00107991 0)
(0.000598399 0.00084148 0)
(0.000671769 0.000690566 0)
(0.000627024 0.000491422 0)
(0.000449884 0.000248052 0)
(0.00045958 0.000148404 0)
(-0.000719705 -0.000250497 0)
(-0.000755175 -2.85391e-05 0)
(-0.000748618 1.52265e-05 0)
(-0.000752053 8.01806e-05 0)
(-0.000939018 7.13605e-05 0)
(-0.00107706 6.26925e-05 0)
(-0.000903097 -7.34906e-05 -2.13921e-23)
(-0.00037171 -5.40694e-05 -3.77171e-23)
(4.85987e-05 -0.000112145 -2.74147e-23)
(0.000250985 -0.00031039 1.01047e-22)
(0.00036596 -0.00017746 -1.43797e-22)
(0.000258686 0.000329114 -8.50308e-22)
(-0.000272973 0.00107065 9.08986e-22)
(-0.00112613 0.0013745 1.94954e-21)
(-4.94591e-05 0.00276144 2.03404e-21)
(0.0023537 0.00205419 2.0834e-21)
(0.00481331 0.00149798 2.71369e-21)
(0.00643449 -0.000395265 -1.65997e-22)
(0.0125468 -0.0118762 -6.85382e-21)
(-0.0182739 -0.0126219 6.10902e-21)
(-0.0123389 0.00149222 1.36783e-21)
(-0.00963994 0.00481346 4.01835e-21)
(-0.0062215 0.00557963 2.25413e-22)
(-0.00435103 0.00636133 5.57347e-22)
(-0.00347029 0.00461472 -3.40172e-22)
(-0.00316626 0.00340486 -1.5218e-22)
(-0.00225628 0.00329208 4.09763e-22)
(-0.00165971 0.00264578 -2.28775e-22)
(-0.00102236 0.00223814 5.34354e-23)
(-0.000323907 0.00182889 -7.14816e-23)
(0.000392766 0.00145854 -6.5351e-23)
(0.000633747 0.00123015 0)
(0.000592177 0.000977506 0)
(0.000484133 0.000786725 0)
(0.000561382 0.000698903 0)
(0.000550167 0.000357305 0)
(0.000507634 0.000150333 0)
(-0.000555507 0.000544176 0)
(-0.000789469 5.26217e-05 0)
(-0.000744993 5.42159e-05 0)
(-0.000785261 -0.000182418 0)
(-0.000824545 -0.000296365 0)
(-0.000938699 -0.000371853 0)
(-0.000738144 -0.000293019 1.64092e-23)
(-0.000138399 -0.000318394 -5.97001e-23)
(0.000544924 -0.000392622 1.56139e-22)
(0.00125548 -0.000267669 3.49575e-23)
(0.00131884 -0.000420669 -2.87794e-22)
(0.000695983 -6.7368e-05 -9.41905e-22)
(0.000102934 0.00237607 1.60435e-21)
(0.00096673 0.00368928 -2.07541e-21)
(0.0014132 0.0053234 -1.08036e-21)
(0.00140582 0.00762651 2.40436e-21)
(0.00564784 0.00807616 2.74438e-21)
(0.0117122 0.00658141 -6.76597e-22)
(0.00150726 -0.00741152 -4.15264e-20)
(-0.00657723 -0.00630353 -1.15455e-21)
(-0.0226035 0.00754662 4.12521e-22)
(-0.0107108 0.0115525 1.23112e-21)
(-0.00561431 0.0104461 8.15504e-22)
(-0.00289627 0.00981386 -3.01099e-21)
(-0.00116565 0.00660472 1.07152e-21)
(-0.00111964 0.00411998 -1.55198e-21)
(-0.00108441 0.00374653 4.61161e-22)
(-0.000931243 0.0029357 1.19395e-22)
(-9.60053e-05 0.00227851 4.11699e-23)
(0.000513745 0.00187332 -1.52546e-22)
(0.00113025 0.00147502 5.74078e-23)
(0.00121364 0.000991178 0)
(0.000967262 0.000675592 0)
(0.000807584 0.000375006 0)
(0.000755733 0.000305501 0)
(0.000926532 0.000186542 0)
(0.000824732 -1.69647e-05 0)
(-0.00130265 -0.000673661 4.461e-24)
(-0.000496395 -0.000371254 0)
(-0.000314952 -0.00107272 0)
(-0.000337491 -0.00102688 0)
(-0.000404099 -0.000882603 0)
(-0.00055844 -0.000578817 0)
(-0.000296485 -0.000556552 4.0596e-23)
(0.000534036 -0.000680798 2.62918e-22)
(0.0012314 -0.00061395 -5.66001e-22)
(0.00135082 -0.000758531 3.19945e-22)
(0.00126292 -0.00112823 2.36522e-21)
(-0.00128677 0.000598524 -2.85791e-21)
(-0.00610209 -0.000288907 1.17699e-21)
(-0.00513011 0.00235691 3.26232e-21)
(-0.0045757 0.00773423 -5.9861e-21)
(-0.00238005 0.0106235 6.70816e-21)
(0.00197939 0.0199453 -1.7053e-20)
(0.0648921 0.00330213 -9.81881e-22)
(0.0679383 -0.0360404 1.78292e-20)
(-0.0790496 -0.0302829 -1.1252e-20)
(-0.0806356 0.00211918 -1.04707e-20)
(-0.0077477 0.0219713 1.12921e-20)
(0.00127598 0.0168546 -2.31762e-20)
(0.00657569 0.0103214 5.95344e-21)
(0.00955183 0.00500546 5.27895e-21)
(0.00524303 0.00490898 1.89727e-22)
(0.00240823 0.0031361 -3.9395e-21)
(0.00147611 0.00224019 1.82713e-21)
(0.00117739 0.00175379 1.64016e-23)
(0.00141768 0.00111172 -1.60248e-22)
(0.00192034 0.000959524 3.27807e-23)
(0.00205515 0.000693655 0)
(0.00172404 0.000211949 0)
(0.00147072 -0.000124409 0)
(0.00113906 -0.000478148 0)
(0.000913937 5.69734e-05 0)
(0.00125867 -0.000229372 0)
(0.00114317 -0.000588943 -9.38365e-25)
(0.000217059 -0.000638414 0)
(6.01447e-05 0.000112563 0)
(-0.00015554 0.000522443 0)
(-0.000316042 0.000389526 0)
(-0.00051268 5.90375e-05 0)
(0.000463559 -0.00050347 -5.38679e-23)
(0.00160995 -0.00012701 5.46539e-23)
(0.00245365 -0.00012049 -4.96202e-22)
(0.00254105 5.3021e-05 3.22955e-22)
(0.0025177 9.87963e-05 2.00496e-21)
(0.00227503 -0.00163335 -1.45726e-21)
(0.00417892 -0.00437463 -2.36568e-21)
(0.00349413 -0.0051868 1.5558e-20)
(-0.0103062 -0.00301531 5.6346e-21)
(-0.0189859 0.00815736 -8.48103e-21)
(-0.0267662 0.0356087 2.82211e-20)
(0.1328 0.0372603 -1.7562e-20)
(-0.265242 0.316606 2.52072e-20)
(0.457639 0.184758 4.97591e-20)
(0.120763 -0.410525 -9.30781e-22)
(-0.304907 0.0475234 3.80608e-21)
(0.0373064 0.120349 5.44199e-21)
(-0.2106 0.0151761 3.46079e-20)
(0.010196 0.0368167 -5.09022e-20)
(0.0120945 0.0174892 3.71368e-21)
(0.00892822 0.00743481 9.93366e-21)
(0.00663055 0.00235139 -3.82408e-21)
(0.00698879 0.00270651 6.58572e-21)
(0.00483323 0.00312718 -6.29613e-21)
(0.00340785 0.00185883 1.88006e-21)
(0.00220991 0.00140758 -1.21954e-21)
(0.00187826 0.000975936 -9.20808e-22)
(0.0024094 0.000545142 -8.47169e-23)
(0.0027862 0.000893422 0)
(0.00234081 0.00120271 0)
(0.00203251 0.00129565 0)
(0.00167176 0.000849367 0)
(0.00141277 -7.52565e-05 0)
(0.000761687 -5.76416e-05 0)
(0.000568255 0.00254061 5.65662e-22)
(0.00115662 0.00118542 0)
(-3.60184e-05 0.000397534 0)
(-3.6114e-05 -0.000414068 0)
(0.000594572 -0.000928353 0)
(0.00142265 -0.00117181 0)
(0.00134139 -0.00106459 4.06601e-24)
(0.00152684 -0.000346313 8.47715e-23)
(0.00259923 0.000219004 1.27025e-21)
(0.00352232 0.00113218 -3.13787e-21)
(0.00553181 -0.000178864 3.06402e-21)
(0.00923911 -0.00029886 -9.07746e-21)
(0.00643883 0.0102018 1.03098e-20)
(-0.000544697 -0.00580623 3.52573e-21)
(-0.00561398 -0.016519 1.64299e-20)
(-0.0362176 -0.0555231 -4.17164e-20)
(-0.101255 -0.0161713 2.28228e-20)
(0.0621641 0.172678 5.76868e-20)
(-0.385799 0.757504 1.17029e-20)
(1.65065 -0.303451 5.46074e-19)
(0.000189406 -0.798578 -5.45964e-20)
(-1.39153 -0.0627651 -6.85437e-20)
(0.821276 0.51699 4.52026e-20)
(-0.258516 0.13658 -2.9775e-20)
(0.0555871 0.0254756 -3.26416e-20)
(0.0267103 0.00595097 -3.81109e-20)
(0.00815835 0.00233305 8.15905e-21)
(0.00852921 0.0147814 -5.51144e-21)
(0.00436113 0.00119344 1.95911e-20)
(0.0058742 0.000437761 -4.95661e-21)
(0.00504438 0.00152655 7.10913e-21)
(0.00375998 0.000556844 -3.34046e-21)
(0.00362388 -0.000115478 5.07781e-22)
(0.00287885 -0.00107793 4.38362e-24)
(0.00177898 -0.00145085 0)
(0.0020391 -0.0012434 0)
(0.00224591 -0.000836828 0)
(0.00211561 -0.000117624 0)
(0.00106965 0.000595803 0)
(0.00183284 0.0018205 -3.88511e-22)
(-0.00178929 -0.00224064 2.77324e-22)
(-0.000231624 -0.000210593 0)
(0.00188557 6.76148e-05 0)
(0.00255765 6.83549e-06 0)
(0.00239203 -0.000167619 0)
(0.00208433 -6.29117e-05 0)
(0.00112992 -0.000216912 0)
(-0.000635573 -0.00108851 -3.06065e-23)
(-0.00186333 -0.00239726 6.27111e-22)
(-0.00155826 -0.0018151 -2.23727e-22)
(-0.001726 -9.90328e-05 -2.35963e-22)
(0.0017151 -0.000449077 -2.70847e-21)
(0.00829904 0.00451852 4.61763e-21)
(0.0378055 0.0155802 1.83767e-21)
(0.0368434 -0.022229 -2.18621e-21)
(0.0485449 -0.112006 -1.69474e-20)
(-0.163431 -0.170091 -2.81732e-20)
(-0.864921 0.235892 -6.3716e-19)
(-0.212203 -0.454536 -2.11554e-20)
(2.4587 -0.192878 -1.30536e-19)
(-0.154649 0.434474 2.04172e-20)
(-2.1488 -0.253327 -2.71831e-19)
(0.425984 0.00476836 6.36365e-21)
(0.499014 0.233035 4.17497e-19)
(0.0694752 -0.0595401 2.14864e-20)
(-0.000375034 -0.0311404 3.59018e-21)
(-0.00643978 0.0110073 4.82066e-21)
(0.0109082 0.000416578 -1.00482e-20)
(0.0120707 -0.00430975 5.22526e-21)
(0.0116552 -0.00428556 -1.71537e-21)
(0.00982115 -0.00445964 5.87872e-22)
(0.00929072 -0.00370655 -3.85568e-22)
(0.00711333 -0.00230272 4.26986e-22)
(0.00384324 -0.00107317 0)
(0.00183664 -0.00089327 0)
(0.00087051 -0.000946865 0)
(0.000293023 -0.000794154 0)
(0.000656313 -0.000677618 0)
(0.00245606 -0.000639263 0)
(0.00366404 -0.0022362 6.35942e-23)
(0.00303644 -0.000384756 1.01824e-22)
(0.00155639 -0.00171396 0)
(0.00106671 -0.00133003 0)
(0.00109113 -0.000409218 0)
(0.00112216 0.000258372 0)
(0.00119897 0.0004205 0)
(0.0014959 0.000449605 0)
(0.00267081 -0.00154329 0)
(0.00185619 -0.0039012 -8.29549e-23)
(0.00129741 -0.00473027 7.58164e-22)
(0.00114567 -0.00312292 -1.19051e-21)
(-0.00135204 -0.00236329 2.44507e-21)
(-0.00087698 0.00339416 -7.20695e-21)
(0.000847875 0.0124662 1.86013e-21)
(0.0750652 0.0254372 7.47465e-21)
(0.195407 0.0305693 -3.33455e-21)
(0.0737672 -0.222467 -2.37101e-20)
(-0.556439 -1.02363 -8.28322e-21)
(0.0994312 -0.629388 -8.1899e-20)
(0.2946 1.12304 -4.24935e-21)
(-0.0692166 2.21659 5.1982e-20)
(-0.398495 1.19534 -6.61607e-20)
(-0.228504 -0.368172 5.86083e-20)
(0.640057 -0.56022 4.03617e-19)
(-0.120528 -0.042991 -1.39486e-21)
(-0.0476392 0.0272266 2.67733e-20)
(0.0320692 -0.0205358 -5.48035e-21)
(0.0161993 -0.0130032 1.26819e-20)
(0.00940748 -0.0141774 8.43962e-24)
(0.00388986 -0.0114299 -1.42383e-21)
(0.00308692 -0.0107149 2.46939e-22)
(0.00254938 -0.00785814 -1.08863e-23)
(0.00159089 -0.00412458 0)
(0.00261966 -0.00116035 0)
(0.00239718 -0.000810529 0)
(0.00208912 -0.000643778 0)
(0.00194086 -0.00109689 -3.66154e-22)
(0.00179216 -0.00168118 -5.06367e-22)
(0.000982922 -0.00176746 -3.01951e-22)
(-0.000646582 -9.26339e-05 0)
(0.00238839 0.000833251 0)
(0.00215105 0.000273659 0)
(0.00102086 -0.000506395 0)
(0.000327664 -0.000881533 0)
(0.000273681 -0.000687931 0)
(0.000667015 -0.000655335 0)
(0.00214316 0.000353135 0)
(0.00499497 0.00300897 0)
(0.00644278 0.00523171 -1.57444e-25)
(0.00453757 0.00609165 -6.93559e-23)
(0.00206593 0.00726809 1.38891e-24)
(-0.00650648 0.00940199 -5.01193e-22)
(-0.0114667 0.0218229 -2.2589e-21)
(-0.0403852 0.0188825 -1.96705e-21)
(0.00678932 0.0950124 -4.05356e-20)
(0.143962 0.231487 -7.65945e-21)
(1.11084 0.085405 3.26377e-20)
(0.00013607 -0.609546 2.73977e-20)
(-2.08258 -0.51164 -1.5053e-20)
(-1.75753 0.00559691 -1.47281e-19)
(-0.0882062 0.225319 6.37376e-20)
(1.59213 0.00289445 -5.25863e-20)
(1.84544 -0.456916 3.65943e-20)
(-0.252185 -0.498928 -2.57412e-21)
(-0.439834 0.148682 -9.42825e-21)
(0.0274636 0.0530468 -6.3697e-21)
(0.0434508 -0.0263106 3.91461e-21)
(0.00855009 -0.00506591 -3.66829e-21)
(0.0037353 -0.00607449 3.28939e-21)
(-0.00232936 -0.00258414 -1.57887e-22)
(-0.00414184 -0.000846849 3.30445e-23)
(-0.00518121 0.00067732 -3.50182e-25)
(-0.0029882 -3.88352e-05 0)
(0.000180156 -0.00150255 0)
(0.00181326 -0.0016973 0)
(0.00217017 -0.00116179 0)
(0.00201451 -0.00106366 0)
(0.00122565 -0.000414942 0)
(0.000126015 0.00036062 0)
(1.94682e-06 0.000742497 5.43819e-23)
(0.000369228 0.000588932 0)
(0.00111258 0.00117369 0)
(0.00129142 0.000745003 0)
(0.000996658 -0.000455091 0)
(0.000458356 -0.00148647 0)
(-0.000554383 -0.00223135 0)
(-0.00236472 -0.00206712 0)
(-0.00450138 0.00137845 0)
(-0.00477452 0.0068538 0)
(-0.00484154 0.0114576 0)
(-0.00701376 0.0134937 -5.09777e-23)
(-0.0110424 0.0134134 -8.06937e-22)
(-0.0280592 0.0230904 4.23306e-22)
(-0.0673201 0.0080032 -1.36446e-21)
(-0.18807 0.0547113 -1.18057e-19)
(-0.248283 0.234414 1.00157e-20)
(0.825361 0.942247 -4.87372e-20)
(1.1926 1.0476 1.08459e-21)
(-0.0121025 -1.00432 1.46928e-20)
(-0.469669 -3.25594 8.19127e-20)
(-0.118603 -4.11372 -8.43571e-20)
(0.244701 -3.16186 -1.91551e-19)
(-0.212039 -0.921431 2.79949e-20)
(-1.03085 0.859283 1.41772e-20)
(0.120449 0.414953 -1.10675e-19)
(0.198735 -0.00507242 2.47322e-21)
(0.0231643 -0.0106137 2.4356e-21)
(0.000948253 0.00473099 -1.90012e-21)
(-0.00261067 0.00565566 2.26294e-22)
(0.00113771 0.00772854 1.46321e-22)
(0.00254049 0.00733463 0)
(0.00390927 0.00399658 0)
(0.00448157 -0.000959814 0)
(0.0030631 -0.00334268 0)
(0.00199195 -0.00288423 0)
(0.00132528 -0.00165117 0)
(0.000875309 -0.000379039 0)
(0.000651918 0.000907688 0)
(0.000938833 0.00126497 0)
(0.00156763 0.000529873 0)
(-0.000230097 -0.00122426 0)
(0.000921899 -0.00150707 0)
(0.00185943 -0.00154093 0)
(0.00219543 -0.00167278 0)
(0.00175713 -0.00224437 0)
(0.000341164 -0.00312766 0)
(-0.00303824 -0.00538402 0)
(-0.00813246 -0.00831328 0)
(-0.0103244 -0.00984263 0)
(-0.00996577 -0.00984661 0)
(-0.0108351 -0.0108351 0)
(-0.0104928 -0.0155554 -1.50849e-23)
(-0.0170288 -0.0216768 -2.24999e-22)
(-0.0423766 -0.0558575 -8.79646e-22)
(-0.203871 -0.0831246 -4.10988e-20)
(-0.899201 -0.100363 3.89057e-20)
(-0.523636 0.419217 -4.30647e-20)
(1.61599 1.36743 3.11897e-20)
(1.85034 2.13526 1.09983e-20)
(1.00007 2.31996 1.28602e-20)
(-0.083162 2.23485 -7.55678e-21)
(-1.14251 2.05494 -1.51542e-20)
(-1.81576 1.64191 2.10031e-20)
(-1.16403 0.763346 -2.70747e-20)
(1.02271 -0.0541537 -2.95883e-21)
(0.287366 -0.105531 1.33495e-20)
(-0.0264588 -0.0267798 6.29761e-21)
(-0.0177155 -0.0116441 -4.05132e-22)
(-0.00488824 -0.006832 5.04719e-23)
(0.00314274 -0.00725778 0)
(0.00687914 -0.00833194 0)
(0.00898662 -0.00924513 0)
(0.00729525 -0.00858829 0)
(0.00291014 -0.00577918 0)
(0.000356693 -0.00370333 0)
(-0.000533028 -0.0026871 0)
(-0.00062965 -0.00200596 0)
(9.23019e-07 -0.00180243 0)
(0.00115843 -0.00165151 0)
(0.00229142 -0.00120811 0)
(0.00398104 -0.00120575 0)
(0.0029414 -0.00166827 0)
(0.00244948 -0.00160526 0)
(0.00234639 -0.00117601 0)
(0.00239163 -0.00121935 0)
(0.00288074 -0.00185423 0)
(0.0034037 -0.00416088 0)
(0.00245638 -0.0105851 0)
(0.000602753 -0.0191373 0)
(-0.000288849 -0.0272827 0)
(0.000868118 -0.0364806 7.78925e-22)
(0.00164949 -0.0458736 0)
(0.0263183 -0.0645333 0)
(0.098236 -0.0884387 -1.14816e-20)
(0.194722 -0.227189 7.03891e-20)
(-0.553896 -0.692937 -7.11945e-20)
(-1.4518 -0.95259 4.12564e-21)
(-1.13044 0.0500818 -1.10992e-20)
(-0.520562 1.44415 5.47881e-21)
(-0.183734 2.39766 -3.20188e-19)
(0.32958 2.60057 -2.65492e-20)
(0.604541 2.04957 -5.34461e-20)
(0.99788 0.757675 -1.57219e-20)
(1.35994 -0.548676 -2.74326e-21)
(0.899491 -0.842369 7.26899e-23)
(-0.358484 -0.0822626 -3.76871e-20)
(-0.142397 -0.0174623 2.58635e-20)
(-0.0362928 -0.0274367 0)
(-0.00372412 -0.0227462 0)
(-0.00204284 -0.0249909 -7.00101e-22)
(0.000317518 -0.0209842 0)
(-0.000209723 -0.0157169 0)
(-0.00217029 -0.00899109 0)
(-0.00305179 -0.00395185 0)
(-0.00224556 -0.00241323 0)
(-0.00148968 -0.00201167 0)
(-0.00121045 -0.00204909 0)
(-0.00107053 -0.00240333 6.02624e-23)
(-0.00131325 -0.0022477 4.32329e-23)
(-0.00217988 -0.00147908 0)