/*--------------------------------*- C++ -*----------------------------------*\
| =========                 |                                                 |
| \\      /  F ield         | OpenFOAM: The Open Source CFD Toolbox           |
|  \\    /   O peration     | Version:  v2106                                 |
|   \\  /    A nd           | Website:  www.openfoam.com                      |
|    \\/     M anipulation  |                                                 |
\*---------------------------------------------------------------------------*/
FoamFile
{
    version     2.0;
    format      ascii;
    arch        "LSB;label=32;scalar=64";
    class       volScalarField;
    location    "0";
    object      p;
}
// * * * * * * * * * * * * * * * * * * * * * * * * * * * * * * * * * * * * * //

dimensions      [0 2 -2 0 0 0 0];

internalField   nonuniform List<scalar> 
11644
(
0.00331933
0.0034199
0.00376605
0.00436823
0.00532936
0.00669262
0.00860083
0.0111996
0.0143387
0.0179371
0.0218827
0.0257985
0.0297427
0.0337378
0.0374294
0.0410791
0.0450618
0.04725
0.0427123
0.0445305
0.0554449
0.0578881
0.0526312
0.0522228
0.0508845
0.0475111
0.0427601
0.0367008
0.0292934
0.0216302
0.0141059
0.00691641
0.000354993
-0.00541809
-0.0104699
-0.0147608
-0.0181381
-0.0206665
-0.0223848
-0.023198
0.00272526
0.00271965
0.00287855
0.00328392
0.00405557
0.0051444
0.00658753
0.00857509
0.011182
0.0144409
0.0184163
0.0230777
0.0281346
0.0334225
0.0382373
0.0424251
0.0460792
0.0492528
0.0496295
0.0544443
0.0560238
0.0588588
0.0558671
0.056129
0.0530416
0.0481013
0.0418784
0.0346143
0.0268708
0.0189787
0.0113909
0.00434505
-0.0021666
-0.00793007
-0.0128749
-0.0169872
-0.0203233
-0.0229024
-0.0244786
-0.0249911
0.00319128
0.00290548
0.00270598
0.00278636
0.00299752
0.00331093
0.00382355
0.00456703
0.00577832
0.00779212
0.0107938
0.0152914
0.0213358
0.0281169
0.0349964
0.0414123
0.0465768
0.0523729
0.0587558
0.0661174
0.0609001
0.0617084
0.0592776
0.0568063
0.0524056
0.0465374
0.0382282
0.0298276
0.0217602
0.0137733
0.00602194
-0.000950708
-0.00707748
-0.012409
-0.016917
-0.0206178
-0.0235208
-0.025506
-0.026603
-0.0269335
0.00486032
0.00450733
0.00413769
0.00359252
0.00297161
0.00237569
0.00174993
0.00115514
0.00075885
0.000973152
0.00268531
0.00657547
0.0120975
0.0196617
0.0291499
0.0375753
0.0463977
0.0601437
0.071034
0.0761323
0.0717596
0.0695871
0.0660126
0.0580185
0.051252
0.0426499
0.0332531
0.023257
0.0140577
0.00619701
-0.000820091
-0.00724757
-0.012819
-0.0174959
-0.0213943
-0.0244466
-0.0267543
-0.0284287
-0.029583
-0.030318
0.00557459
0.00593287
0.00579526
0.00509603
0.00400042
0.00265531
0.00113924
-0.000498089
-0.00213584
-0.00344076
-0.00439718
-0.00412187
-0.000865681
0.00693338
0.0193179
0.0324368
0.0432439
0.0714457
0.0926696
0.0900091
0.0962564
0.0819976
0.0720222
0.0556657
0.0452994
0.0333527
0.0226237
0.0134013
0.00493768
-0.00251489
-0.00854519
-0.0137222
-0.0183992
-0.0224334
-0.0258809
-0.0287737
-0.0310983
-0.0329698
-0.0343349
-0.0349067
0.00683891
0.00664897
0.00668373
0.00662215
0.00600421
0.00483139
0.00305514
0.000787919
-0.00199895
-0.00568599
-0.00972401
-0.0124768
-0.0119409
-0.00606299
0.009413
0.0337514
0.0532023
0.0842256
0.105271
0.114261
0.110913
0.101228
0.077876
0.0500273
0.0285845
0.0159705
0.00608854
-0.000376869
-0.00470261
-0.00938106
-0.0148563
-0.0196542
-0.023823
-0.0277425
-0.0312385
-0.0342736
-0.036717
-0.0384744
-0.0399806
-0.0410995
0.00959897
0.00959593
0.00949077
0.00901781
0.00857597
0.00796154
0.0067515
0.00455719
0.00115904
-0.00287946
-0.00600061
-0.00661175
-0.00840342
-0.0115581
-0.00196973
0.025906
0.06546
0.0702393
0.086552
0.101074
0.105864
0.0918654
0.0700804
0.0489472
0.00176618
-0.0116623
-0.0166592
-0.0131634
-0.0109683
-0.0128147
-0.0172499
-0.0229356
-0.0281061
-0.0325216
-0.0364405
-0.0398141
-0.0428204
-0.0454236
-0.0471415
-0.0482123
0.0114115
0.0123415
0.0128954
0.013576
0.0141277
0.0141269
0.0136098
0.012245
0.00982392
0.00851901
0.00968852
0.0111988
0.0141321
0.0045316
0.0173351
0.0113598
0.0450576
0.0800474
0.104701
0.114219
0.102018
0.08305
0.0578531
0.0392077
0.0313438
-0.0110778
-0.0123278
-0.0126266
-0.0132439
-0.0138822
-0.0177771
-0.0241903
-0.0311498
-0.0371538
-0.0422949
-0.0465516
-0.0497979
-0.052058
-0.0535416
-0.053604
0.0170585
0.015945
0.0164083
0.0177992
0.019358
0.0211705
0.0229423
0.0241624
0.0255853
0.0296256
0.0352
0.0419445
0.0534386
0.04695
0.059463
0.0870101
0.0751518
0.124787
0.141669
0.155601
0.143136
0.111767
0.0770416
0.0375669
0.00988135
0.0228166
0.00663116
0.0010639
-0.00486157
-0.0132305
-0.0198163
-0.0268734
-0.0353303
-0.0426141
-0.0482107
-0.0528193
-0.056386
-0.0590388
-0.0613728
-0.0638849
0.0166905
0.0192074
0.0210782
0.0228117
0.0251634
0.0286477
0.0332232
0.0381602
0.044334
0.0541076
0.0659296
0.0706105
0.0707504
0.0749524
0.0848335
0.102373
0.122824
0.151494
0.191376
0.224481
0.201208
0.130853
0.0672485
0.0406878
0.0289552
0.0182177
0.00916353
0.0140595
-0.000269479
-0.01247
-0.0240537
-0.0346655
-0.0441023
-0.0518365
-0.0578723
-0.0628332
-0.0668381
-0.0699029
-0.0715028
-0.0715223
0.0172759
0.0168053
0.0188934
0.0227332
0.0278681
0.0336819
0.0402253
0.0481778
0.0581101
0.0679011
0.0801129
0.0873391
0.0782675
0.0919113
0.0899784
0.0690216
0.0860361
0.132402
0.226862
0.358528
0.29648
0.045337
-0.0364062
-0.0220521
-0.00997534
0.00464434
0.0107666
0.0036531
-0.00783971
-0.0229642
-0.0401907
-0.0523585
-0.0607523
-0.068192
-0.0735561
-0.0766078
-0.0783165
-0.0793996
-0.0809239
-0.0828608
0.0161475
0.0165285
0.0180527
0.020602
0.0251189
0.0314759
0.0382153
0.0455211
0.0553869
0.0635864
0.0687979
0.0783999
0.0772414
0.0873593
0.0698053
0.0513461
0.036506
0.0388007
0.0934096
-0.422138
-0.115424
-0.0182795
0.00451075
0.0105393
-0.0216762
-0.0438526
-0.0655817
-0.0785492
-0.0850276
-0.0899539
-0.0936223
-0.0948794
-0.0944188
-0.0939998
-0.0943667
-0.0948754
-0.09686
0.00545994
0.00987813
0.0136457
0.0165599
0.0195569
0.0239993
0.0283787
0.0308337
0.0337103
0.0407762
0.0388631
0.0389612
0.0366542
0.0150298
-0.0221003
-0.041225
-0.0693821
-0.0754182
-0.0484272
-0.0785083
-0.0825156
-0.0536855
-0.0635994
-0.0845958
-0.104071
-0.133699
-0.1418
-0.140895
-0.13463
-0.13233
-0.128937
-0.124023
-0.119507
-0.1156
-0.111718
-0.10679
-0.101303
0.00397617
0.000205532
0.000357731
0.00308775
0.00606168
0.00969518
0.0125498
0.0078437
-0.00152905
0.00800365
-0.000957359
-0.00284794
-0.0231285
-0.0753991
-0.0861779
-0.101529
-0.144052
-0.234875
-0.248249
0.223141
-0.029891
-0.139974
-0.200572
-0.254946
-0.256982
-0.275041
-0.230062
-0.219189
-0.187223
-0.178893
-0.16738
-0.154506
-0.142756
-0.133088
-0.125223
-0.120312
-0.116648
0.00612995
0.00533039
0.00245221
-0.00131173
-0.00284143
-0.00324845
-0.00488618
-0.0114512
-0.0340826
-0.0338803
-0.0404783
-0.0396226
-0.0267622
-0.0357933
-0.0213528
-0.0374568
-0.086614
-0.258641
-0.342044
0.395148
-0.0152812
-0.142279
0.125504
-0.365109
-0.365987
-0.375416
-0.372894
-0.395317
-0.359098
-0.294314
-0.272358
-0.224535
-0.215854
-0.199169
-0.184263
-0.171088
-0.160477
-0.153914
-0.150299
-0.147505
0.00545369
0.000345295
-0.00154285
-0.00352027
-0.00465672
-0.00787829
-0.0108075
-0.0199176
-0.0320986
-0.0420364
-0.0570655
-0.0527722
0.0921588
0.102791
0.0660379
0.128605
0.17016
0.4413
1.63731
-0.314048
0.386015
-0.427203
-1.74873
-0.965089
-0.598346
-0.506945
-0.437674
-0.483358
-0.356602
-0.311857
-0.283381
-0.252035
-0.232676
-0.215799
-0.202759
-0.193098
-0.182623
-0.176489
-0.173433
-0.176005
-0.0256364
-0.0223685
-0.0217486
-0.0184013
-0.0127447
-0.00723363
-0.00639395
-0.0114579
-0.0124949
-0.0204746
-0.0394355
-0.0815783
-0.017686
0.215106
0.220947
0.266897
0.159655
0.740296
1.51995
1.52529
0.36026
-2.50944
-0.410103
-0.695229
-0.817887
-0.651988
-0.547296
-0.336581
-0.284569
-0.290594
-0.278374
-0.260046
-0.238177
-0.221669
-0.207428
-0.193471
-0.180161
-0.170709
-0.165969
-0.168043
-0.0411396
-0.0382065
-0.0308104
-0.0226595
-0.0161216
-0.0129114
-0.0080753
0.0108279
0.0384728
0.0548195
0.0525136
0.0603328
0.0534251
0.101623
0.366057
0.760017
0.951766
0.379006
-0.0606875
0.939884
0.34457
0.252702
0.812078
-0.596989
-0.825283
-0.829525
-0.356206
-0.352581
-0.34419
-0.305414
-0.30227
-0.283082
-0.248001
-0.21903
-0.20202
-0.191911
-0.180942
-0.17035
-0.160774
-0.158465
-0.0314995
-0.0320502
-0.0281077
-0.0252857
-0.0240257
-0.0219337
-0.014594
0.00909491
0.0423074
0.0849052
0.134407
0.155613
0.157904
0.365543
0.525155
0.647199
1.35311
3.04647
0.965341
0.327592
0.797763
1.16305
-0.507868
-1.86175
-0.956179
-0.570267
-0.491302
-0.377455
-0.356797
-0.328606
-0.302383
-0.261674
-0.229708
-0.200584
-0.188136
-0.182833
-0.179605
-0.176015
-0.170959
-0.168704
-0.0302404
-0.0300804
-0.0271886
-0.0268474
-0.02577
-0.0198167
-0.012901
-0.0125596
0.00240012
0.0395203
0.0978809
0.14818
0.239625
0.220779
0.496007
0.418049
-0.32192
0.252135
2.8029
2.39106
0.879037
-0.851533
-0.749579
0.804728
0.0238795
-0.531383
-0.245396
-0.271335
-0.290597
-0.259284
-0.221502
-0.194592
-0.182938
-0.187536
-0.179867
-0.176633
-0.174864
-0.173003
-0.170742
-0.169632
-0.0474998
-0.0467946
-0.0466555
-0.0450201
-0.0393637
-0.0290555
-0.0177112
-0.011643
-0.00642564
0.0136004
0.0449607
0.20402
0.349947
0.519172
0.401718
0.858417
1.26983
-0.47606
-1.44201
-0.288134
0.903369
1.8176
1.86118
0.425537
-0.881006
-0.328293
-0.338276
-0.286491
-0.273735
-0.173239
-0.164581
-0.160155
-0.163716
-0.167002
-0.161924
-0.155624
-0.148315
-0.147151
-0.146237
-0.14493
-0.0692117
-0.0687083
-0.0685663
-0.0687565
-0.0666364
-0.0609358
-0.0469624
-0.0279139
-0.0170306
-0.00541559
-0.00319394
0.0270389
0.0818026
0.486504
1.23975
1.1105
1.22966
2.67649
3.52384
2.31971
0.59923
-1.37899
-1.74632
-1.18626
-0.0819121
-0.876313
-0.316058
-0.00191213
-0.0536702
-0.0715342
-0.102799
-0.119918
-0.123486
-0.121428
-0.11771
-0.115586
-0.11576
-0.118262
-0.118599
-0.118996
-0.0883417
-0.0849223
-0.0833996
-0.0817606
-0.081422
-0.0827345
-0.0810543
-0.0765228
-0.0631513
-0.0542519
-0.039225
-0.145069
-0.14902
-0.153839
-0.68707
0.324557
0.465352
0.575941
0.153702
-0.333451
1.59339
1.23377
-1.0377
-0.527167
-0.211405
0.81513
0.347968
0.157981
0.0908218
-0.0265167
-0.0410351
-0.0582106
-0.0601577
-0.071671
-0.0829176
-0.0911155
-0.095553
-0.0972294
-0.0979056
-0.0946029
-0.104755
-0.110225
-0.107329
-0.104027
-0.101035
-0.104272
-0.1058
-0.113178
-0.130057
-0.140342
-0.151246
-0.182748
-0.18333
-0.0248025
-0.343752
-1.29493
-2.6363
-2.5004
-0.761216
1.18672
-1.2465
0.732266
2.40872
2.79194
1.55945
0.639868
0.0761794
0.11446
0.079579
0.0477571
0.02229
-0.000368196
-0.0257553
-0.0452674
-0.0606596
-0.0656089
-0.0684276
-0.0687957
-0.0689309
-0.0745762
-0.10992
-0.110439
-0.117932
-0.123917
-0.128183
-0.133318
-0.133539
-0.137101
-0.152272
-0.183104
-0.234985
-0.291089
-0.353683
-0.345612
0.168477
0.207176
-0.534197
-1.19641
-1.32614
-1.08242
0.100206
0.855204
1.12273
0.593386
-0.355191
-0.412581
0.0854909
0.153361
0.148081
0.0926188
0.039096
0.00539539
-0.0190935
-0.0280453
-0.0358577
-0.0453742
-0.0528755
-0.061067
-0.0699455
-0.0724765
-0.128121
-0.128139
-0.127612
-0.130213
-0.136359
-0.14684
-0.157528
-0.168127
-0.174784
-0.181364
-0.205382
-0.232565
-0.372955
-0.880032
-1.16664
-0.658413
0.192386
0.205956
-0.0036057
-0.528647
-0.88014
-1.1586
-1.08153
-1.00049
-0.043736
0.767851
0.632533
0.157581
0.10221
0.0259401
0.0213562
0.0188573
0.00424577
-0.0100725
-0.0284987
-0.0436642
-0.0536148
-0.0600582
-0.0620597
-0.0614446
-0.148082
-0.148547
-0.152631
-0.15735
-0.161977
-0.166293
-0.172475
-0.187288
-0.20652
-0.205226
-0.250619
-0.259095
-0.287474
-0.259857
-0.882618
-2.14876
-2.26218
-2.03185
-0.949257
-0.933242
-1.28452
-1.31321
1.3082
1.63281
1.68549
0.489225
-0.0761133
0.0745729
0.0888006
0.0804108
0.0386426
0.048705
0.0157785
0.000895921
-0.0148868
-0.0246066
-0.0329214
-0.0385696
-0.0440317
-0.043742
-0.160992
-0.166434
-0.165634
-0.165825
-0.169984
-0.175981
-0.182828
-0.19332
-0.205807
-0.219156
-0.244127
-0.389707
-0.542206
-0.48636
-0.143608
-0.0358341
-0.604251
-1.22692
-1.77519
-2.06142
0.313456
0.323632
0.186922
-0.195132
-0.674042
-0.385463
0.243528
0.313007
0.160376
0.0809071
0.0414309
0.0288328
0.012626
-0.00222783
-0.0133925
-0.0221455
-0.0282592
-0.0289885
-0.0285129
-0.033175
-0.158474
-0.156907
-0.16261
-0.170584
-0.178929
-0.188203
-0.199809
-0.214376
-0.226278
-0.24975
-0.263481
-0.284715
-0.412914
-0.748119
-1.09594
-0.945604
-0.766383
-0.718808
-0.371051
0.0148454
-1.67783
-1.18891
-0.431262
-0.02296
0.536469
0.876103
0.508764
0.136709
0.063421
0.0405452
0.0250136
0.0200302
0.0126233
-0.00176542
-0.0130859
-0.0224962
-0.0312463
-0.0388756
-0.0443604
-0.0445657
-0.169067
-0.164964
-0.168317
-0.174235
-0.18242
-0.191431
-0.200367
-0.211594
-0.238046
-0.282643
-0.321506
-0.448338
-0.4421
-0.418718
-0.938978
-1.65564
-1.93238
-1.78305
-1.75066
-1.33268
0.204987
0.747201
0.895812
1.20332
1.08978
0.497377
0.0206762
0.135561
0.168722
0.067366
0.0321958
-0.00419865
-0.0234291
-0.023794
-0.0272768
-0.0319858
-0.0369317
-0.0408016
-0.0428568
-0.0398026
-0.18371
-0.189983
-0.189289
-0.189025
-0.193041
-0.202582
-0.215604
-0.231204
-0.255189
-0.293058
-0.367012
-0.515979
-0.725913
-0.803061
-0.447978
-0.336001
-0.735647
-0.978605
-1.02516
-0.689347
0.293874
0.57927
0.561572
0.333877
0.0202472
0.111824
0.431427
0.325001
0.15726
0.0643907
0.00147346
-0.0196658
-0.028443
-0.0286605
-0.0323342
-0.0335515
-0.0318984
-0.0278694
-0.0247024
-0.0315088
-0.173355
-0.171884
-0.179952
-0.191084
-0.202843
-0.215595
-0.23114
-0.251185
-0.280167
-0.314932
-0.361749
-0.360023
-0.449106
-0.818663
-1.26006
-1.29214
-0.764597
-0.359528
-0.0539279
0.437218
-0.116478
0.217163
0.470712
0.680473
1.01
0.851655
0.344339
0.0374263
0.00916665
0.0186594
0.000136311
-0.0123015
-0.0238597
-0.0289164
-0.0307333
-0.0322596
-0.0362213
-0.0439746
-0.0510109
-0.0466762
-0.175824
-0.174016
-0.173109
-0.17558
-0.182227
-0.192603
-0.206906
-0.226022
-0.256753
-0.311702
-0.381014
-0.416385
-0.369003
-0.25638
-0.370504
-0.708061
-0.882288
-0.769606
-0.795425
-0.341569
0.78787
1.04926
1.03031
0.802091
0.472392
0.0600286
-0.0578481
0.0475204
0.0953148
0.0561334
-0.01154
-0.050154
-0.0590749
-0.0598902
-0.058735
-0.0572057
-0.0548587
-0.050669
-0.0452327
-0.0436367
-0.162721
-0.169614
-0.173238
-0.178232
-0.184713
-0.192837
-0.205791
-0.219168
-0.231683
-0.238724
-0.248137
-0.292881
-0.486687
-0.489242
-0.241405
-0.0938997
-0.138365
-0.124922
-0.0302012
0.159732
0.303903
0.32276
0.410919
0.219737
0.047804
0.0454895
0.146626
0.116953
-0.018799
-0.0767965
-0.0581619
-0.0708451
-0.0692148
-0.0577381
-0.0542312
-0.0508646
-0.0482515
-0.0480838
-0.0479452
-0.0510424
-0.150127
-0.147342
-0.153251
-0.159524
-0.167392
-0.174401
-0.181926
-0.190601
-0.203166
-0.203495
-0.196596
-0.0957181
-0.05162
-0.216363
-0.536022
-0.386712
-0.22582
0.0433511
0.159385
0.320676
0.296593
0.28454
0.0961939
0.146092
0.196785
0.227656
-0.0212658
-0.173204
-0.148614
-0.0852759
-0.0942738
-0.085675
-0.0775011
-0.0710376
-0.0627965
-0.0581433
-0.0578971
-0.0593778
-0.0607053
-0.058268
-0.145368
-0.150107
-0.146694
-0.142036
-0.140255
-0.141408
-0.145396
-0.147819
-0.152234
-0.153312
-0.154964
-0.140968
-0.0115186
0.294392
0.460707
0.396372
0.299025
0.215004
0.0556596
-0.095134
0.600763
0.200191
-0.210984
-0.339767
-0.537245
-0.646693
-0.485811
-0.218431
-0.0947261
-0.0936597
-0.10638
-0.1034
-0.0926166
-0.083516
-0.0750608
-0.0680293
-0.0605823
-0.0526364
-0.0473405
-0.0501632
-0.124112
-0.125552
-0.129016
-0.133862
-0.135799
-0.137545
-0.136354
-0.133282
-0.121879
-0.102176
-0.0157728
0.0374753
0.0157178
0.00283949
0.20224
0.476847
0.733895
0.782943
0.827622
0.695864
-0.254159
-0.454546
-0.67376
-0.77015
-0.431968
-0.255193
-0.117488
-0.155386
-0.218985
-0.184691
-0.12651
-0.0990117
-0.0764539
-0.0696165
-0.0586788
-0.0541238
-0.0527107
-0.0548858
-0.0564586
-0.0578686
-0.112913
-0.108935
-0.106707
-0.104785
-0.103036
-0.097402
-0.0895645
-0.0797224
-0.079294
-0.0556164
-0.0239207
0.093422
0.244221
0.309795
0.300127
0.364947
0.328299
0.442678
0.319642
0.201526
0.23176
-0.0292699
-0.222801
-0.215965
-0.299748
-0.24218
-0.299132
-0.316794
-0.226746
-0.132584
-0.107844
-0.0942914
-0.0893214
-0.0830604
-0.0697277
-0.0650003
-0.063593
-0.0622643
-0.0612189
-0.0567278
-0.104205
-0.109562
-0.10541
-0.0986715
-0.0910824
-0.0830374
-0.0704069
-0.0551749
-0.0329102
-0.00630091
-0.00694985
0.0424006
0.139175
0.364602
0.51845
0.538626
0.409919
0.281659
0.287164
0.294306
-0.261208
-0.237392
-0.370568
-0.50956
-0.615749
-0.561831
-0.340562
-0.141511
-0.0667764
-0.0852718
-0.0946025
-0.0872895
-0.0787408
-0.0699183
-0.0633676
-0.0586147
-0.053989
-0.0487364
-0.0455546
-0.0486953
-0.0899358
-0.0884965
-0.0913268
-0.0941181
-0.0926586
-0.0870849
-0.0774039
-0.060312
-0.0407786
-0.0113499
0.0387757
0.0794548
0.0364984
-0.0231159
0.034068
0.177626
0.236314
0.217256
0.151647
-0.100826
-0.548172
-0.711426
-0.646823
-0.581853
-0.30171
-0.0598831
0.103911
0.0129518
-0.0986273
-0.0898192
-0.0560363
-0.0477125
-0.0433035
-0.0416971
-0.0400939
-0.0380806
-0.0409976
-0.0457969
-0.0492353
-0.0479301
-0.0869166
-0.0869601
-0.0820581
-0.0750202
-0.0671757
-0.0593591
-0.0491415
-0.041767
-0.0417043
-0.0301888
-0.0177338
0.0451227
0.145048
0.131357
0.0599688
-0.0562094
-0.166966
-0.267341
-0.40666
-0.631879
-0.339162
-0.293698
-0.311644
-0.204728
-0.129456
-0.13453
-0.163016
-0.133482
-0.054815
-0.00701411
-0.005789
-0.0317741
-0.041501
-0.0492287
-0.049876
-0.0489244
-0.0470036
-0.0429723
-0.0395473
-0.0388863
-0.0792281
-0.0797698
-0.0773838
-0.0762869
-0.072487
-0.0676967
-0.0611832
-0.050121
-0.0306771
-0.0323012
-0.0399813
-0.0778321
-0.127174
-0.107824
-0.0798483
-0.113159
-0.24249
-0.349735
-0.228444
-0.0301523
-0.927892
-0.636143
-0.223517
-0.190491
-0.107413
-0.0335422
0.0868271
0.160558
0.104248
0.0283944
0.00586137
-0.0191505
-0.0208023
-0.0248302
-0.0286059
-0.0314564
-0.0341829
-0.0376692
-0.0374845
-0.0386478
-0.0709334
-0.0662879
-0.067564
-0.0694032
-0.0700504
-0.0666767
-0.0637458
-0.0642507
-0.0644186
-0.0599553
-0.0388473
-0.0320759
-0.133106
-0.280521
-0.34985
-0.365342
-0.333483
-0.288852
-0.273713
-0.336205
-0.242041
-0.217136
0.0937351
0.230372
0.295784
0.326394
0.268074
0.140125
0.049331
0.018083
0.0241753
0.00989815
-0.0127556
-0.0212077
-0.0230812
-0.0278592
-0.0320519
-0.0378105
-0.0411367
-0.0379397
-0.0749274
-0.0765005
-0.0716645
-0.0652822
-0.0601587
-0.0558195
-0.0516986
-0.0523716
-0.0683718
-0.0807742
-0.0772457
-0.0593702
0.0485843
0.119133
0.0577019
-0.0450636
-0.127094
-0.153223
-0.120648
0.0233574
0.213807
0.283597
0.281
0.308132
0.217501
0.104504
0.00689587
0.0232861
0.0778261
0.0569835
0.031035
-0.000360415
-0.0220805
-0.0303585
-0.0324321
-0.033431
-0.031085
-0.0272286
-0.0236707
-0.0275089
-0.0694645
-0.0703114
-0.0713067
-0.0733721
-0.0751295
-0.0755956
-0.0731966
-0.0701269
-0.0613262
-0.0589833
-0.0429298
-0.0727117
-0.128404
-0.0776646
0.0312107
0.140336
0.212679
0.261348
0.374016
0.455669
0.0646062
0.0983106
0.163873
0.112956
0.0987325
0.120873
0.18414
0.165095
0.0511957
-0.00681922
-0.012388
-0.00151321
-0.00649388
-0.0101759
-0.0130218
-0.0188802
-0.0225775
-0.0281253
-0.0317825
-0.0314804
-0.0633478
-0.0600626
-0.060892
-0.0615316
-0.061256
-0.0602612
-0.0637742
-0.0644916
-0.0584509
-0.0517286
-0.0126839
0.0420454
0.067043
0.0375798
0.0544663
0.0940416
0.125986
0.199443
0.279815
0.215048
0.20923
0.092955
0.120363
0.0747172
0.0908076
0.0352098
-0.0331301
-0.0845207
-0.0709976
-0.0440605
-0.0292291
-0.0232103
-0.028886
-0.0347397
-0.034455
-0.034783
-0.0347059
-0.0341354
-0.0331216
-0.030948
-0.0632603
-0.0659326
-0.0624422
-0.0586859
-0.0560328
-0.0551655
-0.0541832
-0.0479572
-0.0481274
-0.0516398
-0.0395092
-0.0225496
0.0922162
0.185321
0.204156
0.17897
0.162624
0.13518
0.118639
0.208741
-0.0764928
0.00145506
-0.0263342
-0.100311
-0.163465
-0.208374
-0.209595
-0.150311
-0.0765408
-0.0585332
-0.0426213
-0.048709
-0.0436496
-0.0392199
-0.0360796
-0.0334916
-0.0323817
-0.0279865
-0.0243449
-0.0271589
-0.0568803
-0.0546936
-0.0587022
-0.0637109
-0.0670908
-0.0684029
-0.0663581
-0.0600661
-0.046001
-0.016418
0.0255125
0.00882503
-0.0442873
0.0117292
0.134786
0.254382
0.319756
0.299787
0.250118
0.102038
-0.167439
-0.270301
-0.326093
-0.367962
-0.342916
-0.252357
-0.155957
-0.0913708
-0.125188
-0.116266
-0.0722006
-0.0435719
-0.0339271
-0.0248624
-0.0224285
-0.0204102
-0.0238829
-0.0291154
-0.0330789
-0.0306266
-0.0587814
-0.059387
-0.0572815
-0.0535785
-0.0503278
-0.0475892
-0.0458786
-0.0477253
-0.0413407
-0.0286268
-0.00390578
0.0849472
0.180792
0.200802
0.211744
0.233968
0.189963
0.163488
0.128939
-0.156548
0.108568
-0.142096
-0.176595
-0.211712
-0.337457
-0.33806
-0.341922
-0.301087
-0.193285
-0.0968535
-0.064623
-0.046365
-0.0453479
-0.0394538
-0.034963
-0.0309524
-0.0263179
-0.0222943
-0.0198553
-0.0206323
-0.0559027
-0.057534
-0.0567132
-0.0572634
-0.0573187
-0.0581161
-0.056137
-0.0561118
-0.0474298
-0.0492797
-0.0385752
-0.0476002
-0.0100194
0.0762037
0.20039
0.267009
0.295324
0.25771
0.26128
0.193681
0.0584602
-0.012935
-0.12644
-0.166703
-0.180072
-0.156761
-0.10435
-0.0374957
-0.0116094
-0.0232227
-0.0311481
-0.0340036
-0.0250645
-0.0183906
-0.0148841
-0.0170681
-0.0158385
-0.0155074
-0.0150679
-0.0173782
-0.0501244
-0.0448266
-0.047877
-0.0525437
-0.0562249
-0.0596345
-0.0618592
-0.0635053
-0.0630135
-0.0530805
-0.0424224
-0.0475728
-0.0727937
-0.0680519
0.000420829
0.088296
0.156169
0.248667
0.32774
0.280903
0.21268
0.136858
0.103654
0.102077
0.13101
0.158718
0.162431
0.111916
0.048369
0.0115508
-0.00412044
0.00280152
-0.00235862
-0.00502524
-0.00869839
-0.00985289
-0.0150614
-0.0203619
-0.0241519
-0.0200516
-0.0537888
-0.0562353
-0.0534333
-0.0496834
-0.0476585
-0.0484602
-0.0519236
-0.0579677
-0.0747217
-0.0871606
-0.0952835
-0.0752307
-0.0490189
-0.0897293
-0.13541
-0.17694
-0.164433
-0.110993
-0.0503414
0.0964357
0.175407
0.349791
0.407608
0.419504
0.372836
0.279774
0.178018
0.103018
0.0871649
0.0869199
0.0568341
0.0325254
0.00258072
-0.00601527
-0.0117876
-0.0139175
-0.0140395
-0.0108974
-0.00785644
-0.00929275
-0.0491694
-0.049198
-0.0528348
-0.0573028
-0.0625769
-0.0681042
-0.0739947
-0.0789906
-0.092335
-0.0984831
-0.134658
-0.210029
-0.271367
-0.290384
-0.274224
-0.281676
-0.308396
-0.235145
-0.185792
-0.0912321
0.0617208
0.174611
0.27282
0.353148
0.359356
0.362511
0.380343
0.3315
0.242445
0.138791
0.0739904
0.0494714
0.0363062
0.0255269
0.0164677
0.00819978
0.00155332
-0.00269026
-0.00506707
-0.00728012
-0.0447602
-0.0430072
-0.0448517
-0.0442641
-0.0466662
-0.0501426
-0.0563911
-0.0630906
-0.076479
-0.0851559
-0.100891
-0.123877
-0.179468
-0.257069
-0.364853
-0.403822
-0.477935
-0.45048
-0.360345
-0.228993
-0.0233488
0.202659
0.401471
0.446794
0.463637
0.412564
0.340619
0.225828
0.131104
0.109099
0.078318
0.0525621
0.0290867
0.0152734
0.0072179
4.37352e-05
-0.00402586
-0.00429287
-0.00646927
-0.00467339
-0.0415611
-0.0437841
-0.0405564
-0.0363537
-0.0342619
-0.0344934
-0.0375087
-0.0431652
-0.0534601
-0.0870629
-0.0953511
-0.143288
-0.180615
-0.258611
-0.36289
-0.444279
-0.478812
-0.450406
-0.392235
-0.219221
0.00337806
0.227602
0.383959
0.491473
0.486725
0.394258
0.296236
0.211928
0.170951
0.135761
0.0876057
0.0404928
0.0163482
0.00616315
0.000665515
-0.0057058
-0.00572786
-0.00307973
-0.000941387
-0.00323515
-0.0280974
-0.0253171
-0.0276125
-0.0314494
-0.0344197
-0.0349573
-0.0356067
-0.0349212
-0.0282685
-0.0228657
-0.0426758
-0.0926485
-0.14176
-0.141043
-0.137061
-0.133907
-0.118999
-0.120279
-0.104576
-0.0179888
0.058221
0.19974
0.293136
0.329642
0.313936
0.284299
0.254635
0.202861
0.131768
0.0597501
0.0331988
0.0208042
0.0122597
0.00799492
0.00341249
-5.89104e-05
-0.00491538
-0.00986835
-0.0135227
-0.010129
-0.0252112
-0.0251876
-0.0227652
-0.0181275
-0.0122554
-0.00603222
-0.000265244
0.00579236
0.0150019
0.0294726
0.078734
0.165322
0.213127
0.21939
0.210916
0.188711
0.183238
0.152032
0.151793
0.232854
0.268459
0.258551
0.218006
0.160024
0.136218
0.0573174
-0.00969016
-0.067587
-0.0780265
-0.0302621
-0.010693
-0.0175791
-0.0240015
-0.0253068
-0.0211122
-0.0181106
-0.0142635
-0.00922191
-0.00631142
-0.00811079
-0.0222427
-0.0250438
-0.0221959
-0.0178075
-0.0116618
-0.00361725
0.00795186
0.0242792
0.0512945
0.0794641
0.120014
0.166278
0.250144
0.358959
0.441949
0.510934
0.53254
0.569576
0.462487
0.313592
0.208299
-0.0592235
-0.189973
-0.152868
-0.20379
-0.210768
-0.162004
-0.106692
-0.0681878
-0.0730383
-0.0676608
-0.053282
-0.0375963
-0.0245772
-0.0183903
-0.0137439
-0.0112533
-0.00933517
-0.00823181
-0.0102567
-0.0113963
-0.00858953
-0.00939327
-0.00958864
-0.00608912
-0.000160284
0.0128139
0.0386546
0.0679071
0.121737
0.184776
0.269725
0.356891
0.4712
0.583819
0.690297
0.696833
0.639419
0.456392
0.300381
-0.0334557
-0.263662
-0.383828
-0.489396
-0.491639
-0.449694
-0.366676
-0.284491
-0.211689
-0.159791
-0.110938
-0.0816064
-0.0548981
-0.0324818
-0.0248284
-0.0202797
-0.0188595
-0.0190357
-0.0194069
-0.0144825
-0.0135539
-0.0132317
-0.00833036
-0.00133288
0.00761134
0.0174741
0.0300577
0.0455069
0.0703313
0.109714
0.168315
0.279747
0.370858
0.434549
0.485892
0.512585
0.517654
0.419027
0.27868
-0.0141983
-0.141145
-0.340548
-0.47064
-0.524524
-0.52188
-0.46988
-0.406743
-0.339548
-0.2542
-0.159193
-0.108553
-0.0793663
-0.0623433
-0.0483187
-0.035625
-0.0286416
-0.0206137
-0.012963
-0.00825097
-0.00932437
-0.0146546
-0.0136519
-0.0130094
-0.0139292
-0.0119877
-0.00794659
8.15608e-06
0.0155046
0.0375132
0.0705449
0.0859455
0.103822
0.182466
0.292474
0.400138
0.485702
0.490121
0.423947
0.263637
-0.0256654
-0.321995
-0.562903
-0.668592
-0.657729
-0.619842
-0.495968
-0.3605
-0.225506
-0.128308
-0.0934591
-0.0806914
-0.0495528
-0.0280085
-0.0146895
-0.00672229
-0.00476766
-0.00558011
-0.00858011
-0.01088
-0.00976125
-0.0206119
-0.0179697
-0.0186871
-0.019786
-0.0187477
-0.0168603
-0.0155991
-0.0105756
0.0046174
0.0181505
0.046398
0.0910692
0.117286
0.13973
0.178132
0.269006
0.256334
0.161201
0.0702058
-0.06101
-0.25257
-0.291915
-0.327053
-0.373768
-0.339094
-0.280041
-0.228667
-0.203913
-0.145193
-0.0797497
-0.0427474
-0.0249604
-0.0077971
-0.00507055
-0.00373953
-0.00307761
-0.00102504
-0.00246796
-0.00315207
-0.00305675
-0.0282613
-0.0311917
-0.0306578
-0.0295267
-0.0302216
-0.031389
-0.0364933
-0.0419403
-0.0475513
-0.0585885
-0.0855929
-0.106622
-0.110876
-0.126408
-0.125046
-0.114173
-0.114276
-0.0515732
-0.000944044
-0.0447305
-0.00630335
0.00354725
0.0558104
0.109834
0.127715
0.13791
0.131566
0.102381
0.0856995
0.0719063
0.0454331
0.0318997
0.0191991
0.0137666
0.00986182
0.00686045
0.00769908
0.00936309
0.0105959
0.00678845
-0.029134
-0.0279435
-0.0327226
-0.0400482
-0.0487187
-0.0583219
-0.0709666
-0.0806988
-0.0940793
-0.122035
-0.172152
-0.264706
-0.305082
-0.327725
-0.336991
-0.3358
-0.284959
-0.219536
-0.0579753
0.079316
0.175882
0.324888
0.429071
0.446867
0.45062
0.420056
0.388324
0.341577
0.274343
0.183028
0.120008
0.0829335
0.0596623
0.0472412
0.0360807
0.025146
0.0155727
0.00710403
0.0026804
0.00697335
-0.0336997
-0.0355704
-0.0371146
-0.0390819
-0.0436823
-0.0534394
-0.0686158
-0.0905387
-0.120218
-0.162041
-0.201427
-0.268792
-0.378025
-0.502742
-0.621766
-0.689192
-0.662099
-0.586124
-0.363667
-0.0140748
0.382586
0.70007
0.872965
0.906265
0.862469
0.742985
0.587158
0.422175
0.282659
0.202015
0.156664
0.107718
0.0716027
0.0466341
0.0297179
0.0202236
0.015055
0.0136633
0.0131706
0.0144961
-0.0336632
-0.0351411
-0.0379769
-0.0427749
-0.0503023
-0.0612054
-0.0762991
-0.0993313
-0.134384
-0.183422
-0.266233
-0.364971
-0.472342
-0.574569
-0.661019
-0.706069
-0.661466
-0.478201
-0.249071
0.048236
0.332396
0.563232
0.746162
0.867113
0.824869
0.741176
0.628415
0.5027
0.378717
0.272903
0.18212
0.121396
0.0820586
0.0585482
0.0429448
0.0326022
0.0263151
0.0231161
0.0210327
0.0182472
-0.0266527
-0.0240558
-0.0267817
-0.0320965
-0.0403183
-0.0514175
-0.0593223
-0.0776984
-0.0996635
-0.128172
-0.171495
-0.236713
-0.322533
-0.400733
-0.471542
-0.521439
-0.5303
-0.452195
-0.298223
0.0315677
0.310334
0.567141
0.708989
0.761608
0.621418
0.545945
0.435273
0.334575
0.243537
0.168386
0.121309
0.0834357
0.0625341
0.04833
0.0359581
0.0281611
0.0216419
0.0148905
0.0100251
0.0112193
-0.0207266
-0.0214273
-0.0188379
-0.0156061
-0.0148139
-0.016986
-0.0212245
-0.0292222
-0.0442422
-0.0567376
-0.0775397
-0.117439
-0.200875
-0.28692
-0.360047
-0.400294
-0.363965
-0.289762
-0.149119
0.0105798
0.248631
0.413532
0.538594
0.560274
0.521066
0.435772
0.325258
0.213332
0.122485
0.0797443
0.0543519
0.0324948
0.0148529
0.00654975
0.00229595
0.00164968
0.00423747
0.00778569
0.00982
0.00557781
-0.00748373
-0.00544983
-0.00514596
-0.00563423
-0.00599825
-0.00544594
-0.00286262
-4.79135e-05
0.00777835
0.00818512
0.00630925
0.00323994
0.0113812
0.0479608
0.0960907
0.134733
0.131824
0.197196
0.197145
0.142431
0.180019
0.129921
0.11859
0.11313
0.0662108
0.0500597
0.0468196
0.0328457
0.0225948
0.00867315
-0.0148745
-0.0184203
-0.0149758
-0.011544
-0.00935042
-0.00744115
-0.00714366
-0.00753648
-0.00727709
-0.00614859
0.00169313
0.0025969
0.00460284
0.00861879
0.0145583
0.0233339
0.0344125
0.0521051
0.0812971
0.127216
0.20136
0.285393
0.360791
0.439442
0.50341
0.557448
0.531304
0.469459
0.383966
0.253397
0.190602
0.0666957
-0.0714689
-0.197782
-0.260466
-0.263622
-0.264421
-0.243714
-0.213319
-0.161386
-0.101882
-0.0720015
-0.0565943
-0.0447623
-0.0368949
-0.029397
-0.0246552
-0.0210284
-0.017752
-0.013461
0.00667459
0.00369119
0.00786601
0.0159108
0.0278003
0.0429128
0.0650826
0.0919998
0.129233
0.187303
0.251368
0.350566
0.473647
0.602137
0.733921
0.826686
0.904582
0.849141
0.6663
0.38955
0.0815987
-0.245706
-0.460376
-0.564014
-0.519852
-0.477228
-0.404442
-0.321226
-0.238053
-0.174701
-0.14004
-0.106658
-0.076988
-0.0585303
-0.0455062
-0.0351319
-0.0273132
-0.020841
-0.0158668
-0.0150269
0.016549
0.0186667
0.0202438
0.0225452
0.0292163
0.0428975
0.0641704
0.0956554
0.139555
0.201259
0.281267
0.394782
0.559372
0.739112
0.896179
1.00625
0.937837
0.846221
0.62074
0.329122
0.024401
-0.320247
-0.552428
-0.688494
-0.704369
-0.665165
-0.54868
-0.408221
-0.287217
-0.201135
-0.144101
-0.100158
-0.0695833