/*--------------------------------*- C++ -*----------------------------------*\
| =========                 |                                                 |
| \\      /  F ield         | OpenFOAM: The Open Source CFD Toolbox           |
|  \\    /   O peration     | Version:  v2106                                 |
|   \\  /    A nd           | Website:  www.openfoam.com                      |
|    \\/     M anipulation  |                                                 |
\*---------------------------------------------------------------------------*/
FoamFile
{
    version     2.0;
    format      ascii;
    arch        "LSB;label=32;scalar=64";
    class       volVectorField;
    location    "0";
    object      U;
}
// * * * * * * * * * * * * * * * * * * * * * * * * * * * * * * * * * * * * * //

dimensions      [0 1 -1 0 0 0 0];

internalField   nonuniform List<vector> 
11644
(
(0.00017291 -0.000102299 -3.52039e-21)
(0.000150216 -0.000254561 -9.70818e-21)
(0.000148416 -0.000384001 -5.20868e-21)
(0.000239381 -0.000471442 0)
(0.000229948 -0.000653741 0)
(0.000174768 -0.000809375 0)
(0.00013708 -0.000969925 0)
(0.000176244 -0.00106058 0)
(0.000167651 -0.0010642 0)
(0.00013508 -0.000970314 0)
(4.65802e-05 -0.000734904 0)
(-2.10459e-05 -0.0003516 0)
(2.70297e-05 0.000188682 0)
(-0.000719178 0.000841406 0)
(-0.000626792 0.00144514 0)
(-7.04418e-05 0.00196196 0)
(0.000322032 0.001976 0)
(-7.81344e-05 0.00145749 0)
(-0.001377 0.00161817 0)
(-0.0010772 0.00247038 -5.84003e-31)
(0.000530683 0.00142286 5.65757e-31)
(0.00116029 -0.000759247 0)
(-0.000116796 -0.00186792 0)
(-0.00123574 -0.00129132 0)
(-0.000785573 -0.000773956 0)
(-0.000470172 -0.000632606 0)
(-0.000430037 2.7525e-05 0)
(6.11809e-05 0.00059432 0)
(-5.87108e-05 0.00101745 0)
(4.31428e-05 0.00135603 0)
(0.00013265 0.00152548 0)
(0.000182499 0.00157521 0)
(0.000162547 0.00152764 0)
(0.000161123 0.00140438 0)
(0.000178277 0.00124424 0)
(0.000222018 0.00103673 0)
(0.000221865 0.000824802 0)
(0.00030166 0.000627845 0)
(0.000335011 0.000422598 0)
(0.000291032 0.000160951 -6.82566e-22)
(0.000374241 -0.000117645 -4.52191e-21)
(0.000451937 -0.000341909 -4.18874e-21)
(0.000522767 -0.000587499 -2.24964e-21)
(0.000619181 -0.00085832 0)
(0.000616016 -0.00112779 0)
(0.000697583 -0.00141617 0)
(0.000777556 -0.00170172 0)
(0.000782496 -0.00192809 0)
(0.000782424 -0.00200093 0)
(0.000845225 -0.00183888 0)
(0.000784972 -0.00143193 0)
(0.000603679 -0.000593232 0)
(0.000211485 0.000378591 0)
(0.000537545 0.00180302 0)
(0.000134543 0.00297718 0)
(-0.000510852 0.00376426 -6.70171e-23)
(-0.00148283 0.00434946 4.27058e-22)
(-0.00261283 0.00524453 5.07988e-21)
(-0.00269289 0.00439261 -2.4736e-20)
(-0.00121745 0.00131505 -6.15404e-20)
(-0.000251233 -0.000735399 7.75441e-20)
(0.000519052 -0.000706818 3.29198e-21)
(0.000293373 -0.000310192 6.52773e-22)
(-0.000598491 -0.000655449 -6.12889e-22)
(-0.00105824 -0.000781554 1.57983e-22)
(-0.000413491 0.000193919 0)
(6.37968e-05 0.00124166 0)
(-5.45553e-05 0.00229353 0)
(0.000487887 0.00312884 0)
(0.000736921 0.00359835 0)
(0.000769307 0.00379246 0)
(0.000834927 0.0037531 0)
(0.000932712 0.00350716 0)
(0.000927548 0.0031531 0)
(0.000909349 0.00270445 0)
(0.000936339 0.00223443 0)
(0.000885931 0.00175627 0)
(0.000970696 0.00125529 0)
(0.000933089 0.000769041 0)
(0.000813675 0.000271182 0)
(0.000140399 -7.03936e-05 0)
(0.000320061 -0.000250269 0)
(0.000597152 -0.000534296 0)
(0.000770157 -0.000863538 0)
(0.000872046 -0.0011107 -4.13068e-21)
(0.00106143 -0.0014007 0)
(0.00128831 -0.00169475 0)
(0.00153065 -0.00195337 0)
(0.00170195 -0.00214051 0)
(0.0017355 -0.00219399 0)
(0.00160387 -0.0018469 0)
(0.000977637 -0.00118069 0)
(0.00034264 0.000119668 2.2568e-22)
(-0.0013032 0.00166319 8.29093e-21)
(-0.00198448 0.00370586 -2.63924e-21)
(-0.00203814 0.00558491 -2.65813e-20)
(-0.0026351 0.00715353 4.64466e-20)
(-0.00172722 0.00631046 1.03925e-19)
(-0.0010279 0.00316595 -1.0722e-19)
(-0.000653298 0.000376688 1.13312e-19)
(-0.00146132 -0.000710167 -1.11435e-19)
(-0.00171667 -0.00123719 -1.08554e-20)
(-0.00108511 -0.00091339 1.02405e-20)
(-0.000626088 -0.000641739 -3.38482e-21)
(-0.000750532 -0.000425005 -9.08718e-21)
(-0.000902853 0.000944565 -3.16668e-21)
(-0.000404056 0.0023341 -7.95514e-21)
(0.000733837 0.00360074 -1.79173e-22)
(0.00115153 0.00450382 0)
(0.00162512 0.00490495 0)
(0.00208651 0.00484436 0)
(0.0022602 0.00453766 0)
(0.00226269 0.00408223 0)
(0.00211674 0.00353267 0)
(0.00202802 0.00291225 0)
(0.00177909 0.00236124 0)
(0.00164234 0.00177725 0)
(0.00149074 0.00122988 0)
(0.00134236 0.000691661 0)
(0.00116797 0.000187021 0)
(-8.89067e-05 0.00010458 0)
(2.83489e-05 8.07449e-05 0)
(0.000261454 -0.000186071 0)
(0.00048922 -0.00037823 0)
(0.000829471 -0.000617568 0)
(0.00120281 -0.000935667 0)
(0.00169115 -0.00128618 0)
(0.00213734 -0.00172117 0)
(0.00263162 -0.00217733 0)
(0.00293036 -0.00253736 0)
(0.00265952 -0.00302786 9.50738e-24)
(0.00233196 -0.00286669 2.04251e-21)
(0.00127209 -0.00273259 -1.11845e-20)
(0.000902179 -0.000987066 -9.91237e-21)
(-2.89612e-06 0.00213698 1.15613e-19)
(-0.00143699 0.00438547 -1.68393e-19)
(-0.000982961 0.0054622 1.16519e-20)
(-0.000253593 0.00441483 -4.34388e-20)
(-0.00088937 0.00379303 2.99193e-20)
(-0.00176647 0.00264696 -3.19654e-20)
(-0.00285614 -0.0007606 1.24257e-19)
(-0.00367299 -0.00224494 3.14776e-21)
(-0.00223669 -0.00319082 -8.12689e-20)
(-0.0012717 -0.00281494 1.45823e-19)
(-0.000881051 -0.00158276 -8.12973e-21)
(0.000146232 0.000635113 -8.72281e-20)
(0.00183613 0.00270787 4.86143e-21)
(0.0026177 0.00409018 1.81053e-21)
(0.00382844 0.00471228 2.04096e-21)
(0.00413693 0.00486497 -2.56968e-23)
(0.00391551 0.0047013 0)
(0.00376844 0.00422108 0)
(0.00350873 0.00361776 0)
(0.00309841 0.00302226 0)
(0.00269911 0.00248738 0)
(0.0022832 0.00196946 0)
(0.00198038 0.00150104 0)
(0.00178142 0.000985078 0)
(0.00164293 0.000468608 0)
(0.00151902 0.000157784 0)
(-0.00029203 -3.23956e-05 0)
(-0.000230103 -0.000131687 0)
(-0.000144112 -8.70345e-05 0)
(0.000122721 -0.000177673 0)
(0.000546723 -0.000310845 0)
(0.00112606 -0.000567286 0)
(0.00179478 -0.000984976 0)
(0.00255735 -0.00157469 0)
(0.00324973 -0.00242513 0)
(0.00375827 -0.00369551 1.13044e-22)
(0.00447879 -0.00507569 -1.848e-20)
(0.00461 -0.00679336 -3.38655e-20)
(0.00525547 -0.00631789 6.28013e-20)
(0.00271717 -0.00531878 -4.64574e-20)
(-0.000517423 -0.00236597 1.58075e-19)
(0.00115348 0.00101058 -1.81074e-19)
(0.000474968 0.00211376 1.29622e-19)
(-0.00346943 0.00243758 -1.86808e-19)
(-0.00413409 0.00199409 -2.11837e-19)
(-0.00567094 0.0013128 -5.40826e-20)
(-0.00680429 -0.000502485 3.5311e-19)
(-0.00651476 -0.00247093 -2.61039e-19)
(-0.00496483 -0.00448964 3.83287e-19)
(-0.0036314 -0.00561164 -2.43585e-19)
(-0.00181657 -0.00332966 2.86104e-19)
(-0.000887024 0.000174475 -1.89819e-19)
(0.00037935 0.00274748 7.08691e-20)
(0.00365184 0.00412735 -1.25007e-20)
(0.00487578 0.00479384 -1.35357e-20)
(0.00594537 0.00471162 1.27495e-20)
(0.005856 0.00445352 -2.15897e-21)
(0.00504685 0.00402491 0)
(0.00435322 0.00342604 0)
(0.00366775 0.00279516 0)
(0.00305919 0.00226366 0)
(0.00261686 0.0017234 0)
(0.00227153 0.00126498 0)
(0.002027 0.000812876 0)
(0.00183996 0.00042433 0)
(0.00183016 6.80146e-05 0)
(-0.000706964 0.000117253 0)
(-0.000566025 0.00034364 0)
(-0.00051289 0.000127625 0)
(-0.000289553 8.27341e-05 0)
(0.000139278 -2.62488e-05 0)
(0.000754576 -0.000230057 0)
(0.00150637 -0.000607053 0)
(0.00248755 -0.00135854 0)
(0.0034382 -0.00255184 4.65593e-22)
(0.00513959 -0.00428357 1.05093e-20)
(0.007506 -0.00643103 2.66955e-20)
(0.0101345 -0.00727164 -3.99987e-20)
(0.0093081 -0.0109315 -4.87609e-20)
(0.0105732 -0.011146 -1.14727e-19)
(0.00819229 -0.00675853 3.71903e-20)
(0.000128326 -0.00321043 -2.48188e-20)
(-0.00327049 -0.00393062 1.8356e-19)
(-0.00410505 -0.00413252 7.56606e-20)
(-0.00671109 -0.00137377 -5.90494e-20)
(-0.00781997 -0.000553502 -9.90361e-20)
(-0.00830577 -0.00279262 2.32997e-19)
(-0.00711279 -0.00317301 1.02329e-19)
(-0.0056794 -0.00356621 -2.73661e-19)
(-0.00421674 -0.00317667 -2.01182e-20)
(-0.00186327 -0.00340273 -8.60616e-20)
(0.00165561 2.26808e-05 -3.14079e-20)
(0.00422924 0.00387966 1.0689e-19)
(0.00415471 0.00564349 6.17971e-20)
(0.00539485 0.00487829 -3.31259e-20)
(0.00609001 0.00468762 1.60965e-20)
(0.0065476 0.00423539 -2.52739e-20)
(0.00587979 0.00385727 2.54399e-21)
(0.00472368 0.00334582 0)
(0.00387813 0.00271618 0)
(0.00319278 0.00211553 0)
(0.00269368 0.00166354 0)
(0.00234251 0.00123037 0)
(0.00205657 0.000905443 0)
(0.00193067 0.000478137 0)
(0.00193077 0.000131958 0)
(-0.00140841 0.00010939 0)
(-0.0013737 0.000149354 0)
(-0.00115015 0.000493243 0)
(-0.000956843 0.000718002 0)
(-0.000633424 0.00071772 0)
(-9.82226e-05 0.000689178 0)
(0.000654307 0.000404709 0)
(0.00165688 -0.000329212 -4.77865e-22)
(0.00360075 -0.00159864 2.74209e-20)
(0.00680702 -0.00309441 -3.43113e-20)
(0.00999998 -0.00504234 -1.5056e-20)
(0.0126502 -0.00941435 7.55729e-21)
(0.0147943 -0.0110077 7.64574e-20)
(0.0116801 -0.0137764 -1.38528e-20)
(0.0120089 -0.0175861 7.07483e-20)
(0.0100329 -0.0134011 -1.13305e-19)
(-0.000694351 -0.00612207 6.8603e-20)
(-0.000949066 -0.00600789 -2.25313e-19)
(-0.00230295 -0.0057302 -4.12985e-20)
(-0.00335538 -0.00517414 9.39111e-20)
(-0.00390494 -0.000598781 -9.45658e-20)
(-0.00333342 -0.00223502 3.48735e-19)
(-0.00244433 -0.00248788 -2.20732e-19)
(-0.00271504 -0.00466958 3.50342e-20)
(0.00418334 -0.00213462 5.25329e-20)
(0.00629345 0.00208277 -9.02169e-21)
(0.00122812 0.0035012 -2.43326e-20)
(0.00563654 0.00406165 -5.24712e-20)
(0.00369314 0.00448689 -4.08419e-20)
(0.00378636 0.00396355 9.21877e-21)
(0.00454322 0.00323547 2.3383e-20)
(0.00505023 0.00265715 -8.86874e-22)
(0.00448081 0.00247814 -1.03431e-21)
(0.0035411 0.00235163 0)
(0.00295835 0.0019432 0)
(0.00243888 0.00154747 0)
(0.00216552 0.00116453 0)
(0.00196569 0.00082564 0)
(0.00185209 0.000402721 0)
(0.00178114 0.000234896 0)
(-0.00243609 0.00011008 0)
(-0.00240327 0.000431528 0)
(-0.0023323 0.000718067 0)
(-0.00212904 0.000780799 0)
(-0.00191349 0.00119975 0)
(-0.00162061 0.00141855 0)
(-0.000982663 0.0015463 0)
(0.000222097 0.00106126 -5.64705e-21)
(0.00328896 0.000252618 -1.10494e-20)
(0.00687009 -0.00118445 2.53065e-20)
(0.00963741 -0.00352001 -2.81359e-21)
(0.0121265 -0.00552917 -6.56781e-20)
(0.0186709 -0.00844426 1.32124e-19)
(0.012694 -0.0155119 -3.07443e-21)
(0.0170785 -0.0126241 -9.22084e-20)
(0.0190813 -0.0136809 -2.20503e-20)
(0.0103166 -0.0157659 -1.13732e-19)
(0.00244598 -0.00671649 2.84311e-20)
(-0.0026732 -0.00547139 8.43007e-20)
(-0.00425267 -0.0029289 2.72274e-19)
(-0.00349032 -0.00145517 -6.89718e-20)
(-0.0017264 -0.00398717 6.08317e-19)
(-0.000746628 -0.00349259 2.67533e-19)
(-0.00312657 -0.00200411 -1.59829e-19)
(0.00563245 0.00216647 1.46341e-19)
(0.00803453 -0.00122022 -1.00677e-19)
(0.00640237 -0.00300599 7.00473e-20)
(0.00307355 0.00149266 -2.13767e-20)
(0.000588263 2.5263e-05 -2.55471e-20)
(0.00042005 0.00172635 -1.15007e-20)
(0.000375339 0.00153907 1.39883e-20)
(0.00143577 0.00129076 3.05741e-20)
(0.00260649 0.00128237 -9.18212e-21)
(0.00239326 0.00160648 0)
(0.00204115 0.00159483 0)
(0.00185963 0.00122894 0)
(0.00167939 0.0011155 0)
(0.00160981 0.000790342 0)
(0.00149832 0.000671047 0)
(0.00152348 -0.000112015 0)
(-0.00350763 0.000204049 0)
(-0.00356176 0.000542237 0)
(-0.00346819 0.000654877 0)
(-0.00349764 0.001373 0)
(-0.00354533 0.00189821 0)
(-0.00358911 0.00246498 0)
(-0.00341188 0.00269651 1.99506e-21)
(-0.00167781 0.00229984 -1.15479e-21)
(0.00166033 0.0019679 3.89455e-20)
(0.00424521 0.000549231 -3.8294e-20)
(0.00652162 -0.00204227 2.89075e-20)
(0.00845361 -0.00549599 -1.14385e-19)
(0.0112278 -0.0213193 7.39255e-20)
(0.0102321 -0.0188318 1.35852e-20)
(0.0109525 -0.0151159 1.02705e-19)
(0.00106438 -0.0165929 -7.22824e-20)
(0.00784128 -0.0180773 -8.61694e-20)
(-0.00169853 -0.015851 -1.59576e-19)
(-0.00575211 -0.00525647 -9.77835e-21)
(-0.00543362 -0.00299175 3.23534e-19)
(-0.00389654 0.000908216 -1.41615e-19)
(-0.00242812 0.000642232 4.00563e-20)
(-0.00168717 -0.00113827 1.14628e-19)
(-0.000364539 0.000913524 2.65895e-19)
(0.000601957 9.25174e-05 1.2208e-19)
(-0.00988546 -0.00181708 2.75987e-20)
(-0.0054611 -0.00481755 2.02643e-20)
(-0.00790558 0.00247559 -7.65217e-20)
(-0.00698034 -0.00481189 2.75262e-20)
(-0.00644141 -0.00116565 3.83578e-20)
(-0.00523302 -0.000293159 1.57201e-20)
(-0.00344053 0.000572979 -1.02436e-20)
(-0.000947892 0.00094381 -3.46861e-21)
(0.000523904 0.00140902 -2.69763e-21)
(0.000666817 0.00175332 0)
(0.000768433 0.00168954 0)
(0.000832122 0.00138872 0)
(0.000946779 0.00119618 0)
(0.00105463 0.000572077 0)
(0.00109276 0.000657895 0)
(-0.0042605 -8.52766e-05 0)
(-0.00461596 0.000399841 0)
(-0.00474923 0.000955574 0)
(-0.00536667 0.00173887 0)
(-0.00562749 0.00218396 0)
(-0.00599926 0.00284083 0)
(-0.00583214 0.00277196 2.03103e-22)
(-0.00405754 0.00281395 -4.8877e-22)
(-0.00165941 0.00297099 2.49778e-21)
(0.000181105 0.00093446 -4.86139e-21)
(0.00184158 -0.00147154 1.15215e-20)
(0.00432763 -0.00304901 -3.65969e-21)
(0.00968944 -0.0210393 -1.76571e-20)
(0.00760853 -0.0182746 5.67714e-20)
(0.0077195 -0.0163158 -3.81882e-20)
(-0.00220928 -0.0286971 -4.47044e-20)
(-0.0069238 -0.0190063 4.2553e-20)
(-0.0125678 -0.0155092 -1.67523e-20)
(-0.0118181 -0.00716201 -1.87724e-19)
(-0.010438 0.00434779 -3.029e-20)
(-0.0015323 0.008781 1.04238e-19)
(0.00188942 0.00448344 -4.51106e-20)
(0.00116017 -0.00160054 -3.6831e-21)
(-0.00547123 -0.00520807 3.82505e-20)
(-0.0116199 -0.00637953 -4.09691e-20)
(-0.0146316 0.000133374 2.48724e-19)
(-0.0137884 -0.0119303 4.08072e-20)
(-0.0198535 0.000819886 -1.14841e-20)
(-0.0198373 -0.00346915 -8.7919e-21)
(-0.016631 -0.00217601 1.04486e-20)
(-0.0122683 -0.000312089 -5.58019e-21)
(-0.00863365 0.00139346 6.21719e-21)
(-0.0049393 0.0017577 -5.04816e-21)
(-0.00168892 0.00215818 2.66717e-21)
(-0.000625676 0.00235041 0)
(-0.000173897 0.00214217 0)
(0.000261871 0.00159072 0)
(0.000522049 0.0013118 0)
(0.000851858 0.00085953 0)
(0.000868528 -6.94618e-05 0)
(-0.00559129 0.00107073 0)
(-0.00534691 0.000256406 0)
(-0.00600035 0.00105547 0)
(-0.0061281 0.000874762 0)
(-0.00662286 0.00150549 0)
(-0.00717952 0.00185211 0)
(-0.00736144 0.00187971 2.09272e-21)
(-0.00606938 0.0020493 -1.7818e-21)
(-0.00421419 0.001545 -4.63184e-21)
(-0.00170556 -0.000867294 -6.42268e-21)
(0.00150911 -0.00573012 -6.99191e-22)
(0.00090341 -0.00498386 -6.76828e-22)
(-0.000536738 -0.00854561 7.24404e-21)
(0.0141433 -0.01955 1.57697e-20)
(0.000477817 -0.0244473 2.58222e-20)
(0.00598836 -0.0261805 1.73565e-20)
(-0.00420791 -0.0303087 2.30402e-21)
(-0.0210809 -0.0236078 1.60439e-21)
(-0.0340537 -0.00839906 -1.74936e-21)
(-0.0315859 0.0201595 4.88175e-20)
(0.000265763 0.0369113 2.86565e-19)
(0.023528 0.011728 5.86037e-19)
(0.0103097 -0.0110731 -1.20015e-20)
(-0.00449564 -0.0141568 4.36843e-21)
(-0.0143212 -0.00757269 -2.81118e-21)
(-0.0217123 -0.00142773 -2.12681e-20)
(-0.0292462 -0.0099778 -1.00913e-20)
(-0.0341363 -0.00685822 -1.22147e-20)
(-0.0325703 -0.00474043 2.05235e-20)
(-0.0268874 -3.01638e-06 -1.177e-20)
(-0.0194117 0.00264339 8.1032e-21)
(-0.0131723 0.00379622 -3.33806e-21)
(-0.00781653 0.00383254 2.0786e-21)
(-0.00333382 0.00376995 2.79503e-22)
(-0.00116422 0.00382835 0)
(-0.000289261 0.00323715 0)
(0.000289911 0.00277653 0)
(0.000629039 0.00177591 0)
(0.000576883 0.00131251 0)
(0.00119173 0.000755088 0)
(-0.00626051 -0.00203769 0)
(-0.00618293 0.00031792 0)
(-0.00594385 0.000318231 0)
(-0.00609326 0.00082909 0)
(-0.00698697 0.00127967 0)
(-0.00795672 0.00140414 0)
(-0.00763468 0.000861786 -1.04403e-22)
(-0.00492962 0.00026864 -1.07441e-22)
(-0.00103452 -0.00216027 -1.02524e-21)
(0.00114168 -0.00475422 1.42667e-21)
(0.00547225 -0.0105304 -2.80651e-21)
(0.00829634 -0.0136002 1.15024e-21)
(0.00946144 -0.0168866 6.1838e-22)
(0.00731232 -0.0260208 -6.27371e-21)
(0.00247358 -0.02906 1.10034e-20)
(0.000126473 -0.0411917 -4.60293e-20)
(-0.0123931 -0.0447604 2.92623e-21)
(-0.0304145 -0.0458189 -4.56471e-21)
(-0.0361019 -0.0586262 -4.207e-20)
(-0.0166165 -0.0728334 9.6841e-19)
(-0.018949 -0.0269381 -3.93846e-22)
(-0.0304414 -0.020371 1.80459e-20)
(-0.0393288 -0.0205451 3.52683e-21)
(-0.0445798 0.00154837 -2.05288e-22)
(-0.0419419 -0.0114108 -3.55185e-21)
(-0.0370439 -0.00105729 1.59419e-21)
(-0.0309682 0.00528628 1.22278e-21)
(-0.0227893 0.00641714 -1.8302e-21)
(-0.0150361 0.00691269 9.42349e-22)
(-0.00802018 0.006886 2.37166e-22)
(-0.00271804 0.0058649 -8.71364e-23)
(-0.000258122 0.00514649 0)
(0.000498724 0.00420957 0)
(0.000911437 0.00347057 0)
(0.00145888 0.00306916 0)
(0.00182374 0.00226809 0)
(0.00133138 0.000151795 0)
(-0.00422236 0.0013372 0)
(-0.00587804 0.000620008 0)
(-0.00579301 0.000262099 0)
(-0.00604943 0.000846978 0)
(-0.00583304 0.000951832 0)
(-0.00584965 0.00097201 0)
(-0.00377852 0.000425285 6.54727e-22)
(0.000756588 -0.000367179 8.58715e-22)
(0.00853437 -0.00334561 -2.87233e-21)
(0.0147977 -0.00579258 8.59444e-21)
(0.0220988 -0.0101679 -9.01168e-21)
(0.0276591 -0.0118505 3.5822e-21)
(0.0368546 -0.0125775 3.35536e-21)
(0.0264691 -0.0243986 7.55321e-21)
(0.0341279 -0.0282442 -1.80312e-20)
(0.0253888 -0.0427717 3.00352e-20)
(0.0101245 -0.0595771 -1.55089e-20)
(-0.0147581 -0.0800966 -5.12651e-21)
(0.00537023 -0.0821219 -8.25329e-19)
(-0.0262599 -0.079786 -8.83783e-19)
(-0.0505603 -0.0180882 6.3587e-21)
(-0.0348619 -0.00738318 -4.71805e-21)
(-0.0278393 -0.0134134 6.13867e-21)
(-0.0353243 0.00161256 6.6572e-23)
(-0.0325848 -0.00650915 1.62686e-20)
(-0.0306311 0.00256257 -2.42562e-20)
(-0.0257684 0.00701068 -3.53426e-21)
(-0.020448 0.00780452 3.81021e-21)
(-0.0128894 0.00888929 8.61043e-22)
(-0.00500685 0.00880048 -3.32811e-22)
(0.000852204 0.00731402 -1.02922e-21)
(0.00315612 0.00559926 0)
(0.0032641 0.00392971 0)
(0.00335353 0.00219051 0)
(0.00334324 0.00156769 0)
(0.0034781 0.000665272 0)
(0.0027569 0.00108763 0)
(-0.00859097 0.00344763 3.90503e-23)
(-0.00484312 0.000680095 0)
(-0.00446995 0.00177725 0)
(-0.00423383 0.00208717 0)
(-0.0032065 0.00239214 0)
(-0.00191667 0.00334843 0)
(0.00130034 0.00296367 1.68177e-21)
(0.00981904 0.00339647 8.90614e-21)
(0.0202204 -0.000262012 -2.17935e-20)
(0.0302731 -0.00243186 7.72477e-21)
(0.0415868 -0.0062619 -9.67794e-21)
(0.052267 -0.00322368 -1.13174e-20)
(0.0618355 -0.00120068 6.89571e-20)
(0.0599393 -0.0122893 6.04688e-23)
(0.0605877 -0.0200868 1.34744e-19)
(0.0601935 -0.0430034 9.73563e-20)
(0.0476615 -0.0697257 2.07205e-20)
(-0.00191276 -0.0979757 4.28252e-21)
(0.0076566 -0.0958978 1.61137e-19)
(-0.135377 -0.0615748 1.81661e-19)
(-0.10086 0.00692118 5.46042e-20)
(-0.0291614 0.0158192 1.79133e-19)
(-0.0187178 0.00285911 8.07301e-20)
(-0.0197332 -0.00229107 -7.23065e-20)
(-0.0182344 -0.0110424 1.00367e-19)
(-0.0174577 -0.00383678 -6.42813e-20)
(-0.0169296 0.00413355 5.30407e-20)
(-0.0148478 0.00543145 -6.08683e-22)
(-0.00709565 0.00720841 6.33157e-21)
(-1.64548e-05 0.0081626 -1.10733e-21)
(0.00633092 0.00693351 -1.65014e-22)
(0.00820702 0.00569466 0)
(0.00802046 0.00416636 0)
(0.00746232 0.00309536 0)
(0.00655518 0.00184146 0)
(0.00577679 0.00133254 0)
(0.00774834 0.00132073 0)
(-0.00196322 -0.00246812 -6.21768e-24)
(-0.00491621 0.000763498 0)
(-0.00425635 0.00363116 0)
(-0.00302285 0.00430378 0)
(-0.00174686 0.00444641 0)
(0.000716074 0.00479484 0)
(0.00638569 0.00626917 4.98861e-23)
(0.0167594 0.00714578 -6.15992e-21)
(0.0312241 0.00547398 5.1244e-21)
(0.0455394 0.00643159 -1.77618e-21)
(0.0599903 0.00446672 1.17685e-20)
(0.0729967 0.00625914 6.33217e-23)
(0.0808222 0.00756459 -2.66913e-20)
(0.0817901 -0.0002464 8.68766e-20)
(0.0844058 -0.00541984 1.69246e-19)
(0.0884171 -0.0260601 -8.0147e-20)
(0.0962927 -0.0575668 -3.58033e-20)
(0.0484749 -0.111516 -1.46281e-19)
(0.246015 -0.355684 1.32703e-19)
(-0.461845 -0.0586469 -1.80522e-20)
(-0.0928269 0.19381 -4.05999e-21)
(0.345704 0.058035 -2.38571e-20)
(-0.405161 -0.0643053 -4.11097e-21)
(-0.166186 0.0289582 9.99048e-20)
(-0.00705735 0.0441414 7.15411e-21)
(-0.00021797 0.0255279 3.1392e-21)
(0.000625435 0.00134684 1.19298e-19)
(-0.00524468 -0.010568 -6.67124e-20)
(-0.0156267 -0.00616271 4.96725e-20)
(-0.0141663 -0.00629868 -1.12227e-20)
(-0.00713217 -0.00171727 1.15038e-20)
(-0.000855506 0.00254458 -6.34706e-21)
(0.00582303 0.00322037 -1.56102e-21)
(0.011827 0.00430844 -5.71008e-23)
(0.0124738 0.00214398 0)
(0.0121706 0.00215776 0)
(0.0116412 0.00238667 0)
(0.0112209 0.00207953 0)
(0.00981867 0.000934259 0)
(0.00529595 -9.50633e-05 0)
(-0.0064928 0.0016361 -6.52325e-22)
(-0.00600123 0.00352931 0)
(-0.00457754 0.00336201 0)
(-0.00149815 0.00538058 0)
(0.00147232 0.00813759 0)
(0.00251935 0.0113359 0)
(0.00830568 0.0122049 -1.45923e-23)
(0.0220082 0.0143653 4.00107e-21)
(0.0396684 0.014143 -1.03627e-21)
(0.0587934 0.0170731 -3.45968e-20)
(0.0728385 0.0165854 3.40907e-20)
(0.0848 0.017098 -1.55286e-20)
(0.0885838 0.0104063 3.57822e-20)
(0.0844911 0.00712939 -2.35624e-19)
(0.0933849 0.00671587 -1.7483e-19)
(0.105608 0.00926321 1.07747e-19)
(0.149109 -0.00060291 7.68763e-20)
(0.336886 -0.1551 -2.602e-18)
(0.0415366 -0.239091 -4.55295e-19)
(-0.846712 -0.294752 -5.6297e-19)
(-0.171021 -0.195086 -2.00123e-19)
(0.497894 0.00234085 1.0454e-19)
(-0.307496 0.171753 5.59031e-19)
(-0.250056 0.0435965 3.57794e-20)
(0.0373027 0.0587224 -3.13217e-20)
(0.0252603 0.0220353 4.41381e-20)
(0.00176281 -0.00052851 -9.91491e-20)
(-0.00727744 -0.0115489 -1.80359e-21)
(-0.0125524 -0.00888008 1.55936e-19)
(-0.0118624 -0.00879687 6.02346e-21)
(-0.00795273 -0.00848102 3.48541e-20)
(-0.000174111 -0.005241 -1.62774e-20)
(0.0091781 -0.0042664 4.92623e-21)
(0.0163007 -0.00235623 2.15844e-23)
(0.0155503 -0.000994719 0)
(0.0117461 -0.00143683 0)
(0.00992241 -0.00181206 0)
(0.00946864 -0.00171418 0)
(0.0103936 -0.00127389 0)
(0.012774 -0.000901045 7.06974e-22)
(-0.00453973 0.000728096 4.73952e-22)
(-0.00473868 0.00474772 0)
(-0.00423318 0.00626481 0)
(-0.00465085 0.00865507 0)
(-0.00376512 0.0110085 0)
(-0.000193438 0.0137565 0)
(0.00752702 0.0161374 0)
(0.0251454 0.0205413 -6.28853e-22)
(0.0419088 0.0248447 2.00206e-21)
(0.0604233 0.0257185 -9.89e-21)
(0.0713258 0.0298911 2.11834e-20)
(0.0884521 0.0202447 1.53519e-20)
(0.0886255 0.0221893 -4.86716e-21)
(0.0986812 0.0460747 -4.55216e-20)
(0.107233 0.0342861 -2.72164e-20)
(0.0861755 0.0257376 -1.6885e-19)
(0.168396 0.0659419 1.8635e-19)
(0.284593 0.195834 -2.46822e-18)
(0.254449 0.422422 -1.76183e-19)
(-0.229491 -0.272942 7.14585e-19)
(-0.387802 -0.435022 -1.06561e-18)
(-0.292856 0.0800163 -5.72523e-20)
(-0.124311 0.280604 7.84764e-19)
(-0.18341 0.109036 2.94607e-18)
(0.108512 -0.0186042 2.36248e-19)
(0.0385316 -0.0106154 -5.13171e-20)
(-0.00980535 -0.00914764 -2.34871e-20)
(-0.017404 -0.0197904 -4.36812e-20)
(-0.0221652 -0.0163718 5.56525e-20)
(-0.016232 -0.0142169 -2.81076e-20)
(-0.0101209 -0.013755 8.92703e-21)
(-0.00174428 -0.0118869 4.93145e-21)
(0.00841635 -0.0106339 3.70724e-21)
(0.0152231 -0.00914997 0)
(0.0167999 -0.0077696 0)
(0.0151872 -0.0057803 0)
(0.012096 -0.00423808 0)
(0.00882739 -0.00292085 0)
(0.007385 -0.00137552 0)
(0.00666423 -0.000832825 -1.31505e-21)
(-0.00894497 0.00100502 4.89688e-23)
(-0.00909857 0.00449107 0)
(-0.00941034 0.00801608 0)
(-0.00984893 0.0110707 0)
(-0.00951846 0.0140507 0)
(-0.00712311 0.0179675 0)
(-7.19149e-05 0.0221321 0)
(0.011821 0.0272249 0)
(0.0268261 0.0321331 9.43074e-22)
(0.0434504 0.0377187 -1.45736e-21)
(0.0560123 0.0431511 1.46217e-20)
(0.0721011 0.0449644 -1.46561e-20)
(0.0931145 0.0429496 -7.72081e-20)
(0.11673 0.0526553 2.15823e-20)
(0.101024 0.0414092 3.95302e-20)
(0.102773 -0.00432045 -8.6487e-21)
(0.0443093 0.0175589 -8.26254e-20)
(-0.21586 0.256075 -4.36951e-19)
(0.644943 0.188489 1.0803e-19)
(0.733408 -0.201837 -2.51321e-18)
(-0.474831 -0.644788 3.94832e-19)
(-1.36836 -0.0315852 -1.23775e-18)
(-0.201241 0.253603 1.33711e-19)
(0.272885 -0.0115503 4.09666e-18)
(0.0635711 -0.112182 3.27659e-19)
(-0.00337183 -0.0512552 -7.91789e-20)
(-0.0355097 -0.004919 -3.3484e-20)
(-0.0297141 -0.0168686 3.11488e-20)
(-0.0248648 -0.0145463 -8.35426e-22)
(-0.0211058 -0.0154431 -7.70806e-21)
(-0.0161356 -0.0176539 8.01349e-21)
(-0.00608287 -0.0147849 -8.76047e-23)
(0.00362025 -0.0138721 0)
(0.0118302 -0.0129676 0)
(0.0147365 -0.0115296 0)
(0.0138289 -0.00904561 0)
(0.0125064 -0.00723579 -6.52048e-21)
(0.0113391 -0.0052031 -9.0174e-21)
(0.0103331 -0.00297277 -5.37716e-21)
(0.00897429 -0.00134908 0)
(-0.0145062 0.00143143 0)
(-0.0144674 0.00374459 0)
(-0.0153034 0.00701569 0)
(-0.0156945 0.0102806 0)
(-0.0162392 0.0138387 0)
(-0.0153881 0.0181231 0)
(-0.0101427 0.022863 0)
(0.00149748 0.0268331 0)
(0.0132777 0.0306821 -1.22209e-23)
(0.0227602 0.0405409 -1.81269e-22)
(0.0372343 0.0517556 -2.27773e-21)
(0.0442895 0.061552 -1.70552e-21)
(0.0654795 0.0780321 2.01457e-20)
(0.0909663 0.0786806 -3.416e-20)
(0.12687 0.0688612 -7.50024e-19)
(0.153673 0.0545869 -7.66084e-20)
(0.0361678 -0.0706445 -2.47946e-20)
(-0.0609497 -0.447829 -2.102e-19)
(0.23469 -0.0831079 5.65037e-19)
(0.170886 1.08887 1.32167e-18)
(-0.520726 1.48022 -5.52179e-20)
(-0.697025 0.550667 1.64713e-18)
(0.0826533 -0.352053 -5.08507e-20)
(0.606289 -0.341899 4.27916e-19)
(-0.198236 -0.0798902 -7.62422e-20)
(-0.058722 0.00529478 1.30135e-20)
(0.0059175 -0.0218907 7.26649e-21)
(-0.00412664 -0.0287113 1.36588e-20)
(-0.012657 -0.0234812 1.56558e-21)
(-0.0164512 -0.0253043 -9.48557e-22)
(-0.014155 -0.0263131 8.98946e-22)
(-0.00704949 -0.0216275 -5.73868e-25)
(0.000443851 -0.0198856 0)
(0.00845264 -0.016073 0)
(0.0108961 -0.0136167 0)
(0.010414 -0.0108692 0)
(0.00930048 -0.00901475 0)
(0.00882384 -0.00632281 0)
(0.00785927 -0.00345724 0)
(0.00655522 -0.000999501 9.68435e-22)
(-0.0190809 0.000521603 0)
(-0.018454 0.00193207 0)
(-0.0192047 0.00420509 0)
(-0.0197723 0.00705054 0)
(-0.0212931 0.0105784 0)
(-0.0219767 0.0149222 0)
(-0.018607 0.0200043 0)
(-0.00861135 0.0270134 0)
(0.00209292 0.0338084 0)
(0.00739559 0.0460091 0)
(0.0152362 0.057104 2.86989e-22)
(0.0129183 0.0783251 5.17311e-21)
(0.0268507 0.107425 9.89578e-22)
(0.0261469 0.121497 -1.62301e-20)
(0.133274 0.173773 -2.23139e-18)
(0.35116 0.168466 1.32143e-19)
(0.764538 -0.110761 -9.6321e-19)
(-0.215553 -0.195208 1.48334e-19)
(-0.828441 -0.269416 3.9403e-20)
(-0.652101 -0.240909 4.46152e-19)
(-0.176714 -0.167829 9.73085e-19)
(0.421721 -0.256014 4.93796e-19)
(0.78114 -0.412112 3.50201e-20)
(0.110718 -0.218111 1.31547e-19)
(-0.401876 0.121463 -2.00389e-19)
(0.000666142 0.0440457 -3.49807e-20)
(0.0388821 -0.0599985 5.89639e-21)
(0.00530755 -0.0463969 -7.49638e-21)
(-0.00895405 -0.0428982 9.55829e-21)
(-0.0180034 -0.0397861 1.66976e-22)
(-0.0174078 -0.0335477 0)
(-0.0134446 -0.0274694 0)
(-0.00596251 -0.0240146 0)
(0.00361775 -0.0190959 0)
(0.00673731 -0.0163481 0)
(0.00621706 -0.0133321 0)
(0.00518568 -0.010742 0)
(0.00482569 -0.00759261 0)
(0.00407707 -0.00417347 0)
(0.00343583 -0.000864823 0)
(-0.0185791 0.001165 0)
(-0.0200233 0.00246185 0)
(-0.0217143 0.0039141 0)
(-0.0238714 0.00585609 0)
(-0.0267421 0.00836181 0)
(-0.0296378 0.011726 0)
(-0.0288944 0.0164893 0)
(-0.0231161 0.0246386 0)
(-0.0183502 0.0341267 0)
(-0.0170051 0.0515167 0)
(-0.0195824 0.0616485 0)
(-0.0269845 0.0937236 -5.94104e-23)
(-0.0378968 0.12986 1.60266e-22)
(-0.027493 0.193133 2.8381e-21)
(0.00171268 0.186433 -7.47382e-19)
(0.389318 0.258382 -1.47803e-19)
(0.453482 0.497642 -6.14558e-19)
(0.354331 0.528821 2.54909e-19)
(0.00922344 -0.0227995 5.09225e-19)
(-0.15783 -0.705215 1.01601e-19)
(-0.0979797 -1.0865 1.75392e-19)
(0.0216121 -0.985674 7.79995e-19)
(-0.0564735 -0.439974 4.6875e-19)
(-0.419517 0.138985 1.16009e-19)
(-0.325356 0.178803 -8.18908e-20)
(0.211048 -0.00423593 -6.18082e-20)
(0.0249783 -0.0776021 9.1034e-20)
(-0.00847572 -0.0531026 9.54881e-22)
(-0.0220887 -0.0445666 1.44759e-22)
(-0.0261537 -0.0400565 0)
(-0.0220608 -0.0318499 0)
(-0.0170686 -0.0298425 0)
(-0.008212 -0.0272489 0)
(-0.00037205 -0.0240448 0)
(0.001689 -0.0199749 0)
(0.000588643 -0.0155414 0)
(-0.000218038 -0.0115557 0)
(-0.000650573 -0.00785487 0)
(-0.000881115 -0.00438195 0)
(-0.000603717 -0.000444656 0)
(-0.0231124 0.000677729 0)
(-0.0237046 0.000697009 0)
(-0.0251554 0.000676871 0)
(-0.0274048 0.00100919 0)
(-0.0307014 0.00195178 0)
(-0.0351907 0.00336765 0)
(-0.0381384 0.00568463 0)
(-0.0381712 0.0115261 0)
(-0.0386205 0.0206651 0)
(-0.0413122 0.0365929 0)
(-0.0539537 0.0534489 -5.60777e-22)
(-0.059091 0.0694206 0)
(-0.0986869 0.117734 0)
(-0.0936993 0.146217 -6.25186e-20)
(-0.0689477 0.103175 -1.77452e-19)
(0.0317399 0.305498 -1.25722e-18)
(-0.111589 0.52492 2.47751e-20)
(0.212685 0.699051 8.61261e-20)
(0.380531 1.00138 -2.91095e-19)
(0.38889 1.20441 1.04469e-18)
(0.208298 1.13679 -3.06172e-19)
(-0.0332261 0.941681 1.51122e-18)
(-0.341057 0.698658 1.72293e-19)
(-0.505503 0.440109 -8.85485e-21)
(0.053266 0.00642441 -2.0562e-20)
(0.217046 -0.210129 -3.65352e-20)
(-0.0108711 -0.0844907 6.18061e-20)
(-0.040164 -0.059266 0)
(-0.038438 -0.0476632 0)
(-0.0346014 -0.042302 5.48619e-21)
(-0.0267951 -0.0392003 0)
(-0.0201693 -0.0389958 0)
(-0.0118222 -0.0362006 0)
(-0.0079464 -0.0316272 0)
(-0.0070006 -0.024992 0)
(-0.00744106 -0.0191927 0)
(-0.00736898 -0.0143578 0)
(-0.00712737 -0.00987496 1.07316e-21)
(-0.00636184 -0.00598582 7.69894e-22)
(-0.00467337 -0.00198093 0)
(-0.0213477 -0.0019323 0)
(-0.0219815 -0.00298835 0)
(-0.023397 -0.00428085 0)
(-0.0263417 -0.00521468 0)
(-0.0304113 -0.00602435 0)
(-0.0353772 -0.00661445 0)
(-0.040025 -0.00730612 0)
(-0.0441702 -0.00635207 0)
(-0.0514147 -0.000198901 0)
(-0.0583063 0.00725429 0)
(-0.0782097 0.0318413 1.29694e-20)
(-0.0883778 0.0402587 0)
(-0.108105 0.0834236 0)
(-0.0603318 0.117549 6.26305e-20)
(-0.0347441 0.0538585 8.37104e-19)
(-0.427023 -0.00558198 1.13841e-20)
(-0.503781 0.195002 0)
(-0.267649 0.339165 -2.93259e-20)
(-0.0208814 0.508115 -4.13768e-19)
(0.14412 0.371224 4.65376e-19)
(0.149829 0.358164 -1.26147e-18)
(0.244018 0.268866 3.00982e-19)
(0.317829 -0.0213179 9.65804e-21)
(0.49685 -0.349843 0)
(0.584624 -0.475877 -8.2213e-20)
(-0.0147607 -0.211734 -1.34205e-20)
(-0.14253 -0.0799997 -4.65422e-20)
(-0.0715712 -0.0579885 0)
(-0.0494308 -0.0501112 0)
(-0.040792 -0.0469321 3.31797e-21)
(-0.0340408 -0.0458558 0)
(-0.02742 -0.0429903 0)
(-0.0220154 -0.0387917 0)