/*--------------------------------*- C++ -*----------------------------------*\
| =========                 |                                                 |
| \\      /  F ield         | OpenFOAM: The Open Source CFD Toolbox           |
|  \\    /   O peration     | Version:  v2106                                 |
|   \\  /    A nd           | Website:  www.openfoam.com                      |
|    \\/     M anipulation  |                                                 |
\*---------------------------------------------------------------------------*/
FoamFile
{
    version     2.0;
    format      ascii;
    arch        "LSB;label=32;scalar=64";
    class       volScalarField;
    location    "0";
    object      p;
}
// * * * * * * * * * * * * * * * * * * * * * * * * * * * * * * * * * * * * * //

dimensions      [0 2 -2 0 0 0 0];

internalField   nonuniform List<scalar> 
11644
(
0.0809668
0.0810871
0.0812984
0.0815608
0.0819371
0.0825804
0.0834322
0.0842233
0.0848142
0.0851628
0.0851846
0.0844427
0.0827097
0.0803089
0.0768831
0.0718896
0.0668065
0.0616682
0.0617967
0.05155
0.0465023
0.0423692
0.0376147
0.037218
0.0360467
0.0345805
0.0332132
0.0316185
0.0300301
0.0282549
0.0264969
0.0249253
0.0233618
0.0215788
0.0199459
0.0186709
0.0176352
0.0168484
0.0162917
0.0159695
0.0803648
0.0803846
0.0805517
0.0809045
0.0813955
0.0818939
0.0824532
0.0832123
0.0841283
0.0848631
0.0851615
0.0850707
0.0843161
0.0826014
0.0790786
0.0747446
0.0689131
0.0621256
0.0667624
0.0569057
0.0466462
0.0448677
0.0356897
0.034999
0.0349726
0.0338598
0.0327462
0.0311868
0.0292654
0.0273235
0.025404
0.0233864
0.0214178
0.0198495
0.0185665
0.0173258
0.0163096
0.0155536
0.0150574
0.0148541
0.0805945
0.0805127
0.0804865
0.0805939
0.080861
0.0811997
0.0815879
0.082037
0.0825335
0.0830666
0.083617
0.0839831
0.0840431
0.0827996
0.0806793
0.0773419
0.072158
0.0675088
0.0636345
0.0525109
0.0491742
0.0420049
0.0412441
0.0355526
0.032403
0.0304608
0.0279607
0.0261706
0.0245127
0.0229011
0.0212557
0.0196648
0.0183312
0.017222
0.0162143
0.0153736
0.0147179
0.0142351
0.0140168
0.0140518
0.0814526
0.0813999
0.0812935
0.0811856
0.0810588
0.0809778
0.0809247
0.0808992
0.0809617
0.0811438
0.081514
0.0820683
0.081987
0.0819667
0.080984
0.0771191
0.0720596
0.0686484
0.0684688
0.0496489
0.0447035
0.0442758
0.0407207
0.0344908
0.0292683
0.0249849
0.0220792
0.0195413
0.0178463
0.0169066
0.0163983
0.0158154
0.0152447
0.0147625
0.0143381
0.014002
0.0137701
0.0136339
0.0136131
0.0136501
0.0829449
0.0828267
0.0826983
0.0824497
0.0820637
0.0816156
0.0811163
0.0806631
0.0803451
0.0803451
0.0803742
0.079989
0.079032
0.0775629
0.0761653
0.0734399
0.0674014
0.0686716
0.0643981
0.0564113
0.0480299
0.0444895
0.0385525
0.0303715
0.0250158
0.0200371
0.016595
0.0143524
0.0129239
0.0123601
0.0125307
0.0128094
0.0129861
0.0131252
0.0132564
0.0133467
0.0133957
0.0134168
0.0133099
0.0131826
0.0844428
0.084545
0.0845281
0.0841826
0.0836927
0.0830451
0.0823062
0.0816261
0.0811689
0.0806326
0.079705
0.0782373
0.0759506
0.0741065
0.0731457
0.0732729
0.0695782
0.072424
0.06713
0.060838
0.0458796
0.0499944
0.0371735
0.0278749
0.0196173
0.0188105
0.0151736
0.0125151
0.0118117
0.0109448
0.010694
0.0112189
0.0120353
0.0126204
0.0130361
0.0132721
0.0132761
0.0131458
0.0129543
0.012876
0.0864593
0.0866351
0.0866765
0.0867256
0.0865011
0.0860087
0.0853747
0.0846375
0.0838977
0.0825497
0.0806206
0.0788582
0.0757464
0.0693553
0.0661989
0.0701108
0.082654
0.0670045
0.058065
0.0529699
0.0316386
0.0398507
0.0356088
0.0320186
0.0172762
0.0144662
0.012618
0.0141167
0.0140766
0.0127894
0.0120095
0.0119999
0.012938
0.0136976
0.014008
0.0140985
0.0140922
0.0139695
0.0138118
0.0135849
0.0905177
0.0902487
0.0901997
0.0902397
0.09015
0.0901292
0.0899899
0.0897908
0.0886549
0.0863913
0.0835036
0.0815317
0.0777773
0.0818596
0.0750654
0.0657078
0.061609
0.0545915
0.0450651
0.0329642
0.0204426
0.0228436
0.0269462
0.0276365
0.0415352
0.0172397
0.0213657
0.0211825
0.0206075
0.0187771
0.0178548
0.0169762
0.0168669
0.0171494
0.0169907
0.0165495
0.0160304
0.0154158
0.0149402
0.0145929
0.093663
0.0941233
0.0948891
0.0950957
0.0954811
0.0958692
0.0962786
0.0964701
0.09527
0.0935873
0.090743
0.0859991
0.0844032
0.0894102
0.0882147
0.0852494
0.0718139
0.066604
0.0387391
0.0255535
0.0302972
0.0228175
0.0302695
0.0500432
0.0369619
0.0471443
0.0395493
0.0332157
0.0317524
0.0295628
0.0283256
0.0263586
0.0240131
0.0226637
0.0213418
0.0198893
0.018496
0.0174976
0.0165513
0.0164786
0.0969272
0.0975627
0.0980672
0.0991725
0.10048
0.101497
0.102745
0.103642
0.103759
0.10456
0.106428
0.102594
0.102783
0.103181
0.087671
0.0919708
0.0791437
0.0571943
0.0324532
0.0017895
-0.0079354
0.0088261
0.0363241
0.0521812
0.0650154
0.0599093
0.0621781
0.059763
0.0514492
0.0458568
0.041747
0.0371141
0.0324902
0.0289009
0.0259999
0.0236261
0.0216994
0.0202579
0.0189739
0.0177596
0.101628
0.101838
0.102226
0.103191
0.104108
0.105401
0.106796
0.108381
0.110963
0.112723
0.115902
0.120004
0.11694
0.102411
0.0971875
0.0868388
0.0865098
0.0641991
0.0298026
-0.0324258
-0.0610992
0.0111673
0.0789404
0.102336
0.101361
0.0941812
0.0830337
0.0829064
0.0729445
0.0634189
0.0537581
0.0461832
0.0396868
0.0340788
0.0296975
0.0262216
0.0236917
0.0215264
0.0207119
0.0194746
0.103831
0.104031
0.105331
0.105893
0.106962
0.108196
0.109103
0.110353
0.112844
0.114908
0.113346
0.118041
0.118102
0.10336
0.115087
0.101529
0.0992818
0.112231
0.131076
0.350435
0.213847
0.158924
0.13392
0.120433
0.100598
0.085519
0.0697414
0.0592401
0.0498735
0.0416811
0.0351084
0.0301708
0.0261396
0.0233487
0.0218297
0.0205328
0.0219277
0.105052
0.103837
0.102894
0.103739
0.105383
0.10645
0.10635
0.106913
0.107126
0.108819
0.102536
0.0994973
0.0941987
0.110498
0.11796
0.110036
0.109642
0.157349
0.226282
0.470962
0.31325
0.208298
0.154053
0.115355
0.0957533
0.0709731
0.0612094
0.0584524
0.0455423
0.0366568
0.030744
0.0263333
0.022684
0.0196108
0.0182906
0.0184159
0.0181669
0.108287
0.0988395
0.0962474
0.0980784
0.0997598
0.0998345
0.0980303
0.0944315
0.0937586
0.0945655
0.0973199
0.0478879
0.0185467
0.0622834
0.103575
0.133689
0.0600629
0.0664706
0.133311
0.516641
0.344975
0.229127
0.113811
0.0766173
0.0594522
0.00489066
0.0533612
0.0595386
0.0274306
0.0227689
0.0185031
0.0156725
0.0117024
0.00769772
0.005326
0.00757289
0.0121128
0.0845233
0.0813419
0.0862002
0.0921623
0.0945802
0.0897903
0.084574
0.0650319
0.0734967
0.104419
0.033531
0.0197652
0.0334055
0.0441676
0.134441
0.0678609
0.0317039
0.029479
-0.0312302
-0.258037
0.0212796
1.0197
0.932253
0.388713
0.21915
0.107634
0.0120013
-0.00469002
-0.0393063
-0.0198827
0.0566639
-0.00298187
-8.00811e-05
-0.00558033
-0.00211241
-0.00424419
-0.00909212
-0.0153462
-0.0142332
-0.010959
0.0590852
0.0685097
0.078224
0.0838089
0.0859577
0.0775012
0.0667302
0.0711301
0.06206
0.0465103
0.0210306
0.064612
0.123934
0.0526156
0.199499
0.12754
0.0831995
0.0526491
0.177978
-1.30843
-0.778214
-0.161778
0.894115
0.560275
0.181653
0.123084
-0.0686299
-0.0827623
-0.0175461
-0.0144757
-0.019528
-0.0222876
-0.0227386
-0.0340654
-0.0242088
-0.0204604
-0.0167256
-0.0206864
-0.0308219
-0.0305287
0.0637837
0.064917
0.0696788
0.0688154
0.0646922
0.0512424
0.0519738
0.0537243
0.0761947
0.0839394
0.0439088
0.139986
0.274224
-0.0371286
0.345013
0.211668
-0.029065
-0.175296
-0.601145
0.812271
-2.46854
-0.331242
-0.513931
0.282028
0.0317397
0.0557428
-0.0692049
-0.0699682
-0.0387619
-0.0533162
-0.0229853
-0.0383329
-0.0400689
-0.06158
-0.0529234
-0.0422204
-0.0387123
-0.044931
-0.0385864
-0.0498196
0.0455259
0.060585
0.0497506
0.04322
0.0350715
0.0369274
0.0568226
0.0636016
0.0592128
0.0921593
0.143232
0.145138
0.264161
-0.101286
0.233577
0.0202351
-0.458341
0.301166
-0.358709
-0.530749
-0.208321
-1.23398
0.554552
0.686407
-0.047647
-0.0967172
-0.0973607
0.0233404
-0.0801438
-0.0679688
-0.0662748
-0.0742829
-0.0786782
-0.0641328
-0.0681754
-0.0665858
-0.0615135
-0.056503
-0.0541816
-0.0520904
0.0322516
0.0362236
0.0319035
0.0284314
0.0282687
0.0416006
0.0679257
0.0883245
0.0991684
0.106843
0.161929
0.202551
0.0299778
-0.0620784
-0.0035753
-0.158715
0.262559
-0.769244
-1.16921
0.347472
0.780784
0.301254
0.423632
-1.23426
-0.170932
-0.0994736
0.176422
-0.205894
-0.00977166
-0.0618678
-0.0693287
-0.0908418
-0.0787317
-0.0753247
-0.0747356
-0.0781757
-0.076952
-0.0707349
-0.0655002
-0.0594432
0.0286868
0.0285668
0.0255547
0.0254687
0.0282337
0.0255628
0.0351781
0.0797524
0.0962229
0.0871015
0.0561101
0.0690888
-0.0371342
-0.0997392
0.19417
-0.199176
0.0494713
0.920739
-0.33941
0.00988024
-0.0388873
-0.448823
-0.731507
0.302132
0.0265946
0.0341318
-0.103685
-0.199337
0.253286
-0.0789441
-0.0896722
-0.0966754
-0.0975611
-0.0870768
-0.101208
-0.0850449
-0.0808585
-0.0727113
-0.0697548
-0.0698713
0.0171243
0.0145893
0.0157145
0.0207049
0.0285286
0.0271943
0.0248499
0.0271992
0.0469087
0.0583286
0.0728377
-0.0277503
-0.128381
-0.175879
-0.0828467
-0.165337
-0.371502
-0.897738
0.772554
0.630505
-0.149342
0.691896
1.34853
-0.113968
0.0133372
0.0887764
-0.118062
0.111624
0.22398
-0.176941
-0.133404
-0.131245
-0.138415
-0.110011
-0.0985912
-0.0828234
-0.0820152
-0.0843551
-0.0828897
-0.0780683
0.014657
0.0155991
0.0160576
0.0176075
0.0180295
0.0236074
0.0211516
0.0115335
0.0231645
0.0186402
0.0343289
-0.00658737
0.199951
-0.246662
-0.352289
0.490748
-0.417921
-1.48128
0.792633
1.44837
-2.02733
-1.9887
0.35685
1.8363
0.543001
-0.363418
-0.118398
-0.0927447
-0.0902712
-0.0790502
-0.121363
-0.13603
-0.126434
-0.114754
-0.106404
-0.0996258
-0.0995069
-0.0952328
-0.0879086
-0.0854204
0.0092875
0.0154847
0.0190649
0.021004
0.0220111
0.0227456
0.0139104
0.0140953
-0.00349463
-0.0263079
-0.0626209
-0.241353
-0.349029
-0.587823
0.713412
0.143772
0.548276
-0.908223
-1.25486
-0.536545
-2.39076
-1.6912
1.34371
0.505924
0.696649
1.18335
-1.02453
-0.310618
-0.184079
-0.170134
-0.136248
-0.105278
-0.140867
-0.128918
-0.121149
-0.110308
-0.10292
-0.0969336
-0.0938454
-0.0924473
0.00135267
-0.00142059
0.00327982
0.00677281
0.0109642
0.007444
0.000163971
-0.0073501
-0.0227436
-0.0549092
-0.115635
-0.273059
-0.295072
-0.294589
-1.11757
0.661209
2.12096
0.99121
-1.87168
-1.55922
-3.21892
-1.83752
0.926026
1.98807
0.674159
-0.677596
-0.0948255
-0.219745
-0.193771
-0.1409
-0.139928
-0.124226
-0.151752
-0.133699
-0.112569
-0.107226
-0.101622
-0.0997077
-0.101418
-0.0993692
-0.000771677
-0.00150204
-0.00478133
-0.00420808
-0.00300788
-0.00341317
-0.00153055
-0.0001347
-0.0107934
-0.018661
-0.0687229
-0.104902
-0.28219
-0.169782
0.678698
-0.112026
-0.320421
-1.27653
-0.981972
-1.71105
3.95809
1.86534
-0.89196
-1.52364
-0.419277
0.831982
0.233406
-0.197395
-0.207033
-0.258183
-0.185568
-0.151504
-0.127875
-0.121219
-0.112711
-0.106896
-0.101048
-0.0954173
-0.0907535
-0.0896673
-0.0124163
-0.00290559
-0.00403445
-0.00748515
-0.0108955
-0.00990275
-0.00820918
0.00312331
0.0324552
0.072665
0.103187
0.0503828
0.146169
-0.640351
-0.20765
0.983996
1.66308
1.1675
-1.43062
-1.73284
-0.102832
0.404361
-0.660318
-0.0829036
0.261764
-0.148404
-0.0610097
-0.334348
-0.239115
-0.273352
-0.221857
-0.157637
-0.118623
-0.107777
-0.106573
-0.107236
-0.102877
-0.0957452
-0.0935403
-0.0886808
-0.0203551
-0.0246025
-0.0171785
-0.0147895
-0.0203087
-0.0183953
-0.0213811
0.0152346
0.00221052
0.161091
0.137822
0.0476623
0.0758863
0.163493
0.154953
-0.164475
0.323832
1.46928
-2.25604
-1.17581
-0.827966
0.987067
-3.21448
-3.55159
1.19795
0.628852
0.325985
0.0153645
-0.0640685
-0.211152
-0.261136
-0.0907424
-0.0952391
-0.0986662
-0.0965474
-0.0952158
-0.0945106
-0.0947438
-0.0951898
-0.0940967
-0.0227914
-0.0239874
-0.0246561
-0.024455
-0.0236955
-0.0170389
-0.00243075
0.0341285
0.0708707
0.127987
0.175325
0.0717896
0.197229
-0.0590549
0.27371
0.672784
0.809419
0.611466
-3.52899
-4.31623
3.30464
1.31214
-0.675511
-0.588541
0.123083
0.335064
0.355587
-0.0938068
-0.044543
-0.181343
-0.179486
-0.132654
-0.107352
-0.0951629
-0.0919043
-0.0876707
-0.0838323
-0.0837099
-0.0805717
-0.079713
-0.0360391
-0.0295587
-0.0296672
-0.0296235
-0.0243103
-0.0129384
0.00454201
0.0347724
0.0620059
0.0484091
0.0998401
0.0605791
0.190785
-0.0590874
-0.238968
-0.0672747
0.395719
0.748138
-1.23649
-3.0698
1.98038
0.985283
0.718738
0.382291
0.29382
0.187348
-0.0595533
0.0842277
0.0136093
-0.0664594
-0.114915
-0.0723798
-0.0814977
-0.0686662
-0.0742376
-0.0740846
-0.0713393
-0.0715022
-0.0718441
-0.0749925
-0.0616329
-0.056091
-0.0537348
-0.0495556
-0.0434749
-0.0366549
-0.0328198
-0.0242167
-0.0243936
-0.0393302
-0.0828415
0.107922
0.0525278
0.21322
0.332025
0.312954
-0.236094
0.0357875
-0.913779
-0.437329
0.133799
-0.683672
0.293601
-0.177721
0.584609
0.690029
0.630861
0.239807
0.228392
-0.112831
-0.08057
-0.0715762
-0.0673586
-0.0524316
-0.0577759
-0.0632856
-0.0679366
-0.0716066
-0.0740933
-0.0775751
-0.0695949
-0.0678898
-0.0684156
-0.0675223
-0.064241
-0.0620719
-0.0604442
-0.0643695
-0.0559037
-0.0611476
-0.0615988
-0.0108098
0.0205379
-0.082418
-0.017427
0.3147
0.29668
0.00442724
-0.066225
-0.286384
0.441202
0.269465
0.42289
0.510384
0.42591
0.164488
0.139451
0.162083
0.105464
0.0558134
-0.0158448
-0.0234591
-0.0352117
-0.0384289
-0.0475074
-0.0567293
-0.0633976
-0.0670371
-0.0698342
-0.0617889
-0.070731
-0.0745261
-0.0753823
-0.0790391
-0.0810821
-0.0819046
-0.0794928
-0.0963827
-0.0895264
-0.0697908
-0.0246947
-0.0212953
-0.0387334
0.205443
0.513842
0.624936
-0.242033
-0.303906
-1.36902
-2.4326
0.920658
-0.0243876
0.561935
-0.106693
0.235666
0.495491
0.370776
0.129788
0.0979316
0.0164623
0.0156113
0.00312647
-0.0194769
-0.0225578
-0.0369915
-0.0488172
-0.0573548
-0.0597709
-0.0629282
-0.0649843
-0.0916714
-0.0940263
-0.0938974
-0.0931999
-0.0951572
-0.0991141
-0.103546
-0.114262
-0.133701
-0.0388622
-0.0164155
0.0188267
0.0603558
-0.0284671
-0.027711
-0.0528013
-0.150633
-0.590778
-0.599634
-0.0499491
0.350087
0.58931
0.0213352
-0.0444279
-0.174018
-0.191549
-0.15525
-0.0663587
0.0454447
-0.026989
0.0483089
0.0192592
-0.0108491
-0.026053
-0.0388054
-0.049983
-0.0593489
-0.0644841
-0.0687209
-0.0757829
-0.0919774
-0.100767
-0.1058
-0.111569
-0.116935
-0.124247
-0.126196
-0.129352
-0.149045
-0.171886
0.006314
0.126861
0.0698578
0.181621
0.281331
0.263392
-0.0828473
-0.210157
-0.506276
-1.0301
0.411881
-0.0122665
-0.333401
-0.238869
-0.342932
-0.0380435
0.101764
0.0202247
-0.0514876
-0.0277539
0.0335553
0.00738999
-0.0140398
-0.0282581
-0.0411399
-0.0538128
-0.0597982
-0.0709923
-0.0703985
-0.0714283
-0.114037
-0.112114
-0.113875
-0.122836
-0.131598
-0.13898
-0.145393
-0.149237
-0.14902
-0.137363
0.0288244
-0.0422855
0.0045505
0.0794172
0.256476
0.585378
-0.125025
0.0631772
0.160961
-0.186845
0.789437
0.326043
-0.126233
0.072622
-0.595612
-0.520116
-0.21466
-0.1871
-0.111065
-0.0345931
-0.0126975
-0.0336393
-0.0445177
-0.046888
-0.0561319
-0.0632864
-0.0675074
-0.0743419
-0.0766503
-0.0849707
-0.118318
-0.115552
-0.122249
-0.134209
-0.149779
-0.156381
-0.160677
-0.153865
-0.144251
-0.125805
-0.112847
-0.0278458
-0.0146273
-0.0873553
0.0400779
0.323212
0.596843
0.687307
1.31692
2.63061
-0.102196
0.0324045
-0.101773
-0.0155469
-0.300474
-0.340856
-0.0528097
-0.04685
-0.0486168
-0.07015
-0.0297597
-0.0333935
-0.0580686
-0.0662049
-0.0722189
-0.0780176
-0.0822631
-0.0840833
-0.0836621
-0.0808556
-0.118653
-0.127383
-0.12783
-0.132645
-0.140627
-0.153576
-0.160188
-0.164462
-0.159042
-0.152948
-0.182933
-0.283805
-0.283871
-0.132564
-0.0803316
-0.0852693
-0.0792062
0.25611
0.630901
1.45372
-0.336735
0.102447
-0.203789
-0.0521797
-0.279001
-0.0666587
-0.0366965
-0.166487
-0.156821
-0.0309495
-0.0158018
-0.0432206
-0.0574928
-0.0586591
-0.0731915
-0.0890225
-0.0931914
-0.0970916
-0.10015
-0.0936558
-0.119395
-0.116934
-0.124895
-0.134648
-0.145415
-0.157306
-0.171624
-0.192568
-0.189442
-0.245773
-0.205647
-0.218668
-0.261461
-0.468492
-0.528108
-0.440492
-0.176575
-0.0873562
0.606076
0.638139
1.06003
0.893473
-0.022126
-0.122831
-0.410858
-0.278199
-0.214916
0.0157236
0.0764779
-0.0149013
-0.0644092
-0.0618872
-0.0672277
-0.073298
-0.0928373
-0.112834
-0.108227
-0.102842
-0.0991735
-0.103354
-0.109171
-0.113908
-0.116976
-0.123163
-0.132868
-0.147856
-0.16514
-0.179751
-0.192823
-0.213224
-0.316852
-0.443936
-0.430939
-0.331981
-0.281822
-0.249186
-0.508256
-0.683617
0.494426
0.275293
2.61187
1.34618
-0.271091
0.0817845
0.057963
0.16655
0.126897
-0.0838328
-0.128869
-0.0711102
-0.0724087
-0.0447282
-0.0607084
-0.0773588
-0.0895587
-0.104243
-0.110016
-0.113634
-0.116927
-0.107266
-0.105227
-0.102365
-0.105188
-0.109003
-0.118216
-0.12809
-0.141893
-0.171598
-0.191148
-0.229039
-0.242112
-0.224377
-0.417455
-0.668093
-0.52914
-0.443403
-0.59343
-0.353396
-0.0502028
-0.213317
0.777715
1.06216
0.462435
0.154034
-0.258738
-0.499979
0.161959
0.123407
0.11933
-0.0453346
-0.0593549
-0.0717594
-0.0816874
-0.0940455
-0.0997611
-0.125365
-0.12605
-0.13278
-0.132042
-0.127005
-0.0841255
-0.0780571
-0.0822518
-0.0892074
-0.0968052
-0.102516
-0.114032
-0.131506
-0.148307
-0.198526
-0.204834
-0.232726
-0.158763
-0.18253
-0.224295
-0.295682
-0.384596
-0.423046
-0.974016
-1.05993
1.76128
1.03094
0.423966
0.446176
0.202347
0.118277
0.0986953
0.0388106
0.0348612
-0.0486913
-0.132435
-0.0991578
-0.0886968
-0.114356
-0.118736
-0.128094
-0.130318
-0.130467
-0.130946
-0.125497
-0.0683431
-0.0664128
-0.067785
-0.0750319
-0.080082
-0.0817836
-0.0964667
-0.107192
-0.124583
-0.0988099
-0.108079
-0.14099
-0.149111
-0.0906894
0.119033
0.221869
0.384874
0.645531
-0.587138
-1.40536
1.29414
0.916923
0.957511
0.709488
0.494426
0.271945
0.10422
-0.04751
-0.131424
-0.145526
-0.163696
-0.0874933
-0.106384
-0.125182
-0.133778
-0.140557
-0.140817
-0.143638
-0.147654
-0.1411
-0.0549022
-0.0504155
-0.0522461
-0.0549086
-0.0602638
-0.0576394
-0.0596128
-0.0748255
-0.0451481
-0.043438
-0.0556057
0.0207092
0.0310432
0.0502134
0.0225657
0.0433889
-0.0792292
0.101604
-0.0369879
0.104835
0.574788
0.231147
0.260733
0.0957518
0.211116
0.0102643
-0.0640188
-0.0692841
-0.020667
-0.0935943
-0.152648
-0.132402
-0.13153
-0.142306
-0.159999
-0.162875
-0.162427
-0.162192
-0.162077
-0.175079
-0.0115104
-0.0256397
-0.0264903
-0.0261038
-0.0239959
-0.0213017
-0.014046
-0.00712089
-0.00489061
0.00435357
0.00373301
-0.0125251
-0.0122093
0.0345997
0.0826841
0.155698
0.263037
0.224397
0.149226
-0.026898
0.0275534
0.0137382
-0.270506
-0.245461
-0.192934
-0.231907
-0.246967
-0.217787
-0.215529
-0.19733
-0.173059
-0.16344
-0.168843
-0.165415
-0.174454
-0.179967
-0.183285
-0.183173
-0.184729
-0.173963
0.00442466
0.0169382
0.0149106
0.0123391
0.0104729
0.0116326
0.0160229
0.0305479
0.0574415
0.0399131
0.0375324
0.080765
0.160847
0.213086
0.0754756
0.189054
0.162695
0.349318
-0.229377
-0.3646
0.125744
-0.197383
-0.261395
-0.345449
-0.221768
-0.225086
-0.131171
-0.165328
-0.206074
-0.222272
-0.214451
-0.196939
-0.203341
-0.199822
-0.19595
-0.197574
-0.193325
-0.194813
-0.191026
-0.193422
0.0272045
0.0248729
0.0305554
0.036768
0.0414615
0.044588
0.0668981
0.0855506
0.0615174
0.0607594
0.092606
0.0408425
0.0673618
0.147591
0.057613
0.0139913
0.326638
0.270529
0.08135
0.214718
0.441111
0.711183
0.178217
0.0434522
-0.258833
-0.230898
-0.24563
-0.306371
-0.3145
-0.223346
-0.222996
-0.23244
-0.231449
-0.228941
-0.21856
-0.21296
-0.210104
-0.207946
-0.207176
-0.204391
0.0479844
0.0480139
0.0460102
0.0491651
0.0536554
0.0610521
0.073809
0.0910962
0.0934095
0.0609598
0.104157
0.0860027
0.0740915
0.0756151
0.0710275
0.105233
0.192049
0.358295
0.172402
0.303585
0.677529
0.430357
0.0373054
-0.053904
-0.18416
-0.25024
-0.177833
-0.13369
-0.185077
-0.212826
-0.218047
-0.251944
-0.275899
-0.254825
-0.239082
-0.230145
-0.223822
-0.218475
-0.216667
-0.214488
0.065627
0.0716743
0.0722474
0.0737983
0.0728806
0.0790443
0.0881479
0.0783555
0.0923815
0.0972088
0.0768905
0.0816709
0.0449211
0.0582926
0.0921707
0.184119
0.434536
0.546582
0.609132
0.500759
0.673913
0.571929
-0.157647
-0.0122299
-0.121956
0.0114758
-0.0256276
-0.1343
-0.237622
-0.254801
-0.306462
-0.283582
-0.27758
-0.262276
-0.248266
-0.239251
-0.227579
-0.224701
-0.224964
-0.220723
0.0998532
0.0934055
0.0929158
0.0934947
0.0966139
0.100075
0.0981472
0.103937
0.0987123
0.074893
0.0736817
-0.00698641
0.0399582
0.104687
0.0770811
0.0901518
0.598802
0.671565
1.03477
1.82395
0.0567988
0.355865
-0.148106
-0.151097
0.0964833
0.0260558
-0.0289707
-0.0994846
-0.131052
-0.237412
-0.258506
-0.270584
-0.271509
-0.252808
-0.248573
-0.247505
-0.244852
-0.237255
-0.233911
-0.22712
0.109694
0.112645
0.114835
0.116096
0.117512
0.119543
0.113772
0.113501
0.108326
0.0694379
-0.00551276
-0.0740358
-0.198072
-0.32154
-0.407778
-0.26658
-0.0438087
0.202343
0.161912
0.217307
0.184762
0.238886
0.119722
0.058704
0.00571161
-0.0217239
-0.0738824
-0.0855634
-0.130952
-0.214389
-0.220709
-0.238131
-0.252028
-0.252812
-0.252032
-0.249456
-0.24803
-0.248429
-0.249086
-0.250786
0.13228
0.136473
0.134061
0.131619
0.132446
0.131488
0.127204
0.118172
0.103242
0.0794494
0.035419
-0.0723314
-0.204085
-0.284646
-0.340553
-0.389549
-0.120918
-0.0996526
0.0236304
0.205054
-0.321866
-0.0939512
-0.00503394
-0.00124186
-0.104959
-0.094839
-0.142477
-0.193026
-0.202041
-0.159745
-0.190482
-0.233869
-0.260823
-0.263275
-0.258598
-0.257919
-0.253508
-0.247225
-0.242761
-0.238381
0.149112
0.154779
0.155911
0.156094
0.15614
0.15643
0.157698
0.153274
0.100039
0.0518267
-0.0214427
-0.0123835
-0.0195086
-0.123073
-0.201489
-0.306951
-0.201287
-0.155783
-0.0557142
0.129026
0.140412
-0.0107655
-0.021834
0.0682908
-0.185355
-0.104495
-0.0448003
-0.0360342
-0.134262
-0.260384
-0.262218
-0.251617
-0.248738
-0.249156
-0.250887
-0.250905
-0.245777
-0.243095
-0.246254
-0.242775
0.164456
0.16774
0.171129
0.175666
0.174619
0.173843
0.179289
0.171655
0.16087
0.133978
0.0491586
-0.0818621
-0.174438
-0.185157
-0.30699
-0.303561
-0.330168
-0.373299
-0.450974
-0.306231
-0.164468
-0.0597592
-0.0244632
-0.0446951
-0.13544
-0.161892
-0.22324
-0.207673
-0.190751
-0.146625
-0.250598
-0.267494
-0.252467
-0.25617
-0.257966
-0.259981
-0.258239
-0.260348
-0.262993
-0.262375
0.181008
0.19172
0.190005
0.195585
0.195926
0.197158
0.202624
0.186816
0.171099
0.131292
0.074582
-0.00262583
-0.127075
-0.262677
-0.364666
-0.436702
-0.768246
-0.716182
-0.700769
-0.602569
-0.157937
0.0524917
0.0327283
-0.0545497
-0.166076
-0.184966
-0.235175
-0.203511
-0.203313
-0.221993
-0.258577
-0.271866
-0.264711
-0.276919
-0.274908
-0.275378
-0.274233
-0.263956
-0.262482
-0.261403
0.202685
0.207372
0.207311
0.20874
0.205752
0.206222
0.197751
0.200937
0.187073
0.169093
0.068567
-0.0356293
-0.0639322
-0.0663155
-0.1151
-0.369576
-0.593984
-0.744449
-0.967778
-0.746818
-0.415815
-0.334759
-0.17152
-0.19182
-0.16507
-0.135576
-0.12173
-0.147383
-0.217664
-0.287821
-0.319246
-0.290907
-0.258456
-0.268117
-0.27836
-0.276948
-0.276573
-0.275791
-0.276426
-0.280415
0.220921
0.216617
0.217367
0.21814
0.22323
0.218202
0.214778
0.21173
0.211566
0.197089
0.089112
0.0377643
-0.0420244
-0.209045
-0.405779
-0.622251
-0.661063
-0.784226
-0.910271
-0.576376
-0.595508
-0.658829
-0.630808
-0.566834
-0.519011
-0.495262
-0.264177
-0.289356
-0.279094
-0.245612
-0.275371
-0.286392
-0.283639
-0.281377
-0.297
-0.296689
-0.291202
-0.286286
-0.28366
-0.286616
0.232731
0.222568
0.226516
0.231684
0.235767
0.236672
0.228583
0.222391
0.217789
0.169231
0.0651086
-0.00792238
-0.123306
-0.28342
-0.432107
-0.576937
-0.729858
-0.873117
-1.09055
-1.12684
-0.904741
-0.715905
-0.600484
-0.748807
-0.647919
-0.624754
-0.524836
-0.453824
-0.390223
-0.371661
-0.351211
-0.334369
-0.305092
-0.305048
-0.306788
-0.302644
-0.297634
-0.296115
-0.295112
-0.285277
0.252032
0.259189
0.257191
0.253455
0.250804
0.245414
0.241198
0.227741
0.235093
0.206028
0.138858
0.040641
-0.0637223
-0.120242
-0.198158
-0.540363
-0.492323
-0.940638
-1.04814
-0.7207
-0.70956
-1.01662
-0.879128
-0.69481
-0.578801
-0.505897
-0.421474
-0.380144
-0.35272
-0.376129
-0.3666
-0.364655
-0.349015
-0.330301
-0.315862
-0.306258
-0.302186
-0.295986
-0.291357
-0.291989
0.266243
0.266691
0.272952
0.279568
0.281691
0.289979
0.28608
0.253219
0.280524
0.228349
0.191521
0.117261
0.0965636
0.0904064
-0.00277172
-0.281504
-0.220327
-0.660573
-0.516562
-0.761762
-0.324684
-0.296957
-0.378466
-0.46655
-0.414916
-0.437358
-0.431197
-0.396155
-0.428196
-0.425441
-0.397972
-0.382439
-0.363968
-0.336802
-0.317792
-0.30804
-0.301834
-0.296253
-0.297104
-0.292017
0.268467
0.271352
0.274405
0.278902
0.278919
0.28968
0.290548
0.28812
0.281663
0.257191
0.20798
0.162971
0.0932976
0.110241
0.115296
-0.0303661
0.0668931
-0.279883
-0.111212
-0.191584
0.171989
-0.610564
-0.480148
-0.474887
-0.498612
-0.492478
-0.50112
-0.494889
-0.439579
-0.387748
-0.39827
-0.378914
-0.373562
-0.349121
-0.325358
-0.310193
-0.301723
-0.296957
-0.294563
-0.298502
0.281304
0.283856
0.28558
0.286058
0.288976
0.294735
0.300005
0.31038
0.300798
0.307945
0.286259
0.241807
0.230004
0.248892
0.250977
0.186157
0.20468
-0.151374
-0.217609
-0.138752
-0.254907
-0.316317
-0.226609
-0.488279
-0.43499
-0.51564
-0.511319
-0.500105
-0.472086
-0.459632
-0.453097
-0.413722
-0.38256
-0.351656
-0.329176
-0.312215
-0.301893
-0.294605
-0.292724
-0.290495
0.285355
0.282436
0.287045
0.295288
0.304696
0.314771
0.326205
0.342016
0.332073
0.338264
0.38807
0.435358
0.478676
0.447425
0.338405
0.115204
0.0308703
-0.09681
-0.006531
-0.127741
-0.0950365
-0.221972
-0.376685
-0.579377
-0.621011
-0.600067
-0.552579
-0.496403
-0.486162
-0.466613
-0.440029
-0.407356
-0.377723
-0.351482
-0.331464
-0.316544
-0.303055
-0.291335
-0.28748
-0.286859
0.289343
0.293082
0.296393
0.299421
0.303806
0.319348
0.336643
0.360363
0.370844
0.390577
0.398893
0.38216
0.362182
0.344003
0.321919
0.271348
0.282678
-0.088243
-0.207842
-0.319862
-0.419338
-0.506456
-0.504754
-0.537611
-0.611765
-0.644025
-0.627364
-0.570948
-0.503597
-0.46394
-0.412694
-0.370789
-0.348807
-0.324052
-0.311574
-0.299833
-0.291348
-0.285489
-0.282633
-0.282489
0.29773
0.29672
0.300325
0.304891
0.313057
0.323847
0.338077
0.380749
0.404336
0.444008
0.461738
0.520831
0.570008
0.596026
0.623882
0.5523
0.45144
0.0491029
-0.149305
-0.226114
-0.411802
-0.555986
-0.652005
-0.688035
-0.70894
-0.77338
-0.731024
-0.654608
-0.562943
-0.462363
-0.377399
-0.33947
-0.320972
-0.300798
-0.291839
-0.283184
-0.276169
-0.271206
-0.267644
-0.261066
0.286439
0.287232
0.293912
0.306285
0.319852
0.336313
0.356065
0.384898
0.421075
0.475278
0.57679
0.625933
0.688486
0.712999
0.696004
0.640005
0.55003
0.44366
0.281833
-0.0941947
-0.395838
-0.22504
-0.462769
-0.562923
-0.575829
-0.575635
-0.530677
-0.485638
-0.428139
-0.404754
-0.357165
-0.32341
-0.289584
-0.272052
-0.262786
-0.254198
-0.246215
-0.24212
-0.239272
-0.249612
0.283482
0.283006
0.28857
0.295381
0.307651
0.32693
0.355782
0.378197
0.421755
0.494987
0.541968
0.621993
0.742489
0.853198
0.915608
0.935454
0.818274
0.60511
0.360271
0.0870664
-0.096684
-0.295873
-0.445158
-0.533376
-0.541135
-0.513507
-0.473151
-0.428418
-0.372308
-0.34634
-0.285366
-0.252504
-0.239195
-0.22951
-0.227965
-0.224025
-0.222518
-0.224852
-0.226383
-0.229897
0.266099
0.269989
0.273905
0.279781
0.290598
0.303077
0.330236
0.360521
0.416381
0.458469
0.538562
0.624031
0.702341
0.766309
0.832423
0.8538
0.802525
0.57881
0.311523
0.256154
0.0645789
-0.154204
-0.27906
-0.235575
-0.328726
-0.367237
-0.439079
-0.428171
-0.337539
-0.275718
-0.246355
-0.238883
-0.214524
-0.210062
-0.210383
-0.210549
-0.209514
-0.209026
-0.207598
-0.209833
0.245971
0.23981
0.243296
0.250089
0.260372
0.274502
0.290215
0.323059
0.364078
0.40381
0.447432
0.547735
0.658363
0.717736
0.781072
0.686685
0.560057
0.325167
0.119762
0.248153
0.051732
-0.136793
-0.255574
-0.232245
-0.249623
-0.192834
-0.169235
-0.164474
-0.16074
-0.180726
-0.201284
-0.183304
-0.176217
-0.179521
-0.187826
-0.187751
-0.190258
-0.193581
-0.195976
-0.194461
0.223893
0.219346
0.218854
0.2213
0.226935
0.238097
0.250759
0.274986
0.303514
0.349793
0.402449
0.449839
0.481713
0.488176
0.473902
0.44944
0.426617
0.300311
0.178162
0.0520168
-0.0897806
-0.12994
-0.186577
-0.190143
-0.276058
-0.266101
-0.198992
-0.120061
-0.0981375
-0.107207
-0.112302
-0.11834
-0.13179
-0.152745
-0.160552
-0.167382
-0.172771
-0.177215
-0.180073
-0.169527
0.195462
0.197168
0.198253
0.200484
0.203437
0.212513
0.217299
0.221119
0.226507
0.246579
0.271793
0.284264
0.261477
0.237783
0.204823
0.143704
0.141552
-0.0125985
-0.149192
-0.132904
-0.0936871
0.000970849
0.110183
0.225311
0.0290516
0.00130924
-0.0563283
-0.084486
-0.0922377
-0.092446
-0.0930686
-0.109447
-0.104793
-0.123272
-0.137133
-0.146397
-0.15006
-0.148573
-0.148136
-0.155467
0.170401
0.168624
0.169427
0.16683
0.164317
0.162379
0.159478
0.147806
0.160747
0.144826
0.130233
0.110639
0.149917
0.185741
0.153995
0.195159
0.244516
0.280505
0.267652
0.232667
0.112639
-0.0430734
-0.00200647
0.0847977
0.144767
0.124532
0.116328
0.0906406
0.0648385
0.0159299
-0.0197428
-0.0495974
-0.0752441
-0.0968482
-0.110754
-0.123497
-0.133208
-0.138973
-0.142847
-0.144377
0.141649
0.149562
0.147317
0.142252
0.135305
0.123665
0.113499
0.0994729
0.089163
0.0827679
0.0986655
0.112816
0.147642
0.166602
0.174363
0.198927
0.164434
0.137109
0.172966
0.262944
0.328025
0.422297
0.466431
0.415216
0.323818
0.244202
0.176342
0.10784
0.0747931
0.0284642
-0.0123214
-0.0459882
-0.0713899
-0.08243
-0.101053
-0.113597
-0.124964
-0.133451
-0.138176
-0.140241
0.120789
0.121957
0.11971
0.115162
0.108861
0.0964742
0.0844818
0.0588184
0.0386233
0.0218022
-0.00134827
-0.0286014
-0.0496397
-0.0536214
-0.028407
0.0513063
0.0652365
0.162417
0.194126
0.325424
0.440951
0.434943
0.501778
0.525788
0.422601
0.323054
0.239043
0.156469
0.0857501
0.0347926
0.0046722
-0.0326849
-0.0674058
-0.088954
-0.104092
-0.116884
-0.119709
-0.121529
-0.124325
-0.132962
0.100526
0.100364
0.0934887
0.0840222
0.0735672
0.0622197
0.0457762
0.0159535
-0.0177331
-0.0434671
-0.100676
-0.144329
-0.158953
-0.106006
-0.0545179
0.0233838
0.0108982
0.0340694
0.0916386
0.230523
0.40952
0.453083
0.500194
0.556013
0.41041
0.34898
0.245349
0.146548
0.0923145
0.0307373
-0.0130576
-0.0556902
-0.0711915
-0.0866377
-0.105075
-0.118284
-0.127269
-0.133762
-0.136614
-0.134348
0.0728864
0.0729663
0.0708587
0.0652926
0.0573983
0.0432562
0.0185734
-0.0108585
-0.0422709
-0.0633668
-0.0824149