/*--------------------------------*- C++ -*----------------------------------*\
| =========                 |                                                 |
| \\      /  F ield         | OpenFOAM: The Open Source CFD Toolbox           |
|  \\    /   O peration     | Version:  v2106                                 |
|   \\  /    A nd           | Website:  www.openfoam.com                      |
|    \\/     M anipulation  |                                                 |
\*---------------------------------------------------------------------------*/
FoamFile
{
    version     2.0;
    format      ascii;
    arch        "LSB;label=32;scalar=64";
    class       volVectorField;
    location    "0";
    object      U;
}
// * * * * * * * * * * * * * * * * * * * * * * * * * * * * * * * * * * * * * //

dimensions      [0 1 -1 0 0 0 0];

internalField   nonuniform List<vector> 
11644
(
(-0.00182247 -8.71283e-05 -8.29838e-21)
(-0.00184668 -0.000231212 -2.28845e-20)
(-0.00184747 -0.000334471 -1.22781e-20)
(-0.00179657 -0.000427598 0)
(-0.00180316 -0.000544001 0)
(-0.00183961 -0.000640891 0)
(-0.00186101 -0.000655439 0)
(-0.00182219 -0.000711728 0)
(-0.00185321 -0.00070995 0)
(-0.00193706 -0.000517759 0)
(-0.0021029 -9.88477e-05 0)
(-0.00218277 0.000336788 0)
(-0.00220854 0.000988581 0)
(-0.00245466 0.0017211 0)
(-0.00238672 0.00237062 0)
(-0.00245959 0.00304957 0)
(-0.00323016 0.00362837 0)
(-0.00142183 0.00419738 0)
(-0.00222087 0.00273844 0)
(-1.69154e-05 0.00318778 1.1294e-29)
(-0.00158606 0.00122574 -1.12487e-29)
(-0.00262215 0.00238226 0)
(-0.0010922 0.00108708 0)
(-0.00258632 0.000927948 0)
(-0.00240815 0.000804498 0)
(-0.00233143 0.000939339 0)
(-0.0023289 0.00115316 0)
(-0.00213581 0.00154392 0)
(-0.00200943 0.00172974 0)
(-0.00192508 0.00186205 0)
(-0.00184711 0.00196184 0)
(-0.00174984 0.00187509 0)
(-0.00173824 0.00166003 0)
(-0.0017646 0.00142101 0)
(-0.00177527 0.00124902 0)
(-0.00174994 0.00101514 0)
(-0.00176414 0.000801457 0)
(-0.0017119 0.000577768 0)
(-0.00168757 0.000389899 0)
(-0.00171694 0.000137349 -1.60897e-21)
(-0.00165418 -9.59027e-05 -1.06592e-20)
(-0.00160226 -0.000235546 -9.87385e-21)
(-0.00159621 -0.000402471 -5.30293e-21)
(-0.00158958 -0.000558361 0)
(-0.00165396 -0.00068511 0)
(-0.00166709 -0.000766866 0)
(-0.00168368 -0.000870145 0)
(-0.00176543 -0.000754321 0)
(-0.00188119 -0.000539462 0)
(-0.00198124 -0.000274868 0)
(-0.00202028 4.23265e-05 0)
(-0.00226212 0.000709455 0)
(-0.00251293 0.00143486 0)
(-0.00254874 0.00235895 0)
(-0.00310439 0.00336514 0)
(-0.00347841 0.00464042 1.46307e-21)
(-0.00340909 0.00474999 8.37996e-21)
(-0.00292403 0.00324603 3.20954e-20)
(-0.00131441 0.00438879 2.68355e-20)
(-0.00359634 0.00510768 -3.23017e-20)
(-0.0029054 0.00244307 -1.67818e-21)
(-0.00141213 0.00326997 -2.37638e-21)
(-0.00229828 0.00453987 -2.17369e-20)
(-0.0023646 0.00288686 -9.44287e-21)
(-0.00202414 0.00234701 -1.73535e-21)
(-0.00198884 0.00277421 0)
(-0.00174067 0.00284053 0)
(-0.00178672 0.00283062 0)
(-0.00163811 0.00292703 0)
(-0.00148093 0.00286377 0)
(-0.00138367 0.00262289 0)
(-0.00134422 0.00245165 0)
(-0.00127821 0.00229471 0)
(-0.00128088 0.00211742 0)
(-0.00129487 0.00177081 0)
(-0.00128754 0.00146835 0)
(-0.00129803 0.00113436 0)
(-0.00127104 0.000821603 0)
(-0.00129119 0.000471507 0)
(-0.00135412 0.000180023 0)
(-0.00174287 -4.56941e-05 0)
(-0.00167089 -0.000125944 0)
(-0.00156006 -0.000317066 0)
(-0.00153978 -0.000425318 0)
(-0.00157482 -0.00054037 -9.73699e-21)
(-0.00159407 -0.000617803 0)
(-0.00162585 -0.000692922 0)
(-0.00168523 -0.000723016 0)
(-0.00179085 -0.000613285 0)
(-0.00199821 -0.000346342 0)
(-0.00235352 0.000172924 0)
(-0.00281076 0.000931104 0)
(-0.00339249 0.00201706 -1.58657e-21)
(-0.00408079 0.0033691 1.23862e-20)
(-0.00425971 0.0049663 1.02207e-19)
(-0.00397828 0.00573527 -1.40174e-19)
(-0.00301123 0.00646622 -1.58973e-19)
(-0.0037674 0.0071218 -2.88011e-19)
(-0.00131579 0.00906632 1.93257e-19)
(-0.0036503 0.00707082 -3.06183e-19)
(-0.00274995 0.00523319 2.33953e-19)
(-0.000419964 0.00284906 6.16769e-19)
(-0.0027031 0.00369784 -4.66536e-19)
(-0.00157862 0.00322115 -5.77794e-20)
(-0.00214155 0.00331511 3.48239e-19)
(-0.00178964 0.00310177 -8.05429e-20)
(-0.00143801 0.00336964 -7.72528e-21)
(-0.00106082 0.00343802 2.3086e-21)
(-0.000850085 0.00338739 0)
(-0.000708495 0.00326761 0)
(-0.000606205 0.00305153 0)
(-0.000554251 0.00271882 0)
(-0.000599262 0.00234996 0)
(-0.000694743 0.00192739 0)
(-0.000710508 0.00153077 0)
(-0.000852499 0.00121599 0)
(-0.000901892 0.000879534 0)
(-0.000986859 0.000604856 0)
(-0.00106521 0.000337972 0)
(-0.00114539 8.37642e-05 0)
(-0.00170796 7.6121e-05 0)
(-0.00173106 -0.000297473 0)
(-0.0016554 -0.00031502 0)
(-0.00168823 -0.000569138 0)
(-0.00160054 -0.000626407 0)
(-0.00160091 -0.00079453 0)
(-0.00157296 -0.000877965 0)
(-0.00163572 -0.000964178 0)
(-0.00170579 -0.00101619 0)
(-0.00192647 -0.000960686 0)
(-0.00237433 -0.000857374 -1.68452e-22)
(-0.00291149 -0.000393357 3.17307e-20)
(-0.00356264 0.000197044 1.64694e-19)
(-0.00408402 0.00152613 -2.16516e-20)
(-0.00431463 0.00361824 -4.4307e-19)
(-0.00413565 0.00514888 3.61515e-19)
(-0.00407982 0.0069774 -8.20198e-19)
(-0.00344512 0.00824909 2.62242e-19)
(-0.0038945 0.00791927 -1.07063e-22)
(-0.00353863 0.00687705 1.65734e-18)
(-0.00275276 0.00616263 -1.28225e-18)
(-0.00126467 0.00426023 4.3818e-19)
(-0.000609725 0.00327189 -1.05708e-18)
(-0.000793876 0.00293478 3.80562e-19)
(-0.00103471 0.00265776 8.06732e-20)
(-0.00062062 0.00279257 4.44749e-19)
(-7.44089e-05 0.0032772 -7.69662e-20)
(0.000372952 0.003407 -1.42546e-19)
(0.000774153 0.00320799 2.26749e-20)
(0.000791421 0.00291183 7.91988e-23)
(0.000602273 0.00251505 0)
(0.000401997 0.00206537 0)
(0.000206824 0.00161195 0)
(-3.70196e-05 0.00123525 0)
(-0.000283042 0.000960009 0)
(-0.000492736 0.000676361 0)
(-0.000691013 0.000540044 0)
(-0.000801368 0.000261239 0)
(-0.000927392 0.000190961 0)
(-0.000967317 -8.54339e-06 0)
(-0.00158705 -0.000319299 0)
(-0.00157491 -4.51723e-05 0)
(-0.00174443 -0.000468006 0)
(-0.00171038 -0.000540789 0)
(-0.00168457 -0.000759488 0)
(-0.00159285 -0.00101149 0)
(-0.00153873 -0.00125924 0)
(-0.00149087 -0.00156764 0)
(-0.0015736 -0.00191053 0)
(-0.00175887 -0.00235374 3.32732e-21)
(-0.0018342 -0.00262203 6.0777e-20)
(-0.00214112 -0.00282024 -3.12708e-20)
(-0.00240264 -0.00198401 -5.86309e-20)
(-0.00389046 -0.000704895 -5.55438e-19)
(-0.0054778 0.00142333 7.18851e-19)
(-0.00508931 0.00395746 1.18697e-20)
(-0.00522224 0.00607929 -3.7533e-19)
(-0.00604788 0.00701246 2.72125e-18)
(-0.00634565 0.00499135 -1.01585e-18)
(-0.00512267 0.00484032 -1.74612e-18)
(-0.00417172 0.00609902 3.05464e-19)
(-0.00324884 0.00520968 1.88881e-18)
(-0.00197606 0.00313598 -2.08748e-18)
(-0.000924028 0.00260358 -1.54595e-19)
(0.000275905 0.00258581 5.48368e-19)
(0.000155602 0.0031432 -7.68038e-19)
(0.000640684 0.00325275 4.97214e-19)
(0.00179961 0.00308862 -1.80142e-19)
(0.00198483 0.00274103 2.80567e-19)
(0.00222601 0.00201804 -7.50175e-20)
(0.00196095 0.00146737 1.11136e-20)
(0.00136619 0.00106585 0)
(0.000806303 0.000728734 0)
(0.000321282 0.000455538 0)
(-0.000140887 0.000303201 0)
(-0.000468842 0.000166169 0)
(-0.000683758 4.94076e-05 0)
(-0.000894426 0.000119702 0)
(-0.000945075 -0.000140041 0)
(-0.00095586 0.000135547 0)
(-0.00150057 9.48492e-05 0)
(-0.0014771 -0.000235926 0)
(-0.00146543 -0.000534124 0)
(-0.00148661 -0.00058659 0)
(-0.00151216 -0.00101656 0)
(-0.00146225 -0.00118577 0)
(-0.00145059 -0.00155139 0)
(-0.00136074 -0.0020377 0)
(-0.00135751 -0.00265898 -6.41807e-21)
(-0.00113579 -0.00331546 -3.27313e-21)
(-0.00110555 -0.00410579 -5.53956e-20)
(-0.00108209 -0.00395378 1.62354e-19)
(-0.00228792 -0.00493961 -2.27659e-19)
(-0.00205276 -0.00413638 2.98374e-19)
(-0.00373765 -0.000433703 -6.07043e-19)
(-0.00758714 0.00293862 -5.39605e-19)
(-0.0087146 0.00340396 5.34811e-20)
(-0.00764909 0.00394742 1.34667e-19)
(-0.0076515 0.00488185 3.82048e-19)
(-0.00601368 0.00495363 5.71392e-19)
(-0.00452916 0.00525157 2.84336e-19)
(-0.00410811 0.00513474 -1.6752e-18)
(-0.00290907 0.00381238 3.10405e-19)
(-0.0010296 0.00387988 1.32728e-19)
(0.00134161 0.00289842 1.81474e-19)
(0.00315293 0.00324593 8.1458e-19)
(0.0038449 0.00421834 -2.7129e-19)
(0.00351072 0.00370792 5.41502e-19)
(0.00357005 0.00202848 -5.49533e-19)
(0.00300159 0.00119397 1.36577e-19)
(0.00247029 0.000465068 -5.30107e-20)
(0.00170383 0.000125672 -1.05482e-20)
(0.000819006 2.37292e-05 0)
(0.000183209 -8.04729e-05 0)
(-0.000266559 -0.000173595 0)
(-0.000603301 -5.63181e-05 0)
(-0.000789292 -0.000139726 0)
(-0.00097639 -2.39902e-05 0)
(-0.00110392 3.78466e-05 0)
(-0.00112482 -0.00014155 0)
(-0.00154367 0.000200253 0)
(-0.00163807 -0.000879388 0)
(-0.001628 -0.00031824 0)
(-0.00170922 -0.00115858 0)
(-0.00164084 -0.00123754 0)
(-0.00162917 -0.00162763 0)
(-0.00157088 -0.00204356 0)
(-0.00147721 -0.00255988 3.29251e-22)
(-0.00123996 -0.00326514 9.78042e-20)
(-0.000836842 -0.00384736 1.21996e-20)
(-0.000600184 -0.00410204 -4.50494e-19)
(-0.000759106 -0.00576477 2.17114e-19)
(-0.000524367 -0.00531227 1.04494e-18)
(-0.00388524 -0.00556262 -1.25763e-18)
(-0.00293626 -0.00635754 -5.57278e-19)
(-0.00322826 -0.00299034 7.52588e-19)
(-0.0064013 0.00347911 -3.20734e-19)
(-0.00694277 0.00418896 -2.21706e-18)
(-0.00619772 0.00458127 -9.21886e-19)
(-0.00519042 0.00425923 -9.0518e-19)
(-0.00238347 0.00752357 1.05243e-18)
(-0.002571 0.00617955 1.17494e-18)
(-0.000721222 0.00415123 -2.69746e-18)
(0.00134029 0.00123966 -1.11405e-18)
(0.00604001 0.00356467 -1.15559e-18)
(0.00790092 0.00441851 1.76688e-19)
(0.00483575 0.00357313 1.44747e-18)
(0.00660496 0.00247756 -1.34395e-18)
(0.00421272 0.00140341 7.5531e-19)
(0.00293813 0.000346896 -6.12942e-19)
(0.00183836 -0.000245992 2.38455e-19)
(0.00114318 -0.000511719 -2.56065e-20)
(0.000418624 -0.00046594 5.59562e-21)
(-0.000274622 -0.00021234 0)
(-0.000738889 -0.000201318 0)
(-0.00108189 -0.000311488 0)
(-0.00139102 -9.129e-05 0)
(-0.00147059 -0.000443325 0)
(-0.00154279 5.64886e-05 0)
(-0.00152223 -0.000256316 0)
(-0.00142568 -0.00111665 0)
(-0.00140333 0.000148012 0)
(-0.00150961 -0.00126494 0)
(-0.00148805 -0.00128763 0)
(-0.00167133 -0.00145488 0)
(-0.00184883 -0.00192873 0)
(-0.00186474 -0.00224165 0)
(-0.00186313 -0.00304045 1.30293e-21)
(-0.00155943 -0.0035143 7.56483e-21)
(-0.00144108 -0.00398291 -4.09079e-20)
(-0.00175754 -0.00464777 3.59838e-19)
(-0.00200306 -0.00417519 7.34626e-21)
(2.99419e-05 -0.00581883 6.92176e-20)
(-0.00351408 -0.00771982 -1.08128e-18)
(-0.00168659 -0.00336758 2.94907e-19)
(-0.00065631 -0.00348704 2.27488e-18)
(-0.00542397 -0.00276026 8.72365e-20)
(-0.0075845 0.00434396 -9.14407e-19)
(-0.00800713 0.00676251 2.05083e-18)
(-0.00701795 0.00804362 -1.08738e-19)
(-0.00446652 0.0101126 -5.16844e-19)
(-0.00117483 0.00531998 9.19577e-19)
(0.00193083 0.00414732 -4.4776e-19)
(0.00142677 0.00359075 -2.21421e-19)
(0.00719217 0.00481626 1.96483e-18)
(0.00904092 0.00218074 1.53551e-18)
(0.00889791 -0.000503 -5.86089e-19)
(0.00694141 0.00154906 -2.90043e-19)
(0.00412119 -0.000736793 7.38592e-19)
(0.00243988 -0.000214188 -5.46569e-19)
(0.000599267 -0.000900457 9.42519e-20)
(-0.00038583 -0.00112309 4.60988e-21)
(-0.000806435 -0.000957114 5.44768e-20)
(-0.00122978 -0.000464094 0)
(-0.00156856 6.15264e-05 0)
(-0.00170732 0.000130258 0)
(-0.00177769 0.000354638 0)
(-0.00186492 0.000645274 0)
(-0.001816 -0.000101343 0)
(-0.00188011 0.000623826 0)
(-0.00126701 0.000570862 0)
(-0.00148221 -0.000398383 0)
(-0.00136934 -0.000929531 0)
(-0.00153393 -0.000422806 0)
(-0.00165991 -0.00131188 0)
(-0.00186654 -0.00148471 0)
(-0.00207752 -0.00217721 1.03005e-20)
(-0.00222311 -0.00300521 -2.50487e-20)
(-0.00254012 -0.00339853 1.22051e-19)
(-0.00340383 -0.00361401 -9.38739e-21)
(-0.00446786 -0.00414376 -2.79458e-19)
(-0.00553746 -0.00460278 1.38187e-19)
(-0.00624715 -0.0124474 6.93087e-20)
(-0.0119701 -0.0074675 3.54593e-20)
(-0.00510837 -0.00551995 -7.03829e-20)
(-0.0123767 -0.00548451 -2.6232e-19)
(-0.00659055 -0.00140358 -1.07837e-18)
(-0.00693488 -0.000613638 2.19055e-18)
(-0.0100508 0.00849737 -2.10548e-18)
(-0.00840556 0.010406 -1.95055e-19)
(-0.00513774 0.0172169 1.0264e-18)
(0.000744248 0.0111006 1.37594e-18)
(0.00312498 0.00546065 1.45769e-18)
(0.00930271 0.00690717 1.87903e-18)
(0.00754549 0.00124311 3.75614e-19)
(0.00361309 8.4074e-05 -3.89793e-19)
(0.00542994 -0.00177408 -1.10738e-19)
(0.00156844 0.00256215 -2.80605e-20)
(0.00121218 -0.00193572 1.62601e-19)
(-7.88946e-05 -0.0011829 -1.16194e-19)
(-0.00140776 -0.0015231 -2.77156e-20)
(-0.00231408 -0.0013467 -8.18543e-20)
(-0.00257555 -0.00118465 4.75286e-20)
(-0.00255449 -0.0008463 3.93411e-21)
(-0.00242628 -0.000426587 0)
(-0.00232698 7.69761e-05 0)
(-0.00221821 -0.000202588 0)
(-0.00210405 0.00039394 0)
(-0.00219786 0.000168839 0)
(-0.00208678 -0.000225402 0)
(-0.00114087 0.000635667 0)
(-0.00101583 -0.00173545 0)
(-0.00146882 -6.07056e-05 0)
(-0.00182197 -0.00165234 0)
(-0.00198644 -0.00189787 0)
(-0.00213376 -0.0022132 0)
(-0.00228518 -0.00323335 7.99812e-21)
(-0.00286131 -0.00354003 9.80901e-21)
(-0.00414705 -0.0034139 -4.58813e-20)
(-0.00565172 -0.00414781 5.39582e-20)
(-0.00722784 -0.00452217 -1.12243e-19)
(-0.00887824 -0.00427791 -4.75323e-21)
(-0.00836455 -0.00822576 8.55431e-20)
(-0.00394795 -0.00845957 -3.74261e-20)
(-0.00873819 -0.0038215 1.01673e-19)
(-0.0182932 -0.00904765 -2.33311e-19)
(-0.0174566 -0.00313874 -1.8893e-19)
(-0.0220614 -0.00032245 1.01512e-18)
(-0.0161415 0.00735208 1.8596e-19)
(-0.0138925 0.0183276 8.16239e-19)
(-0.00272845 0.0204896 5.48706e-19)
(0.00599622 0.0152527 -6.09285e-19)
(0.0118549 0.0108704 -2.10943e-19)
(0.00675161 0.00355962 6.53565e-19)
(0.0031599 0.000197958 -1.23901e-19)
(0.0024046 0.00301901 5.8942e-19)
(0.00230469 -0.00737168 2.06275e-19)
(-0.00235778 0.000398993 6.43263e-20)
(-0.00391771 -0.000303328 -5.8435e-20)
(-0.0040335 -0.000569112 -9.10749e-20)
(-0.00399985 -0.000400739 1.12764e-19)
(-0.00436856 -0.000326413 -3.51717e-20)
(-0.00448623 -0.000291415 9.11079e-21)
(-0.0040671 0.000228213 7.97026e-21)
(-0.00386526 0.000360368 0)
(-0.00369034 0.00037367 0)
(-0.00343993 0.000292898 0)
(-0.00294348 -0.000643105 0)
(-0.00238608 0.000499641 0)
(-0.00225543 -0.000597298 0)
(-0.0011306 -0.00214549 0)
(-0.00106701 0.000173769 0)
(-0.000661094 -0.00187037 0)
(-0.000275114 -0.00259324 0)
(-0.000727631 -0.00228477 0)
(-0.00120088 -0.00299974 0)
(-0.00194365 -0.00358498 4.64513e-21)
(-0.00329349 -0.00392327 8.18789e-21)
(-0.00556241 -0.00362668 -3.438e-21)
(-0.00747535 -0.00401036 -1.80616e-20)
(-0.0084861 -0.00604593 -1.02583e-21)
(-0.0115555 -0.00446892 -1.11085e-20)
(-0.0141591 -0.00433107 3.91063e-20)
(-0.0108273 -0.00897848 -1.31278e-19)
(-0.0169197 -0.0118011 -1.1626e-19)
(-0.0124731 -0.0103291 1.40017e-20)
(-0.0165215 -0.0135483 3.9474e-20)
(-0.0300677 -0.00436649 -3.79074e-20)
(-0.0391271 0.0076296 4.5296e-20)
(-0.0319632 0.0342535 3.1829e-19)
(0.000365576 0.048984 -2.14796e-18)
(0.0275624 0.0265544 9.08514e-19)
(0.020203 0.00225579 -9.68354e-20)
(0.0117611 -0.00476193 -3.62691e-20)
(0.00360782 0.000318162 -1.0718e-20)
(-0.00196915 0.00028959 -3.45505e-20)
(-0.00708737 -0.00339166 9.14435e-20)
(-0.00956674 -0.00407634 -3.12956e-20)
(-0.00905503 -0.00118316 1.93128e-20)
(-0.00697543 0.00194013 2.03474e-20)
(-0.00595137 0.00224891 -3.755e-21)
(-0.00576514 0.00187284 -1.76218e-20)
(-0.00560132 0.00145648 1.69879e-20)
(-0.00489837 0.00156123 -1.8765e-21)
(-0.00366409 0.00218954 0)
(-0.0027893 0.00205528 0)
(-0.00216382 0.00249687 0)
(-0.00234311 0.00179399 0)
(-0.00259675 0.000823499 0)
(-0.00274419 0.000947882 0)
(-0.000303395 -0.000807587 0)
(-0.0006929 -0.000993467 0)
(-0.000560519 -0.00289061 0)
(-0.00120633 -0.00187183 0)
(-0.00122883 -0.00249928 0)
(-0.00132199 -0.00309334 0)
(-0.00164871 -0.0036816 -2.07936e-22)
(-0.00310323 -0.00409605 -4.73143e-23)
(-0.00451669 -0.00527978 2.30453e-23)
(-0.00649942 -0.00554225 -7.98077e-21)
(-0.00650462 -0.0085886 2.34054e-20)
(-0.00671721 -0.0103584 -5.73432e-21)
(-0.0082052 -0.0107099 -1.75228e-20)
(-0.0145511 -0.0144949 1.33287e-19)
(-0.0184587 -0.015137 1.32477e-19)
(-0.0194512 -0.0199358 7.69079e-20)
(-0.0260427 -0.0221743 1.49006e-20)
(-0.037794 -0.0245363 -1.3619e-20)
(-0.0650899 -0.0212073 9.61826e-21)
(0.0182324 -0.0403971 1.91432e-18)
(0.00529668 -0.0211354 -1.06363e-20)
(-0.00376555 -0.0168279 -1.31241e-19)
(-0.0135774 -0.0152343 -2.74567e-20)
(-0.0169985 0.00157863 5.6483e-20)
(-0.0129504 -0.00619918 -8.4574e-21)
(-0.00979677 0.00149736 1.43077e-20)
(-0.00866774 0.00422762 -1.14439e-20)
(-0.00651635 0.00456318 -1.52705e-21)
(-0.00497805 0.00461567 -3.35989e-22)
(-0.00492019 0.00387189 -1.22104e-22)
(-0.00537595 0.00278258 -1.53338e-22)
(-0.00478188 0.00253023 0)
(-0.00391956 0.00238583 0)
(-0.00330515 0.00206251 0)
(-0.00235269 0.00287465 0)
(-0.0022471 0.00104378 0)
(-0.00228983 0.00193844 0)
(0.000821537 0.00376846 0)
(0.00200442 -0.000360943 0)
(0.00125343 0.000736729 0)
(0.000837744 -0.000516592 0)
(0.000668171 -0.0020808 0)
(0.000712871 -0.00288777 0)
(0.00101596 -0.00397784 2.38603e-21)
(0.00027276 -0.00467824 -2.6961e-21)
(0.00102645 -0.00695412 -7.48042e-21)
(-7.05044e-05 -0.00826103 1.96201e-20)
(0.0028234 -0.0104513 -6.32075e-20)
(0.00754477 -0.0131291 -5.02686e-20)
(0.00815394 -0.0143446 6.54084e-20)
(-3.36549e-05 -0.0216292 -3.59207e-20)
(0.00360375 -0.0206978 3.25043e-20)
(-0.00812776 -0.0270299 5.57831e-20)
(-0.00653222 -0.0400046 1.83499e-20)
(-0.0197725 -0.0576669 -1.98266e-20)
(0.00599597 -0.0544803 8.94146e-18)
(-0.0262572 -0.0545195 -1.91537e-18)
(-0.0186151 -0.0295497 5.34814e-21)
(-0.0119383 -0.0128985 -2.1984e-20)
(-0.00802335 -0.0141428 4.57402e-20)
(-0.0146836 -0.00126672 -2.05358e-20)
(-0.00796882 -0.00269913 -6.19997e-20)
(-0.00669291 0.00130173 1.48671e-19)
(-0.00613756 0.00369433 -4.14952e-20)
(-0.00677433 0.00523219 -1.73213e-20)
(-0.00301976 0.00645652 2.99607e-21)
(-0.00244157 0.00605783 9.69618e-22)
(-0.00289031 0.00488289 -4.37548e-22)
(-0.00358451 0.00381917 0)
(-0.00308848 0.00273911 0)
(-0.00225996 0.000816094 0)
(-0.00124184 -0.000206983 0)
(-0.000394197 -0.000467859 0)
(0.000595944 -0.00234103 0)
(-0.000978328 -0.00185891 -2.70848e-22)
(0.00138809 -0.00030458 0)
(0.00221087 -0.000587665 0)
(0.00358702 -0.00226497 0)
(0.00357679 -0.0025833 0)
(0.00327701 -0.00221013 0)
(0.00316873 -0.00242725 -7.87596e-22)
(0.00432459 -0.00324337 -1.00273e-20)
(0.00583129 -0.00759009 -6.42275e-20)
(0.00735614 -0.00856194 1.19035e-19)
(0.0102271 -0.0062382 -5.72224e-20)
(0.00690999 -0.0137616 -1.28354e-19)
(0.0173545 -0.0252334 9.18854e-20)
(0.0204905 -0.0310748 1.22542e-19)
(0.0184237 -0.00760518 8.79493e-19)
(0.021822 -0.0218208 -9.22309e-19)
(0.0227886 -0.0397457 5.72404e-20)
(-0.0170261 -0.0337411 1.73375e-19)
(-0.0377686 -0.00308739 -1.37413e-20)
(-0.0534097 -0.00474015 8.34575e-19)
(-0.0198339 0.00887791 -6.77959e-20)
(-0.0166723 -0.00827532 -3.1635e-19)
(-0.013652 -0.01551 6.14625e-19)
(-0.0109049 -0.00303405 5.74655e-19)
(0.000883295 0.00471669 6.34722e-20)
(-0.00737003 0.00525589 -4.45236e-20)
(-0.00323217 0.000288084 -4.06208e-20)
(-0.00401126 0.00548766 7.45174e-20)
(-0.0009336 0.00811055 7.7462e-20)
(-0.000121777 0.00559428 -2.27172e-20)
(-9.61073e-05 0.00580232 -5.74061e-21)
(0.000422985 0.0047961 0)
(0.00127718 0.00418606 0)
(0.00220246 0.00323779 0)
(0.00147863 0.00131074 0)
(0.00134164 0.00110855 0)
(-0.00174768 -0.00253707 0)
(0.00479028 -0.000557423 -1.25674e-23)
(0.00444546 -0.00108683 0)
(0.00529337 -0.00279489 0)
(0.00512016 -0.00326452 0)
(0.00512557 -0.0031289 0)
(0.00446758 -0.00147724 0)
(0.00666465 -0.000410616 2.02039e-21)
(0.00683086 -0.000573079 9.71885e-21)
(0.0107631 -0.00669553 -8.35171e-20)
(0.0204433 0.00106867 1.28704e-19)
(0.0219901 0.00467991 -6.35837e-20)
(0.00914009 -0.0166653 -2.01342e-19)
(0.0491874 0.00422839 3.17017e-19)
(-0.0392648 -0.0239193 -7.84121e-19)
(0.00292521 -0.0632963 5.89504e-19)
(0.0288099 0.0101183 -2.57558e-19)
(0.0155834 -0.0547401 6.97291e-19)
(-0.117622 -0.0366744 1.2434e-18)
(-0.234717 0.0411554 -3.08886e-19)
(0.0643654 -0.260472 -6.54781e-19)
(-0.0997757 -0.072677 1.49219e-20)
(0.0262583 0.280052 1.46798e-18)
(0.0555856 0.0392314 1.14898e-18)
(-0.07731 0.0543973 4.85042e-19)
(-0.041473 0.0109169 3.5241e-19)
(-0.0421801 0.0642034 2.14961e-20)
(-0.0513303 0.0293587 1.07263e-18)
(0.00456925 -0.00264404 8.03923e-20)
(-0.0270684 0.0164224 -2.8928e-19)
(-0.00158285 -0.00393794 3.88962e-19)
(0.00480173 0.00147802 -1.39706e-19)
(0.00126445 0.00937577 9.94385e-20)
(0.00110902 0.00513887 -9.00608e-21)
(0.00409737 0.00482528 -1.82853e-21)
(0.00204625 0.00552988 0)
(0.00322037 0.00584036 0)
(0.0042712 0.00522262 0)
(0.00463579 0.00374935 0)
(0.00369926 0.00361307 0)
(0.00446113 0.00264636 0)
(0.00986087 -0.00498089 -9.09856e-21)
(0.00398424 0.00139566 0)
(0.00401755 0.00118138 0)
(0.00490797 0.00111234 0)
(0.00426567 0.000537926 0)
(0.0093563 -0.000563886 0)
(0.0109103 0.0042311 2.27121e-22)
(0.0118 -0.0018109 -7.83401e-21)
(0.0154643 -0.00484661 -1.16909e-19)
(0.0220171 0.0026582 2.33325e-19)
(0.00392761 -0.028194 -2.41478e-19)
(0.052459 0.0422034 4.92367e-19)
(0.054806 -0.0200063 -2.73696e-19)
(0.0050584 -0.0441066 7.16563e-20)
(0.0886142 0.0352166 -4.94734e-19)
(0.0797733 -0.158265 -7.84335e-20)
(0.0277916 0.0184041 1.18349e-18)
(-0.218487 0.164102 -2.54089e-19)
(1.29759 -0.435583 -1.16465e-20)
(1.61669 -1.04948 2.7354e-17)
(-1.34598 -0.490958 6.63143e-19)
(-2.60708 -0.995705 6.51966e-19)
(0.579537 0.549574 -7.39766e-19)
(-0.00600903 0.33562 -1.80948e-18)
(-0.138077 -0.052177 -1.94492e-18)
(0.0628076 -0.0923144 -1.31519e-18)
(-0.0298194 -0.0794868 4.95189e-19)
(0.0179957 0.0241948 3.3452e-19)
(0.0230993 -0.034071 5.65083e-20)
(-0.0218491 0.0372095 2.49631e-19)
(-0.00134205 0.000238308 -3.01029e-19)
(0.000976816 0.0090575 1.73872e-19)
(0.00389022 0.00606367 -4.45489e-21)
(0.00735677 0.00238253 -2.13828e-22)
(0.00678206 0.00531089 0)
(0.00362905 0.00406139 0)
(0.00353108 0.00324758 0)
(0.00248257 0.0022158 0)
(0.00326286 -0.000247263 0)
(0.00857282 0.00666022 -1.19703e-20)
(0.00588717 0.00257227 -1.34595e-20)
(0.00393349 -0.000925581 0)
(0.00302563 -0.00345955 0)
(0.00323515 -0.00315451 0)
(0.00938326 0.0012853 0)
(0.00964754 0.0041931 0)
(0.0119206 0.00337456 0)
(0.0183118 0.00452351 -2.53726e-21)
(0.0298099 0.0221628 1.90783e-20)
(0.0328633 -0.00253685 -3.16226e-20)
(0.0275666 0.000898745 2.10782e-19)
(0.0263239 -0.0534763 9.02528e-20)
(0.0177083 0.0428178 -6.083e-19)
(0.103546 -0.00601277 5.73109e-19)
(0.0278494 -0.103267 -2.46918e-19)
(0.0493217 0.0440894 2.08822e-19)
(-0.156292 -0.163433 4.56509e-19)
(1.10781 -0.589072 -1.24278e-17)
(0.00748061 0.0035851 3.78407e-18)
(-1.49724 2.36762 -2.13586e-18)
(3.90683 -0.407674 -3.88879e-18)
(1.89792 0.505461 6.2902e-18)
(-0.588083 -1.01464 5.68337e-18)
(-0.388319 0.312132 -1.1256e-17)
(0.156373 -0.194093 -7.56258e-19)
(-0.121588 0.0877337 4.96913e-19)
(0.0242755 0.0620127 -1.58614e-20)
(-0.0264231 -0.0170073 5.65541e-19)
(-0.0118564 0.0715751 4.99174e-20)
(0.00663036 0.0135361 -2.83029e-19)
(0.0197219 0.0138215 4.90635e-20)
(0.0206915 -0.0134025 -4.77924e-20)
(0.0133276 0.00546036 7.38942e-22)
(0.00940553 0.00770899 0)
(0.00898717 0.00279709 0)
(0.00959082 0.00399802 0)
(0.00466944 0.00594428 0)
(0.00500392 0.00462257 0)
(0.00567472 0.000696482 0)
(0.0074997 -0.00186395 2.10913e-20)
(0.00127286 0.00163886 2.57627e-21)
(0.0060407 0.000253993 0)
(0.00679548 0.00380499 0)
(0.00705698 0.00332482 0)
(0.00561189 0.00306418 0)
(0.00982647 0.00619573 0)
(0.0112655 0.000790222 0)
(-9.67813e-05 -0.000341617 0)
(0.00122094 0.00431403 7.58033e-21)
(0.014622 0.0268748 -2.70639e-20)
(0.0500173 0.0319327 1.25854e-20)
(0.0235393 0.0140303 -1.12216e-19)
(-0.00376857 0.00387436 6.23467e-20)
(0.0680091 0.0188338 -5.05713e-20)
(0.0850765 0.061528 2.62715e-20)
(0.153284 0.0203626 1.34277e-19)
(-0.0329542 -0.00463753 2.65492e-18)
(0.520928 -1.12584 -8.36353e-19)
(-0.354948 2.05716 -8.90186e-19)
(3.88549 -1.71303 -2.45455e-18)
(-4.29119 0.585986 -4.54967e-19)
(4.01798 1.82416 -2.60653e-19)
(-0.829565 -2.10741 1.01969e-18)
(1.1821 0.0387848 5.99469e-18)
(-0.444664 0.140784 -9.84324e-19)
(-0.0842415 -0.0354203 4.88389e-19)
(0.0148983 0.0650271 1.00998e-19)
(-0.0407656 0.0496915 -3.3257e-19)
(0.00542497 0.0282485 -3.28794e-21)
(0.0352496 -0.00477285 2.60905e-20)
(0.00453663 -0.00539982 3.12067e-20)
(-0.00760887 0.0150259 -1.89872e-20)
(-0.00311315 0.0165507 0)
(0.0134261 0.00895955 0)
(0.0146386 0.000101605 0)
(0.0107488 0.00116468 0)
(0.0114299 -0.00109117 -1.53703e-20)
(0.010655 -0.00183789 -2.12561e-20)
(0.00893522 0.00155449 -1.26752e-20)
(0.00366972 -0.00167466 0)
(0.000778904 -0.000397724 0)
(0.000768989 -0.00319317 0)
(-0.000896117 9.87822e-05 0)
(-0.000975295 0.00360059 0)
(-0.000727944 0.00209393 0)
(-0.00210584 0.0019544 0)
(0.00371373 0.0139644 0)
(0.0224416 0.0125157 0)
(0.0157568 -0.00352528 -3.68158e-23)
(0.00319923 0.00766601 -9.41793e-22)
(0.00385293 0.0307883 -2.02989e-20)
(0.0196862 0.0602792 1.57366e-20)
(-0.00437954 0.0306346 2.12273e-20)
(-0.0227301 0.0254632 2.29002e-19)
(0.0881474 0.113912 -2.02256e-18)
(-0.00820459 0.131817 1.45081e-19)
(0.527097 0.475838 -9.59816e-20)
(1.57944 0.910622 -7.12472e-19)
(-4.2946 -1.24955 -7.76769e-19)
(0.459743 -2.59064 1.31612e-17)
(3.68066 0.37809 -4.23673e-18)
(-1.20273 3.1849 2.53364e-18)
(-1.89242 0.144274 -9.4215e-19)
(0.26116 0.118657 -8.6939e-19)
(-0.270644 0.120349 2.44062e-19)
(0.0533245 0.0996981 -4.26617e-19)
(-0.00172738 0.0916002 1.22593e-19)
(0.0125187 0.0407323 -3.21686e-20)
(0.0401568 -0.00917862 5.81709e-20)
(0.00860518 0.00139038 1.04986e-20)
(0.0083798 0.0160779 2.48734e-23)
(0.0156193 0.0187082 -3.1414e-23)
(0.0241108 -0.00616241 0)
(0.00968455 -0.00906711 0)
(0.00676045 0.00179131 0)
(0.00657681 0.000772032 0)
(0.00489098 -0.00118414 0)
(0.00465124 0.00181043 0)
(0.00597571 0.00437609 0)
(0.00482571 0.00162644 2.28283e-21)
(0.00396788 -0.000766245 0)
(0.00539491 0.00228399 0)
(0.00795632 0.00103985 0)
(0.0056251 -0.00132345 0)
(0.00235598 -0.00334077 0)
(-0.00176383 -0.00558482 0)
(-0.00328975 -0.00615544 0)
(8.67327e-05 0.00869112 0)
(-0.00330805 0.0137858 0)
(-0.0123998 0.0143892 0)
(-0.0132918 0.0159329 -3.21474e-21)
(-0.0143639 0.0317052 -1.31048e-20)
(-0.0238952 0.0471543 -1.41453e-21)
(-0.0634741 0.0599726 -6.01953e-21)
(-0.0423831 0.060257 -5.26852e-18)
(0.241874 0.259956 -2.92605e-19)
(0.0916337 0.16315 -3.08928e-18)
(-0.49946 -0.79421 -1.24806e-18)
(-0.432558 2.37259 9.55204e-19)
(0.926811 5.50113 -3.53057e-18)
(-0.798577 -0.453055 -2.35305e-18)
(1.3085 -5.3782 -3.02879e-19)
(-0.553479 -0.476739 3.61819e-19)
(-0.598717 1.3011 -1.64481e-19)
(0.352645 -0.0752621 1.54178e-18)
(0.0664733 0.145483 2.9267e-19)
(0.0613337 0.0169361 2.85935e-20)
(0.0649736 0.0132979 -5.57849e-21)
(0.0415387 0.00660876 1.87974e-20)
(0.0181483 0.00322846 1.58597e-21)
(0.00864732 0.00175441 0)
(0.010723 -0.00511216 0)
(0.0115812 -0.00579067 0)
(0.00723125 0.00474265 0)
(0.00885012 0.00381774 0)
(0.0106837 0.00155072 0)
(0.0121843 -0.000106006 0)
(0.0127963 -0.0022079 0)
(0.00899684 -0.00305407 0)
(0.00938245 0.000600133 0)
(0.00701321 -0.000203605 0)
(0.00146293 -0.000879491 0)
(0.00027245 0.00138361 0)
(0.00347627 0.00262538 0)
(0.00431562 0.0017707 0)
(0.00197121 -0.00066484 0)
(-0.00420008 -0.00496111 0)
(-0.00820393 -0.00261987 0)
(-0.00433956 0.00361091 0)
(-0.00979723 0.00841912 0)
(-0.0270693 -0.00318102 0)
(-0.0470171 0.00488856 -4.4406e-22)
(-0.0870017 0.019224 1.22337e-20)
(-0.0861548 0.0756259 -3.9637e-21)
(-0.111156 -0.0706434 -1.81043e-18)
(-0.0167451 -0.0436756 -1.61673e-18)
(1.03929 0.992018 -2.89243e-18)
(-0.492615 -0.888354 -1.33073e-19)
(-0.417888 -1.13574 -4.13931e-18)
(0.0730294 -0.216306 2.39466e-18)
(-0.464154 0.625505 6.61671e-19)
(0.277584 1.21912 1.60899e-20)
(-0.373837 1.88255 -1.53087e-18)
(0.283861 0.8874 3.27666e-19)
(-0.486023 -0.133206 -8.52472e-19)
(0.163492 -0.0418262 -2.84625e-19)
(0.0776686 -0.0735122 2.52819e-19)
(0.0306827 -0.0118549 -1.21569e-20)
(0.0256917 -0.0110549 -3.52018e-22)
(0.0203472 -0.00620484 0)
(0.0208216 -0.0119647 0)
(0.0164215 -0.0123799 0)
(0.00672119 -0.00556511 0)
(0.0078745 -0.00406005 0)
(0.0113403 -0.00582932 0)
(0.0106851 -0.00700772 0)
(0.00817561 -0.00598048 0)
(0.00371415 -0.00337095 0)
(0.00510428 -0.000295278 0)
(0.0103369 -0.00104238 0)
(0.00301099 0.00171444 0)
(0.00469184 0.00349688 0)
(0.00319949 -0.000838719 0)
(-3.77426e-05 -0.00121524 0)
(0.000781836 -0.00149367 0)
(0.00137481 0.000280781 0)
(0.00106207 -1.02942e-05 0)
(-0.00622692 -0.00651461 0)
(-0.0138481 -0.0111738 0)
(-0.0156489 -0.0133802 0)
(-0.0227451 -0.0112809 -4.24866e-20)
(-0.0270876 -0.0297688 0)
(-0.0470798 -0.0447083 0)
(-0.131025 0.0410687 6.27071e-19)
(-0.465362 -0.0483744 1.31546e-18)
(0.703563 0.369059 -2.95868e-18)
(-1.11197 -2.06837 1.13253e-19)
(-2.28457 -0.0252627 -1.02991e-19)
(0.63173 1.68867 -1.24579e-18)
(2.28942 -0.44124 4.79216e-18)
(2.02486 0.338186 -1.30609e-18)
(1.4187 -1.6796 -2.0585e-18)
(-1.36461 -2.02893 -3.77525e-19)
(-2.74743 1.54802 1.63797e-19)
(1.49643 0.0138639 -1.20125e-19)
(-0.134062 -0.138188 2.87546e-19)
(0.0327067 -0.161633 -5.97873e-19)
(0.0586689 -0.0293244 0)
(0.0243785 -0.0360514 0)
(0.016361 -0.0259642 -2.48465e-20)
(0.00877184 -0.0136961 0)
(0.00506868 -0.00894248 0)
(0.00713031 -0.00870391 0)
(0.0101733 -0.0123721 0)
(0.00703749 -0.00867379 0)
(0.00463351 -0.0046027 0)
(0.00314713 -0.00301821 0)
(0.00599745 -0.00223975 2.52968e-21)
(0.00711674 -0.00495136 1.81482e-21)
(0.00424111 -0.00240955 0)
(-0.00192741 -0.00225615 0)
(0.00350186 -0.00416881 0)
(0.00576881 -0.00244868 0)
(0.00589589 -0.00339014 0)
(0.00251716 -0.00342274 0)
(0.000607261 -0.0053758 0)
(-0.00179004 -0.00534601 0)
(0.000165666 -0.00660741 0)
(0.00113184 -0.0125991 0)
(0.00332016 -0.0234605 0)
(-0.0039071 -0.0341861 2.06892e-19)
(-0.00489394 -0.0688717 0)
(-0.0470658 -0.0465958 0)
(-0.0373574 -0.195184 6.54888e-19)
(0.358029 -0.229176 2.64637e-18)
(0.326966 -0.651155 -1.46731e-18)
(-1.56788 0.439031 0)
(-0.286662 0.967212 3.07272e-19)
(1.24553 1.3102 7.86382e-19)
(2.36643 -0.712897 6.54968e-18)
(2.039 0.529439 -1.1068e-18)
(0.859791 -1.52727 2.07457e-18)
(-0.600906 -1.31701 4.13081e-19)