/*--------------------------------*- C++ -*----------------------------------*\
| =========                 |                                                 |
| \\      /  F ield         | OpenFOAM: The Open Source CFD Toolbox           |
|  \\    /   O peration     | Version:  v2106                                 |
|   \\  /    A nd           | Website:  www.openfoam.com                      |
|    \\/     M anipulation  |                                                 |
\*---------------------------------------------------------------------------*/
FoamFile
{
    version     2.0;
    format      ascii;
    arch        "LSB;label=32;scalar=64";
    class       volScalarField;
    location    "0";
    object      p;
}
// * * * * * * * * * * * * * * * * * * * * * * * * * * * * * * * * * * * * * //

dimensions      [0 2 -2 0 0 0 0];

internalField   nonuniform List<scalar> 
11644
(
-0.0147446
-0.014238
-0.0132362
-0.0117731
-0.00965119
-0.00686492
-0.00314399
0.00159076
0.0068609
0.0123726
0.0181098
0.0238315
0.0295123
0.0352357
0.0407963
0.0447234
0.0482059
0.0516665
0.0533326
0.06079
0.0668877
0.0753891
0.0745297
0.0784335
0.0806708
0.0816605
0.0819948
0.0800574
0.0759772
0.0707401
0.0650464
0.0592601
0.0538066
0.0489286
0.0445114
0.0405459
0.0373803
0.0349565
0.0332966
0.0325175
-0.0165508
-0.016195
-0.0151708
-0.0134942
-0.0112542
-0.00839464
-0.00494847
-0.000922398
0.00398275
0.0096843
0.0159316
0.0225345
0.0289451
0.035317
0.0406605
0.0454622
0.0505167
0.0538064
0.0576503
0.0693997
0.0723262
0.0761131
0.0787106
0.0828606
0.0854779
0.0850595
0.082686
0.0790027
0.0742538
0.0689614
0.0633478
0.0577233
0.0521984
0.046958
0.0423109
0.0384193
0.0351872
0.0326943
0.0310732
0.0303814
-0.0171005
-0.0170972
-0.0165885
-0.0154137
-0.0136436
-0.0113488
-0.0085592
-0.00528819
-0.00136368
0.00341059
0.00912689
0.015825
0.0234914
0.0309401
0.0383773
0.0460747
0.0525695
0.058977
0.0707345
0.0695876
0.0744716
0.0747229
0.0806979
0.0842861
0.0866275
0.0865637
0.0826834
0.0777812
0.0723641
0.0663755
0.06022
0.0542362
0.0486274
0.0434944
0.0390033
0.0352888
0.0322578
0.0300529
0.0287299
0.0282103
-0.0175782
-0.0174102
-0.0172125
-0.0168282
-0.0161229
-0.014947
-0.013318
-0.0111682
-0.00837359
-0.00471872
0.000206371
0.00705751
0.0152981
0.0261689
0.0378679
0.0484564
0.0584976
0.0710627
0.083093
0.0756855
0.0794884
0.0832383
0.0854341
0.086233
0.085958
0.0841104
0.0806976
0.0748632
0.068264
0.0616121
0.0551528
0.0490776
0.0435983
0.0387949
0.0347063
0.0313364
0.0287486
0.02687
0.0257105
0.0251916
-0.0183687
-0.0183257
-0.0181954
-0.0181278
-0.0181842
-0.0181558
-0.0179136
-0.0172711
-0.0159982
-0.0137436
-0.00990152
-0.0037577
0.00615585
0.0184562
0.0338795
0.0487541
0.0609109
0.0825521
0.105776
0.0923236
0.103453
0.0907783
0.091341
0.0850145
0.082473
0.0774637
0.071428
0.0662303
0.0600527
0.0538096
0.0478347
0.0421062
0.0370022
0.0326669
0.0291026
0.0262335
0.024096
0.0225678
0.0214527
0.020808
-0.018472
-0.0185841
-0.0186602
-0.0191182
-0.0196854
-0.020428
-0.0212936
-0.0221054
-0.0224996
-0.0220311
-0.0197565
-0.0144397
-0.00631657
0.00866418
0.0295198
0.0533387
0.0726939
0.101095
0.120451
0.127481
0.121909
0.114695
0.10124
0.0808716
0.0704712
0.0634787
0.0574709
0.0514651
0.0480947
0.0441086
0.0393079
0.0344515
0.0300254
0.0262452
0.0231765
0.0207626
0.0187489
0.0172331
0.0160563
0.0153925
-0.0178637
-0.017578
-0.0177936
-0.0181751
-0.018967
-0.0202671
-0.0219602
-0.0240231
-0.0259556
-0.0263908
-0.0240926
-0.0189018
-0.0111148
-0.0041652
0.0138748
0.0495611
0.0819035
0.0933019
0.114565
0.130647
0.126985
0.112286
0.097899
0.0787684
0.0410075
0.0332518
0.0303522
0.0335733
0.0350365
0.0341903
0.0315337
0.0277317
0.0239218
0.0205082
0.0176522
0.0153847
0.0135985
0.0121239
0.011255
0.010858
-0.0145063
-0.0149903
-0.0153859
-0.015671
-0.0164571
-0.0175866
-0.0193368
-0.0215954
-0.0238046
-0.0239257
-0.0203779
-0.0151123
-0.010262
-0.00483977
0.0182234
0.0259974
0.0667226
0.107108
0.135641
0.150573
0.145707
0.118873
0.091685
0.075104
0.057657
0.0195713
0.02227
0.0216039
0.0247689
0.0254017
0.02464
0.0222486
0.0190495
0.0158783
0.0131713
0.0109339
0.00931537
0.0079958
0.00697466
0.00629431
-0.0107873
-0.0108127
-0.0103898
-0.0110008
-0.0116618
-0.0124199
-0.013572
-0.0149958
-0.0154492
-0.0130778
-0.00725137
0.00245239
0.0156071
0.023349
0.0357736
0.0664805
0.0794176
0.123608
0.167363
0.1946
0.199829
0.146287
0.100843
0.0484665
0.0274221
0.0324738
0.0226881
0.0166471
0.0200241
0.0192261
0.0193356
0.0181243
0.015325
0.0123527
0.00960565
0.00717746
0.0050161
0.00351971
0.0022345
0.00175253
-0.00832274
-0.00694179
-0.0063437
-0.00573813
-0.00512668
-0.00516058
-0.0051368
-0.00479769
-0.00298306
0.00144036
0.00889069
0.017306
0.0192626
0.0195295
0.0388483
0.0685249
0.102945
0.155874
0.219237
0.274794
0.250704
0.162699
0.0805679
0.0420445
0.0235295
0.0118253
0.00899629
0.0214031
0.0207499
0.0184579
0.0165553
0.0141735
0.0113305
0.008322
0.00522472
0.0028754
0.00101507
-0.000350915
-0.00142272
-0.00205009
-0.00204985
-0.00219055
-0.00261327
-0.00163504
-0.000618601
0.000640985
0.00199173
0.00431773
0.0080454
0.0118996
0.0163438
0.0210843
0.0152952
0.0316749
0.035918
0.0199347
0.0408901
0.102994
0.232888
0.419044
0.374395
0.0782546
-0.038358
-0.0363131
-0.0199181
-0.00445069
0.0112415
0.0150066
0.018613
0.0154761
0.011581
0.00847777
0.00567568
0.00270121
-0.000144831
-0.00200062
-0.00284007
-0.00390003
-0.00466724
-0.00625912
0.00194347
0.00142181
0.00287885
0.00337719
0.00437294
0.00601557
0.00699104
0.00836106
0.0110201
0.0141978
0.0161236
0.0233773
0.022057
0.0301683
0.00190193
-0.0240955
-0.065408
-0.117862
-0.169786
-0.376562
-0.111373
-0.0189156
0.0114946
0.0182997
0.0129182
0.00433321
0.00121452
-0.00177158
-0.0032622
-0.00536244
-0.00733772
-0.00902043
-0.00995354
-0.0100329
-0.00960704
-0.00943486
-0.00813319
0.0030181
0.00226674
0.0022526
0.00350302
0.0054085
0.00673461
0.00648647
0.00449843
0.00207772
0.00287098
0.000499695
0.0111838
0.00757889
-0.0247514
-0.0714472
-0.129436
-0.235631
-0.410192
-0.624146
0.078713
-0.0105277
-0.00877412
-0.0259097
-0.0237541
-0.0261246
-0.0348142
-0.027176
-0.0284773
-0.0226121
-0.0222364
-0.0221772
-0.0217439
-0.0203188
-0.0184757
-0.0160188
-0.0138004
-0.0134139
-0.0019189
-0.00284051
-0.00368179
-0.0019581
0.00116934
0.00416049
0.00250477
-0.00648416
-0.0206567
-0.0169211
-0.0391586
-0.0197454
-0.00326236
-0.0300829
-0.0484439
-0.146815
-0.298529
-0.562096
-0.641126
0.202759
0.0530863
-0.0184867
-0.0569819
-0.131504
-0.0926157
-0.0717645
-0.0619859
-0.071396
-0.0375194
-0.0411665
-0.0406324
-0.0393239
-0.0348793
-0.0299436
-0.0260324
-0.0208447
-0.0159135
-0.00597904
-0.00758384
-0.00888672
-0.00502265
0.00118196
0.00628085
0.00189122
-0.0204414
-0.0350612
-0.0273051
0.0299809
0.0420694
0.0289911
0.00727446
-0.0370107
-0.106979
-0.212182
-0.489821
-0.639196
-0.413855
0.166521
0.445554
0.139407
-0.090685
-0.0895638
-0.100031
-0.157318
-0.207564
-0.200335
-0.172609
-0.108264
-0.0479623
-0.0554097
-0.0614497
-0.0625847
-0.0555555
-0.0488242
-0.0424194
-0.0396321
-0.0406555
-0.0151082
-0.0116816
-0.0110481
-0.00893033
0.000348359
0.00440569
-0.00294487
-0.00868732
0.000294733
0.00410892
0.00520433
-0.0133616
0.0893576
0.0284199
-0.0239386
0.159761
0.127138
-0.0219131
-0.101032
-0.266448
-0.224634
0.339982
-0.324081
-0.154316
-0.213941
-0.0981169
-0.199323
-0.278481
-0.172933
-0.158272
-0.140798
-0.114974
-0.0914993
-0.0780056
-0.0790588
-0.0756266
-0.0649891
-0.0601502
-0.0579855
-0.0636049
-0.0276259
-0.0333452
-0.0301145
-0.025321
-0.0127064
-0.00681954
-0.00865471
-0.0180017
0.0119523
0.0294181
0.0337806
0.0950577
0.0608829
0.0316539
0.424784
0.345228
0.191935
0.340629
0.591449
0.474473
0.209993
-1.47255
-0.81352
-0.381218
-0.416874
-0.377181
-0.00629042
-0.206465
-0.259204
-0.164181
-0.15702
-0.129281
-0.0915051
-0.0877451
-0.0887523
-0.0819302
-0.069842
-0.063168
-0.0601762
-0.0732484
-0.0444217
-0.0385222
-0.0293241
-0.0247061
-0.0243794
-0.0189106
0.00329247
0.0142126
0.00156309
0.0591548
0.129413
0.143121
0.232143
0.0221681
0.589464
0.594013
0.444787
0.511412
-0.412701
2.13381
0.0354756
-2.14055
1.43496
0.228079
-0.295991
-0.0833822
0.00107641
-0.387638
-0.189541
-0.201723
-0.127544
-0.0765139
-0.0991912
-0.105444
-0.0839809
-0.081937
-0.0840542
-0.0829925
-0.0789391
-0.0794641
-0.0363917
-0.0315498
-0.0326207
-0.0366876
-0.0401552
-0.0249956
-0.00241978
0.0391995
0.0424218
0.0573557
0.122825
0.166128
0.118584
0.255086
0.495378
0.426476
0.367785
1.57681
-0.0157055
-0.138948
0.371053
0.156407
0.0127812
-0.263571
0.0934436
-0.210879
-0.211671
-0.130719
-0.132044
-0.109983
-0.0905048
-0.12729
-0.122385
-0.0913237
-0.0794931
-0.0801752
-0.0855465
-0.0905299
-0.092667
-0.0853926
-0.0413355
-0.0414603
-0.0356293
-0.0349092
-0.0346795
-0.0324662
-0.0273806
-0.000760062
0.0338219
0.0510852
0.0710662
0.33911
-0.00154735
0.0346451
0.227524
0.143004
0.57984
-0.897399
0.424156
0.319125
-0.0166334
-0.289596
0.4004
0.706096
-0.475233
-0.0680885
0.0330891
-0.211745
-0.0529853
-0.0743872
-0.11147
-0.124785
-0.108942
-0.0815721
-0.0807361
-0.0943577
-0.0965622
-0.0991359
-0.0965724
-0.0942922
-0.0482617
-0.053952
-0.0545145
-0.0495771
-0.0397786
-0.0331122
-0.0310383
-0.0301864
-0.0106422
0.0237209
0.0464067
0.213186
0.0578354
0.107738
0.150812
0.125626
0.132682
1.55558
-0.603727
-0.249016
-0.0627706
0.22903
-1.18298
-1.19538
0.450939
-0.0189101
-0.115878
-0.0533735
-0.155535
-0.0306955
-0.0737566
-0.0767883
-0.0732792
-0.0901477
-0.0982161
-0.100853
-0.0950879
-0.0919241
-0.0916581
-0.0959106
-0.0679035
-0.0610183
-0.0599269
-0.0617036
-0.061493
-0.0560928
-0.0468642
-0.0387463
-0.0271894
-0.0125683
0.00957673
0.116498
0.267197
0.342274
-0.303109
0.26908
0.184367
-1.58448
0.223931
2.07241
-0.164347
-1.5356
1.01129
1.14196
-1.43532
0.288687
-0.447873
-0.332093
-0.118891
-0.0946633
-0.0724551
-0.0725756
-0.0822576
-0.089432
-0.0890535
-0.0901873
-0.0915749
-0.0929043
-0.0942324
-0.0910291
-0.0809626
-0.0838143
-0.0781917
-0.0724899
-0.0646934
-0.0783475
-0.0731213
-0.0688513
-0.0631456
-0.0531151
-0.0188625
-0.190368
-0.261511
-0.048375
0.940085
0.400782
0.694419
-0.738911
2.43877
7.61606
-8.22633
-1.87189
-0.301543
-1.49293
-1.01546
-2.22212
-0.124197
0.32409
0.134893
-0.0861997
-0.0796159
-0.0878917
-0.0896053
-0.0881859
-0.0888479
-0.0937716
-0.0966201
-0.0977132
-0.0917516
-0.0876285
-0.0915993
-0.0979249
-0.10097
-0.0984676
-0.0945746
-0.0899513
-0.0965973
-0.109378
-0.130769
-0.132466
-0.15144
-0.188947
-0.119842
-0.212402
-1.05117
-1.022
0.378354
0.941303
-0.986595
-3.16685
3.46383
0.940177
-1.88497
-2.04641
0.0173181
0.633797
-0.11542
-0.125402
-0.081715
-0.0769733
-0.0734134
-0.0720935
-0.086728
-0.0926528
-0.0979309
-0.0943125
-0.0896504
-0.085914
-0.0867331
-0.0966803
-0.105982
-0.101682
-0.106236
-0.111681
-0.117463
-0.122791
-0.132511
-0.144504
-0.166366
-0.200441
-0.255998
-0.300359
-0.33953
-0.42977
0.362174
0.255271
-0.318325
-2.06604
-1.85436
-1.42637
1.0911
1.23804
1.40451
0.0439368
-0.542777
-1.31837
-0.298715
-0.0499756
-0.0397818
-0.0612581
-0.0591779
-0.0674004
-0.0981755
-0.0950308
-0.0929857
-0.0930844
-0.094072
-0.0963534
-0.100363
-0.0947615
-0.124529
-0.12337
-0.124597
-0.127562
-0.134379
-0.145455
-0.159269
-0.180224
-0.206836
-0.238416
-0.287645
-0.261143
-0.386685
-0.4826
-1.25243
-1.16329
-0.73047
-0.314686
1.0599
0.984763
2.0939
0.724536
-0.908336
-0.927609
-0.499993
0.148473
-0.0266931
-0.212312
-0.150655
-0.127614
-0.107696
-0.100122
-0.0968823
-0.0986276
-0.100214
-0.0996393
-0.0990795
-0.0994113
-0.0965272
-0.0949604
-0.142946
-0.142326
-0.146523
-0.149856
-0.156556
-0.166387
-0.17956
-0.198373
-0.216835
-0.257772
-0.304359
-0.354504
-0.477472
-0.324304
-0.0268386
-0.651663
-1.12266
-1.8496
0.998808
0.950304
0.924706
1.49972
0.965102
1.23183
-0.150203
-0.692571
-0.627197
-0.200045
-0.179384
-0.159996
-0.156302
-0.10916
-0.105117
-0.108002
-0.102948
-0.0960595
-0.0960612
-0.0907066
-0.0888473
-0.0894959
-0.150983
-0.148525
-0.151667
-0.158234
-0.161586
-0.172758
-0.185736
-0.208734
-0.224312
-0.24266
-0.264472
-0.325496
-0.257912
-0.711398
-0.790149
-0.489909
-0.287986
0.0586894
0.978116
0.242782
1.42891
0.856197
0.0991936
-0.128532
-0.243759
0.0228548
0.146737
-0.212297
-0.12923
-0.172587
-0.160679
-0.145285
-0.126206
-0.117383
-0.11255
-0.0954634
-0.0895568
-0.0898378
-0.0892092
-0.085102
-0.141932
-0.152408
-0.154866
-0.157816
-0.169984
-0.186499
-0.200612
-0.212666
-0.234909
-0.244523
-0.21763
-0.32418
-0.290905
-0.00379172
-0.0080126
-0.106148
-1.06447
-0.68622
0.609745
1.98389
-0.261718
0.395083
0.914271
1.03852
0.0707063
-0.144026
-0.269353
-0.0477487
-0.0314662
-0.23067
-0.128493
-0.152722
-0.129281
-0.108518
-0.104742
-0.0980957
-0.0920683
-0.0870468
-0.0838161
-0.0903199
-0.16084
-0.145386
-0.151587
-0.160525
-0.173094
-0.189391
-0.207798
-0.201123
-0.246077
-0.285972
-0.359638
-0.236458
-0.186405
-0.417404
-0.737174
-0.593374
-0.158108
-0.311436
2.09886
1.79025
-0.255063
-0.37909
0.998815
0.625
0.626606
0.463788
0.0359376
-0.17127
-0.145364
0.0132923
-0.0602699
-0.0996799
-0.120379
-0.0928064
-0.0900148
-0.0869696
-0.085078
-0.0853402
-0.0864507
-0.0679547
-0.157637
-0.161803
-0.163462
-0.166413
-0.171918
-0.180032
-0.187185
-0.191858
-0.204041
-0.227202
-0.256237
-0.303257
-0.38158
-0.0984405
0.138969
-0.0726606
-0.436331
-0.423339
-0.0301956
-0.207083
1.61884
1.21991
1.10185
0.772808
0.175123
0.0126803
0.256639
0.111318
-0.063339
-0.0795736
-0.114814
-0.110575
-0.0964358
-0.0882045
-0.080093
-0.07494
-0.0721631
-0.0689797
-0.0663108
-0.0724477
-0.154516
-0.155939
-0.159954
-0.162255
-0.165881
-0.168423
-0.162229
-0.161962
-0.170296
-0.207377
-0.240731
-0.125072
-0.0202605
-0.184091
-0.304437
-0.123884
0.651089
0.728815
0.355962
0.88631
-0.383051
0.231759
0.344325
0.322248
0.485332
0.404123
0.0145164
-0.232379
-0.145618
-0.0882864
-0.0672892
-0.0608168
-0.066778
-0.0710906
-0.0656689
-0.062677
-0.0635597
-0.063536
-0.0648392
-0.0563585
-0.135818
-0.144203
-0.146201
-0.147082
-0.146918
-0.145221
-0.140547
-0.13099
-0.115057
-0.163807
-0.143661
-0.119535
-0.0632924
0.213121
0.381233
0.304412
0.288718
0.545728
-0.42129
-0.698103
0.221814
0.35675
0.328385
0.217532
-0.0165516
-0.146274
0.00911159
0.082822
-0.0469143
-0.117903
-0.0619235
-0.0477816
-0.053636
-0.0553092
-0.0556088
-0.0561227
-0.055697
-0.0551005
-0.0543683
-0.0538685
-0.128202
-0.127364
-0.126784
-0.127397
-0.128619
-0.12751
-0.11775
-0.106013
-0.0952333
-0.0950973
-0.0391277
0.0507213
0.164469
0.0768909
0.124209
0.446365
0.590381
0.344645
0.195638
0.462952
-0.336735
-0.315371
-0.0541581
-0.11508
0.0657734
0.142298
-0.0374984
-0.155665
-0.13367
-0.0719633
-0.0332062
-0.036653
-0.0468207
-0.047133
-0.0421822
-0.0477821
-0.0526025
-0.0535082
-0.0556965
-0.050856
-0.120451
-0.118125
-0.119289
-0.119868
-0.118847
-0.114609
-0.106681
-0.0942821
-0.0344109
0.022095
0.0567621
0.0336885
0.151326
0.349911
0.436687
0.447117
-0.068398
0.00351173
-0.0775633
-0.79281
1.10312
0.367554
0.155007
0.271482
-0.110656
-0.111269
-0.15307
-0.0248027
-0.0221416
-0.0652864
-0.100426
-0.0630385
-0.0427703
-0.0255032
-0.0294521
-0.03471
-0.0392083
-0.0405094
-0.0422238
-0.0407668
-0.118274
-0.119813
-0.117272
-0.113272
-0.111017
-0.103074
-0.0849433
-0.074017
-0.0377352
0.00536935
0.0529416
0.209274
0.347872
0.29728
0.42367
0.456341
0.326991
0.142853
0.559862
0.832121
-0.0986465
-0.0127372
-0.169057
-0.204706
-0.0807351
0.00768251
-0.083517
-0.264594
-0.196145
-0.0619466
-0.0710621
-0.04317
-0.0212762
-0.0111824
-0.0179553
-0.024791
-0.0280592
-0.0301232
-0.0318654
-0.0340678
-0.0987904
-0.105531
-0.105859
-0.106897
-0.101872
-0.094895
-0.0811146
-0.0667848
-0.0417671
-0.0297985
0.02762
0.0321339
0.0327284
0.235494
0.452003
0.42038
0.375451
0.473847
0.85277
0.697933
0.26884
0.0725459
-0.419344
-0.390824
-0.131845
-0.234478
-0.0936559
0.166371
0.101963
0.012361
-0.00513093
-0.0238481
-0.0157642
-0.0231089
-0.0228085
-0.0279444
-0.0298887
-0.0379114
-0.0391552
-0.043509
-0.0980742
-0.0937516
-0.0921318
-0.0890587
-0.08783
-0.0802992
-0.0739996
-0.0641003
-0.0629255
-0.0305268
0.00823669
0.117727
0.207429
0.218667
0.184843
0.325632
-0.0386642
0.0379118
0.173682
0.456501
0.215019
0.175713
-0.153891
-0.350583
-0.241699
0.078814
0.0922669
0.0146744
-0.0175554
0.0435317
0.00820734
-0.0162206
-0.0265598
-0.0326109
-0.038121
-0.0357003
-0.0391493
-0.0428126
-0.0433855
-0.0439528
-0.0898051
-0.0851125
-0.0855726
-0.0871027
-0.0868023
-0.0868308
-0.0851453
-0.0849649
-0.080906
-0.0841737
-0.0802656
-0.104785
-0.121722
-0.0789169
-0.0281691
-0.159071
-0.361233
-0.686528
0.836145
1.0482
0.564715
0.781361
-0.223861
-0.02543
-0.248288
-0.04297
0.130727
0.214762
0.177183
0.0793192
0.0345326
-0.0255758
-0.0295216
-0.0314203
-0.0355831
-0.0367479
-0.0379455
-0.0454218
-0.0430916
-0.0455564
-0.0894099
-0.0899383
-0.0897296
-0.089187
-0.086721
-0.0892505
-0.0934649
-0.0915012
-0.103063
-0.131385
-0.158248
-0.0914859
-0.0789183
-0.204582
-0.380025
-0.494813
-0.549382
-0.573816
-0.401604
-0.0705695
1.08401
1.06242
0.685605
0.554513
0.458595
0.461179
0.244888
0.0813314
-0.0205329
0.0427521
0.0547459
0.0154284
-0.00849262
-0.0222314
-0.0295413
-0.0332795
-0.0354598
-0.0339349
-0.0352333
-0.0358593
-0.088327
-0.0927038
-0.0936141
-0.092153
-0.0922738
-0.0927871
-0.0948871
-0.103452
-0.10804
-0.156626
-0.163074
-0.274905
-0.369193
-0.371127
-0.36732
-0.340271
-0.21295
0.0112781
0.433156
0.312038
0.286486
0.336742
0.276158
0.305475
0.137235
0.0914557
0.123126
0.122444
0.134869
0.034733
0.05103
0.0259735
-0.00191205
-0.0229907
-0.0283153
-0.0308402
-0.0315929
-0.0345969
-0.0381226
-0.0368527
-0.0800491
-0.080281
-0.0863039
-0.078253
-0.0858186
-0.0991855
-0.0981246
-0.115549
-0.142993
-0.160001
-0.219577
-0.209819
-0.331166
-0.490477
-0.733665
-0.73749
-0.357416
-0.244661
0.309817
0.840239
-0.163714
0.0490931
0.28877
0.422585
0.376894
0.415468
0.290928
0.137157
0.0294731
0.0308653
0.0143403
0.0140767
-0.00388897
-0.0221954
-0.0367291
-0.0455783
-0.0396044
-0.0381955
-0.0419989
-0.0438649
-0.0635932
-0.0654649
-0.0651672
-0.0658294
-0.0684947
-0.0825998
-0.0895778
-0.10633
-0.174073
-0.216967
-0.30101
-0.42922
-0.536918
-0.590891
-0.648368
-0.729044
-0.458594
-0.316289
0.236686
0.592481
-0.400836
-0.101042
0.143167
0.212649
0.355038
0.249313
0.176455
0.146092
0.0961456
0.0287335
0.0340993
0.0281822
-0.0194216
-0.0313284
-0.053423
-0.0570933
-0.0599332
-0.0623559
-0.0639136
-0.0645406
-0.0631607
-0.0617414
-0.0619393
-0.0618496
-0.0647703
-0.0734958
-0.0833487
-0.109122
-0.161536
-0.220812
-0.289236
-0.37709
-0.434254
-0.715632
-0.993169
-1.14082
-1.16291
-1.07931
-0.982704
-0.822072
0.494339
0.53695
0.315735
0.389315
0.346064
0.258402
0.0950882
-0.0160587
0.0430159
0.049563
0.00810017
-0.00401662
-0.0366517
-0.0454031
-0.0576341
-0.0653445
-0.0691717
-0.0673087
-0.0662091
-0.0652628
-0.0510123
-0.0550231
-0.0566004
-0.0585058
-0.0614778
-0.0664679
-0.0693222
-0.0930418
-0.11522
-0.185338
-0.229548
-0.404258
-0.505036
-0.560762
-0.48028
-0.547176
-0.626444
-0.688424
-0.669761
-0.392115
-0.622206
-0.318194
-0.191806
-0.261731
-0.233796
-0.217228
-0.12171
-0.0630168
-0.13708
-0.0990592
-0.0429931
-0.0223093
-0.0419358
-0.0557215
-0.063006
-0.0670106
-0.0697365
-0.0717611
-0.0747727
-0.070895
-0.0397925
-0.0364447
-0.038299
-0.0396754
-0.0431964
-0.0498083
-0.0538113
-0.0632077
-0.113595
-0.169573
-0.211274
-0.250732
-0.332161
-0.398843
-0.484
-0.439102
-0.718627
-0.540587
-0.73871
-0.622809
-0.403606
-0.28335
-0.246262
-0.209719
-0.0969754
-0.138438
-0.180928
-0.182911
-0.135577
-0.062374
-0.0560244
-0.0893112
-0.0855543
-0.0885985
-0.0879872
-0.087074
-0.0857943
-0.0837102
-0.0825414
-0.0902366
-0.0221509
-0.0187514
-0.0169746
-0.0175482
-0.0202653
-0.0264832
-0.0356965
-0.0475343
-0.0776262
-0.123007
-0.144492
-0.239452
-0.352627
-0.364988
-0.348717
-0.308757
-0.32681
-0.407852
-0.271113
-0.0650233
-0.372234
-0.289508
-0.162726
-0.309506
-0.267726
-0.227707
-0.162416
-0.151511
-0.187602
-0.192491
-0.123403
-0.116164
-0.116386
-0.114882
-0.110077
-0.107079
-0.106812
-0.11046
-0.11009
-0.106226
-0.00932789
-0.00512013
-0.00464009
-0.00668129
-0.0127972
-0.0199541
-0.0302483
-0.0343263
-0.053833
-0.0802468
-0.127935
-0.212102
-0.295355
-0.428173
-0.52651
-0.55802
-0.625103
-0.495568
-0.404412
-0.463722
0.420363
0.126612
-0.114197
0.0799991
0.0155209
-0.0678306
-0.142263
-0.207426
-0.19786
-0.184489
-0.198042
-0.171668
-0.147098
-0.142334
-0.12685
-0.127186
-0.123901
-0.122622
-0.119568
-0.113337
0.00663772
0.000870716
4.73748e-05
-0.0019746
-0.00498573
-0.0100534
-0.0237779
-0.0229239
-0.0411084
-0.0454733
-0.090717
-0.180212
-0.186764
-0.210731
-0.253556
-0.270661
-0.29025
-0.352391
-0.270905
-0.105666
-0.00571325
0.124087
-0.00917735
-0.125956
-0.149648
-0.211373
-0.238733
-0.232718
-0.271866
-0.288421
-0.223024
-0.193938
-0.17623
-0.160214
-0.143335
-0.133985
-0.12704
-0.120143
-0.118414
-0.119741
0.017469
0.00861114
0.00662201
0.00764822
0.00757375
0.00702637
0.00601792
-0.00342663
0.00135192
-0.0455815
-0.107915
-0.100486
-0.0821698
-0.0880212
-0.0259589
0.0148177
0.0220109
0.151452
0.250545
0.163369
-0.226536
-0.391223
-0.435661
-0.368507
-0.339799
-0.342308
-0.344705
-0.353727
-0.268539
-0.181997
-0.184407
-0.206282
-0.193133
-0.166832
-0.148093
-0.140027
-0.132435
-0.12671
-0.123971
-0.124736
0.0342447
0.0405839
0.0388059
0.0371665
0.0366807
0.033989
0.0343509
0.0328174
0.0373142
0.0535697
0.0836766
0.0533131
-0.012189
-0.0107028
0.0709997
0.155189
0.282238
0.23221
0.0729703
0.0434806
-0.168982
-0.278103
-0.433887
-0.562394
-0.525901
-0.459617
-0.369328
-0.307734
-0.274051
-0.26932
-0.242815
-0.208364
-0.19589
-0.174946
-0.160009
-0.149683
-0.141184
-0.135643
-0.133231
-0.1289
0.0649512
0.068236
0.0728894
0.070452
0.0715647
0.0714198
0.0714079
0.0703642
0.0761061
0.0812619
0.0831921
0.116728
0.162407
0.141104
0.208079
0.16529
0.303453
0.322548
0.338222
0.503907
-0.082938
-0.13547
-0.188985
-0.126514
-0.215015
-0.280639
-0.298237
-0.293942
-0.274474
-0.221773
-0.20619
-0.192564
-0.188425
-0.17497
-0.160274
-0.150348
-0.145033
-0.13652
-0.131481
-0.124695
0.0714884
0.079255
0.08098
0.086084
0.0909621
0.0972484
0.100719
0.112506
0.126533
0.163481
0.234721
0.295229
0.337642
0.345784
0.451379
0.411376
0.301504
0.130348
0.0784406
0.269732
0.643745
0.673981
0.441548
0.184899
0.0109505
-0.084432
-0.1638
-0.20158
-0.252434
-0.287331
-0.20753
-0.168563
-0.160496
-0.150367
-0.13984
-0.130738
-0.126983
-0.123114
-0.122254
-0.115527
0.0801601
0.0749486
0.0790101
0.0861893
0.0951828
0.10768
0.128518
0.155791
0.190043
0.237949
0.30593
0.428503
0.581146
0.748025
0.96649
1.05975
1.06714
1.09119
1.04822
0.715468
0.0865029
-0.122711
-0.165797
-0.282095
-0.387836
-0.418113
-0.432847
-0.362897
-0.287453
-0.230386
-0.176873
-0.156636
-0.136793
-0.130434
-0.123651
-0.114569
-0.111294
-0.108514
-0.109998
-0.114987
0.0947059
0.0917166
0.0924019
0.100738
0.110614
0.12315
0.153408
0.181611
0.233431
0.343549
0.387147
0.530216
0.650665
0.852671
1.02068
1.16379
1.19142
1.01305
0.767077
0.38734
0.101951
-0.127369
-0.441521
-0.598448
-0.529633
-0.46277
-0.392821
-0.284126
-0.231145
-0.2542
-0.224348
-0.121802
-0.140083
-0.119183
-0.118927
-0.112988
-0.109245
-0.10604
-0.104459
-0.109375
0.110392
0.111415
0.116831
0.125512
0.131601
0.149855
0.175167
0.205233
0.248389
0.302907
0.3614
0.516112
0.647083
0.8079
0.86321
0.923504
0.816733
0.705547
0.494204
-0.015337
-0.300076
-0.554427
-0.645566
-0.595992
-0.550255
-0.495175
-0.329744
-0.282402
-0.234961
-0.179741
-0.136176
-0.120989
-0.112015
-0.108174
-0.112679
-0.114468
-0.113164
-0.1127
-0.111094
-0.114298
0.106562
0.111656
0.11662
0.125779
0.138489
0.156836
0.179102
0.212916
0.258189
0.308577
0.391878
0.444047
0.462334
0.481903
0.440528
0.386555
0.175882
0.0424148
-0.371607
-0.486243
-0.367275
-0.404114
-0.413448
-0.44487
-0.350683
-0.295582
-0.224584
-0.176971
-0.156131
-0.114327
-0.0985358
-0.103377
-0.0856031
-0.0918945
-0.0989749
-0.104614
-0.10616
-0.104495
-0.103197
-0.0956942
0.0996264
0.0988485
0.102435
0.108899
0.120325
0.138545
0.162857
0.196811
0.249548
0.280777
0.346656
0.432664
0.539566
0.633523
0.677962
0.694869
0.540013
0.35749
0.0177903
-0.488551
-0.664468
-0.8203
-0.764609
-0.629645
-0.613578
-0.534624
-0.39044
-0.251605
-0.14865
-0.0919751
-0.0911659
-0.0764691
-0.0565685
-0.0641324
-0.0716724
-0.0754836
-0.0786681
-0.0808752
-0.0821387
-0.0872324
0.091851
0.0924075
0.0920068
0.0956322
0.104152
0.120247
0.147148
0.174822
0.229809
0.267187
0.342269
0.37856
0.49138
0.62501
0.737583
0.735513
0.803068
0.488577
0.292823
-0.335529
-0.500876
-0.584848
-0.567256
-0.512347
-0.408096
-0.277429
-0.180046
-0.100226
-0.0666087
-0.0376046
-0.0132769
-0.0332816
-0.043594
-0.0606644
-0.058788
-0.0622719
-0.0635228
-0.063946
-0.0658764
-0.0743205
0.0884949
0.0895018
0.0937029
0.098148
0.105496
0.113453
0.129715
0.148229
0.169488
0.19191
0.226793
0.264111
0.34633
0.414385
0.479875
0.507256
0.449075
0.34198
0.256597
-0.152513
-0.040677
0.171771
0.135495
0.00272132
-0.0511486
-0.0234388
0.00866362
0.0411845
0.0485217
0.0235085
0.000763925
-0.0178913
-0.0442466
-0.0516434
-0.0560786
-0.0650401
-0.0701141
-0.0733047
-0.0761596
-0.0770509
0.0752578
0.0804907
0.0841085
0.0865246
0.0868878
0.0875039
0.0901216
0.0928232
0.0916836
0.0862444
0.064603
0.0139497
-0.038023
-0.0858854
-0.142186
-0.227604
-0.211937
-0.152005
-0.024412
0.0658729
0.215183
0.562941
0.644275
0.407725
0.514594
0.43568
0.350158
0.237598
0.150867
0.0886438
0.0269323
-0.0104727
-0.037325
-0.0531488
-0.0668654
-0.0748051
-0.0812287
-0.0825325
-0.082381
-0.0779485
0.0589335
0.0592505
0.0583523
0.0530064
0.0458745
0.0376668
0.033639
0.016474
-0.00304644
-0.0177256
-0.0464157
-0.103324
-0.140482
-0.199918
-0.289318
-0.462291
-0.555928
-0.447372
-0.316992
0.0806137
0.371002
0.583245
0.640957
0.551671
0.457093
0.369084
0.28285
0.225462
0.155945
0.0638109
0.00745841
-0.00778367
-0.0338037
-0.0476935
-0.0579032
-0.0636997
-0.0726208
-0.0727744
-0.0717779
-0.0725089
0.0322486
0.028379
0.0226836
0.0181427
0.0110098
0.000402171
-0.00980796
-0.0327166
-0.0484378
-0.0953374
-0.120224
-0.160083
-0.185115
-0.215226
-0.262766
-0.285356
-0.20314
-0.120965
0.139619
0.0846675
0.0402765
0.0126174
0.0248301
0.0555129
0.0735386
0.103141
0.114752
0.0932236
0.0543051
0.046771
0.0256639
-0.00837393
-0.0343642
-0.0456106
-0.0522773
-0.0556372
-0.058022
-0.059097
-0.0617504
-0.0623781
0.0316972
0.0260855
0.0209247
0.0128172
0.00329119
-0.0100643
-0.0287065
-0.0388128
-0.0475004
-0.081629
-0.15587
-0.250444
-0.302306
-0.358136
-0.357752
-0.334871
-0.211526
-0.294
-0.262323
-0.11767
0.0903366
0.197434
0.201611
0.153524
0.0558855
0.0506002
0.0297301
0.0176346
0.0160317
-0.010724
-0.0444048
-0.0548826
-0.0595751
-0.0611129
-0.0587372
-0.0609428
-0.0632346
-0.0651789
-0.0667205
-0.067809
0.04043
0.0434817
0.0417361
0.0342234
0.0224663
0.0070618
-0.0133973
-0.0369656
-0.0759423
-0.139211
-0.202934
-0.290022
-0.402128
-0.480919
-0.526787
-0.495544
-0.396095
-0.219942
-0.0433694
0.0891215
0.277974
0.279177
0.389971
0.419014
0.393253
0.31704
0.226396
0.119894
0.0248127
-0.0264369
-0.043676
-0.0603144
-0.0793038
-0.0780821
-0.0755905
-0.0756092
-0.0783959
-0.0777618
-0.0763469
-0.0732893
0.0394271
0.0493752
0.048262
0.0407281
0.0284546
0.0139587
-0.0085503
-0.0308177
-0.0468023
-0.0967052
-0.144327
-0.227456
-0.299741
-0.369929
-0.430369
-0.441758
-0.414467
-0.267232
-0.0580536
0.295442
0.562287
0.793087
0.813124
0.682546
0.521797
0.383975
0.255098
0.135522
0.0361699
-0.025835
-0.0682192
-0.0821571
-0.0816889
-0.0809165
-0.0772805
-0.0771488
-0.0777862
-0.0813579
-0.0802131
-0.0767761
0.0348408
0.0309786
0.0296808
0.0268228
0.0212889
0.0137714
-8.75292e-06
-0.0196607
-0.0308383
-0.0566523
-0.0680726
-0.0612161
-0.00760362
0.0706071
0.150745
0.263675
0.372095
0.50887
0.633749
0.48228
0.427548
0.275035
0.11915
0.0264967
0.0332308
-0.0459365
-0.0770304
-0.0981903
-0.113126
-0.0945189
-0.0765859
-0.076647
-0.0824429
-0.0797616
-0.0758695
-0.0726462
-0.0700323
-0.0704689
-0.0722551
-0.0751986
0.0392488
0.0346788
0.030293
0.027459
0.0237272
0.0239191
0.0137036
0.0128246
0.0255121
0.0426039
0.0364784
0.0675919
0.143694
0.252391
0.273066
0.365152
0.488322
0.555277
0.531187
0.411483
0.267355
0.108111
-0.148968
-0.234547
-0.231851
-0.234278
-0.221735
-0.190082
-0.14726
-0.140141
-0.159086
-0.126924
-0.107334
-0.099814
-0.0929286
-0.081153
-0.0747441
-0.0712691
-0.0705327
-0.0721282
0.0600237
0.0571912
0.0571383
0.057805
0.0576116
0.0577816
0.0547864
0.0519712
0.0496273
0.05819
0.0878593
0.104951
0.109473
0.117272
0.116487
0.0904378
0.103225
0.114163
0.118148
0.079362
-0.000183679
-0.09261
-0.165632
-0.189345
-0.204333
-0.198796
-0.18877
-0.160267
-0.161408
-0.161512
-0.136942
-0.112709
-0.109115
-0.118797
-0.106641
-0.0971831
-0.0909339
-0.0851517
-0.0811956
-0.077128
0.0765449
0.0798738
0.0825598
0.0842055
0.0856334
0.0847024
0.0864103
0.0867399
0.0866388
0.0954741
0.0752595
0.0143815
-0.0535236
-0.130793
-0.179376
-0.216636
-0.347341
-0.230695
-0.188246
-0.122322
-0.145891
-0.166899
-0.107063
0.00971028
-0.0239355
-0.0258721
-0.062946
-0.0690083
-0.0909546
-0.11742
-0.115637
-0.119974
-0.108646
-0.105979
-0.102558
-0.0967404
-0.094974
-0.0917065
-0.0887839
-0.0787886
0.0801844
0.0835294
0.0856219
0.0873517
0.0892889
0.0908706
0.0939454
0.0995079
0.0954299
0.101256
0.1114
0.135224
0.145063
0.154131
0.208753
0.173376
0.0497724
-0.0705598
-0.179525
-0.142954
-0.127651
-0.178215
-0.142971
-0.169792
-0.207212
-0.233116
-0.22782
-0.206924
-0.174207
-0.13639
-0.118459
-0.103169
-0.088095
-0.0853215
-0.0824759
-0.0771883
-0.0729268
-0.0684868
-0.0653463
-0.0689273
0.0808894
0.0771165
0.0779388
0.0821545
0.0876681
0.0911019
0.102823
0.119163
0.142367
0.166432
0.204703
0.257215
0.331207
0.394292
0.449746
0.507371
0.469939
0.400328
0.278746
0.141498
-0.0513299
-0.264167
-0.362111
-0.381938
-0.277537
-0.247182
-0.162267
-0.137942
-0.134697
-0.121541
-0.0999249
-0.0788088
-0.070683
-0.0702554
-0.062838
-0.0530161
-0.0487855
-0.0455407
-0.047409
-0.0521746
0.088259
0.0860836
0.0880263
0.0934125
0.100845
0.109493
0.124131
0.144092
0.17187
0.207311
0.250401
0.307152
0.368029
0.406897
0.416281
0.361812
0.322398
0.186204
0.163251