/*--------------------------------*- C++ -*----------------------------------*\
| =========                 |                                                 |
| \\      /  F ield         | OpenFOAM: The Open Source CFD Toolbox           |
|  \\    /   O peration     | Version:  v2106                                 |
|   \\  /    A nd           | Website:  www.openfoam.com                      |
|    \\/     M anipulation  |                                                 |
\*---------------------------------------------------------------------------*/
FoamFile
{
    version     2.0;
    format      ascii;
    arch        "LSB;label=32;scalar=64";
    class       volVectorField;
    location    "0";
    object      U;
}
// * * * * * * * * * * * * * * * * * * * * * * * * * * * * * * * * * * * * * //

dimensions      [0 1 -1 0 0 0 0];

internalField   nonuniform List<vector> 
11644
(
(-0.000285754 -0.000114931 -5.20872e-21)
(-0.00031158 -0.00028329 -1.43641e-20)
(-0.000305422 -0.000422071 -7.70669e-21)
(-0.000147821 -0.000464863 0)
(-0.000146412 -0.000686008 0)
(-0.000262607 -0.00088786 0)
(-0.000345755 -0.000971148 0)
(-0.000253158 -0.00111277 0)
(-0.000198422 -0.00119789 0)
(-0.000183634 -0.00113072 0)
(-0.000507816 -0.00088643 0)
(-0.000625719 -0.000480222 0)
(-0.000633488 0.000278937 0)
(-0.000983459 0.000965849 0)
(-0.000412741 0.0018219 0)
(-0.000667131 0.00167282 0)
(-0.00233061 0.00301452 0)
(-0.00293281 0.00468592 0)
(0.000583774 0.00445441 0)
(0.00195432 0.000853512 -8.34312e-31)
(0.00254249 -0.00277024 4.60667e-31)
(-0.000692656 -0.00369656 0)
(-0.00219105 -0.00290911 0)
(-0.00272457 -0.00182742 0)
(-0.0018159 -0.00155227 0)
(-0.00114677 -0.000808481 0)
(-0.000799124 -1.58951e-05 0)
(-0.000477968 0.000640606 0)
(-0.000254489 0.000902153 0)
(-0.00023298 0.00133192 0)
(-0.000362003 0.00162823 0)
(-0.000310291 0.0017957 0)
(-0.000321473 0.00186626 0)
(-0.000264834 0.00176453 0)
(-0.000297704 0.00153162 0)
(-0.000259358 0.00131095 0)
(-0.000258871 0.00105016 0)
(-0.000159947 0.000825454 0)
(-9.61867e-05 0.000544157 0)
(-0.000136695 0.000216165 -1.00992e-21)
(-4.43856e-05 -0.000182641 -6.69056e-21)
(3.05027e-05 -0.000440029 -6.1976e-21)
(7.54496e-05 -0.00074842 -3.32854e-21)
(0.000162133 -0.001065 0)
(0.000162939 -0.00133366 0)
(0.000304599 -0.00155976 0)
(0.000442856 -0.00197612 0)
(0.000489606 -0.00216274 0)
(0.00044853 -0.0021418 0)
(0.000476927 -0.00183318 0)
(0.000699383 -0.00133693 0)
(0.000340147 -0.000391991 0)
(0.000132806 0.000443063 0)
(-0.000113562 0.00203231 0)
(-0.000984317 0.00350481 0)
(-0.00290341 0.00527195 3.35512e-22)
(-0.00389139 0.00646453 3.04261e-21)
(-0.00116266 0.00524545 1.18847e-20)
(-0.000336026 0.00189732 9.19647e-21)
(0.00132825 -0.000893044 1.04265e-19)
(-0.00284035 -0.00122742 -1.17877e-19)
(-0.00138589 -4.94721e-05 -1.18974e-20)
(-0.00163775 -5.69848e-05 4.5646e-21)
(-0.00163659 -0.00122499 -2.67307e-21)
(-0.00195819 -0.00102316 -6.11737e-22)
(-0.00190459 0.000137476 0)
(-0.00145245 0.00173546 0)
(-0.000643667 0.00297273 0)
(-0.000382944 0.00440545 0)
(-3.96248e-05 0.00513553 0)
(0.000245035 0.00533392 0)
(0.000301979 0.00528165 0)
(0.000504223 0.0048981 0)
(0.000523947 0.00440823 0)
(0.000564186 0.00388965 0)
(0.000679883 0.00318788 0)
(0.000614499 0.00255603 0)
(0.000774988 0.00180289 0)
(0.000725005 0.00112205 0)
(0.000588459 0.000375892 0)
(-0.0002761 7.75575e-05 0)
(-6.21053e-05 -0.00019815 0)
(0.000276985 -0.000463472 0)
(0.000399814 -0.000930612 0)
(0.000473996 -0.00116446 -6.1117e-21)
(0.000653071 -0.0013967 0)
(0.000899613 -0.00160064 0)
(0.00102505 -0.00169825 0)
(0.00105255 -0.00165172 0)
(0.000936078 -0.00142208 0)
(0.000661267 -0.000634948 0)
(3.99775e-05 0.000621104 0)
(-0.0010995 0.0027729 -1.06952e-21)
(-0.00281875 0.00483016 -1.83135e-20)
(-0.00385187 0.0075048 -7.48248e-20)
(-0.0041527 0.0103475 2.0736e-19)
(-0.00220322 0.00963382 -3.85328e-19)
(0.000229922 0.00697205 1.84375e-19)
(-0.000758635 0.005133 2.28493e-19)
(-0.00235845 0.00594474 -4.71826e-19)
(-0.004139 0.00615348 4.38808e-19)
(-0.0028354 0.00380739 -1.52438e-19)
(-0.00173627 0.00210115 -2.29378e-19)
(-0.00138182 0.00134321 3.80229e-19)
(-0.00214267 0.00184198 -1.87676e-19)
(-0.00240087 0.00288002 6.13191e-20)
(-0.00155682 0.0042668 1.98204e-20)
(-0.00123913 0.00616758 1.01342e-21)
(-0.000463437 0.00720543 0)
(0.00029717 0.00777353 0)
(0.00103455 0.00784513 0)
(0.00155794 0.00736645 0)
(0.00173689 0.00674044 0)
(0.0017175 0.00594546 0)
(0.00185378 0.00497406 0)
(0.00166588 0.00411903 0)
(0.00162933 0.00318939 0)
(0.00158708 0.00218283 0)
(0.00147477 0.00127332 0)
(0.00127825 0.000313334 0)
(-0.000616403 -0.000128875 0)
(-0.000445039 0.000216571 0)
(-0.000239525 -2.22946e-05 0)
(-2.01865e-05 8.1378e-05 0)
(0.000246842 6.11744e-05 0)
(0.000576328 -3.41338e-05 0)
(0.00100307 -6.28861e-05 0)
(0.00125003 -6.19167e-05 0)
(0.00149977 -4.71778e-05 0)
(0.00148417 0.00023584 0)
(0.000535897 0.00036067 8.26265e-22)
(-0.000421866 0.00123105 3.48003e-21)
(-0.00194405 0.00216601 2.38783e-20)
(-0.00183863 0.00523955 1.79678e-19)
(-0.00235405 0.00934711 -6.00432e-19)
(-0.00123866 0.0110568 5.0364e-19)
(-2.99433e-05 0.0116491 -6.44877e-20)
(0.000726274 0.0119923 -3.60191e-19)
(-0.002198 0.0136804 1.4099e-19)
(-0.00469541 0.0138995 -3.58562e-19)
(-0.00432179 0.00980219 5.13656e-19)
(-0.00309608 0.00718322 -4.49134e-20)
(-0.000897263 0.00373678 7.46071e-20)
(-0.00142248 0.00246687 2.77463e-19)
(-0.00306237 0.00290032 -6.99178e-19)
(-0.00243263 0.00482304 6.17555e-19)
(-0.00128617 0.00727444 -1.59678e-19)
(0.00048425 0.00801851 -3.43744e-20)
(0.00256855 0.00827852 -1.30586e-20)
(0.00318184 0.0081218 -1.05988e-21)
(0.0032831 0.0075083 0)
(0.00358115 0.00655825 0)
(0.00365179 0.00540836 0)
(0.00342187 0.00434206 0)
(0.00320145 0.00329133 0)
(0.00278379 0.00246746 0)
(0.00261755 0.00158057 0)
(0.00232152 0.00108197 0)
(0.00221099 0.000288773 0)
(0.00198288 0.000309891 0)
(-0.00085564 0.000362793 0)
(-0.000859368 0.000232041 0)
(-0.000765208 0.000509185 0)
(-0.000664637 0.000617375 0)
(-0.000352059 0.000804111 0)
(-2.36086e-07 0.000841085 0)
(0.000355758 0.000886933 0)
(0.000741698 0.000866913 0)
(0.000982186 0.000705892 0)
(0.000858581 4.86784e-05 -1.10643e-21)
(0.00192367 -0.000350119 4.56992e-20)
(0.00261876 -0.00121905 1.22046e-19)
(0.00388125 0.000187548 -4.43862e-19)
(-0.000219887 0.00121134 6.38375e-19)
(-0.00234931 0.00533701 -1.42081e-19)
(0.00203507 0.00972522 -6.96107e-19)
(0.00128553 0.0128027 5.67348e-19)
(-0.00472246 0.0151693 4.31899e-19)
(-0.00724308 0.0159027 -3.02463e-19)
(-0.00790075 0.0147816 4.76754e-19)
(-0.00715727 0.0121477 -3.07091e-19)
(-0.00473746 0.00897751 2.85981e-19)
(-0.00291186 0.00453425 -6.11984e-19)
(-0.00138736 0.00308103 -2.17646e-19)
(0.000176316 0.00373702 3.25927e-19)
(-0.00121154 0.00545371 2.1418e-20)
(-0.000339172 0.00640603 -4.14202e-19)
(0.00339034 0.00700396 1.0897e-19)
(0.00448662 0.00699952 1.86648e-19)
(0.00654157 0.00543997 -7.96812e-20)
(0.00690639 0.0040449 2.98791e-21)
(0.00605597 0.00286555 0)
(0.00547465 0.00161152 0)
(0.00481287 0.000706581 0)
(0.00411763 0.000126566 0)
(0.00357214 -0.000373271 0)
(0.00306183 -0.000492996 0)
(0.00263944 -0.000639255 0)
(0.00217694 -0.000180159 0)
(0.00218821 -0.000414421 0)
(-0.0014453 0.000337723 0)
(-0.00140226 7.86361e-06 0)
(-0.00161234 0.000565361 0)
(-0.00166068 0.000562583 0)
(-0.00135881 0.000907411 0)
(-0.00100296 0.00094888 0)
(-0.000594444 0.00108038 0)
(-0.000103216 0.000637723 0)
(0.000381011 -7.23243e-05 8.41498e-21)
(0.00192206 -0.00127994 -5.31215e-20)
(0.00353153 -0.00354892 -9.49355e-20)
(0.00572636 -0.00394853 -5.91818e-20)
(0.00487151 -0.00731939 3.04141e-19)
(0.00854213 -0.00604467 5.04586e-20)
(0.00447692 -7.95451e-06 1.08994e-19)
(-0.00567664 0.00591436 -1.06335e-19)
(-0.00756315 0.00902819 -8.47691e-20)
(-0.00827288 0.010867 3.39966e-19)
(-0.0101114 0.0134921 -4.98995e-19)
(-0.00841354 0.0125294 2.643e-19)
(-0.00700469 0.0089833 5.83124e-19)
(-0.00523972 0.0081966 -1.69219e-19)
(-0.00394095 0.00643857 -5.44819e-19)
(-0.0016078 0.00718026 7.2383e-20)
(0.00309146 0.00485423 4.34572e-20)
(0.00651224 0.00533856 -1.667e-19)
(0.00726521 0.0070833 1.72414e-20)
(0.0054615 0.00626154 -6.55746e-20)
(0.00687684 0.00298493 -7.37814e-20)
(0.00760134 0.00180083 2.13514e-20)
(0.00849816 0.000200902 9.99653e-20)
(0.00754603 -0.000860839 3.49779e-21)
(0.00563809 -0.00107111 0)
(0.00443325 -0.00142239 0)
(0.00324542 -0.00110435 0)
(0.00247587 -0.000725466 0)
(0.00189205 -0.000103435 0)
(0.00142419 -1.41985e-05 0)
(0.00134845 0.00028634 0)
(0.00142666 5.4041e-06 0)
(-0.00211058 -0.00138739 0)
(-0.00214155 0.000228713 0)
(-0.00220186 -0.00102669 0)
(-0.0021755 -0.000193621 0)
(-0.00224353 -0.000378401 0)
(-0.00204847 5.20378e-06 0)
(-0.00186653 -0.000109406 0)
(-0.00122717 -0.000250957 6.70705e-22)
(0.000501445 -0.00150565 -1.37506e-20)
(0.00374058 -0.00326217 -6.15171e-21)
(0.00699748 -0.00526049 4.13538e-20)
(0.00836643 -0.010914 2.39416e-19)
(0.00862522 -0.0128231 -5.07576e-19)
(0.00581147 -0.0131926 -4.43012e-20)
(0.00582241 -0.015878 6.35309e-19)
(0.00507891 -0.00642604 -5.77253e-19)
(-0.00881411 0.00599814 8.89994e-19)
(-0.00641413 0.00916319 1.29506e-19)
(-0.00582318 0.00947704 1.07117e-18)
(-0.003116 0.00865595 3.98431e-19)
(-0.00117841 0.0124027 -4.11652e-19)
(0.000127772 0.00942593 -2.54464e-19)
(0.00044825 0.00757543 -3.04797e-19)
(0.00101266 0.00599279 4.94595e-19)
(0.0095316 0.00681587 5.4466e-19)
(0.0144287 0.00623883 -6.97513e-19)
(0.00830418 0.00373062 2.01543e-19)
(0.0120143 0.00119853 1.29011e-19)
(0.00773742 -0.000842554 -2.62202e-19)
(0.00598486 -0.00250701 4.68675e-19)
(0.00594627 -0.00281436 -1.41345e-19)
(0.00617726 -0.00283855 -3.33308e-20)
(0.0050283 -0.00258692 -1.66456e-22)
(0.00333645 -0.00219436 0)
(0.00226814 -0.00235978 0)
(0.00144416 -0.00216356 0)
(0.00108067 -0.00234995 0)
(0.000603372 -0.00106268 0)
(0.000396999 -0.00177643 0)
(0.000409015 0.000502376 0)
(-0.0027089 0.0020023 0)
(-0.00310546 0.000628959 0)
(-0.00334316 0.00173092 0)
(-0.00355374 0.000838454 0)
(-0.00354959 0.000176066 0)
(-0.00360989 -0.000296881 0)
(-0.00354434 -0.000792776 0)
(-0.00267909 -0.00190827 -1.7707e-20)
(0.000857205 -0.00328435 1.59254e-20)
(0.00444067 -0.00594121 6.90405e-20)
(0.00633289 -0.00865053 -2.64329e-19)
(0.00863206 -0.00795048 4.77702e-19)
(0.0147304 -0.00839845 -2.35795e-19)
(0.0052175 -0.0184887 5.39641e-19)
(0.0133063 -0.00971059 5.38611e-19)
(0.0150573 -0.00674976 2.03861e-19)
(0.00355049 -0.00898222 -7.8714e-19)
(-0.00477133 0.00451861 -1.03061e-18)
(-0.00806056 0.00826291 -2.27299e-18)
(-0.00607343 0.0131961 6.81011e-19)
(-0.000571908 0.0136942 4.36418e-19)
(0.0031006 0.010587 1.0942e-18)
(0.00669792 0.00903853 -2.06152e-18)
(0.00234139 0.00683466 -1.48957e-18)
(0.0159593 0.0118847 3.45552e-19)
(0.0208512 0.00381323 -6.02553e-20)
(0.0193538 -0.00229281 6.23046e-19)
(0.0139106 -0.00374518 -8.58005e-20)
(0.00751877 -0.00659935 5.56739e-21)
(0.00391969 -0.00546573 -5.26303e-20)
(0.00138973 -0.00488438 8.77115e-20)
(0.00139639 -0.00400877 -5.04766e-20)
(0.00244193 -0.00323409 -2.05405e-21)
(0.00160034 -0.00194548 0)
(0.000403768 -0.00169401 0)
(-0.00039037 -0.00177033 0)
(-0.00110806 -0.00156117 0)
(-0.00121279 -0.00197701 0)
(-0.00125931 -0.000299216 0)
(-0.00107237 -0.00164553 0)
(-0.00373806 -7.10159e-05 0)
(-0.00352106 -0.00206649 0)
(-0.0033588 -0.00106827 0)
(-0.00333285 -0.00208701 0)
(-0.00383962 -0.0011044 0)
(-0.00466133 -0.00130424 0)
(-0.0052769 -0.0012077 1.25949e-21)
(-0.00363148 -0.00304155 -6.064e-21)
(0.000155522 -0.00556719 5.12368e-21)
(0.00169646 -0.00701279 -4.42807e-20)
(0.00100654 -0.00936355 -7.89165e-21)
(0.000397681 -0.0131027 1.64427e-19)
(0.00241013 -0.0253654 -1.76687e-19)
(-0.000561727 -0.0197008 -1.93647e-19)
(-0.00207752 -0.0137518 -9.59915e-20)
(-0.015297 -0.0110403 3.68319e-19)
(-0.0065375 -0.0119756 1.06418e-19)
(-0.0118278 -0.00568108 2.0714e-19)
(-0.0147906 0.00947481 -2.41747e-19)
(-0.0118654 0.0148007 -1.56486e-18)
(-0.00213799 0.0190767 4.60696e-20)
(0.00260064 0.0190086 1.00245e-18)
(0.0071651 0.0163794 1.8404e-19)
(0.0149683 0.0141361 -1.94965e-19)
(0.0190047 0.00872819 2.42102e-19)
(0.00762622 0.00138626 3.10657e-19)
(0.0140154 -0.00469543 -1.97982e-19)
(0.00532876 0.00150222 -6.94045e-20)
(0.00160481 -0.00855243 9.46434e-20)
(-0.00221268 -0.00619272 -1.17399e-19)
(-0.00482619 -0.00693218 6.38853e-20)
(-0.00476839 -0.00477922 -1.54579e-20)
(-0.00245677 -0.00278832 2.78989e-21)
(-0.0010533 -0.00143015 3.82703e-21)
(-0.00111818 0.000502059 0)
(-0.00118935 0.00136282 0)
(-0.0014113 0.00283776 0)
(-0.00183435 0.00190181 0)
(-0.00218382 0.00238274 0)
(-0.00260345 2.38841e-05 0)
(-0.00346059 -0.00531407 0)
(-0.00381103 0.000484446 0)
(-0.00342597 -0.00362551 0)
(-0.00424088 -0.00137663 0)
(-0.00499236 -0.0014814 0)
(-0.00612398 -0.00128842 0)
(-0.00605809 -0.00318642 9.62436e-21)
(-0.00377153 -0.00472038 -2.17205e-20)
(-0.0018597 -0.00569846 -8.71186e-21)
(-0.00258029 -0.00844492 4.10197e-20)
(-0.00603429 -0.00591052 4.58829e-20)
(-0.00753289 -0.00444516 -1.31165e-19)
(-0.00152572 -0.0282946 6.27718e-20)
(-0.0111896 -0.0168696 -1.66974e-20)
(-0.00919034 -0.0102484 -1.2389e-19)
(-0.0187773 -0.0205513 -1.67933e-19)
(-0.0258494 -0.00821798 -1.02468e-19)
(-0.0314877 -0.00127486 -1.10039e-19)
(-0.0293029 0.0126374 1.93214e-19)
(-0.0219386 0.0305171 -5.12256e-19)
(-0.00137476 0.0367194 -3.75472e-19)
(0.0132366 0.0305522 -7.58807e-19)
(0.0172422 0.0182018 3.80731e-19)
(0.0132306 0.00869716 -3.76328e-19)
(0.00754856 0.000169919 8.72929e-20)
(0.00542976 0.00633702 2.13996e-19)
(0.00430441 -0.00922798 -2.95191e-20)
(-0.00337378 0.00479123 -3.04921e-20)
(-0.00855345 -0.00250527 -4.14803e-20)
(-0.0113215 -0.00535568 2.90429e-20)
(-0.0115661 -0.00584535 -2.07726e-20)
(-0.011184 -0.00499386 3.19477e-20)
(-0.00853354 -0.00367779 7.84741e-21)
(-0.00497236 -0.00221892 -2.49218e-21)
(-0.00453948 -0.00176686 0)
(-0.00449043 -0.00161131 0)
(-0.00416627 -0.00204897 0)
(-0.0032039 0.000817865 0)
(-0.00299675 -0.00272814 0)
(-0.00248549 0.00484748 0)
(-0.00210957 0.00741784 0)
(-0.00350845 0.00156492 0)
(-0.00554357 0.00340471 0)
(-0.00660511 0.00193039 0)
(-0.00673464 -0.000500669 0)
(-0.00675921 -0.00185434 0)
(-0.00537113 -0.00429658 -4.39479e-21)
(-0.00302254 -0.0058766 5.51642e-21)
(-0.00621433 -0.00208279 6.16374e-23)
(-0.00899509 -0.00174582 2.08834e-20)
(-0.0110149 -0.00373027 -2.05503e-20)
(-0.0207179 0.00760454 3.14536e-20)
(-0.0257796 0.000813359 -4.09899e-20)
(-0.00849385 -0.0114652 3.93011e-20)
(-0.0245143 -0.0109172 -4.8829e-20)
(-0.0181198 -0.0112018 -3.78955e-20)
(-0.0283042 -0.0145966 -3.40481e-20)
(-0.0473141 -0.00371955 -2.79617e-20)
(-0.0608962 0.0181428 -7.08288e-20)
(-0.0537423 0.0603856 2.19454e-19)
(0.000898499 0.0827689 1.9155e-18)
(0.0466506 0.0491718 1.44954e-18)
(0.0385388 0.0105325 1.81347e-20)
(0.0247264 -0.00220155 -4.67053e-20)
(0.0110036 -0.00182443 2.12247e-20)
(-0.000482238 0.00536025 7.70976e-20)
(-0.0124771 -0.00757077 2.32877e-20)
(-0.0179481 -0.00619903 6.68946e-21)
(-0.020583 -0.00404566 -1.15579e-20)
(-0.015725 0.00156668 7.39724e-21)
(-0.014616 0.000972197 -1.38491e-20)
(-0.0154538 -0.00190322 9.11682e-21)
(-0.0132417 -0.00248279 -5.44074e-21)
(-0.00771502 -0.000321604 5.52272e-21)
(-0.00541518 0.00102968 0)
(-0.0054677 0.00089869 0)
(-0.00543176 -0.000453797 0)
(-0.00476143 -0.001832 0)
(-0.00343507 0.000619444 0)
(-0.00241963 -0.00729437 0)
(-0.005427 -0.000811961 0)
(-0.00245536 -0.00546769 0)
(-0.00219196 -0.00310388 0)
(-0.000614255 -0.00568985 0)
(-0.0017139 -0.00466205 0)
(-0.00266634 -0.00451129 0)
(-0.00340104 -0.0045101 -8.88869e-22)
(-0.0047061 -0.00358221 3.86419e-22)
(-0.00914352 -0.00224026 -1.15646e-21)
(-0.015372 0.00163589 -6.88729e-21)
(-0.0133931 -0.00513701 7.14901e-22)
(-0.0176336 -0.0036154 1.10601e-21)
(-0.0247031 -0.000584756 3.81601e-21)
(-0.0130157 -0.014686 7.04361e-20)
(-0.0277985 -0.014056 -4.57076e-20)
(-0.0279715 -0.0249806 1.6336e-20)
(-0.0402001 -0.0275685 -3.2703e-20)
(-0.0584602 -0.030278 -6.76192e-21)
(-0.0388527 -0.070866 6.79748e-19)
(0.00754537 -0.0781507 -5.90971e-19)
(0.0183505 -0.0240026 1.74419e-20)
(-0.00194294 -0.0200182 5.34565e-20)
(-0.0200625 -0.0205763 -3.08952e-20)
(-0.030248 0.00511643 -5.21025e-21)
(-0.0345418 -0.013817 1.52365e-20)
(-0.0222279 0.00077773 -1.53127e-20)
(-0.01662 0.00870649 -6.50297e-22)
(-0.0123624 0.007739 8.19964e-21)
(-0.0113301 0.0045422 -2.26674e-21)
(-0.0120743 0.00152392 1.21023e-21)
(-0.0095388 0.000416303 2.50915e-22)
(-0.00521858 0.00168818 0)
(-0.00313384 0.00293971 0)
(-0.0018402 0.00451113 0)
(-0.00278344 0.00221361 0)
(-0.0026663 0.00473897 0)
(-0.0058515 0.000579874 0)
(-0.000865649 -0.013471 0)
(-0.00310996 -0.00275199 0)
(-0.00129053 -0.00694703 0)
(-0.00205911 -0.00482053 0)
(-0.00257843 -0.00386256 0)
(-0.00374299 -0.0043277 0)
(-0.00178478 -0.00482482 -7.56902e-23)
(-0.00299126 -0.00330519 8.64369e-21)
(0.000175218 -0.00591795 -1.49441e-20)
(-0.000676582 -0.00457501 1.36979e-20)
(0.00736079 -0.00890473 2.94392e-20)
(0.0114281 -0.0140833 -1.34488e-20)
(0.0191175 -0.00967021 -4.57222e-20)
(0.004686 -0.0197522 -1.03399e-20)
(0.00650521 -0.021682 -1.32184e-19)
(-0.00302236 -0.033552 -3.84572e-20)
(-0.0171531 -0.0474822 -2.30685e-21)
(-0.0505989 -0.0595402 -2.48434e-21)
(0.0165928 -0.102522 7.71609e-18)
(-0.011544 -0.105816 -6.05009e-19)
(-0.0245989 -0.0388235 -9.27283e-21)
(-0.0109884 -0.0176574 5.65959e-21)
(-0.00973428 -0.0201186 -3.74909e-20)
(-0.0193372 0.00288353 -1.83173e-20)
(-0.00882453 -0.0119436 8.74674e-21)
(-0.00982164 0.00492866 -3.02032e-20)
(-0.0105039 0.00859505 3.11921e-20)
(-0.00462524 0.0077849 -5.14318e-21)
(-0.00388144 0.00766198 2.74219e-21)
(-0.00559158 0.00572103 -4.79782e-22)
(-0.00790662 0.00201177 9.53864e-22)
(-0.00847532 0.000848104 0)
(-0.00741681 0.000462708 0)
(-0.00617164 0.0013532 0)
(-0.00432819 0.00468982 0)
(-0.0055914 0.000423971 0)
(-0.00176099 0.0149813 0)
(0.00166313 0.0148645 9.43015e-23)
(-0.00159634 0.00685361 0)
(-0.00526727 0.00356087 0)
(-0.00612609 0.00221852 0)
(-0.00367455 7.31254e-06 0)
(4.99337e-05 -0.00039751 0)
(0.00218421 -0.00186605 -2.74279e-21)
(0.00457061 -0.000418693 -8.61017e-21)
(0.00770105 -0.0053218 1.19494e-20)
(0.0137102 -0.00470107 3.06092e-20)
(0.0194951 -0.0106517 -6.09049e-21)
(0.028661 -0.005343 -7.01052e-20)
(0.0335653 0.00232051 -1.08481e-19)
(0.0414224 -0.0150145 -3.04942e-20)
(0.0335827 -0.0294648 1.01894e-20)
(0.00545683 -0.0477971 5.42291e-21)
(0.00387376 -0.0707014 1.24607e-19)
(-0.156658 -0.0278391 -2.65548e-19)
(0.094268 0.0912323 -3.42437e-19)
(0.00724021 -0.19055 4.71363e-19)
(-0.16928 -0.0661868 9.12011e-20)
(-0.0192997 0.000105722 1.99055e-20)
(-0.0103647 -0.00942791 2.00648e-19)
(-0.00179862 -0.0148662 -2.7179e-20)
(0.00479936 -0.00311609 -1.18013e-19)
(0.00293582 -0.00568817 1.5204e-19)
(0.00142482 0.00207763 1.07906e-20)
(-0.000164604 0.00664369 -3.58066e-20)
(0.00228321 0.00428293 -5.27458e-21)
(0.00325569 0.00652034 6.05166e-21)
(0.00140219 0.00466364 7.60316e-22)
(0.000190778 0.00126872 0)
(-0.00339529 8.57146e-05 0)
(-0.00454109 -0.00191162 0)
(-0.00364098 -0.00249845 0)
(-0.000184856 -0.00483025 0)
(0.00534908 -0.0186419 0)
(-0.0112812 -0.00425659 -2.20873e-23)
(-0.00533744 -0.00633652 0)
(0.00212434 -0.000467532 0)
(0.00478941 -0.00148484 0)
(0.0049416 -0.00301251 0)
(0.00520876 -0.00209771 0)
(0.00576309 -7.24313e-05 3.20481e-21)
(0.00743074 0.00335631 1.6732e-20)
(0.00982034 -0.0036991 6.80321e-21)
(0.0211812 -0.000360394 3.99737e-20)
(0.0381611 0.00404562 -4.03418e-20)
(0.0487793 0.00823935 -1.46937e-19)
(0.0512196 -0.000262741 8.61679e-21)
(0.0715148 0.000311983 4.13241e-19)
(0.0750185 -0.0135995 -7.25007e-19)
(0.0570722 -0.10959 1.07492e-19)
(0.0378919 -0.103898 1.93446e-19)
(-0.395212 -0.042621 -1.27368e-19)
(-0.102436 0.139565 1.7242e-19)
(0.379534 0.253462 4.37172e-19)
(0.0601063 0.0793198 -1.64644e-20)
(0.459609 -0.00200339 5.2007e-20)
(-0.104776 -0.203696 -2.72189e-19)
(-0.392651 -0.00596027 -8.1432e-20)
(-0.0176371 0.0439796 4.28267e-19)
(-0.00653371 0.0517262 -2.15303e-19)
(-0.0169405 0.0158334 -5.14456e-19)
(0.0221265 -0.0190071 4.89075e-20)
(-0.00533914 -0.00215871 -4.50896e-20)
(-0.0042319 0.000112188 -2.43492e-20)
(0.0032176 -0.0024704 -5.61906e-20)
(0.00843598 -0.00316231 -8.87782e-21)
(0.00771851 0.00419843 9.32182e-21)
(0.00867843 0.0045484 2.93991e-21)
(0.00263674 0.0029373 0)
(0.00250586 0.000822048 0)
(0.00281368 -0.000689526 0)
(0.000378485 -0.00178567 0)
(-0.00624578 0.00548436 0)
(-0.0147947 0.00520862 0)
(0.0107039 -0.00106359 -4.86426e-21)
(0.00713541 -0.00255462 0)
(0.00777125 -0.00178157 0)
(0.00934679 -0.00106899 0)
(0.0104677 0.000254796 0)
(0.00986619 0.00078215 0)
(0.0104988 0.00251995 -5.73481e-23)
(0.0144956 0.0016888 -1.60358e-20)
(0.0224338 0.000332055 -6.2525e-21)
(0.039559 -0.000843142 4.19744e-20)
(0.0313642 0.00197215 -2.39255e-20)
(0.0318474 -0.0157431 5.53897e-20)
(0.0560774 0.0537807 -8.89994e-20)
(0.0965954 0.0234814 1.49714e-19)
(0.0907434 -0.0367559 -2.80022e-19)
(0.123411 -0.042247 -3.22805e-19)
(0.101441 -0.178186 1.65891e-18)
(-0.500131 0.00587282 1.23935e-18)
(-0.252932 -0.0274997 1.82837e-21)
(0.945654 -0.843579 3.07777e-18)
(0.067226 -0.0607074 1.00576e-18)
(-0.815714 -0.769699 4.08493e-19)
(-0.00619847 0.429756 -1.91285e-18)
(-0.221475 0.151014 -3.92917e-19)
(0.00749914 0.0680235 3.21027e-20)
(0.0748203 -0.0408889 -9.7009e-21)
(0.0285138 -0.0541341 1.80415e-20)
(0.00367521 0.0224767 -6.70093e-20)
(0.0174853 -0.0354261 2.73527e-19)
(0.00589832 -0.00771862 -2.04852e-21)
(-0.00381493 -0.00776521 2.01705e-20)
(0.00375866 -0.00400513 -1.19689e-20)
(0.00765291 -0.000985718 -1.29202e-21)
(0.00756495 0.000923447 9.18294e-23)
(0.00540994 -0.00309613 0)
(0.00610271 -0.00179279 0)
(0.00393905 -0.000710958 0)
(0.00324136 0.000166024 0)
(0.00336002 0.000924547 0)
(0.00367242 0.00425432 4.73623e-21)
(0.00240949 0.00215829 1.63726e-20)
(0.00322048 0.00439235 0)
(0.000433971 0.00107905 0)
(0.00101739 0.000570415 0)
(0.00520787 0.00347105 0)
(0.00941296 0.00585328 0)
(0.0108728 0.00520844 0)
(0.0196209 0.00192506 1.66745e-21)
(0.0242743 0.00910464 2.62576e-20)
(0.03656 0.0179298 -6.7118e-20)
(0.0494175 0.0283755 2.78518e-20)
(0.0667675 0.0319419 3.21519e-21)
(0.0475404 0.00416441 -4.79367e-20)
(0.0689827 0.0871238 -4.07227e-20)
(0.168645 0.0977467 1.67231e-19)
(0.218413 -0.0178899 1.76295e-19)
(0.235188 0.0370121 4.27599e-19)
(-0.250135 0.532633 1.02893e-17)
(1.6862 -1.87635 -1.75445e-19)
(-0.749549 1.26697 6.52628e-19)
(-1.64588 -2.65262 7.92355e-19)
(0.714433 3.1788 -8.65554e-19)
(-0.584225 -0.248473 -3.96015e-18)
(-0.448382 0.320883 -1.7788e-18)
(0.238459 -0.186003 -1.60444e-19)
(-0.0182385 -0.0111776 1.24541e-19)
(-0.00889777 -0.0217204 3.17585e-20)
(0.000122686 -0.0357387 1.04558e-19)
(-0.0197634 0.0127965 -1.55429e-19)
(-0.0119641 0.00978458 1.2557e-19)
(-0.00643157 0.00615862 1.96075e-20)
(0.00285482 0.000670346 -7.83728e-21)
(0.00941636 -0.00568268 -5.80681e-21)
(0.00921626 -0.000189539 0)
(0.00397074 -0.00183694 0)
(0.00333143 -0.00450198 0)
(0.00313909 -0.00533519 0)
(0.000817996 -0.00493347 0)
(0.000977135 -0.00406302 0)
(0.00323318 0.000730697 -8.96907e-22)
(0.00129822 -0.00153958 3.90563e-22)
(0.00538442 0.00311115 0)
(0.00436864 0.00318052 0)
(0.00448917 0.00421693 0)
(0.00354749 0.00574486 0)
(0.00698273 0.00908485 0)
(0.0159279 0.0134936 0)
(0.0128471 0.00892201 0)
(0.00853425 0.00701571 8.60427e-22)
(0.00147792 0.0157756 -6.68813e-21)
(-0.00320855 0.045302 1.54206e-20)
(0.0279427 0.0672648 -8.2788e-20)
(0.0561666 0.087492 1.04721e-19)
(0.0445093 0.0949423 -1.38723e-20)
(0.106584 0.114288 3.47548e-19)
(0.255877 0.278092 1.45498e-19)
(-0.0468453 0.12366 9.67979e-20)
(0.0565765 0.215684 5.58612e-19)
(0.370479 -1.55937 1.6075e-19)
(-0.931469 -0.102114 1.06156e-19)
(-0.806204 3.33664 1.00381e-18)
(-0.779776 -1.20985 4.25718e-18)
(-0.156552 -0.316706 1.80982e-18)
(0.890312 -0.202332 1.06374e-17)
(-0.233431 -0.136438 1.05485e-19)
(-0.129627 -0.0607771 -4.39782e-20)
(-0.0381088 0.00721668 8.0683e-20)
(-0.0598628 0.0231967 5.82287e-20)
(-0.015674 0.0243215 -1.22786e-19)
(0.0124204 0.00725431 -6.35258e-20)
(0.0239635 -0.012832 3.03971e-21)
(0.0171522 -0.0133137 5.14558e-21)
(0.00858543 -0.0079151 0)
(0.00135698 0.000898748 0)
(0.00701915 -0.00121888 0)
(0.00756087 -0.00164338 0)
(0.00718061 -0.00109659 -9.64762e-21)
(0.0073541 -0.000948112 -1.3342e-20)
(0.00812807 -0.00155887 -7.95598e-21)
(0.00723839 0.00102841 0)
(0.00408395 0.000853392 0)
(0.00642037 0.00198022 0)
(0.0036602 0.00191384 0)
(0.00116003 0.00355828 0)
(-0.00187359 0.00311051 0)
(-0.00343354 0.00357792 0)
(-0.00139013 0.00982724 0)
(0.006274 0.0218087 0)
(0.0047506 0.0240311 2.94499e-23)
(-0.0138724 0.0309584 8.07748e-22)
(-0.027287 0.0386491 1.10004e-20)
(-0.0507243 0.0798656 -2.22313e-20)
(-0.0273595 0.128105 -7.70922e-20)
(-0.0233797 0.160489 -1.8415e-20)
(0.00772752 0.263502 -1.27654e-18)
(0.231323 0.287012 8.3376e-20)
(0.598118 0.0466432 5.74158e-19)
(-0.634969 -0.324141 3.04548e-19)
(-0.0055457 3.04736 4.44231e-19)
(2.5466 1.14942 -3.7253e-18)
(-0.745175 -3.39273 -1.48175e-18)
(-3.49238 1.64908 1.79117e-18)
(1.63433 1.2382 7.39797e-20)
(0.475895 -0.830522 -4.01175e-20)
(-0.459333 -0.273777 4.79965e-19)
(-0.236591 0.107518 -1.28694e-19)
(-0.0436133 0.117781 1.15539e-19)
(-0.0237776 0.0464395 -7.82674e-21)
(0.021381 0.0348745 -1.0225e-20)
(0.0206102 -0.000397674 1.5622e-21)
(0.0113448 -0.00795925 9.34356e-22)
(-0.00185695 -0.00019004 2.41434e-23)
(-0.0019151 0.00368806 0)
(0.00635202 -0.00542276 0)
(0.0104749 -0.0063586 0)
(0.00934546 -0.00312582 0)
(0.00968478 -0.00281889 0)
(0.010327 -0.00342446 0)
(0.0100994 -0.00283881 0)
(0.00771151 -0.000470367 1.43288e-21)
(-0.000509316 0.000847545 0)
(0.00318448 0.000433602 0)
(0.00537208 0.000545678 0)
(0.00359916 -0.00183978 0)
(-0.000112683 -0.00477556 0)
(-0.00389642 -0.00667761 0)
(-0.00915011 -0.00847944 0)
(-0.0178517 0.0008715 0)
(-0.0251602 0.0147684 0)
(-0.0469262 0.0291532 0)
(-0.0615139 0.0335168 -2.05975e-21)
(-0.114539 0.0515312 4.2036e-21)
(-0.129287 0.113899 -1.81115e-20)
(-0.200254 0.139788 2.36227e-20)
(-0.131037 0.26072 -3.48655e-18)
(0.0578757 0.365546 6.14833e-20)
(0.94829 0.861704 -1.23559e-18)
(0.445827 0.155707 5.23879e-19)
(-1.44144 0.284589 -1.29358e-19)
(-1.97415 -1.29829 -2.60109e-18)
(0.158419 -2.03387 3.95327e-19)
(2.20852 -1.31586 3.12834e-18)
(1.51095 -0.0301961 -8.05539e-19)
(-0.339653 -0.0496694 1.06075e-20)
(-0.729876 0.712081 -1.32042e-18)
(-0.0594643 0.26891 1.09454e-19)
(0.0737678 0.147868 2.02265e-20)
(0.0787504 0.0602534 -1.40308e-20)
(0.0824376 0.0167563 3.12089e-22)
(0.051683 0.00167622 -9.12412e-22)
(0.0325974 0.0011031 0)
(0.0165613 -0.000222103 0)
(0.00905503 -0.00865219 0)
(0.00584948 -0.0114505 0)
(0.00577928 -0.00651514 0)
(0.00230955 -0.00323731 0)
(-0.000468193 -0.00158027 0)
(-0.000224262 0.000467543 0)
(0.0025827 0.00179542 0)
(0.00117645 -4.45445e-05 0)
(0.00302624 -0.00263144 0)
(0.00233081 -0.00716707 0)
(0.00222447 -0.0069451 0)
(0.0035355 -0.00708941 0)
(0.00337744 -0.00846319 0)
(-0.000207652 -0.0102643 0)
(-0.00921124 -0.0126233 0)
(-0.0222103 -0.0112459 0)
(-0.0324804 -0.00824383 0)
(-0.0514493 0.00222251 0)
(-0.0777697 -0.00294131 0)
(-0.123303 0.0144163 -1.25953e-22)
(-0.215446 -0.00500255 6.32161e-21)
(-0.297326 0.00451945 2.77461e-20)
(-0.380019 0.0445587 -1.20418e-18)
(0.275297 0.462315 -5.37776e-19)
(-0.780339 0.229778 -6.88926e-19)
(0.623479 1.27822 -5.501e-19)
(0.214776 0.408903 4.9485e-19)
(-0.362729 0.541351 -3.04172e-18)
(0.271385 0.867086 6.30149e-20)
(0.810002 0.0824 -1.0852e-18)
(-0.179373 0.24749 3.41135e-19)
(-0.32672 1.3698 2.79759e-20)
(-0.178062 0.287223 4.69413e-19)
(0.135752 0.242426 -7.00842e-20)
(0.23398 -0.00723269 8.81429e-20)
(0.176373 -0.0247786 2.1124e-20)
(0.0857356 -0.00612675 -4.08243e-22)
(0.0534151 -0.014857 0)
(0.0298622 -0.00897142 0)
(0.0180199 -0.0119645 0)
(0.0116004 -0.0111962 0)
(0.00538063 -0.00817717 0)
(0.00240903 -0.00378093 0)
(0.00156454 -0.00106572 0)
(0.00165347 0.00038243 0)
(0.00326291 -0.00056834 0)
(0.00190734 -0.00058412 0)
(-0.000562822 -0.000901443 0)
(0.0087563 -0.0017739 0)
(0.00997887 -0.00485927 0)
(0.00830699 -0.0087244 0)
(0.00462545 -0.0116406 0)
(0.00272522 -0.0130975 0)
(-0.00227792 -0.0142311 0)
(-0.00940344 -0.0162848 0)
(-0.0228355 -0.0215901 0)
(-0.0420786 -0.0298489 0)
(-0.0602796 -0.0352153 0)
(-0.0829114 -0.0479146 -7.05577e-21)
(-0.11062 -0.0855044 0)
(-0.15155 -0.0823373 0)
(-0.177502 -0.0994772 -4.14791e-20)
(-0.528272 -0.294213 1.19614e-18)
(-0.506385 0.00760045 -1.85959e-18)
(1.56181 0.842905 -1.21887e-19)
(-0.54568 -1.34372 -1.40924e-19)
(-1.97444 -1.94788 -1.31416e-19)
(-1.85445 -1.56176 -1.40126e-18)
(0.997297 -1.4098 5.49724e-19)
(2.31813 -1.61087 -7.56461e-19)
(1.12676 -2.03471 -2.11662e-19)
(-1.51559 -0.298405 -8.79351e-20)
(-1.24779 1.10206 -3.96007e-20)
(0.71499 -0.112032 -2.12513e-19)
(0.280806 -0.16208 -3.30831e-19)
(0.141183 -0.0684194 0)
(0.0750958 -0.0794813 0)
(0.039847 -0.040021 -1.69118e-21)
(0.0257967 -0.0264734 0)
(0.0117849 -0.0228681 0)
(0.00116799 -0.0138208 0)
(-0.00232454 -0.0100234 0)
(-0.00200647 -0.00742677 0)
(-0.000830165 -0.0056487 0)
(-0.000318745 -0.00354232 0)
(-0.00217711 -0.00159704 1.58783e-21)
(-0.00253945 0.000824977 1.13913e-21)
(-0.000493926 -0.000553191 0)
(0.0104481 -0.000765685 0)
(0.00852334 -0.00317801 0)
(0.00821 -0.00505871 0)
(0.0075412 -0.00818697 0)
(0.00610562 -0.012615 0)
(0.00117517 -0.0187388 0)
(-0.00788811 -0.0257282 0)
(-0.0154894 -0.032537 0)
(-0.0230464 -0.0418159 0)
(-0.0245201 -0.0657298 0)
(-0.0455675 -0.0876601 6.50022e-20)
(-0.0298434 -0.135201 0)
(-0.0808833 -0.176021 0)
(-0.14795 -0.322902 2.48514e-19)
(-0.152582 -0.410758 -3.6914e-19)
(0.225557 -0.716648 2.48838e-19)
(-0.429778 -1.81084 0)
(-1.3554 -0.957682 3.45582e-19)
(-1.24812 0.540479 3.98446e-18)
(-0.469993 -0.298536 -1.62941e-18)
(1.05385 0.22339 7.21541e-19)
(1.37254 0.661159 -3.47428e-18)
(1.04416 -0.746 -2.52101e-19)
(-0.280126 -1.733 0)
(-0.725916 -0.937912 1.86364e-19)
(0.343077 -0.693585 1.28678e-18)
(0.260885 -0.429157 -1.09179e-19)
(0.0421821 -0.196983 0)
(-0.0175285 -0.116148 0)
(-0.00722904 -0.0569377 -5.71191e-20)
(-0.00789081 -0.0271433 0)