/*--------------------------------*- C++ -*----------------------------------*\
| =========                 |                                                 |
| \\      /  F ield         | OpenFOAM: The Open Source CFD Toolbox           |
|  \\    /   O peration     | Version:  v2106                                 |
|   \\  /    A nd           | Website:  www.openfoam.com                      |
|    \\/     M anipulation  |                                                 |
\*---------------------------------------------------------------------------*/
FoamFile
{
    version     2.0;
    format      ascii;
    arch        "LSB;label=32;scalar=64";
    class       pointVectorField;
    location    "0";
    object      pointDisplacement;
}
// * * * * * * * * * * * * * * * * * * * * * * * * * * * * * * * * * * * * * //

dimensions      [0 1 0 0 0 0 0];

internalField   nonuniform List<vector> 
24440
(
(0 0 0)
(0 0 0)
(0 0 0)
(0 0 0)
(0 0 0)
(0 0 0)
(0 0 0)
(0 0 0)
(0 0 0)
(0 0 0)
(0 0 0)
(0 0 0)
(0 0 0)
(0 0 0)
(0 0 0)
(0 0 0)
(0 0 0)
(0 0 0)
(0 0 0)
(0 0 0)
(0 0 0)
(0 0 0)
(0 0 0)
(0 0 0)
(0 0 0)
(0 0 0)
(0 0 0)
(0 0 0)
(0 0 0)
(0 0 0)
(0 0 0)
(0 0 0)
(0 0 0)
(0 0 0)
(0 0 0)
(0 0 0)
(0 0 0)
(0 0 0)
(0 0 0)
(0 0 0)
(0 0 0)
(0 0 0)
(0 0 0)
(0 0 0)
(0 0 0)
(0 0 0)
(0 0 0)
(0 0 0)
(0 0 0)
(0 0 0)
(0 0 0)
(0 0 0)
(0 0 0)
(0 0 0)
(0 0 0)
(0 0 0)
(0 0 0)
(0 0 0)
(0 0 0)
(0 0 0)
(0 0 0)
(0 0 0)
(0 0 0)
(0 0 0)
(0 0 0)
(0 0 0)
(0 0 0)
(0 0 0)
(0 0 0)
(0 0 0)
(0 0 0)
(0 0 0)
(0 0 0)
(0 0 0)
(0 0 0)
(0 0 0)
(0 0 0)
(0 0 0)
(0 0 0)
(0 0 0)
(0 0 0)
(0 0 0)
(0 0 0)
(0 0 0)
(0 0 0)
(0 0 0)
(0 0 0)
(0 0 0)
(0 0 0)
(0 0 0)
(0 0 0)
(0 0 0)
(0 0 0)
(0 0 0)
(0 0 0)
(0 0 0)
(0 0 0)
(0 0 0)
(0 -3.80092e-06 0)
(0 -2.39688e-05 0)
(0 -6.59091e-05 0)
(0 -0.000101563 0)
(0 -0.000115246 0)
(0 -0.000101563 0)
(0 -6.59091e-05 0)
(0 -2.39688e-05 0)
(0 -3.80092e-06 0)
(0 0 0)
(0 0 0)
(0 0 0)
(0 0 0)
(0 0 0)
(0 0 0)
(0 0 0)
(0 0 0)
(0 0 0)
(0 0 0)
(0 0 0)
(0 0 0)
(0 0 0)
(0 0 0)
(0 0 0)
(0 0 0)
(0 0 0)
(0 0 0)
(0 0 0)
(0 0 0)
(0 0 0)
(0 0 0)
(0 0 0)
(0 0 0)
(0 0 0)
(0 0 0)
(0 0 0)
(0 0 0)
(0 0 0)
(0 -6.36551e-06 0)
(0 -8.4205e-05 0)
(0 -0.000247809 0)
(0 -0.000446412 0)
(0 -0.000636765 0)
(0 -0.000769468 0)
(0 -0.000892829 0)
(0 -0.000936234 0)
(0 -0.000892829 0)
(0 -0.000769468 0)
(0 -0.000636765 0)
(0 -0.000446412 0)
(0 -0.000247809 0)
(0 -8.4205e-05 0)
(0 -6.36551e-06 0)
(0 0 0)
(0 0 0)
(0 0 0)
(0 0 0)
(0 0 0)
(0 0 0)
(0 0 0)
(0 0 0)
(0 0 0)
(0 0 0)
(0 0 0)
(0 0 0)
(0 0 0)
(0 0 0)
(0 0 0)
(0 0 0)
(0 0 0)
(0 0 0)
(0 0 0)
(0 0 0)
(0 0 0)
(0 0 0)
(0 0 0)
(0 0 0)
(0 -2.67261e-06 0)
(0 -0.000110738 0)
(0 -0.00037765 0)
(0 -0.000744722 0)
(0 -0.0011228 0)
(0 -0.0015446 0)
(0 -0.00190992 0)
(0 -0.00213617 0)
(0 -0.0023525 0)
(0 -0.00242727 0)
(0 -0.0023525 0)
(0 -0.00213617 0)
(0 -0.00190992 0)
(0 -0.0015446 0)
(0 -0.0011228 0)
(0 -0.000744722 0)
(0 -0.00037765 0)
(0 -0.000110738 0)
(0 -2.67261e-06 0)
(0 0 0)
(0 0 0)
(0 0 0)
(0 0 0)
(0 0 0)
(0 0 0)
(0 0 0)
(0 0 0)
(0 0 0)
(0 0 0)
(0 0 0)
(0 0 0)
(0 0 0)
(0 0 0)
(0 0 0)
(0 0 0)
(0 0 0)
(0 0 0)
(0 0 0)
(0 0 0)
(0 0 0)
(0 -2.52708e-05 0)
(0 -0.000262802 0)
(0 -0.00069841 0)
(0 -0.00122537 0)
(0 -0.00187965 0)
(0 -0.00253955 0)
(0 -0.00311122 0)
(0 -0.00364674 0)
(0 -0.00402676 0)
(0 -0.00425381 0)
(0 -0.00435803 0)
(0 -0.00425381 0)
(0 -0.00402676 0)
(0 -0.00364674 0)
(0 -0.00311122 0)
(0 -0.00253955 0)
(0 -0.00187965 0)
(0 -0.00122537 0)
(0 -0.00069841 0)
(0 -0.000262802 0)
(0 -2.67534e-05 0)
(0 0 0)
(0 0 0)
(0 0 0)
(0 0 0)
(0 0 0)
(0 0 0)
(0 0 0)
(0 0 0)
(0 0 0)
(0 0 0)
(0 0 0)
(0 0 0)
(0 0 0)
(0 0 0)
(0 0 0)
(0 0 0)
(0 0 0)
(0 0 0)
(0 0 0)
(0 -4.9702e-05 0)
(0 -0.00034851 0)
(0 -0.000869837 0)
(0 -0.00159688 0)
(0 -0.00246096 0)
(0 -0.00335886 0)
(0 -0.00418285 0)
(0 -0.004964 0)
(0 -0.00525753 0)
(0 -0.00557495 0)
(0 -0.00584046 0)
(0 -0.00604966 0)
(0 -0.00619925 0)
(0 -0.00630269 0)
(0 -0.00639826 0)
(0 -0.00643026 0)
(0 -0.00639826 0)
(0 -0.00630269 0)
(0 -0.00619925 0)
(0 -0.00604966 0)
(0 -0.00584046 0)
(0 -0.00557495 0)
(0 -0.00525753 0)
(0 -0.004964 0)
(0 -0.00418285 0)
(0 -0.00335886 0)
(0 -0.00246096 0)
(0 -0.00159688 0)
(0 -0.000851783 0)
(0 -0.000314914 0)
(0 -3.97151e-05 0)
(0 0 0)
(0 0 0)
(0 0 0)
(0 0 0)
(0 0 0)
(0 0 0)
(0 0 0)
(0 0 0)
(0 0 0)
(0 0 0)
(0 0 0)
(0 0 0)
(0 0 0)
(0 0 0)
(0 0 0)
(0 0 0)
(0 0 0)
(0 -2.92339e-05 0)
(0 -0.000334551 0)
(0 -0.000932118 0)
(0 -0.00175397 0)
(0 -0.00271664 0)
(0 -0.00384929 0)
(0 -0.00439087 0)
(0 -0.00487091 0)
(0 -0.00540221 0)
(0 -0.00590021 0)
(0 -0.00635583 0)
(0 -0.00674291 0)
(0 -0.00587655 0)
(0 -0.00623535 0)
(0 -0.00651852 0)
(0 -0.00680413 0)
(0 -0.00702818 0)
(0 -0.00718785 0)
(0 -0.00728356 0)
(0 -0.00738501 0)
(0 -0.00741893 0)
(0 -0.00738501 0)
(0 -0.00728356 0)
(0 -0.00718785 0)
(0 -0.00702818 0)
(0 -0.00680413 0)
(0 -0.00651852 0)
(0 -0.00623535 0)
(0 -0.00587655 0)
(0 -0.00674291 0)
(0 -0.00635583 0)
(0 -0.00590021 0)
(0 -0.00540221 0)
(0 -0.00487091 0)
(0 -0.00439087 0)
(0 -0.00384929 0)
(0 -0.00271664 0)
(0 -0.00175397 0)
(0 -0.000898117 0)
(0 -0.000319995 0)
(0 -2.65486e-05 0)
(0 0 0)
(0 0 0)
(0 0 0)
(0 0 0)
(0 0 0)
(0 0 0)
(0 0 0)
(0 0 0)
(0 0 0)
(0 0 0)
(0 0 0)
(0 0 0)
(0 0 0)
(0 0 0)
(0 0 0)
(0 0 0)
(0 -0.000184968 0)
(0 -0.0007559 0)
(0 -0.00161601 0)
(0 -0.0026964 0)
(0 -0.00389972 0)
(0 -0.00512242 0)
(0 -0.00450866 0)
(0 -0.0050976 0)
(0 -0.00566431 0)
(0 -0.00619792 0)
(0 -0.00667201 0)
(0 -0.0071528 0)
(0 -0.00757767 0)
(0 -0.00792868 0)
(0 -0.00712416 0)
(0 -0.00744529 0)
(0 -0.00825966 0)
(0 -0.00849798 0)
(0 -0.00770077 0)
(0 -0.00793452 0)
(0 -0.00873501 0)
(0 -0.00890184 0)
(0 -0.00810033 0)
(0 -0.00818437 0)
(0 -0.00899853 0)
(0 -0.00907529 0)
(0 -0.00828898 0)
(0 -0.00832389 0)
(0 -0.00910994 0)
(0 -0.00907529 0)
(0 -0.00828898 0)
(0 -0.00818437 0)
(0 -0.00899853 0)
(0 -0.00890184 0)
(0 -0.00810033 0)
(0 -0.00793452 0)
(0 -0.00873501 0)
(0 -0.00849798 0)
(0 -0.00770077 0)
(0 -0.00744529 0)
(0 -0.00825966 0)
(0 -0.00792868 0)
(0 -0.00712416 0)
(0 -0.00757767 0)
(0 -0.0071528 0)
(0 -0.00667201 0)
(0 -0.00619792 0)
(0 -0.00566431 0)
(0 -0.0050976 0)
(0 -0.00450866 0)
(0 -0.00512242 0)
(0 -0.00389972 0)
(0 -0.00266395 0)
(0 -0.00160325 0)
(0 -0.000755093 0)
(0 -0.00020109 0)
(0 0 0)
(0 0 0)
(0 0 0)
(0 0 0)
(0 0 0)
(0 0 0)
(0 0 0)
(0 0 0)
(0 0 0)
(0 0 0)
(0 0 0)
(0 0 0)
(0 0 0)
(0 0 0)
(0 0 0)
(0 -4.03506e-05 0)
(0 -0.00041455 0)
(0 -0.00119493 0)
(0 -0.00223883 0)
(0 -0.00347983 0)
(0 -0.00490164 0)
(0 -0.00627118 0)
(0 -0.0057382 0)
(0 -0.00635862 0)
(0 -0.00570951 0)
(0 -0.00634807 0)
(0 -0.0069418 0)
(0 -0.00752682 0)
(0 -0.00691006 0)
(0 -0.00742329 0)
(0 -0.00805429 0)
(0 -0.0082948 0)
(0 -0.00851868 0)
(0 -0.00821428 0)
(0 -0.00785653 0)
(0 -0.0082925 0)
(0 -0.00860516 0)
(0 -0.00879831 0)
(0 -0.00848554 0)
(0 -0.00895512 0)
(0 -0.0092517 0)
(0 -0.00938894 0)
(0 -0.00909445 0)
(0 -0.00940149 0)
(0 -0.00969164 0)
(0 -0.00976395 0)
(0 -0.00949086 0)
(0 -0.00965509 0)
(0 -0.00992096 0)
(0 -0.00995882 0)
(0 -0.00969908 0)
(0 -0.00974637 0)
(0 -0.0100005 0)
(0 -0.00999282 0)
(0 -0.00973822 0)
(0 -0.00965509 0)
(0 -0.00992096 0)
(0 -0.00988508 0)
(0 -0.00961737 0)
(0 -0.00940149 0)
(0 -0.00969164 0)
(0 -0.00960858 0)
(0 -0.00931914 0)
(0 -0.00895512 0)
(0 -0.0092517 0)
(0 -0.00913054 0)
(0 -0.0087978 0)
(0 -0.0082925 0)
(0 -0.00860516 0)
(0 -0.00839448 0)
(0 -0.00808263 0)
(0 -0.00742329 0)
(0 -0.00805429 0)
(0 -0.00752682 0)
(0 -0.00691006 0)
(0 -0.00634807 0)
(0 -0.0069418 0)
(0 -0.00635862 0)
(0 -0.00570951 0)
(0 -0.0057382 0)
(0 -0.00624293 0)
(0 -0.00489826 0)
(0 -0.00353592 0)
(0 -0.00222002 0)
(0 -0.0011833 0)
(0 -0.000435327 0)
(0 -4.6143e-05 0)
(0 0 0)
(0 0 0)
(0 0 0)
(0 0 0)
(0 0 0)
(0 0 0)
(0 0 0)
(0 0 0)
(0 0 0)
(0 0 0)
(0 0 0)
(0 0 0)
(0 0 0)
(0 0 0)
(0 -0.000132018 0)
(0 -0.00066815 0)
(0 -0.00156985 0)
(0 -0.00275844 0)
(0 -0.00413202 0)
(0 -0.00564283 0)
(0 -0.00705286 0)
(0 -0.00670496 0)
(0 -0.00736849 0)
(0 -0.00691691 0)
(0 -0.00751979 0)
(0 -0.00798386 0)
(0 -0.00853963 0)
(0 -0.00806896 0)
(0 -0.00855542 0)
(0 -0.00880741 0)
(0 -0.00902415 0)
(0 -0.00880711 0)
(0 -0.00941945 0)
(0 -0.0095237 0)
(0 -0.00960782 0)
(0 -0.00950452 0)
(0 -0.00997142 0)
(0 -0.0100548 0)
(0 -0.0101089 0)
(0 -0.0100273 0)
(0 -0.0102982 0)
(0 -0.0103589 0)
(0 -0.0103865 0)
(0 -0.0103253 0)
(0 -0.0104414 0)
(0 -0.0104859 0)
(0 -0.0104923 0)
(0 -0.010449 0)
(0 -0.010478 0)
(0 -0.0105139 0)
(0 -0.0105133 0)
(0 -0.0104771 0)
(0 -0.0104414 0)
(0 -0.0104859 0)
(0 -0.0104771 0)
(0 -0.0104309 0)
(0 -0.0102982 0)
(0 -0.0103589 0)
(0 -0.0103358 0)
(0 -0.0102655 0)
(0 -0.00997142 0)
(0 -0.0100548 0)
(0 -0.0100077 0)
(0 -0.00991067 0)
(0 -0.00941945 0)
(0 -0.0095237 0)
(0 -0.00961909 0)
(0 -0.00943757 0)
(0 -0.00923457 0)
(0 -0.00855542 0)
(0 -0.00880741 0)
(0 -0.0090263 0)
(0 -0.00853963 0)
(0 -0.00806896 0)
(0 -0.00751979 0)
(0 -0.00796562 0)
(0 -0.00736374 0)
(0 -0.00691691 0)
(0 -0.00671298 0)
(0 -0.00707375 0)
(0 -0.00562864 0)
(0 -0.00417318 0)
(0 -0.00278736 0)
(0 -0.00158804 0)
(0 -0.000677684 0)
(0 -0.000135275 0)
(0 0 0)
(0 0 0)
(0 0 0)
(0 0 0)
(0 0 0)
(0 0 0)
(0 0 0)
(0 0 0)
(0 0 0)
(0 0 0)
(0 0 0)
(0 0 0)
(0 0 0)
(0 0 0)
(0 -0.000203568 0)
(0 -0.000830027 0)
(0 -0.00182657 0)
(0 -0.00310905 0)
(0 -0.00456944 0)
(0 -0.00608505 0)
(0 -0.007529 0)
(0 -0.0073501 0)
(0 -0.00800838 0)
(0 -0.00770277 0)
(0 -0.00829871 0)
(0 -0.00860809 0)
(0 -0.00913749 0)
(0 -0.00888179 0)
(0 -0.00936371 0)
(0 -0.00948275 0)
(0 -0.00969015 0)
(0 -0.00957386 0)
(0 -0.0100733 0)
(0 -0.0101282 0)
(0 -0.0101903 0)
(0 -0.010137 0)
(0 -0.010456 0)
(0 -0.0104825 0)
(0 -0.0105047 0)
(0 -0.0104813 0)
(0 -0.0105476 0)
(0 -0.0105476 0)
(0 -0.0105476 0)
(0 -0.0105476 0)
(0 -0.0105476 0)
(0 -0.0105476 0)
(0 -0.0105476 0)
(0 -0.0105476 0)
(0 -0.0105476 0)
(0 -0.0105476 0)
(0 -0.0105476 0)
(0 -0.0105476 0)
(0 -0.0105476 0)
(0 -0.0105476 0)
(0 -0.0105476 0)
(0 -0.0105476 0)
(0 -0.0105476 0)
(0 -0.0105476 0)
(0 -0.0105476 0)
(0 -0.0105476 0)
(0 -0.010456 0)
(0 -0.0104825 0)
(0 -0.0104533 0)
(0 -0.0104256 0)
(0 -0.0100733 0)
(0 -0.0101282 0)
(0 -0.0101752 0)
(0 -0.0100318 0)
(0 -0.009929 0)
(0 -0.00935827 0)
(0 -0.00949658 0)
(0 -0.00960219 0)
(0 -0.00912481 0)
(0 -0.00888969 0)
(0 -0.00834601 0)
(0 -0.00859739 0)
(0 -0.00799988 0)
(0 -0.00773682 0)
(0 -0.00734385 0)
(0 -0.00753274 0)
(0 -0.00608255 0)
(0 -0.00456218 0)
(0 -0.00309907 0)
(0 -0.00181617 0)
(0 -0.000821422 0)
(0 -0.000198681 0)
(0 0 0)
(0 0 0)
(0 0 0)
(0 0 0)
(0 0 0)
(0 0 0)
(0 0 0)
(0 0 0)
(0 0 0)
(0 0 0)
(0 0 0)
(0 0 0)
(0 0 0)
(0 0 0)
(0 -0.000215828 0)
(0 -0.00085656 0)
(0 -0.00186839 0)
(0 -0.00316631 0)
(0 -0.00464125 0)
(0 -0.00616929 0)
(0 -0.00762205 0)
(0 -0.00762473 0)
(0 -0.00828369 0)
(0 -0.00818603 0)
(0 -0.0087813 0)
(0 -0.00887907 0)
(0 -0.00939834 0)
(0 -0.00930271 0)
(0 -0.00975656 0)
(0 -0.00980042 0)
(0 -0.00998239 0)
(0 -0.00994285 0)
(0 -0.0103536 0)
(0 -0.0103705 0)
(0 -0.0104154 0)
(0 -0.0103998 0)
(0 -0.0105476 0)
(0 -0.0105476 0)
(0 -0.0105476 0)
(0 -0.0105476 0)
(0 -0.0105476 0)
(0 -0.0105476 0)
(0 -0.0105476 0)
(0 -0.0105476 0)
(0 -0.0105476 0)
(0 -0.0105476 0)
(0 -0.0105476 0)
(0 -0.0105476 0)
(0 -0.0105476 0)
(0 -0.0105476 0)
(0 -0.0105476 0)
(0 -0.0105476 0)
(0 -0.0105476 0)
(0 -0.0105472 0)
(0 -0.0105457 0)
(0 -0.0103536 0)
(0 -0.0103705 0)
(0 -0.0103817 0)
(0 -0.0102762 0)
(0 -0.010239 0)
(0 -0.00975596 0)
(0 -0.00980104 0)
(0 -0.00983056 0)
(0 -0.00939834 0)
(0 -0.00931623 0)
(0 -0.00879177 0)
(0 -0.00885671 0)
(0 -0.008258 0)
(0 -0.00819316 0)
(0 -0.00759629 0)
(0 -0.00760501 0)
(0 -0.00615032 0)
(0 -0.00462199 0)
(0 -0.00314842 0)
(0 -0.00185343 0)
(0 -0.000845826 0)
(0 -0.000210266 0)
(0 0 0)
(0 0 0)
(0 0 0)
(0 0 0)
(0 0 0)
(0 0 0)
(0 0 0)
(0 0 0)
(0 0 0)
(0 0 0)
(0 0 0)
(0 0 0)
(0 0 0)
(0 0 0)
(0 -0.000176381 0)
(0 -0.000770858 0)
(0 -0.00173425 0)
(0 -0.00298438 0)
(0 -0.00441541 0)
(0 -0.00590703 0)
(0 -0.00733503 0)
(0 -0.00754113 0)
(0 -0.00819899 0)
(0 -0.00828153 0)
(0 -0.00887749 0)
(0 -0.00879487 0)
(0 -0.00931658 0)
(0 -0.00939735 0)
(0 -0.00983016 0)
(0 -0.009807 0)
(0 -0.00998892 0)
(0 -0.010011 0)
(0 -0.0104002 0)
(0 -0.0103947 0)
(0 -0.0104368 0)
(0 -0.0104417 0)
(0 -0.0105476 0)
(0 -0.0105476 0)
(0 -0.0105476 0)
(0 -0.0105476 0)
(0 -0.0105476 0)
(0 -0.0105476 0)
(0 -0.0105476 0)
(0 -0.0105476 0)
(0 -0.0105476 0)
(0 -0.0105476 0)
(0 -0.0105476 0)
(0 -0.0105476 0)
(0 -0.0105476 0)
(0 -0.0105476 0)
(0 -0.0105476 0)
(0 -0.0105476 0)
(0 -0.0104002 0)
(0 -0.0103902 0)
(0 -0.0103847 0)
(0 -0.0102795 0)
(0 -0.0102914 0)
(0 -0.00982102 0)
(0 -0.00980627 0)
(0 -0.00976153 0)
(0 -0.00932295 0)
(0 -0.00938584 0)
(0 -0.00886383 0)
(0 -0.00879952 0)
(0 -0.00820178 0)
(0 -0.00826601 0)
(0 -0.00754205 0)
(0 -0.00735368 0)
(0 -0.00592072 0)
(0 -0.00442436 0)
(0 -0.00298931 0)
(0 -0.00173621 0)
(0 -0.000771049 0)
(0 -0.000175996 0)
(0 0 0)
(0 0 0)
(0 0 0)
(0 0 0)
(0 0 0)
(0 0 0)
(0 0 0)
(0 0 0)
(0 0 0)
(0 0 0)
(0 0 0)
(0 0 0)
(0 0 0)
(0 0 0)
(0 -8.9211e-05 0)
(0 -0.000560351 0)
(0 -0.00139376 0)
(0 -0.00251459 0)
(0 -0.00390948 0)
(0 -0.00533584 0)
(0 -0.00672712 0)
(0 -0.00709608 0)
(0 -0.00775562 0)
(0 -0.0079881 0)
(0 -0.00862184 0)
(0 -0.00836081 0)
(0 -0.0089002 0)
(0 -0.00915942 0)
(0 -0.00961598 0)
(0 -0.00950658 0)
(0 -0.00970501 0)
(0 -0.00981126 0)
(0 -0.0102568 0)
(0 -0.0102257 0)
(0 -0.0102823 0)
(0 -0.0103155 0)
(0 -0.0105349 0)
(0 -0.0105241 0)
(0 -0.010537 0)
(0 -0.0105437 0)
(0 -0.0105476 0)
(0 -0.0105476 0)
(0 -0.0105476 0)
(0 -0.0105476 0)
(0 -0.0105476 0)
(0 -0.0105476 0)
(0 -0.0105476 0)
(0 -0.0105476 0)
(0 -0.0105349 0)
(0 -0.0105225 0)
(0 -0.0105053 0)
(0 -0.0105207 0)
(0 -0.0102568 0)
(0 -0.0102257 0)
(0 -0.0101834 0)
(0 -0.0100492 0)
(0 -0.0101321 0)
(0 -0.00961598 0)
(0 -0.00950658 0)
(0 -0.00938231 0)
(0 -0.0089002 0)
(0 -0.00915942 0)
(0 -0.00860577 0)
(0 -0.00836081 0)
(0 -0.00775562 0)
(0 -0.00800907 0)
(0 -0.00709608 0)
(0 -0.00672712 0)
(0 -0.00533584 0)
(0 -0.0038591 0)
(0 -0.00253931 0)
(0 -0.00140997 0)
(0 -0.000569224 0)
(0 -9.22091e-05 0)
(0 0 0)
(0 0 0)
(0 0 0)
(0 0 0)
(0 0 0)
(0 0 0)
(0 0 0)
(0 0 0)
(0 0 0)
(0 0 0)
(0 0 0)
(0 0 0)
(0 0 0)
(0 0 0)
(0 -1.10385e-05 0)
(0 -0.000327676 0)
(0 -0.000997812 0)
(0 -0.00196211 0)
(0 -0.0031324 0)
(0 -0.00440599 0)
(0 -0.00574242 0)
(0 -0.00624916 0)
(0 -0.00692868 0)
(0 -0.00737426 0)
(0 -0.00800373 0)
(0 -0.00752361 0)
(0 -0.00811941 0)
(0 -0.00855114 0)
(0 -0.00905411 0)
(0 -0.00885243 0)
(0 -0.0090746 0)
(0 -0.00927457 0)
(0 -0.00981436 0)
(0 -0.00972455 0)
(0 -0.00980622 0)
(0 -0.00988083 0)
(0 -0.0102914 0)
(0 -0.0102324 0)
(0 -0.0102755 0)
(0 -0.0103322 0)
(0 -0.0105047 0)
(0 -0.0104717 0)
(0 -0.0104862 0)
(0 -0.0105164 0)
(0 -0.0105476 0)
(0 -0.0105418 0)
(0 -0.0105441 0)
(0 -0.0105476 0)
(0 -0.0105476 0)
(0 -0.0105476 0)
(0 -0.0105476 0)
(0 -0.0105476 0)
(0 -0.0105476 0)
(0 -0.0105476 0)
(0 -0.0105418 0)
(0 -0.0105385 0)
(0 -0.0105473 0)
(0 -0.0105475 0)
(0 -0.0105047 0)
(0 -0.0104717 0)
(0 -0.0104538 0)
(0 -0.0104898 0)
(0 -0.0102914 0)
(0 -0.0102324 0)
(0 -0.0101843 0)
(0 -0.0102455 0)
(0 -0.0098216 0)
(0 -0.00973914 0)
(0 -0.00964006 0)
(0 -0.00947623 0)
(0 -0.00965436 0)
(0 -0.00902925 0)
(0 -0.00884217 0)
(0 -0.00862365 0)
(0 -0.00810825 0)
(0 -0.00855114 0)
(0 -0.00800373 0)
(0 -0.00752361 0)
(0 -0.00692868 0)
(0 -0.00737426 0)
(0 -0.00624916 0)
(0 -0.00574242 0)
(0 -0.00440599 0)
(0 -0.0031324 0)
(0 -0.00196211 0)
(0 -0.000997812 0)
(0 -0.000305657 0)
(0 -1.32593e-05 0)
(0 0 0)
(0 0 0)
(0 0 0)
(0 0 0)
(0 0 0)
(0 0 0)
(0 0 0)
(0 0 0)
(0 0 0)
(0 0 0)
(0 0 0)
(0 0 0)
(0 0 0)
(0 0 0)
(0 0 0)
(0 -0.000100718 0)
(0 -0.000530748 0)
(0 -0.00124873 0)
(0 -0.00217978 0)
(0 -0.00334306 0)
(0 -0.00454583 0)
(0 -0.00511322 0)
(0 -0.00578275 0)
(0 -0.00635528 0)
(0 -0.00697598 0)
(0 -0.00638549 0)
(0 -0.00694905 0)
(0 -0.00755939 0)
(0 -0.00808761 0)
(0 -0.00746351 0)
(0 -0.0078942 0)
(0 -0.0082518 0)
(0 -0.00855239 0)
(0 -0.00832837 0)
(0 -0.00895209 0)
(0 -0.00863957 0)
(0 -0.00883275 0)
(0 -0.00912884 0)
(0 -0.00957129 0)
(0 -0.00930335 0)
(0 -0.00941051 0)
(0 -0.00968825 0)
(0 -0.00996337 0)
(0 -0.00972591 0)
(0 -0.00979567 0)
(0 -0.0100292 0)
(0 -0.0101667 0)
(0 -0.0099476 0)
(0 -0.00998626 0)
(0 -0.0101936 0)
(0 -0.0102297 0)
(0 -0.0100273 0)
(0 -0.0100169 0)
(0 -0.0102214 0)
(0 -0.0101667 0)
(0 -0.0099476 0)
(0 -0.00989274 0)
(0 -0.0101245 0)
(0 -0.00996337 0)
(0 -0.00972591 0)
(0 -0.00963874 0)
(0 -0.00988041 0)
(0 -0.00957129 0)
(0 -0.00930335 0)
(0 -0.00916479 0)
(0 -0.00943569 0)
(0 -0.00895209 0)
(0 -0.00863957 0)
(0 -0.00845818 0)
(0 -0.00875902 0)
(0 -0.00808761 0)
(0 -0.00746351 0)
(0 -0.00694905 0)
(0 -0.00755939 0)
(0 -0.00697598 0)
(0 -0.00638549 0)
(0 -0.00578275 0)
(0 -0.00635528 0)
(0 -0.00511322 0)
(0 -0.00454583 0)
(0 -0.00334306 0)
(0 -0.00217978 0)
(0 -0.00124873 0)
(0 -0.000530748 0)
(0 -0.000100718 0)
(0 0 0)
(0 0 0)
(0 0 0)
(0 0 0)
(0 0 0)
(0 0 0)
(0 0 0)
(0 0 0)
(0 0 0)
(0 0 0)
(0 0 0)
(0 0 0)
(0 0 0)
(0 0 0)
(0 0 0)
(0 0 0)
(0 0 0)
(0 -0.000151778 0)
(0 -0.000626729 0)
(0 -0.00134353 0)
(0 -0.0022325 0)
(0 -0.00320622 0)
(0 -0.00416742 0)
(0 -0.00491334 0)
(0 -0.00570651 0)
(0 -0.00513743 0)
(0 -0.00544715 0)
(0 -0.00624217 0)
(0 -0.00671464 0)
(0 -0.00594733 0)
(0 -0.00640479 0)
(0 -0.00719681 0)
(0 -0.00762272 0)
(0 -0.0072286 0)
(0 -0.00738072 0)
(0 -0.00781268 0)
(0 -0.00829738 0)
(0 -0.00790987 0)
(0 -0.00805366 0)
(0 -0.00844228 0)
(0 -0.00877251 0)
(0 -0.00838276 0)
(0 -0.00844702 0)
(0 -0.00884751 0)
(0 -0.00905743 0)
(0 -0.00868315 0)
(0 -0.00872687 0)
(0 -0.00910078 0)
(0 -0.00915175 0)
(0 -0.00877983 0)
(0 -0.00876184 0)
(0 -0.00913541 0)
(0 -0.00905743 0)
(0 -0.00868315 0)
(0 -0.00862193 0)
(0 -0.00899658 0)
(0 -0.00877251 0)
(0 -0.00838276 0)
(0 -0.0082903 0)
(0 -0.00867996 0)
(0 -0.00829738 0)
(0 -0.00790987 0)
(0 -0.0077495 0)
(0 -0.00813538 0)
(0 -0.00762272 0)
(0 -0.0072286 0)
(0 -0.00677309 0)
(0 -0.00640479 0)
(0 -0.00719681 0)
(0 -0.00671464 0)
(0 -0.00594733 0)
(0 -0.00544715 0)
(0 -0.00624217 0)
(0 -0.00570651 0)
(0 -0.00491334 0)
(0 -0.00416742 0)
(0 -0.00320622 0)
(0 -0.00513743 0)
(0 -0.0022325 0)
(0 -0.00134353 0)
(0 -0.000626729 0)
(0 -0.000151778 0)
(0 0 0)
(0 0 0)
(0 0 0)
(0 0 0)
(0 0 0)
(0 0 0)
(0 0 0)
(0 0 0)
(0 0 0)
(0 0 0)
(0 0 0)
(0 0 0)
(0 0 0)
(0 0 0)
(0 0 0)
(0 0 0)
(0 0 0)
(0 0 0)
(0 -1.92474e-06 0)
(0 -0.000172425 0)
(0 -0.000584293 0)
(0 -0.001145 0)
(0 -0.00187413 0)
(0 -0.00265173 0)
(0 -0.00340356 0)
(0 -0.00384246 0)
(0 -0.00465713 0)
(0 -0.005119 0)
(0 -0.00421243 0)
(0 -0.00462984 0)
(0 -0.00549958 0)
(0 -0.00591685 0)
(0 -0.00546846 0)
(0 -0.005652 0)
(0 -0.00610766 0)
(0 -0.00659954 0)
(0 -0.00612638 0)
(0 -0.00625694 0)
(0 -0.00673456 0)
(0 -0.0070405 0)
(0 -0.0065667 0)
(0 -0.00667218 0)
(0 -0.00714906 0)
(0 -0.00737652 0)
(0 -0.00689358 0)
(0 -0.00693491 0)
(0 -0.00741892 0)
(0 -0.00747479 0)
(0 -0.00699081 0)
(0 -0.00696806 0)
(0 -0.00745292 0)
(0 -0.00737652 0)
(0 -0.00689358 0)
(0 -0.00683588 0)
(0 -0.0073173 0)
(0 -0.0070405 0)
(0 -0.0065667 0)
(0 -0.00644592 0)
(0 -0.00695828 0)
(0 -0.00659954 0)
(0 -0.00612638 0)
(0 -0.00598164 0)
(0 -0.00644967 0)
(0 -0.00591685 0)
(0 -0.00546846 0)
(0 -0.00501196 0)
(0 -0.00462984 0)
(0 -0.00549958 0)
(0 -0.005119 0)
(0 -0.00421243 0)
(0 -0.00384246 0)
(0 -0.00465713 0)
(0 -0.00340356 0)
(0 -0.00265173 0)
(0 -0.00187413 0)
(0 -0.001145 0)
(0 -0.000584293 0)
(0 -0.000172425 0)
(0 -1.92474e-06 0)
(0 0 0)
(0 0 0)
(0 0 0)
(0 0 0)
(0 0 0)
(0 0 0)
(0 0 0)
(0 0 0)
(0 0 0)
(0 0 0)
(0 0 0)
(0 0 0)
(0 0 0)
(0 0 0)
(0 0 0)
(0 0 0)
(0 0 0)
(0 0 0)
(0 0 0)
(0 0 0)
(0 -9.05518e-05 0)
(0 -0.000377145 0)
(0 -0.000764022 0)
(0 -0.00128647 0)
(0 -0.00190224 0)
(0 -0.00224305 0)
(0 -0.00298886 0)
(0 -0.00338027 0)
(0 -0.00257704 0)
(0 -0.00289581 0)
(0 -0.00375062 0)
(0 -0.00409182 0)
(0 -0.003637 0)
(0 -0.00378446 0)
(0 -0.00424919 0)
(0 -0.00465896 0)
(0 -0.00416939 0)
(0 -0.00423964 0)
(0 -0.00472225 0)
(0 -0.00507856 0)
(0 -0.00457609 0)
(0 -0.0046641 0)
(0 -0.00517159 0)
(0 -0.00536764 0)
(0 -0.00484978 0)
(0 -0.0048846 0)
(0 -0.00540436 0)
(0 -0.00545787 0)
(0 -0.00493655 0)
(0 -0.00491256 0)
(0 -0.00543384 0)
(0 -0.00536764 0)
(0 -0.00484978 0)
(0 -0.00480127 0)
(0 -0.00531645 0)
(0 -0.00507856 0)
(0 -0.00457609 0)
(0 -0.00447567 0)
(0 -0.00497233 0)
(0 -0.00465896 0)
(0 -0.00416939 0)
(0 -0.00405136 0)
(0 -0.00453347 0)
(0 -0.00409182 0)
(0 -0.003637 0)
(0 -0.00319162 0)
(0 -0.00289581 0)
(0 -0.00375062 0)
(0 -0.00338027 0)
(0 -0.00257704 0)
(0 -0.00224305 0)
(0 -0.00298886 0)
(0 -0.00190224 0)
(0 -0.00128647 0)
(0 -0.000764022 0)
(0 -0.000377145 0)
(0 -9.05518e-05 0)
(0 0 0)
(0 0 0)
(0 0 0)
(0 0 0)
(0 0 0)
(0 0 0)
(0 0 0)
(0 0 0)
(0 0 0)
(0 0 0)
(0 0 0)
(0 0 0)
(0 0 0)
(0 0 0)
(0 0 0)
(0 0 0)
(0 0 0)
(0 0 0)
(0 0 0)
(0 0 0)
(0 0 0)
(0 0 0)
(0 0 0)
(0 -7.71119e-06 0)
(0 -0.0001308 0)
(0 -0.000365045 0)
(0 -0.000765785 0)
(0 -0.000974271 0)
(0 -0.00156172 0)
(0 -0.00183528 0)
(0 -0.00118597 0)
(0 -0.00139372 0)
(0 -0.00209935 0)
(0 -0.00234667 0)
(0 -0.0019556 0)
(0 -0.00205963 0)
(0 -0.00246197 0)
(0 -0.00273967 0)
(0 -0.00231866 0)
(0 -0.00241627 0)
(0 -0.00284692 0)
(0 -0.00311719 0)
(0 -0.00266292 0)
(0 -0.00272799 0)
(0 -0.00318832 0)
(0 -0.00333895 0)
(0 -0.00286599 0)
(0 -0.00289198 0)
(0 -0.00336728 0)
(0 -0.00341253 0)
(0 -0.00293439 0)
(0 -0.00291287 0)
(0 -0.00339005 0)
(0 -0.00333895 0)
(0 -0.00286599 0)
(0 -0.00282984 0)
(0 -0.00329952 0)
(0 -0.00311719 0)
(0 -0.00266292 0)
(0 -0.00258896 0)
(0 -0.00303626 0)
(0 -0.00273967 0)
(0 -0.00231866 0)
(0 -0.00221438 0)
(0 -0.00262488 0)
(0 -0.00234667 0)
(0 -0.0019556 0)
(0 -0.00159084 0)
(0 -0.00139372 0)
(0 -0.00209935 0)
(0 -0.00183528 0)
(0 -0.00118597 0)
(0 -0.000974271 0)
(0 -0.00156172 0)
(0 -0.000765785 0)
(0 -0.000365045 0)
(0 -0.0001308 0)
(0 -7.71119e-06 0)
(0 0 0)
(0 0 0)
(0 0 0)
(0 0 0)
(0 0 0)
(0 0 0)
(0 0 0)
(0 0 0)
(0 0 0)
(0 0 0)
(0 0 0)
(0 0 0)
(0 0 0)
(0 0 0)
(0 0 0)
(0 0 0)
(0 0 0)
(0 0 0)
(0 0 0)
(0 0 0)
(0 0 0)
(0 0 0)
(0 0 0)
(0 0 0)
(0 0 0)
(0 0 0)
(0 -1.39781e-06 0)
(0 -0.000105017 0)
(0 -0.00018292 0)
(0 -0.000507219 0)
(0 -0.00065717 0)
(0 -0.000272755 0)
(0 -0.000368824 0)
(0 -0.000808452 0)
(0 -0.000954987 0)
(0 -0.000657373 0)
(0 -0.000724669 0)
(0 -0.00099107 0)
(0 -0.00121687 0)
(0 -0.000915794 0)
(0 -0.000973809 0)
(0 -0.00128479 0)
(0 -0.0014585 0)
(0 -0.00112308 0)
(0 -0.00116305 0)
(0 -0.00150478 0)
(0 -0.00160354 0)
(0 -0.0012486 0)
(0 -0.00126482 0)
(0 -0.00162222 0)
(0 -0.0016547 0)
(0 -0.00129362 0)
(0 -0.00127789 0)
(0 -0.00163725 0)
(0 -0.00160354 0)
(0 -0.0012486 0)
(0 -0.00122609 0)
(0 -0.00157759 0)
(0 -0.0014585 0)
(0 -0.00112308 0)
(0 -0.00107794 0)
(0 -0.00140611 0)
(0 -0.00121687 0)
(0 -0.000915794 0)
(0 -0.00085453 0)
(0 -0.00114485 0)
(0 -0.000954987 0)
(0 -0.000657373 0)
(0 -0.000442056 0)
(0 -0.000368824 0)
(0 -0.000808452 0)
(0 -0.00065717 0)
(0 -0.000272755 0)
(0 -0.00018292 0)
(0 -0.000507219 0)
(0 -0.000105017 0)
(0 -1.39781e-06 0)
(0 0 0)
(0 0 0)
(0 0 0)
(0 0 0)
(0 0 0)
(0 0 0)
(0 0 0)
(0 0 0)
(0 0 0)
(0 0 0)
(0 0 0)
(0 0 0)
(0 0 0)
(0 0 0)
(0 0 0)
(0 0 0)
(0 0 0)
(0 0 0)
(0 0 0)
(0 0 0)
(0 0 0)
(0 0 0)
(0 0 0)
(0 0 0)
(0 0 0)
(0 0 0)
(0 0 0)
(0 0 0)
(0 0 0)
(0 0 0)
(0 0 0)
(0 -5.13362e-05 0)
(0 -1.85677e-05 0)
(0 0 0)
(0 -8.07259e-05 0)
(0 -0.000134863 0)
(0 -4.12881e-06 0)
(0 -1.80468e-05 0)
(0 -0.000194348 0)
(0 -0.000254624 0)
(0 -3.80542e-05 0)
(0 -6.05932e-05 0)
(0 -0.000311579 0)
(0 -0.000361641 0)
(0 -8.2558e-05 0)
(0 -0.00010137 0)
(0 -0.000401855 0)
(0 -0.000429953 0)
(0 -0.000115042 0)
(0 -0.00012222 0)
(0 -0.000444392 0)
(0 -0.000455946 0)
(0 -0.000128353 0)
(0 -0.00012222 0)
(0 -0.000444392 0)
(0 -0.000429953 0)
(0 -0.000115042 0)
(0 -0.00010137 0)
(0 -0.000401855 0)
(0 -0.000361641 0)
(0 -8.2558e-05 0)
(0 -6.05932e-05 0)
(0 -0.000311579 0)
(0 -0.000254624 0)
(0 -3.80542e-05 0)
(0 -1.80468e-05 0)
(0 -0.000194348 0)
(0 -0.000134863 0)
(0 -4.12881e-06 0)
(0 0 0)
(0 -8.07259e-05 0)
(0 -5.13362e-05 0)
(0 0 0)
(0 0 0)
(0 0 0)
(0 -1.85677e-05 0)
(0 0 0)
(0 0 0)
(0 0 0)
(0 0 0)
(0 0 0)
(0 0 0)
(0 0 0)
(0 0 0)
(0 0 0)
(0 0 0)
(0 0 0)
(0 0 0)
(0 0 0)
(0 0 0)
(0 0 0)
(0 0 0)
(0 0 0)
(0 0 0)
(0 0 0)
(0 0 0)
(0 0 0)
(0 0 0)
(0 0 0)
(0 0 0)
(0 0 0)
(0 0 0)
(0 0 0)
(0 0 0)
(0 0 0)
(0 0 0)
(0 0 0)
(0 0 0)
(0 0 0)
(0 0 0)
(0 0 0)
(0 0 0)
(0 0 0)
(0 0 0)
(0 0 0)
(0 0 0)
(0 -3.71053e-07 0)
(0 0 0)
(0 0 0)
(0 -1.42793e-06 0)
(0 -8.49597e-07 0)
(0 0 0)
(0 -3.71053e-07 0)
(0 -8.49597e-07 0)
(0 0 0)
(0 0 0)
(0 0 0)
(0 0 0)
(0 0 0)
(0 0 0)
(0 0 0)
(0 0 0)
(0 0 0)
(0 0 0)
(0 0 0)
(0 0 0)
(0 0 0)
(0 0 0)
(0 0 0)
(0 0 0)
(0 0 0)
(0 0 0)
(0 0 0)
(0 0 0)
(0 0 0)
(0 0 0)
(0 0 0)
(0 0 0)
(0 0 0)
(0 0 0)
(0 0 0)
(0 0 0)
(0 0 0)
(0 0 0)
(0 0 0)
(0 0 0)
(0 0 0)
(0 0 0)
(0 0 0)
(0 0 0)
(0 0 0)
(0 0 0)
(0 0 0)
(0 0 0)
(0 0 0)
(0 0 0)
(0 0 0)
(0 0 0)
(0 0 0)
(0 0 0)
(0 0 0)
(0 0 0)
(0 0 0)
(0 0 0)
(0 0 0)
(0 0 0)
(0 0 0)
(0 0 0)
(0 0 0)
(0 0 0)
(0 0 0)
(0 0 0)
(0 0 0)
(0 0 0)
(0 0 0)
(0 0 0)
(0 0 0)
(0 0 0)
(0 0 0)
(0 0 0)
(0 0 0)
(0 0 0)
(0 0 0)
(0 0 0)
(0 0 0)
(0 0 0)
(0 0 0)
(0 0 0)
(0 0 0)
(0 0 0)
(0 0 0)
(0 0 0)
(0 0 0)
(0 0 0)
(0 0 0)
(0 0 0)
(0 0 0)
(0 0 0)
(0 0 0)
(0 0 0)
(0 0 0)
(0 0 0)
(0 0 0)
(0 0 0)
(0 0 0)
(0 0 0)
(0 0 0)
(0 0 0)
(0 0 0)
(0 0 0)
(0 0 0)
(0 0 0)
(0 0 0)
(0 0 0)
(0 0 0)
(0 0 0)
(0 0 0)
(0 0 0)
(0 0 0)
(0 0 0)
(0 0 0)
(0 0 0)
(0 0 0)
(0 0 0)
(0 0 0)
(0 0 0)
(0 0 0)
(0 0 0)
(0 0 0)
(0 0 0)
(0 0 0)
(0 0 0)
(0 0 0)
(0 0 0)
(0 0 0)
(0 0 0)
(0 0 0)
(0 0 0)
(0 0 0)
(0 0 0)
(0 0 0)
(0 0 0)
(0 0 0)
(0 0 0)
(0 0 0)
(0 0 0)
(0 0 0)
(0 0 0)
(0 0 0)
(0 0 0)
(0 0 0)
(0 0 0)
(0 0 0)
(0 0 0)
(0 0 0)
(0 0 0)
(0 0 0)
(0 0 0)
(0 0 0)
(0 0 0)
(0 0 0)
(0 0 0)
(0 0 0)
(0 0 0)
(0 0 0)
(0 0 0)
(0 0 0)
(0 0 0)
(0 0 0)
(0 0 0)
(0 0 0)
(0 0 0)
(0 0 0)
(0 0 0)
(0 0 0)
(0 0 0)
(0 0 0)
(0 0 0)
(0 0 0)
(0 0 0)
(0 0 0)
(0 0 0)
(0 0 0)
(0 0 0)
(0 0 0)
(0 0 0)
(0 0 0)
(0 0 0)
(0 0 0)
(0 0 0)
(0 0 0)
(0 0 0)
(0 0 0)
(0 0 0)
(0 0 0)
(0 0 0)
(0 0 0)
(0 0 0)
(0 0 0)
(0 0 0)
(0 0 0)
(0 0 0)
(0 0 0)
(0 0 0)
(0 0 0)
(0 0 0)
(0 0 0)
(0 0 0)
(0 0 0)
(0 0 0)
(0 0 0)
(0 0 0)
(0 0 0)
(0 0 0)
(0 0 0)
(0 0 0)
(0 0 0)
(0 0 0)
(0 0 0)
(0 0 0)
(0 0 0)
(0 0 0)
(0 0 0)
(0 0 0)
(0 0 0)
(0 0 0)
(0 0 0)
(0 0 0)
(0 0 0)
(0 0 0)
(0 0 0)
(0 0 0)
(0 0 0)
(0 0 0)
(0 0 0)
(0 0 0)
(0 0 0)
(0 0 0)
(0 0 0)
(0 0 0)
(0 0 0)
(0 0 0)
(0 0 0)
(0 0 0)
(0 0 0)
(0 0 0)
(0 0 0)
(0 0 0)
(0 0 0)
(0 0 0)
(0 0 0)
(0 0 0)
(0 0 0)
(0 0 0)
(0 0 0)
(0 0 0)
(0 0 0)
(0 0 0)
(0 0 0)
(0 0 0)
(0 0 0)
(0 0 0)
(0 0 0)
(0 0 0)
(0 0 0)
(0 0 0)
(0 0 0)
(0 0 0)
(0 0 0)
(0 0 0)
(0 0 0)
(0 0 0)
(0 0 0)
(0 0 0)
(0 0 0)
(0 0 0)
(0 0 0)
(0 0 0)
(0 0 0)
(0 0 0)
(0 0 0)
(0 0 0)
(0 0 0)
(0 0 0)
(0 0 0)
(0 0 0)
(0 0 0)
(0 0 0)
(0 0 0)
(0 0 0)
(0 0 0)
(0 0 0)
(0 0 0)
(0 0 0)
(0 0 0)
(0 0 0)
(0 0 0)
(0 0 0)
(0 0 0)
(0 0 0)
(0 0 0)
(0 0 0)
(0 0 0)
(0 0 0)
(0 0 0)
(0 0 0)
(0 0 0)
(0 0 0)
(0 0 0)
(0 0 0)
(0 0 0)
(0 0 0)
(0 0 0)
(0 0 0)
(0 0 0)
(0 0 0)
(0 0 0)
(0 0 0)
(0 0 0)
(0 0 0)
(0 0 0)
(0 0 0)
(0 0 0)
(0 0 0)
(0 0 0)
(0 0 0)
(0 0 0)
(0 0 0)
(0 0 0)
(0 0 0)
(0 0 0)
(0 0 0)
(0 0 0)
(0 0 0)
(0 0 0)
(0 0 0)
(0 0 0)
(0 0 0)
(0 0 0)
(0 0 0)
(0 0 0)
(0 0 0)
(0 0 0)
(0 0 0)
(0 0 0)
(0 0 0)
(0 0 0)
(0 0 0)
(0 0 0)
(0 0 0)
(0 0 0)
(0 0 0)
(0 0 0)
(0 0 0)
(0 0 0)
(0 0 0)
(0 0 0)
(0 0 0)
(0 0 0)
(0 0 0)
(0 0 0)
(0 0 0)
(0 0 0)
(0 0 0)
(0 0 0)
(0 0 0)
(0 0 0)
(0 0 0)
(0 0 0)
(0 0 0)
(0 0 0)
(0 0 0)
(0 0 0)
(0 0 0)
(0 0 0)
(0 0 0)
(0 0 0)
(0 0 0)
(0 0 0)
(0 0 0)
(0 0 0)
(0 0 0)
(0 0 0)
(0 0 0)
(0 0 0)
(0 0 0)
(0 0 0)
(0 0 0)
(0 0 0)
(0 0 0)
(0 0 0)
(0 0 0)
(0 0 0)
(0 0 0)
(0 0 0)
(0 0 0)
(0 0 0)
(0 0 0)
(0 0 0)
(0 0 0)
(0 0 0)
(0 0 0)
(0 0 0)
(0 0 0)
(0 0 0)
(0 0 0)
(0 0 0)
(0 0 0)
(0 0 0)
(0 0 0)
(0 0 0)
(0 0 0)
(0 0 0)
(0 0 0)
(0 0 0)
(0 0 0)
(0 0 0)
(0 0 0)
(0 0 0)
(0 0 0)
(0 0 0)
(0 0 0)
(0 0 0)
(0 0 0)
(0 0 0)
(0 0 0)
(0 0 0)
(0 0 0)
(0 0 0)
(0 0 0)
(0 0 0)
(0 0 0)
(0 0 0)
(0 0 0)
(0 0 0)
(0 0 0)
(0 0 0)
(0 0 0)
(0 0 0)
(0 0 0)
(0 0 0)
(0 0 0)
(0 0 0)
(0 0 0)
(0 0 0)
(0 0 0)
(0 0 0)
(0 0 0)
(0 0 0)
(0 0 0)
(0 0 0)
(0 0 0)
(0 0 0)
(0 0 0)
(0 0 0)
(0 0 0)
(0 0 0)
(0 0 0)
(0 0 0)
(0 0 0)
(0 0 0)
(0 0 0)
(0 0 0)
(0 0 0)
(0 0 0)
(0 0 0)
(0 0 0)
(0 0 0)
(0 0 0)
(0 0 0)
(0 0 0)
(0 0 0)
(0 0 0)
(0 0 0)
(0 0 0)
(0 0 0)
(0 0 0)
(0 0 0)
(0 0 0)
(0 0 0)
(0 0 0)
(0 0 0)
(0 0 0)
(0 0 0)
(0 0 0)
(0 0 0)
(0 0 0)
(0 0 0)
(0 0 0)
(0 0 0)
(0 0 0)
(0 0 0)
(0 0 0)
(0 0 0)
(0 0 0)
(0 0 0)
(0 0 0)
(0 0 0)
(0 0 0)
(0 0 0)
(0 0 0)
(0 0 0)
(0 0 0)
(0 0 0)
(0 0 0)
(0 0 0)
(0 0 0)
(0 0 0)
(0 0 0)
(0 0 0)
(0 0 0)
(0 0 0)
(0 0 0)
(0 0 0)
(0 0 0)
(0 0 0)
(0 0 0)
(0 0 0)
(0 0 0)
(0 0 0)
(0 0 0)
(0 0 0)
(0 0 0)
(0 0 0)
(0 0 0)
(0 0 0)
(0 0 0)
(0 0 0)
(0 0 0)
(0 0 0)
(0 0 0)
(0 0 0)
(0 0 0)
(0 0 0)
(0 0 0)
(0 0 0)
(0 0 0)
(0 0 0)
(0 0 0)
(0 0 0)
(0 0 0)
(0 0 0)
(0 0 0)
(0 0 0)
(0 0 0)
(0 0 0)
(0 0 0)
(0 0 0)
(0 0 0)
(0 0 0)
(0 0 0)
(0 0 0)
(0 0 0)
(0 0 0)
(0 0 0)
(0 0 0)
(0 0 0)
(0 0 0)
(0 0 0)
(0 0 0)
(0 0 0)
(0 0 0)
(0 0 0)
(0 0 0)
(0 0 0)
(0 0 0)
(0 0 0)
(0 0 0)
(0 0 0)
(0 0 0)
(0 0 0)
(0 0 0)
(0 0 0)
(0 0 0)
(0 0 0)
(0 0 0)
(0 0 0)
(0 0 0)
(0 0 0)
(0 0 0)
(0 0 0)
(0 0 0)
(0 0 0)
(0 0 0)
(0 0 0)
(0 0 0)
(0 0 0)
(0 0 0)
(0 0 0)
(0 0 0)
(0 0 0)
(0 0 0)
(0 0 0)
(0 0 0)
(0 0 0)
(0 0 0)
(0 0 0)
(0 0 0)
(0 0 0)
(0 0 0)
(0 0 0)
(0 0 0)
(0 0 0)
(0 0 0)
(0 0 0)
(0 0 0)
(0 0 0)
(0 0 0)
(0 0 0)
(0 0 0)
(0 0 0)
(0 0 0)
(0 0 0)
(0 0 0)
(0 0 0)
(0 0 0)
(0 0 0)
(0 0 0)
(0 0 0)
(0 0 0)
(0 0 0)
(0 0 0)
(0 0 0)
(0 0 0)
(0 0 0)
(0 0 0)
(0 0 0)
(0 0 0)
(0 0 0)
(0 0 0)
(0 0 0)
(0 0 0)
(0 0 0)
(0 0 0)
(0 0 0)
(0 0 0)
(0 0 0)
(0 0 0)
(0 0 0)
(0 0 0)
(0 0 0)
(0 0 0)
(0 0 0)
(0 0 0)
(0 0 0)
(0 0 0)
(0 0 0)
(0 0 0)
(0 0 0)
(0 0 0)
(0 0 0)
(0 0 0)
(0 0 0)
(0 0 0)
(0 0 0)
(0 0 0)
(0 0 0)
(0 0 0)
(0 0 0)
(0 0 0)
(0 0 0)
(0 0 0)
(0 0 0)
(0 0 0)
(0 0 0)
(0 0 0)
(0 0 0)
(0 0 0)
(0 0 0)
(0 0 0)
(0 0 0)
(0 0 0)
(0 0 0)
(0 0 0)
(0 0 0)
(0 0 0)
(0 0 0)
(0 0 0)
(0 0 0)
(0 0 0)
(0 0 0)
(0 0 0)
(0 0 0)
(0 0 0)
(0 0 0)
(0 0 0)
(0 0 0)
(0 0 0)
(0 0 0)
(0 0 0)
(0 0 0)
(0 0 0)
(0 0 0)
(0 0 0)
(0 0 0)
(0 0 0)
(0 0 0)
(0 0 0)
(0 0 0)
(0 0 0)
(0 0 0)
(0 0 0)
(0 0 0)
(0 0 0)
(0 0 0)
(0 0 0)
(0 0 0)
(0 0 0)
(0 0 0)
(0 0 0)
(0 0 0)
(0 0 0)
(0 0 0)
(0 0 0)
(0 0 0)
(0 0 0)
(0 0 0)
(0 0 0)
(0 0 0)
(0 0 0)
(0 0 0)
(0 0 0)
(0 0 0)
(0 0 0)
(0 0 0)
(0 0 0)
(0 0 0)
(0 0 0)
(0 0 0)
(0 0 0)
(0 0 0)
(0 0 0)
(0 0 0)
(0 0 0)
(0 0 0)
(0 0 0)
(0 0 0)
(0 0 0)