/*--------------------------------*- C++ -*----------------------------------*\
| =========                 |                                                 |
| \\      /  F ield         | OpenFOAM: The Open Source CFD Toolbox           |
|  \\    /   O peration     | Version:  v2106                                 |
|   \\  /    A nd           | Website:  www.openfoam.com                      |
|    \\/     M anipulation  |                                                 |
\*---------------------------------------------------------------------------*/
FoamFile
{
    version     2.0;
    format      ascii;
    arch        "LSB;label=32;scalar=64";
    class       volVectorField;
    location    "0";
    object      U;
}
// * * * * * * * * * * * * * * * * * * * * * * * * * * * * * * * * * * * * * //

dimensions      [0 1 -1 0 0 0 0];

internalField   nonuniform List<vector> 
11644
(
(0.995534 -0.000219856 4.0299e-24)
(0.995426 -0.000573496 1.11133e-23)
(0.995364 -0.000835377 5.96255e-24)
(0.995348 -0.00110251 0)
(0.99534 -0.00137916 0)
(0.995336 -0.00166044 0)
(0.995333 -0.00193694 0)
(0.995329 -0.00219721 0)
(0.995326 -0.0024282 0)
(0.995314 -0.00261824 0)
(0.995318 -0.00274356 0)
(0.995292 -0.00279189 0)
(0.995297 -0.00273501 0)
(0.995438 -0.00257344 0)
(0.995272 -0.00225049 0)
(0.995261 -0.00184295 0)
(0.995184 -0.00132028 0)
(0.994917 -0.000601159 0)
(0.994691 0.000413124 0)
(0.994766 0.0016147 3.39018e-30)
(0.995107 0.00266955 -3.40783e-30)
(0.995435 0.00338745 0)
(0.995491 0.00378843 0)
(0.995374 0.00406996 0)
(0.995307 0.0042919 0)
(0.99535 0.00443083 0)
(0.995536 0.00443841 0)
(0.995367 0.00432331 0)
(0.995303 0.00411752 0)
(0.99533 0.00381783 0)
(0.995354 0.0034669 0)
(0.995347 0.00309433 0)
(0.995351 0.00270421 0)
(0.995351 0.0023186 0)
(0.995351 0.00194361 0)
(0.995352 0.00158615 0)
(0.995355 0.00124886 0)
(0.995374 0.000933825 0)
(0.995443 0.000626185 0)
(0.995551 0.000234676 7.81357e-25)
(0.996287 -0.000453013 5.17638e-24)
(0.996202 -0.0013636 4.79499e-24)
(0.996138 -0.00227045 2.57524e-24)
(0.996123 -0.00315932 0)
(0.996127 -0.00404195 0)
(0.996128 -0.00492442 0)
(0.996113 -0.00579545 0)
(0.996075 -0.00663224 0)
(0.996003 -0.00740201 0)
(0.995898 -0.00806 0)
(0.995724 -0.00855767 0)
(0.995507 -0.0088163 0)
(0.995168 -0.00878285 0)
(0.994565 -0.00837738 0)
(0.994372 -0.00753552 0)
(0.993879 -0.00623411 -1.92216e-24)
(0.993374 -0.00446118 -3.23793e-24)
(0.992928 -0.00237658 -8.52387e-23)
(0.992519 -7.60435e-05 6.35993e-23)
(0.992315 0.00246093 2.62288e-22)
(0.992469 0.00519204 -2.04272e-22)
(0.993031 0.00789074 -8.16479e-23)
(0.993837 0.0101539 4.26954e-23)
(0.99447 0.0116061 2.22118e-24)
(0.9949 0.0124319 1.61422e-24)
(0.995274 0.0128001 0)
(0.995492 0.0128313 0)
(0.996036 0.0124583 0)
(0.996314 0.0117824 0)
(0.996419 0.010903 0)
(0.996468 0.00988116 0)
(0.99649 0.00877178 0)
(0.996462 0.00764289 0)
(0.996416 0.00652138 0)
(0.996361 0.00543058 0)
(0.996305 0.00438021 0)
(0.996262 0.00337001 0)
(0.996249 0.00238701 0)
(0.996286 0.00141504 0)
(0.996351 0.000465627 0)
(0.997824 -0.000715024 0)
(0.997763 -0.00220004 0)
(0.997725 -0.00373267 0)
(0.997726 -0.00527299 0)
(0.997749 -0.00682048 4.72853e-24)
(0.997765 -0.00837936 0)
(0.997752 -0.00994206 0)
(0.997682 -0.0114835 0)
(0.997524 -0.0129565 0)
(0.997231 -0.014299 0)
(0.996761 -0.0154133 0)
(0.996089 -0.0161797 0)
(0.995274 -0.0164389 2.3676e-24)
(0.994464 -0.0160692 -1.54764e-22)
(0.9928 -0.0149444 2.80374e-22)
(0.991479 -0.0130104 3.51566e-22)
(0.990174 -0.0102433 4.6837e-23)
(0.988916 -0.00670818 -5.71142e-22)
(0.987914 -0.00259876 -1.67518e-23)
(0.987393 0.0018896 -2.5595e-22)
(0.987531 0.00647365 1.50107e-22)
(0.988415 0.010946 -2.62103e-23)
(0.990037 0.0149936 6.95731e-22)
(0.992072 0.01816 -6.95873e-22)
(0.993767 0.0200155 2.65072e-22)
(0.995182 0.0208314 -1.9886e-22)
(0.996569 0.0208429 1.28676e-22)
(0.997272 0.0202254 -1.8662e-24)
(0.997954 0.0190996 0)
(0.998412 0.0175885 0)
(0.998605 0.0158775 0)
(0.998644 0.0140609 0)
(0.998585 0.0122116 0)
(0.99846 0.0103891 0)
(0.998307 0.00862133 0)
(0.998152 0.00692251 0)
(0.998019 0.00529175 0)
(0.99793 0.00371081 0)
(0.997898 0.00218102 0)
(0.997917 0.000710519 0)
(1.00019 -0.00102298 0)
(1.00015 -0.00309486 0)
(1.00016 -0.00523125 0)
(1.00021 -0.00742093 0)
(1.00029 -0.00966783 0)
(1.00037 -0.0119759 0)
(1.0004 -0.014342 0)
(1.00034 -0.0167412 0)
(1.00011 -0.0191281 0)
(0.999657 -0.0214184 0)
(0.998907 -0.0234721 -1.06051e-24)
(0.997714 -0.0251083 -6.60808e-23)
(0.995905 -0.0261421 1.57876e-23)
(0.993122 -0.0263898 -7.35148e-23)
(0.990863 -0.025262 5.69951e-23)
(0.987737 -0.0228849 1.19441e-21)
(0.984677 -0.0190891 -5.38839e-22)
(0.981889 -0.0138785 -1.74599e-21)
(0.979899 -0.0075121 3.98248e-22)
(0.979113 -0.000540588 6.05271e-22)
(0.979466 0.00662538 4.11355e-23)
(0.981064 0.0134608 -5.96594e-22)
(0.983858 0.0195226 1.30446e-21)
(0.987638 0.0243005 -1.10685e-21)
(0.991562 0.0275859 2.9541e-22)
(0.994787 0.0290639 1.35036e-22)
(0.997021 0.029166 -2.34547e-23)
(0.999236 0.0280406 7.51277e-23)
(1.00054 0.0262476 3.29065e-23)
(1.00128 0.024021 6.64126e-26)
(1.00169 0.0215319 0)
(1.00175 0.0189645 0)
(1.00161 0.016399 0)
(1.00137 0.013901 0)
(1.00107 0.0115037 0)
(1.00078 0.00921656 0)
(1.00053 0.00703067 0)
(1.00034 0.0049377 0)
(1.00024 0.00290259 0)
(1.00022 0.000960951 0)
(1.00337 -0.00130595 0)
(1.00338 -0.00396836 0)
(1.00346 -0.00672142 0)
(1.00362 -0.00955877 0)
(1.00383 -0.0125218 0)
(1.00404 -0.0156308 0)
(1.0042 -0.018893 0)
(1.00424 -0.022302 0)
(1.00406 -0.0258207 0)
(1.00352 -0.029363 1.62226e-23)
(1.00236 -0.0327885 6.1956e-23)
(1.00038 -0.0358731 -5.79477e-22)
(0.997639 -0.0381975 1.00846e-22)
(0.994623 -0.0392708 -2.03589e-22)
(0.989197 -0.0392255 1.53174e-21)
(0.983739 -0.036902 -1.33341e-21)
(0.978233 -0.0325159 2.3206e-22)
(0.972912 -0.0259468 6.99045e-22)
(0.968661 -0.016836 1.26806e-22)
(0.96633 -0.00583611 -9.37157e-22)
(0.966658 0.00594179 1.19235e-21)
(0.969745 0.0170062 -1.05812e-22)
(0.974982 0.026088 -1.10937e-21)
(0.982004 0.0326462 1.82106e-22)
(0.988227 0.0366585 4.63618e-22)
(0.994102 0.0386312 -9.96191e-22)
(0.999285 0.0382952 5.55892e-22)
(1.00208 0.0365657 6.1931e-22)
(1.00417 0.0337495 -5.04551e-22)
(1.00529 0.0304357 -2.36975e-23)
(1.00573 0.0269971 1.10131e-23)
(1.00579 0.0235517 0)
(1.00552 0.0202344 0)
(1.00509 0.0170631 0)
(1.00461 0.0140632 0)
(1.00413 0.01123 0)
(1.00372 0.00854988 0)
(1.00341 0.00599695 0)
(1.00321 0.00355842 0)
(1.00314 0.00115751 0)
(1.0073 -0.00156868 0)
(1.00738 -0.00478048 0)
(1.0076 -0.00806054 0)
(1.00794 -0.0115136 0)
(1.00838 -0.0151748 0)
(1.00886 -0.0190988 0)
(1.00931 -0.0233189 0)
(1.00964 -0.0278598 0)
(1.00967 -0.0326991 -3.89743e-23)
(1.00914 -0.0377648 -3.71128e-23)
(1.0078 -0.0428962 1.5313e-22)
(1.00557 -0.0477923 4.99812e-22)
(1.00204 -0.0523321 -6.08256e-22)
(0.995642 -0.0566595 8.90301e-22)
(0.989242 -0.0575925 -3.24562e-21)
(0.980198 -0.0561422 1.53182e-21)
(0.969891 -0.0522094 -4.32107e-22)
(0.959238 -0.0434299 1.43073e-21)
(0.950781 -0.029445 -1.084e-21)
(0.946052 -0.0125302 -2.09263e-22)
(0.946416 0.00528553 -7.3498e-22)
(0.951675 0.0221092 2.29709e-21)
(0.961031 0.0361985 -1.36721e-21)
(0.97234 0.0449803 1.56664e-21)
(0.984084 0.0492726 -2.50525e-21)
(0.994073 0.0510578 2.75727e-21)
(1.00092 0.050083 -1.04397e-21)
(1.00665 0.0461716 -4.37424e-22)
(1.0095 0.0418064 4.65965e-22)
(1.0108 0.0370456 1.56627e-22)
(1.01108 0.0323267 3.48652e-23)
(1.01082 0.0278959 -3.24738e-23)
(1.0103 0.0237483 0)
(1.00959 0.0199115 0)
(1.00882 0.0163487 0)
(1.0081 0.0130342 0)
(1.00749 0.00993432 0)
(1.00701 0.00698812 0)
(1.00671 0.00413697 0)
(1.00659 0.00139274 0)
(1.01185 -0.00182082 0)
(1.01203 -0.00542213 0)
(1.01245 -0.00920544 0)
(1.01308 -0.0131637 0)
(1.01389 -0.0174265 0)
(1.01481 -0.0220779 0)
(1.01578 -0.0272134 0)
(1.01666 -0.0328953 -6.99608e-24)
(1.01713 -0.0391076 -7.24264e-23)
(1.01696 -0.0458012 2.09422e-22)
(1.016 -0.0529987 -3.43454e-22)
(1.01371 -0.0608558 1.77068e-22)
(1.00954 -0.068962 4.28806e-22)
(1.00461 -0.0753905 -5.44461e-22)
(0.992602 -0.0821225 -2.77912e-21)
(0.978171 -0.0837618 2.61568e-21)
(0.966675 -0.0722739 2.03645e-21)
(0.950764 -0.0637163 -9.32824e-22)
(0.935837 -0.0464791 -3.015e-21)
(0.925907 -0.0228368 -1.99223e-21)
(0.924663 0.00381166 -2.31974e-21)
(0.932092 0.0280863 -4.88714e-21)
(0.945541 0.0463509 -1.53476e-21)
(0.961227 0.0570376 5.17256e-22)
(0.981959 0.0700129 -2.05624e-21)
(0.996361 0.0691456 1.60871e-21)
(1.00811 0.0632542 9.71408e-22)
(1.0132 0.0578346 -2.17237e-22)
(1.01671 0.0506384 -4.96074e-22)
(1.0181 0.0438478 7.1332e-23)
(1.01797 0.0375494 7.61557e-23)
(1.01711 0.0318585 -3.32706e-24)
(1.01598 0.0268229 3.25053e-24)
(1.01483 0.0223295 0)
(1.01369 0.0182477 0)
(1.01265 0.0144925 0)
(1.01177 0.0109941 0)
(1.0111 0.00771379 0)
(1.01066 0.00456143 0)
(1.01047 0.00147679 0)
(1.01687 -0.00187853 0)
(1.01717 -0.00580695 0)
(1.01785 -0.00986546 0)
(1.01887 -0.0141948 0)
(1.02019 -0.0189261 0)
(1.02177 -0.024171 0)
(1.02353 -0.0300689 0)
(1.02523 -0.0367097 6.91564e-23)
(1.02648 -0.0441384 3.1069e-23)
(1.02733 -0.0525323 -2.16274e-22)
(1.02751 -0.0622009 -5.17704e-22)
(1.0264 -0.0730483 9.33491e-22)
(1.02309 -0.0847771 -2.12242e-22)
(1.01237 -0.0932065 -2.09598e-22)
(1.00272 -0.100517 -3.55672e-22)
(0.986071 -0.108508 4.04882e-23)
(0.960786 -0.109856 1.10252e-22)
(0.932923 -0.10037 6.50986e-22)
(0.90369 -0.0779793 -1.0005e-21)
(0.882424 -0.040743 -3.52857e-21)
(0.878286 0.00474326 3.60032e-21)
(0.893205 0.0463313 -4.07414e-21)
(0.920619 0.0744167 -2.3644e-21)
(0.950311 0.0878392 1.93715e-22)
(0.977256 0.0910383 -1.31244e-21)
(0.998019 0.0855743 2.06739e-21)
(1.01106 0.0776787 -1.23707e-21)
(1.02476 0.0682831 -3.12748e-22)
(1.02701 0.0589871 3.23136e-22)
(1.02746 0.0501945 4.12958e-23)
(1.02651 0.0422544 1.73127e-23)
(1.02474 0.035293 -1.11242e-22)
(1.02264 0.0293308 6.09866e-23)
(1.02076 0.0241993 0)
(1.0191 0.0196792 0)
(1.01765 0.0155879 0)
(1.01645 0.0118233 0)
(1.01554 0.00829285 0)
(1.01494 0.0049376 0)
(1.01469 0.00167717 0)
(1.02208 -0.00196057 0)
(1.02256 -0.00594427 0)
(1.02354 -0.0100438 0)
(1.02504 -0.0145303 0)
(1.02702 -0.0194468 0)
(1.02945 -0.0249982 0)
(1.03226 -0.0313437 5.43234e-24)
(1.03503 -0.0386094 3.84895e-23)
(1.03767 -0.0469849 -3.01559e-22)
(1.04039 -0.057008 1.26784e-22)
(1.04273 -0.0692097 -7.09658e-23)
(1.04393 -0.0838177 -4.07426e-23)
(1.04259 -0.101721 -1.73581e-22)
(1.03069 -0.116038 1.83971e-21)
(1.01962 -0.130725 2.02392e-21)
(0.999763 -0.148209 -1.19279e-21)
(0.968435 -0.153907 1.16686e-21)
(0.920773 -0.153127 2.19484e-21)
(0.867496 -0.129402 -1.98908e-21)
(0.820728 -0.0737558 4.61363e-21)
(0.806332 0.00559347 1.74169e-21)
(0.833491 0.0773013 -3.27763e-21)
(0.884269 0.119291 1.76041e-22)
(0.939342 0.133514 -3.32151e-22)
(0.979664 0.127224 2.31875e-23)
(1.01184 0.114747 -1.84049e-22)
(1.02641 0.0969569 1.21566e-21)
(1.04016 0.0808739 -1.31562e-22)
(1.04059 0.0657883 1.03481e-22)
(1.0391 0.0547414 3.72129e-23)
(1.03658 0.0455821 -2.58069e-22)
(1.03352 0.0377493 9.48654e-23)
(1.03023 0.0310591 6.43617e-24)
(1.02728 0.0254417 3.49925e-24)
(1.02495 0.0206033 0)
(1.02299 0.0162717 0)
(1.02141 0.0123182 0)
(1.02023 0.0086089 0)
(1.01946 0.00507493 0)
(1.01912 0.00161132 0)
(1.02724 -0.00194132 0)
(1.02788 -0.0056569 0)
(1.02925 -0.0097399 0)
(1.03129 -0.0140109 0)
(1.03402 -0.0187914 0)
(1.03744 -0.0242546 0)
(1.04145 -0.0306037 -2.11614e-23)
(1.04563 -0.0379852 2.97563e-23)
(1.05043 -0.0469594 9.79199e-23)
(1.05597 -0.0582434 -1.6242e-23)
(1.06169 -0.0722066 -4.98083e-22)
(1.06692 -0.089637 6.58526e-22)
(1.07085 -0.112667 -2.14753e-22)
(1.06176 -0.133607 -1.67306e-22)
(1.05392 -0.158438 5.36459e-22)
(1.02909 -0.188766 6.8122e-22)
(0.991874 -0.21428 -9.45777e-23)
(0.927081 -0.241124 -7.90795e-22)
(0.824262 -0.238669 -3.94266e-22)
(0.703737 -0.160173 7.37548e-22)
(0.650251 0.00474339 -5.57198e-22)
(0.719956 0.16128 1.58444e-21)
(0.845784 0.225357 -8.19284e-22)
(0.945725 0.215971 -6.4994e-22)
(1.01055 0.182899 2.38785e-22)
(1.04635 0.14624 -1.12992e-22)
(1.05516 0.111987 2.05263e-22)
(1.06224 0.0861286 4.51556e-23)
(1.05745 0.0684041 8.41927e-23)
(1.05258 0.0562056 -1.37611e-22)
(1.04774 0.046501 1.14687e-23)
(1.043 0.0384482 2.26583e-23)
(1.03843 0.0315926 -3.7875e-24)
(1.03426 0.0257718 -4.77565e-24)
(1.03106 0.0208083 0)
(1.02853 0.0164139 0)
(1.02653 0.0124073 0)
(1.02506 0.00871041 0)
(1.0241 0.00517627 0)
(1.02366 0.00180444 0)
(1.03199 -0.00153482 0)
(1.03282 -0.00503525 0)
(1.03447 -0.00849338 0)
(1.03705 -0.0123292 0)
(1.04059 -0.0166689 0)
(1.04512 -0.0216649 0)
(1.0504 -0.0274808 1.41823e-23)
(1.05644 -0.034447 -4.26148e-23)
(1.06412 -0.0433524 3.52021e-23)
(1.07327 -0.0548984 7.23943e-23)
(1.08354 -0.0695207 2.43992e-23)
(1.09426 -0.0876306 -9.10312e-23)
(1.10501 -0.110332 -1.38187e-24)
(1.10412 -0.139214 1.04288e-22)
(1.10495 -0.173496 -3.83267e-22)
(1.09481 -0.219886 -3.13061e-23)
(1.06824 -0.279679 7.34046e-23)
(1.00809 -0.37312 -1.41073e-22)
(0.84375 -0.479594 -1.04951e-21)
(0.474565 -0.463028 -4.03948e-20)
(0.187087 0.01742 -2.44909e-20)
(0.504619 0.476825 -1.36045e-20)
(0.875738 0.469165 7.7338e-22)
(1.04002 0.339298 -1.48847e-23)
(1.0935 0.233771 -7.34148e-23)
(1.10554 0.157831 -7.95119e-23)
(1.09573 0.117398 -1.4826e-23)
(1.08788 0.0795787 -2.62147e-23)
(1.07641 0.0646669 -7.34196e-23)
(1.06675 0.0530909 8.39493e-23)
(1.05896 0.0440934 1.62237e-23)
(1.05243 0.0369114 -5.20667e-23)
(1.04666 0.030658 1.11852e-23)
(1.04139 0.0251004 -6.71603e-24)
(1.03726 0.0202849 0)
(1.03411 0.0160213 0)
(1.03166 0.0121122 0)
(1.02988 0.00848152 0)
(1.02872 0.00501387 0)
(1.0282 0.00160265 0)
(1.03606 -0.00143226 0)
(1.03706 -0.00407146 0)
(1.03911 -0.00687425 0)
(1.04225 -0.00995625 0)
(1.04649 -0.0133674 0)
(1.05196 -0.0173273 0)
(1.0585 -0.0220125 1.98996e-23)
(1.06675 -0.0279142 2.2332e-23)
(1.07757 -0.0357611 2.42216e-23)
(1.09061 -0.046067 -3.30155e-24)
(1.10589 -0.0593647 -1.26306e-23)
(1.12309 -0.0760377 -4.349e-23)
(1.14162 -0.0955914 -8.0688e-24)
(1.14861 -0.126817 1.85332e-23)
(1.16655 -0.161012 -7.48005e-23)
(1.17812 -0.212985 1.47269e-22)
(1.1951 -0.28634 -9.90419e-23)
(1.228 -0.41692 8.98556e-22)
(0.897472 -0.476383 -7.62117e-20)
(1.12534 0.591482 1.3999e-20)
(1.28405 0.366049 9.369e-23)
(1.22168 0.212501 2.99534e-22)
(1.17619 0.130148 7.38286e-23)
(1.13932 0.0965022 5.49313e-23)
(1.11287 0.0622564 -2.83262e-22)
(1.09342 0.0521646 8.03618e-23)
(1.07908 0.0443043 9.75082e-23)
(1.06875 0.0380935 4.13343e-23)
(1.06074 0.0328775 3.65837e-23)
(1.05412 0.0280167 2.61139e-23)
(1.04818 0.0233167 1.37587e-23)
(1.04326 0.0189842 0)
(1.03953 0.0150373 0)
(1.03665 0.0113901 0)
(1.03455 0.00793775 0)
(1.0332 0.00473221 0)
(1.03257 0.00150729 0)
(1.03897 -0.00089936 0)
(1.04019 -0.00271665 0)
(1.04256 -0.00463332 0)
(1.04606 -0.00663409 0)
(1.05084 -0.0088326 0)
(1.05709 -0.0113531 0)
(1.06492 -0.0144087 1.40478e-24)
(1.07543 -0.0185653 -1.5788e-23)
(1.08923 -0.0243391 1.70762e-23)
(1.10577 -0.0318897 -1.28357e-24)
(1.12532 -0.0415228 -1.7641e-23)
(1.14798 -0.0537249 6.98116e-23)
(1.17379 -0.0676918 -1.28501e-22)
(1.18816 -0.0955017 -2.70236e-22)
(1.22085 -0.120618 -1.17618e-21)
(1.25023 -0.161239 1.33458e-22)
(1.29821 -0.207795 1.39746e-22)
(1.36823 -0.250125 1.4541e-21)
(0.00621727 0.0176908 2.26317e-19)
(0.0803194 0.00530522 -2.32283e-19)
(1.45945 0.164394 -4.01823e-22)
(1.31326 0.105468 5.21155e-23)
(1.22349 0.06381 -1.35269e-21)
(1.16963 0.0523427 -2.57282e-21)
(1.12581 0.0346545 -2.37388e-22)
(1.10292 0.0335063 -5.06458e-23)
(1.08678 0.0315047 -2.63003e-25)
(1.0753 0.0292657 1.63634e-23)
(1.06674 0.0267798 3.56051e-23)
(1.06002 0.0238896 1.35643e-24)
(1.05406 0.0205065 5.12716e-24)
(1.04874 0.016921 0)
(1.04458 0.0135121 0)
(1.04136 0.0103395 0)
(1.039 0.00735169 0)
(1.03743 0.00438007 0)
(1.03667 0.00164948 0)
(1.04136 -0.000406427 -1.6295e-25)
(1.04241 -0.00116652 0)
(1.04469 -0.00195898 0)
(1.04829 -0.00271892 0)
(1.05336 -0.00350463 0)
(1.06007 -0.00429693 0)
(1.06903 -0.0053393 -3.93303e-25)
(1.08143 -0.00713784 -1.81029e-23)
(1.0974 -0.00986073 8.22571e-23)
(1.11625 -0.0134141 -1.14608e-22)
(1.13833 -0.017758 2.54287e-22)
(1.1645 -0.0233788 2.40871e-22)
(1.19437 -0.0293667 -4.35884e-22)
(1.21676 -0.0510459 2.30941e-22)
(1.25599 -0.0661703 5.91611e-23)
(1.29212 -0.0941029 -5.9072e-22)
(1.33973 -0.118881 -2.8314e-22)
(1.24718 -0.10791 -1.28672e-22)
(-0.00892872 -0.0230077 -1.06071e-21)
(0.327472 -0.0318266 9.07146e-21)
(1.42368 -0.0468817 -1.43563e-21)
(1.31736 -0.0261179 1.31221e-22)
(1.22226 -0.0148339 -7.16596e-22)
(1.17099 0.000794404 1.61288e-21)
(1.12529 0.00527284 3.00477e-22)
(1.10413 0.0142696 -3.89747e-22)
(1.08866 0.018082 -8.37565e-23)
(1.0777 0.0197359 1.02038e-22)
(1.06982 0.019891 -9.88877e-23)
(1.06391 0.0189747 9.99167e-24)
(1.05866 0.0170248 1.98994e-23)
(1.05347 0.0143103 0)
(1.04901 0.0114641 0)
(1.0455 0.00873688 0)
(1.04293 0.00615192 0)
(1.04126 0.0036243 0)
(1.04049 0.00101828 0)
(1.04183 0.000337167 -1.38654e-27)
(1.0431 0.000621899 0)
(1.04535 0.000928423 0)
(1.04887 0.00138485 0)
(1.05384 0.00205307 0)
(1.06056 0.00309339 0)
(1.07019 0.00438098 -1.18518e-24)
(1.08354 0.0053979 1.9615e-23)
(1.10023 0.00633302 7.70624e-24)
(1.11975 0.00757172 -9.06668e-24)
(1.14252 0.00945067 -4.03595e-23)
(1.16974 0.011349 -3.48113e-23)
(1.20124 0.0144064 -2.2497e-23)
(1.22959 0.000806671 -6.45158e-22)
(1.27304 -0.00424937 3.43854e-23)
(1.3161 -0.0235064 -9.15946e-22)
(1.36542 -0.0454017 8.03399e-22)
(1.1634 -0.0607648 -1.6192e-22)
(0.156212 -0.178851 -2.81864e-22)
(-0.0924273 -0.30877 -8.78927e-22)
(-0.244867 -0.14442 -1.51159e-22)
(0.0472174 -0.0328565 1.54754e-21)
(0.719124 -0.195668 -3.76523e-23)
(1.34315 -0.229041 1.4628e-21)
(1.25027 -0.140886 -2.48243e-21)
(1.17402 -0.0760891 4.31828e-22)
(1.14162 -0.0376279 -1.43122e-21)
(1.10688 -0.0125051 -6.0194e-23)
(1.09472 0.000404757 -3.23104e-22)
(1.08466 0.00770863 -2.81979e-24)
(1.07664 0.0117962 2.14061e-22)
(1.0704 0.0137082 -2.81466e-23)
(1.06576 0.0140991 -1.70797e-23)
(1.06181 0.0132571 -2.34603e-23)
(1.05738 0.0114173 0)
(1.05285 0.0091845 0)
(1.04915 0.0069958 0)
(1.04639 0.00483779 0)
(1.04459 0.00285314 0)
(1.04368 0.000867209 0)
(1.04114 0.000527099 3.62861e-23)
(1.04219 0.00176351 0)
(1.04427 0.00323158 0)
(1.0475 0.00489804 0)
(1.05201 0.00698206 0)
(1.05816 0.00974275 0)
(1.06741 0.0132841 -1.69456e-25)
(1.08059 0.0172844 -2.06838e-23)
(1.09653 0.0220926 -7.30777e-23)
(1.11489 0.0283472 1.15704e-22)
(1.13624 0.0366645 3.32007e-23)
(1.16156 0.0466737 -3.47653e-22)
(1.19187 0.060356 3.52393e-22)
(1.22589 0.0580095 4.08533e-22)
(1.27236 0.0672029 1.98802e-21)
(1.3366 0.0746479 -1.46975e-21)
(1.40509 0.0560505 -2.33527e-21)
(1.23354 -0.00744671 -8.15461e-21)
(0.553197 -0.286006 6.54045e-22)
(-0.0112505 -0.56286 1.97794e-20)
(-0.357252 -0.711047 -1.37334e-21)
(0.0533362 -0.693202 -9.43358e-21)
(0.836353 -0.568115 8.80485e-22)
(1.10853 -0.356122 -5.45996e-22)
(1.11162 -0.196514 4.46347e-22)
(1.09271 -0.0918265 8.54365e-22)
(1.09489 -0.0430486 3.60176e-22)
(1.08313 -0.00977204 -3.22967e-22)
(1.08057 -0.000197388 2.97684e-22)
(1.07679 0.00473533 -5.01102e-23)
(1.07284 0.00760397 -1.40927e-22)
(1.06942 0.00941308 6.96195e-23)
(1.06631 0.00991917 2.52392e-23)
(1.06382 0.00954124 -2.88705e-25)
(1.06027 0.00833184 0)
(1.05593 0.00677401 0)
(1.05226 0.00527469 0)
(1.04944 0.00379203 0)
(1.04746 0.00234142 0)
(1.04647 0.00106887 -3.46931e-23)
(1.03931 0.000776872 1.7348e-24)
(1.04013 0.00266265 0)
(1.04185 0.0048477 0)
(1.04446 0.0074278 0)
(1.04806 0.0106061 0)
(1.05299 0.0146426 0)
(1.06088 0.0198386 0)
(1.07265 0.0262896 3.4704e-24)
(1.08635 0.0345166 2.17806e-23)
(1.10156 0.0452464 1.08933e-22)
(1.11899 0.0594419 -1.26216e-22)
(1.13952 0.0772075 -2.63659e-22)
(1.16444 0.101592 1.04552e-21)
(1.19918 0.132512 -2.47825e-22)
(1.2443 0.145871 -9.47974e-22)
(1.30605 0.183098 2.86708e-22)
(1.39589 0.206757 -4.86544e-21)
(1.41624 0.222871 1.25452e-20)
(0.94182 0.00460333 -2.95723e-21)
(0.417008 -0.287154 -9.33351e-21)
(-0.114762 -0.607982 6.37347e-21)
(-0.107841 -0.726044 -1.03008e-20)
(0.474274 -0.520119 -4.15349e-21)
(0.843224 -0.261818 2.4984e-21)
(0.950175 -0.104134 -4.16656e-22)
(1.01337 -0.0429326 1.7798e-21)
(1.04869 0.0075026 4.80136e-22)
(1.06815 0.00963561 -5.37666e-22)
(1.07324 0.00989731 8.81194e-23)
(1.07343 0.00931609 1.31139e-22)
(1.07137 0.00815022 -7.82235e-23)
(1.06855 0.00709576 -2.42127e-23)
(1.06649 0.006569 -3.06315e-24)
(1.06513 0.00592308 0)
(1.06205 0.00496091 0)
(1.05781 0.00399312 0)
(1.05409 0.00311629 0)
(1.05132 0.00224073 0)
(1.04957 0.00131747 0)
(1.04873 0.000312445 5.37176e-24)
(1.03677 0.00102823 6.13111e-24)
(1.03725 0.00321054 0)
(1.03841 0.00576059 0)
(1.04021 0.00873675 0)
(1.04267 0.0124161 0)
(1.04608 0.0170238 0)
(1.05196 0.0230216 0)
(1.06117 0.0308346 0)
(1.07137 0.0412629 -8.35674e-24)
(1.08179 0.0550968 7.33058e-23)
(1.09301 0.0736494 -1.32577e-22)
(1.10556 0.0973859 1.43171e-22)
(1.12022 0.129011 -4.00363e-23)
(1.13982 0.173229 -2.3013e-22)
(1.18088 0.208616 -1.8851e-22)
(1.2232 0.273495 -1.17848e-21)
(1.28595 0.343087 -7.51657e-22)
(1.37475 0.467878 -4.45839e-21)
(1.23043 0.500871 -1.18334e-20)
(0.795276 0.361177 7.9565e-21)
(0.291303 0.100097 3.33302e-21)
(0.00287575 -0.173419 4.37527e-21)
(0.161171 -0.254415 4.48356e-21)
(0.593024 -0.0751358 4.96716e-20)
(0.87793 0.0634257 -4.25853e-22)
(0.982977 0.0562976 5.66241e-22)
(1.05501 0.0579819 1.52144e-22)
(1.07315 0.0343023 1.44785e-22)
(1.07812 0.023563 -4.49139e-23)
(1.07718 0.0152838 2.67601e-23)
(1.07389 0.0095809 -5.13634e-23)
(1.07037 0.00587369 9.44927e-24)
(1.06793 0.00357765 0)
(1.06633 0.0021266 0)
(1.06305 0.00129966 0)
(1.05867 0.000845064 0)
(1.05486 0.000508906 7.46422e-24)
(1.05204 0.000207687 1.03225e-23)
(1.05016 3.18288e-05 6.15542e-24)
(1.049 -0.000121018 0)
(1.03377 0.00108856 0)
(1.03399 0.00333832 0)
(1.03459 0.00580719 0)
(1.03555 0.00867587 0)
(1.03683 0.0122331 0)
(1.03862 0.0166367 0)
(1.04212 0.022493 0)
(1.04788 0.0306553 0)
(1.05356 0.0418441 -2.33775e-26)
(1.05806 0.0567869 -3.9428e-24)
(1.06156 0.0768366 -1.17587e-23)
(1.06383 0.103011 -8.18126e-23)
(1.06611 0.136629 1.74791e-22)
(1.06699 0.184562 2.44471e-23)
(1.09237 0.234338 -1.24313e-21)
(1.10429 0.307114 -7.22213e-22)
(1.13391 0.391935 2.09568e-21)
(1.13908 0.530636 3.94692e-21)
(1.10188 0.732594 -8.76014e-22)
(0.92045 0.835415 6.21204e-21)
(0.63475 0.752324 6.40466e-21)
(0.382603 0.514234 7.9739e-21)
(0.307184 0.256355 -1.64323e-21)
(0.399116 0.148705 -2.61565e-22)
(0.896465 0.229092 -1.37463e-22)
(1.03952 0.152886 1.72967e-21)
(1.10025 0.085544 -2.35629e-22)
(1.10264 0.0505496 7.40497e-23)
(1.09675 0.0306092 8.84326e-23)
(1.08864 0.0166362 -4.41594e-23)
(1.08101 0.00808451 7.48464e-25)
(1.07473 0.00267122 -3.99679e-26)
(1.07055 -0.000692823 0)
(1.06753 -0.00247651 0)
(1.06337 -0.00287575 0)
(1.05867 -0.00268387 0)
(1.05472 -0.00231118 0)
(1.05175 -0.0017898 0)
(1.04968 -0.00105598 0)
(1.04844 -0.000305732 -1.1086e-24)
(1.03075 0.000961414 0)
(1.03077 0.00291506 0)
(1.03096 0.00493879 0)
(1.03125 0.00723978 0)
(1.03148 0.0100504 0)
(1.03169 0.0135198 0)
(1.03252 0.0182632 0)
(1.03419 0.0254576 0)
(1.03485 0.0357383 0)
(1.03347 0.0494494 0)
(1.02938 0.0676313 -4.00064e-24)
(1.02156 0.0917233 -2.56933e-23)
(1.01059 0.122179 7.03619e-23)
(0.994759 0.167728 -1.94634e-23)
(0.998215 0.219156 2.55415e-21)
(0.985889 0.285819 7.30082e-23)
(0.990604 0.381988 -6.81408e-22)
(0.935106 0.479932 -2.71855e-21)
(0.887401 0.582999 -7.18622e-22)
(0.827675 0.688769 -7.15794e-21)
(0.729247 0.745487 -8.30737e-21)
(0.626365 0.71598 -8.6385e-21)
(0.551775 0.612227 1.87532e-21)
(0.545413 0.450767 1.02289e-21)
(0.978939 0.283929 1.55993e-21)
(1.16656 0.174842 8.55712e-22)
(1.16928 0.0692578 -1.15613e-23)
(1.14536 0.0409378 6.64886e-23)
(1.12251 0.0203486 -4.11108e-23)
(1.1047 0.0074534 6.60843e-24)
(1.09094 -0.000178534 0)
(1.08072 -0.00497381 0)
(1.07363 -0.00767889 0)
(1.06824 -0.00844885 0)
(1.06271 -0.00767149 0)
(1.05753 -0.00641853 0)
(1.0534 -0.00504217 0)
(1.05035 -0.00357057 0)
(1.04829 -0.00206269 0)
(1.04714 -0.000614921 0)
(1.0282 0.000615121 0)
(1.02818 0.00184712 0)
(1.0282 0.00312095 0)
(1.02811 0.0045238 0)
(1.02771 0.00614276 0)
(1.02674 0.00809638 0)
(1.02516 0.0108206 0)
(1.02306 0.0154683 0)
(1.01932 0.0226292 0)
(1.01298 0.0323592 0)
(1.00256 0.0453225 0)
(0.986407 0.062619 -6.93799e-26)
(0.962912 0.0850926 1.70613e-23)
(0.932667 0.119843 -7.90409e-23)
(0.917008 0.170837 8.70361e-22)
(0.871998 0.22758 1.12285e-21)
(0.853724 0.318203 8.50054e-22)
(0.823225 0.411992 -4.56584e-22)
(0.750787 0.522141 -1.48931e-21)
(0.689338 0.640567 1.20204e-21)
(0.657303 0.728079 1.58566e-22)
(0.661743 0.741944 -4.36167e-21)
(0.706491 0.659112 -2.94084e-22)
(0.836458 0.471612 -1.80992e-21)
(1.19664 0.194629 8.29466e-22)
(1.29086 0.0915761 5.68908e-22)
(1.22497 0.00599852 -7.67213e-23)
(1.17736 -0.000772523 9.43878e-24)
(1.14161 -0.0104106 -2.25928e-24)
(1.1166 -0.0146488 0)
(1.09807 -0.0168277 0)
(1.08458 -0.017815 0)
(1.07473 -0.0174556 0)
(1.067 -0.0156631 0)
(1.06031 -0.0129445 0)
(1.05484 -0.0102531 0)
(1.05071 -0.00773452 0)
(1.04775 -0.00536272 0)
(1.04584 -0.00313037 0)
(1.04489 -0.0010062 0)
(1.02699 0.000154017 0)
(1.02699 0.000542556 0)
(1.02698 0.000894991 0)
(1.02681 0.00121356 0)
(1.02623 0.00145499 0)
(1.0248 0.00160489 0)
(1.02192 0.00181724 0)
(1.01747 0.00280661 0)
(1.01103 0.00497675 0)
(1.00169 0.00811584 0)
(0.987485 0.0124671 7.46411e-24)
(0.965811 0.0183014 0)
(0.933868 0.0277575 0)
(0.893627 0.0427029 6.79088e-22)
(0.843146 0.071618 6.68835e-21)
(0.785611 0.126322 1.41037e-21)
(0.691258 0.197677 -1.78234e-22)
(0.598905 0.32146 2.45154e-22)
(0.537514 0.436028 3.96258e-22)
(0.549426 0.508858 1.00972e-21)
(0.661529 0.514096 2.74442e-21)
(0.815719 0.428158 -6.28419e-21)
(1.0046 0.266984 -1.17571e-21)
(1.20431 0.0820319 5.61767e-22)
(1.36847 -0.0427943 1.42541e-23)
(1.32415 -0.10104 5.86187e-23)
(1.23197 -0.0784726 2.80195e-22)
(1.17798 -0.060843 0)
(1.14172 -0.052122 0)
(1.11564 -0.0438462 6.87406e-23)
(1.09637 -0.0377977 0)
(1.08201 -0.0328238 0)
(1.07099 -0.0279636 0)
(1.06225 -0.0229429 0)
(1.05542 -0.0180563 0)
(1.05032 -0.0138241 0)
(1.04659 -0.0101629 0)
(1.04397 -0.00695919 -1.22848e-24)
(1.04231 -0.00405443 -8.81323e-25)
(1.04153 -0.00133205 0)
(1.02709 -0.000126386 0)
(1.02714 -0.000446153 0)
(1.02722 -0.00093842 0)
(1.02725 -0.00165822 0)
(1.02704 -0.00277286 0)
(1.02604 -0.00441579 0)
(1.02325 -0.00669483 0)
(1.01851 -0.00947355 0)
(1.0119 -0.0128374 0)
(1.00269 -0.0173663 0)
(0.988652 -0.0237846 1.61626e-22)
(0.966421 -0.0333391 0)
(0.929984 -0.0433632 0)
(0.876343 -0.0509309 -2.04292e-21)
(0.794634 -0.0513133 -1.94979e-20)
(0.683679 -0.0271699 -4.12303e-21)
(0.583912 -0.0542759 0)
(0.547194 -0.122507 4.46566e-23)
(0.567005 -0.212974 1.77867e-21)
(0.671781 -0.2999 -3.99017e-21)
(0.854892 -0.373914 -3.23423e-21)
(1.04781 -0.405072 2.28601e-20)
(1.21777 -0.422484 -1.73072e-21)
(1.32217 -0.384206 0)
(1.32674 -0.301294 8.42108e-22)
(1.2487 -0.210156 -1.50848e-21)
(1.18494 -0.150314 -3.16822e-22)
(1.14596 -0.114271 0)
(1.11981 -0.0886401 0)
(1.0995 -0.0695463 2.86592e-24)
(1.08401 -0.0557064 0)
(1.07177 -0.0451061 0)
(1.06178 -0.0362581 0)
(1.05377 -0.0286314 0)
(1.04798 -0.0220337 0)
(1.04402 -0.0165464 2.22249e-24)
(1.04121 -0.011945 -2.88809e-24)
(1.03925 -0.00803011 0)
(1.03802 -0.00460523 0)
(1.03741 -0.00143572 -6.7869e-24)
(1.02773 -0.000226009 0)
(1.02806 -0.00097201 0)
(1.02853 -0.00201063 0)
(1.02916 -0.0034715 0)
(1.02983 -0.00556886 0)
(1.03 -0.00856041 0)
(1.0286 -0.0127867 -1.09282e-24)
(1.02557 -0.01857 0)
(1.02171 -0.0265991 0)
(1.01666 -0.0380154 0)
(1.00839 -0.0545309 0)
(0.993884 -0.0799277 0)
(0.961644 -0.112927 0)
(0.891193 -0.15295 9.38613e-21)
(0.803422 -0.187943 1.20104e-22)
(0.740134 -0.220336 -1.28779e-22)
(0.721559 -0.316915 0)
(0.711492 -0.418704 0)
(0.71896 -0.51171 -2.34016e-21)
(0.772419 -0.582968 -3.65116e-20)
(0.893969 -0.619882 8.21254e-21)
(1.01995 -0.607602 1.15635e-21)
(1.12056 -0.557562 0)
(1.1693 -0.462212 0)
(1.16088 -0.347054 0)
(1.12908 -0.252489 3.90239e-24)
(1.10986 -0.18805 -1.73982e-22)
(1.09406 -0.143153 3.64644e-24)
(1.08243 -0.108837 0)
(1.07226 -0.0838661 0)
(1.06363 -0.0652021 0)
(1.05592 -0.051158 0)
(1.04884 -0.0400675 9.75297e-24)
(1.04287 -0.0311441 3.99677e-24)
(1.03888 -0.0237761 2.01352e-25)
(1.03649 -0.0177624 0)
(1.0349 -0.0127799 0)
(1.03384 -0.00854388 0)
(1.03327 -0.00487323 0)
(1.03308 -0.00152478 0)
(1.02864 -0.000327132 0)
(1.02939 -0.00116204 0)
(1.03045 -0.00229802 0)
(1.0319 -0.00393197 0)
(1.03379 -0.00631205 0)
(1.03569 -0.00977689 0)
(1.03667 -0.0148609 0)
(1.03694 -0.0221902 0)
(1.03818 -0.0327168 7.3544e-24)
(1.04086 -0.0479577 0)
(1.04394 -0.0698409 0)
(1.0453 -0.10358 0)
(1.03041 -0.149947 -1.07419e-21)
(0.967713 -0.214706 -1.87799e-21)
(0.882888 -0.290511 0)
(0.846207 -0.368375 0)
(0.841348 -0.455889 0)
(0.811553 -0.520876 0)
(0.802038 -0.568048 -7.38705e-22)
(0.812368 -0.601545 3.66616e-21)
(0.870887 -0.599962 2.10663e-20)
(0.936402 -0.556929 -8.20562e-21)
(0.991101 -0.486153 0)
(1.01578 -0.39742 0)
(1.02252 -0.309211 0)
(1.02804 -0.241541 0)
(1.03434 -0.18811 -1.84358e-21)
(1.03756 -0.144375 -3.63831e-22)
(1.04022 -0.110315 0)
(1.04075 -0.0844767 -2.79503e-25)
(1.03986 -0.0647506 -2.41836e-24)
(1.0378 -0.0498657 1.31213e-25)
(1.03467 -0.0383827 0)
(1.03149 -0.0294793 0)
(1.02964 -0.02244 0)
(1.02892 -0.0168441 0)
(1.02854 -0.0122489 0)
(1.02833 -0.00834227 0)
(1.02837 -0.00486666 0)
(1.0286 -0.00171267 0)
(1.0297 -0.000286681 0)
(1.03067 -0.000917955 0)
(1.03223 -0.00171813 0)
(1.03453 -0.00294795 0)
(1.03768 -0.00483388 0)
(1.04152 -0.00770357 0)
(1.04541 -0.0121459 0)
(1.04974 -0.0189533 0)
(1.0568 -0.028877 0)
(1.06807 -0.0431345 0)
(1.08429 -0.0631524 1.54654e-23)
(1.10459 -0.0933474 -1.36652e-22)
(1.11738 -0.13637 1.32048e-21)
(1.08365 -0.205246 2.68142e-22)
(1.00973 -0.302887 0)
(0.955214 -0.397218 0)
(0.910653 -0.474822 0)
(0.853095 -0.527013 0)
(0.825075 -0.558408 -2.64494e-20)
(0.808006 -0.574143 4.1454e-20)
(0.818064 -0.557186 5.21024e-22)
(0.843235 -0.494125 1.37583e-21)
(0.878133 -0.421233 0)
(0.905704 -0.340898 0)
(0.931417 -0.269784 0)
(0.957511 -0.213836 0)
(0.973689 -0.165684 2.12817e-21)
(0.986986 -0.12682 -5.08781e-22)