/*--------------------------------*- C++ -*----------------------------------*\
| =========                 |                                                 |
| \\      /  F ield         | OpenFOAM: The Open Source CFD Toolbox           |
|  \\    /   O peration     | Version:  v2106                                 |
|   \\  /    A nd           | Website:  www.openfoam.com                      |
|    \\/     M anipulation  |                                                 |
\*---------------------------------------------------------------------------*/
FoamFile
{
    version     2.0;
    format      ascii;
    arch        "LSB;label=32;scalar=64";
    class       volScalarField;
    location    "0";
    object      p;
}
// * * * * * * * * * * * * * * * * * * * * * * * * * * * * * * * * * * * * * //

dimensions      [0 2 -2 0 0 0 0];

internalField   nonuniform List<scalar> 
11644
(
-0.292423
-0.292792
-0.293871
-0.295726
-0.298292
-0.301617
-0.305853
-0.311282
-0.318021
-0.326071
-0.335422
-0.345963
-0.357637
-0.370126
-0.382976
-0.396189
-0.41029
-0.424572
-0.43403
-0.440391
-0.448959
-0.460746
-0.467125
-0.468082
-0.46779
-0.467356
-0.465748
-0.463187
-0.459923
-0.456437
-0.452881
-0.449423
-0.44629
-0.443575
-0.441296
-0.439372
-0.437802
-0.436666
-0.435943
-0.435671
-0.292344
-0.292668
-0.293502
-0.294927
-0.297079
-0.300082
-0.303981
-0.308822
-0.314783
-0.322087
-0.330911
-0.341232
-0.353193
-0.3663
-0.380687
-0.395474
-0.4097
-0.422862
-0.434732
-0.449235
-0.456882
-0.460738
-0.4652
-0.467962
-0.468668
-0.466851
-0.46396
-0.460841
-0.457573
-0.454107
-0.450806
-0.447798
-0.445055
-0.442596
-0.440461
-0.438687
-0.437378
-0.436425
-0.435928
-0.435834
-0.290842
-0.29124
-0.29197
-0.293151
-0.294887
-0.29717
-0.300153
-0.303936
-0.30875
-0.314827
-0.322555
-0.332417
-0.344496
-0.359288
-0.375659
-0.392466
-0.409405
-0.427125
-0.445089
-0.453221
-0.46213
-0.471049
-0.470397
-0.470875
-0.469462
-0.466269
-0.462009
-0.45759
-0.453855
-0.450685
-0.447835
-0.445283
-0.442997
-0.440964
-0.439233
-0.437804
-0.43668
-0.435878
-0.435391
-0.435196
-0.288423
-0.288813
-0.28965
-0.290814
-0.292242
-0.293991
-0.296092
-0.298718
-0.302114
-0.306822
-0.313431
-0.322296
-0.334121
-0.3482
-0.366261
-0.386427
-0.406942
-0.432873
-0.454848
-0.464639
-0.47477
-0.483603
-0.482737
-0.477742
-0.472842
-0.466803
-0.460754
-0.455731
-0.451578
-0.448525
-0.446075
-0.443814
-0.441803
-0.440041
-0.438451
-0.437103
-0.435944
-0.435017
-0.434286
-0.433807
-0.284427
-0.285211
-0.28631
-0.287499
-0.288952
-0.29062
-0.292466
-0.29458
-0.297126
-0.300508
-0.304965
-0.311383
-0.32061
-0.335158
-0.355387
-0.380962
-0.404692
-0.440755
-0.470414
-0.481129
-0.492859
-0.505896
-0.499132
-0.487606
-0.479314
-0.470621
-0.463554
-0.457725
-0.453631
-0.450103
-0.447228
-0.444973
-0.442807
-0.440667
-0.438601
-0.436634
-0.434823
-0.433158
-0.431862
-0.43113
-0.279094
-0.279851
-0.281174
-0.282972
-0.284967
-0.287141
-0.289472
-0.291894
-0.294218
-0.296265
-0.298547
-0.302098
-0.309446
-0.31908
-0.33929
-0.37285
-0.405906
-0.442078
-0.473895
-0.501303
-0.516031
-0.518795
-0.511432
-0.497081
-0.485551
-0.475848
-0.467984
-0.46479
-0.461039
-0.457615
-0.453543
-0.449757
-0.446235
-0.442676
-0.439073
-0.435617
-0.43261
-0.43026
-0.428491
-0.427576
-0.272923
-0.273493
-0.27495
-0.277011
-0.279677
-0.282856
-0.286325
-0.28973
-0.292443
-0.294571
-0.296632
-0.300545
-0.303553
-0.309986
-0.325621
-0.352557
-0.394538
-0.422034
-0.455916
-0.491095
-0.518257
-0.524136
-0.520081
-0.512402
-0.49609
-0.482876
-0.478321
-0.478356
-0.476562
-0.47191
-0.465623
-0.458692
-0.451755
-0.44533
-0.439274
-0.433865
-0.42931
-0.425752
-0.423299
-0.421689
-0.264275
-0.265588
-0.267254
-0.269632
-0.272993
-0.277069
-0.281765
-0.286498
-0.290748
-0.295279
-0.300065
-0.303529
-0.314208
-0.304794
-0.323608
-0.330362
-0.363319
-0.419936
-0.471188
-0.516896
-0.542109
-0.553821
-0.550107
-0.538426
-0.525162
-0.5046
-0.503719
-0.50787
-0.497512
-0.490401
-0.480495
-0.469238
-0.45753
-0.446892
-0.437652
-0.429747
-0.423389
-0.418663
-0.415556
-0.414451
-0.254199
-0.254715
-0.256536
-0.259645
-0.263748
-0.268714
-0.274552
-0.280692
-0.287568
-0.295967
-0.305533
-0.314952
-0.324606
-0.31849
-0.328896
-0.355635
-0.365039
-0.405309
-0.483197
-0.54574
-0.587194
-0.611014
-0.603575
-0.585174
-0.556874
-0.569597
-0.546691
-0.54381
-0.525836
-0.509251
-0.492535
-0.475834
-0.459291
-0.444335
-0.43207
-0.422002
-0.414244
-0.408735
-0.40519
-0.403087
-0.241207
-0.242132
-0.243795
-0.246696
-0.250706
-0.256003
-0.262434
-0.269707
-0.278778
-0.289723
-0.301385
-0.308474
-0.310039
-0.303029
-0.314362
-0.322106
-0.349322
-0.393794
-0.469413
-0.595812
-0.688145
-0.705802
-0.668464
-0.640129
-0.612734
-0.601185
-0.571665
-0.56161
-0.539472
-0.516931
-0.494135
-0.472497
-0.452508
-0.434768
-0.420398
-0.408908
-0.399929
-0.393317
-0.389032
-0.387242
-0.2238
-0.224507
-0.226607
-0.229666
-0.233594
-0.238443
-0.244206
-0.251169
-0.259984
-0.268904
-0.277094
-0.277487
-0.268168
-0.281806
-0.268667
-0.242092
-0.23436
-0.257529
-0.349235
-0.589825
-0.841642
-0.796577
-0.694672
-0.644224
-0.609507
-0.591394
-0.584193
-0.540885
-0.525377
-0.50393
-0.478196
-0.454295
-0.433319
-0.414567
-0.399306
-0.387507
-0.378463
-0.372214
-0.368342
-0.366707
-0.204745
-0.203869
-0.204948
-0.207182
-0.210159
-0.213804
-0.21782
-0.222313
-0.228045
-0.232036
-0.235264
-0.23417
-0.229592
-0.238029
-0.203075
-0.178757
-0.12121
-0.0178793
0.172189
-0.451341
-0.580216
-0.596821
-0.575966
-0.560792
-0.511852
-0.48943
-0.464986
-0.440448
-0.419268
-0.399879
-0.382412
-0.368428
-0.358044
-0.350066
-0.344174
-0.340262
-0.337621
-0.17849
-0.181023
-0.182304
-0.182538
-0.18258
-0.183286
-0.184193
-0.184682
-0.185674
-0.184772
-0.184359
-0.178726
-0.180566
-0.171959
-0.132812
-0.0999511
-0.0236258
0.122253
0.342629
-0.638707
-0.552155
-0.537598
-0.509149
-0.485073
-0.449434
-0.424955
-0.404867
-0.385302
-0.369064
-0.352828
-0.338366
-0.327044
-0.318332
-0.311513
-0.306474
-0.303751
-0.302362
-0.15189
-0.153803
-0.154894
-0.15374
-0.151577
-0.149252
-0.146959
-0.143403
-0.141554
-0.137136
-0.136451
-0.117253
-0.149927
-0.13231
-0.122784
-0.090885
-0.0621482
0.0529361
0.168648
-0.605951
-0.494279
-0.459021
-0.416492
-0.413797
-0.383268
-0.345472
-0.33907
-0.323027
-0.309607
-0.295866
-0.284556
-0.276234
-0.270033
-0.265775
-0.263547
-0.261302
-0.257756
-0.129094
-0.129569
-0.12644
-0.122857
-0.120146
-0.113488
-0.109332
-0.108231
-0.0980584
-0.0772154
-0.0898289
-0.0821296
-0.0995018
-0.136474
-0.168764
-0.201649
-0.226545
-0.152774
0.261099
-0.554491
-0.466277
-1.01391
-0.142282
-0.29
-0.367182
-0.355583
-0.328455
-0.269335
-0.257576
-0.263601
-0.240068
-0.235846
-0.235204
-0.224496
-0.219767
-0.217048
-0.214239
-0.213697
-0.211469
-0.206946
-0.121713
-0.110923
-0.104958
-0.100861
-0.0964055
-0.0904042
-0.0886022
-0.0825869
-0.0689679
-0.0560883
-0.057814
-0.0709909
-0.158206
-0.220586
-0.250087
-0.34715
-0.374564
-0.57828
-1.10909
-0.0791584
1.08675
-0.532394
-0.605547
-0.153372
-0.339198
-0.332509
-0.376653
-0.298461
-0.214001
-0.18522
-0.174458
-0.174228
-0.177155
-0.173173
-0.169748
-0.167006
-0.162792
-0.159625
-0.159833
-0.16668
-0.100059
-0.101257
-0.0947913
-0.0892311
-0.0840581
-0.0833944
-0.086027
-0.0895492
-0.0927086
-0.0933781
-0.0815911
-0.0926373
-0.188875
-0.325448
-0.324014
-0.237565
-0.0512658
-0.170661
-0.386905
-0.437462
-0.737731
0.11636
-1.34004
-0.211901
-0.197386
-0.234683
-0.400044
-0.305429
-0.179848
-0.157303
-0.15578
-0.149413
-0.139366
-0.135171
-0.131116
-0.127743
-0.128127
-0.129617
-0.132274
-0.128391
-0.0835854
-0.0854489
-0.0849166
-0.0859174
-0.0894397
-0.0926593
-0.0875846
-0.0919966
-0.114595
-0.136544
-0.145631
-0.15549
-0.140882
-0.339886
-0.323002
-0.559064
-0.522608
0.816225
0.962404
-1.32483
-1.46392
-2.3462
0.187066
0.529142
-0.47867
-0.484926
-0.347866
-0.182193
-0.162686
-0.154138
-0.143273
-0.124687
-0.102054
-0.101757
-0.105159
-0.104527
-0.104228
-0.103774
-0.104729
-0.105075
-0.0831124
-0.0832579
-0.087105
-0.0926476
-0.0988669
-0.103509
-0.105367
-0.10222
-0.10769
-0.127204
-0.161053
-0.166703
-0.137524
-0.225076
-0.382994
-0.423215
-0.828527
-1.41004
0.595653
0.454654
0.203173
0.0421646
-0.0839816
-2.39436
-0.706489
-0.35139
-0.181856
-0.0304912
-0.113201
-0.113773
-0.0950875
-0.0824275
-0.0790558
-0.0848473
-0.0805991
-0.0813131
-0.081039
-0.0801258
-0.0808995
-0.0821225
-0.0811159
-0.0832043
-0.0873082
-0.0927227
-0.0983142
-0.103884
-0.109883
-0.125192
-0.130341
-0.134014
-0.145916
-0.206804
-0.118754
-0.155714
-0.101398
-0.176043
-0.0420928
-0.78887
-2.16396
-1.47703
-1.64713
-2.65864
-3.68836
-1.0842
0.0081225
-0.173444
-0.0629737
0.0152894
-0.105252
-0.0593209
-0.0588577
-0.0614366
-0.062661
-0.0528447
-0.0505244
-0.0514813
-0.0500444
-0.0491052
-0.0486804
-0.0472857
-0.0794181
-0.0799095
-0.080015
-0.0801359
-0.0809208
-0.084244
-0.0901358
-0.0985899
-0.104014
-0.103519
-0.0935406
-0.14969
-0.166443
-0.18359
0.127273
0.114577
0.215899
1.10524
0.952579
-0.732238
-1.37312
-0.595224
1.41742
1.16551
-0.476022
-0.0954748
-0.0798467
-0.0214481
-0.0212132
0.0182609
-1.71308e-05
-0.0090242
-0.0124137
-0.0150902
-0.0161565
-0.0168453
-0.0180958
-0.0197606
-0.0204046
-0.0206168
-0.0631081
-0.0659553
-0.0658899
-0.0638966
-0.0610994
-0.0565983
-0.0531215
-0.0520094
-0.0565302
-0.0570737
-0.0575118
-0.0399346
0.00526255
0.179349
0.0987705
-0.23885
0.143742
-0.620788
-1.36676
-0.938454
-0.809122
-1.75684
-2.13819
-0.897723
-0.514368
-0.135132
0.11333
0.019314
0.0237423
0.0312696
0.0358514
0.0305345
0.0283421
0.0218241
0.0154259
0.00928363
0.00506343
0.00347747
0.00279234
0.00338366
-0.0486686
-0.0448154
-0.0418023
-0.0397606
-0.0377785
-0.0321375
-0.0283729
-0.0180372
-0.00875028
0.0038418
0.0187932
0.0177977
0.00556899
-0.00477769
0.651301
1.10519
1.05814
0.780372
-2.26484
-2.66129
-2.38932
-2.29976
0.0786243
0.6293
0.681118
0.278866
0.0510577
0.039725
0.0513462
0.0727169
0.066712
0.0558728
0.0504436
0.0421403
0.0398568
0.0350935
0.0314051
0.0276276
0.0237559
0.0204354
-0.034254
-0.0315608
-0.0298311
-0.0258247
-0.0193367
-0.00847766
-1.07511e-05
0.0102765
0.0297359
0.0573965
0.0944362
0.128303
0.129589
-0.0541455
-0.735642
-0.362463
0.616513
1.51593
1.76821
0.829813
1.19269
1.45525
0.897992
0.273505
-0.350246
-0.59675
0.0321544
0.0936943
0.107143
0.112545
0.0987524
0.0892432
0.0758979
0.0723104
0.0645276
0.0582343
0.0531083
0.0506339
0.050423
0.0493441
-0.030376
-0.0328311
-0.0289593
-0.0204284
-0.00919667
0.00496813
0.0236153
0.0451993
0.067542
0.0941694
0.127349
0.170323
0.18307
0.417913
0.69873
-0.0678586
-1.06645
-1.30431
-0.708306
-0.200239
-0.207008
-0.393796
-0.661226
-0.59783
0.0662418
0.491634
0.300217
0.167147
0.182506
0.168653
0.147741
0.135363
0.119753
0.105906
0.0937972
0.0860776
0.0789019
0.073398
0.0702361
0.0711622
-0.0191024
-0.0166183
-0.0153062
-0.0122964
-0.0052021
0.00361129
0.0176059
0.041309
0.0666693
0.10718
0.141434
0.08418
0.127282
-0.184588
0.148856
0.898183
0.717554
-0.0304032
-1.188
-1.51697
-0.970889
-0.669617
0.162372
0.553985
0.505658
0.0177492
-0.0858922
0.184378
0.141301
0.215662
0.189098
0.160655
0.13996
0.122519
0.112578
0.105464
0.100599
0.0996228
0.0987111
0.0968879
-0.0115438
-0.00902124
-0.00641714
-0.00285511
0.00236642
0.00709555
0.0124395
0.0285053
0.0367585
0.0789444
0.0938875
0.0463075
0.00357021
-0.124033
-0.804231
-1.15538
-0.117322
0.139421
1.8794
1.54322
1.67459
2.06277
0.797061
0.348507
-0.527989
-0.240416
0.122988
0.135107
0.173993
0.220056
0.20741
0.173091
0.162659
0.148466
0.140078
0.132922
0.125891
0.121221
0.118885
0.116168
-0.016157
-0.0137545
-0.010699
-0.00659659
-0.00157308
0.0041045
0.0102263
0.0134125
0.0183843
0.0250658
0.0129187
0.0199447
-0.0244762
-0.0769266
0.17178
-0.28393
-0.915002
-1.1886
-1.39152
-0.835044
0.145582
-0.0700708
-0.0929203
0.10556
0.516769
0.617101
0.248762
0.287745
0.275187
0.237822
0.226332
0.203314
0.186106
0.175517
0.163749
0.153724
0.143972
0.136705
0.131446
0.128199
-0.0117363
-0.0163083
-0.0151253
-0.0133523
-0.0137141
-0.013674
-0.0154988
-0.0196515
-0.0241409
-0.0285681
-0.0562307
-0.103639
-0.160661
-0.282586
-0.548875
-0.609181
-0.682352
-0.844945
-0.969761
-0.919042
0.111777
0.163168
0.0478045
0.0435732
-0.04108
0.0490526
0.29428
0.32865
0.259503
0.261885
0.24789
0.217249
0.199466
0.188188
0.176114
0.165676
0.15822
0.153129
0.149901
0.150046
-0.00964098
-0.00818621
-0.0117626
-0.0157402
-0.0190968
-0.0226754
-0.0305941
-0.0361417
-0.0465563
-0.0602659
-0.100151
-0.172404
-0.32439
-0.402735
-0.379466
-0.249196
-0.219435
-0.144381
0.00261208
0.137352
0.623509
0.609773
0.806738
0.843567
0.863863
0.590314
0.241875
0.150752
0.234186
0.262461
0.261473
0.237632
0.216474
0.205186
0.191768
0.181711
0.174342
0.169501
0.166566
0.165548
-0.00966675
-0.0119429
-0.00952533
-0.00833597
-0.00959492
-0.0144704
-0.0221084
-0.0328621
-0.0480773
-0.0634083
-0.071228
-0.138817
-0.228225
-0.42727
-0.701726
-0.86777
-0.757465
-0.414151
-0.0998907
0.143699
0.757555
0.764004
0.608702
0.350548
0.0617946
0.0257111
0.200195
0.357753
0.348299
0.323662
0.278228
0.253141
0.23467
0.219902
0.208965
0.199499
0.190898
0.183387
0.177302
0.178479
-0.00576639
-0.00265523
-0.00770899
-0.0122648
-0.0163434
-0.0207565
-0.0266634
-0.0333629
-0.0511033
-0.0801502
-0.0972624
-0.13745
-0.113635
-0.0702732
-0.230371
-0.594741
-0.8837
-0.902082
-0.920737
-0.925761
-0.229519
-0.315132
-0.0216725
-0.011511
0.263108
0.643687
0.725911
0.499337
0.323958
0.281499
0.258366
0.247563
0.237153
0.22121
0.209347
0.200071
0.193802
0.190255
0.189414
0.184274
-0.00132628
-0.0057189
-0.0055759
-0.00898586
-0.0132207
-0.0180157
-0.0238895
-0.0326951
-0.0440275
-0.0916082
-0.124779
-0.199727
-0.365835
-0.49777
-0.320686
-0.0581743
0.0386117
0.0485328
-0.0663958
-0.0537983
0.326175
0.469247
0.836305
0.952701
0.924785
0.567427
0.146869
0.119828
0.221703
0.247298
0.256638
0.239121
0.225953
0.213659
0.204443
0.19762
0.192361
0.186845
0.182365
0.186306
-0.000227037
0.000561218
0.000195079
-0.00111357
-0.00341087
-0.00532171
-0.0098861
-0.0184328
-0.0418459
-0.0760479
-0.0944229
-0.0972395
-0.0961685
-0.200376
-0.440553
-0.540069
-0.410956
-0.267761
0.217349
0.423463
0.761873
0.749429
0.340908
0.218022
0.0503997
0.0918512
0.316139
0.394073
0.309807
0.248755
0.243579
0.22692
0.219063
0.211052
0.203408
0.19644
0.19319
0.190092
0.188999
0.184725
0.0154147
0.0108593
0.0110159
0.00952361
0.00873057
0.00711839
0.00569273
0.00146313
-0.00896804
-0.0206392
-0.0531241
-0.103981
-0.218607
-0.304105
-0.356764
-0.569736
-0.527885
-0.535558
-0.839385
-0.679628
-0.452929
-0.492806
-0.0556638
0.0478907
0.0941932
0.304254
0.235773
0.181676
0.207297
0.215831
0.241244
0.228461
0.21994
0.212292
0.204448
0.198325
0.193261
0.189673
0.186056
0.190037
0.0206613
0.0237231
0.0211237
0.0181215
0.0158902
0.0155872
0.0160366
0.0119851
0.000747432
-0.0215434
-0.0533475
-0.0674533
-0.0663034
-0.135092
-0.213425
-0.254588
-0.347691
-0.246032
-0.449082
-0.74398
-0.349931
0.0452697
0.365719
0.335588
0.352194
0.298901
0.240935
0.233252
0.195265
0.188502
0.188103
0.194507
0.197105
0.194188
0.188678
0.184718
0.183957
0.185745
0.188346
0.185757
0.0175546
0.015971
0.0212881
0.0259255
0.0295658
0.0305628
0.0328516
0.0367744
0.0438656
0.0495023
0.00349511
-0.0924801
-0.18483
-0.130384
-0.0331848
-0.0519347
-0.126837
-0.210633
-0.318399
-0.0432512
0.259176
0.0932765
0.275209
0.34854
0.332344
0.261699
0.149696
0.0907914
0.127193
0.196216
0.208332
0.196752
0.192073
0.191186
0.18701
0.183583
0.18068
0.177102
0.172532
0.173116
0.0309681
0.0309836
0.0297048
0.0298126
0.0324723
0.0372178
0.0421197
0.0466184
0.0492875
0.0565396
0.0901335
0.108165
0.0156514
-0.226229
-0.442648
-0.499544
-0.450624
-0.443048
-0.293753
-0.439219
-0.340553
-0.0958783
-0.217315
-0.238026
-0.152124
-0.0917511
0.0541748
0.200078
0.232021
0.201973
0.185497
0.180457
0.181911
0.181781
0.179718
0.172743
0.172141
0.172443
0.173882
0.174164
0.0363961
0.0409474
0.0417073
0.0421076
0.0427761
0.0451709
0.0483545
0.0525284
0.0540234
0.0413466
0.0256814
0.0075588
0.0757555
0.191567
0.163793
0.00170573
-0.180326
-0.26678
-0.807776
-0.599927
-0.507034
-0.511184
-0.0664194
-0.040292
0.141479
0.27843
0.235084
0.125655
0.081767
0.111499
0.138292
0.156905
0.165657
0.165326
0.16644
0.167681
0.170611
0.173819
0.175151
0.170083
0.0353747
0.0314192
0.0339351
0.0372739
0.0400074
0.0430609
0.0464863
0.0493187
0.0568704
0.0592757
0.0466753
0.0034666
-0.0808769
-0.0842485
0.0796306
0.151916
0.322313
0.183361
0.261559
0.155701
0.0784881
0.268662
0.195617
0.228869
0.134851
0.0572037
-0.0516269
-0.0259835
0.0526103
0.0868322
0.127547
0.142841
0.150984
0.155204
0.157506
0.160285
0.158808
0.157372
0.155458
0.159946
0.0326508
0.0376245
0.0374937
0.0379128
0.0387387
0.0397373
0.0395128
0.0444274
0.0506971
0.0583346
0.0826878
0.0892224
0.0733437
-0.0439008
-0.196858
-0.272784
-0.26953
-0.213909
-0.237016
-0.0867682
-0.000997952
-0.197163
-0.2644
-0.348289
-0.344381
-0.248972
-0.0721936
0.0103587
0.0571536
0.101036
0.119891
0.130617
0.138095
0.140122
0.14657
0.150758
0.152779
0.153256
0.154132
0.15091
0.0411475
0.0406216
0.0404578
0.0394584
0.0392776
0.0393564
0.0375254
0.0343805
0.0262277
0.0270132
0.0210503
0.0222464
-0.0134281
-0.0235819
-0.0305519
-0.109724
-0.141734
-0.265665
-0.121045
-0.325113
-0.161158
-0.0509575
-0.439913
-0.328664
-0.342632
-0.24953
-0.18065
-0.0949635
0.00199839
0.0665049
0.0935508
0.0997838
0.123161
0.132437
0.141515
0.146851
0.151477
0.155099
0.157306
0.157246
0.037804
0.0395986
0.0382806
0.0367193
0.0356855
0.0320548
0.0310735
0.0297764
0.0193477
0.0116739
-0.0177874
-0.0279308
0.0336374
0.0963643
0.129847
0.12439
0.0329482
-0.0158209
0.0835922
0.262585
0.154471
-0.109341
-0.267402
-0.23288
-0.0844438
0.00252099
0.0628296
0.0627222
0.0284746
0.0385223
0.0799571
0.110363
0.12803
0.136597
0.145273
0.14744
0.149067
0.149913
0.149942
0.1478
0.0326699
0.0281655
0.0305884
0.0326849
0.0332843
0.0307998
0.0279213
0.0220677
0.0203689
0.015058
-0.0320907
-0.0881015
-0.155742
-0.219093
-0.215303
-0.163199
-0.0179142
0.0518623
0.0940439
-0.0482117
-0.0651729
0.105358
-0.0929176
-0.140072
-0.184047
-0.19937
-0.174122
-0.104281
0.0111381
0.0900988
0.117185
0.129375
0.134367
0.136899
0.139205
0.139879
0.138733
0.137563
0.134506
0.139889
0.0402139
0.0434794
0.0388837
0.0335796
0.0289088
0.0240487
0.0162054
0.00302199
-0.0140473
-0.0279988
-0.0384753
-0.0352617
-0.0985329
-0.190059
-0.318502
-0.317158
-0.305245
-0.240644
-0.335336
-0.222939
-0.166016
-0.218236
-0.180937
-0.169281
-0.141534
-0.102192
0.00857362
0.12714
0.181191
0.15353
0.128209
0.115304
0.125014
0.133582
0.136375
0.136168
0.139221
0.143448
0.14843
0.144653
0.0384461
0.0385396
0.0394492
0.0383514
0.0346846
0.0292928
0.0162496
0.000329812
-0.0278782
-0.0682566
-0.137276
-0.203099
-0.188224
-0.167691
-0.136771
-0.185622
-0.183047
-0.180103
-0.115666
-0.0686059
-0.0725569
0.0268609
0.182113
0.254979
0.284026
0.337501
0.322837
0.218865
0.100608
0.0944721
0.120322
0.138517
0.137544
0.143081
0.143075
0.143533
0.142315
0.139666
0.136556
0.138463
0.0349021
0.0336294
0.0325451
0.0322799
0.0306172
0.0258832
0.0146881
-0.00376269
-0.0329207
-0.0673752
-0.0846223
-0.172286
-0.28868
-0.364608
-0.377335
-0.387392
-0.346728
-0.315343
-0.0604438
0.181154
0.194767
0.2302
0.273207
0.319126
0.300335
0.247181
0.185923
0.164026
0.205146
0.21739
0.160299
0.146331
0.133098
0.133863
0.133669
0.13252
0.130004
0.130237
0.131099
0.131685
0.0429344
0.0421081
0.0410303
0.03868
0.0343259
0.0265828
0.0168627
-0.00259229
-0.0279757
-0.0694471
-0.149311
-0.246551
-0.333493
-0.468268
-0.564956
-0.593943
-0.564948
-0.436308
-0.394665
-0.307205
-0.0493875
0.113099
0.232333
0.260259
0.254749
0.23392
0.241661
0.255092
0.2018
0.161819
0.15974
0.144037
0.143614
0.134444
0.133304
0.132346
0.132809
0.131935
0.131454
0.132409
0.0517645
0.0553777
0.0519883
0.0474494
0.0421036
0.0348049
0.0244251
0.00495089
-0.0231244
-0.0559923
-0.102126
-0.176219
-0.261318
-0.328251
-0.37658
-0.412383
-0.530231
-0.473224
-0.440481
-0.246817
-0.109392
0.088777
0.327582
0.394602
0.547018
0.489167
0.403512
0.301004
0.233159
0.192909
0.155929
0.1371
0.130255
0.127517
0.127285
0.127231
0.128573
0.128879
0.131501
0.129943
0.0507847
0.0508617
0.0535775
0.055502
0.0549134
0.0512469
0.0449961
0.0331867
0.0125948
-0.0344253
-0.10234
-0.138366
-0.157107
-0.228724
-0.319135
-0.411817
-0.463828
-0.417429
-0.238031
0.0096167
0.197148
0.320591
0.38923
0.435372
0.449425
0.413182
0.350623
0.26681
0.183524
0.139994
0.137195
0.132922
0.127901
0.124746
0.122878
0.12331
0.122817
0.121582
0.120189
0.120648
0.0613488
0.0583341
0.0573786
0.0563649
0.0553777
0.0530862
0.0494391
0.0455632
0.0431592
0.0318067
-0.00086074
-0.0921689
-0.211247
-0.271756
-0.296858
-0.315564
-0.27788
-0.28166
-0.230855
-0.159964
-0.114694
0.0929754
0.210202
0.258251
0.211791
0.156866
0.0998029
0.0742195
0.108606
0.129273
0.125919
0.117204
0.109834
0.109388
0.110702
0.113499
0.11447
0.115374
0.116639
0.119833
0.0736075
0.0775019
0.0753885
0.0739304
0.0722302
0.071537
0.0701797
0.0667277
0.0621126
0.0553416
0.0672597
0.095502
0.0885537
0.029402
-0.0373128
-0.0958008
-0.18142
-0.20649
-0.16914
-0.112579
-0.0587291
-0.00110682
0.00484858
0.014478
0.0853299
0.0832304
0.0826312
0.0947969
0.0710297
0.0515431
0.0594391
0.0761453
0.0853613
0.0966512
0.105155
0.111632
0.117396
0.121998
0.126104
0.121841
0.077325
0.0728661
0.0767092
0.0809149
0.085198
0.0896801
0.0946289
0.10173
0.109757
0.110994
0.104567
0.126043
0.196712
0.243492
0.295485
0.255556
0.194221
0.131346
0.0768411
0.0399398
0.000841454
0.0164688
0.00579857
-0.0199819
0.000311477
0.0076671
-0.0128187
-0.0382576
-0.0550262
-0.0203635
0.0337522
0.0604156
0.0850732
0.0952363
0.104559
0.110342
0.11346
0.113407
0.112619
0.117289
0.0808515
0.0834244
0.0826306
0.084058
0.0862697
0.0902701
0.0971388
0.115223
0.133368
0.162679
0.200753
0.216754
0.20294
0.227456
0.249585
0.28319
0.257881
0.210605
0.1477
0.0762077
-0.0174307
-0.167456
-0.276388
-0.342719
-0.383588
-0.355133
-0.302259
-0.208256
-0.101493
-0.0320635
0.0103155
0.0481503
0.0726088
0.0824682
0.0951031
0.104059
0.109144
0.110862
0.113391
0.113242
0.0934481
0.0916553
0.0926349
0.093673
0.0955472
0.0987629
0.106189
0.11821
0.134463
0.161822
0.186744
0.234983
0.291718
0.349405
0.391615
0.392574
0.410493
0.300455
0.0743601
-0.12481
-0.262013
-0.27997
-0.387837
-0.465142
-0.493095
-0.43656
-0.35751
-0.259219
-0.172888
-0.0884884
-0.0140452
0.034605
0.0600057
0.0811453
0.0952804
0.108405
0.115598
0.120486
0.123038
0.126267
0.0941883
0.0971907
0.0959503
0.096122
0.0971057
0.101978
0.108102
0.116427
0.128148
0.147068
0.1947
0.264906
0.353271
0.42052
0.446919
0.442489
0.362128
0.290835
0.25218
0.132465
-0.0568074
-0.328127
-0.521137
-0.564152
-0.488673
-0.379271
-0.231319
-0.13304
-0.0716541
-0.0357518
0.00287015
0.0465058
0.0788636
0.10011
0.111657
0.119496
0.124814
0.128258
0.130912
0.128558
0.0911857
0.0893378
0.0920908
0.0952713
0.0975781
0.100348
0.103866
0.111087
0.117558
0.124358
0.120646
0.131151
0.175488
0.229187
0.287972
0.337771
0.360022
0.305269
0.142079
-0.078287
-0.240956
-0.334539
-0.330339
-0.381129
-0.364088
-0.319615
-0.236508
-0.157093
-0.0885183
-0.0176395
0.0426575
0.077766
0.107909
0.118575
0.125342
0.129042
0.13038
0.12897
0.125868
0.129105
0.0984027
0.0987007
0.0958157
0.0926471
0.0900748
0.0866809
0.0845609
0.0792624
0.0824123
0.0812791
0.0730704
0.0484925
0.0290636
0.0386228
0.0682598
0.041612
0.0679121
-0.0383647
-0.0868818
-0.0978011
-0.143857
-0.253315
-0.284559
-0.239741
-0.198716
-0.142055
-0.0811753
-0.0324817
0.0462529
0.10295
0.11165
0.117514
0.117882
0.125664
0.130198
0.133407
0.136967
0.141633
0.145539
0.144431
0.101639
0.103572
0.102363
0.0995297
0.0943736
0.0844075
0.0774335
0.061537
0.0292212
-0.00468435
-0.033032
-0.0427267
-0.0535432
-0.103619
-0.146532
-0.132924
-0.205088
-0.0916733
-0.110388
-0.143937
-0.108916
-0.0617606
0.0217014
0.0792907
0.131237
0.183059
0.221391
0.238966
0.216307
0.164798
0.14842
0.153557
0.154931
0.159135
0.158716
0.1579
0.157338
0.15614
0.154991
0.153725
0.100615
0.0973121
0.096503
0.0945306
0.0904582
0.082311
0.0697127
0.0494805
0.0146841
-0.021605
-0.07907
-0.153565
-0.215461
-0.276327
-0.34048
-0.382006
-0.420309
-0.351821
-0.22524
-0.0554296
0.122676
0.156228
0.259152
0.289336
0.355809
0.379189
0.363956
0.315172
0.268754
0.25544
0.234945
0.206591
0.187071
0.177857
0.170701
0.165867
0.161811
0.15897
0.157584
0.160682
0.104349
0.104884
0.102205
0.0981786
0.0906564
0.0788539
0.0616381
0.0377348
-0.00920771
-0.0712993
-0.143546
-0.242167
-0.364875
-0.470245
-0.538854
-0.556498
-0.49902
-0.493427
-0.389585
-0.209329
0.0279294
0.291851
0.43618
0.563219
0.549349
0.507767
0.438703
0.379838
0.343088
0.293808
0.246058
0.224634
0.202155
0.1878
0.178469
0.174319
0.172825
0.17196
0.171645
0.169415
0.120773
0.120146
0.116699
0.109998
0.100338
0.0864236
0.0675845
0.0374297
0.00197616
-0.0490882
-0.127168
-0.216067
-0.303822
-0.394715
-0.490281
-0.605366
-0.649372
-0.58265
-0.41439
-0.104554
0.152636
0.339319
0.478263
0.585395
0.650053
0.651361
0.585726
0.504489
0.40348
0.323832
0.276448
0.239959
0.205562
0.192492
0.18635
0.183205
0.182091
0.18109
0.181367
0.181776
0.128705
0.129944
0.129008
0.126482
0.121312
0.113265
0.0980511
0.0714942
0.035255
-0.012389
-0.0590242
-0.129233
-0.229961
-0.349505
-0.464585
-0.540019
-0.540643
-0.435452
-0.257689
-0.0644389
0.185418
0.445909
0.600092
0.65137
0.654777
0.594319
0.526861
0.454366
0.377862
0.30862
0.257678
0.228591
0.209913
0.199375
0.192801
0.1884
0.186213
0.185164
0.185076
0.18505
0.141052
0.139461
0.140144
0.139023
0.136509
0.131565
0.123563
0.108503
0.0850158
0.0511737
-0.00594
-0.0854491
-0.145113
-0.190709
-0.24369
-0.286123
-0.314509
-0.25814
-0.203553
-0.0586901
0.10478
0.256683
0.399703
0.473829
0.488365
0.445419
0.37718
0.306894
0.251568
0.231443
0.221967
0.209188
0.199233
0.193272
0.189773
0.187868
0.186983
0.185638
0.184007
0.186993
0.163606
0.165138
0.162524
0.159089
0.155986
0.153914
0.150426
0.145675
0.141098
0.133074
0.130853
0.124764
0.0855642
0.0496282
0.0138095
-0.0251809
-0.0385674
-0.0512187
-0.0257465
0.0715311
0.126768
0.132537
0.167794
0.204523
0.210188
0.203936
0.182514
0.180539
0.17996
0.175508
0.164878
0.167005
0.172884
0.177303
0.181914
0.185442
0.190322
0.194883
0.198609
0.196531
0.178434
0.177519
0.179947
0.183411
0.187077
0.191107
0.196931
0.201841
0.209123
0.220739
0.247226
0.285267
0.322522
0.338751
0.32512
0.283068
0.215805
0.202407
0.155573
0.0972754
0.0563227
0.00270714
-0.0360952
-0.0485245
-0.0190055
0.0231853
0.0612906
0.0761742
0.0732641
0.102159
0.124175
0.145168
0.162798
0.176797
0.18665
0.192646
0.19666
0.199807
0.200166
0.200548
0.193239
0.19255
0.193917
0.197355
0.202543
0.21089
0.225412
0.241354
0.267668
0.299766
0.331177
0.37039
0.417314
0.464856
0.508534
0.534689
0.503509
0.439157
0.294429
0.17386
-0.0133584
-0.166873
-0.261734
-0.292622
-0.280177
-0.244622
-0.176098
-0.0941946
-0.0186288
0.0498375
0.098907
0.13454
0.159215
0.175562
0.186591
0.193708
0.197734
0.200523
0.202738
0.204302
0.209255
0.210359
0.212318
0.21614
0.220124
0.22929
0.244464
0.263159
0.292708
0.324683
0.37397
0.444515
0.521687
0.612183
0.684453
0.703539
0.647115
0.485022
0.275567
0.0272331
-0.153816
-0.301646
-0.405777
-0.411517
-0.372833
-0.307909
-0.233831
-0.158189
-0.0720104
0.00726163
0.0643418
0.118232
0.156774
0.177911
0.19421
0.20379
0.209959
0.213469
0.215321
0.216237
0.221633
0.222054
0.223393
0.226261
0.231348
0.240589
0.253931
0.273881
0.306636
0.349714
0.410257
0.489776
0.570856
0.626798
0.648173
0.625686
0.576851
0.493704
0.340463
0.0922117
-0.117034
-0.311927
-0.447307
-0.498837
-0.451657
-0.344177
-0.216586
-0.0949837
0.0045187
0.0680336
0.11353
0.15203
0.18094
0.197887
0.212222
0.221406
0.227013
0.231334
0.23371
0.231618
0.226156
0.226531
0.228491
0.23169
0.237583
0.246103
0.25786
0.272687
0.295163
0.324294
0.358447
0.398494
0.459602
0.5246
0.575867
0.580059
0.536307
0.389191
0.163094
-0.06769
-0.246002
-0.352358
-0.349145
-0.291052
-0.280778
-0.206984
-0.137556
-0.0512355
0.0397242
0.104053
0.16101
0.196369
0.220596
0.234317
0.241888
0.2456
0.246341
0.245681
0.244487
0.243342
0.229618
0.228444
0.229728
0.23184
0.234836
0.238009
0.243148
0.254601
0.262326
0.272079
0.281304
0.29651
0.327049
0.342688
0.324378
0.286993
0.233898
0.139815
0.00657482
-0.101252
-0.181252
-0.216405
-0.2053
-0.137345
-0.076102
-0.0105746
0.0504526
0.10426
0.150811
0.188771
0.228376
0.248326
0.254907
0.257915
0.259497
0.260359
0.260274
0.259412
0.258318
0.259513
0.236382
0.2385
0.236644
0.234074
0.231624
0.230564
0.226949
0.222897
0.214904
0.207118
0.202977
0.190171
0.168948
0.139259
0.0943683
0.0163649
0.0125355
-0.0694456
-0.152235
-0.179618
-0.171087
-0.071385
0.00631396
0.121168
0.190979
0.255078
0.279903
0.301379
0.322899
0.317804
0.300455
0.29228
0.289116
0.291011
0.286902
0.283083
0.281829
0.281651
0.282173
0.279203
0.237627
0.236954
0.237218
0.236681
0.23457
0.229092
0.22171
0.210078
0.194333
0.167702
0.130077
0.0917325
0.0366818
-0.0371601
-0.120661
-0.217593
-0.285213
-0.291457
-0.262378
-0.159287
-0.0168789
0.121033
0.254928
0.340265
0.388595
0.437637
0.448595
0.441158
0.415254
0.388145
0.371683
0.352283
0.332341
0.321485
0.313164
0.306704
0.300015
0.295339
0.291575
0.293154
0.239399
0.238159
0.237241
0.235545
0.232668
0.226677
0.215386
0.197817
0.168982
0.123782
0.0672952
-0.0128167
-0.109083
-0.199861
-0.259113
-0.312028
-0.347653
-0.370632
-0.33623
-0.207106
0.00551844
0.234667
0.474157
0.62845
0.671338
0.643141
0.580801
0.521843
0.462839
0.433815
0.399385
0.367225
0.350916
0.335842
0.325062
0.316527
0.310696
0.307875
0.306668
0.304868
0.247339
0.246856
0.246532
0.244392
0.239782
0.231589
0.2168
0.19655
0.165588
0.118363
0.0565824
-0.00989312
-0.0846383
-0.168513
-0.263561
-0.351323
-0.448693
-0.408952
-0.276601
-0.0929238
0.138878
0.314244
0.479613
0.580164
0.642204
0.681774
0.658821
0.608864
0.526343
0.462301
0.419436
0.387836
0.363565
0.346089
0.335888
0.328317
0.322588
0.318612
0.315835
0.316857
0.257252
0.259329
0.258202
0.256582
0.253052
0.246368
0.23542
0.218986
0.194289
0.162023
0.119544
0.0520896
-0.0488193
-0.154478
-0.233865
-0.281477
-0.318118
-0.289878
-0.212988
-0.0661065