/*--------------------------------*- C++ -*----------------------------------*\
| =========                 |                                                 |
| \\      /  F ield         | OpenFOAM: The Open Source CFD Toolbox           |
|  \\    /   O peration     | Version:  v2106                                 |
|   \\  /    A nd           | Website:  www.openfoam.com                      |
|    \\/     M anipulation  |                                                 |
\*---------------------------------------------------------------------------*/
FoamFile
{
    version     2.0;
    format      ascii;
    arch        "LSB;label=32;scalar=64";
    class       volVectorField;
    location    "0";
    object      U;
}
// * * * * * * * * * * * * * * * * * * * * * * * * * * * * * * * * * * * * * //

dimensions      [0 1 -1 0 0 0 0];

internalField   nonuniform List<vector> 
11644
(
(-0.000107765 1.16311e-05 -5.85302e-22)
(-0.00010648 3.50797e-05 -1.61409e-21)
(-0.000104693 5.65153e-05 -8.65999e-22)
(-0.000110879 7.69881e-05 0)
(-0.000112933 0.000102285 0)
(-0.000115229 0.000136878 0)
(-0.000106931 0.000181781 0)
(-8.95598e-05 0.000173298 0)
(-8.5922e-05 0.00015276 0)
(-0.000104185 0.000144579 0)
(-0.000125097 0.000166625 0)
(-0.000159594 0.00019405 0)
(-0.000200126 0.000279332 0)
(-0.000144188 0.00046593 0)
(-0.000116828 0.000444803 0)
(-0.000302038 0.000357828 0)
(4.19097e-06 0.00053186 0)
(0.00122357 0.000380684 0)
(-0.0011159 -0.000698891 0)
(-0.0017047 0.00141823 -3.40826e-31)
(0.00139362 0.00152169 4.1427e-31)
(0.000960763 -0.000689026 0)
(-0.00129786 0.000422626 0)
(-5.71519e-05 0.000588096 0)
(0.000193959 0.000333039 0)
(-6.67173e-05 0.000431231 0)
(-4.31908e-05 0.000394169 0)
(-2.89629e-05 0.000194085 0)
(-5.14965e-05 8.26423e-05 0)
(-8.23173e-05 2.72042e-05 0)
(-0.000102399 -1.01373e-06 0)
(-0.000115096 6.56148e-06 0)
(-0.000102685 3.30991e-05 0)
(-7.8925e-05 5.22012e-05 0)
(-7.52738e-05 1.60462e-05 0)
(-8.81321e-05 -6.65354e-07 0)
(-9.22589e-05 -2.24968e-06 0)
(-9.82777e-05 -6.12014e-06 0)
(-9.87176e-05 -5.1122e-06 0)
(-9.74059e-05 -3.12579e-06 -1.13484e-22)
(-0.000148703 1.84586e-05 -7.51816e-22)
(-0.000154374 4.95936e-05 -6.96423e-22)
(-0.000165272 8.58666e-05 -3.74027e-22)
(-0.000177816 0.000124183 0)
(-0.000183536 0.000167147 0)
(-0.000185394 0.000193663 0)
(-0.000181471 0.000223959 0)
(-0.000174808 0.000297739 0)
(-0.000175876 0.00037372 0)
(-0.0001895 0.000419885 0)
(-0.000204283 0.000398048 0)
(-0.000235233 0.000371305 0)
(-0.000276165 0.000234604 0)
(-0.000255386 6.82328e-05 0)
(-0.000129855 5.88804e-05 0)
(0.00016388 7.68832e-05 -6.10485e-23)
(8.58638e-05 -0.000157049 1.09826e-22)
(-0.000394478 0.00100658 2.17858e-21)
(-0.000133703 0.00133202 -6.81439e-21)
(-0.000119731 -6.91529e-06 1.07621e-20)
(0.000421488 3.53904e-05 -1.17524e-20)
(0.000248102 0.00143885 7.84449e-21)
(0.000149904 0.00119737 -2.21447e-21)
(-0.000260076 0.000231763 -9.97655e-23)
(-0.00023106 0.000455479 1.38471e-22)
(7.99899e-06 0.0002925 0)
(7.34662e-05 0.000139223 0)
(8.90268e-05 0.000109068 0)
(1.15132e-06 0.000107126 0)
(-6.27081e-05 4.25354e-05 0)
(-9.23938e-05 8.53571e-06 0)
(-0.000111955 -5.53413e-05 0)
(-0.000124381 -0.000115309 0)
(-0.000118661 -0.000148002 0)
(-0.000109818 -0.000118899 0)
(-0.000110709 -8.86439e-05 0)
(-0.000115453 -7.67358e-05 0)
(-0.000128124 -5.58373e-05 0)
(-0.00013065 -3.69625e-05 0)
(-0.0001214 -1.23583e-05 0)
(-0.000163985 8.15474e-06 0)
(-0.000176178 3.17413e-05 0)
(-0.000191557 6.06912e-05 0)
(-0.000200292 8.94727e-05 0)
(-0.000205243 0.000108847 -6.8677e-22)
(-0.00021936 0.000142162 0)
(-0.000235092 0.000162113 0)
(-0.000255559 0.000197721 0)
(-0.000267754 0.000238481 0)
(-0.000264385 0.000283957 0)
(-0.000257599 0.000317014 0)
(-0.000222392 0.00032372 0)
(-0.000139258 0.000286655 1.57434e-22)
(-8.3215e-05 0.000152125 -4.10775e-21)
(-0.000132493 6.40606e-05 2.03032e-20)
(-0.000192526 0.000146332 -2.69183e-20)
(-5.46761e-05 0.000105153 6.71691e-20)
(-0.000788794 0.000316828 -8.58716e-20)
(0.00012951 0.00124055 7.50287e-20)
(0.000644722 -0.000603965 -2.34141e-21)
(-0.000621544 -0.000557784 -1.53902e-20)
(-0.000395696 0.00174589 -6.26401e-20)
(0.000716678 0.0010215 9.58433e-20)
(1.50587e-05 0.00059345 -8.37106e-20)
(0.000152706 0.000622828 3.84984e-20)
(0.000183957 0.000346909 -1.87047e-20)
(9.73162e-05 0.000228805 2.96786e-21)
(1.77273e-05 0.00017911 -5.87613e-23)
(1.41296e-05 8.1177e-05 0)
(-2.50539e-05 -4.91955e-06 0)
(-6.71621e-05 -6.95878e-05 0)
(-9.445e-05 -0.000106207 0)
(-0.000118672 -0.00012179 0)
(-0.000136434 -0.000123944 0)
(-0.000148017 -9.85434e-05 0)
(-0.000145377 -9.22623e-05 0)
(-0.000145966 -7.03563e-05 0)
(-0.000144165 -4.92221e-05 0)
(-0.000142968 -3.01254e-05 0)
(-0.00013804 -8.46075e-06 0)
(-0.00015496 -4.03439e-06 0)
(-0.000163571 -1.65766e-06 0)
(-0.000180983 9.70508e-06 0)
(-0.000194933 1.96077e-05 0)
(-0.000215793 3.46572e-05 0)
(-0.000241919 6.02759e-05 0)
(-0.000277501 9.05494e-05 0)
(-0.000309376 0.000123417 0)
(-0.000340162 0.00015548 0)
(-0.000353126 0.00018755 0)
(-0.000331084 0.000255074 1.76836e-23)
(-0.000292314 0.000298221 1.55338e-21)
(-0.000242803 0.000366437 -1.38569e-20)
(-0.000302801 0.000387069 5.2232e-21)
(-0.000302246 0.000310301 4.80474e-20)
(-0.000185245 0.000189417 -9.29991e-20)
(-0.000413661 0.000117466 4.73175e-20)
(-0.000741647 0.000175186 -3.40158e-20)
(5.84619e-05 0.00044754 -7.29491e-20)
(0.000927495 0.00054518 5.37964e-20)
(-0.00101721 0.000513736 6.16533e-20)
(-0.000278721 0.000788354 7.96615e-21)
(0.000669572 0.000758664 -2.17187e-20)
(0.00049864 0.000558363 4.91442e-20)
(0.000217046 0.000489265 -1.96756e-20)
(0.00026232 0.000385626 -1.81549e-20)
(0.000167634 0.000214215 -1.06776e-20)
(4.55917e-05 5.36895e-05 3.02098e-21)
(-4.49495e-05 -4.9875e-05 5.99925e-21)
(-7.4547e-05 -0.000105143 -2.54483e-23)
(-8.83147e-05 -0.000132417 0)
(-0.000108544 -0.000121113 0)
(-0.000127235 -0.00010274 0)
(-0.000139133 -8.94481e-05 0)
(-0.000148308 -8.39864e-05 0)
(-0.000145864 -7.3214e-05 0)
(-0.00014501 -5.73814e-05 0)
(-0.000144038 -3.89619e-05 0)
(-0.000144726 -1.27357e-05 0)
(-0.000143285 -6.40568e-06 0)
(-0.000158012 6.26575e-06 0)
(-0.000158957 1.07408e-05 0)
(-0.000161512 9.38274e-06 0)
(-0.000178579 1.15044e-05 0)
(-0.00021305 1.62748e-05 0)
(-0.000250689 2.74142e-05 0)
(-0.000295038 5.12545e-05 0)
(-0.000341864 8.10164e-05 0)
(-0.000386799 0.000131415 0)
(-0.000421453 0.000210828 1.07036e-21)
(-0.000500868 0.000311209 1.13621e-21)
(-0.000560392 0.000445667 -3.45975e-20)
(-0.000652573 0.000487641 -4.73694e-20)
(-0.000507926 0.000537547 1.35525e-19)
(-0.000251929 0.000420027 -1.12227e-19)
(-0.000422426 0.000289665 -4.59278e-20)
(-0.000540502 0.000344085 1.12597e-19)
(4.48089e-05 -6.64277e-05 1.19103e-20)
(-0.000155532 0.000382161 -5.42823e-20)
(8.00327e-05 0.00113926 9.1593e-20)
(0.000182696 0.00126024 -2.9239e-20)
(0.000591655 0.00050623 -1.09451e-19)
(0.000169477 0.000204882 9.31997e-20)
(0.000565465 0.000757834 -1.73812e-19)
(0.000334302 0.000511023 1.05269e-19)
(0.000246187 0.000294158 1.11663e-19)
(0.000258808 0.000132105 -1.32339e-19)
(0.000113219 -2.59342e-05 6.31555e-20)
(7.86128e-06 -0.000125166 5.15216e-21)
(-0.000117272 -0.000154419 7.19303e-21)
(-0.000176455 -0.00016559 -5.61343e-22)
(-0.000169211 -0.000156163 0)
(-0.00016795 -0.000131268 0)
(-0.000164296 -0.000103565 0)
(-0.000160647 -8.44602e-05 0)
(-0.000161168 -5.91901e-05 0)
(-0.000162458 -4.14645e-05 0)
(-0.000162204 -2.25754e-05 0)
(-0.000157705 -1.61018e-05 0)
(-0.000162368 3.74515e-06 0)
(-0.000139429 -2.12943e-05 0)
(-0.000149129 -3.13043e-05 0)
(-0.000151747 -2.47379e-05 0)
(-0.000167981 -2.05641e-05 0)
(-0.000196936 -1.31084e-05 0)
(-0.000236955 -2.76043e-06 0)
(-0.000280927 1.20611e-05 0)
(-0.000338994 4.73274e-05 0)
(-0.000399553 0.000108903 1.04773e-21)
(-0.000538064 0.000218335 1.6708e-20)
(-0.000718601 0.000377256 7.90005e-21)
(-0.000915664 0.000453303 -3.46377e-20)
(-0.00087972 0.000711531 -1.56636e-20)
(-0.000959502 0.000740393 -1.10942e-19)
(-0.000827691 0.000500906 2.10182e-19)
(-0.000507907 0.000332742 -2.59388e-19)
(0.000416235 0.000536509 2.1943e-19)
(0.000104909 0.000838025 -1.88736e-19)
(0.000274215 0.000490413 3.8461e-19)
(-0.000323487 0.000682885 -4.23136e-19)
(0.000726551 0.000504373 2.66416e-19)
(0.000287034 0.000324277 -6.32824e-20)
(0.000219624 0.000913823 2.42701e-20)
(-0.000247155 0.000539555 -4.05653e-20)
(0.000441593 0.000387315 7.70922e-20)
(0.000177323 0.000270761 -1.7677e-19)
(6.783e-05 3.04875e-05 5.44593e-20)
(0.000142698 -9.55917e-05 8.95179e-20)
(3.60653e-05 -7.14755e-05 -3.11188e-20)
(-5.40657e-05 -0.000103341 1.5315e-20)
(-0.000171263 -0.00012205 -2.23212e-20)
(-0.000211098 -0.000132584 2.92763e-24)
(-0.000185714 -0.000124584 0)
(-0.000172421 -0.000102836 0)
(-0.000162196 -8.40209e-05 0)
(-0.000160506 -7.34191e-05 0)
(-0.00016285 -6.28257e-05 0)
(-0.000158934 -5.16524e-05 0)
(-0.000161769 -2.97246e-05 0)
(-0.000168202 -1.61088e-05 0)
(-9.44003e-05 1.59594e-05 0)
(-0.000102437 -1.05564e-05 0)
(-0.000119728 -3.72677e-05 0)
(-0.00013747 -6.1775e-05 0)
(-0.000160525 -6.93373e-05 0)
(-0.000200181 -7.52698e-05 0)
(-0.000246119 -6.6587e-05 0)
(-0.000310988 -2.95169e-05 5.29093e-22)
(-0.000464034 6.17695e-05 -1.18494e-20)
(-0.000702398 0.000184002 3.04766e-21)
(-0.000907564 0.00031076 -1.48147e-20)
(-0.00106199 0.00063403 -4.09797e-21)
(-0.0011658 0.000702366 2.66915e-20)
(-0.00118466 0.000965737 1.26219e-19)
(-0.00113733 0.00129745 9.49756e-20)
(-0.00102903 0.00108186 -2.37047e-19)
(-0.000719992 0.000174791 -8.53167e-20)
(3.11579e-05 0.000652222 1.65218e-19)
(-5.47975e-05 0.00130185 -8.22536e-20)
(-0.000400776 0.000491902 -3.72041e-20)
(0.000200191 -5.94515e-05 3.07817e-19)
(-9.40831e-06 0.000938903 -5.2608e-20)
(-0.000274085 0.00094894 1.77215e-19)
(-4.98386e-05 -0.000357553 -1.87414e-20)
(-6.1805e-05 0.000670859 1.63115e-19)
(-3.95005e-06 0.000333548 -1.226e-19)
(0.000460395 0.000107523 -5.63775e-20)
(-1.10888e-05 0.000116183 -9.5496e-21)
(0.000150965 -5.81357e-06 -1.54699e-20)
(0.00012478 -5.7133e-06 -1.12493e-20)
(1.71801e-05 -2.54947e-05 2.63907e-21)
(-0.000104833 -5.73905e-05 3.17152e-21)
(-0.000151877 -9.08697e-05 1.08133e-22)
(-0.000137572 -0.000104651 0)
(-0.000136746 -9.1038e-05 0)
(-0.000137981 -7.85543e-05 0)
(-0.000145735 -5.62266e-05 0)
(-0.000153575 -4.73765e-05 0)
(-0.000159351 -1.69264e-05 0)
(-0.000165502 -8.89267e-06 0)
(-4.71645e-05 -3.62272e-05 0)
(-4.06729e-05 -4.03632e-05 0)
(-5.64218e-05 -5.94104e-05 0)
(-7.15112e-05 -6.64519e-05 0)
(-9.53106e-05 -9.8684e-05 0)
(-0.000122602 -0.000119447 0)
(-0.000171469 -0.000135642 0)
(-0.000281174 -9.65377e-05 -5.30582e-22)
(-0.000552735 -1.6268e-05 -9.20243e-21)
(-0.000803037 0.000117486 2.07836e-20)
(-0.000958862 0.000284326 5.77725e-21)
(-0.00109484 0.000420709 -3.18433e-20)
(-0.00166459 0.000202763 2.25934e-20)
(-0.000398114 0.000630941 8.29661e-20)
(-0.00171961 0.000867672 4.58583e-20)
(-0.00122029 0.00109609 1.66453e-19)
(-0.000376052 0.00153674 -3.31705e-20)
(-0.00153902 0.000249527 6.59243e-20)
(-0.000272316 0.00081983 4.02792e-19)
(-0.000126679 0.000580083 -4.43534e-19)
(0.00035099 0.00166824 1.63262e-19)
(3.04118e-05 0.00104414 -6.93246e-19)
(0.000540806 0.000685237 2.4414e-19)
(0.00153623 0.000415701 -7.84748e-20)
(-0.000854604 0.000735326 -3.62155e-20)
(-0.000270676 0.000302159 2.54243e-19)
(0.00029152 0.000255566 -1.02004e-20)
(0.000391882 6.14822e-06 3.9478e-20)
(0.000336986 0.000278647 -8.34524e-21)
(0.000331818 0.000146135 -3.30262e-20)
(0.000296742 5.83518e-05 3.16733e-21)
(0.000160103 2.49962e-06 -7.28146e-21)
(-2.56139e-05 -5.92316e-05 2.84028e-21)
(-8.7324e-05 -0.000105837 0)
(-9.92947e-05 -0.000108672 0)
(-0.000115114 -8.23525e-05 0)
(-0.000127521 -7.20512e-05 0)
(-0.000137139 -3.5575e-05 0)
(-0.000151302 -4.25762e-05 0)
(-0.00015729 1.11979e-05 0)
(2.74216e-05 -2.29607e-05 0)
(2.47313e-05 -5.10051e-05 0)
(3.6262e-05 -9.59709e-05 0)
(2.59875e-05 -0.00014391 0)
(1.72858e-06 -0.000179164 0)
(-1.63006e-05 -0.000213964 0)
(-5.7816e-05 -0.000225449 -1.02947e-21)
(-0.000250272 -0.000180392 5.21316e-21)
(-0.000534435 -0.000116816 -2.13696e-20)
(-0.000730286 1.98171e-06 1.81824e-20)
(-0.000904612 0.000173891 1.27763e-20)
(-0.00100598 0.000263444 -1.6939e-20)
(-0.000974107 0.00165862 5.44666e-21)
(-0.00212702 0.00184856 -7.21398e-20)
(-0.00112428 0.00118794 7.59933e-20)
(-0.00116271 0.00115396 -9.50371e-20)
(-0.00161465 0.000340458 4.6228e-20)
(-0.000935811 0.000137612 6.67538e-20)
(-0.000153277 0.00089467 4.56667e-19)
(-0.000154632 0.000327523 1.82362e-19)
(-0.000117073 0.00303088 -3.20564e-20)
(0.000250367 0.000242947 -6.71585e-21)
(-0.000236622 0.000196958 -3.73982e-19)
(-0.000165045 0.00134629 7.20535e-20)
(0.000954132 -0.000614562 1.04491e-20)
(0.00103825 0.000529287 -4.12642e-20)
(0.000277865 0.000944907 -8.83119e-20)
(0.000503334 0.000318768 9.6439e-21)
(0.000798925 0.000338205 -8.83093e-21)
(0.000744794 0.000187069 1.6915e-20)
(0.000630827 0.000131684 -1.08056e-20)
(0.000460211 7.48158e-06 6.82089e-21)
(0.000210257 -7.61416e-05 -3.796e-21)
(8.3047e-06 -0.000132916 7.40122e-22)
(-4.88236e-05 -0.000169834 0)
(-9.58798e-05 -0.000175066 0)
(-0.000130905 -0.000171512 0)
(-0.000156549 -0.000155476 0)
(-0.000153886 -8.40545e-05 0)
(-0.000165082 -7.57908e-05 0)
(8.35877e-05 5.61359e-05 0)
(9.04225e-05 -3.85671e-05 0)
(8.37615e-05 -6.09043e-05 0)
(9.34153e-05 -0.000143463 0)
(9.70198e-05 -0.000195815 0)
(8.80519e-05 -0.000253594 0)
(3.84914e-05 -0.000255053 -1.59904e-21)
(-0.000165139 -0.000252783 -3.35136e-21)
(-0.000408357 -0.000232715 1.3708e-20)
(-0.000591053 -6.61021e-05 -7.49868e-21)
(-0.000711801 0.00014603 1.00143e-20)
(-0.000775157 0.000102371 3.60617e-21)
(-0.000993046 -0.000139233 -1.61314e-20)
(-0.00150602 -0.000392124 6.26129e-22)
(-0.00149223 0.000283356 -2.21589e-20)
(0.00011406 0.00141044 8.59941e-20)
(-0.000384611 0.0015989 -5.2249e-20)
(-0.000292675 0.00159494 -5.86985e-20)
(0.000359868 0.000706788 -1.39314e-19)
(0.00031498 0.000406032 -8.94887e-20)
(-4.60915e-05 0.000590879 1.0824e-19)
(1.43232e-05 0.000390605 1.57129e-19)
(0.000479408 0.000565176 -8.98719e-21)
(0.000444696 0.000743354 3.07397e-20)
(0.00105772 0.000810673 -5.38171e-20)
(0.0012965 0.000640334 4.50239e-20)
(0.00205319 6.31752e-05 4.78191e-20)
(0.0011554 -0.00102112 -1.69822e-20)
(0.00133503 0.00030489 1.93994e-20)
(0.00134704 0.000283698 -1.86375e-20)
(0.00106283 6.42674e-05 1.13487e-20)
(0.000770684 -9.51046e-05 6.21248e-21)
(0.000453172 -0.000159306 -6.95023e-21)
(0.00014106 -0.000206437 1.11198e-23)
(2.69806e-05 -0.000210191 0)
(-3.30082e-05 -0.000188644 0)
(-7.75243e-05 -0.000126022 0)
(-0.000134503 -0.00010355 0)
(-0.000177125 -4.32471e-05 0)
(-0.000201119 2.27108e-05 0)
(0.000130052 -0.000125256 0)
(0.000193738 -3.10922e-05 0)
(0.000175007 -9.4645e-05 0)
(0.000182365 -0.000114243 0)
(0.000177531 -0.000176172 0)
(0.000173887 -0.00021116 0)
(0.000105764 -0.000229663 -5.97365e-22)
(-7.96251e-05 -0.000243003 1.38462e-21)
(-0.00028057 -0.000289145 3.16206e-22)
(-0.000549036 -0.000206894 -2.24268e-21)
(-0.000841254 0.000215503 -2.44853e-21)
(-0.000676065 0.000420158 -1.46306e-21)
(1.30687e-05 -0.000800326 7.22905e-21)
(-0.00271441 0.000879848 -2.1923e-20)
(-0.000817737 0.00226342 8.86642e-21)
(-0.00131194 0.00178478 1.79059e-21)
(-0.000525081 0.0012452 6.44574e-21)
(0.000558566 0.00146861 2.45899e-21)
(0.000450678 0.00111557 -9.06654e-21)
(0.00099537 0.000537553 -1.32123e-19)
(6.21295e-05 -6.71539e-05 3.20346e-19)
(-0.000663324 0.000579434 -3.64273e-19)
(-9.99563e-05 0.00133998 6.644e-21)
(0.000621537 0.00122232 -1.09755e-21)
(0.00123061 0.00130926 -1.63466e-21)
(0.00110384 0.000759467 -1.30563e-20)
(0.00157949 0.00228288 1.6833e-20)
(0.00192264 -0.000748001 -3.98935e-21)
(0.0022294 0.000737459 -8.72918e-22)
(0.0019877 1.53686e-05 2.74949e-21)
(0.00146802 -0.000295908 1.77085e-21)
(0.00100891 -0.000328856 -2.73112e-21)
(0.000580807 -0.000324534 2.10121e-21)
(0.000199697 -0.000337056 -5.90316e-22)
(-1.52376e-05 -0.000332139 0)
(-9.74571e-05 -0.000285414 0)
(-0.000167331 -0.000223002 0)
(-0.000174378 -0.00011254 0)
(-0.000234078 -0.000121603 0)
(-0.000213128 -4.72372e-05 0)
(0.000257302 4.09317e-05 0)
(0.000265516 -2.70524e-05 0)
(0.00037366 -0.000145792 0)
(0.000340156 -0.000198038 0)
(0.000300834 -0.000221698 0)
(0.000257325 -0.000217569 0)
(0.000117419 -0.000168246 1.76646e-22)
(-5.01283e-05 -0.000242219 7.18992e-23)
(-0.000327165 -0.0003042 4.84564e-23)
(-0.00065788 -0.000235263 7.30058e-22)
(-0.00131829 0.000366972 2.59356e-22)
(-0.00204826 0.000993788 2.74322e-22)
(-0.00123015 2.16268e-05 -2.70478e-21)
(0.000111374 0.000854289 5.96268e-21)
(5.542e-05 0.000934913 7.38711e-21)
(-0.0010992 0.00250166 -1.10346e-21)
(-0.000698815 0.00266326 -1.4317e-20)
(0.000442759 0.00288917 -7.41514e-22)
(-0.00429866 0.0071766 1.612e-19)
(0.00500615 0.00634823 3.58253e-20)
(0.00120381 0.00114424 -2.61397e-21)
(0.00217555 0.000696562 -1.27557e-20)
(0.00329606 0.00136676 8.81192e-22)
(0.00325437 -1.38551e-06 -2.47894e-21)
(0.00313673 0.000281005 -8.34723e-22)
(0.00341323 0.000412635 2.41866e-21)
(0.00246971 -0.000381062 -3.53393e-22)
(0.00164326 -0.00071491 -2.9909e-22)
(0.000960222 -0.00075057 -6.50139e-22)
(0.000480456 -0.000593833 -1.27992e-22)
(0.000162735 -0.000456895 -1.63467e-22)
(-0.000102851 -0.00047251 0)
(-0.000253402 -0.000455755 0)
(-0.000356848 -0.000463668 0)
(-0.000426265 -0.000406739 0)
(-0.000322839 -0.000223297 0)
(-0.000269378 -0.000120097 0)
(0.000468802 0.000119285 0)
(0.000380011 -8.38549e-05 0)
(0.000137534 -0.000319251 0)
(0.000109926 -0.00042484 0)
(0.000100535 -0.000421432 0)
(1.05544e-05 -0.000294764 0)
(-8.68739e-05 -0.000128498 2.04088e-22)
(-5.07519e-05 -0.000301579 -1.17928e-21)
(-0.000209584 -0.000593434 -4.52995e-22)
(-0.00166931 -0.000717208 9.84664e-22)
(-0.00232532 -0.000298228 -2.47291e-21)
(-0.00360193 0.00137301 7.10751e-21)
(-0.00185019 0.000796627 -2.63042e-21)
(-0.00220713 0.000581027 5.60775e-21)
(-0.00474412 0.000340938 2.76547e-20)
(-0.00185416 0.00242354 7.40835e-21)
(-0.00179794 0.00324124 -7.71625e-21)
(0.00580883 0.00633649 -8.64858e-22)
(0.000621969 0.00482864 2.55313e-18)
(0.00128828 0.00411717 1.14403e-19)
(0.00688028 0.00239998 8.9464e-22)
(0.00248255 0.00125382 2.21346e-21)
(0.0040298 0.000548617 1.7626e-20)
(0.00214897 -0.00115959 1.31867e-20)
(0.00141653 0.000916011 3.22045e-21)
(0.00339448 0.000780921 -1.85833e-21)
(0.00236876 -0.0010725 5.89511e-21)
(0.00184501 -0.00137667 -5.00802e-21)
(0.00012596 -0.00127276 5.22057e-22)
(-3.58931e-07 -0.000802285 2.53989e-21)
(-3.34392e-05 -0.000515624 -6.21747e-22)
(-9.76191e-05 -0.000537382 0)
(-0.000190868 -0.000565998 0)
(-0.000207377 -0.000468271 0)
(-0.000279534 -0.000413084 0)
(-0.000537143 -0.000140662 0)
(-0.000651308 8.40852e-07 0)
(0.000357321 0.000104479 -3.2704e-23)
(0.000315821 -0.000220968 0)
(0.000212275 -9.41468e-05 0)
(9.65267e-05 -4.08717e-05 0)
(-0.000186608 -6.04712e-05 0)
(-0.000428457 -4.7675e-05 0)
(-0.000423058 -0.0002009 -1.13854e-22)
(5.04056e-05 -0.000314562 1.31472e-21)
(0.000430913 -0.0014364 -9.55788e-21)
(-0.000993594 -0.00218738 1.4388e-20)
(-0.00300113 -0.00390278 -2.37447e-20)
(-0.00445226 -0.00312347 4.03241e-20)
(-0.000825826 -0.00346915 -2.46778e-20)
(-0.00603656 -0.00595174 2.25057e-20)
(-0.00479553 -0.00463538 1.47973e-19)
(-0.0130114 0.00501082 2.51911e-20)
(-0.00162372 0.00430273 1.11552e-20)
(0.00414311 0.00149222 3.82707e-20)
(-0.0068763 0.0113118 -2.47642e-19)
(0.015567 0.00944875 1.09009e-20)
(0.00343497 0.0100495 6.21942e-21)
(0.00248886 0.000484594 1.6321e-20)
(-0.000248601 0.000174875 5.3253e-20)
(-0.00166148 -0.00233799 -8.93302e-20)
(-0.00187947 -0.00302516 -2.2875e-20)
(0.00262077 -0.00333037 -4.037e-21)
(0.00199178 -0.00381927 3.85775e-20)
(3.25607e-05 -0.0025799 -8.82015e-23)
(-0.00123327 -0.00197234 -3.22938e-21)
(-0.000738239 -0.000487855 -4.42677e-22)
(-0.000164645 -0.000400316 4.52221e-22)
(-0.000151638 -0.000138518 0)
(-0.000244286 -0.000128602 0)
(-0.000428298 -4.09462e-05 0)
(-0.000449401 -1.13315e-05 0)
(-0.00049187 -0.00013533 0)
(-0.000520298 0.000228775 0)
(0.00106334 0.000680762 4.43341e-24)
(0.000675071 -0.000356643 0)
(0.000739356 -0.000382867 0)
(0.000766365 -0.000489661 0)
(0.00050063 -0.000466082 0)
(0.000158256 -3.37917e-05 0)
(-0.000519514 -0.000119486 2.7263e-22)
(0.000274574 0.00141996 -3.46436e-21)
(0.000511417 0.000529442 -2.07011e-21)
(-0.0011308 -0.00126595 1.18995e-20)
(-0.00519121 -0.000553975 -2.23668e-20)
(-0.00311558 -0.00324626 3.67462e-20)
(-0.00197793 6.03276e-05 -1.12404e-20)
(-0.00917193 0.0104788 -1.31193e-19)
(-0.0062979 -0.0037147 2.12058e-20)
(-0.0158394 -0.00772995 1.58953e-19)
(-0.007508 0.00663638 4.72573e-20)
(-0.0045617 0.0463955 1.93822e-19)
(0.120834 0.0469378 -6.84818e-20)
(-0.307576 -0.0130742 -4.06789e-20)
(0.021222 0.0959317 -3.30737e-21)
(0.182292 -0.125578 -5.17742e-20)
(0.0265157 0.101094 4.79155e-20)
(0.0429619 0.00945127 -2.42956e-20)
(0.00277454 0.00138882 2.56239e-20)
(0.0134596 -0.00219694 8.43884e-20)
(-0.00187346 0.00501326 -1.12765e-19)
(1.40742e-05 0.000297304 6.41659e-20)
(0.001731 -0.0025812 -4.75869e-20)
(0.00289288 9.01109e-05 -1.15064e-20)
(-0.000669683 -0.00122305 9.00702e-21)
(-0.00179495 0.000782321 -7.61917e-21)
(-0.00137397 0.00163291 5.91025e-21)
(-0.000350455 -7.26996e-05 6.25485e-22)
(-0.000873588 -0.000164018 0)
(-0.00114169 -0.000579013 0)
(-0.00132924 -0.000596426 0)
(-0.00117961 -0.000382499 0)
(-0.000776144 -0.000366452 0)
(-0.00111422 0.000300778 0)
(0.000619913 -0.00149348 -6.77908e-21)
(8.28738e-06 -0.00025968 0)
(7.24301e-05 -0.00103037 0)
(0.000148373 -0.00129681 0)
(-8.5944e-05 -0.00137768 0)
(-0.000540791 -0.0016579 0)
(8.71388e-05 -0.000193436 1.21932e-23)
(-0.00014184 0.000726711 1.38347e-21)
(-0.00112227 0.000625995 2.91058e-21)
(0.000758572 -0.000803498 -8.20486e-21)
(0.00512676 0.00468241 2.55225e-20)
(0.0114863 0.016325 1.59441e-20)
(0.00689646 -0.000742057 -3.34857e-20)
(-0.0197688 -0.0163035 -4.5664e-21)
(-0.00917919 0.0138639 -8.04259e-20)
(0.0298707 0.0248939 2.30204e-19)
(-0.0206615 -0.035638 -2.91205e-19)
(-0.111588 -0.0207324 -1.48018e-19)
(0.444092 -0.0213226 4.28633e-19)
(-0.538503 0.664714 -1.51617e-19)
(-0.228657 -0.0548424 3.35432e-19)
(0.637796 0.854488 2.98426e-19)
(-0.910292 -0.167584 8.49961e-20)
(0.113223 0.0625852 -2.23437e-19)
(0.00614274 -0.0238014 5.37735e-20)
(-0.0153431 0.00578034 4.50816e-19)
(0.0435011 0.00210486 -1.54266e-19)
(-0.0100589 0.000414329 6.69585e-20)
(-0.0146139 0.0172991 -3.43505e-20)
(-0.00692696 0.00489034 -1.62091e-20)
(-0.00256568 6.77735e-05 1.14852e-20)
(-0.000585538 0.00103375 1.62037e-21)
(-0.00100328 0.00102526 -1.48017e-21)
(-0.00085919 0.000209365 -6.41327e-23)
(-3.85428e-05 -0.00108876 0)
(-0.000479709 -0.00094247 0)
(-0.000529787 -0.00101392 0)
(-0.000315826 -0.000847227 0)
(-0.00029227 -1.50999e-05 0)
(-0.000921129 -0.00097172 6.62268e-21)
(0.000978474 -9.61005e-05 4.75242e-21)
(0.000375042 -0.000638264 0)
(0.000221646 -0.00175523 0)
(-0.000391377 -0.00211852 0)
(1.287e-05 -0.00186581 0)
(0.000598593 -0.00111473 0)
(-0.00145419 -0.000509157 0)
(-0.00488728 -0.0017304 -2.25701e-22)
(-0.00827848 -0.00905527 -2.60446e-21)
(-0.0124624 -0.00644057 -9.79196e-21)
(-0.0154723 -0.00612842 7.37575e-21)
(-0.0153662 -0.00740271 3.6769e-20)
(5.366e-05 0.0294271 -3.60348e-20)
(0.0413151 0.00770736 -8.45431e-22)
(-0.0187759 -0.0216956 -8.6328e-21)
(-0.0448967 -0.0239089 1.19406e-20)
(0.159927 0.0535136 -1.59621e-19)
(0.901785 -0.132078 1.8947e-18)
(-3.17373 0.650755 -1.18838e-19)
(3.82884 -0.656325 5.52747e-19)
(-0.862038 -0.445905 2.20017e-19)
(-3.11231 -0.115554 9.88339e-19)
(3.27783 0.245707 -3.22978e-19)
(-0.306639 -0.319141 -1.22744e-18)
(-0.0111053 0.0739703 -1.24525e-19)
(0.0383867 -0.0381744 1.14431e-19)
(-0.042011 0.0128273 -3.95689e-20)
(-0.00244131 0.0314546 3.72352e-20)
(0.0138146 -0.00748602 8.88726e-21)
(0.013758 -0.00626256 2.72586e-21)
(0.0112276 -0.00636376 6.42775e-21)
(0.007454 -0.00857959 2.00215e-21)
(0.00420097 -0.000896186 -1.35395e-22)
(0.00037207 0.000255125 0)
(-0.00120757 -0.000425808 0)
(-0.000311286 -0.00120409 0)
(0.000174126 -0.00143631 0)
(-0.000447919 -0.00114619 0)
(-0.000794707 -0.000331761 0)
(-0.00134803 -8.84821e-05 4.70308e-21)
(0.0017138 0.00126004 -6.04377e-22)
(0.000568694 -0.000307566 0)
(0.000178895 0.000232735 0)
(0.000711661 -3.77749e-05 0)
(0.000924677 -0.000453834 0)
(0.00125681 -4.40262e-05 0)
(0.00397662 0.00179628 0)
(0.00764857 -0.000253595 0)
(0.00672933 -0.000861274 6.0787e-22)
(0.00298224 -0.0066814 -1.10905e-21)
(-0.00243773 -0.0118864 3.14043e-21)
(-0.0182094 -0.0262624 -3.12854e-20)
(-0.0351684 -0.0280898 3.81262e-20)
(-0.0439933 0.00372941 6.01787e-21)
(0.0533804 0.0149348 -5.5568e-20)
(-0.00498128 0.0126515 -2.71508e-21)
(-0.0806065 0.13769 -7.17172e-21)
(0.0964723 0.21069 1.48369e-20)
(1.34889 -1.69193 2.55299e-19)
(-4.45664 -1.21251 4.92818e-19)
(0.707592 1.12365 2.80434e-20)
(4.23479 -1.6543 -3.68786e-19)
(-2.49974 -1.14511 1.29902e-19)
(0.38647 0.356306 -1.97855e-18)
(0.141522 -0.031903 -4.39006e-20)
(-0.0551775 0.0539792 -1.0865e-19)
(0.0400646 0.00180854 5.56612e-20)
(0.0331073 -0.0252818 -9.74333e-20)
(0.0160452 -0.0239271 -5.13885e-21)
(0.000334944 -0.00990714 1.01716e-20)
(-0.00590067 -0.004148 4.81865e-22)
(-0.0090615 0.00161145 -2.41364e-22)
(-0.00940125 0.00239807 0)
(-0.00451904 0.00329234 0)
(-0.00162617 0.00112426 0)
(-0.00120545 0.000391258 0)
(-0.000958656 0.000607956 -1.0841e-21)
(-0.000428931 0.000640351 -1.49924e-21)
(-0.000885014 -6.1031e-05 -8.94011e-22)
(-0.00193458 0.0013883 0)
(-0.00120915 -0.000427512 0)
(0.00108213 3.16333e-05 0)
(0.000858417 -0.000761184 0)
(-3.366e-05 -0.000413332 0)
(-0.00036746 -0.000683108 0)
(-0.00147238 -0.00209158 0)
(-0.0027876 -0.00235333 0)
(-0.00139347 0.00232347 0)
(0.00297617 0.00771936 5.05492e-24)
(0.00736848 0.00954959 -4.10059e-22)
(0.00977258 0.00285211 1.3929e-21)
(0.0101441 0.002128 2.16532e-23)
(-0.00190606 -0.0267363 -1.75684e-20)
(-0.0225266 -0.0617937 9.44712e-22)
(-0.0729359 -0.043192 -4.61824e-20)
(0.070097 0.0104355 3.21423e-20)
(-0.359308 -0.414613 -2.03821e-19)
(-0.536064 1.15096 -1.33276e-19)
(0.820514 2.21499 1.96592e-19)
(1.21537 -0.39562 1.02986e-19)
(-0.1102 -2.57052 2.901e-21)
(-1.37206 0.11907 5.112e-19)
(-0.325773 2.10727 -2.31726e-19)
(0.362949 0.643257 8.25821e-20)
(-0.128199 -0.113251 2.05248e-20)
(0.0409495 -0.074331 -5.71855e-21)
(0.0162356 -0.0528924 1.10053e-20)
(0.00044909 -0.0210297 -1.06435e-20)
(-0.0114117 0.0066153 5.13343e-21)
(-0.0106738 0.00716102 -5.10216e-22)
(-0.00703862 0.0124568 -3.52042e-22)
(-0.00258428 0.00919918 2.46487e-24)
(0.00187012 0.00276147 0)
(0.00331201 -0.00175857 0)
(0.00153224 -0.00142108 0)
(0.000295494 -0.00021759 0)
(-0.000220546 -3.0085e-05 0)
(-0.00117549 -0.000463816 0)
(-0.00115718 0.000156628 0)
(0.00124854 -0.000551633 1.61013e-22)
(0.00290283 -0.000296392 0)
(0.0021537 0.000358716 0)
(0.00348666 0.000521101 0)
(0.00392393 -0.000534491 0)
(0.00308025 -0.00187153 0)
(0.00225079 -0.00352734 0)
(-0.000857722 -0.00765146 0)
(-0.007183 -0.00986243 0)
(-0.00608564 -0.00736083 0)
(-0.00198045 -0.00465311 0)
(0.000717452 0.00159769 -1.21611e-22)
(0.00708757 -0.00559191 6.08572e-21)
(-0.0146537 -0.00902964 -4.13816e-22)
(0.0137332 0.00600695 -7.02428e-21)
(0.0321599 -0.00436776 -3.98817e-19)
(-0.128711 0.0085395 3.94782e-21)
(0.182476 -0.265126 -2.49353e-20)
(-0.912348 -2.18096 1.53879e-19)
(0.337866 -0.544619 -5.95355e-20)
(0.715482 2.48636 2.04382e-19)
(-0.0391654 3.77824 4.48718e-19)
(-0.713547 2.05905 2.77839e-19)
(-0.0862901 -1.01473 -1.53942e-19)
(0.959705 -1.91296 1.49106e-19)
(-0.444021 -0.019067 -3.44325e-19)
(0.0252116 -0.0230823 2.71852e-20)
(-0.00813018 0.00989869 -8.98801e-22)
(0.0151606 -0.00393919 2.53265e-21)
(-0.00619885 -0.00274374 -7.74811e-21)
(-8.12354e-05 0.00374184 -1.13082e-22)
(0.00291103 -0.00379941 0)
(0.00646616 -0.00708725 0)
(0.00693574 -0.0095467 0)
(0.000305125 -0.00689063 0)
(-0.00263327 -0.00278579 0)
(-0.00325489 -0.00120199 0)
(-0.00389626 4.87939e-05 0)
(-0.00327331 0.000899366 0)
(-0.00197909 0.000427143 0)
(-0.00305856 -0.000235522 0)
(-0.000314866 8.92571e-05 0)
(1.56612e-05 -0.000219498 0)
(0.000993004 0.000926595 0)
(0.00270094 0.00225614 0)
(0.00414762 0.00239674 0)
(0.0055208 0.00200817 0)
(0.00669324 0.000286037 0)
(0.0047291 -0.00620106 0)
(0.00271299 -0.0110084 0)
(0.0064063 -0.0131828 0)
(0.0116688 -0.0131047 0)
(0.0160038 -0.0168586 2.1149e-23)
(0.0294712 6.02062e-05 1.44104e-21)
(-0.0455811 -0.0535741 7.64445e-21)
(-0.0492186 -0.0168875 -1.45334e-19)
(-0.32749 0.0636806 -6.45493e-20)
(1.65716 1.31663 -1.67967e-19)
(-0.183839 0.963088 -3.98511e-20)
(-1.61748 -1.65929 -1.51077e-19)
(-0.789882 -3.04442 -3.07801e-20)
(0.020085 -3.28931 1.73819e-20)
(0.954364 -2.74131 -2.03789e-19)
(1.47587 -1.05032 -3.65291e-20)
(-0.583898 1.44693 1.27609e-19)
(0.0526137 0.871543 -4.91634e-21)
(0.0449612 -0.0039215 -9.20503e-20)
(0.0397027 -0.0483476 7.87964e-21)
(-0.0309913 0.0030124 1.38765e-21)
(-0.0144302 -0.0144373 -5.03646e-23)
(-0.0109473 -0.0120102 0)
(-0.00589757 -0.0109122 0)
(-0.0022856 -0.0086174 0)
(-0.00481068 -0.00373287 0)
(-0.00693018 0.00221119 0)
(-0.0053127 0.00316353 0)
(-0.00384917 0.00299891 0)
(-0.00228659 0.00246319 0)
(-0.000638455 0.000941566 0)
(0.000160755 -7.18774e-05 0)
(0.000498818 0.000300676 0)
(0.00441315 -0.000481402 0)
(0.00255745 -0.000726075 0)
(0.000398959 -0.00144757 0)
(-0.000282952 -0.00122798 0)
(0.000716024 6.40807e-05 0)
(0.00279508 0.0017278 0)
(0.00600964 0.00470198 0)
(0.00902186 0.00564791 0)
(0.00549101 0.000969456 0)
(0.000943019 -0.00382218 0)
(0.00291305 -0.0109805 6.04955e-21)
(0.0038626 -0.0203749 0)
(0.0280148 -0.0229252 0)
(0.11272 -0.023363 -8.21811e-21)
(0.275903 -0.062756 -3.36077e-19)
(-0.785164 -0.554909 -2.10574e-19)
(-1.23737 -0.469113 -5.85629e-21)
(1.54487 2.12071 5.4181e-20)
(1.84952 3.47154 7.4744e-20)
(1.34971 3.43148 5.86619e-19)
(-0.447782 3.35655 -1.01361e-19)
(-1.55553 3.4673 5.12283e-19)
(-1.74609 3.08684 -3.68e-20)
(-0.0512684 0.68122 6.55232e-20)
(1.83271 -0.975376 -6.55152e-21)
(-0.322108 -0.0324615 2.56405e-19)
(-0.11399 -0.00806965 -1.55674e-19)
(-0.0232415 -0.0168511 0)
(-0.00226819 -0.0149111 0)
(-0.000617702 -0.0067107 -4.89896e-21)