/*--------------------------------*- C++ -*----------------------------------*\
| =========                 |                                                 |
| \\      /  F ield         | OpenFOAM: The Open Source CFD Toolbox           |
|  \\    /   O peration     | Version:  v2106                                 |
|   \\  /    A nd           | Website:  www.openfoam.com                      |
|    \\/     M anipulation  |                                                 |
\*---------------------------------------------------------------------------*/
FoamFile
{
    version     2.0;
    format      ascii;
    arch        "LSB;label=32;scalar=64";
    class       volVectorField;
    location    "0";
    object      U;
}
// * * * * * * * * * * * * * * * * * * * * * * * * * * * * * * * * * * * * * //

dimensions      [0 1 -1 0 0 0 0];

internalField   nonuniform List<vector> 
11644
(
(0.996595 -0.000216312 2.69322e-23)
(0.996488 -0.00056379 7.4271e-23)
(0.996427 -0.000820811 3.98482e-23)
(0.996409 -0.00108116 0)
(0.996402 -0.00134806 0)
(0.996398 -0.00161526 0)
(0.996396 -0.00187619 0)
(0.996393 -0.00211829 0)
(0.996391 -0.00232849 0)
(0.99638 -0.00249469 0)
(0.99638 -0.00259525 0)
(0.99636 -0.00261516 0)
(0.996374 -0.00252888 0)
(0.996515 -0.00234347 0)
(0.996344 -0.00198125 0)
(0.996301 -0.00154748 0)
(0.996152 -0.000979182 0)
(0.995861 -0.000137332 0)
(0.995731 0.0010212 0)
(0.995964 0.00224628 3.42155e-30)
(0.996376 0.00317295 -3.43598e-30)
(0.99659 0.00371661 0)
(0.99649 0.00404845 0)
(0.996371 0.00436872 0)
(0.996364 0.00461535 0)
(0.996431 0.00473288 0)
(0.996603 0.00470177 0)
(0.996416 0.00455664 0)
(0.996366 0.00431648 0)
(0.996394 0.00398513 0)
(0.996411 0.0036091 0)
(0.996407 0.00321132 0)
(0.996412 0.00279976 0)
(0.996413 0.00239525 0)
(0.996413 0.0020041 0)
(0.996415 0.0016326 0)
(0.996418 0.00128422 0)
(0.996437 0.000959578 0)
(0.996508 0.000643377 0)
(0.99662 0.000240547 5.22187e-24)
(0.997336 -0.000444736 3.45942e-23)
(0.997252 -0.00133864 3.20453e-23)
(0.997187 -0.00222505 1.72105e-23)
(0.997166 -0.00309115 0)
(0.997164 -0.00394561 0)
(0.997156 -0.0047919 0)
(0.99713 -0.0056154 0)
(0.99708 -0.00639307 0)
(0.996996 -0.00709251 0)
(0.996875 -0.00766869 0)
(0.996698 -0.00806903 0)
(0.996462 -0.00822628 0)
(0.996103 -0.00807517 0)
(0.995501 -0.00753415 0)
(0.995308 -0.00657056 0)
(0.994831 -0.00512502 -6.40141e-24)
(0.994317 -0.00322506 6.19346e-24)
(0.993816 -0.0010418 -2.89758e-23)
(0.99342 0.00139075 1.0719e-22)
(0.99335 0.00411315 -6.77152e-23)
(0.993696 0.006994 -2.86296e-24)
(0.994384 0.00966018 -2.78967e-23)
(0.99511 0.0116855 1.70868e-23)
(0.99555 0.0128908 -4.67187e-24)
(0.995955 0.013596 5.36085e-24)
(0.996382 0.0138778 0)
(0.996636 0.013802 0)
(0.997201 0.0132832 0)
(0.997451 0.0124829 0)
(0.997547 0.0114901 0)
(0.997601 0.0103592 0)
(0.997611 0.00915999 0)
(0.997575 0.00795294 0)
(0.997521 0.00676597 0)
(0.997459 0.0056201 0)
(0.997397 0.00452462 0)
(0.997351 0.00347577 0)
(0.997336 0.00245845 0)
(0.997374 0.00145396 0)
(0.997441 0.000478364 0)
(0.998853 -0.000705068 0)
(0.998788 -0.00216252 0)
(0.998741 -0.00366099 0)
(0.998727 -0.0051598 0)
(0.998731 -0.00665491 3.16012e-23)
(0.998721 -0.00814916 0)
(0.998673 -0.00962869 0)
(0.998562 -0.0110658 0)
(0.998358 -0.0124101 0)
(0.998022 -0.0135963 0)
(0.997495 -0.0145337 0)
(0.996792 -0.0150907 0)
(0.995964 -0.0151221 1.93808e-24)
(0.99513 -0.0145193 -1.20276e-22)
(0.993481 -0.0131133 1.79626e-22)
(0.992146 -0.0109085 3.80063e-22)
(0.990869 -0.00787938 2.16467e-22)
(0.989667 -0.00418595 -6.44863e-22)
(0.98867 4.95532e-05 -2.09507e-22)
(0.988227 0.00469852 4.08409e-22)
(0.988567 0.0094442 -6.90201e-22)
(0.989736 0.0140392 1.70098e-22)
(0.991561 0.0180303 9.64089e-22)
(0.993608 0.0208815 -7.58873e-22)
(0.995156 0.0223352 1.29698e-22)
(0.996534 0.022834 -1.24212e-22)
(0.997957 0.0225477 9.97994e-23)
(0.99864 0.0216887 -1.6108e-24)
(0.999329 0.020311 0)
(0.999759 0.0185775 0)
(0.999905 0.0166819 0)
(0.999915 0.014698 0)
(0.999821 0.0127126 0)
(0.999668 0.0107762 0)
(0.999492 0.00891482 0)
(0.999319 0.00713831 0)
(0.999171 0.00544321 0)
(0.999072 0.00380906 0)
(0.999034 0.00223632 0)
(0.999051 0.000726799 0)
(1.00119 -0.0010069 0)
(1.00114 -0.00305053 0)
(1.00113 -0.0051472 0)
(1.00115 -0.00728424 0)
(1.00119 -0.00946279 0)
(1.00121 -0.0116822 0)
(1.00117 -0.0139333 0)
(1.00102 -0.0161871 0)
(1.0007 -0.0183913 0)
(1.00014 -0.0204617 0)
(0.999298 -0.0222405 -4.36093e-25)
(0.998021 -0.0235553 -6.44241e-23)
(0.996134 -0.0242147 3.9538e-22)
(0.9933 -0.0240267 -3.97101e-22)
(0.990997 -0.0225179 1.32344e-22)
(0.987973 -0.0197353 4.47605e-22)
(0.985055 -0.0155649 3.29908e-23)
(0.982404 -0.0100372 -1.1128e-21)
(0.980475 -0.00343599 1.26074e-22)
(0.979825 0.00369255 1.33692e-21)
(0.980453 0.0109035 -1.24495e-21)
(0.98242 0.0177131 3.45585e-22)
(0.985547 0.0237111 4.30484e-22)
(0.989561 0.0282467 -1.32712e-21)
(0.993538 0.0310787 9.05893e-22)
(0.996692 0.0320246 -7.87435e-23)
(0.998833 0.0316685 3.19447e-22)
(1.00102 0.0300717 -2.64875e-22)
(1.00225 0.0278955 2.02259e-23)
(1.00293 0.0253313 -6.45218e-26)
(1.00327 0.0225528 0)
(1.00325 0.0197602 0)
(1.00305 0.0170037 0)
(1.00274 0.0143542 0)
(1.00239 0.011835 0)
(1.00206 0.00945227 0)
(1.00177 0.00719321 0)
(1.00155 0.00504242 0)
(1.00143 0.00296275 0)
(1.00141 0.000982038 0)
(1.00434 -0.00130134 0)
(1.00433 -0.00393744 0)
(1.00438 -0.00665515 0)
(1.00448 -0.00944246 0)
(1.00462 -0.0123361 0)
(1.00474 -0.0153482 0)
(1.00479 -0.0184816 0)
(1.00469 -0.0217205 0)
(1.00434 -0.0250221 0)
(1.00365 -0.0282737 4.0791e-24)
(1.00231 -0.0313255 1.55581e-22)
(1.0001 -0.0339566 -2.41296e-22)
(0.997167 -0.0357706 -3.02467e-23)
(0.993983 -0.0363251 -2.9508e-22)
(0.988614 -0.0356603 -6.99813e-22)
(0.983178 -0.0327986 3.55529e-23)
(0.977843 -0.0278411 7.76423e-22)
(0.972869 -0.020741 1.40364e-21)
(0.968912 -0.0113014 -5.20066e-22)
(0.967003 -0.000196149 -1.45102e-21)
(0.967809 0.0115322 2.28607e-21)
(0.97141 0.0224381 -5.08021e-22)
(0.977088 0.0312857 -1.25652e-21)
(0.984586 0.0375321 -1.17977e-22)
(0.990998 0.041055 -6.35524e-22)
(0.99685 0.0423848 6.50322e-22)
(1.00198 0.0413336 4.56045e-22)
(1.00454 0.0390286 4.68084e-22)
(1.00646 0.0356616 -4.22404e-22)
(1.00738 0.0318866 -6.13445e-23)
(1.00767 0.0280759 -9.25251e-26)
(1.00759 0.0243422 0)
(1.0072 0.0208105 0)
(1.00666 0.017472 0)
(1.00608 0.0143471 0)
(1.00552 0.0114216 0)
(1.00505 0.00867282 0)
(1.00469 0.00607457 0)
(1.00446 0.00359608 0)
(1.00438 0.00117094 0)
(1.00826 -0.00156695 0)
(1.00831 -0.00478067 0)
(1.00848 -0.0080559 0)
(1.00875 -0.0114867 0)
(1.00908 -0.0151035 0)
(1.00942 -0.0189535 0)
(1.00971 -0.0230597 0)
(1.00983 -0.027438 0)
(1.00964 -0.0320397 -2.59846e-23)
(1.00882 -0.0367766 -9.40529e-23)
(1.00708 -0.0414746 -1.50702e-22)
(1.00445 -0.0458175 5.31139e-22)
(1.0006 -0.0496952 -1.58593e-22)
(0.99399 -0.0531797 4.68128e-22)
(0.987551 -0.0534607 -1.10869e-21)
(0.978792 -0.0513382 1.11524e-21)
(0.968686 -0.0466298 -1.95218e-21)
(0.958611 -0.0372526 2.75581e-22)
(0.950777 -0.023024 1.88666e-21)
(0.946749 -0.00602093 -2.48679e-21)
(0.947829 0.01175 3.75448e-22)
(0.953691 0.0283523 1.75611e-21)
(0.963552 0.0421291 -1.49675e-21)
(0.97544 0.0504748 1.51149e-21)
(0.987509 0.0541821 -5.70254e-22)
(0.997785 0.0553032 8.53468e-22)
(1.00457 0.0536015 -7.10946e-22)
(1.01009 0.0487771 -7.50297e-23)
(1.01262 0.0437355 9.09593e-23)
(1.01354 0.0384161 -9.74169e-23)
(1.01346 0.0332613 7.97509e-23)
(1.01295 0.028509 -1.49462e-23)
(1.01223 0.0241424 0)
(1.01135 0.0201523 0)
(1.01044 0.0164831 0)
(1.0096 0.0130987 0)
(1.00889 0.00995665 0)
(1.00835 0.00698633 0)
(1.008 0.00413943 0)
(1.00785 0.00138747 0)
(1.01284 -0.00183826 0)
(1.01299 -0.005492 0)
(1.01335 -0.00930104 0)
(1.01388 -0.0132903 0)
(1.01455 -0.0175618 0)
(1.0153 -0.0221987 0)
(1.01605 -0.0272824 0)
(1.01666 -0.032855 -2.78539e-24)
(1.01675 -0.0388661 -7.57244e-23)
(1.01605 -0.045234 2.27533e-22)
(1.0145 -0.0519331 -3.38915e-22)
(1.01163 -0.0591083 -5.76283e-23)
(1.00704 -0.0663727 5.88461e-22)
(1.00176 -0.0721007 -1.11749e-22)
(0.989846 -0.077675 -3.32999e-21)
(0.975531 -0.0784529 2.48756e-21)
(0.964811 -0.0664658 4.63512e-21)
(0.949401 -0.0572767 -3.26831e-23)
(0.935289 -0.039608 -1.84353e-21)
(0.926302 -0.0157453 -4.05395e-21)
(0.92607 0.0107887 -9.71269e-22)
(0.934228 0.034745 -1.70307e-21)
(0.948253 0.0526147 -4.22607e-22)
(0.96447 0.0627622 3.05908e-21)
(0.986425 0.0752846 -2.36022e-21)
(1.00109 0.0735843 2.27001e-21)
(1.01301 0.0665982 3.33106e-22)
(1.01773 0.0604705 2.48851e-22)
(1.02082 0.0524175 -9.31923e-22)
(1.02166 0.0449239 2.04543e-22)
(1.02094 0.0381279 9.89078e-23)
(1.0196 0.0321213 -2.35638e-23)
(1.01814 0.0268862 -5.30189e-27)
(1.01675 0.0222871 0)
(1.0154 0.0181505 0)
(1.0142 0.0143755 0)
(1.0132 0.0108852 0)
(1.01243 0.00762525 0)
(1.01193 0.00449769 0)
(1.01172 0.00146312 0)
(1.01797 -0.00195365 0)
(1.01824 -0.00595391 0)
(1.01884 -0.0101313 0)
(1.01975 -0.0145441 0)
(1.02091 -0.0193596 0)
(1.02229 -0.0246718 0)
(1.02379 -0.0306173 0)
(1.02512 -0.0372488 6.32262e-23)
(1.02575 -0.0445535 1.39528e-22)
(1.02585 -0.0526225 -2.71019e-22)
(1.02522 -0.0617474 -5.40234e-22)
(1.02337 -0.0719055 4.05732e-22)
(1.01934 -0.0828612 -3.76039e-22)
(1.00879 -0.0899364 -5.88956e-22)
(0.999057 -0.0964907 1.00694e-21)
(0.982061 -0.103758 -4.08911e-22)
(0.957422 -0.104142 8.80595e-22)
(0.930549 -0.0939661 -2.13526e-21)
(0.902507 -0.0709098 -2.33773e-21)
(0.882395 -0.0332419 -1.45059e-21)
(0.879673 0.0123382 2.45882e-22)
(0.895702 0.053696 -9.61293e-22)
(0.924198 0.0812208 -4.40093e-21)
(0.954643 0.0939194 -3.3501e-22)
(0.982558 0.0963458 -1.51275e-21)
(1.00358 0.0899503 1.3479e-21)
(1.01665 0.08124 1.80249e-23)
(1.03051 0.07045 -7.22759e-23)
(1.03221 0.0603345 2.02893e-22)
(1.03195 0.0507969 -1.11054e-22)
(1.03016 0.0423083 1.97805e-22)
(1.02766 0.0350063 -1.44561e-22)
(1.02498 0.0288927 -1.19202e-23)
(1.02275 0.0237284 0)
(1.02084 0.0192343 0)
(1.01919 0.0151968 0)
(1.01783 0.0114979 0)
(1.01682 0.0080569 0)
(1.01615 0.00479114 0)
(1.01585 0.00162178 0)
(1.02337 -0.00199968 0)
(1.02381 -0.00618372 0)
(1.02472 -0.0104313 0)
(1.0261 -0.0150964 0)
(1.02793 -0.0201989 0)
(1.03016 -0.0259366 0)
(1.03268 -0.0324565 1.15941e-23)
(1.03493 -0.0398373 3.34609e-23)
(1.03667 -0.0481548 -3.04504e-22)
(1.0384 -0.0578873 1.31792e-22)
(1.03971 -0.0696302 -5.90864e-23)
(1.03994 -0.0836157 3.26846e-22)
(1.03776 -0.100537 -3.88788e-22)
(1.02574 -0.113785 9.85781e-22)
(1.01426 -0.127687 1.22567e-21)
(0.994581 -0.144395 -3.58821e-22)
(0.963834 -0.148889 1.05429e-21)
(0.917321 -0.146858 2.8254e-21)
(0.865338 -0.122267 -8.19902e-22)
(0.819974 -0.0657692 2.7175e-21)
(0.807491 0.0139216 1.28735e-21)
(0.836337 0.0853635 -2.75988e-21)
(0.888508 0.126616 -3.5375e-21)
(0.945131 0.139763 -3.11672e-23)
(0.985985 0.132299 2.59963e-22)
(1.01908 0.118453 -3.96485e-24)
(1.03354 0.0996791 8.98377e-22)
(1.0473 0.082284 -1.90026e-22)
(1.04691 0.0663876 -8.31201e-23)
(1.0445 0.0546588 1.33598e-22)
(1.04092 0.0449621 -7.20664e-23)
(1.03685 0.0367955 2.9439e-23)
(1.03271 0.0299957 -8.79644e-24)
(1.02921 0.0244308 -3.08543e-24)
(1.02659 0.0197276 0)
(1.02441 0.0155504 0)
(1.02266 0.0117556 0)
(1.02136 0.00820225 0)
(1.02052 0.00483788 0)
(1.02014 0.00154014 0)
(1.02879 -0.00207619 0)
(1.02941 -0.00599359 0)
(1.03072 -0.0103021 0)
(1.03267 -0.0148409 0)
(1.03527 -0.0198883 0)
(1.0385 -0.0256486 0)
(1.0422 -0.0323013 2.05171e-24)
(1.04565 -0.039908 -1.42171e-23)
(1.04929 -0.0489028 5.46247e-23)
(1.05362 -0.0600156 6.19575e-23)
(1.05812 -0.073687 -3.5114e-22)
(1.06214 -0.0908023 2.94917e-22)
(1.06495 -0.11333 3.2901e-23)
(1.05535 -0.133163 -4.04187e-22)
(1.04721 -0.157046 2.1616e-22)
(1.0225 -0.185966 7.21687e-22)
(0.98576 -0.210236 -2.92505e-22)
(0.921557 -0.235405 -8.57505e-23)
(0.820074 -0.231015 -8.53056e-22)
(0.701687 -0.150939 3.02656e-22)
(0.651017 0.0147134 -6.05276e-22)
(0.723658 0.170853 1.45741e-21)
(0.851735 0.233532 -8.58635e-22)
(0.953266 0.222255 1.65222e-22)
(1.0191 0.187207 5.30808e-22)
(1.05536 0.148785 -1.72144e-21)
(1.06378 0.113238 -4.34293e-23)
(1.07063 0.0860513 1.51265e-22)
(1.06478 0.0677362 -6.9551e-23)
(1.05882 0.055078 4.86076e-24)
(1.05267 0.0450229 -2.70566e-23)
(1.04666 0.0367197 -2.04407e-23)
(1.04095 0.0298253 2.0853e-23)
(1.03598 0.0241739 -1.67265e-24)
(1.03244 0.0194767 0)
(1.02969 0.0153521 0)
(1.02753 0.0116084 0)
(1.02594 0.00814198 0)
(1.02492 0.00483683 0)
(1.02444 0.00166487 0)
(1.03389 -0.00168974 0)
(1.0347 -0.00543334 0)
(1.03634 -0.00922178 0)
(1.03887 -0.0133519 0)
(1.04232 -0.0180423 0)
(1.0467 -0.023438 0)
(1.05163 -0.0296767 7.60356e-24)
(1.0567 -0.0369618 -2.10119e-23)
(1.06301 -0.0460262 1.36232e-23)
(1.07081 -0.0576469 5.06709e-23)
(1.07971 -0.0722761 -5.98062e-24)
(1.08904 -0.0903335 -8.92468e-23)
(1.09868 -0.113294 6.43549e-23)
(1.09679 -0.141123 -8.04508e-25)
(1.09691 -0.174648 -3.30712e-22)
(1.08612 -0.219704 -3.55523e-23)
(1.05918 -0.277548 1.20213e-23)
(0.998923 -0.368148 -9.78195e-23)
(0.835771 -0.470769 -1.18063e-21)
(0.46997 -0.450451 -4.72452e-20)
(0.187386 0.0314157 -3.13288e-20)
(0.510306 0.490055 -2.11187e-20)
(0.885365 0.478665 7.70237e-22)
(1.05126 0.344789 1.40941e-23)
(1.10485 0.236053 -5.1684e-23)
(1.11639 0.157698 3.47498e-23)
(1.10581 0.116527 9.23414e-23)
(1.097 0.0773574 5.80019e-23)
(1.08438 0.0621811 -1.17312e-22)
(1.07351 0.0505463 7.96088e-23)
(1.06423 0.0414934 -1.45874e-23)
(1.05621 0.0342908 -3.10061e-23)
(1.04906 0.0281628 -5.78731e-24)
(1.04274 0.0229056 7.90418e-25)
(1.03818 0.0184871 0)
(1.03485 0.0146232 0)
(1.03228 0.0110738 0)
(1.03042 0.00778525 0)
(1.02921 0.00459956 0)
(1.02866 0.0015244 0)
(1.03837 -0.00151657 0)
(1.03936 -0.00450572 0)
(1.04138 -0.00760117 0)
(1.0445 -0.0110434 0)
(1.04874 -0.0148856 0)
(1.05417 -0.0193413 0)
(1.06032 -0.0245425 9.6937e-24)
(1.0674 -0.0308784 1.19693e-23)
(1.07677 -0.0390962 1.77059e-23)
(1.08841 -0.0498166 6.05028e-24)
(1.10231 -0.063622 -4.98957e-26)
(1.11804 -0.0808076 -1.04265e-23)
(1.13512 -0.100925 -2.28881e-23)
(1.14144 -0.131826 3.69001e-23)
(1.15753 -0.165739 -2.45794e-22)
(1.16771 -0.216403 1.39823e-22)
(1.18282 -0.287855 -1.38185e-22)
(1.21309 -0.414981 8.48611e-22)
(0.8788 -0.464119 -7.25706e-20)
(1.14677 0.603982 1.90477e-20)
(1.30106 0.368072 8.92832e-23)
(1.2361 0.210935 2.72661e-22)
(1.18875 0.126558 8.77323e-23)
(1.15053 0.0924109 -2.16875e-23)
(1.12229 0.0571769 -9.3745e-23)
(1.10155 0.0475487 3.06197e-23)
(1.08576 0.0400652 3.22025e-23)
(1.07386 0.0342296 1.81304e-23)
(1.0643 0.0293894 1.35425e-23)
(1.05616 0.0248987 1.32889e-23)
(1.04896 0.0206457 7.0725e-24)
(1.04355 0.0168386 0)
(1.03971 0.0133934 0)
(1.03676 0.010166 0)
(1.03463 0.00708731 0)
(1.03328 0.00423524 0)
(1.03265 0.00128653 0)
(1.04167 -0.00105765 0)
(1.04293 -0.0031454 0)
(1.04535 -0.00537401 0)
(1.04893 -0.00775715 0)
(1.05377 -0.0103816 0)
(1.06007 -0.0134251 0)
(1.06743 -0.0170545 1.12697e-25)
(1.07668 -0.0217782 -1.03114e-23)
(1.08907 -0.0281975 9.03649e-24)
(1.10433 -0.0365969 -3.28485e-23)
(1.12269 -0.0473432 2.4261e-23)
(1.14409 -0.060854 -4.7641e-23)
(1.16848 -0.0763702 6.44693e-24)
(1.18118 -0.104287 -8.70672e-23)
(1.21148 -0.12997 -3.53172e-22)
(1.23841 -0.169841 5.71534e-23)
(1.28339 -0.215207 7.5528e-23)
(1.34625 -0.255249 1.46463e-21)
(0.00592715 0.0214271 3.03957e-19)
(0.084367 0.00859151 -2.36e-19)
(1.48097 0.157782 -4.4479e-22)
(1.32923 0.0979384 4.9876e-23)
(1.23665 0.0555106 -5.32928e-22)
(1.18101 0.0441256 -1.13014e-21)
(1.13442 0.0263999 -5.58774e-23)
(1.11009 0.0265231 -3.94112e-23)
(1.0925 0.0254726 -1.05455e-23)
(1.07962 0.0242101 3.10621e-24)
(1.0696 0.0225672 3.34382e-23)
(1.06138 0.0203531 9.01087e-24)
(1.05407 0.0175818 7.44357e-25)
(1.04825 0.0146401 0)
(1.0441 0.0118072 0)
(1.04092 0.00910083 0)
(1.03859 0.00647936 0)
(1.03705 0.00387749 0)
(1.0363 0.00146621 0)
(1.04447 -0.000588956 2.21211e-26)
(1.04554 -0.00157585 0)
(1.04793 -0.00264971 0)
(1.05165 -0.00373323 0)
(1.05686 -0.00490095 0)
(1.06371 -0.00618767 0)
(1.07226 -0.00783033 7.39491e-24)
(1.08351 -0.0103455 -2.02558e-23)
(1.09833 -0.0140367 6.61595e-23)
(1.11629 -0.0188985 -1.40412e-22)
(1.13756 -0.0249235 4.96895e-23)
(1.16282 -0.0327007 -5.90355e-23)
(1.1916 -0.0413934 2.86104e-23)
(1.21153 -0.06426 -3.22038e-22)
(1.24785 -0.0812754 4.6785e-22)
(1.27993 -0.109294 -2.41782e-22)
(1.32325 -0.132918 -5.98117e-22)
(1.19733 -0.112036 3.10493e-23)
(-0.015727 -0.00501243 -1.08255e-21)
(0.356004 -0.0348522 1.09053e-20)
(1.44628 -0.0598265 -5.07221e-22)
(1.33317 -0.0389669 -6.87848e-22)
(1.23499 -0.0284906 -5.48075e-23)
(1.18098 -0.0121991 1.89637e-21)
(1.1315 -0.00653897 -1.10735e-22)
(1.10891 0.00465623 -6.15791e-22)
(1.09231 0.0104043 1.64668e-22)
(1.08032 0.0137947 4.99264e-24)
(1.07136 0.0152586 -7.50111e-23)
(1.06422 0.0153355 2.1333e-23)
(1.05771 0.0141804 1.77324e-23)
(1.05209 0.0121373 0)
(1.0478 0.00989077 0)
(1.04446 0.00764952 0)
(1.04202 0.00547751 0)
(1.04041 0.0032442 0)
(1.03966 0.00102085 0)
(1.0452 0.000307068 1.2462e-26)
(1.04654 0.00037423 0)
(1.04889 0.000457639 0)
(1.05259 0.000676315 0)
(1.05782 0.00104438 0)
(1.06483 0.00167312 0)
(1.07428 0.00235636 -4.20147e-24)
(1.08677 0.00250061 8.47325e-24)
(1.10281 0.00224641 -2.43497e-23)
(1.12195 0.00178875 -7.43948e-24)
(1.14445 0.00144071 -4.15371e-23)
(1.17154 0.0004989 3.01532e-22)
(1.20247 -0.00031499 -3.19991e-22)
(1.22824 -0.0167233 -4.16692e-22)
(1.26902 -0.0262153 -2.14113e-22)
(1.3061 -0.04844 -9.17587e-22)
(1.34582 -0.0712546 6.24869e-22)
(1.06362 -0.0690615 -1.12252e-22)
(0.0852235 -0.133972 -6.38864e-22)
(-0.164901 -0.177189 -3.05021e-21)
(-0.221077 0.0325148 -2.18022e-22)
(0.160189 0.0603909 1.82747e-21)
(0.791217 -0.187541 2.03704e-23)
(1.37356 -0.239481 4.487e-22)
(1.26832 -0.159144 -2.85719e-22)
(1.18585 -0.0966306 -3.86137e-22)
(1.14885 -0.0560565 -1.57145e-21)
(1.10927 -0.027854 3.17541e-22)
(1.09579 -0.0113018 -5.70249e-22)
(1.08514 -0.00111179 1.56375e-22)
(1.07676 0.00544908 5.19658e-23)
(1.07002 0.00913387 3.75525e-24)
(1.06465 0.0108265 1.79301e-23)
(1.05981 0.0109014 -1.40153e-23)
(1.05513 0.00967618 0)
(1.05088 0.00790531 0)
(1.04746 0.00607067 0)
(1.04495 0.00421932 0)
(1.04336 0.00249618 0)
(1.04261 0.000626522 0)
(1.04455 0.000501513 1.41576e-23)
(1.04571 0.00171342 0)
(1.04798 0.00313878 0)
(1.05147 0.00469363 0)
(1.05635 0.00659824 0)
(1.06296 0.00909805 0)
(1.07245 0.0121941 -6.53318e-26)
(1.08532 0.0153438 -7.63021e-24)
(1.10117 0.01886 -2.3559e-23)
(1.11986 0.0232698 -1.99441e-23)
(1.14183 0.029206 3.18708e-22)
(1.16809 0.0359738 -3.77383e-22)
(1.1994 0.0452256 3.30447e-22)
(1.23189 0.0375837 -4.92923e-22)
(1.27748 0.0396139 7.34539e-22)
(1.33886 0.0359178 -4.93865e-22)
(1.39312 0.00529136 -3.16062e-21)
(1.07687 -0.0703817 -9.70156e-21)
(0.40169 -0.335806 1.89657e-21)
(-0.202882 -0.555529 1.41985e-20)
(-0.303213 -0.648625 -1.50889e-21)
(0.285952 -0.636085 -7.11973e-21)
(0.983862 -0.586703 6.85916e-22)
(1.15219 -0.387113 -1.12665e-21)
(1.13309 -0.230195 2.39774e-21)
(1.10078 -0.123318 2.00403e-21)
(1.09704 -0.0680239 -8.87964e-22)
(1.0788 -0.0284411 1.09223e-23)
(1.07635 -0.0125833 -6.9644e-22)
(1.07291 -0.00386951 -3.13916e-22)
(1.06959 0.00178525 -2.0316e-22)
(1.06663 0.0057231 7.92926e-23)
(1.06353 0.00765411 3.42885e-24)
(1.06077 0.00814883 -3.93538e-25)
(1.05743 0.00743607 0)
(1.05351 0.006149 0)
(1.0502 0.00482369 0)
(1.04766 0.0034507 0)
(1.04584 0.00212093 0)
(1.04488 0.000962232 -1.87774e-23)
(1.04266 0.000829238 -2.14938e-24)
(1.04363 0.00279461 0)
(1.04553 0.00506398 0)
(1.04847 0.00771413 0)
(1.05255 0.0109295 0)
(1.0581 0.0149739 0)
(1.06659 0.0200704 0)
(1.07875 0.0260675 9.58426e-24)
(1.09309 0.0333103 1.93747e-23)
(1.1094 0.0424907 9.09756e-23)
(1.12852 0.054538 -3.18462e-22)
(1.15138 0.0693554 2.10218e-22)
(1.17952 0.0897757 6.2367e-22)
(1.21785 0.114038 -4.15564e-22)
(1.26314 0.117916 4.02229e-22)
(1.32956 0.143505 2.90758e-21)
(1.42046 0.14452 -2.31466e-21)
(1.33602 0.0996561 3.15749e-20)
(0.771524 -0.167684 -1.7648e-21)
(0.201304 -0.493287 5.55746e-21)
(-0.144751 -0.804807 6.32267e-21)
(0.0984534 -0.812509 -6.76531e-21)
(0.661457 -0.553131 -5.29681e-21)
(0.884079 -0.326718 -2.3665e-20)
(0.957481 -0.166231 -6.12079e-22)
(1.00857 -0.0859167 8.61557e-22)
(1.03378 -0.0208285 3.9586e-22)
(1.05471 -0.00715916 1.34841e-22)
(1.062 -0.000815691 -4.39188e-22)
(1.0645 0.00269635 2.56363e-22)
(1.06448 0.00441432 -7.87185e-23)
(1.0631 0.0052086 -2.11893e-23)
(1.06193 0.00587174 -2.67974e-23)
(1.06117 0.00593326 0)
(1.05881 0.00520385 0)
(1.05524 0.00426031 0)
(1.05202 0.0033795 0)
(1.04955 0.00248603 0)
(1.04792 0.00152632 0)
(1.04717 0.000531544 7.50851e-23)
(1.03986 0.00111054 -2.52718e-24)
(1.04049 0.00354607 0)
(1.04188 0.00634285 0)
(1.04403 0.00959648 0)
(1.04697 0.0135699 0)
(1.05102 0.0185288 0)
(1.0577 0.0248377 0)
(1.06785 0.0326669 0)
(1.07942 0.0427372 -5.66855e-24)
(1.09174 0.0557153 9.08205e-23)
(1.10561 0.0729748 -6.88585e-23)
(1.12191 0.0949018 -3.56437e-23)
(1.14137 0.124491 -2.01214e-22)
(1.1686 0.164733 3.21861e-22)
(1.213 0.191365 -4.48014e-22)
(1.26658 0.2484 4.80274e-22)
(1.3467 0.305921 -2.15995e-21)
(1.42295 0.398538 -5.05513e-21)
(1.16168 0.309161 -9.37486e-21)
(0.663197 0.053378 1.00856e-20)
(0.185783 -0.246536 2.63248e-21)
(0.0127053 -0.432126 3.07507e-21)
(0.279542 -0.368283 1.58701e-21)
(0.675541 -0.147777 2.93007e-20)
(0.852846 -0.0151542 -7.54291e-22)
(0.950105 0.00974671 -2.48641e-22)
(1.02241 0.0405717 3.18831e-22)
(1.04915 0.0246143 -1.08935e-22)
(1.06057 0.0186107 -1.17944e-22)
(1.06437 0.0132694 2.13211e-23)
(1.06439 0.00941547 -3.61162e-23)
(1.06318 0.006792 3.39268e-24)
(1.06235 0.00514788 0)
(1.06194 0.00388431 0)
(1.05975 0.00288116 0)
(1.05616 0.00213997 0)
(1.05288 0.00156159 4.9884e-23)
(1.05043 0.00100966 6.89863e-23)
(1.04884 0.000504213 4.11372e-23)
(1.0479 -1.72032e-05 0)
(1.0365 0.00125052 0)
(1.0368 0.00384663 0)
(1.03758 0.00675493 0)
(1.03883 0.0101206 0)
(1.04054 0.0142418 0)
(1.04294 0.0193252 0)
(1.04741 0.0258931 0)
(1.0546 0.0344975 0)
(1.06221 0.0459328 -3.97599e-26)
(1.0691 0.0609847 -3.72753e-25)
(1.07577 0.0811136 -4.55019e-24)
(1.08244 0.107157 -8.48691e-23)
(1.08996 0.141068 2.27852e-22)
(1.0988 0.188033 -8.8093e-23)
(1.13184 0.233541 3.55584e-21)
(1.15468 0.305742 -1.98585e-22)
(1.19087 0.387888 2.34118e-22)
(1.24843 0.535574 6.86262e-22)
(1.19966 0.709671 1.16723e-21)
(0.928746 0.736843 1.07519e-20)
(0.563419 0.577198 2.14269e-21)
(0.288063 0.302986 5.25136e-21)
(0.277 0.0662362 -1.83375e-21)
(0.444333 0.03014 -1.37789e-23)
(0.824123 0.172306 4.70826e-22)
(0.968312 0.130373 2.08571e-21)
(1.05428 0.0906758 1.44939e-22)
(1.07176 0.0544589 1.6338e-22)
(1.07565 0.0355868 1.55269e-22)
(1.07388 0.0215089 -2.84072e-23)
(1.07043 0.0127221 -4.06182e-24)
(1.067 0.00706403 -7.26418e-26)
(1.06488 0.00347289 0)
(1.06353 0.00117166 0)
(1.06063 4.88828e-05 0)
(1.05671 -0.000436517 0)
(1.05324 -0.000643942 0)
(1.05064 -0.000680425 0)
(1.04882 -0.000465236 0)
(1.04767 -0.000173319 -7.40887e-24)
(1.03301 0.00119992 0)
(1.03303 0.00365623 0)
(1.03328 0.00625729 0)
(1.03371 0.00922464 0)
(1.03422 0.0128362 0)
(1.03495 0.0172557 0)
(1.03686 0.0231169 0)
(1.04029 0.0313649 0)
(1.04305 0.0427147 0)
(1.044 0.0576569 0)
(1.04293 0.0774661 -4.35819e-24)
(1.03918 0.10343 -2.00912e-23)
(1.03389 0.136271 1.22943e-22)
(1.02506 0.183978 -6.82127e-23)
(1.03743 0.234616 1.70984e-20)
(1.03832 0.303023 -6.91854e-22)
(1.04671 0.389479 5.58854e-21)
(0.99831 0.506259 -2.58055e-21)
(0.972693 0.655531 -2.42301e-21)
(0.90014 0.77218 -1.09673e-20)
(0.76353 0.782595 -5.82663e-21)
(0.624963 0.674461 -2.07002e-21)
(0.539233 0.50682 -6.18046e-22)
(0.486045 0.356117 2.27883e-22)
(0.826409 0.291379 8.17978e-21)
(1.07411 0.204721 8.78024e-22)
(1.12494 0.102564 -1.59229e-22)
(1.11746 0.0634378 1.54538e-22)
(1.10403 0.0378293 -1.11647e-22)
(1.09172 0.0206443 3.98392e-24)
(1.08167 0.0100951 0)
(1.07404 0.00330097 0)
(1.06906 -0.000928757 0)
(1.06551 -0.00317673 0)
(1.0612 -0.00371183 0)
(1.05663 -0.0035155 0)
(1.05285 -0.00299608 0)
(1.05002 -0.00225175 0)
(1.04806 -0.00132838 0)
(1.04691 -0.000385063 0)
(1.02973 0.000946239 0)
(1.02965 0.00279859 0)
(1.02961 0.00472032 0)
(1.02949 0.0068518 0)
(1.02912 0.00936602 0)
(1.02839 0.0124143 0)
(1.02766 0.0165675 0)
(1.02708 0.0229852 0)
(1.02505 0.0323076 0)
(1.02049 0.0446942 0)
(1.01241 0.0610736 0)
(0.999617 0.0826885 -2.50113e-25)
(0.981451 0.10998 -2.14203e-24)
(0.957242 0.151528 -5.77545e-23)
(0.951247 0.202526 5.85109e-21)
(0.92158 0.265154 -2.28849e-22)
(0.916356 0.356189 4.77707e-21)
(0.878465 0.425385 -1.63009e-21)
(0.825807 0.503461 -6.76369e-22)
(0.778562 0.604446 -1.14167e-21)
(0.731724 0.692991 -1.76067e-22)
(0.699639 0.726529 -5.30173e-21)
(0.683329 0.685921 -2.09117e-21)
(0.710595 0.552731 -1.80881e-21)
(1.00609 0.302667 7.85035e-22)
(1.2169 0.173648 -5.54846e-22)
(1.20332 0.0604821 -7.10982e-22)
(1.1652 0.0372396 1.97387e-23)
(1.13305 0.0170486 -2.27101e-24)
(1.11039 0.00536052 0)
(1.09351 -0.0019488 0)
(1.08139 -0.00657799 0)
(1.073 -0.00903562 0)
(1.06664 -0.00952915 0)
(1.06066 -0.00850877 0)
(1.0554 -0.00707706 0)
(1.05132 -0.00551806 0)
(1.04837 -0.00389427 0)
(1.04642 -0.00227538 0)
(1.0454 -0.00070491 0)
(1.02755 0.000444843 0)
(1.02749 0.00140289 0)
(1.02738 0.00236463 0)
(1.02704 0.00337993 0)
(1.02622 0.00448089 0)
(1.02461 0.00571866 0)
(1.02193 0.00741858 0)
(1.01815 0.0105452 0)
(1.01244 0.0156563 0)
(1.00375 0.0226599 0)
(0.99042 0.0321966 6.59177e-24)
(0.970456 0.0450737 0)
(0.942214 0.0622967 0)
(0.907198 0.0884978 1.32384e-21)
(0.863116 0.126304 2.11136e-21)
(0.818632 0.186897 9.60703e-21)
(0.776208 0.26419 -2.97203e-22)
(0.706527 0.395025 1.6782e-22)
(0.634954 0.532695 -5.81934e-22)
(0.611717 0.649122 4.25395e-21)
(0.661074 0.702585 1.0812e-22)
(0.752987 0.660435 2.81126e-21)
(0.881923 0.529322 -8.68698e-22)
(1.0499 0.330078 9.99362e-22)
(1.25641 0.13375 -8.57633e-23)
(1.34003 -0.0118173 5.55983e-22)
(1.2465 -0.0226115 -6.14524e-22)
(1.18787 -0.0197178 0)
(1.14738 -0.0229705 0)
(1.11932 -0.0225052 9.71051e-23)
(1.09883 -0.0222341 0)
(1.08407 -0.0214534 0)
(1.07327 -0.0197881 0)
(1.06486 -0.0171214 0)
(1.05792 -0.0138729 0)
(1.05245 -0.0108554 0)
(1.0484 -0.00811064 0)
(1.04554 -0.00561239 -8.21002e-24)
(1.04373 -0.00328387 -5.88996e-24)
(1.04288 -0.00108332 0)
(1.02699 -1.55696e-05 0)
(1.02693 5.0114e-05 0)
(1.02682 2.40634e-06 0)
(1.02652 -0.000164869 0)
(1.02578 -0.000578704 0)
(1.02414 -0.00131197 0)
(1.02081 -0.0023259 0)
(1.01562 -0.0031798 0)
(1.00829 -0.00364755 0)
(0.997862 -0.00407808 0)
(0.982234 -0.00457197 1.20917e-22)
(0.958199 -0.00509395 0)
(0.922356 -0.00380934 0)
(0.876757 0.00361218 6.92661e-22)
(0.804775 0.0204219 -1.61304e-20)
(0.693384 0.0580307 -3.93829e-21)
(0.584554 0.0854054 0)
(0.527431 0.0842676 4.60896e-22)
(0.531323 0.052669 -3.07406e-21)
(0.6262 0.00180953 -6.54849e-21)
(0.808793 -0.0639591 1.40798e-21)
(1.00783 -0.106605 2.26328e-20)
(1.19484 -0.184175 -2.46219e-21)
(1.3331 -0.223807 0)
(1.38907 -0.214478 2.13033e-22)
(1.31493 -0.159134 -8.14723e-21)
(1.22671 -0.112168 -5.20069e-22)
(1.17299 -0.084427 0)
(1.13801 -0.0670134 0)
(1.11219 -0.0533277 3.21377e-22)
(1.09311 -0.0440256 0)
(1.07879 -0.0366989 0)
(1.0677 -0.0302669 0)
(1.05897 -0.0243 0)
(1.05236 -0.0188547 0)
(1.04755 -0.0142616 1.48531e-23)
(1.04409 -0.0103599 -1.93013e-23)
(1.04166 -0.0070198 0)
(1.04012 -0.00405684 0)
(1.03937 -0.00129662 -4.53574e-23)
(1.02743 -0.000201374 0)
(1.0275 -0.000812608 0)
(1.02762 -0.00167813 0)
(1.02774 -0.0028817 0)
(1.02767 -0.00463049 0)
(1.02686 -0.00713066 0)
(1.02428 -0.0105978 -7.30338e-24)
(1.01979 -0.0151299 0)
(1.01365 -0.0211412 0)
(1.00513 -0.0294653 0)
(0.991986 -0.0414199 0)
(0.970551 -0.0590305 0)
(0.931791 -0.0810997 0)
(0.865816 -0.104135 8.85684e-21)
(0.784105 -0.114696 4.91035e-23)
(0.705327 -0.124713 -2.57709e-22)
(0.660395 -0.197407 0)
(0.646242 -0.287388 0)
(0.658857 -0.380888 -2.52816e-21)
(0.73165 -0.459911 -1.81731e-20)
(0.880282 -0.51551 4.99696e-20)
(1.03768 -0.51971 -4.42852e-21)
(1.17304 -0.507626 0)
(1.25336 -0.441667 0)
(1.26 -0.343623 0)
(1.20694 -0.243701 1.27736e-23)
(1.15913 -0.174624 -1.00269e-22)
(1.12815 -0.13109 -2.16779e-23)
(1.10726 -0.0991426 0)
(1.09019 -0.0762798 0)
(1.07685 -0.0598121 0)
(1.06597 -0.0473764 0)
(1.05686 -0.0374212 6.51799e-23)
(1.04951 -0.0292007 2.67107e-23)
(1.04432 -0.0222767 1.34566e-24)
(1.04089 -0.0166002 0)
(1.03851 -0.0118954 0)
(1.03688 -0.00792083 0)
(1.03588 -0.00450328 0)
(1.03541 -0.00136514 0)
(1.02829 -0.000313435 0)
(1.02878 -0.00125107 0)
(1.02944 -0.00252495 0)
(1.03033 -0.0042973 0)
(1.03138 -0.00681362 0)
(1.03209 -0.0103973 0)
(1.03147 -0.0154917 0)
(1.0296 -0.0225702 0)
(1.0276 -0.0325994 1.1796e-23)
(1.02535 -0.0469706 0)
(1.02109 -0.0677861 0)
(1.01149 -0.0991228 0)
(0.980947 -0.141025 -2.32945e-21)
(0.909282 -0.195529 -7.15381e-21)
(0.832662 -0.246155 0)
(0.799372 -0.308331 0)
(0.796545 -0.400747 0)
(0.777161 -0.478934 0)
(0.774245 -0.54728 9.08443e-21)
(0.801097 -0.597271 2.0939e-20)
(0.889653 -0.616188 1.54198e-20)
(0.983293 -0.590735 -6.44437e-21)
(1.06004 -0.533696 0)
(1.09659 -0.443275 0)
(1.09806 -0.341059 0)
(1.08268 -0.255441 0)
(1.07575 -0.193258 -1.48542e-21)
(1.0705 -0.147144 -4.58349e-22)
(1.06543 -0.111362 0)
(1.05975 -0.085254 -1.86794e-24)
(1.05427 -0.0655444 5.76733e-25)
(1.04876 -0.0507695 3.54423e-24)
(1.04321 -0.0393203 0)
(1.03832 -0.030304 0)
(1.03514 -0.0230067 0)
(1.03336 -0.0171467 0)
(1.03222 -0.0123456 0)
(1.03151 -0.00828564 0)
(1.03122 -0.00475654 0)
(1.03127 -0.00158779 0)
(1.02948 -0.000401918 0)
(1.03036 -0.00132304 0)
(1.03163 -0.00251099 0)
(1.03342 -0.00421147 0)
(1.03582 -0.00668727 0)
(1.0385 -0.0103048 0)
(1.04068 -0.0156628 0)
(1.04274 -0.0234566 0)
(1.04666 -0.0346744 0)
(1.05335 -0.0508094 0)
(1.06251 -0.0739095 -7.67472e-23)
(1.07154 -0.108658 -3.48844e-22)
(1.06386 -0.157377 -8.48801e-22)
(1.0075 -0.23075 1.30286e-21)
(0.934461 -0.318037 0)
(0.903087 -0.402398 0)
(0.878139 -0.476085 0)
(0.837424 -0.526033 0)
(0.821438 -0.558811 -1.98367e-20)
(0.817252 -0.582397 2.44606e-20)
(0.850625 -0.572767 4.3343e-21)
(0.895498 -0.521487 -1.46895e-20)
(0.940696 -0.451554 0)
(0.965239 -0.368638 0)
(0.981549 -0.290096 0)
(0.995473 -0.229846 0)
(1.00704 -0.180303 1.69904e-21)
(1.01512 -0.138419 -2.71595e-21)