/*--------------------------------*- C++ -*----------------------------------*\
| =========                 |                                                 |
| \\      /  F ield         | OpenFOAM: The Open Source CFD Toolbox           |
|  \\    /   O peration     | Version:  v2106                                 |
|   \\  /    A nd           | Website:  www.openfoam.com                      |
|    \\/     M anipulation  |                                                 |
\*---------------------------------------------------------------------------*/
FoamFile
{
    version     2.0;
    format      ascii;
    arch        "LSB;label=32;scalar=64";
    class       volVectorField;
    location    "0";
    object      U;
}
// * * * * * * * * * * * * * * * * * * * * * * * * * * * * * * * * * * * * * //

dimensions      [0 1 -1 0 0 0 0];

internalField   nonuniform List<vector> 
11644
(
(0.995295 -0.000211207 1.04556e-23)
(0.995193 -0.000552065 2.88334e-23)
(0.995132 -0.000805766 1.54698e-23)
(0.995114 -0.00106021 0)
(0.995109 -0.00132015 0)
(0.995106 -0.00157713 0)
(0.995106 -0.00182788 0)
(0.995106 -0.0020609 0)
(0.995107 -0.00226325 0)
(0.995104 -0.0024197 0)
(0.995091 -0.00251426 0)
(0.995083 -0.00252655 0)
(0.995141 -0.00243545 0)
(0.99527 -0.00226962 0)
(0.995118 -0.00189423 0)
(0.995047 -0.00152419 0)
(0.994711 -0.000929557 0)
(0.994431 0.000172608 0)
(0.994652 0.00141655 0)
(0.995029 0.00227426 3.35099e-30)
(0.995092 0.00285045 -3.35542e-30)
(0.99498 0.00342648 0)
(0.994999 0.00398508 0)
(0.995168 0.0044282 0)
(0.995157 0.00468239 0)
(0.995137 0.00478715 0)
(0.995263 0.00475233 0)
(0.995077 0.00461497 0)
(0.995067 0.00436944 0)
(0.995099 0.00404057 0)
(0.9951 0.00367037 0)
(0.995103 0.0032677 0)
(0.995108 0.00285506 0)
(0.995111 0.00244534 0)
(0.995115 0.00204799 0)
(0.995118 0.00166977 0)
(0.995121 0.00131506 0)
(0.99514 0.000985471 0)
(0.995213 0.000665178 0)
(0.995332 0.000249687 2.02723e-24)
(0.99602 -0.000431579 1.34301e-23)
(0.99594 -0.0012995 1.24406e-23)
(0.995879 -0.00215787 6.68144e-24)
(0.995858 -0.0029958 0)
(0.995852 -0.00381801 0)
(0.995841 -0.0046249 0)
(0.995816 -0.00540192 0)
(0.995767 -0.00612446 0)
(0.995685 -0.00676024 0)
(0.995555 -0.00726621 0)
(0.995407 -0.00758118 0)
(0.995174 -0.0076561 0)
(0.994781 -0.00740215 0)
(0.99423 -0.00672173 0)
(0.994025 -0.00567708 0)
(0.993482 -0.00406671 5.29228e-25)
(0.992842 -0.00201919 2.69493e-23)
(0.992327 0.000296064 8.07352e-23)
(0.992174 0.00301029 -1.28399e-22)
(0.992442 0.00602297 5.03033e-22)
(0.992909 0.00877074 -6.0027e-22)
(0.993267 0.0108818 1.7619e-22)
(0.993509 0.0124467 -3.42336e-23)
(0.993809 0.0136678 -2.70606e-23)
(0.994516 0.0145274 1.37731e-24)
(0.995111 0.0148238 0)
(0.995368 0.0146975 0)
(0.995943 0.0140683 0)
(0.996149 0.0132002 0)
(0.996243 0.0121352 0)
(0.996326 0.0109161 0)
(0.996325 0.00964876 0)
(0.996295 0.00836805 0)
(0.996241 0.00711374 0)
(0.996178 0.0059063 0)
(0.996117 0.00475643 0)
(0.996071 0.0036578 0)
(0.996062 0.00259015 0)
(0.99611 0.00153035 0)
(0.996186 0.000504097 0)
(0.997491 -0.00068389 0)
(0.99743 -0.00208628 0)
(0.997382 -0.00352774 0)
(0.997363 -0.00495858 0)
(0.997352 -0.00637437 1.22682e-23)
(0.997326 -0.00777204 0)
(0.997259 -0.00913097 0)
(0.997124 -0.010418 0)
(0.996892 -0.0115817 0)
(0.996542 -0.0125472 0)
(0.995969 -0.0132373 0)
(0.99523 -0.0135073 0)
(0.99441 -0.0132191 -1.67721e-24)
(0.993486 -0.0122975 8.83178e-23)
(0.991865 -0.010464 -1.6576e-22)
(0.99045 -0.00781603 -1.95112e-22)
(0.989054 -0.00441391 8.42301e-23)
(0.98779 -0.000518621 5.45262e-22)
(0.986939 0.00401912 5.56668e-23)
(0.98691 0.00914068 4.27524e-22)
(0.987744 0.0142544 -4.99124e-22)
(0.989214 0.0187537 -5.93607e-23)
(0.990839 0.022094 -4.90429e-22)
(0.992434 0.0242188 1.56734e-22)
(0.993774 0.0253248 -2.12619e-23)
(0.995292 0.025628 1.52137e-22)
(0.996902 0.0250559 -7.90706e-23)
(0.997585 0.0239552 1.92066e-24)
(0.998304 0.0222736 0)
(0.998724 0.0202577 0)
(0.998829 0.0181175 0)
(0.998826 0.01589 0)
(0.998702 0.0137 0)
(0.998527 0.0115798 0)
(0.998333 0.00955715 0)
(0.998151 0.00763684 0)
(0.997999 0.00581006 0)
(0.997899 0.00405693 0)
(0.997862 0.00237631 0)
(0.997882 0.0007689 0)
(0.999748 -0.000960923 0)
(0.999694 -0.00292807 0)
(0.999669 -0.0049258 0)
(0.999665 -0.00695281 0)
(0.999662 -0.00899463 0)
(0.999627 -0.0110458 0)
(0.999518 -0.0130818 0)
(0.999288 -0.0150653 0)
(0.99888 -0.0169295 0)
(0.99819 -0.0185954 0)
(0.997265 -0.0198772 1.19342e-24)
(0.995934 -0.0206193 6.63024e-23)
(0.99396 -0.020624 -1.56046e-22)
(0.991117 -0.0196268 6.10473e-22)
(0.988634 -0.0174248 -4.49543e-22)
(0.985652 -0.0138948 -7.20989e-22)
(0.982811 -0.00906707 -5.19673e-22)
(0.98025 -0.0031574 1.62688e-21)
(0.978285 0.00384188 7.01976e-22)
(0.97792 0.0115 -2.40188e-21)
(0.979219 0.0190665 1.05243e-21)
(0.981914 0.0260339 3.35782e-22)
(0.985365 0.031778 -1.27465e-21)
(0.989238 0.0354999 5.41194e-22)
(0.992955 0.0373052 7.96228e-22)
(0.996129 0.0374675 2.38563e-22)
(0.998293 0.0365182 -4.23526e-22)
(1.00058 0.0341947 -1.33135e-23)
(1.0018 0.0314042 -9.48333e-24)
(1.00243 0.0282671 -6.58805e-25)
(1.0027 0.0249718 0)
(1.00258 0.0217461 0)
(1.0023 0.0186029 0)
(1.00191 0.0156249 0)
(1.00151 0.012824 0)
(1.00112 0.0102 0)
(1.0008 0.00773871 0)
(1.00056 0.0054076 0)
(1.00042 0.00317499 0)
(1.00039 0.00105308 0)
(1.00277 -0.00126448 0)
(1.00274 -0.00379468 0)
(1.00274 -0.00639068 0)
(1.00279 -0.0090242 0)
(1.00283 -0.0117193 0)
(1.00284 -0.0144813 0)
(1.00274 -0.0172996 0)
(1.00246 -0.0201393 0)
(1.0019 -0.0229477 0)
(1.001 -0.0255676 -5.43925e-24)
(0.99945 -0.0278408 2.37476e-22)
(0.996958 -0.0295485 -4.99206e-23)
(0.993761 -0.0303011 -1.32341e-22)
(0.990179 -0.0297718 -1.12307e-21)
(0.984884 -0.0277794 7.46466e-22)
(0.979501 -0.0237436 4.34551e-22)
(0.974477 -0.0177421 1.56606e-21)
(0.969697 -0.00975355 -4.74892e-21)
(0.965798 0.000365124 6.37368e-21)
(0.964439 0.0119408 -3.62625e-21)
(0.966352 0.0238634 4.308e-21)
(0.971219 0.0346974 -5.37563e-21)
(0.977792 0.0432308 2.9343e-21)
(0.985915 0.0486509 -1.11772e-21)
(0.992326 0.0508771 -7.14307e-22)
(0.99785 0.0508512 -8.161e-22)
(1.00299 0.0483933 1.27825e-21)
(1.00527 0.0451167 -4.66912e-22)
(1.00704 0.0407041 4.5579e-22)
(1.00777 0.0359819 -1.69103e-22)
(1.00787 0.0313525 1.10685e-23)
(1.00761 0.0269483 0)
(1.00703 0.02286 0)
(1.00632 0.01906 0)
(1.0056 0.0155527 0)
(1.00493 0.0123135 0)
(1.00437 0.00930433 0)
(1.00394 0.00649471 0)
(1.00367 0.00382388 0)
(1.00356 0.00124089 0)
(1.00655 -0.00152449 0)
(1.00656 -0.00463547 0)
(1.00664 -0.0078114 0)
(1.00679 -0.0110728 0)
(1.00695 -0.0144726 0)
(1.00708 -0.0180231 0)
(1.00711 -0.0217378 0)
(1.00691 -0.0256125 0)
(1.00638 -0.0295629 2.43942e-23)
(1.00515 -0.0334638 2.23131e-22)
(1.00284 -0.0371258 -2.66081e-22)
(0.999592 -0.0402021 1.15591e-22)
(0.995165 -0.0425833 5.04338e-22)
(0.98831 -0.0441164 -2.75537e-21)
(0.981714 -0.0428488 1.72456e-21)
(0.973308 -0.0391789 7.41694e-22)
(0.96343 -0.0328169 5.14588e-22)
(0.954196 -0.022163 -1.69913e-21)
(0.947008 -0.00726279 -4.51436e-23)
(0.944022 0.00996704 2.66083e-21)
(0.94654 0.0276922 -2.716e-21)
(0.953908 0.0440053 -6.5587e-22)
(0.965101 0.0573339 2.37732e-21)
(0.978354 0.0648688 -1.09108e-21)
(0.990774 0.0670884 -3.60766e-22)
(1.00122 0.0664977 -9.27983e-22)
(1.00769 0.0632406 2.05896e-21)
(1.0129 0.05635 -2.89708e-22)
(1.01498 0.0497836 -3.69071e-22)
(1.01535 0.0431902 1.24439e-22)
(1.01477 0.0369662 9.31375e-23)
(1.01388 0.0313368 6.4165e-24)
(1.01282 0.0262866 0)
(1.01163 0.0217463 0)
(1.01047 0.0176452 0)
(1.00942 0.013926 0)
(1.00854 0.0105207 0)
(1.00787 0.00735129 0)
(1.00743 0.00435082 0)
(1.00724 0.00146334 0)
(1.01104 -0.00179287 0)
(1.01111 -0.00544226 0)
(1.01133 -0.00913558 0)
(1.01166 -0.0130244 0)
(1.01207 -0.0171142 0)
(1.01248 -0.0214895 0)
(1.01281 -0.0261917 0)
(1.01292 -0.0312322 3.6516e-24)
(1.01241 -0.0364972 -1.58281e-22)
(1.01086 -0.0419037 2.20538e-22)
(1.00829 -0.0472974 -1.69919e-22)
(1.00442 -0.0526995 7.35861e-22)
(0.999131 -0.0578893 -6.62324e-22)
(0.992969 -0.0618262 8.0899e-22)
(0.981338 -0.0648389 4.31216e-22)
(0.967359 -0.0635661 -1.24362e-21)
(0.958059 -0.0508159 -2.01279e-21)
(0.943643 -0.0398408 -1.46695e-21)
(0.930824 -0.0213066 6.43045e-22)
(0.923435 0.00285767 7.2409e-21)
(0.925081 0.0290479 3.23952e-21)
(0.934777 0.0522447 -2.7261e-21)
(0.950222 0.069533 -2.35501e-21)
(0.96785 0.0788455 -1.18534e-21)
(0.99201 0.0905636 3.86951e-23)
(1.00717 0.08685 -3.15916e-22)
(1.01923 0.0771874 -3.19178e-22)
(1.02321 0.06923 -5.91893e-22)
(1.02554 0.0590769 6.43128e-22)
(1.02541 0.0498205 2.54712e-22)
(1.02372 0.0416748 -1.9074e-22)
(1.0216 0.0346869 -1.61356e-23)
(1.01955 0.0287228 -8.85061e-25)
(1.01768 0.0235795 0)
(1.01593 0.0190376 0)
(1.01439 0.0149666 0)
(1.01312 0.0112734 0)
(1.01216 0.00785209 0)
(1.01153 0.00461691 0)
(1.01125 0.00148313 0)
(1.01615 -0.00204953 0)
(1.01633 -0.00606661 0)
(1.01674 -0.010331 0)
(1.01737 -0.0147331 0)
(1.01816 -0.0194655 0)
(1.01906 -0.0246153 0)
(1.01996 -0.0302908 0)
(1.02054 -0.0364775 2.63049e-23)
(1.02007 -0.0430944 -2.42259e-22)
(1.01875 -0.0500456 4.47092e-22)
(1.01662 -0.0575223 -8.79858e-23)
(1.01333 -0.0657079 6.8928e-22)
(1.00815 -0.0742859 -1.2938e-21)
(0.997998 -0.0788067 -7.35569e-22)
(0.988457 -0.0830622 -1.30701e-21)
(0.971297 -0.0882682 9.11167e-22)
(0.947551 -0.0864471 -4.78751e-22)
(0.922638 -0.0744394 -2.65443e-21)
(0.896846 -0.050094 1.99498e-21)
(0.879163 -0.0118633 3.24086e-21)
(0.879236 0.0334366 5.10723e-21)
(0.897325 0.0736964 3.83088e-21)
(0.927752 0.100109 2.38856e-21)
(0.96006 0.111529 -4.70457e-21)
(0.989828 0.112878 2.202e-21)
(1.01184 0.104321 -1.31615e-21)
(1.02502 0.0932304 -1.04728e-21)
(1.03908 0.0794498 1.65469e-22)
(1.03974 0.0669902 -3.7959e-22)
(1.03811 0.0553069 1.51665e-22)
(1.03474 0.0451529 -5.14312e-23)
(1.03089 0.0367221 -7.59362e-23)
(1.02718 0.029897 9.13921e-24)
(1.02424 0.0243045 0)
(1.02176 0.0195175 0)
(1.01964 0.0152942 0)
(1.01793 0.0114901 0)
(1.01665 0.00801231 0)
(1.01581 0.004744 0)
(1.01541 0.00161131 0)
(1.02174 -0.00207201 0)
(1.02205 -0.00649795 0)
(1.02274 -0.0109665 0)
(1.02378 -0.0157819 0)
(1.02513 -0.0210451 0)
(1.02675 -0.0268625 0)
(1.02851 -0.0333634 1.12555e-23)
(1.02962 -0.0405399 -6.35833e-23)
(1.02958 -0.048265 7.58842e-23)
(1.02922 -0.0567636 7.48087e-23)
(1.02837 -0.0666821 -6.69961e-23)
(1.02665 -0.0782882 -2.73222e-22)
(1.02286 -0.0925541 6.01606e-22)
(1.01091 -0.103115 -1.07e-21)
(0.999442 -0.114528 -1.31338e-21)
(0.980098 -0.129072 4.44935e-22)
(0.951259 -0.130933 -2.71617e-21)
(0.907371 -0.126896 1.33419e-21)
(0.858085 -0.100677 1.91458e-21)
(0.815849 -0.0430093 2.16119e-22)
(0.807276 0.0368098 -1.70726e-21)
(0.839099 0.107117 8.29317e-22)
(0.893696 0.147006 4.61829e-21)
(0.952642 0.158411 1.33178e-21)
(0.995615 0.148927 -1.02579e-21)
(1.03073 0.132523 -5.98234e-22)
(1.0453 0.11154 -2.91601e-22)
(1.05962 0.0907686 8.47348e-23)
(1.05774 0.0722699 -1.76194e-22)
(1.0534 0.0581892 6.67461e-23)
(1.04756 0.0466212 3.7883e-23)
(1.04145 0.0371777 -7.91295e-23)
(1.03563 0.029693 6.22543e-23)
(1.03105 0.0238488 2.94197e-24)
(1.0277 0.0190655 0)
(1.02494 0.0149134 0)
(1.02274 0.0112 0)
(1.02112 0.00780617 0)
(1.02005 0.00458242 0)
(1.01956 0.00149572 0)
(1.02757 -0.0022673 0)
(1.02806 -0.0066601 0)
(1.02909 -0.011293 0)
(1.03067 -0.0162934 0)
(1.03275 -0.0217475 0)
(1.03532 -0.0278934 0)
(1.03808 -0.0348566 -3.72767e-24)
(1.03986 -0.0425833 -5.95288e-23)
(1.04089 -0.0510911 4.46021e-23)
(1.04232 -0.0609816 1.26911e-22)
(1.04389 -0.073021 1.35716e-22)
(1.04523 -0.0881762 -4.6231e-22)
(1.04581 -0.107669 2.77242e-22)
(1.03689 -0.124793 -3.39944e-22)
(1.02831 -0.145824 -2.18519e-22)
(1.0046 -0.172076 1.22422e-22)
(0.969976 -0.193898 8.68416e-23)
(0.908035 -0.216473 -1.67819e-22)
(0.80966 -0.209303 2.48793e-21)
(0.695448 -0.126606 8.32055e-22)
(0.650613 0.039946 2.74778e-22)
(0.728597 0.194701 3.39641e-22)
(0.859861 0.254691 -9.68326e-22)
(0.963632 0.240697 -5.16184e-22)
(1.0318 0.202876 -1.12636e-22)
(1.07035 0.161638 -6.77303e-22)
(1.07915 0.123248 -4.06791e-23)
(1.08677 0.0926156 -9.05257e-23)
(1.07903 0.0717877 1.42496e-22)
(1.07062 0.0569001 -3.56822e-23)
(1.06149 0.0450039 -8.61672e-23)
(1.05265 0.035382 1.35291e-23)
(1.04446 0.0278433 4.78569e-23)
(1.03785 0.0221169 7.96113e-24)
(1.0334 0.0176236 0)
(1.02998 0.0137631 0)
(1.0273 0.0103312 0)
(1.02534 0.00716076 0)
(1.02409 0.00425962 0)
(1.0235 0.00135235 0)
(1.03332 -0.00204104 0)
(1.03402 -0.00633769 0)
(1.03547 -0.0108668 0)
(1.03765 -0.0156803 0)
(1.04058 -0.021051 0)
(1.04426 -0.027173 0)
(1.04806 -0.0341254 -7.61139e-24)
(1.05076 -0.041808 -1.33378e-23)
(1.05356 -0.0506318 4.31185e-23)
(1.05766 -0.0614106 1.52942e-23)
(1.06285 -0.0746477 -7.78459e-23)
(1.06888 -0.0911708 2.88714e-23)
(1.07616 -0.112069 2.26034e-23)
(1.07385 -0.136316 -1.02096e-22)
(1.07374 -0.167479 5.87826e-23)
(1.0644 -0.20939 6.45571e-23)
(1.03925 -0.264604 -9.40126e-23)
(0.980659 -0.351745 2.18622e-22)
(0.819366 -0.449361 -2.15005e-21)
(0.458525 -0.421724 -6.30829e-20)
(0.187523 0.0632705 -3.32012e-21)
(0.520694 0.517066 -3.40163e-20)
(0.898852 0.498741 1.32966e-21)
(1.06603 0.360701 1.23172e-23)
(1.12135 0.248829 -7.56273e-23)
(1.13492 0.167126 8.16255e-23)
(1.12497 0.123955 2.98152e-22)
(1.11659 0.0805375 7.39898e-24)
(1.10178 0.0631872 -4.17878e-24)
(1.08806 0.0496681 -2.16053e-23)
(1.07514 0.0391033 -5.67815e-23)
(1.06345 0.0307583 5.55126e-23)
(1.05296 0.0241545 -3.93974e-24)
(1.04424 0.0190871 1.66925e-25)
(1.03855 0.0152373 0)
(1.03454 0.0120028 0)
(1.03146 0.00909901 0)
(1.02922 0.00641717 0)
(1.02776 0.00379327 0)
(1.02707 0.00138288 0)
(1.03877 -0.00199992 0)
(1.03967 -0.00577013 0)
(1.0415 -0.00971739 0)
(1.04429 -0.0140098 0)
(1.0481 -0.0188755 0)
(1.05294 -0.024474 0)
(1.05774 -0.0308148 -2.16678e-23)
(1.06167 -0.0378901 -2.06128e-23)
(1.06675 -0.0462856 -2.308e-23)
(1.07406 -0.0568194 2.72881e-24)
(1.08355 -0.0699301 5.96125e-24)
(1.095 -0.0858369 6.66542e-23)
(1.10913 -0.104966 -7.31541e-24)
(1.11465 -0.132329 5.48501e-23)
(1.12994 -0.163128 1.29222e-23)
(1.14187 -0.210374 -1.53172e-22)
(1.15889 -0.278784 1.48948e-22)
(1.19004 -0.4033 8.9737e-22)
(0.860483 -0.453848 -7.06091e-20)
(1.16375 0.613968 5.50339e-20)
(1.31884 0.379043 4.40054e-23)
(1.2558 0.220019 -4.50192e-23)
(1.21098 0.131974 -3.30895e-23)
(1.17351 0.0952893 -8.00812e-23)
(1.14504 0.0554303 2.44155e-22)
(1.12174 0.0440892 -7.8638e-23)
(1.10254 0.0353433 -9.12729e-23)
(1.08628 0.0286185 -2.62834e-23)
(1.07235 0.0232158 -4.68955e-23)
(1.06009 0.0186651 -2.91583e-23)
(1.04968 0.0149623 -1.5339e-23)
(1.04279 0.012096 0)
(1.03829 0.00966514 0)
(1.03489 0.00736206 0)
(1.03246 0.00520168 0)
(1.03089 0.00307838 0)
(1.03017 0.000924711 0)
(1.04335 -0.00129093 0)
(1.04452 -0.00453822 0)
(1.04677 -0.00779293 0)
(1.05019 -0.0113469 0)
(1.05482 -0.0152743 0)
(1.0607 -0.0198019 0)
(1.06644 -0.0249325 -2.74769e-24)
(1.07181 -0.0308306 1.67052e-23)
(1.07936 -0.0380881 -1.14011e-23)
(1.08981 -0.0472699 -1.01095e-23)
(1.10342 -0.0587773 8.43771e-23)
(1.11991 -0.0725014 -1.17347e-22)
(1.1397 -0.0881772 1.32189e-22)
(1.15122 -0.11217 2.22291e-23)
(1.17868 -0.134311 1.68714e-21)
(1.20605 -0.167901 -1.40547e-22)
(1.25437 -0.207928 3.52155e-23)
(1.32038 -0.243885 1.68132e-21)
(0.00925356 0.0210851 3.54712e-19)
(0.0759835 0.00940059 -2.20076e-19)
(1.49851 0.166451 -4.45382e-22)
(1.35262 0.104132 3.60988e-23)
(1.2641 0.0561808 1.46887e-21)
(1.20844 0.0408234 2.57286e-21)
(1.16024 0.0175633 4.11222e-22)
(1.13224 0.0169827 -3.04834e-23)
(1.11028 0.015742 3.39157e-23)
(1.09268 0.0146964 -8.26037e-23)
(1.07776 0.0134514 4.15282e-24)
(1.06469 0.0118922 2.20095e-23)
(1.05344 0.010157 6.24104e-24)
(1.04588 0.00859964 0)
(1.04113 0.00709523 0)
(1.03758 0.00551506 0)
(1.03504 0.00389231 0)
(1.03346 0.00240256 0)
(1.03269 0.000754508 0)
(1.0471 -0.00128895 3.77739e-25)
(1.04838 -0.00317949 0)
(1.05098 -0.00534159 0)
(1.05481 -0.00769439 0)
(1.06 -0.0102886 0)
(1.06662 -0.0132811 0)
(1.07334 -0.0167645 -4.40946e-24)
(1.08036 -0.0210403 1.56213e-23)
(1.09031 -0.0265931 -3.07489e-23)
(1.10355 -0.0336725 5.43713e-23)
(1.12022 -0.0424115 3.12903e-23)
(1.14011 -0.0528225 -1.35693e-22)
(1.16313 -0.0643885 -2.01235e-22)
(1.17798 -0.0834052 2.98401e-22)
(1.20727 -0.096715 -1.80959e-22)
(1.23508 -0.114038 5.19657e-22)
(1.28021 -0.122965 1.12007e-21)
(1.14699 -0.07798 -8.03962e-23)
(0.0292123 0.0308096 3.14109e-21)
(0.329246 2.42494e-05 1.97993e-20)
(1.47381 -0.0422965 2.38572e-22)
(1.36617 -0.0331736 -1.49571e-21)
(1.27097 -0.0349181 -2.31799e-22)
(1.21332 -0.0244328 -1.00267e-21)
(1.15795 -0.0244172 -7.5909e-23)
(1.13037 -0.0125562 2.20612e-22)
(1.10905 -0.00514728 -4.88273e-22)
(1.09221 6.79858e-05 1.17025e-22)
(1.07821 0.0031939 -7.24183e-24)
(1.06606 0.0048195 -3.19141e-23)
(1.05517 0.00538116 -7.36179e-24)
(1.04768 0.00520562 0)
(1.04309 0.00468236 0)
(1.03966 0.00391207 0)
(1.03714 0.00295482 0)
(1.03545 0.00179628 0)
(1.03463 0.000760058 0)
(1.05008 -0.000297354 4.92628e-26)
(1.05123 -0.00131352 0)
(1.05367 -0.002306 0)
(1.0576 -0.00330528 0)
(1.06311 -0.00434803 0)
(1.07022 -0.00548722 0)
(1.07806 -0.00699567 -5.53935e-25)
(1.08663 -0.00926043 -9.24263e-24)
(1.09859 -0.0125949 2.49206e-23)
(1.11388 -0.016984 -2.29889e-23)
(1.1324 -0.0223872 1.80981e-22)
(1.15474 -0.0292999 1.66971e-23)
(1.17922 -0.0375815 -1.15564e-22)
(1.19541 -0.0535564 -2.40257e-22)
(1.22141 -0.0644116 -1.85072e-22)
(1.24137 -0.0748519 2.26006e-21)
(1.26028 -0.0695861 4.33146e-22)
(0.92129 0.0159856 -1.11595e-21)
(-0.0893059 0.147189 1.46908e-21)
(-0.213901 0.275744 -4.24246e-22)
(-0.053623 0.437107 2.26305e-23)
(0.265866 0.281052 -5.91633e-22)
(0.796416 -0.0830578 -9.82826e-22)
(1.43794 -0.200721 -1.90625e-22)
(1.32518 -0.159372 -3.46627e-22)
(1.23455 -0.118903 1.15231e-23)
(1.18647 -0.0834415 -1.5356e-21)
(1.13532 -0.0582708 8.78583e-22)
(1.11451 -0.0376079 -2.03606e-22)
(1.09817 -0.0231366 -3.64123e-22)
(1.08493 -0.0124837 -2.18066e-22)
(1.07368 -0.00550016 1.10707e-22)
(1.06366 -0.00102317 -1.91926e-23)
(1.05456 0.00144533 9.75174e-24)
(1.04806 0.0024037 0)
(1.04386 0.00252915 0)
(1.04071 0.00226202 0)
(1.03842 0.0017795 0)
(1.0369 0.00109522 0)
(1.03624 0.000312504 0)
(1.05023 0.000317285 -5.83016e-24)
(1.05176 0.000747447 0)
(1.05436 0.00112418 0)
(1.0583 0.00154092 0)
(1.06384 0.00211272 0)
(1.07111 0.00295539 0)
(1.07991 0.00374299 6.08912e-26)
(1.08976 0.00373166 3.22833e-23)
(1.10279 0.00303832 4.6761e-23)
(1.11925 0.0018552 -1.81362e-22)
(1.139 0.000204198 1.75158e-22)
(1.1627 -0.0026849 3.94333e-22)
(1.18892 -0.0059977 -5.60349e-22)
(1.20918 -0.0212156 9.03176e-22)
(1.23654 -0.0343687 7.38448e-23)
(1.26117 -0.0550013 2.74476e-22)
(1.24506 -0.0776584 1.28508e-21)
(0.639928 -0.0400632 -1.44242e-20)
(-0.157385 -0.0673222 5.56457e-22)
(-0.33849 -0.0981081 -1.05032e-20)
(0.096634 -0.190138 -1.09021e-21)
(0.60663 -0.308237 5.74674e-21)
(1.22152 -0.509179 -1.97332e-21)
(1.30724 -0.386302 -1.6683e-21)
(1.22373 -0.264886 5.10408e-22)
(1.15927 -0.178545 -2.57316e-22)
(1.13325 -0.119573 3.38489e-22)
(1.09639 -0.0769367 5.97057e-22)
(1.08743 -0.0500378 -1.05024e-21)
(1.07902 -0.0323284 -4.10242e-22)
(1.07183 -0.0192904 6.06537e-22)
(1.06518 -0.010142 -2.63576e-22)
(1.05848 -0.00409205 -1.94506e-23)
(1.05219 -0.0007398 9.06428e-25)
(1.04763 0.000610448 0)
(1.04413 0.00101594 0)
(1.04135 0.00104972 0)
(1.03932 0.000804905 0)
(1.03803 0.00057108 0)
(1.03749 6.59432e-05 8.29555e-23)
(1.04914 0.000624727 2.97596e-23)
(1.05045 0.00220377 0)
(1.05294 0.00405813 0)
(1.05669 0.00602197 0)
(1.0619 0.00826122 0)
(1.06883 0.0110278 0)
(1.07788 0.01422 0)
(1.08888 0.0169914 5.63861e-24)
(1.10227 0.0193718 -1.83854e-23)
(1.11876 0.0219366 -4.13579e-23)
(1.13884 0.0250798 2.18767e-23)
(1.16307 0.0277428 2.77157e-23)
(1.19228 0.0316144 -2.13283e-22)
(1.2291 0.0300179 4.69186e-23)
(1.25783 0.0106478 4.06686e-22)
(1.30718 -0.011631 4.24283e-22)
(1.3112 -0.0721243 2.10544e-22)
(0.728169 -0.178772 -4.02579e-20)
(0.0964976 -0.433503 9.0962e-22)
(-0.159925 -0.698029 7.14696e-21)
(0.210565 -0.820829 -1.80213e-20)
(0.769385 -0.828954 -8.45442e-21)
(1.01036 -0.686741 -5.16166e-21)
(1.05235 -0.45698 -1.17602e-20)
(1.04809 -0.283553 6.57178e-22)
(1.0585 -0.188869 -1.09687e-21)
(1.04593 -0.110609 -4.76644e-22)
(1.05308 -0.0697918 5.33548e-22)
(1.05579 -0.0464601 -2.48478e-22)
(1.05641 -0.0301965 -5.60089e-23)
(1.05607 -0.0182436 1.46787e-22)
(1.05439 -0.0098007 -1.06258e-23)
(1.05171 -0.00411614 -1.0292e-23)
(1.04917 -0.000728826 0)
(1.04669 0.00046636 0)
(1.04415 0.000807113 0)
(1.04192 0.000882709 0)
(1.04014 0.000721591 0)
(1.03886 0.000495453 0)
(1.03812 0.000354502 -2.29714e-23)
(1.04665 0.00110479 -1.53254e-24)
(1.04774 0.00354245 0)
(1.04982 0.00631587 0)
(1.05303 0.00947448 0)
(1.05749 0.0131612 0)
(1.0635 0.0176272 0)
(1.07195 0.0230202 0)
(1.08312 0.0288191 0)
(1.09639 0.0349136 9.95304e-24)
(1.11171 0.0419076 -4.78036e-23)
(1.13049 0.0508098 4.09606e-24)
(1.15394 0.0610888 -1.79982e-22)
(1.18352 0.0752812 4.61683e-22)
(1.223 0.0919216 -1.34717e-22)
(1.26665 0.0827194 4.13547e-22)
(1.34022 0.0884348 -6.43434e-22)
(1.41076 0.0543031 -3.47528e-22)
(1.09849 -0.0973476 -7.91892e-22)
(0.498773 -0.405035 1.42125e-20)
(0.167323 -0.715599 -1.92649e-21)
(0.242306 -0.87356 -9.95195e-22)
(0.526902 -0.759843 -3.16079e-21)
(0.719228 -0.518029 2.34848e-21)
(0.810851 -0.356325 -1.72858e-21)
(0.906901 -0.218421 2.98208e-23)
(0.961237 -0.140127 1.34543e-21)
(0.990997 -0.0637996 -2.63507e-22)
(1.01504 -0.0405884 2.70983e-23)
(1.02978 -0.0263549 1.66425e-22)
(1.03842 -0.016555 -1.0129e-22)
(1.04296 -0.00949981 7.25944e-23)
(1.04484 -0.00446672 -2.30601e-23)
(1.04581 -0.000971702 0)
(1.04632 0.000741953 0)
(1.04562 0.00112537 0)
(1.04382 0.00110694 0)
(1.04196 0.00100384 1.93659e-23)
(1.04044 0.00081715 2.67817e-23)
(1.03938 0.000512178 1.59702e-23)
(1.03884 0.000199412 0)
(1.04299 0.00144435 0)
(1.04377 0.00454238 0)
(1.04535 0.00795253 0)
(1.04778 0.0118455 0)
(1.05114 0.0164713 0)
(1.05572 0.0221139 0)
(1.06269 0.0290564 0)
(1.07264 0.0371667 0)
(1.08442 0.0466905 -8.74341e-27)
(1.0974 0.0582272 8.96399e-24)
(1.11261 0.0731273 -7.83232e-24)
(1.13164 0.0915761 1.03258e-22)
(1.15539 0.116654 -5.12759e-22)
(1.18889 0.150023 6.52456e-22)
(1.23534 0.165422 2.93421e-21)
(1.30282 0.210958 -5.07357e-22)
(1.41199 0.250037 -4.24288e-21)
(1.36264 0.254856 -5.50883e-21)
(0.967215 0.0376636 8.23566e-22)
(0.566626 -0.28138 2.6952e-20)
(0.332127 -0.501922 -3.40212e-21)
(0.280994 -0.511427 -3.15114e-21)
(0.411081 -0.359546 2.38124e-21)
(0.647123 -0.184961 -1.04979e-21)
(0.812351 -0.0875569 8.65221e-22)
(0.89243 -0.0435652 1.96333e-22)
(0.960273 0.0102158 -1.14992e-23)
(0.996819 0.00477332 -1.69567e-22)
(1.01891 0.00549209 -3.208e-23)
(1.03107 0.00429945 2.80589e-23)
(1.03754 0.00387345 -3.28479e-24)
(1.04108 0.00367862 -7.86146e-26)
(1.04357 0.00357344 0)
(1.04539 0.0030136 0)
(1.04543 0.00223794 0)
(1.04381 0.00163832 0)
(1.04199 0.00118723 0)
(1.04052 0.000796517 0)
(1.03955 0.000411816 0)
(1.03899 1.73274e-05 -2.87626e-24)
(1.03865 0.00158285 0)
(1.03905 0.00496029 0)
(1.03999 0.0086738 0)
(1.04149 0.012908 0)
(1.04355 0.017961 0)
(1.04645 0.0240895 0)
(1.05143 0.0316681 0)
(1.0591 0.0409135 0)
(1.06782 0.0524544 0)
(1.07659 0.0670484 0)
(1.08587 0.0861891 -2.36567e-24)
(1.0966 0.110477 -7.89475e-24)
(1.10937 0.142527 -1.91036e-23)
(1.12717 0.184551 -9.15066e-25)
(1.16396 0.221909 6.24436e-21)
(1.1952 0.290646 3.65414e-22)
(1.26233 0.379014 7.86692e-21)
(1.34362 0.515357 3.48186e-21)
(1.20068 0.578515 -3.90078e-21)
(0.891223 0.496017 9.81255e-21)
(0.568214 0.324256 3.35061e-21)
(0.343697 0.139149 -5.77807e-21)
(0.334414 0.00173339 8.82299e-23)
(0.506214 -0.0360295 2.79711e-22)
(0.747955 0.0678596 1.09347e-20)
(0.875695 0.0843558 -7.1499e-23)
(0.973013 0.0869099 -5.06887e-23)
(1.01021 0.0541826 1.44266e-23)
(1.02903 0.0385825 1.01436e-24)
(1.03773 0.0249259 -1.87751e-24)
(1.0418 0.0164688 0)
(1.04387 0.0109084 0)
(1.04556 0.00729117 0)
(1.04703 0.00463681 0)
(1.04663 0.00282922 0)
(1.04463 0.00167567 0)
(1.04253 0.000921699 0)
(1.0409 0.000412364 0)
(1.03976 0.000129969 0)
(1.03901 -2.75737e-05 0)
(1.0341 0.00158123 0)
(1.0341 0.00489579 0)
(1.03436 0.00848224 0)
(1.03489 0.0125579 0)
(1.03562 0.017384 0)
(1.03678 0.0231868 0)
(1.03948 0.0304687 0)
(1.04414 0.0397582 0)
(1.04868 0.0518114 0)
(1.0519 0.0673133 0)
(1.05392 0.087619 0)
(1.0546 0.113758 1.65016e-25)
(1.05511 0.147014 1.48083e-23)
(1.05492 0.193243 2.82022e-23)
(1.0734 0.2398 2.19486e-21)
(1.08363 0.303092 -6.62482e-22)
(1.08579 0.38962 1.24065e-21)
(1.09968 0.54174 1.91608e-21)
(1.07204 0.711028 1.00541e-21)
(0.949915 0.798834 6.04303e-21)
(0.779291 0.763878 3.32634e-21)
(0.634735 0.614559 4.28244e-21)
(0.582171 0.410556 -2.78849e-21)
(0.586393 0.246321 3.99594e-22)
(0.668388 0.215501 -4.10745e-22)
(0.922406 0.199462 -3.60595e-21)
(1.03537 0.138116 -3.30395e-22)
(1.05614 0.0880547 -3.05872e-24)
(1.05973 0.0591866 2.94151e-24)
(1.0578 0.0372037 0)
(1.05491 0.0233897 0)
(1.05237 0.0142574 0)
(1.05115 0.00825119 0)
(1.05071 0.00430331 0)
(1.0489 0.00201926 0)
(1.04599 0.000737336 0)
(1.04333 3.87032e-05 0)
(1.04129 -0.000270301 0)
(1.03985 -0.000268634 0)
(1.03893 -0.000108103 0)
(1.02958 0.00148257 0)
(1.02936 0.00431672 0)
(1.02917 0.00730975 0)
(1.02896 0.0106246 0)
(1.0286 0.0144961 0)
(1.02812 0.0191324 0)
(1.02832 0.0251199 0)
(1.02943 0.0333226 0)
(1.0294 0.0443882 0)
(1.02697 0.0587581 0)
(1.0218 0.0774467 2.13768e-23)
(1.01312 0.101916 0)
(1.00119 0.132401 0)
(0.98549 0.175279 5.71067e-22)
(0.966898 0.231923 -1.44947e-21)
(0.974568 0.294091 3.76919e-21)
(0.944027 0.358369 2.8887e-22)
(0.909836 0.418984 -7.0044e-22)
(0.885874 0.499225 -2.05911e-21)
(0.851139 0.580778 -4.22208e-21)
(0.805722 0.636591 -1.86412e-21)
(0.78084 0.640769 -1.27404e-21)
(0.77599 0.603504 1.15174e-24)
(0.76137 0.51426 -7.89135e-23)
(0.773392 0.364484 -2.45084e-24)
(1.08839 0.235348 -3.07611e-21)
(1.1294 0.134824 1.89799e-22)
(1.12049 0.089033 0)
(1.1008 0.0566343 0)
(1.08485 0.0344836 4.067e-23)
(1.07266 0.0204022 0)
(1.06402 0.0109388 0)
(1.05866 0.00472205 0)
(1.05515 0.000997513 0)
(1.05123 -0.00072101 0)
(1.04712 -0.00140365 0)
(1.04374 -0.00152382 0)
(1.04124 -0.00127114 -3.18728e-24)
(1.03953 -0.00079438 -2.28659e-24)
(1.03853 -0.000228788 0)
(1.02591 0.00101362 0)
(1.02572 0.00297661 0)
(1.02539 0.00497973 0)
(1.02478 0.0071164 0)
(1.02366 0.00954576 0)
(1.0219 0.0123985 0)
(1.01976 0.0161626 0)
(1.01734 0.0218656 0)
(1.01315 0.0300765 0)
(1.00594 0.0409614 0)
(0.994742 0.055271 -8.17154e-23)
(0.978255 0.0744512 0)
(0.955738 0.0988721 0)
(0.926592 0.132833 -6.03265e-22)
(0.893133 0.176957 -7.82033e-22)
(0.860511 0.242229 8.69894e-22)
(0.818844 0.328231 0)
(0.754967 0.423436 -2.45934e-22)
(0.705907 0.5206 1.71777e-21)
(0.696504 0.604879 9.61032e-21)
(0.729631 0.631358 -8.13516e-22)
(0.803798 0.623429 5.96303e-21)
(0.895091 0.547891 -5.68228e-22)
(0.998012 0.431111 0)
(1.12131 0.26974 -1.06873e-21)
(1.23661 0.137058 -9.36689e-21)
(1.22127 0.0736395 9.2719e-22)
(1.17493 0.0485941 0)
(1.13512 0.0272664 0)
(1.10768 0.014499 7.96775e-22)
(1.08785 0.00573776 0)
(1.07408 -0.00013928 0)
(1.06483 -0.00374777 0)
(1.05816 -0.00529221 0)
(1.0522 -0.00525511 0)
(1.04705 -0.00463038 5.76623e-24)
(1.04311 -0.00373663 -7.49313e-24)
(1.04029 -0.00270123 0)
(1.03848 -0.00159366 0)
(1.03757 -0.000511368 -1.76086e-23)
(1.02402 0.000304695 0)
(1.02384 0.00118895 0)
(1.02347 0.00198258 0)
(1.0227 0.00276994 0)
(1.02129 0.00351659 0)
(1.01892 0.00423907 0)
(1.0153 0.00517268 -2.8353e-24)
(1.01032 0.00711578 0)
(1.00315 0.0105384 0)
(0.992576 0.0154171 0)
(0.97689 0.0220625 0)
(0.953886 0.0314409 0)
(0.921849 0.0447758 0)
(0.883154 0.0662403 5.87244e-22)
(0.817091 0.096923 9.44348e-24)
(0.743729 0.15223 -2.17353e-22)
(0.680151 0.224402 0)
(0.628847 0.283927 0)
(0.615696 0.326522 2.78164e-21)
(0.666649 0.347424 1.77937e-20)
(0.77264 0.324232 8.54392e-20)
(0.903314 0.307517 -1.79575e-20)
(1.04337 0.210771 0)
(1.17424 0.115964 0)
(1.28756 0.0134257 0)
(1.32531 -0.0257943 -3.43928e-23)
(1.25839 -0.0271143 -1.5583e-22)
(1.1933 -0.020387 -2.98282e-23)
(1.14777 -0.0196516 0)
(1.11624 -0.017567 0)
(1.0936 -0.0171695 0)
(1.07758 -0.0164703 0)
(1.06612 -0.0152964 2.5304e-23)
(1.05749 -0.0132803 1.03696e-23)
(1.05053 -0.0107553 5.22408e-25)
(1.04509 -0.00839154 0)
(1.04108 -0.00623668 0)
(1.03826 -0.00430305 0)
(1.03648 -0.00251701 0)
(1.03562 -0.000830315 0)
(1.02386 -0.000132192 0)
(1.02359 -0.000324799 0)
(1.02327 -0.000710645 0)
(1.02268 -0.00129379 0)
(1.02161 -0.0022747 0)
(1.01953 -0.00376563 0)
(1.01574 -0.00581037 0)
(1.01003 -0.00813014 0)
(1.00202 -0.0107024 -4.15775e-24)
(0.990599 -0.0139062 0)
(0.97347 -0.0182786 0)
(0.947408 -0.0241575 0)
(0.90828 -0.0286695 -2.03318e-21)
(0.852169 -0.0306437 -1.37014e-20)
(0.773175 -0.0178257 0)
(0.692148 -0.00915503 0)
(0.644 -0.0205773 0)
(0.620719 -0.0468137 0)
(0.630038 -0.0827081 -3.98515e-21)
(0.705223 -0.118909 -1.29776e-20)
(0.84516 -0.164156 -1.00798e-19)
(0.996243 -0.166971 4.32634e-20)
(1.14327 -0.216484 0)
(1.25679 -0.223242 0)
(1.31436 -0.223223 0)
(1.29819 -0.175565 0)
(1.22462 -0.124168 1.3173e-21)
(1.16967 -0.0886138 -6.72282e-23)
(1.1336 -0.0664057 0)
(1.10671 -0.0505606 -7.25169e-25)
(1.08694 -0.0404316 -6.77403e-24)
(1.07216 -0.0326971 3.39488e-25)
(1.06091 -0.0264505 0)
(1.05225 -0.0208883 0)
(1.04571 -0.0159706 0)
(1.04095 -0.0119026 0)
(1.03753 -0.00851324 0)
(1.03515 -0.00566565 0)
(1.03364 -0.00323702 0)
(1.03288 -0.00095958 0)
(1.02456 -0.000285054 0)
(1.02456 -0.00123712 0)
(1.02462 -0.0025089 0)
(1.02467 -0.00421607 0)
(1.02451 -0.00661403 0)
(1.0236 -0.00995889 0)
(1.02106 -0.0145321 0)
(1.01677 -0.0205515 0)
(1.01099 -0.0287108 0)
(1.00298 -0.0400567 0)
(0.990309 -0.0561297 8.85016e-23)
(0.968251 -0.0788431 -2.59438e-22)
(0.924738 -0.106974 -1.08206e-20)
(0.860815 -0.134933 -5.69265e-21)
(0.794464 -0.156876 0)
(0.746518 -0.205155 0)
(0.727418 -0.276868 0)
(0.711932 -0.344697 0)
(0.717379 -0.412984 1.81048e-20)
(0.770026 -0.461929 -2.32442e-20)
(0.885599 -0.497255 -1.18958e-20)
(1.00749 -0.484164 3.50768e-20)
(1.11857 -0.472423 0)
(1.19105 -0.410733 0)
(1.2143 -0.337743 0)
(1.1853 -0.247984 0)
(1.14289 -0.178198 -3.83247e-22)
(1.11766 -0.130485 1.96508e-22)
(1.09875 -0.0968352 -2.60523e-22)