/*--------------------------------*- C++ -*----------------------------------*\
| =========                 |                                                 |
| \\      /  F ield         | OpenFOAM: The Open Source CFD Toolbox           |
|  \\    /   O peration     | Version:  v2106                                 |
|   \\  /    A nd           | Website:  www.openfoam.com                      |
|    \\/     M anipulation  |                                                 |
\*---------------------------------------------------------------------------*/
FoamFile
{
    version     2.0;
    format      ascii;
    arch        "LSB;label=32;scalar=64";
    class       volScalarField;
    location    "0";
    object      p;
}
// * * * * * * * * * * * * * * * * * * * * * * * * * * * * * * * * * * * * * //

dimensions      [0 2 -2 0 0 0 0];

internalField   nonuniform List<scalar> 
11644
(
-0.128829
-0.127665
-0.125559
-0.122706
-0.118596
-0.113093
-0.106161
-0.0980547
-0.089372
-0.0806345
-0.0723223
-0.065137
-0.0599559
-0.0581018
-0.0590488
-0.0620238
-0.0658046
-0.0686113
-0.0729857
-0.0659295
-0.0531271
-0.0372287
-0.0264038
-0.0111802
0.0043283
0.0169597
0.0240839
0.0273022
0.0270974
0.0235449
0.0178368
0.0107824
0.0033701
-0.00365931
-0.0101678
-0.0159363
-0.0205219
-0.0241037
-0.0267269
-0.0280862
-0.134096
-0.13321
-0.130909
-0.127236
-0.12249
-0.116885
-0.11018
-0.102359
-0.0936022
-0.084603
-0.0757303
-0.0678767
-0.0622389
-0.0570433
-0.0555393
-0.0571085
-0.0585255
-0.0602438
-0.0643925
-0.057435
-0.045445
-0.0278826
-0.0162988
0.000377376
0.0137432
0.022818
0.0288098
0.0297499
0.026359
0.0209278
0.0142902
0.0070189
-0.00040794
-0.00772813
-0.0144933
-0.0203676
-0.0254253
-0.0294817
-0.032183
-0.0332944
-0.134523
-0.134698
-0.133761
-0.1313
-0.127608
-0.122905
-0.11742
-0.111154
-0.10407
-0.0960587
-0.0876267
-0.0789803
-0.0698882
-0.0630959
-0.0575834
-0.0550757
-0.0553965
-0.0563244
-0.052055
-0.0486194
-0.0431251
-0.0292029
-0.0156533
-0.000173353
0.014659
0.023796
0.0259696
0.0250609
0.020855
0.0141402
0.00653856
-0.00112028
-0.00859158
-0.0154958
-0.02167
-0.0268484
-0.0311177
-0.0341377
-0.0356629
-0.0359057
-0.133474
-0.133518
-0.133445
-0.132996
-0.131828
-0.12967
-0.126668
-0.122849
-0.118083
-0.112254
-0.104588
-0.0938084
-0.0825415
-0.0669562
-0.0535862
-0.0469588
-0.0435904
-0.0391956
-0.0357997
-0.034333
-0.0330035
-0.0295522
-0.0164133
-0.0049439
0.00634706
0.0135256
0.016666
0.0131399
0.00768907
0.00112907
-0.00638435
-0.0138143
-0.0204074
-0.0260604
-0.0306312
-0.0341861
-0.0366008
-0.0379888
-0.0385082
-0.0385482
-0.13186
-0.132099
-0.13247
-0.133173
-0.134188
-0.134933
-0.135067
-0.134365
-0.132482
-0.128707
-0.121542
-0.110857
-0.0943771
-0.0787202
-0.0603378
-0.0462017
-0.0429608
-0.021436
-0.00344482
-0.00895577
-0.00496317
-0.0178671
-0.0179519
-0.0207216
-0.0120594
-0.010096
-0.0114953
-0.0117621
-0.0158469
-0.0204253
-0.0249583
-0.0303247
-0.0349909
-0.0383785
-0.0405917
-0.0418416
-0.0421914
-0.0421141
-0.0421003
-0.0421767
-0.128593
-0.128991
-0.12973
-0.131395
-0.133616
-0.136285
-0.139118
-0.14162
-0.142705
-0.141571
-0.13751
-0.128449
-0.116895
-0.0888985
-0.0550084
-0.0272721
-0.0138929
0.0237102
0.0430997
0.0394968
0.0252149
0.00744075
-0.00966939
-0.040069
-0.0519196
-0.0495401
-0.0479054
-0.0517227
-0.0481545
-0.0474838
-0.0479785
-0.048746
-0.049578
-0.0499508
-0.0494355
-0.0481744
-0.0468076
-0.0455526
-0.0449838
-0.0447424
-0.121838
-0.122056
-0.123258
-0.125121
-0.127665
-0.131191
-0.135533
-0.140442
-0.144634
-0.146223
-0.142596
-0.13335
-0.115163
-0.108385
-0.0804323
-0.0193635
0.0409164
0.0278004
0.0290226
0.028815
0.0104099
-0.0177307
-0.048379
-0.0772009
-0.129683
-0.136658
-0.125651
-0.10319
-0.0865449
-0.0761572
-0.0696052
-0.0652897
-0.061215
-0.0578619
-0.054503
-0.0511199
-0.0481768
-0.0459637
-0.0443633
-0.0436356
-0.109614
-0.110572
-0.112037
-0.113388
-0.115675
-0.11849
-0.122512
-0.127388
-0.132189
-0.133062
-0.124753
-0.109851
-0.101562
-0.0828608
-0.0448207
-0.0337076
0.02389
0.0516232
0.0497944
0.0300101
-0.015689
-0.0724828
-0.116115
-0.128619
-0.152735
-0.194125
-0.161133
-0.152408
-0.11812
-0.0983503
-0.0829246
-0.0732302
-0.0654559
-0.058841
-0.0534764
-0.0488391
-0.0447031
-0.0416791
-0.0393099
-0.0382256
-0.0949502
-0.095689
-0.0956766
-0.0966021
-0.0973918
-0.0981386
-0.0995501
-0.100833
-0.100274
-0.0932735
-0.0782384
-0.0548938
-0.0251244
-0.000765047
0.0300103
0.0757109
0.069831
0.116212
0.12545
0.0883232
0.0104132
-0.0833739
-0.156691
-0.194131
-0.224396
-0.181934
-0.166982
-0.156399
-0.127276
-0.106019
-0.0840709
-0.0686128
-0.0587755
-0.050591
-0.0447985
-0.0401641
-0.0363133
-0.0325802
-0.0304397
-0.028665
-0.0817942
-0.0808338
-0.0797277
-0.0778653
-0.0748443
-0.0719583
-0.0678247
-0.0614081
-0.0512771
-0.0338392
-0.00855901
0.0199302
0.0397218
0.0569823
0.0904698
0.15882
0.196559
0.236518
0.240416
0.174604
0.00713851
-0.159921
-0.244696
-0.251913
-0.232205
-0.210795
-0.177283
-0.123397
-0.102037
-0.0841529
-0.066901
-0.0529559
-0.0431961
-0.0351866
-0.0302783
-0.0263088
-0.0231557
-0.0202117
-0.0176533
-0.016324
-0.0677642
-0.0671459
-0.0656832
-0.0608719
-0.0544566
-0.0460044
-0.0351115
-0.0200186
0.000127306
0.0236291
0.0486482
0.081552
0.0950166
0.109729
0.167815
0.168282
0.234392
0.337738
0.455294
0.462484
0.0293095
-0.410444
-0.427805
-0.329197
-0.25222
-0.176403
-0.11707
-0.0835838
-0.0554082
-0.046545
-0.0391829
-0.0303128
-0.0229088
-0.0170944
-0.0134857
-0.0103175
-0.00671907
-0.00491869
-0.00275626
-0.00187501
-0.0600499
-0.0597111
-0.0543428
-0.0481632
-0.0388184
-0.0257716
-0.0103979
0.00879014
0.0317459
0.05741
0.0791752
0.111686
0.139541
0.147631
0.178368
0.191371
0.228827
0.307546
0.543188
-0.51509
-0.258917
-0.125439
-0.045612
-0.0204452
-0.0022712
-0.00858679
-0.0158776
-0.0150567
-0.0110538
-0.0070641
-0.00246131
0.00160302
0.00464974
0.00771892
0.00966466
0.00970513
0.0124197
-0.0678945
-0.0616415
-0.0554231
-0.0467444
-0.0352708
-0.0215713
-0.0060758
0.0102568
0.0273401
0.0465981
0.0569675
0.0689402
0.0728533
0.0450334
0.0249872
0.0249332
0.028055
0.0197433
0.00727455
0.0661255
-0.00190248
-0.0142063
-0.00229585
0.00774614
0.013444
-0.00710067
-0.0165198
-0.0131812
-0.00849177
-0.00363116
0.00296138
0.0103655
0.0160938
0.0195144
0.0215879
0.0210163
0.0181744
-0.0854007
-0.0753974
-0.0704965
-0.0606746
-0.0504863
-0.0385312
-0.0282468
-0.022732
-0.0169786
-0.00994552
-0.022193
-0.0360967
-0.0586043
-0.0956888
-0.127171
-0.182778
-0.202345
-0.287359
-0.284875
0.26134
0.145802
0.0671905
0.00133131
-0.0262663
-0.0557191
-0.065058
-0.0603065
-0.035257
-0.0227281
-0.0112725
0.000567885
0.0116308
0.0208519
0.0268268
0.028875
0.0291367
0.017727
-0.0851626
-0.0920306
-0.0907798
-0.0804164
-0.0751246
-0.0720582
-0.0746076
-0.0762342
-0.0727932
-0.068607
-0.132231
-0.135507
-0.139512
-0.156245
-0.270398
-0.29527
-0.412068
-0.576583
-0.673914
-0.421289
0.0594011
-0.0525809
0.399979
0.199254
0.0688953
-0.0725205
-0.113014
-0.147983
-0.13188
-0.101219
-0.0756403
-0.0575986
-0.01965
-0.00125559
0.0131838
0.0232684
0.0297508
0.0302942
0.0298942
0.0328105
-0.0948581
-0.102344
-0.100163
-0.10029
-0.108019
-0.113786
-0.120923
-0.126861
-0.135531
-0.149597
-0.199313
-0.236364
-0.21772
-0.206703
-0.340843
-0.40099
-0.491524
-0.567337
-0.445158
-0.342818
0.0447015
-0.326157
-0.0267521
0.124821
-0.081828
-0.0705436
-0.135255
-0.172884
-0.144909
-0.116341
-0.0920345
-0.0608804
-0.0288797
0.00524444
0.0279211
0.0416916
0.0457857
0.0508978
0.0565632
0.0588917
-0.10818
-0.115287
-0.123389
-0.125119
-0.132148
-0.14497
-0.15725
-0.174004
-0.192302
-0.217091
-0.226375
-0.292474
-0.321522
-0.355582
-0.252435
-0.371975
-0.482969
-0.365698
-0.25382
0.470287
0.327291
-0.500955
0.400485
-0.174764
-0.217788
-0.172328
-0.0845182
-0.0794233
-0.0720247
-0.0909559
-0.0603541
-0.0383284
-0.00968407
0.0255763
0.048721
0.0613808
0.0760933
0.0926274
0.0978819
0.100862
-0.122405
-0.11897
-0.123437
-0.135136
-0.150597
-0.165712
-0.179936
-0.198617
-0.221951
-0.240102
-0.250824
-0.267557
-0.343674
-0.321481
-0.271807
-0.118634
0.122663
0.223793
0.345666
0.515472
0.858929
0.710956
0.882883
-0.314423
-0.117286
-0.123825
-0.0262554
0.0978021
-0.00112822
-0.0203624
-0.0133147
0.00647993
0.0359918
0.0558151
0.0693316
0.082066
0.0934473
0.100436
0.106101
0.111764
-0.127321
-0.125365
-0.13164
-0.145221
-0.158183
-0.170722
-0.192113
-0.212132
-0.238009
-0.265648
-0.322229
-0.253742
-0.377086
-0.165709
-0.170062
-0.0860005
0.208051
1.01828
1.16769
0.739133
1.01169
1.22224
-0.0285869
-0.334887
-0.0779368
-0.0028084
0.0749591
0.194417
0.0246279
0.0565071
0.0497198
0.0814796
0.0802574
0.0883741
0.085746
0.0965278
0.103595
0.104689
0.104169
0.105923
-0.134005
-0.136732
-0.147864
-0.160362
-0.171791
-0.183753
-0.199947
-0.220564
-0.246986
-0.274981
-0.308962
-0.285194
-0.373374
-0.221918
-0.179161
-0.131611
0.215054
-0.148103
1.45993
1.6738
1.34933
0.948105
0.25661
0.907206
0.177132
0.0567576
0.300029
0.339308
-0.07231
0.115927
0.115128
0.113825
0.108358
0.114225
0.112519
0.113607
0.112762
0.109106
0.108119
0.108083
-0.146461
-0.150537
-0.156399
-0.16163
-0.172833
-0.184273
-0.198691
-0.208022
-0.223707
-0.233938
-0.240419
-0.305093
-0.318318
-0.177687
-0.110513
-0.121563
0.257994
0.597443
0.136053
0.604409
0.945143
0.991052
0.699267
0.313989
0.385905
0.287482
0.304604
0.272606
0.1436
0.124313
0.135611
0.138754
0.13703
0.137439
0.133201
0.12682
0.123712
0.123726
0.122745
0.118796
-0.140664
-0.142607
-0.148352
-0.155778
-0.162392
-0.169415
-0.17713
-0.185156
-0.194706
-0.199326
-0.200777
-0.261716
-0.23438
-0.23054
-0.125631
-0.00561719
0.446443
-0.492285
0.250296
0.747857
0.000482994
-1.10651
-0.116732
0.663923
0.226807
0.387818
0.566006
0.341681
0.260282
0.235338
0.210804
0.193297
0.173235
0.167735
0.160526
0.150619
0.14203
0.133818
0.127914
0.129644
-0.12872
-0.132888
-0.136132
-0.139731
-0.14465
-0.143371
-0.151353
-0.160159
-0.168898
-0.181082
-0.21149
-0.167932
-0.193413
-0.196192
0.120044
0.919935
1.01833
0.384867
-1.47689
-1.4622
0.498807
-0.6039
2.46776
0.712188
0.277444
0.410826
0.403002
0.381742
0.289445
0.342625
0.275848
0.238388
0.210186
0.193674
0.188147
0.169283
0.156589
0.148758
0.143551
0.139716
-0.115404
-0.119242
-0.121612
-0.124303
-0.127698
-0.129804
-0.133149
-0.143427
-0.11235
-0.117912
-0.096379
-0.0754965
-0.0906863
0.220186
0.362384
1.25036
1.86484
1.49782
0.682358
0.353749
-1.0388
-0.85871
-0.758936
-0.541581
-0.0932393
0.645561
0.27684
0.355965
0.357433
0.306381
0.283084
0.244911
0.249369
0.221578
0.205298
0.187017
0.175001
0.166243
0.16055
0.154071
-0.0943206
-0.097253
-0.0992479
-0.102727
-0.106224
-0.109968
-0.109429
-0.113385
-0.0988304
-0.101499
-0.13194
-0.0819845
0.0521824
0.306926
0.693626
0.656354
1.04788
0.94132
2.03762
2.393
-3.57955
-2.10946
-0.141991
0.352602
0.276392
0.191165
0.232155
0.345552
0.41438
0.383814
0.319752
0.275799
0.258473
0.232719
0.212706
0.194326
0.180461
0.168685
0.162542
0.155653
-0.0746024
-0.0787313
-0.0790409
-0.0811041
-0.085203
-0.0860167
-0.0897846
-0.0951407
-0.100413
-0.113881
-0.144466
-0.0796505
-0.0482759
-0.0822863
0.0839686
0.458197
0.864676
0.534304
0.493405
0.0726822
-1.94908
-1.87944
-0.589662
-0.196168
0.229016
0.668471
0.524577
0.477377
0.439514
0.372195
0.332138
0.296302
0.262278
0.235574
0.208378
0.188899
0.174638
0.165098
0.158258
0.155377
-0.0574097
-0.0579836
-0.0609096
-0.0632114
-0.0654022
-0.0687091
-0.0738378
-0.0777901
-0.0874676
-0.0925924
-0.121238
-0.116809
-0.10576
-0.0516472
-0.0388242
-0.423333
-0.246197
-0.716217
-0.0912381
-0.530766
-1.33748
-1.35829
1.17492
0.81697
0.414998
0.0952961
0.188623
0.423771
0.436561
0.379441
0.320457
0.292137
0.257829
0.23064
0.207952
0.188048
0.174451
0.16601
0.160533
0.15688
-0.0296371
-0.0337248
-0.034792
-0.0369342
-0.0394352
-0.0417631
-0.0448246
-0.0480667
-0.0484068
-0.0447995
-0.0591916
-0.0673819
-0.0680062
-0.268951
-0.0528666
0.0610853
-0.13404
-0.465827
-0.76995
-1.29777
0.771357
0.295241
0.210949
0.083871
-0.0553359
0.285527
0.50547
0.326776
0.386736
0.321794
0.292558
0.266503
0.240279
0.218208
0.199165
0.182794
0.170888
0.162288
0.157058
0.151596
-0.00495139
-0.00707993
-0.00683341
-0.00761776
-0.0100455
-0.0110537
-0.0137496
-0.0154344
-0.00943287
-0.00133901
-0.00620717
-0.00898787
0.00613724
-0.0165205
-0.149864
-0.350798
-0.224775
-0.514813
-1.06107
-1.60986
1.78323
0.894307
0.486858
0.500117
0.431007
0.335287
0.172998
0.214682
0.263372
0.289552
0.26544
0.241012
0.214192
0.194418
0.181014
0.166873
0.156301
0.148058
0.142746
0.140848
0.0186029
0.018713
0.0173355
0.0156949
0.0149783
0.0147109
0.0130359
0.0154704
0.0188313
0.00783014
-0.00995807
0.0229921
-0.0118179
-0.139772
-0.0594316
-0.0781081
0.00705966
0.110429
-0.458706
-0.597499
0.341921
0.400163
0.113991
0.300251
0.108745
0.142088
0.267245
0.222447
0.232341
0.17394
0.180143
0.1792
0.177063
0.153283
0.147525
0.141197
0.134693
0.128696
0.125584
0.124993
0.0424672
0.0336321
0.0355737
0.0366203
0.0393075
0.03864
0.0372098
0.0351742
0.0397982
0.0373482
0.042473
0.0493305
0.0671375
0.152248
0.213421
0.256378
0.324053
0.328736
0.256182
0.41396
-0.389059
-0.216162
-0.15053
-0.0531869
-0.0688256
-0.0928618
-0.0598036
0.0501762
0.114412
0.0946187
0.118052
0.121371
0.123323
0.123
0.118892
0.11569
0.112649
0.111338
0.111458
0.10128
0.061955
0.0626561
0.063362
0.0637018
0.0655634
0.0678672
0.0704829
0.0521727
0.0572965
0.0618979
0.054263
0.146871
0.209594
0.146215
0.188986
0.230423
0.607845
0.904056
0.985238
2.07139
-2.20375
-1.00356
-1.00151
-0.65039
-0.307296
-0.178923
-0.0804412
-0.0807268
0.00233112
0.0584865
0.0643983
0.0682603
0.0715501
0.091466
0.0870562
0.0857696
0.0834217
0.0825726
0.0816697
0.0833037
0.0919931
0.0923802
0.094603
0.0971869
0.0994127
0.0994965
0.097979
0.0931023
0.0929778
0.0813306
0.10192
0.13512
0.204558
0.392234
0.492421
0.447621
0.313531
0.260321
0.04416
0.175411
-0.714511
-0.71032
-0.542053
-0.499477
-0.423695
-0.400089
-0.326617
-0.144522
-0.0608409
-0.0194508
-0.0140558
0.0112459
0.0228135
0.0365684
0.0426059
0.0485158
0.0525605
0.0560776
0.0598539
0.0607821
0.121281
0.124076
0.126801
0.129415
0.134441
0.133902
0.139692
0.133329
0.128587
0.102261
0.17589
0.214977
0.22322
0.306806
0.432144
0.615992
0.640157
0.405573
0.330995
0.163813
-0.331653
-0.317798
-0.26836
-0.422408
-0.373193
-0.33769
-0.267355
-0.17967
-0.164468
-0.0978077
-0.0488557
-0.0260491
-0.0231932
-0.00570689
0.00632438
0.0204161
0.0279118
0.0328037
0.0372304
0.0390034
0.144432
0.143714
0.148242
0.152459
0.160197
0.168124
0.179917
0.191309
0.193543
0.204831
0.270952
0.299803
0.395457
0.502466
0.652629
0.66981
0.34908
0.268685
-0.234268
-0.610413
0.530496
0.216046
0.18948
0.0310985
-0.264965
-0.363901
-0.235481
-0.229866
-0.185559
-0.124706
-0.11444
-0.0834057
-0.0566383
-0.0414684
-0.0196781
-0.00195409
0.00996786
0.0182827
0.0233249
0.0267065
0.157529
0.158219
0.162092
0.168764
0.179259
0.188591
0.210398
0.234153
0.256827
0.296322
0.357193
0.437616
0.502994
0.609569
0.7015
0.853426
0.724016
0.691918
0.0262574
-0.0898225
-0.609445
-0.460945
0.0493396
-0.232141
-0.436918
-0.409508
-0.296132
-0.240509
-0.213954
-0.188997
-0.154585
-0.129193
-0.0939482
-0.0650108
-0.0401955
-0.0179426
-0.0024031
0.0086491
0.0159527
0.0201624
0.175919
0.177451
0.178745
0.184152
0.193889
0.208815
0.230286
0.258854
0.301187
0.369176
0.427697
0.496573
0.587921
0.718903
0.888077
0.939629
0.887388
0.802959
0.478715
0.127816
-0.397549
-0.644937
-0.49032
-0.250026
-0.395731
-0.310544
-0.263656
-0.251617
-0.244703
-0.258429
-0.216783
-0.147479
-0.111069
-0.0757472
-0.0479474
-0.0208565
-0.00803338
0.00161681
0.00681574
0.0102947
0.19022
0.190329
0.195308
0.201577
0.209714
0.23053
0.253525
0.285433
0.320547
0.398845
0.430105
0.568531
0.662354
0.765452
0.875095
1.00405
1.0926
1.07792
0.925648
1.06913
-1.5019
-1.04796
-0.533061
-0.336727
-0.447464
-0.423412
-0.350273
-0.341619
-0.283569
-0.164069
-0.200449
-0.13651
-0.0985715
-0.0705738
-0.0411614
-0.0158518
-0.00799051
-0.0024255
0.00165592
0.00821254
0.200672
0.19861
0.20273
0.209843
0.220279
0.235636
0.257278
0.286044
0.329163
0.38754
0.442539
0.517866
0.631616
0.776317
0.852363
0.959409
0.940975
0.893078
0.60592
1.30632
-2.39156
-0.904516
-0.386975
-0.42922
-0.273162
-0.380931
-0.281349
-0.142734
-0.0861983
-0.0911201
-0.0865057
-0.086628
-0.0633379
-0.0409979
-0.0206353
-0.00616524
0.00384393
0.0109252
0.0162241
0.0139502
0.19763
0.198749
0.202265
0.208478
0.218994
0.232034
0.250666
0.28204
0.311044
0.356401
0.415512
0.516404
0.641718
0.710504
0.811093
0.899425
0.94701
0.694465
0.356534
0.190572
-0.424057
-0.232197
-0.0887361
-0.107979
0.0678459
0.112911
-0.0185281
-0.0810882
-0.141232
-0.0106481
0.0111494
-0.0111292
-0.0131428
-0.00299584
0.00920879
0.015449
0.0251042
0.0305931
0.0335659
0.0310114
0.188961
0.19071
0.194219
0.200294
0.210215
0.223266
0.237578
0.26599
0.298725
0.330779
0.396748
0.442952
0.544057
0.661953
0.785157
0.85157
0.817936
0.657483
0.395565
0.21462
0.536132
0.445813
0.235725
0.232558
0.187947
0.15101
0.0839485
0.0982803
0.095483
0.072213
0.0413835
0.0295618
0.0250052
0.0287184
0.032032
0.0360692
0.040221
0.0428855
0.0439871
0.0437053
0.182575
0.18442
0.187752
0.189996
0.19731
0.206675
0.21777
0.237785
0.265354
0.309725
0.360302
0.387441
0.387942
0.362632
0.436166
0.448335
0.466831
0.355192
0.0179686
-0.224085
0.851357
0.602385
0.26666
0.239334
0.17328
0.214173
0.217627
0.196225
0.139602
0.123632
0.0951374
0.0697946
0.0627496
0.0630668
0.0574129
0.0553292
0.0502886
0.0531305
0.0533987
0.0556374
0.177936
0.178511
0.177759
0.177528
0.179698
0.182052
0.188291
0.198627
0.242012
0.268478
0.243167
0.211035
0.208137
0.1492
0.0785268
-0.0105404
-0.112753
-0.148585
-0.178295
-0.303668
-0.0664094
0.0585815
0.0707842
0.21099
0.188735
0.219956
0.233169
0.246558
0.226309
0.190257
0.137266
0.109313
0.104392
0.0934964
0.0784271
0.0729246
0.069378
0.0670575
0.0674896
0.0705488
0.163583
0.157764
0.15883
0.160159
0.160575
0.16267
0.163509
0.160576
0.174609
0.201321
0.158463
0.134657
0.0712256
-0.0714318
-0.230081
-0.406307
-0.52332
-0.58467
-0.578884
-0.539178
-0.530834
-0.368345
-0.0252496
0.0986098
0.21255
0.25652
0.294949
0.275449
0.23121
0.223706
0.156164
0.141493
0.129387
0.123245
0.106129
0.0961403
0.0913928
0.087538
0.0869445
0.0845681
0.149819
0.1459
0.14439
0.142392
0.141588
0.140462
0.138349
0.127836
0.128689
0.108542
0.0527467
-0.0123764
-0.150253
-0.29642
-0.495159
-0.63307
-0.651794
-0.682291
-0.306341
0.0679901
-1.49201
-0.88528
-0.369838
-0.183294
0.0547006
0.146253
0.220691
0.306334
0.327116
0.27932
0.20811
0.214331
0.167103
0.144586
0.128363
0.114067
0.108872
0.100781
0.0975801
0.0938221
0.142039
0.141517
0.140814
0.138502
0.135133
0.129729
0.121206
0.111978
0.0837826
0.0343969
-0.0405972
-0.131802
-0.276957
-0.464485
-0.725829
-0.808189
-0.987428
-0.949629
-0.828629
-0.818534
-0.562695
-0.361766
-0.126476
0.0416404
0.229128
0.334897
0.37864
0.385153
0.334
0.30684
0.264477
0.217843
0.179815
0.145865
0.132168
0.120129
0.112832
0.108979
0.106702
0.102725
0.129843
0.132333
0.133842
0.128745
0.124012
0.116864
0.103866
0.0821955
0.0321145
-0.0427701
-0.152122
-0.286673
-0.478843
-0.618147
-0.772729
-0.854997
-1.00355
-0.994964
-0.885636
-0.653289
-0.22058
0.0719209
0.433875
0.526719
0.59702
0.574316
0.533463
0.479191
0.371787
0.298323
0.277222
0.220276
0.181615
0.153809
0.135754
0.123537
0.11235
0.107568
0.10442
0.105599
0.107562
0.110802
0.109644
0.105734
0.0988526
0.0867064
0.0732088
0.0321739
-0.010766
-0.0829707
-0.247156
-0.417666
-0.635303
-0.895493
-1.1069
-1.25862
-1.44618
-1.35234
-1.29221
-1.01228
0.369186
0.668706
0.765175
0.857464
0.858019
0.795696
0.641882
0.500182
0.372914
0.299812
0.242212
0.200196
0.182177
0.15249
0.133793
0.120901
0.114542
0.107602
0.104397
0.103818
0.0903289
0.0909283
0.0856939
0.0789293
0.0689951
0.0538491
0.0333361
-0.0134264
-0.0682223
-0.17182
-0.321533
-0.548886
-0.774862
-1.03991
-1.3057
-1.45898
-1.5897
-1.50963
-1.28014
-0.727094
-0.667951
-0.0524071
0.511667
0.524849
0.724568
0.590777
0.471789
0.402041
0.328236
0.262107
0.212784
0.188317
0.144544
0.133789
0.124685
0.117907
0.113518
0.109746
0.107694
0.105106
0.0901625
0.0830053
0.0769243
0.0656722
0.0517924
0.0310192
0.00384973
-0.0482193
-0.122597
-0.248139
-0.380181
-0.608686
-0.860881
-1.12413
-1.55074
-1.73408
-1.77817
-1.67982
-1.32954
-0.967788
-0.730281
-0.384796
0.0565987
0.287183
0.46481
0.485021
0.43766
0.365734
0.282665
0.224886
0.157065
0.144734
0.127792
0.124355
0.115604
0.11224
0.10884
0.1071
0.105991
0.103675
0.093483
0.0868678
0.0828085
0.0723586
0.0572143
0.0312993
-0.00610255
-0.060288
-0.142095
-0.262799
-0.437953
-0.670465
-0.938686
-1.26083
-1.57187
-1.82997
-1.72947
-1.71055
-1.34246
-0.929902
-0.726126
-0.382449
-0.0422696
0.182798
0.383333
0.355271
0.334804
0.264168
0.218684
0.168454
0.126716
0.133399
0.117207
0.113198
0.107858
0.10333
0.0983318
0.0934904
0.0912801
0.0917975
0.0927141
0.093339
0.0895766
0.0810743
0.0650182
0.0389765
0.00280251
-0.0497991
-0.142654
-0.237933
-0.412819
-0.608813
-0.901672
-1.25753
-1.50432
-1.75608
-1.72038
-1.60631
-1.22609
-0.792011
-0.490422
-0.0842838
0.202904
0.356517
0.568493
0.405751
0.287596
0.165755
0.179357
0.174036
0.141962
0.125611
0.11884
0.104922
0.0988199
0.0958925
0.0935259
0.0908831
0.0919208
0.088626
0.0947629
0.100862
0.0954751
0.0873599
0.072196
0.0498607
0.0194323
-0.0184865
-0.0818299
-0.175685
-0.282092
-0.436272
-0.608165
-0.791012
-0.894231
-1.01756
-1.01676
-0.965011
-0.715501
-0.37963
-0.00149299
0.337861
0.452552
0.415224
0.389006
0.325352
0.259779
0.184653
0.143924
0.0851255
0.0980047
0.0980554
0.102537
0.100408
0.0991802
0.101361
0.0969564
0.0958821
0.0936998
0.0893526
0.106057
0.105535
0.102835
0.0994632
0.0916398
0.0795802
0.0625326
0.0357409
0.00557319
-0.0667628
-0.132104
-0.192317
-0.229443
-0.272875
-0.29879
-0.348576
-0.270146
-0.225571
0.00679411
0.304314
0.292112
0.306501
0.293737
0.234154
0.200115
0.191153
0.127692
0.0815259
0.0350118
0.0471304
0.0705048
0.0709691
0.0763082
0.0826927
0.0837971
0.0886851
0.0893573
0.0892073
0.0867579
0.080875
0.124245
0.122349
0.122865
0.121415
0.118775
0.115938
0.107192
0.099427
0.0867417
0.076227
0.0315067
-0.0049842
-0.0197562
-0.0497023
-0.0376802
-0.109404
-0.143609
-0.163826
-0.0776048
0.103356
0.311043
0.345467
0.0944209
-0.114244
-0.108354
-0.107209
-0.0871326
-0.0571835
-0.0326578
-0.0257942
-0.0104592
0.0209533
0.047671
0.0571813
0.0619889
0.0684872
0.0705657
0.06948
0.0691506
0.0709051
0.146086
0.147203
0.147857
0.148258
0.147917
0.147999
0.148427
0.152105
0.15802
0.157205
0.160864
0.160184
0.141002
0.0653563
0.0394672
-0.0466111
-0.160236
-0.202585
-0.160599
-0.268607
-0.328951
-0.418573
-0.464482
-0.419274
-0.333986
-0.284876
-0.225347
-0.177924
-0.125269
-0.0693861
-0.0391072
-0.00491356
0.0224014
0.0375792
0.0492776
0.050183
0.0531394
0.0553427
0.0575043
0.0610975
0.163595
0.164846
0.166354
0.169803
0.175818
0.184781
0.19279
0.208206
0.242257
0.278214
0.305199
0.347955
0.367557
0.340621
0.27025
0.143548
-0.0108244
-0.214746
-0.419769
-0.549572
-0.707548
-0.936868
-0.959105
-0.731543
-0.633477
-0.496731
-0.372772
-0.26636
-0.173001
-0.110326
-0.0730603
-0.0228357
0.0231597
0.0322537
0.0444072
0.0499353
0.0530159
0.0565516
0.0585354
0.0556928
0.175274
0.171081
0.176409
0.185409
0.198983
0.217434
0.238155
0.267099
0.30673
0.342545
0.403657
0.535576
0.592239
0.627114
0.610477
0.595882
0.460861
0.450881
0.0747201
-0.451971
-0.85396
-1.61501
-1.5307
-0.981874
-0.924618
-0.753554
-0.556137
-0.382626
-0.217537
-0.130118
-0.0414907
-0.00757477
0.0284723
0.0430875
0.0509405
0.0579709
0.055871
0.0585201
0.0580988
0.0551404
0.183721
0.188035
0.193611
0.203788
0.219673
0.241946
0.277628
0.310699
0.370895
0.446558
0.538434
0.637587
0.718021
0.813717
0.87578
0.826452
0.758
0.49231
0.0589783
-0.25766
-0.565601
-0.926272
-1.04904
-0.911901
-0.794194
-0.629792
-0.466155
-0.306916
-0.185228
-0.110977
-0.0322507
0.00443988
0.0292164
0.0411193
0.0450501
0.0523317
0.0551189
0.0573375
0.0576359
0.0543342
0.188824
0.195379
0.204487
0.217009
0.236742
0.258999
0.293535
0.341901
0.405394
0.487721
0.587081
0.680364
0.825041
0.951451
1.02887
0.937976
0.816614
0.580923
0.380335
-0.150035
-0.19015
-0.486206
-0.528317
-0.46359
-0.383494
-0.297302
-0.214771
-0.136352
-0.093316
-0.0562098
0.01864
0.039917
0.0329181
0.0391361
0.0434312
0.047318
0.0478057
0.0477624
0.0482803
0.0480412
0.175643
0.180778
0.188788
0.202341
0.220146
0.244691
0.279311
0.328793
0.379768
0.469781
0.564899
0.653651
0.754418
0.833013
0.844598
0.791252
0.612336
0.449223
0.288546
-0.0402995
0.0232056
-0.042419
-0.140335
-0.186737
-0.14202
-0.127575
-0.0644291
-0.0159817
0.00932524
0.0295372
0.0409268
0.0481971
0.0486441
0.0474493
0.0469646
0.0449088
0.0429601
0.0409101
0.0394535
0.0428823
0.157417
0.156237
0.159465
0.168174
0.182852
0.206557
0.23592
0.277388
0.330909
0.401886
0.482612
0.583539
0.692248
0.783614
0.819181
0.818489
0.665701
0.412854
0.200046
-0.106083
-0.219386
-0.351671
-0.381072
-0.383103
-0.368688
-0.305718
-0.218064
-0.123248
-0.031343
0.0361112
0.0409972
0.0589505
0.0487499
0.0488885
0.0475791
0.0454635
0.0444113
0.0436037
0.0416927
0.0410179
0.136848
0.133241
0.134406
0.139798
0.150202
0.176197
0.192963
0.220315
0.265557
0.32067
0.388439
0.461201
0.54597
0.59747
0.601194
0.576923
0.546704
0.160164
0.0429499
-0.192939
-0.368477
-0.580713
-0.641734
-0.555799
-0.443822
-0.327492
-0.207462
-0.103199
-0.0216872
0.0261014
0.0450722
0.057346
0.0552522
0.0503429
0.045192
0.0413663
0.0405826
0.0411077
0.0406655
0.0410686
0.112516
0.113639
0.116956
0.122513
0.128899
0.142072
0.157814
0.156981
0.176136
0.21199
0.25956
0.294766
0.307508
0.309924
0.270403
0.263957
0.123583
0.121638
-0.0232479
-0.309051
-0.292875
-0.391432
-0.357709
-0.347377
-0.317663
-0.223562
-0.129871
-0.0487856
0.00798791
0.0419174
0.0481126
0.0602915
0.0589854
0.0521424
0.0395478
0.0346814
0.0309524
0.0270249
0.0250344
0.026829
0.0852174
0.0919206
0.093725
0.0949461
0.0957453
0.0965613
0.0957093
0.0991235
0.107289
0.105454
0.104625
0.12659
0.103449
0.101425
0.104045
0.13019
0.130963
0.168207
0.20546
-0.0950328
0.077141
-0.246662
-0.0759022
-0.0232148
0.0207536
-0.00675586
0.010719
0.0253689
0.0281504
0.0767197
0.0755645
0.0757626
0.0555471
0.0399443
0.0282672
0.0244828
0.0203575
0.0174738
0.0161096
0.0194201
0.0571908
0.0611208
0.0592987
0.0546841
0.0479261
0.0406505
0.0332866
0.0336445
0.0420304
0.0397968
0.0434325
0.0918746
0.148379
0.230317
0.318523
0.421403
0.441133
0.500318
0.444342
0.383628
0.396495
0.327729
0.251372
0.139058
0.055693
0.0235558
0.0194059
0.0242251
0.0368578
0.0725775
0.0629121
0.0565838
0.0485164
0.0384159
0.0314345
0.0249263
0.019266
0.0134417
0.0112435
0.00883661
0.0259196
0.0211261
0.0180921
0.0143742
0.00891445
0.00124193
-0.00525134
-0.00278831
-0.00877298
0.00291738
0.0286305
0.0888628
0.196976
0.333374
0.454065
0.586306
0.701805
0.799517
0.791156
0.816173
0.710582
0.517262
0.249598
0.0720605
0.0353901
-0.000367553
0.0256011
0.028891
0.0238763
0.0307387
0.032553
0.0299865
0.0200807
0.0187945
0.0174186
0.0107345
0.00579166
-0.000323066
-0.004963
-0.00779647
0.00721241
-2.3533e-05
-0.00372369
-0.00741064
-0.0155555
-0.0222573
-0.0290899
-0.0376291
-0.0448756
-0.0266417
-0.0174243
-0.00454952
0.0451048
0.124567
0.222826
0.339934
0.435093
0.487449
0.521333
0.752086
0.783083
0.715312
0.513702
0.310762
0.175525
0.0813183
0.0314636
0.000814003
-0.00893603
-0.0192911
-0.0130844
-0.0220352
-0.0197133
-0.0182167
-0.0206966
-0.0228945
-0.0262094
-0.0292484
-0.0302378
-0.0281527
-0.00260726
-0.00461579
-0.00888603
-0.015444
-0.0250819
-0.0350993
-0.0483438
-0.063142
-0.0822696
-0.098845
-0.11064
-0.119451
-0.112527
-0.0649756
0.00180428
0.0912048
0.202296
0.34965
0.48444
0.57636
0.615985
0.514825
0.354984
0.24995
0.168438
0.101259
0.0465233
-0.00491422
-0.0289234
-0.049019
-0.0469794
-0.0522082
-0.0583894
-0.0488495
-0.0523267
-0.0537032
-0.055798
-0.0543793
-0.0516692
-0.0487432
-0.0145446
-0.0133598
-0.0176625
-0.0248637
-0.0342821
-0.0443927
-0.0592589
-0.0759972
-0.0887055
-0.102321
-0.112839
-0.108361
-0.0804975
-0.0411602
0.0165708
0.117642
0.145582
0.3064
0.418
0.515513
0.537537
0.445115
0.260416
0.129228
-0.00563726
-0.075592
-0.0706292
-0.0803046
-0.0820775
-0.0837905
-0.0899488
-0.0848166
-0.0828541
-0.0761394
-0.0726744
-0.0697354
-0.0692851
-0.0701387
-0.0695192
-0.0661914
-0.0269574
-0.0280355
-0.0310691
-0.0342119
-0.0394253
-0.0459085
-0.0524725
-0.0678824
-0.08004
-0.0818244
-0.0685345
-0.0422877
0.0268779
0.110922
0.246971
0.399844
0.533267
0.63433
0.618976
0.583525
0.515574
0.268637
0.108667
-0.0419825
-0.103362
-0.203916
-0.22019
-0.215948
-0.188819
-0.160041
-0.136402
-0.115615
-0.105732
-0.10309
-0.0898569
-0.0837392
-0.0790112
-0.0769976
-0.0774083
-0.0815481
-0.0244412
-0.0254432
-0.0282501
-0.0317887
-0.0376997
-0.039863
-0.0413259
-0.0374854
-0.0276682
-0.0164525
-0.00160921
0.0315236
0.103739
0.193199
0.294275
0.417982
0.541024
0.653207
0.691243
0.700416
0.621898
0.594045
0.424081
0.275825
0.158533
-0.0165921
-0.100028
-0.166959
-0.201399
-0.196792
-0.187297
-0.166037
-0.146001
-0.137801
-0.121134
-0.109546
-0.100517
-0.0959297
-0.0945542
-0.102052
-0.0190196
-0.0191019
-0.0190188
-0.0193195
-0.0209983
-0.019695
-0.0192423
-0.0106321
0.00360555
0.0260984
0.0665506
0.117384
0.181161
0.263917
0.340029
0.400343
0.637576
0.686111
0.819838
0.843892
0.826087
0.751228
0.634548
0.53554
0.344622
0.188393
0.0610058
-0.0588786
-0.134339
-0.173074
-0.183792
-0.18177
-0.175047
-0.16472
-0.151181
-0.140831
-0.134279
-0.130041
-0.127519
-0.125296
-0.0167075
-0.0194781
-0.01813
-0.0166559
-0.0149275
-0.0104753
-0.00249792
0.00057532
0.0360381
0.0767091
0.128776
0.20235
0.285565
0.385388
0.445185
0.543445
0.709806
0.840579
0.9364
0.876423
0.842765
0.709338
0.576715
0.418492
0.214615
0.111765
0.0175224
-0.0564581
-0.11365
-0.155447
-0.171804
-0.194068
-0.189224
-0.174934
-0.164813
-0.158262
-0.153425
-0.148782
-0.144354
-0.135128
-0.0173207
-0.0198693
-0.0206097
-0.0197254
-0.0152863
-0.00632765
-0.00129218
0.0185947
0.0550923
0.115815
0.222898
0.325092
0.447219
0.596033
0.725379
0.833009
0.812943
0.81211
0.812126
0.730178
0.659536
0.495544
0.294395
0.0838889
-0.0890629
-0.192766
-0.25136