/*--------------------------------*- C++ -*----------------------------------*\
| =========                 |                                                 |
| \\      /  F ield         | OpenFOAM: The Open Source CFD Toolbox           |
|  \\    /   O peration     | Version:  v2106                                 |
|   \\  /    A nd           | Website:  www.openfoam.com                      |
|    \\/     M anipulation  |                                                 |
\*---------------------------------------------------------------------------*/
FoamFile
{
    version     2.0;
    format      ascii;
    arch        "LSB;label=32;scalar=64";
    class       volVectorField;
    location    "0";
    object      U;
}
// * * * * * * * * * * * * * * * * * * * * * * * * * * * * * * * * * * * * * //

dimensions      [0 1 -1 0 0 0 0];

internalField   nonuniform List<vector> 
11644
(
(0.00031915 -0.000140538 -8.37655e-21)
(0.000295587 -0.000342095 -2.31e-20)
(0.000341922 -0.000522251 -1.23937e-20)
(0.000518335 -0.000686007 0)
(0.000438837 -0.00105912 0)
(0.000217583 -0.00138657 0)
(8.45485e-05 -0.00158155 0)
(0.000200757 -0.00169753 0)
(0.000244921 -0.00167623 0)
(0.000201905 -0.0015125 0)
(-0.000100902 -0.00113515 0)
(0.000147997 -0.000399342 0)
(1.82258e-05 0.000700555 0)
(-0.000925125 0.00163216 0)
(-0.000461254 0.00267233 0)
(0.000474344 0.00362006 0)
(-0.000104608 0.00303737 0)
(-0.00182011 0.00272807 0)
(-0.00150499 0.00273968 0)
(-0.000411009 0.00148534 -5.07237e-30)
(-4.57808e-05 -0.00116083 5.00802e-30)
(-9.20543e-05 -0.00344197 0)
(-0.00111668 -0.0032635 0)
(-0.00121252 -0.00208682 0)
(-0.000731858 -0.00148451 0)
(-8.28357e-05 -0.00127401 0)
(0.00050366 -0.000203078 0)
(0.000185739 0.000891242 0)
(0.000131419 0.00169359 0)
(0.00039783 0.00235081 0)
(0.000238565 0.00276057 0)
(0.000414825 0.00290207 0)
(0.000406395 0.00284609 0)
(0.000462624 0.00260157 0)
(0.000515633 0.00229408 0)
(0.000533548 0.00191915 0)
(0.000496263 0.00154697 0)
(0.000614152 0.00123125 0)
(0.000683671 0.000844758 0)
(0.000587387 0.000330489 -1.62413e-21)
(0.000500659 -0.000193227 -1.07596e-20)
(0.000688233 -0.000387715 -9.96685e-21)
(0.000893162 -0.000612217 -5.35288e-21)
(0.00130351 -0.000771424 0)
(0.00140543 -0.00113157 0)
(0.00161274 -0.00155919 0)
(0.00178056 -0.00216095 0)
(0.00181214 -0.00271683 0)
(0.00194796 -0.0029301 0)
(0.00222747 -0.0026851 0)
(0.00185373 -0.00215514 0)
(0.00117823 -0.000724261 0)
(0.00113397 0.000883846 0)
(0.00180632 0.00363579 0)
(0.00063414 0.00587928 0)
(-0.00118184 0.00672693 -7.4538e-22)
(-0.00275592 0.00881353 8.10553e-21)
(-0.00251044 0.008943 -1.95411e-20)
(-0.00210619 0.00581325 1.63534e-20)
(-0.00125674 0.000896166 1.30936e-19)
(-0.00096566 -0.00356757 -1.66235e-19)
(-0.00136736 -0.00488229 1.76612e-20)
(-0.00218883 -0.00489023 1.97978e-20)
(-0.00347703 -0.00410849 -6.62864e-21)
(-0.00320223 -0.00270252 -9.95919e-23)
(-0.00168678 3.2356e-05 0)
(-0.00166315 0.00281727 0)
(-0.000373353 0.0045939 0)
(0.00109977 0.00616413 0)
(0.00140995 0.00723162 0)
(0.00164971 0.00762028 0)
(0.00173306 0.00765626 0)
(0.00187073 0.007276 0)
(0.00179571 0.00662971 0)
(0.00160041 0.00589706 0)
(0.00171327 0.0049755 0)
(0.00162593 0.00401733 0)
(0.00190049 0.00292047 0)
(0.00190305 0.00178638 0)
(0.00171453 0.000649309 0)
(-0.000267661 0.000110718 0)
(7.02843e-05 -9.17984e-05 0)
(0.000605365 -0.000528882 0)
(0.000950636 -0.00102982 0)
(0.00123695 -0.00118139 -9.82871e-21)
(0.00179495 -0.00128603 0)
(0.00245107 -0.00154615 0)
(0.00322323 -0.00165781 0)
(0.00368784 -0.0017599 0)
(0.00413437 -0.00148277 0)
(0.00513607 -0.000200485 0)
(0.00403768 0.00123829 0)
(0.00268515 0.00406052 5.8488e-22)
(-0.00200903 0.00688407 1.22121e-20)
(-0.00302445 0.0110003 1.81431e-20)
(-0.00325144 0.01511 -2.03562e-19)
(-0.00499314 0.0178505 2.7306e-19)
(-0.00420674 0.0175882 -2.54403e-19)
(-0.00211774 0.0131183 2.23655e-21)
(-0.00161943 0.0079675 -7.63575e-20)
(-0.00183504 0.00506074 2.27348e-19)
(-0.00174992 0.00221918 -8.61557e-20)
(-0.00175137 0.000141026 1.88071e-19)
(-0.0028554 -0.000454844 -4.28578e-20)
(-0.00293846 0.000958326 -4.73948e-20)
(-0.00291082 0.00398324 8.942e-21)
(-0.000677287 0.00685008 -1.91432e-20)
(0.000854657 0.0102098 -6.62694e-22)
(0.000915532 0.0127105 0)
(0.00225983 0.0137678 0)
(0.0034388 0.0136958 0)
(0.0037807 0.0130614 0)
(0.00395411 0.0119333 0)
(0.00380535 0.0105038 0)
(0.00390515 0.00878787 0)
(0.00368406 0.00711322 0)
(0.0035052 0.00545213 0)
(0.00341072 0.00367884 0)
(0.0031296 0.00214927 0)
(0.00277439 0.000494755 0)
(-0.00127232 0.000406223 0)
(-0.000963331 0.000995293 0)
(-0.000407154 0.00111 0)
(0.000123933 0.00119007 0)
(0.000817069 0.00124136 0)
(0.0016253 0.00120489 0)
(0.00267464 0.00118757 0)
(0.00346734 0.00117694 0)
(0.00453791 0.00149294 0)
(0.00523578 0.00211099 0)
(0.0038422 0.00216726 -2.73168e-22)
(0.00309725 0.00438591 -9.32365e-21)
(0.000502315 0.00657957 1.15967e-19)
(0.00246396 0.0126386 -2.67376e-19)
(0.000664697 0.0201358 2.76037e-19)
(-0.00363102 0.0249365 4.00387e-19)
(-0.00348836 0.0286197 -9.39086e-19)
(-0.00134119 0.0288118 7.22565e-19)
(-0.00274523 0.0265767 4.95384e-21)
(-0.00335842 0.0229574 -8.0691e-19)
(-0.00414399 0.0175603 5.6781e-19)
(-0.00445586 0.0127564 1.18066e-19)
(-0.00340746 0.00876563 -6.76967e-19)
(-0.00467269 0.00763871 7.99167e-19)
(-0.00663355 0.00811717 -1.55101e-19)
(-0.00368243 0.0125581 -3.44545e-19)
(-0.000257808 0.0176204 2.95156e-19)
(0.00175411 0.0196288 -1.0434e-19)
(0.00595633 0.019925 3.31717e-21)
(0.00662905 0.0201806 4.49213e-22)
(0.0066073 0.0193758 0)
(0.00715439 0.0172117 0)
(0.0071019 0.014915 0)
(0.00657148 0.0126223 0)
(0.00614182 0.0103326 0)
(0.00540824 0.00836883 0)
(0.00498417 0.00636986 0)
(0.00473127 0.00441223 0)
(0.00461636 0.00219937 0)
(0.00429558 0.000919848 0)
(-0.00246382 0.000178064 0)
(-0.00233667 0.00082161 0)
(-0.00213948 0.00140997 0)
(-0.00165762 0.00229741 0)
(-0.000877635 0.00324946 0)
(0.000153718 0.00397055 0)
(0.00131752 0.00464936 0)
(0.00246908 0.00528867 0)
(0.00329748 0.00555716 0)
(0.00370576 0.00557221 -3.76457e-21)
(0.00563071 0.00599784 4.14743e-20)
(0.00608023 0.00537772 -2.81227e-20)
(0.00844337 0.00964404 1.00512e-19)
(0.00064213 0.0140475 2.17179e-19)
(-0.00408455 0.0241387 -4.44096e-19)
(0.00272978 0.0337877 4.88492e-19)
(-0.000141035 0.0384829 -1.12149e-19)
(-0.00776782 0.0407998 5.22926e-20)
(-0.00972111 0.0394926 -3.58646e-19)
(-0.0100985 0.038378 -9.55539e-20)
(-0.0109918 0.0329216 -2.77038e-19)
(-0.00928376 0.0272223 1.26211e-18)
(-0.00536674 0.0228525 -5.10787e-19)
(-0.00439854 0.0173581 4.00526e-19)
(-0.00297109 0.0175054 -8.08661e-19)
(-0.00398448 0.0219213 4.58368e-19)
(-0.00128836 0.0244584 -2.65076e-19)
(0.00733256 0.0261489 -2.53078e-19)
(0.00988922 0.0263483 1.63427e-19)
(0.0132106 0.0231788 -2.83341e-20)
(0.0136582 0.0200976 -9.4626e-22)
(0.0122731 0.0174439 0)
(0.0112917 0.0141611 0)
(0.00998963 0.0112589 0)
(0.00889667 0.00863771 0)
(0.0079632 0.00628136 0)
(0.00735744 0.00419498 0)
(0.00676137 0.00268195 0)
(0.00623181 0.00137158 0)
(0.00610065 0.000122104 0)
(-0.00407067 0.000885907 0)
(-0.00400704 0.00126826 0)
(-0.00416589 0.00215792 0)
(-0.00430016 0.00277224 0)
(-0.00380377 0.0040232 0)
(-0.00310811 0.00514468 0)
(-0.00221057 0.0064809 0)
(-0.00114286 0.00747829 0)
(-0.000121931 0.0082642 9.07033e-22)
(0.00236739 0.00833672 -5.56297e-21)
(0.00676121 0.00826148 -5.33346e-20)
(0.0127746 0.0111758 7.29303e-21)
(0.0122179 0.00810471 2.19822e-19)
(0.0151465 0.0121875 -3.29644e-19)
(0.00965559 0.0260395 -5.30588e-20)
(-0.00731973 0.0379225 8.51144e-20)
(-0.0104919 0.0402973 4.00673e-20)
(-0.0106656 0.0415665 -1.98413e-19)
(-0.0135534 0.0487839 -1.43708e-19)
(-0.0126709 0.0506732 7.82836e-19)
(-0.0131371 0.0422329 2.59703e-19)
(-0.00815253 0.0419289 -2.53507e-19)
(-0.003351 0.0402805 -4.06751e-19)
(0.00206007 0.0373901 -4.6507e-19)
(0.00874171 0.0307955 1.33177e-19)
(0.0115487 0.0304584 1.67987e-19)
(0.0147063 0.0334711 3.26474e-19)
(0.012736 0.0319173 -1.81495e-19)
(0.0157731 0.0256726 2.21674e-19)
(0.0180592 0.0212285 -1.56607e-19)
(0.0193552 0.0163836 -1.1754e-21)
(0.01769 0.0122532 -1.38064e-22)
(0.0148902 0.00909601 0)
(0.0127636 0.00629301 0)
(0.0108601 0.00424252 0)
(0.00940496 0.00263437 0)
(0.00829366 0.00177 0)
(0.00732061 0.000677057 0)
(0.00676321 0.000823929 0)
(0.00664168 0.000136762 0)
(-0.00620729 -1.27719e-05 0)
(-0.00631387 0.00131355 0)
(-0.00654113 0.00217942 0)
(-0.00687955 0.00406026 0)
(-0.00711958 0.0051517 0)
(-0.00699865 0.00664348 0)
(-0.00676546 0.00816436 0)
(-0.00615176 0.00915895 -1.18815e-21)
(-0.00381941 0.0095679 -3.24326e-20)
(0.00134899 0.0100799 9.17778e-20)
(0.00594247 0.0084647 1.65387e-20)
(0.00784775 0.00187939 -2.3456e-19)
(0.00968383 0.00237016 4.8798e-19)
(0.00688487 0.00681384 -3.6424e-19)
(0.00300819 0.0047412 1.72398e-19)
(0.000986431 0.0203976 -3.2445e-19)
(-0.0142915 0.0404262 8.4874e-19)
(-0.00790712 0.0471758 -2.12409e-19)
(-0.00580289 0.0505357 -3.78672e-19)
(-0.00303843 0.0527742 3.07024e-19)
(-0.00232724 0.0542724 1.46223e-18)
(0.00282964 0.0540816 -1.33537e-19)
(0.00522053 0.0496219 1.73499e-20)
(0.00784594 0.0448449 1.44933e-19)
(0.0250239 0.0432044 1.23011e-20)
(0.0306317 0.0388039 -8.90461e-20)
(0.0179432 0.03212 2.60223e-19)
(0.0253274 0.0256321 -1.80252e-19)
(0.0197248 0.0193253 -1.19547e-19)
(0.0180919 0.014429 3.28979e-20)
(0.019211 0.00924826 5.04289e-20)
(0.0191562 0.00534392 -1.79405e-20)
(0.0163086 0.00332534 5.84581e-22)
(0.0131029 0.00181795 0)
(0.0107173 0.000992941 0)
(0.00874505 0.000904297 0)
(0.00755388 0.000790805 0)
(0.00635165 0.00145128 0)
(0.00565268 0.000150183 0)
(0.00551638 0.000760581 0)
(-0.00857543 -0.000529394 0)
(-0.0089955 -5.75964e-05 0)
(-0.00973804 0.000230512 0)
(-0.0105728 0.000640707 0)
(-0.0113425 0.00172345 0)
(-0.0122627 0.00350023 0)
(-0.0130545 0.00533825 0)
(-0.0127033 0.00716112 5.92565e-21)
(-0.00828701 0.00775256 2.04616e-20)
(-0.00311013 0.00600133 8.33914e-21)
(0.000768826 0.00518186 5.52262e-20)
(0.00446972 0.00830939 -2.55736e-19)
(0.0134226 0.00822492 4.29018e-19)
(-0.000612446 -0.0014284 -3.24976e-20)
(0.0104838 0.0139297 2.19348e-19)
(0.0189896 0.0191202 -2.21363e-19)
(0.00195414 0.0220221 6.01963e-19)
(-0.00480041 0.049359 -1.68131e-18)
(-0.0103075 0.0565487 -7.98391e-19)
(-0.00574638 0.0657444 5.2465e-19)
(0.00446594 0.0710528 1.15581e-18)
(0.0131472 0.0638102 -8.25964e-19)
(0.0199293 0.0598233 -9.32282e-19)
(0.0197944 0.0544296 -7.45445e-19)
(0.0343073 0.0586052 1.95827e-19)
(0.0444733 0.0407944 -5.65874e-19)
(0.0397052 0.0215168 -7.06811e-20)
(0.0332464 0.0152819 1.25354e-19)
(0.0227126 0.00315684 -1.40821e-19)
(0.0178973 0.000180855 5.46044e-20)
(0.0148586 -0.00134002 3.29532e-20)
(0.0145667 -0.00277634 -5.41005e-20)
(0.0144814 -0.0040371 -2.63635e-20)
(0.0115259 -0.00381859 0)
(0.00844498 -0.00461209 0)
(0.0062792 -0.00522712 0)
(0.00461841 -0.00529653 0)
(0.00358033 -0.00446092 0)
(0.00302849 -0.00252862 0)
(0.00314945 -0.0016578 0)
(-0.00982843 0.00228607 0)
(-0.0107463 0.000115732 0)
(-0.0119319 0.000677749 0)
(-0.0133376 -0.000338049 0)
(-0.0150933 4.50189e-05 0)
(-0.0175229 0.000492802 0)
(-0.0201279 0.001573 -1.39177e-21)
(-0.019387 0.000925272 -2.33032e-21)
(-0.0145529 0.000315233 -2.64846e-20)
(-0.0123998 -0.000937017 1.42441e-20)
(-0.013189 -0.00394802 2.84784e-20)
(-0.0141932 -0.00244295 -7.321e-20)
(-0.0140207 -0.0177276 7.94638e-20)
(-0.0218812 -0.0106124 -1.15282e-19)
(-0.0119558 0.00748265 -5.54202e-20)
(-0.0313071 0.0122832 3.93678e-19)
(-0.0119028 0.016657 4.21637e-20)
(-0.0232888 0.0287913 -5.91827e-20)
(-0.0272536 0.0602577 -6.59253e-19)
(-0.0174801 0.0735243 -5.19099e-19)
(0.00118862 0.0854371 2.73376e-19)
(0.0143703 0.0796801 -3.28812e-19)
(0.024162 0.0720117 -2.61597e-19)
(0.0312161 0.0671952 1.22384e-19)
(0.0512949 0.0551479 4.39892e-19)
(0.0316678 0.036321 7.02024e-20)
(0.0362121 0.0146897 -1.28388e-19)
(0.0270141 0.0128309 -1.76889e-19)
(0.019767 -0.0125636 4.54448e-20)
(0.0121357 -0.0116335 1.18972e-19)
(0.00683944 -0.0142751 1.47935e-20)
(0.0056719 -0.0131706 -2.63681e-20)
(0.00770898 -0.0112879 9.63135e-21)
(0.00751941 -0.00884471 2.85019e-21)
(0.0047587 -0.00657908 0)
(0.0026255 -0.0052076 0)
(0.00104226 -0.00294729 0)
(-0.00018225 -0.00256018 0)
(-0.000654424 -0.000271451 0)
(-0.000889377 -0.000318216 0)
(-0.00988271 -0.00437329 0)
(-0.0106082 -0.00320163 0)
(-0.0114945 -0.00522279 0)
(-0.0141603 -0.00424451 0)
(-0.0174552 -0.00449011 0)
(-0.0216401 -0.00474976 0)
(-0.0253648 -0.00576718 -4.77568e-21)
(-0.0245358 -0.00744236 1.12459e-20)
(-0.0217141 -0.0110644 -5.6548e-21)
(-0.024763 -0.0140094 -8.40388e-21)
(-0.0327038 -0.00988838 3.71513e-20)
(-0.0355225 -0.00989322 -6.80353e-20)
(-0.0302916 -0.0367075 5.43752e-20)
(-0.0365731 -0.0136653 -1.08749e-19)
(-0.0357309 -0.000234508 1.60501e-19)
(-0.0515576 -0.0114409 -1.03895e-19)
(-0.0548999 0.0164045 2.21501e-19)
(-0.0599576 0.0325769 3.10562e-19)
(-0.0521605 0.0607281 2.81889e-19)
(-0.037452 0.0934702 1.01521e-18)
(0.00343155 0.107522 4.03993e-19)
(0.0324702 0.0950529 -3.16647e-20)
(0.0430049 0.0721697 -5.51969e-19)
(0.0385386 0.0550516 6.04364e-19)
(0.037038 0.0395634 1.71409e-19)
(0.0383267 0.0396114 6.19648e-19)
(0.0370253 0.00589185 -1.04049e-19)
(0.0200676 0.010926 -3.65631e-20)
(0.00833287 -0.011382 -3.0409e-20)
(-0.00098524 -0.0208482 9.04807e-20)
(-0.004853 -0.0236175 -4.08859e-20)
(-0.0053664 -0.0199185 2.24298e-20)
(-0.00247269 -0.0163198 -1.87996e-20)
(0.000669924 -0.0131937 4.88239e-21)
(-0.000298395 -0.00936141 0)
(-0.00182671 -0.00627277 0)
(-0.00319826 -0.00391313 0)
(-0.00408283 -0.000610143 0)
(-0.00505012 -0.00191607 0)
(-0.00498704 0.00107342 0)
(-0.00702802 -0.00079648 0)
(-0.00861553 -0.00420878 0)
(-0.0105887 -0.00697635 0)
(-0.0132274 -0.00963836 0)
(-0.0166122 -0.0124002 0)
(-0.02124 -0.0144357 0)
(-0.0239849 -0.0188223 -3.04346e-21)
(-0.0237356 -0.022046 1.01946e-20)
(-0.0273406 -0.0218144 -1.00626e-20)
(-0.0335459 -0.0252352 9.83509e-21)
(-0.0454193 -0.0220245 -5.68836e-20)
(-0.0628578 -0.00461362 3.24672e-20)
(-0.0700382 -0.00675387 2.45326e-20)
(-0.0479398 -0.0107423 -3.73943e-20)
(-0.0697853 -0.00917403 -3.03806e-20)
(-0.0522844 0.000407552 2.36034e-20)
(-0.0643535 0.00121297 2.58359e-20)
(-0.0897063 0.0232219 2.80663e-21)
(-0.110455 0.0601411 1.4381e-20)
(-0.0971204 0.134546 -3.00393e-19)
(0.00381447 0.179724 1.51101e-18)
(0.0922126 0.121079 -6.88839e-19)
(0.0817443 0.0521501 -4.22589e-20)
(0.0605769 0.0286093 -3.16557e-22)
(0.0482089 0.0306936 -8.38976e-21)
(0.0369793 0.0266715 5.7984e-20)
(0.0220598 0.00254506 7.17583e-21)
(0.0154451 -0.00553155 3.10232e-20)
(-0.00273307 -0.0175279 -2.24555e-20)
(-0.00919491 -0.0185279 -1.10774e-21)
(-0.0127609 -0.0208961 -2.17388e-20)
(-0.0160586 -0.022825 1.38846e-20)
(-0.0138057 -0.0204968 -1.20884e-20)
(-0.00770052 -0.0154495 4.02314e-21)
(-0.00796379 -0.0121574 0)
(-0.0102174 -0.0106972 0)
(-0.0115515 -0.00977123 0)
(-0.0106634 -0.00726245 0)
(-0.00944569 -0.00344805 0)
(-0.00850412 -0.00203688 0)
(-0.00491837 0.00347484 0)
(-0.00609295 -0.003813 0)
(-0.00842237 -0.00640732 0)
(-0.00962397 -0.0124567 0)
(-0.0127882 -0.016916 0)
(-0.0167573 -0.0217144 0)
(-0.0185627 -0.0281039 -9.7135e-22)
(-0.0183229 -0.0330939 -3.2969e-21)
(-0.0289939 -0.0317274 2.61007e-23)
(-0.0437593 -0.0286908 1.18394e-21)
(-0.0523444 -0.0324218 -1.10405e-21)
(-0.0721083 -0.0157395 -2.592e-21)
(-0.0860942 -0.00881456 5.33984e-21)
(-0.0807718 -0.0154711 1.65873e-20)
(-0.0927763 -0.00262453 -6.0237e-20)
(-0.0849274 -0.0139905 6.5987e-20)
(-0.0928759 -0.0119408 3.26932e-20)
(-0.105584 -0.0155148 -9.88395e-21)
(-0.0573776 -0.118649 1.06684e-19)
(0.035804 -0.110259 3.90532e-18)
(0.0477017 -0.0128559 -6.65343e-21)
(0.0305142 -0.00935016 -3.87463e-21)
(0.0178789 -0.0180414 6.14091e-22)
(0.00161197 0.0105407 -2.54277e-20)
(-0.00551731 -0.0247775 -3.68061e-21)
(-0.0025659 -0.0160017 5.18564e-21)
(-0.00178095 -0.00779405 -6.11428e-21)
(-0.00926967 -0.0130581 6.14308e-21)
(-0.0172385 -0.0187466 -4.02347e-21)
(-0.0184271 -0.018986 -7.22057e-22)
(-0.0123878 -0.0146891 -8.02077e-22)
(-0.00798148 -0.00910125 0)
(-0.0087208 -0.00543548 0)
(-0.00972895 -0.00172181 0)
(-0.012121 -0.00076279 0)
(-0.012813 0.00226773 0)
(-0.0150854 -0.00113749 0)
(0.000303757 -0.0123491 0)
(0.00145053 -0.0142602 0)
(0.00268643 -0.0178786 0)
(0.00164176 -0.0206596 0)
(-0.000953407 -0.0246192 0)
(-0.00436511 -0.0299446 0)
(-0.00499279 -0.0362582 -1.04507e-21)
(-0.00962015 -0.0400202 9.87723e-21)
(-0.0168069 -0.0429753 -8.084e-21)
(-0.03223 -0.0371457 -2.06873e-20)
(-0.0390489 -0.0412163 4.58335e-20)
(-0.0541288 -0.0336228 -6.84909e-20)
(-0.0610672 -0.0180329 -1.41781e-21)
(-0.0663753 -0.0171974 4.46736e-20)
(-0.0635216 0.000315337 -8.56248e-20)
(-0.0637471 -0.0035371 1.06078e-21)
(-0.0651317 -0.0173735 -5.1973e-22)
(-0.0396616 -0.0487551 -9.60748e-21)
(0.0244395 -0.170352 -5.09519e-18)
(-0.0756851 -0.164477 -1.25036e-18)
(-0.00632699 -0.00660772 1.0474e-20)
(0.034022 0.00195314 -3.44527e-20)
(0.0430221 -0.0246301 1.31629e-20)
(0.0327465 0.00177163 1.70899e-21)
(0.0399143 -0.0348609 1.01081e-20)
(0.0266097 -0.0104474 2.67713e-20)
(0.0160788 -0.00338278 -2.13127e-20)
(0.00604743 -0.00993601 5.96449e-21)
(-0.00372066 -0.0144315 -1.23266e-20)
(-0.0131323 -0.0156241 1.69073e-21)
(-0.0156948 -0.0152988 7.19865e-22)
(-0.015441 -0.0116056 0)
(-0.0157217 -0.0082778 0)
(-0.0160615 -0.00551299 0)
(-0.0159553 -0.00208608 0)
(-0.0175484 -0.00204859 0)
(-0.0182425 0.00270262 0)
(0.00756504 0.00145328 1.4841e-22)
(0.00811926 -0.00398238 0)
(0.00789628 -0.0119187 0)
(0.00874883 -0.0169159 0)
(0.0113021 -0.0228306 0)
(0.0121727 -0.0295963 0)
(0.0129538 -0.0375364 -2.23626e-21)
(0.00889463 -0.0389856 -3.96202e-21)
(0.00288906 -0.0444195 3.47563e-20)
(-0.00411123 -0.0416866 -3.79682e-20)
(-0.00727468 -0.0445633 3.1529e-20)
(-0.00394952 -0.0338067 4.35216e-20)
(-0.00902252 -0.0166319 -5.52783e-20)
(-0.035581 -0.0121379 7.08305e-20)
(-0.041696 -0.00262681 4.62358e-19)
(-0.0474484 -0.00697358 -2.54445e-19)
(-0.0452794 -0.00702184 -4.7943e-19)
(0.16897 -0.0714996 3.81425e-20)
(0.15785 -0.0977353 1.72169e-18)
(-0.289541 -0.0351507 7.14594e-19)
(-0.0847805 0.0478944 -1.26081e-19)
(0.0643711 0.0346844 -7.41744e-20)
(0.0901289 -0.0117646 3.00979e-19)
(0.0799832 -0.0292357 9.87805e-20)
(0.0686709 -0.0515224 -5.53146e-20)
(0.0596821 -0.033745 1.93129e-19)
(0.0480086 -0.0251561 8.44451e-20)
(0.0246722 -0.0204421 -2.30441e-20)
(0.00901261 -0.0158602 8.27601e-22)
(-0.00370579 -0.0162586 -1.44086e-20)
(-0.0115303 -0.0153431 7.40963e-22)
(-0.0145374 -0.0130381 0)
(-0.0180674 -0.0105273 0)
(-0.0196976 -0.00829225 0)
(-0.019693 -0.00554657 0)
(-0.0193533 -0.00440886 0)
(-0.0184878 0.000473805 0)
(0.00497723 0.00168971 1.55365e-23)
(0.00944183 -0.00178179 0)
(0.0130504 -0.00610394 0)
(0.0155437 -0.0127585 0)
(0.0196656 -0.0203086 0)
(0.0250787 -0.0269546 0)
(0.0250059 -0.0319625 -2.17576e-21)
(0.0196204 -0.0314972 -1.0382e-20)
(0.0127498 -0.0350176 4.86699e-20)
(0.0118917 -0.0318565 -5.06952e-20)
(0.0070468 -0.0341239 5.25643e-20)
(-0.00090423 -0.0294827 8.00802e-20)
(-0.0135969 -0.0198901 -7.39194e-20)
(-0.0360025 -0.0427328 1.68232e-19)
(-0.0683965 -0.0284538 1.64767e-19)
(-0.077978 -0.0152152 9.9114e-19)
(-0.0771189 0.0236402 6.15957e-20)
(0.331844 0.0319936 9.43364e-19)
(-0.877301 0.644941 -1.58661e-19)
(-0.206517 1.19414 -1.87339e-19)
(0.571908 1.03719 1.23685e-20)
(0.48758 0.404726 1.59705e-19)
(-0.408191 0.142313 -1.9517e-19)
(-0.144534 0.110459 -5.55774e-20)
(0.14088 0.053544 4.5074e-19)
(0.133932 -0.00992722 -2.07826e-19)
(0.115086 -0.0494558 1.12615e-19)
(0.0905611 -0.071721 1.94246e-19)
(0.0665349 -0.0529642 -1.88235e-19)
(0.043238 -0.0355968 -2.92814e-20)
(0.0305713 -0.0281157 7.53108e-21)
(0.0183352 -0.025585 1.19931e-20)
(0.00409242 -0.0206074 4.29246e-21)
(-0.00537739 -0.0161634 2.10514e-21)
(-0.00932247 -0.0107171 0)
(-0.0107042 -0.00650779 0)
(-0.00929474 -0.00445155 0)
(-0.009692 -0.004026 0)
(-0.0118848 -0.00287779 0)
(-0.0147146 -0.00342321 0)
(0.0285777 -0.00333935 1.91501e-21)
(0.0288687 -0.00652686 0)
(0.0317544 -0.00849839 0)
(0.0357357 -0.0112896 0)
(0.0396997 -0.0148405 0)
(0.0400045 -0.0193273 0)
(0.0335474 -0.0256839 -1.68798e-22)
(0.0252387 -0.0263093 4.28088e-21)
(0.0206192 -0.02949 -2.52312e-20)
(0.019139 -0.0307213 -3.37673e-20)
(0.0228519 -0.0432811 1.46562e-19)
(0.0210355 -0.0520474 -8.25089e-20)
(0.00677085 -0.0921764 -8.40676e-20)
(-0.0282425 -0.0815755 -2.69679e-19)
(-0.0564699 -0.083632 -6.51822e-19)
(-0.126704 -0.10262 2.5629e-19)
(-0.193642 -0.050441 9.91059e-19)
(0.0450577 0.108805 3.04578e-18)
(-1.65044 0.421317 -7.34289e-19)
(-0.420522 0.521384 3.11715e-18)
(1.08737 0.522987 1.33076e-19)
(1.0011 0.621344 9.51903e-19)
(-0.0614877 0.24036 -2.12949e-18)
(-0.0200387 0.0541423 1.1524e-18)
(0.251558 -0.00776747 5.62753e-19)
(0.159499 -0.072835 -2.52063e-19)
(0.100705 -0.0869926 -9.22718e-19)
(0.0557973 -0.0990079 4.35571e-19)
(0.0312205 -0.0763942 -9.77121e-20)
(0.0267716 -0.0541441 -6.86569e-20)
(0.0111687 -0.0429232 -2.33918e-20)
(0.010232 -0.0285751 5.13962e-20)
(0.00380015 -0.0203015 -8.41373e-21)
(-0.00726507 -0.0174456 -6.2906e-23)
(-0.0165514 -0.0148869 0)
(-0.0124676 -0.00953478 0)
(-0.0107869 -0.00673572 0)
(-0.0107239 -0.00557654 0)
(-0.0100908 -0.002582 0)
(-0.0081637 -0.00186544 1.38943e-21)
(0.0412567 -0.00146108 6.96859e-21)
(0.0391098 -0.00263213 0)
(0.0404618 -0.00466075 0)
(0.0429362 -0.00698754 0)
(0.047351 -0.00998239 0)
(0.0518534 -0.0140892 0)
(0.0482277 -0.0197794 0)
(0.0416525 -0.0242693 1.20807e-21)
(0.0407743 -0.0355394 -8.59549e-21)
(0.0458833 -0.0484137 2.11015e-20)
(0.0458919 -0.0643688 2.08443e-20)
(0.0577599 -0.100637 -1.28509e-19)
(0.0426626 -0.131935 2.34172e-21)
(0.0182917 -0.135869 1.75909e-19)
(-0.0123761 -0.171334 2.33414e-19)
(-0.0988266 -0.251031 7.25833e-20)
(-0.295031 -0.263702 3.81086e-19)
(-0.648141 0.025133 7.43344e-19)
(-1.15574 -0.256827 -7.76553e-19)
(-0.0174149 -1.11843 4.45317e-18)
(0.738199 -0.398945 -5.88975e-18)
(0.527907 -0.410431 -2.1111e-18)
(0.37116 0.0738521 -2.33247e-18)
(0.240114 -0.263042 3.0277e-18)
(0.265453 -0.272759 -1.58158e-19)
(0.126121 -0.225193 2.69426e-19)
(-0.000376253 -0.171889 -1.33778e-19)
(-0.00532417 -0.107437 1.85122e-19)
(-0.0185644 -0.0858856 6.1926e-20)
(-0.00686017 -0.0586373 1.46119e-20)
(-0.00881282 -0.0421761 3.83184e-22)
(-0.0027557 -0.0239587 -6.81734e-21)
(-0.0100408 -0.0223316 -7.03803e-21)
(-0.0176009 -0.016911 0)
(-0.0248704 -0.0140337 0)
(-0.0229083 -0.0108935 0)
(-0.0211281 -0.00909466 0)
(-0.0184143 -0.00733366 0)
(-0.0153387 -0.00443942 0)
(-0.0121401 -0.00198407 -4.41737e-21)
(0.040272 -0.00175281 6.96681e-23)
(0.0386687 -0.00107731 0)
(0.0390647 -0.00228887 0)
(0.0419534 -0.00350677 0)
(0.0466806 -0.00322046 0)
(0.0537261 -0.00311287 0)
(0.0570425 -0.00634936 0)
(0.0537102 -0.0129064 0)
(0.052788 -0.0250053 -1.41186e-21)
(0.0648668 -0.0420264 2.65321e-21)
(0.0668251 -0.0561032 -1.20106e-20)
(0.0871567 -0.090145 3.32109e-20)
(0.107918 -0.141475 2.43995e-20)
(0.126889 -0.189431 2.0912e-20)
(0.0815654 -0.252314 1.2358e-19)
(0.0322236 -0.434308 1.3082e-19)
(-0.462793 -0.410818 -9.11363e-20)
(-0.580815 -0.478086 6.30366e-19)
(-0.158559 -0.776979 7.47736e-19)
(0.0273586 -0.990107 2.73358e-18)
(0.218227 -1.39924 -1.57488e-18)
(0.116439 -0.846711 -1.75302e-18)
(0.0712754 -0.749611 -2.75686e-19)
(0.412753 -0.745309 -5.8821e-18)
(0.0618345 -0.626643 -5.52852e-20)
(-0.0753629 -0.318618 -2.42682e-19)
(-0.131906 -0.148466 -3.63183e-20)
(-0.0977573 -0.0839152 -8.63158e-20)
(-0.0670507 -0.0512268 9.87995e-20)
(-0.0398556 -0.0315895 1.33414e-20)
(-0.0183354 -0.0249079 -6.1055e-21)
(-0.00550516 -0.0134717 -4.06244e-21)
(-0.00744722 -0.0120677 0)
(-0.0155161 -0.00559293 0)
(-0.021382 -0.00745093 0)
(-0.0180405 -0.00615967 0)
(-0.0140769 -0.00629594 -1.55151e-20)
(-0.0118342 -0.00537882 -2.14564e-20)
(-0.0115042 -0.00281436 -1.27946e-20)
(-0.0116667 9.25337e-05 0)
(0.0363428 0.000938656 0)
(0.0356791 0.00264926 0)
(0.0356461 0.00255284 0)
(0.037746 0.00323364 0)
(0.0406103 0.00446928 0)
(0.0467558 0.00674579 0)
(0.052847 0.00638569 0)
(0.0550824 -0.00100269 0)
(0.0522866 -0.00808305 -1.93536e-23)
(0.0617324 -0.0167633 -1.14421e-21)
(0.0763665 -0.0265607 3.58737e-21)
(0.096629 -0.0427666 -6.6162e-21)
(0.144686 -0.0714587 -4.33066e-20)
(0.222451 -0.157335 -2.31735e-20)
(0.205593 -0.27184 -1.89339e-18)
(0.209642 -0.358383 1.29056e-19)
(-0.666642 -0.430195 1.6269e-19)
(-0.0607547 -0.931747 -2.48965e-19)
(0.0879288 -1.3854 1.56109e-19)
(-0.214398 -1.34027 4.40728e-19)
(0.129253 -0.674769 1.04409e-18)
(0.331438 -0.945103 4.45336e-19)
(0.0407084 -1.12353 -2.8197e-19)
(0.307794 -1.05778 -5.24899e-19)
(-0.367651 -0.631259 -3.16603e-21)
(-0.374362 -0.272935 5.01775e-20)
(-0.240971 -0.0275365 4.52631e-20)
(-0.153414 -0.00216947 -7.04311e-21)
(-0.0823453 0.0175217 2.32609e-20)
(-0.0465697 0.0123475 -1.07195e-21)
(-0.0179468 0.000744462 -1.26314e-21)
(-0.0087445 0.00249425 -3.49908e-23)
(-0.00792236 0.000807207 0)
(-0.015547 0.00473982 0)
(-0.0156907 0.000707732 0)
(-0.011722 0.000528517 0)
(-0.00775697 -0.00155061 0)
(-0.00513184 -0.00130092 0)
(-0.00445021 -0.00127548 0)
(-0.00577138 0.000611077 2.30433e-21)
(0.0301059 0.00268643 0)
(0.0323606 0.00335451 0)
(0.0324997 0.00468281 0)
(0.034135 0.0063821 0)
(0.0362054 0.00697933 0)
(0.0419048 0.00883515 0)
(0.0488623 0.0118202 0)
(0.0546018 0.0101467 0)
(0.0539638 0.00755114 0)
(0.0554867 0.0140202 0)
(0.0739366 0.0104962 -2.22024e-22)
(0.0947417 0.0200828 1.88919e-20)
(0.151547 0.029596 5.47928e-20)
(0.245831 -0.0217487 -5.6252e-20)
(0.407039 -0.0821357 -5.35364e-18)
(0.415449 -0.145691 -2.74403e-19)
(-0.103076 -0.468023 -2.23471e-18)
(0.156995 -0.756673 -5.32144e-19)
(0.248422 -0.682435 3.86753e-19)
(0.0356642 -0.389614 -9.47536e-19)
(-0.196985 -0.190034 1.5693e-18)
(-0.0841654 -0.140804 1.26877e-18)
(0.399402 -0.323758 -6.50928e-19)
(0.581556 -0.257683 1.26328e-19)
(-1.29976 -0.308112 1.4197e-19)
(-0.657564 0.0430451 1.53082e-20)
(-0.265015 0.180637 -7.02337e-20)
(-0.135661 0.103247 5.00111e-20)
(-0.0505274 0.0830521 -1.33711e-20)
(-0.0243603 0.0521063 -1.32356e-21)
(-0.00607275 0.0345231 0)
(-0.00665552 0.0259188 0)
(-0.00838901 0.018516 0)
(-0.0137927 0.0162813 0)
(-0.0108717 0.0102209 0)
(-0.00928211 0.0074357 0)
(-0.0078968 0.00330948 0)
(-0.00619448 0.00208588 0)
(-0.00583624 0.00106712 0)
(-0.00695361 0.000502168 0)
(0.0285827 0.00177344 0)
(0.0313046 0.00190507 0)
(0.0333592 0.00320194 0)
(0.0349563 0.00374636 0)
(0.0361262 0.00433734 0)
(0.0400724 0.00635418 0)
(0.0463066 0.0122638 0)
(0.0493373 0.0203163 0)
(0.0457489 0.0261356 0)
(0.0379016 0.0501696 0)
(0.0490058 0.0614136 0)
(0.0691562 0.105794 7.90953e-23)
(0.121442 0.168264 2.4076e-22)
(0.233826 0.244061 -6.81805e-22)
(0.393351 0.13843 -1.7713e-18)
(0.7066 0.0806407 -1.36534e-19)
(0.353772 -0.0623276 -1.76346e-18)
(-0.220456 0.0386013 -7.73301e-19)
(-0.160595 0.3801 -1.4686e-19)
(-0.146445 0.565763 -6.40804e-19)
(-0.16932 0.594945 9.35665e-19)
(0.105038 0.768676 -1.7582e-20)
(0.539922 0.681094 1.48503e-19)
(0.369647 0.737016 1.98711e-19)
(-0.941576 0.718054 -1.34469e-19)
(-0.785292 0.478057 -1.65208e-20)
(-0.168084 0.357155 2.33683e-19)
(-0.04531 0.195129 1.8335e-21)
(0.0167478 0.137809 1.65878e-22)
(0.0191898 0.0800875 0)
(0.0213262 0.0577258 0)
(0.00608783 0.0383014 0)
(-0.00248913 0.0286863 0)
(-0.00785639 0.0231294 0)
(-0.00540988 0.0168969 0)
(-0.00668503 0.0120898 0)
(-0.00797807 0.00849109 0)
(-0.00832519 0.00659455 0)
(-0.00842817 0.00460004 0)
(-0.00916585 0.00159296 0)
(0.0318807 -0.00126659 0)
(0.0330247 -0.00255129 0)
(0.034277 -0.00154246 0)
(0.0343408 -0.00104177 0)
(0.0333632 0.000547369 0)
(0.0327849 0.00346278 0)
(0.0340175 0.0111115 0)
(0.0294244 0.0261932 0)
(0.0187868 0.0436648 0)
(0.00144201 0.0786889 0)
(-0.00994697 0.114722 2.83011e-20)
(0.00605981 0.162285 0)
(0.0197374 0.284843 0)
(0.197691 0.390109 1.29721e-19)
(0.606072 0.356288 -7.41497e-20)
(0.621626 0.360309 -2.98662e-18)
(-0.358234 0.803334 -7.89285e-21)
(-0.39444 1.00872 -2.20448e-20)
(-0.371341 1.13679 -2.32093e-19)
(-0.196228 1.22123 -1.05757e-19)
(-0.314707 1.08549 1.26376e-18)
(-0.0450489 1.03663 -1.4598e-18)
(0.31935 1.08712 -2.40741e-19)
(0.260324 1.08731 -3.74717e-20)
(-0.526253 1.12602 -1.2425e-22)
(-0.113875 0.656391 4.00859e-19)
(0.0664975 0.371571 -4.48945e-19)
(0.114835 0.240642 0)
(0.0969306 0.150352 0)
(0.0666838 0.0870415 -7.85476e-21)
(0.0477319 0.0636215 0)
(0.019766 0.0389064 0)
(0.00508681 0.0298127 0)
(-0.00253906 0.0224914 0)
(-0.00226625 0.017744 0)
(-0.0041332 0.0136161 0)
(-0.00551384 0.011526 0)
(-0.00595987 0.00900891 2.55351e-21)
(-0.00587159 0.00552539 1.83192e-21)
(-0.00747592 0.00184164 0)
(0.0325549 -0.00267263 0)
(0.0314705 -0.00383126 0)
(0.0309465 -0.00431667 0)
(0.0291395 -0.00454297 0)
(0.0266092 -0.00325583 0)
(0.0214575 -0.000678255 0)
(0.0148393 0.00690347 0)
(-6.08403e-05 0.0229476 0)
(-0.022541 0.0481759 0)
(-0.0496799 0.0815417 0)
(-0.0947698 0.140352 -2.56925e-20)
(-0.107895 0.193442 0)
(-0.125557 0.331196 0)
(0.0527488 0.592483 -1.30364e-19)
(0.307851 0.637104 1.82492e-18)
(-0.357018 1.03322 1.54967e-19)
(-0.629226 1.12329 0)
(-0.335182 0.9182 2.89818e-19)
(-0.171788 0.645716 1.93447e-18)
(-0.124416 0.527371 4.93316e-18)
(-0.120939 0.48156 4.25865e-18)
(-0.0752679 0.427652 -3.38485e-18)
(-0.195139 0.62303 -6.21667e-20)
(-0.424265 0.729675 0)
(-0.314821 0.564506 2.01594e-19)
(0.318793 0.36504 -3.49676e-19)
(0.391712 0.147336 -1.25184e-19)
(0.283036 0.140041 0)
(0.175198 0.0793814 0)
(0.118778 0.0605859 -5.67166e-20)
(0.0748695 0.0474641 0)
(0.0353253 0.030815 0)
(0.0130041 0.0249343 0)
(0.00198791 0.0175279 0)
(-0.000405818 0.0144753 0)
(-0.00243371 0.0114389 -4.61965e-21)
(-0.00360037 0.00981898 6.00317e-21)
(-0.0040783 0.00771527 0)
(-0.0028968 0.00466781 0)
(-0.00289915 0.00157857 1.41072e-20)
(0.0338732 -0.00212883 0)
(0.0316576 -0.00378275 0)
(0.0304117 -0.0058973 0)
(0.0281421 -0.00727073 0)
(0.0244928 -0.00778455 0)
(0.0154937 -0.00752268 0)
(-0.000319374 -0.00309936 2.27152e-21)
(-0.0265917 0.00696379 0)
(-0.0620924 0.0301675 0)
(-0.099438 0.043171 0)
(-0.171542 0.0932414 0)
(-0.247514 0.131543 0)
(-0.317426 0.239581 0)
(-0.254926 0.367924 4.61872e-22)