/*--------------------------------*- C++ -*----------------------------------*\
| =========                 |                                                 |
| \\      /  F ield         | OpenFOAM: The Open Source CFD Toolbox           |
|  \\    /   O peration     | Version:  v2106                                 |
|   \\  /    A nd           | Website:  www.openfoam.com                      |
|    \\/     M anipulation  |                                                 |
\*---------------------------------------------------------------------------*/
FoamFile
{
    version     2.0;
    format      ascii;
    arch        "LSB;label=32;scalar=64";
    class       volVectorField;
    location    "0";
    object      U;
}
// * * * * * * * * * * * * * * * * * * * * * * * * * * * * * * * * * * * * * //

dimensions      [0 1 -1 0 0 0 0];

internalField   nonuniform List<vector> 
11644
(
(1.00004 -0.000236648 1.08723e-22)
(0.999926 -0.000621589 2.99826e-22)
(0.999856 -0.000911147 1.60864e-22)
(0.999837 -0.00120949 0)
(0.999833 -0.00152596 0)
(0.999831 -0.00185733 0)
(0.999831 -0.00220359 0)
(0.999825 -0.00255709 0)
(0.999824 -0.00290602 0)
(0.999816 -0.00324288 0)
(0.999828 -0.00354212 0)
(0.999799 -0.00379488 0)
(0.999785 -0.0039688 0)
(1 -0.00403807 0)
(0.999851 -0.00398385 0)
(0.99984 -0.0037962 0)
(0.999948 -0.00348031 0)
(0.999856 -0.00297059 0)
(0.999694 -0.00233714 0)
(0.99953 -0.00159048 3.19776e-30)
(0.999385 -0.00075721 -3.18722e-30)
(0.999234 0.00025792 0)
(0.999403 0.00138568 0)
(0.999787 0.00216447 0)
(0.999932 0.00253432 0)
(0.999917 0.00276295 0)
(1.00008 0.00298752 0)
(0.999898 0.00301381 0)
(0.999829 0.00298036 0)
(0.999829 0.00286087 0)
(0.999844 0.00267594 0)
(0.999835 0.00244961 0)
(0.999836 0.00218981 0)
(0.999835 0.00191506 0)
(0.999835 0.0016342 0)
(0.999836 0.00135253 0)
(0.999839 0.00107822 0)
(0.999853 0.000814266 0)
(0.999914 0.000555128 0)
(1.00002 0.000210454 2.10803e-23)
(1.00086 -0.00048274 1.39654e-22)
(1.00077 -0.0014708 1.29364e-22)
(1.00071 -0.00247285 6.94775e-23)
(1.0007 -0.00347321 0)
(1.00073 -0.00448968 0)
(1.00077 -0.0055408 0)
(1.0008 -0.00662809 0)
(1.00082 -0.0077412 0)
(1.00081 -0.00886201 0)
(1.00078 -0.00994743 0)
(1.00066 -0.0109717 0)
(1.00052 -0.0118357 0)
(1.00031 -0.0124798 0)
(0.99968 -0.0128892 0)
(0.999489 -0.0127991 0)
(0.999039 -0.0122912 -1.0419e-25)
(0.998343 -0.0111881 1.56676e-23)
(0.997867 -0.00956507 6.12077e-23)
(0.997616 -0.00755873 1.51793e-23)
(0.997516 -0.00531986 5.47629e-22)
(0.997344 -0.00285029 -6.86538e-22)
(0.997173 -0.000231913 1.24045e-22)
(0.997306 0.00232468 -6.19526e-23)
(0.997921 0.00465626 -1.10887e-23)
(0.998701 0.00650802 -1.76353e-24)
(0.999178 0.0076929 0)
(0.999287 0.00836121 0)
(0.999834 0.00869655 0)
(1.00016 0.00864855 0)
(1.00034 0.00831698 0)
(1.00045 0.00779071 0)
(1.00055 0.00711353 0)
(1.0006 0.00635103 0)
(1.00062 0.00553406 0)
(1.00062 0.00469177 0)
(1.00061 0.00384631 0)
(1.0006 0.00300077 0)
(1.00061 0.00215092 0)
(1.00066 0.00128779 0)
(1.00074 0.000425802 0)
(1.00252 -0.000767556 0)
(1.00248 -0.00234674 0)
(1.00247 -0.00399613 0)
(1.00253 -0.00569486 0)
(1.00263 -0.00744617 1.27571e-22)
(1.00275 -0.00926926 0)
(1.00286 -0.0111691 0)
(1.00294 -0.0131414 0)
(1.00297 -0.0151562 0)
(1.00286 -0.017183 0)
(1.00266 -0.0191038 0)
(1.0022 -0.0208637 0)
(1.00145 -0.0222923 -1.6427e-24)
(1.0009 -0.0231349 4.91784e-23)
(0.999329 -0.0234385 -1.57868e-22)
(0.997793 -0.0228083 3.91677e-22)
(0.996379 -0.0212295 -9.69631e-22)
(0.994936 -0.018713 1.24674e-21)
(0.993755 -0.015292 -1.1131e-21)
(0.992828 -0.0109821 1.58743e-21)
(0.992301 -0.00607354 -1.17074e-21)
(0.992324 -0.00110003 -3.64565e-22)
(0.993004 0.00333825 -1.82017e-22)
(0.994332 0.00715856 5.66221e-22)
(0.995949 0.0103201 6.06125e-23)
(0.997492 0.0126105 1.06668e-22)
(0.999014 0.0140068 -4.46114e-23)
(0.999795 0.0144884 1.95331e-24)
(1.00054 0.0144111 0)
(1.00119 0.013839 0)
(1.00165 0.0129213 0)
(1.00191 0.0117832 0)
(1.00207 0.0104916 0)
(1.00214 0.00912371 0)
(1.00216 0.00771795 0)
(1.00214 0.00630055 0)
(1.00212 0.0048812 0)
(1.00212 0.00346283 0)
(1.00215 0.00204641 0)
(1.00221 0.00067247 0)
(1.00505 -0.00105746 0)
(1.00506 -0.00321618 0)
(1.00514 -0.00546223 0)
(1.00531 -0.0077978 0)
(1.00554 -0.010253 0)
(1.00582 -0.0128493 0)
(1.00609 -0.0155971 0)
(1.00631 -0.0184989 0)
(1.00643 -0.021538 0)
(1.00637 -0.0246423 0)
(1.00596 -0.0277644 -8.56673e-26)
(1.00517 -0.0307307 1.42974e-23)
(1.00389 -0.0332844 2.75815e-22)
(1.00143 -0.0354261 4.01333e-22)
(0.999266 -0.0361291 -6.69686e-22)
(0.996109 -0.0356543 -3.04182e-22)
(0.992629 -0.0335983 -1.30099e-21)
(0.98938 -0.029868 2.91043e-21)
(0.986622 -0.0243385 -1.25716e-21)
(0.984499 -0.0174155 -1.50831e-21)
(0.983504 -0.00963292 1.14393e-21)
(0.983914 -0.00182295 9.96396e-22)
(0.985746 0.0051588 -2.4601e-21)
(0.988431 0.0108563 1.5521e-21)
(0.991582 0.0154401 3.13568e-22)
(0.994596 0.0186264 3.74606e-22)
(0.99702 0.0204505 -1.69744e-22)
(0.999696 0.0211092 -2.30762e-22)
(1.00144 0.0208117 -8.58974e-23)
(1.00262 0.019841 3.79196e-25)
(1.00344 0.0183996 0)
(1.00401 0.0166488 0)
(1.0043 0.0147482 0)
(1.00445 0.0127572 0)
(1.00448 0.0107379 0)
(1.00446 0.00872093 0)
(1.00442 0.00672676 0)
(1.00438 0.00476106 0)
(1.00438 0.00283127 0)
(1.00443 0.000930805 0)
(1.00833 -0.00130229 0)
(1.00841 -0.0039715 0)
(1.00863 -0.00672194 0)
(1.00898 -0.00962788 0)
(1.00944 -0.0127248 0)
(1.00997 -0.0160523 0)
(1.01052 -0.0196383 0)
(1.01102 -0.0235038 0)
(1.01137 -0.0276451 0)
(1.01141 -0.0320529 -2.34761e-23)
(1.01104 -0.0366467 -1.32398e-23)
(1.01006 -0.041253 -2.59917e-22)
(1.00805 -0.0455821 6.27254e-22)
(1.0058 -0.0487163 -1.75983e-21)
(1.00065 -0.0512018 2.79214e-22)
(0.995179 -0.0513226 -6.5837e-22)
(0.989272 -0.0491901 1.9902e-21)
(0.982301 -0.0441191 -2.09307e-21)
(0.97629 -0.0357069 5.50863e-21)
(0.971671 -0.0247404 1.79351e-22)
(0.96986 -0.0125213 2.66255e-21)
(0.971311 -0.000484783 -5.68664e-21)
(0.975349 0.009797 -5.25607e-22)
(0.980528 0.0177379 -1.45243e-21)
(0.985704 0.0234843 4.46573e-22)
(0.991163 0.0272639 -8.93526e-22)
(0.996383 0.0290611 1.86661e-21)
(0.999764 0.0293747 -5.89323e-22)
(1.00271 0.0284829 4.2974e-22)
(1.00486 0.0267341 -2.40853e-23)
(1.00618 0.0244862 -5.58762e-25)
(1.00697 0.021935 0)
(1.00742 0.0192343 0)
(1.0076 0.0165145 0)
(1.00762 0.0138211 0)
(1.00756 0.011182 0)
(1.00746 0.00861242 0)
(1.00737 0.00610045 0)
(1.00733 0.00363291 0)
(1.00735 0.00121061 0)
(1.01222 -0.00153272 0)
(1.01239 -0.00457351 0)
(1.01279 -0.007759 0)
(1.0134 -0.0111033 0)
(1.01418 -0.0147116 0)
(1.01511 -0.0186445 0)
(1.01611 -0.0229744 0)
(1.01709 -0.027752 0)
(1.01793 -0.0330345 6.1231e-24)
(1.01848 -0.038865 -1.20179e-22)
(1.01857 -0.045231 -2.11468e-22)
(1.01775 -0.0519784 -2.66813e-22)
(1.01541 -0.0586098 1.94225e-22)
(1.00996 -0.0657077 4.6892e-22)
(1.00373 -0.069242 2.27885e-21)
(0.994134 -0.0703969 -2.83334e-21)
(0.982745 -0.068595 -3.75174e-22)
(0.969834 -0.0611007 1.43883e-21)
(0.958943 -0.0478882 2.06899e-22)
(0.951523 -0.0314368 -1.59992e-21)
(0.949052 -0.0132128 1.18579e-21)
(0.952208 0.00430692 1.45071e-21)
(0.959746 0.0192338 -2.77338e-21)
(0.969152 0.029841 -3.84076e-22)
(0.979289 0.0363999 3.6682e-21)
(0.987845 0.0400366 -2.3918e-21)
(0.994413 0.0412054 -1.003e-22)
(1.00105 0.0398397 7.69125e-22)
(1.00522 0.0376565 -6.64056e-22)
(1.00821 0.0347222 5.98951e-23)
(1.01017 0.031301 -2.80476e-23)
(1.01118 0.0276701 1.77987e-23)
(1.01163 0.0239952 0)
(1.01175 0.0204047 0)
(1.01167 0.0169475 0)
(1.01149 0.0136334 0)
(1.01128 0.0104447 0)
(1.0111 0.00738078 0)
(1.01099 0.00438178 0)
(1.01097 0.00144751 0)
(1.01652 -0.0015886 0)
(1.01681 -0.00492105 0)
(1.01743 -0.00835445 0)
(1.01837 -0.012026 0)
(1.01959 -0.0160135 0)
(1.02106 -0.0204177 0)
(1.02271 -0.0253414 0)
(1.02444 -0.0309041 5.13555e-24)
(1.02621 -0.0372782 7.45315e-23)
(1.02788 -0.0446556 -2.10448e-22)
(1.02899 -0.0531257 5.67149e-22)
(1.02877 -0.0626868 -6.6108e-22)
(1.02621 -0.0732527 -8.8241e-22)
(1.0223 -0.0817567 4.11837e-22)
(1.01041 -0.0918527 6.7446e-22)
(0.995704 -0.0962649 -4.04559e-22)
(0.981516 -0.0872369 7.17512e-22)
(0.963398 -0.0799304 4.37142e-21)
(0.945533 -0.0642376 -1.57594e-22)
(0.932483 -0.0415138 2.19461e-21)
(0.927668 -0.01493 1.37689e-21)
(0.932347 0.0100968 2.95944e-21)
(0.943388 0.0295909 2.42938e-22)
(0.95738 0.0429733 5.4178e-21)
(0.972956 0.0580556 -5.56591e-22)
(0.986723 0.0594484 -5.50524e-22)
(0.998441 0.0566742 -1.45089e-22)
(1.00456 0.0532063 2.21424e-22)
(1.0097 0.0484678 3.84767e-22)
(1.01327 0.0436151 -7.98498e-23)
(1.01564 0.0386694 1.90099e-22)
(1.01686 0.0336973 8.49791e-24)
(1.01719 0.0288973 -5.66089e-24)
(1.01705 0.0243095 0)
(1.01671 0.0200186 0)
(1.01629 0.0159924 0)
(1.01588 0.0121998 0)
(1.01554 0.00857676 0)
(1.01532 0.00511198 0)
(1.01524 0.00169628 0)
(1.02104 -0.00168575 0)
(1.02145 -0.00504519 0)
(1.02233 -0.00854505 0)
(1.02366 -0.0123317 0)
(1.02543 -0.0164758 0)
(1.02759 -0.0211264 0)
(1.03009 -0.0264123 0)
(1.03293 -0.0325281 3.19622e-23)
(1.03632 -0.0398772 3.10843e-23)
(1.03978 -0.0488631 5.76213e-23)
(1.04266 -0.0596647 -7.76732e-22)
(1.04406 -0.0720837 7.97779e-22)
(1.04301 -0.0855298 -3.26167e-21)
(1.03276 -0.0981681 -2.94324e-21)
(1.0232 -0.10737 2.39333e-21)
(1.00722 -0.116656 -4.31041e-22)
(0.979599 -0.121442 -3.49262e-21)
(0.948059 -0.114675 -5.34219e-21)
(0.915127 -0.0946147 -2.81739e-21)
(0.890131 -0.059122 5.56264e-21)
(0.881163 -0.0143087 7.49926e-22)
(0.892069 0.0279378 1.51195e-21)
(0.915164 0.0580387 -3.33845e-21)
(0.942172 0.0742514 -6.11851e-21)
(0.965582 0.0805586 -8.69744e-22)
(0.985934 0.0780712 -5.65506e-22)
(0.999539 0.0725819 -3.35794e-22)
(1.01288 0.067506 7.05698e-22)
(1.01772 0.0599978 -4.72368e-22)
(1.02087 0.0526947 -9.24367e-22)
(1.023 0.0459955 3.9541e-22)
(1.02404 0.0396677 -1.64556e-22)
(1.0242 0.0336555 3.03385e-23)
(1.02361 0.0280573 0)
(1.02279 0.0229021 0)
(1.02197 0.018181 0)
(1.02124 0.0138093 0)
(1.02066 0.0096872 0)
(1.02027 0.00572715 0)
(1.02012 0.00188802 0)
(1.02554 -0.00162333 0)
(1.02609 -0.00484673 0)
(1.02726 -0.00831541 0)
(1.02902 -0.0119562 0)
(1.03138 -0.0160114 0)
(1.03433 -0.0205929 0)
(1.03786 -0.0259046 -8.62211e-24)
(1.04234 -0.0322898 1.11902e-23)
(1.04803 -0.0404077 2.33265e-22)
(1.05403 -0.0507002 -8.8657e-23)
(1.05967 -0.0633811 -1.39089e-22)
(1.06404 -0.078861 -1.93366e-23)
(1.06568 -0.0982111 -6.60584e-23)
(1.05481 -0.115374 -1.09063e-21)
(1.04476 -0.132367 -3.41396e-22)
(1.02464 -0.15205 2.62083e-22)
(0.99082 -0.162028 -8.22813e-22)
(0.941411 -0.166615 2.1313e-21)
(0.882659 -0.146414 3.87633e-21)
(0.830794 -0.0937933 -3.87655e-21)
(0.80983 -0.0153242 -3.37867e-21)
(0.830968 0.0576998 2.35991e-21)
(0.876694 0.103296 6.08721e-22)
(0.926407 0.1215 1.2457e-21)
(0.965649 0.119104 -1.39517e-21)
(0.996079 0.111593 3.6975e-23)
(1.01136 0.0970003 -1.19596e-21)
(1.02638 0.0840522 -2.76128e-22)
(1.02982 0.0710919 -1.17624e-22)
(1.03145 0.0608663 3.22353e-22)
(1.03255 0.0522698 9.15192e-23)
(1.03286 0.0446722 -9.21253e-23)
(1.03258 0.0376555 -1.39386e-24)
(1.03146 0.0311326 2.09147e-23)
(1.02992 0.0251964 0)
(1.02849 0.0198462 0)
(1.0273 0.0149505 0)
(1.02637 0.0104419 0)
(1.02576 0.00615331 0)
(1.02549 0.00205822 0)
(1.02974 -0.00135659 0)
(1.03043 -0.00434289 0)
(1.03184 -0.0073542 0)
(1.03403 -0.0106939 0)
(1.03701 -0.0144151 0)
(1.04083 -0.0186634 0)
(1.0456 -0.023633 2.42218e-23)
(1.05222 -0.0298805 -5.80125e-23)
(1.06076 -0.0382341 -2.08013e-23)
(1.07 -0.0490497 -1.19256e-22)
(1.0794 -0.0625718 5.29296e-22)
(1.08828 -0.0794507 -4.79634e-22)
(1.09562 -0.101809 2.11659e-22)
(1.0894 -0.125869 -9.75534e-23)
(1.0829 -0.152747 9.82596e-23)
(1.05938 -0.188131 -6.79487e-22)
(1.02175 -0.219567 7.19292e-22)
(0.955343 -0.253752 1.21345e-21)
(0.846551 -0.259624 1.70676e-22)
(0.717076 -0.186418 -7.20145e-23)
(0.653186 -0.0224862 -8.82456e-22)
(0.713335 0.136913 3.51928e-22)
(0.831458 0.206945 -6.13904e-22)
(0.9265 0.205339 8.14203e-22)
(0.989436 0.179846 -4.24487e-22)
(1.02611 0.148947 -7.43041e-21)
(1.03741 0.11927 -9.52911e-23)
(1.04749 0.0959848 6.62865e-23)
(1.0466 0.0794316 -9.53252e-23)
(1.04513 0.0666613 4.73552e-23)
(1.04417 0.0564231 7.99563e-23)
(1.04315 0.0478455 -4.60033e-23)
(1.04206 0.0401905 -8.03674e-23)
(1.04033 0.0330647 2.46761e-23)
(1.03791 0.0265954 0)
(1.03569 0.0208332 0)
(1.03388 0.0156528 0)
(1.03252 0.0108877 0)
(1.03162 0.00645665 0)
(1.03121 0.00211165 0)
(1.03341 -0.00126626 0)
(1.03424 -0.00367281 0)
(1.03591 -0.00620354 0)
(1.03853 -0.00897437 0)
(1.04206 -0.0119891 0)
(1.04664 -0.0154472 0)
(1.05277 -0.0195751 -6.20147e-24)
(1.06185 -0.0251282 2.28377e-23)
(1.07339 -0.0327151 9.69101e-25)
(1.08621 -0.0426388 -7.61371e-23)
(1.10014 -0.0554159 -1.97568e-23)
(1.11505 -0.0718152 2.51528e-24)
(1.12943 -0.091736 1.25285e-22)
(1.13247 -0.122041 -1.27953e-22)
(1.13833 -0.157806 2.44596e-22)
(1.13302 -0.209467 -1.7593e-22)
(1.11081 -0.27838 -6.98912e-23)
(1.05303 -0.385968 1.0101e-22)
(0.881729 -0.510726 -8.76006e-22)
(0.493757 -0.507552 -3.62165e-20)
(0.187684 -0.0261002 -1.42997e-20)
(0.489799 0.437901 -1.15028e-20)
(0.84688 0.444153 1.41518e-21)
(1.00629 0.331518 -2.67305e-23)
(1.06239 0.239371 5.57623e-24)
(1.07999 0.172759 2.58489e-22)
(1.07568 0.13439 1.0734e-22)
(1.0748 0.0986372 -1.6183e-22)
(1.06748 0.0820741 1.34894e-22)
(1.06141 0.0680975 -3.72696e-23)
(1.05734 0.0571391 -7.14728e-23)
(1.05438 0.0482015 2.99639e-23)
(1.05215 0.040466 -1.8625e-23)
(1.04977 0.0333023 2.02561e-23)
(1.04642 0.0266845 0)
(1.04325 0.0207933 0)
(1.04071 0.0155534 0)
(1.03881 0.0107415 0)
(1.03758 0.00627878 0)
(1.037 0.00201992 0)
(1.03634 -0.000890618 0)
(1.03721 -0.00264234 0)
(1.03913 -0.00460098 0)
(1.04197 -0.00652332 0)
(1.04592 -0.00865002 0)
(1.0511 -0.0110049 0)
(1.05865 -0.0138937 -1.35203e-23)
(1.07005 -0.0180105 -2.00521e-23)
(1.08428 -0.0236897 -3.39206e-23)
(1.10034 -0.0309941 -4.22997e-23)
(1.11857 -0.0403818 -8.29544e-23)
(1.13942 -0.0527591 4.93091e-24)
(1.16265 -0.0678537 2.09363e-22)
(1.17377 -0.0975296 -1.19784e-22)
(1.20188 -0.130508 -1.72168e-22)
(1.2235 -0.185882 -1.3773e-22)
(1.25428 -0.267812 -5.01953e-23)
(1.30445 -0.417617 1.61671e-21)
(0.998685 -0.541571 -1.00183e-19)
(1.03424 0.537163 1.77708e-20)
(1.22309 0.371692 -1.31189e-22)
(1.17819 0.235896 1.01442e-23)
(1.14699 0.160977 -2.59633e-22)
(1.11988 0.126164 -1.43484e-22)
(1.10347 0.0911632 -2.00635e-23)
(1.08889 0.0759652 1.86271e-23)
(1.07815 0.0635119 -8.46735e-24)
(1.07076 0.0534497 2.9719e-23)
(1.06559 0.0451222 -3.32217e-24)
(1.06208 0.037979 -2.44078e-24)
(1.05908 0.0313716 -8.2411e-24)
(1.0549 0.0251128 0)
(1.05074 0.0195169 0)
(1.04745 0.0145917 0)
(1.04504 0.0101869 0)
(1.04343 0.00601212 0)
(1.04265 0.00215731 0)
(1.03843 -0.000506039 0)
(1.03932 -0.0016598 0)
(1.04112 -0.00265137 0)
(1.04406 -0.00372289 0)
(1.04825 -0.00481619 0)
(1.05386 -0.00587195 0)
(1.06244 -0.00712108 -2.48284e-25)
(1.07555 -0.00909379 6.17042e-24)
(1.09153 -0.0116974 -6.02191e-24)
(1.10964 -0.0148589 -3.93053e-23)
(1.13039 -0.0186417 1.12256e-22)
(1.15534 -0.0238598 -4.36456e-23)
(1.18426 -0.0296533 -3.59809e-22)
(1.20709 -0.0527028 -2.73628e-23)
(1.25057 -0.0711918 -1.65213e-21)
(1.29516 -0.108633 -1.36386e-22)
(1.36554 -0.15465 1.43852e-23)
(1.48124 -0.202238 2.37477e-21)
(0.0140284 -0.00342219 3.60079e-19)
(0.0537838 -0.0133043 -1.60789e-19)
(1.37077 0.210403 -2.13601e-22)
(1.26372 0.157472 -1.41585e-23)
(1.19648 0.116476 -5.38168e-22)
(1.15518 0.0982453 -3.83904e-22)
(1.12586 0.0736666 3.85508e-22)
(1.1071 0.0634139 -3.28339e-22)
(1.09306 0.054025 2.84586e-23)
(1.08288 0.0457961 -2.41379e-23)
(1.07579 0.0388309 -2.15245e-24)
(1.07108 0.0328254 -3.23996e-24)
(1.06755 0.0272699 -5.37814e-25)
(1.06274 0.0218967 0)
(1.05764 0.0169857 0)
(1.05359 0.0126438 0)
(1.05063 0.00870895 0)
(1.04871 0.00507689 0)
(1.04779 0.00145503 0)
(1.03956 -0.000155701 1.59438e-25)
(1.04044 -0.000577102 0)
(1.04231 -0.00083251 0)
(1.0452 -0.0010103 0)
(1.0492 -0.000982999 0)
(1.05466 -0.000695438 0)
(1.06358 -8.49216e-05 -1.36938e-23)
(1.0772 0.000579108 1.03344e-23)
(1.09327 0.00166834 1.1478e-22)
(1.11158 0.00343646 -3.6193e-22)
(1.13276 0.00631886 2.14014e-22)
(1.15834 0.00969338 3.72927e-22)
(1.18922 0.0154963 -4.24515e-22)
(1.21998 0.00407392 5.05144e-22)
(1.26829 0.00322526 9.21822e-22)
(1.32215 -0.0116044 -8.28503e-22)
(1.39536 -0.0241429 2.36132e-22)
(1.43868 -0.0186452 1.9623e-22)
(0.118649 -0.0449601 -4.87282e-21)
(0.178034 -0.0228838 8.81104e-21)
(1.30823 0.0320058 9.34661e-22)
(1.27381 0.0577496 -1.32089e-21)
(1.20587 0.0624532 1.46011e-21)
(1.16856 0.0644803 4.00007e-22)
(1.138 0.0539536 -4.15266e-22)
(1.11945 0.0481286 -5.19392e-23)
(1.10441 0.0418122 -1.03878e-21)
(1.09277 0.0356267 -1.31639e-22)
(1.0842 0.0301541 1.5382e-22)
(1.07844 0.0254328 5.56883e-25)
(1.07447 0.0211635 -2.57273e-24)
(1.06928 0.0170841 0)
(1.0635 0.0133087 0)
(1.05887 0.00996117 0)
(1.05543 0.00686965 0)
(1.05315 0.00404019 0)
(1.05197 0.00136502 0)
(1.03952 1.143e-05 2.42193e-25)
(1.04037 0.000289854 0)
(1.04209 0.000614445 0)
(1.0447 0.0012099 0)
(1.0483 0.00219817 0)
(1.05325 0.00371015 0)
(1.06147 0.00606106 -5.49991e-24)
(1.07415 0.00927848 -2.75558e-23)
(1.08877 0.0140286 4.50406e-23)
(1.10523 0.0206544 -2.46324e-22)
(1.12425 0.0300755 5.19938e-22)
(1.14671 0.0420388 4.7836e-22)
(1.17433 0.0585958 -8.61521e-22)
(1.20887 0.0624822 -1.13093e-22)
(1.25493 0.0795206 1.3718e-21)
(1.31313 0.0869714 3.75948e-21)
(1.389 0.0960879 -2.59048e-21)
(1.43718 0.0999235 1.24767e-21)
(0.453523 -0.109203 -4.95236e-23)
(0.181221 -0.473066 -3.84989e-21)
(-0.0791897 -0.554073 -1.32814e-22)
(-0.236183 -0.402967 -4.31411e-21)
(0.201648 -0.264681 1.41009e-21)
(1.15221 -0.12309 4.48671e-22)
(1.21778 -0.0147746 1.68614e-21)
(1.18298 0.0283318 7.48299e-22)
(1.16451 0.0406705 1.07881e-21)
(1.14302 0.0391491 -5.51646e-22)
(1.127 0.034133 4.1181e-22)
(1.11262 0.0291871 8.03126e-23)
(1.10031 0.0243075 -2.04786e-22)
(1.09085 0.0200618 1.69682e-22)
(1.08412 0.0165346 1.14258e-23)
(1.07953 0.0135808 7.72696e-24)
(1.0739 0.0109421 0)
(1.06774 0.00860065 0)
(1.06279 0.00654329 0)
(1.05914 0.00465864 0)
(1.05671 0.00287137 0)
(1.05563 0.00120212 0)
(1.03918 0.000265848 2.73241e-23)
(1.03974 0.000908417 0)
(1.04112 0.00178842 0)
(1.04321 0.0029269 0)
(1.0461 0.00455257 0)
(1.05003 0.00676964 0)
(1.05668 0.0100172 -5.19885e-25)
(1.06711 0.014975 3.59249e-23)
(1.07877 0.0225434 -1.67825e-22)
(1.09139 0.0329142 -7.00548e-23)
(1.10547 0.0475006 7.46317e-22)
(1.1215 0.0663112 2.98237e-22)
(1.14113 0.0922899 -1.02803e-21)
(1.17269 0.113163 -2.11002e-22)
(1.21112 0.147753 5.85557e-23)
(1.26399 0.197474 1.53482e-21)
(1.34177 0.237643 1.84152e-22)
(1.44145 0.305846 -7.3077e-22)
(0.967363 0.15626 2.68775e-21)
(0.524568 -0.0943128 -1.19191e-20)
(0.00389396 -0.313229 1.0638e-21)
(-0.377347 -0.459372 7.65028e-22)
(-0.00438964 -0.371363 -7.10786e-22)
(0.892661 -0.116648 -1.50611e-21)
(1.13022 1.27211e-05 -1.15593e-21)
(1.1563 0.0333022 -1.91694e-22)
(1.15786 0.0350376 -5.97184e-22)
(1.1477 0.0277473 -1.72865e-21)
(1.13384 0.0217404 -2.57278e-21)
(1.11924 0.0165602 -1.02917e-21)
(1.10629 0.0123689 -1.15618e-23)
(1.09571 0.00908136 1.37412e-22)
(1.0881 0.00668612 -1.56991e-23)
(1.08271 0.00497153 3.63703e-25)
(1.07642 0.0038792 0)
(1.06992 0.00308561 0)
(1.06471 0.00235359 0)
(1.06098 0.00161415 0)
(1.05864 0.000846243 0)
(1.05734 5.51318e-06 2.28482e-23)
(1.03824 0.000419919 3.40761e-23)
(1.0387 0.00119435 0)
(1.03968 0.00218288 0)
(1.04122 0.00339472 0)
(1.04331 0.00511622 0)
(1.04608 0.00744167 0)
(1.05064 0.0109734 0)
(1.05776 0.016759 8.46331e-24)
(1.06523 0.025691 -6.12951e-23)
(1.07241 0.0380431 2.20071e-22)
(1.0796 0.0551711 -7.68708e-24)
(1.08658 0.0778814 2.38101e-22)
(1.09468 0.10807 -1.51957e-22)
(1.10484 0.15344 -2.9026e-22)
(1.13635 0.197864 -8.65372e-22)
(1.16381 0.264916 3.5429e-21)
(1.21567 0.349799 4.04533e-21)
(1.28278 0.487883 2.00586e-20)
(1.20392 0.645901 -9.75828e-21)
(0.761279 0.561706 1.32237e-20)
(0.303965 0.407346 -7.9327e-21)
(-0.13769 0.193827 3.49584e-21)
(-0.141207 -0.00458537 -2.07711e-21)
(0.637392 0.0606065 -1.23783e-19)
(1.13045 0.105982 -1.04536e-21)
(1.1688 0.0623496 -5.37162e-22)
(1.17592 0.0327637 7.46976e-23)
(1.15887 0.0154228 5.42101e-22)
(1.14158 0.00809096 -1.33945e-22)
(1.12496 0.00246045 -1.81408e-22)
(1.1105 -0.000757196 -4.66112e-23)
(1.09874 -0.00279385 1.78503e-23)
(1.09026 -0.00399974 -2.45296e-23)
(1.08364 -0.00431841 0)
(1.07664 -0.00365785 0)
(1.07001 -0.00285828 0)
(1.06479 -0.00220515 0)
(1.06099 -0.00164249 0)
(1.05838 -0.0010174 0)
(1.0568 -0.000354527 -4.94964e-23)
(1.03702 0.000313281 -6.54865e-24)
(1.03743 0.00109966 0)
(1.0382 0.00188905 0)
(1.0393 0.0028899 0)
(1.04064 0.00428044 0)
(1.04217 0.00618818 0)
(1.04429 0.00919409 0)
(1.04733 0.0145695 0)
(1.04995 0.023071 -5.47966e-24)
(1.05148 0.034718 -1.05911e-22)
(1.05123 0.0507383 1.32301e-22)
(1.04822 0.0724727 -1.84789e-22)
(1.04336 0.100695 5.39336e-22)
(1.0347 0.145586 3.82118e-23)
(1.04732 0.197963 2.09879e-22)
(1.0398 0.268026 1.06919e-21)
(1.04402 0.371943 -1.06809e-21)
(1.01961 0.519683 1.6117e-21)
(0.980589 0.708523 1.2708e-20)
(0.8013 0.848562 -1.10559e-20)
(0.472819 0.86052 -4.69075e-21)
(0.179243 0.734415 -2.8164e-21)
(0.152669 0.491877 2.8777e-21)
(0.636831 0.25308 7.18071e-20)
(1.23879 0.133113 4.84868e-22)
(1.23228 0.0583388 -4.69252e-22)
(1.20356 0.00387458 4.57928e-22)
(1.17419 -0.00787904 -7.66731e-22)
(1.14935 -0.0126067 -1.08527e-22)
(1.12918 -0.0157516 -8.27116e-23)
(1.11274 -0.0162831 4.85664e-23)
(1.09986 -0.01625 -3.88479e-24)
(1.09009 -0.015447 0)
(1.08194 -0.0136489 0)
(1.07438 -0.0109731 0)
(1.06791 -0.00850419 0)
(1.0629 -0.0063177 2.01378e-22)
(1.05924 -0.0043173 2.78492e-22)
(1.0568 -0.0024145 1.66068e-22)
(1.05547 -0.000709815 0)
(1.03616 0.000190229 0)
(1.03641 0.00059298 0)
(1.037 0.00101895 0)
(1.0378 0.00160003 0)
(1.03863 0.00234404 0)
(1.03917 0.00336572 0)
(1.03905 0.00504145 0)
(1.03848 0.00842848 0)
(1.03686 0.014265 -1.15687e-25)
(1.0337 0.0223542 4.86747e-24)
(1.02723 0.0335017 9.00116e-24)
(1.01576 0.0487389 5.37421e-25)
(0.997269 0.0692753 4.98546e-23)
(0.972675 0.101096 -8.14763e-23)
(0.963506 0.154041 2.25314e-20)
(0.923079 0.21454 -5.93831e-22)
(0.876947 0.312767 -2.73692e-21)
(0.824714 0.425076 -3.37742e-21)
(0.752401 0.571133 5.57167e-21)
(0.622988 0.740657 -4.31705e-21)
(0.462392 0.842905 -5.57089e-21)
(0.381424 0.784582 2.91503e-21)
(0.52953 0.55168 -7.52283e-21)
(0.984526 0.239444 -1.31323e-21)
(1.36677 0.0225076 1.3467e-21)
(1.29575 -0.0163495 6.34478e-22)
(1.22121 -0.0525648 -5.28501e-22)
(1.18107 -0.0476448 5.97491e-22)
(1.15111 -0.0432091 -4.37271e-22)
(1.12848 -0.0393363 2.45036e-23)
(1.11088 -0.0347624 -1.13644e-24)
(1.09723 -0.0309398 2.37451e-26)
(1.08631 -0.0267569 0)
(1.07716 -0.0221641 0)
(1.06958 -0.0173658 0)
(1.06366 -0.0132514 0)
(1.05919 -0.00967037 0)
(1.05596 -0.00653254 0)
(1.05388 -0.00372425 0)
(1.05279 -0.00117418 -2.9909e-23)
(1.03581 3.5153e-05 0)
(1.03608 -1.16546e-05 0)
(1.0366 -2.83616e-05 0)
(1.03728 -3.65265e-05 0)
(1.03797 -0.000109331 0)
(1.03814 -0.000248718 0)
(1.0369 -0.000358268 0)
(1.03427 8.58134e-05 0)
(1.0303 0.00158333 0)
(1.02438 0.00363888 0)
(1.01436 0.00677861 1.14911e-24)
(0.997681 0.0103193 -1.04728e-23)
(0.969848 0.0174831 1.87776e-22)
(0.929623 0.0254028 -2.40794e-22)
(0.900942 0.0722463 6.97326e-20)
(0.836149 0.114373 -4.0357e-23)
(0.762788 0.180727 2.96547e-20)
(0.621769 0.297104 -1.04287e-21)
(0.497516 0.476367 2.01116e-21)
(0.439847 0.609789 -2.8813e-21)
(0.49393 0.603207 8.52608e-21)
(0.657772 0.431433 1.30674e-20)
(0.954568 0.154042 -1.87862e-21)
(1.30567 -0.0858755 8.2178e-22)
(1.39964 -0.16671 2.9301e-21)
(1.29636 -0.131418 -1.24923e-22)
(1.20622 -0.117566 -1.1244e-22)
(1.16664 -0.0946537 9.34698e-23)
(1.13884 -0.0772271 6.83167e-23)
(1.11791 -0.0639984 -3.8439e-24)
(1.10165 -0.0528486 0)
(1.08873 -0.0441111 0)
(1.07803 -0.0361436 0)
(1.06911 -0.0289243 0)
(1.06236 -0.0223263 0)
(1.05749 -0.0168608 0)
(1.05389 -0.0122282 0)
(1.05131 -0.00828188 0)
(1.04967 -0.00477013 0)
(1.04886 -0.00154183 0)
(1.03603 -4.33343e-05 0)
(1.03643 -0.000318167 0)
(1.03705 -0.000706946 0)
(1.03788 -0.00129258 0)
(1.03883 -0.00216233 0)
(1.03934 -0.00346221 0)
(1.03827 -0.00531607 0)
(1.03552 -0.00776618 0)
(1.03174 -0.0108068 0)
(1.0264 -0.0155117 0)
(1.01733 -0.0218728 0)
(1.00165 -0.0327687 1.75756e-26)
(0.973098 -0.0436468 4.46728e-23)
(0.926054 -0.0661089 1.86341e-23)
(0.865751 -0.0428947 2.31588e-20)
(0.785522 -0.0248149 -6.99045e-21)
(0.6556 0.0459313 1.95559e-20)
(0.472931 0.0896643 -1.29504e-21)
(0.401744 0.064828 -9.85596e-22)
(0.473403 -0.0222612 1.04347e-21)
(0.683019 -0.15273 1.78969e-21)
(0.950257 -0.301304 8.24878e-21)
(1.21598 -0.40661 -5.74474e-21)
(1.36893 -0.403318 3.41749e-21)
(1.29355 -0.310627 4.14826e-22)
(1.22519 -0.222474 -5.90221e-22)
(1.15699 -0.167647 -2.97452e-21)
(1.12977 -0.13119 4.1867e-23)
(1.11088 -0.103308 7.94002e-25)
(1.09633 -0.0820979 0)
(1.08455 -0.0654364 0)
(1.07465 -0.0525977 0)
(1.06588 -0.0418856 0)
(1.05846 -0.0329864 0)
(1.05326 -0.0253187 0)
(1.04989 -0.019022 0)
(1.04746 -0.0137244 0)
(1.04572 -0.00924113 0)
(1.04465 -0.00528878 0)
(1.04415 -0.00167823 0)
(1.03634 -6.01666e-05 0)
(1.03701 -0.000363547 0)
(1.03795 -0.000881166 0)
(1.03923 -0.00175118 0)
(1.04086 -0.00309011 0)
(1.04234 -0.00515768 0)
(1.04254 -0.00828449 0)
(1.04142 -0.0129068 0)
(1.04036 -0.0194609 0)
(1.03922 -0.0294066 0)
(1.03636 -0.0435873 1.43949e-23)
(1.02953 -0.0663752 0)
(1.01177 -0.0955017 0)
(0.964772 -0.138225 4.90091e-21)
(0.858169 -0.194167 -3.34338e-21)
(0.736693 -0.162136 3.8867e-20)
(0.645869 -0.184526 -1.36692e-22)
(0.624032 -0.315796 4.01233e-22)
(0.633907 -0.485578 -5.29959e-21)
(0.721146 -0.637265 1.41904e-20)
(0.869323 -0.717008 -3.35699e-21)
(1.02729 -0.718264 1.1223e-20)
(1.1359 -0.628228 1.91038e-21)
(1.16182 -0.480631 1.30933e-21)
(1.13558 -0.347036 1.58212e-22)
(1.09971 -0.249766 -3.12099e-22)
(1.09059 -0.190655 -3.66741e-22)
(1.07964 -0.148143 0)
(1.07246 -0.115102 0)
(1.06712 -0.0895627 -4.12041e-23)
(1.06197 -0.0699608 0)
(1.05691 -0.0549138 0)
(1.0515 -0.0429612 0)
(1.04649 -0.03348 0)
(1.04329 -0.0256574 0)
(1.04161 -0.0193028 0)
(1.0405 -0.013959 0)
(1.03974 -0.00940339 -3.31432e-23)
(1.03935 -0.00539296 -2.37773e-23)
(1.03926 -0.0017156 0)
(1.03659 -5.6922e-05 0)
(1.03749 -0.000199161 0)
(1.03885 -0.000528506 0)
(1.04079 -0.0012249 0)
(1.04334 -0.00245941 0)
(1.04626 -0.00452691 0)
(1.04861 -0.00792544 0)
(1.05044 -0.013401 0)
(1.05382 -0.0215469 0)
(1.05931 -0.03378 0)
(1.06659 -0.0513809 -3.62084e-23)
(1.07458 -0.0793003 0)
(1.07935 -0.119914 0)
(1.04984 -0.176918 -3.86312e-21)
(0.951618 -0.275722 -2.90749e-20)
(0.826605 -0.38527 2.01837e-21)
(0.833963 -0.50519 0)
(0.815724 -0.584227 8.45342e-22)
(0.794563 -0.623352 -1.60843e-21)
(0.805196 -0.643824 -1.17788e-21)
(0.861763 -0.615841 1.68325e-21)
(0.915385 -0.542643 -1.15014e-20)
(0.955132 -0.454914 1.8354e-22)
(0.976457 -0.372595 0)
(0.997516 -0.305569 -1.44682e-21)
(1.0146 -0.243759 -1.9663e-21)
(1.02032 -0.188601 -3.4059e-22)
(1.02571 -0.144863 0)
(1.031 -0.111661 0)
(1.03515 -0.085614 9.16113e-23)
(1.03733 -0.0658245 0)
(1.03789 -0.0505862 0)
(1.03663 -0.0387896 0)
(1.03472 -0.029786 0)
(1.03382 -0.0227865 0)
(1.03382 -0.017258 5.99606e-23)
(1.0339 -0.0126327 -7.79179e-23)
(1.03396 -0.00866931 0)
(1.03412 -0.00508034 0)
(1.03439 -0.00174108 -1.83104e-22)
(1.03665 8.85321e-05 0)
(1.0376 0.000294974 0)
(1.03927 0.000431002 0)
(1.04179 0.000308886 0)
(1.04527 -0.000215843 0)
(1.04969 -0.00139844 0)
(1.05452 -0.00371465 -2.94832e-23)
(1.05988 -0.00807714 0)
(1.06797 -0.0150556 0)
(1.08012 -0.0254137 0)
(1.09774 -0.0403237 0)
(1.1213 -0.0624456 0)
(1.15207 -0.0970512 0)
(1.16538 -0.144966 -8.16743e-23)
(1.1108 -0.241261 2.13618e-22)
(1.00338 -0.371491 7.13622e-24)
(0.946699 -0.496213 0)
(0.872706 -0.576067 0)
(0.817579 -0.623001 1.33719e-21)
(0.784061 -0.635585 4.3925e-20)
(0.778435 -0.606751 1.11623e-20)
(0.79477 -0.524062 -1.5956e-21)
(0.831368 -0.436666 0)
(0.874976 -0.350693 0)
(0.911722 -0.276973 0)
(0.939623 -0.213295 6.90138e-24)
(0.956574 -0.16212 -3.54182e-23)
(0.974722 -0.122851 -6.1854e-23)
(0.992212 -0.0930176 0)
(1.00498 -0.069883 0)
(1.01414 -0.0526007 0)
(1.02006 -0.0393701 0)
(1.0231 -0.0293418 2.63126e-22)
(1.02464 -0.022065 1.07829e-22)
(1.02617 -0.016843 5.4323e-24)
(1.02768 -0.0128548 0)
(1.02872 -0.00951676 0)
(1.02933 -0.00664186 0)
(1.02972 -0.00396998 0)
(1.02997 -0.0013927 0)
(1.03607 0.000360584 0)
(1.037 0.00109856 0)
(1.03881 0.00185555 0)
(1.04164 0.00256488 0)
(1.04566 0.00319846 0)
(1.05104 0.00361707 0)
(1.05773 0.00357011 0)
(1.066 0.00231414 0)
(1.07758 -0.000700267 -1.31068e-23)
(1.0941 -0.00515635 0)
(1.11798 -0.0119178 0)
(1.15116 -0.0196823 0)
(1.19784 -0.0333378 -1.38624e-22)
(1.24881 -0.049445 -9.2987e-22)
(1.26029 -0.100503 0)
(1.18243 -0.189665 0)
(1.09257 -0.304877 0)
(0.98091 -0.388468 0)
(0.876726 -0.469834 3.24176e-20)
(0.786918 -0.481038 4.95778e-20)
(0.720357 -0.483549 -8.32688e-22)
(0.692649 -0.42979 7.28534e-22)
(0.709606 -0.371003 0)
(0.754994 -0.299398 0)
(0.804545 -0.225129 0)
(0.854976 -0.15923 0)
(0.899073 -0.110947 6.22681e-22)
(0.93243 -0.0803208 -1.0011e-21)
(0.959532 -0.0576336 0)
(0.980451 -0.041712 -7.54073e-24)
(0.995828 -0.0301704 -2.54316e-25)
(1.00628 -0.0216115 4.18545e-24)
(1.01309 -0.0153679 0)
(1.01774 -0.0112631 0)
(1.02128 -0.00866344 0)
(1.02382 -0.0067343 0)
(1.02544 -0.00504897 0)
(1.02637 -0.00351784 0)
(1.02685 -0.00208231 0)
(1.0271 -0.000581864 0)
(1.03465 0.000552248 0)
(1.03554 0.00191035 0)
(1.03726 0.00334792 0)
(1.03998 0.00503818 0)
(1.04388 0.00703169 0)
(1.04927 0.00936658 0)
(1.05645 0.0120588 0)
(1.06587 0.0148038 0)
(1.07859 0.0172201 0)
(1.09583 0.0204854 0)
(1.11956 0.0243123 2.758e-22)
(1.1524 0.0326142 -3.83211e-23)
(1.19753 0.0431506 2.63091e-22)
(1.2581 0.0648254 2.95493e-22)
(1.31158 0.078135 0)
(1.28612 0.0723907 0)
(1.22291 0.0190444 0)
(1.10802 -0.0154186 0)
(0.971644 -0.0883568 1.15416e-19)
(0.837308 -0.0879616 -1.75962e-19)
(0.722494 -0.12403 2.2826e-21)
(0.657707 -0.12266 -9.98846e-21)
(0.655281 -0.125488 0)
(0.682542 -0.112991 0)
(0.722904 -0.089245 0)
(0.783281 -0.0585719 0)
(0.849619 -0.0285855 -5.19772e-21)
(0.90177 -0.0118184 -1.08027e-20)
(0.940072 -0.00482607 -2.36369e-21)