/*--------------------------------*- C++ -*----------------------------------*\
| =========                 |                                                 |
| \\      /  F ield         | OpenFOAM: The Open Source CFD Toolbox           |
|  \\    /   O peration     | Version:  v2106                                 |
|   \\  /    A nd           | Website:  www.openfoam.com                      |
|    \\/     M anipulation  |                                                 |
\*---------------------------------------------------------------------------*/
FoamFile
{
    version     2.0;
    format      ascii;
    arch        "LSB;label=32;scalar=64";
    class       volVectorField;
    location    "0";
    object      U;
}
// * * * * * * * * * * * * * * * * * * * * * * * * * * * * * * * * * * * * * //

dimensions      [0 1 -1 0 0 0 0];

internalField   nonuniform List<vector> 
11644
(
(1.00007 -0.000243147 1.34991e-22)
(0.999951 -0.000642665 3.72266e-22)
(0.999878 -0.000947599 1.9973e-22)
(0.999856 -0.00126087 0)
(0.999853 -0.00159445 0)
(0.999852 -0.00194652 0)
(0.999851 -0.00231761 0)
(0.999846 -0.00270117 0)
(0.999845 -0.00308628 0)
(0.999839 -0.00346522 0)
(0.999847 -0.00381248 0)
(0.999815 -0.00412158 0)
(0.999811 -0.0043548 0)
(1.00003 -0.00448284 0)
(0.999892 -0.00449877 0)
(0.999893 -0.00437579 0)
(0.999971 -0.00410622 0)
(0.999811 -0.00361784 0)
(0.9997 -0.00297695 0)
(0.999722 -0.0022974 3.23233e-30)
(0.999679 -0.00164722 -3.22326e-30)
(0.999357 -0.000787462 0)
(0.999236 0.000426474 0)
(0.99958 0.00145314 0)
(0.999879 0.00196999 0)
(0.999923 0.00226617 0)
(1.00007 0.0025727 0)
(0.999908 0.00266317 0)
(0.999844 0.00269311 0)
(0.999843 0.0026312 0)
(0.999855 0.00249739 0)
(0.999851 0.00231186 0)
(0.999851 0.00208683 0)
(0.999851 0.0018392 0)
(0.99985 0.00157934 0)
(0.999852 0.00131525 0)
(0.999856 0.00105338 0)
(0.99987 0.000798589 0)
(0.99993 0.000547156 0)
(1.00004 0.000208231 2.61734e-23)
(1.0009 -0.000491947 1.73395e-22)
(1.00082 -0.00150251 1.6062e-22)
(1.00077 -0.00253411 8.62637e-23)
(1.00076 -0.00357158 0)
(1.0008 -0.00463299 0)
(1.00085 -0.00573881 0)
(1.0009 -0.00689282 0)
(1.00094 -0.008087 0)
(1.00095 -0.00930587 0)
(1.00094 -0.0105071 0)
(1.00083 -0.0116658 0)
(1.00072 -0.0126807 0)
(1.00053 -0.0134926 0)
(0.999918 -0.0140913 0)
(0.999706 -0.0141775 0)
(0.999199 -0.0138348 -3.86107e-24)
(0.998444 -0.0128769 7.85645e-24)
(0.998035 -0.0114561 2.88028e-23)
(0.997849 -0.00970241 7.48458e-23)
(0.997695 -0.00756248 -7.03895e-23)
(0.997391 -0.00493274 -1.30144e-23)
(0.997121 -0.00205784 -7.58096e-24)
(0.997174 0.000603701 -1.3553e-23)
(0.997681 0.00294985 -1.92436e-24)
(0.998411 0.00496412 2.29939e-25)
(0.998936 0.00642179 0)
(0.999092 0.00730716 0)
(0.999649 0.00784919 0)
(1 0.0079791 0)
(1.00021 0.00779828 0)
(1.00035 0.00739834 0)
(1.00047 0.00682767 0)
(1.00053 0.00614873 0)
(1.00057 0.00539714 0)
(1.00059 0.00460351 0)
(1.00059 0.00379246 0)
(1.00059 0.00297075 0)
(1.00061 0.00213671 0)
(1.00067 0.00128195 0)
(1.00075 0.000425018 0)
(1.0026 -0.000777143 0)
(1.00257 -0.00237168 0)
(1.00258 -0.00404276 0)
(1.00265 -0.00577415 0)
(1.00278 -0.00757068 1.58393e-22)
(1.00293 -0.00945404 0)
(1.00308 -0.0114314 0)
(1.00321 -0.0135016 0)
(1.00329 -0.0156369 0)
(1.00324 -0.0178122 0)
(1.0031 -0.0199045 0)
(1.00268 -0.0218734 0)
(1.00195 -0.0235388 -1.42476e-25)
(1.00139 -0.0246229 5.29312e-23)
(0.99982 -0.0251988 7.13825e-24)
(0.99824 -0.024842 3.62537e-22)
(0.996888 -0.0235927 -6.83902e-22)
(0.995435 -0.0214008 1.10203e-21)
(0.994045 -0.0181193 -1.82666e-21)
(0.992781 -0.0137128 1.9851e-21)
(0.992009 -0.00859389 -1.72724e-21)
(0.991952 -0.00338308 3.2642e-22)
(0.992674 0.00122646 1.08242e-22)
(0.993943 0.00513019 2.26404e-22)
(0.995423 0.00846139 1.67058e-22)
(0.9969 0.0110163 -5.39982e-23)
(0.998478 0.0127168 -4.19923e-23)
(0.999322 0.0134755 1.42944e-25)
(1.00012 0.0136364 0)
(1.00082 0.0132698 0)
(1.00135 0.0125183 0)
(1.00167 0.0115101 0)
(1.00189 0.01032 0)
(1.00201 0.00902536 0)
(1.00207 0.00766991 0)
(1.00209 0.00628311 0)
(1.00209 0.00488112 0)
(1.00211 0.00346977 0)
(1.00215 0.00205374 0)
(1.00222 0.000673896 0)
(1.00514 -0.00105006 0)
(1.00516 -0.00320576 0)
(1.00527 -0.00545012 0)
(1.00547 -0.00779199 0)
(1.00575 -0.0102646 0)
(1.00608 -0.0128932 0)
(1.00642 -0.0156913 0)
(1.00673 -0.0186653 0)
(1.00693 -0.0218045 0)
(1.00697 -0.0250344 0)
(1.00665 -0.0283316 -2.92929e-25)
(1.00596 -0.0315105 1.51991e-23)
(1.00478 -0.0343167 4.89993e-22)
(1.00241 -0.0367492 -2.13283e-22)
(1.00026 -0.0377803 -5.62079e-22)
(0.997163 -0.0376719 -3.2789e-22)
(0.993596 -0.0359591 -1.71186e-22)
(0.99006 -0.0323874 1.488e-21)
(0.986909 -0.0268088 -1.57015e-21)
(0.98433 -0.0198128 8.10786e-22)
(0.983012 -0.0120033 8.95426e-23)
(0.983294 -0.00409118 4.86644e-22)
(0.985169 0.00305491 -1.4931e-21)
(0.987739 0.00894837 4.32567e-23)
(0.990692 0.0137646 4.66167e-22)
(0.993632 0.0172193 5.19213e-22)
(0.996066 0.0193343 3.92363e-22)
(0.998865 0.0202921 -4.03936e-22)
(1.00074 0.0202558 -6.04616e-23)
(1.00203 0.0194906 1.40347e-26)
(1.00296 0.0182054 0)
(1.00363 0.0165653 0)
(1.00402 0.0147401 0)
(1.00424 0.0127967 0)
(1.00435 0.0108035 0)
(1.00438 0.00879527 0)
(1.00438 0.00679902 0)
(1.00438 0.00481941 0)
(1.0044 0.00287008 0)
(1.00445 0.000945033 0)
(1.00839 -0.00128727 0)
(1.00849 -0.00390691 0)
(1.00874 -0.00661415 0)
(1.00913 -0.00947893 0)
(1.00965 -0.0125433 0)
(1.01026 -0.0158456 0)
(1.0109 -0.019421 0)
(1.01152 -0.0232932 0)
(1.012 -0.0274643 0)
(1.01218 -0.0319422 -3.70298e-23)
(1.01199 -0.0366544 9.02244e-24)
(1.01121 -0.041445 -2.95662e-22)
(1.00936 -0.0460414 7.03797e-22)
(1.00721 -0.0494727 -3.32229e-21)
(1.00216 -0.0522721 -4.61129e-22)
(0.996676 -0.0526903 1.70864e-21)
(0.990535 -0.0507721 1.04934e-21)
(0.982939 -0.0456564 6.82664e-25)
(0.976499 -0.037211 4.1509e-21)
(0.971504 -0.026279 -4.82395e-22)
(0.969393 -0.0141405 4.22693e-21)
(0.97066 -0.00215799 -7.05219e-21)
(0.974567 0.00821631 -9.0654e-22)
(0.979437 0.0163471 -8.74491e-22)
(0.984433 0.0223986 -1.48945e-21)
(0.989814 0.0264425 -2.06836e-22)
(0.995057 0.0285033 3.74745e-21)
(0.998526 0.029092 -9.60231e-22)
(1.00167 0.0284386 5.19472e-22)
(1.00406 0.0268629 -1.83329e-23)
(1.00558 0.0247165 -2.11334e-24)
(1.0065 0.0222164 0)
(1.00708 0.0195265 0)
(1.00737 0.0167995 0)
(1.00748 0.014084 0)
(1.00749 0.0114126 0)
(1.00745 0.00879952 0)
(1.0074 0.00624041 0)
(1.00739 0.00371254 0)
(1.00743 0.0012388 0)
(1.01218 -0.00148598 0)
(1.01237 -0.0044499 0)
(1.0128 -0.00755279 0)
(1.01346 -0.0108072 0)
(1.01431 -0.0143193 0)
(1.01531 -0.0181546 0)
(1.01642 -0.0223874 0)
(1.01754 -0.0270748 0)
(1.01853 -0.032285 3.6866e-24)
(1.01931 -0.0380962 -2.37137e-22)
(1.01972 -0.044515 -1.51119e-22)
(1.01919 -0.0514055 -7.98905e-22)
(1.01709 -0.0582077 5.18769e-22)
(1.01186 -0.0655286 3.97907e-22)
(1.00558 -0.0693122 2.01117e-21)
(0.995702 -0.0705896 -9.98789e-22)
(0.983763 -0.0687941 -1.47397e-21)
(0.970449 -0.0613642 -4.59549e-22)
(0.959202 -0.0482287 1.65437e-21)
(0.951542 -0.0319003 -2.7821e-21)
(0.948752 -0.0137904 1.80992e-21)
(0.951622 0.0036697 2.41516e-21)
(0.958795 0.0186648 -2.71267e-21)
(0.967916 0.0295138 5.42138e-22)
(0.977764 0.0362791 2.11541e-21)
(0.986148 0.0401359 -2.06087e-21)
(0.992683 0.0415402 -2.08763e-22)
(0.999532 0.0403348 6.10534e-22)
(1.00393 0.0383105 -2.61441e-22)
(1.00722 0.0355093 -1.33362e-22)
(1.0095 0.0321282 2.03451e-22)
(1.01075 0.0284567 -4.96516e-24)
(1.01134 0.024709 0)
(1.01159 0.0210208 0)
(1.01161 0.0174632 0)
(1.01151 0.014047 0)
(1.01136 0.0107578 0)
(1.01122 0.00759628 0)
(1.01114 0.00451401 0)
(1.01114 0.00148491 0)
(1.01635 -0.00152293 0)
(1.01664 -0.00473969 0)
(1.01729 -0.0080357 0)
(1.01826 -0.0115767 0)
(1.01954 -0.015415 0)
(1.02108 -0.0196569 0)
(1.02282 -0.0243978 0)
(1.02468 -0.0297619 3.44007e-24)
(1.02669 -0.0359749 6.52959e-23)
(1.02871 -0.0432689 -3.30115e-22)
(1.03019 -0.0517315 2.09288e-22)
(1.03034 -0.0612988 -2.17716e-22)
(1.02806 -0.0719628 -2.80183e-22)
(1.02425 -0.0805022 1.55315e-22)
(1.01235 -0.0907265 -7.03257e-22)
(0.997402 -0.0951924 7.53367e-22)
(0.982761 -0.08651 5.19424e-21)
(0.964323 -0.0792444 4.79506e-21)
(0.946126 -0.0638379 8.44301e-22)
(0.932857 -0.0412998 2.32046e-21)
(0.927688 -0.0148828 3.25644e-21)
(0.931942 0.0101182 1.99188e-21)
(0.942415 0.029798 1.85438e-21)
(0.956081 0.0435887 8.27384e-21)
(0.971097 0.0590974 -1.26555e-21)
(0.984892 0.0606778 6.23325e-22)
(0.996681 0.0581038 4.9274e-22)
(1.00288 0.054672 5.9218e-22)
(1.00828 0.0500071 -1.16266e-21)
(1.01219 0.0451472 1.83951e-22)
(1.01498 0.0401655 2.78061e-22)
(1.01654 0.0350855 -4.55631e-23)
(1.0171 0.0301098 -9.95719e-24)
(1.01708 0.0253211 0)
(1.01683 0.020836 0)
(1.01648 0.016634 0)
(1.01612 0.012687 0)
(1.01582 0.00891434 0)
(1.01562 0.00531181 0)
(1.01555 0.00176713 0)
(1.02068 -0.00164608 0)
(1.0211 -0.00483694 0)
(1.02199 -0.00820033 0)
(1.02333 -0.011797 0)
(1.02511 -0.0157374 0)
(1.0273 -0.0201503 0)
(1.02986 -0.0251682 0)
(1.03284 -0.0310065 5.09517e-23)
(1.03658 -0.0381376 1.0113e-22)
(1.04047 -0.0469727 7.05338e-23)
(1.04374 -0.0576359 -1.07432e-21)
(1.0455 -0.0699427 3.53906e-22)
(1.0448 -0.0831885 -3.47918e-21)
(1.03483 -0.096264 -3.0039e-21)
(1.02517 -0.105236 3.79694e-21)
(1.00921 -0.114328 -1.22912e-21)
(0.98127 -0.119515 -3.75351e-21)
(0.949347 -0.113098 -4.72291e-21)
(0.916061 -0.0934583 -4.51474e-21)
(0.890728 -0.0582163 1.92267e-21)
(0.881237 -0.013509 -2.32157e-21)
(0.891491 0.0288205 1.12268e-21)
(0.91373 0.0593031 -7.88503e-21)
(0.940315 0.0759207 -5.31698e-21)
(0.963505 0.0826011 -3.60553e-21)
(0.984011 0.08032 1.93119e-21)
(0.997826 0.0748157 -1.44661e-22)
(1.01116 0.0702027 4.56941e-22)
(1.01644 0.0624933 -4.55712e-22)
(1.01995 0.0549908 -9.43898e-22)
(1.0225 0.0481224 5.06584e-22)
(1.02393 0.041599 -2.8783e-22)
(1.02443 0.0353231 3.61367e-23)
(1.02399 0.029424 0)
(1.02322 0.023974 0)
(1.02244 0.0189981 0)
(1.02172 0.0144001 0)
(1.02115 0.0100948 0)
(1.02077 0.00594679 0)
(1.02062 0.00196189 0)
(1.02498 -0.00150127 0)
(1.02552 -0.00460623 0)
(1.02667 -0.00789555 0)
(1.0284 -0.0113517 0)
(1.03073 -0.0151898 0)
(1.03366 -0.0195061 0)
(1.03719 -0.0245011 -1.18962e-24)
(1.04186 -0.030574 7.07766e-23)
(1.04797 -0.0384305 4.93012e-23)
(1.05436 -0.0484388 -1.18604e-22)
(1.06036 -0.0607465 -1.39197e-22)
(1.06509 -0.0757951 6.8549e-22)
(1.06714 -0.0948669 -5.97557e-22)
(1.05659 -0.112077 3.92724e-23)
(1.0467 -0.128847 -4.0623e-22)
(1.02674 -0.148652 2.92785e-22)
(0.99291 -0.159363 -1.04615e-21)
(0.943638 -0.164846 4.57785e-21)
(0.884069 -0.145066 2.68842e-21)
(0.83163 -0.0928848 -3.61078e-21)
(0.809865 -0.0145267 -5.59834e-21)
(0.830023 0.0587687 -8.17915e-22)
(0.875066 0.105239 -1.59425e-21)
(0.923971 0.123886 2.22207e-21)
(0.963213 0.122241 -1.06578e-21)
(0.99368 0.115293 2.45335e-22)
(1.0094 0.100809 -8.75229e-23)
(1.02509 0.0877948 -4.76633e-22)
(1.02895 0.0746569 2.69853e-23)
(1.03094 0.0639531 4.06829e-22)
(1.03243 0.0548991 -1.53145e-22)
(1.03314 0.0469507 5.88222e-24)
(1.03323 0.0396007 1.84e-23)
(1.03231 0.0326941 2.32822e-23)
(1.03076 0.0263944 0)
(1.02931 0.0207345 0)
(1.02808 0.0155808 0)
(1.02713 0.0108567 0)
(1.02649 0.0064107 0)
(1.02621 0.00213681 0)
(1.02899 -0.00131792 0)
(1.02965 -0.00415749 0)
(1.031 -0.00699367 0)
(1.03313 -0.0101703 0)
(1.03602 -0.0136614 0)
(1.03973 -0.0176358 0)
(1.04445 -0.0222743 3.90437e-23)
(1.05132 -0.028202 -1.0622e-22)
(1.0602 -0.0361962 -6.86611e-24)
(1.06968 -0.0465189 -6.26381e-23)
(1.07929 -0.0593859 4.56637e-22)
(1.08849 -0.075511 -5.01779e-22)
(1.09625 -0.0971958 2.48402e-22)
(1.0907 -0.121181 -1.87466e-22)
(1.08478 -0.147822 -1.89659e-22)
(1.06203 -0.183966 -4.64342e-24)
(1.02492 -0.216367 7.15016e-22)
(0.958663 -0.251847 1.28469e-21)
(0.849015 -0.259172 3.32981e-22)
(0.718191 -0.186695 3.03159e-22)
(0.652929 -0.0228945 -1.43885e-21)
(0.711626 0.136894 -7.1842e-22)
(0.82829 0.207988 -1.33658e-21)
(0.922673 0.20809 1.277e-21)
(0.985828 0.184185 -7.63053e-24)
(1.02336 0.15407 -9.20216e-21)
(1.03547 0.124999 2.01941e-22)
(1.04694 0.101633 4.49987e-23)
(1.04661 0.0841149 4.35739e-23)
(1.04545 0.0703415 -4.9765e-23)
(1.04477 0.0593831 1.21492e-22)
(1.04402 0.050224 -2.69952e-23)
(1.04323 0.0421327 -1.29407e-22)
(1.04173 0.0346143 2.18938e-23)
(1.03924 0.027762 0)
(1.03689 0.0216831 0)
(1.03498 0.0162598 0)
(1.03353 0.0112725 0)
(1.03257 0.00666694 0)
(1.03212 0.00216162 0)
(1.03251 -0.00125912 0)
(1.03329 -0.00354543 0)
(1.03491 -0.00603005 0)
(1.03739 -0.00863438 0)
(1.04075 -0.0114532 0)
(1.04512 -0.0146528 0)
(1.05117 -0.0184883 7.27156e-24)
(1.06045 -0.0237142 2.03171e-23)
(1.07208 -0.0308035 -6.89536e-24)
(1.08486 -0.0399749 -8.57213e-23)
(1.09876 -0.0517622 3.23322e-23)
(1.11384 -0.0670172 3.96753e-23)
(1.12869 -0.0858407 7.26841e-23)
(1.13293 -0.115635 -7.9984e-23)
(1.1403 -0.151009 1.89521e-22)
(1.13685 -0.203381 -2.15423e-22)
(1.11637 -0.274018 -5.1127e-23)
(1.05963 -0.384499 3.94553e-23)
(0.886898 -0.512896 -6.43152e-22)
(0.495375 -0.511555 -3.3919e-20)
(0.187557 -0.0297103 -3.05841e-20)
(0.487393 0.433549 -1.40596e-20)
(0.840593 0.44214 1.39443e-21)
(0.998916 0.333935 -6.06515e-23)
(1.05656 0.245215 1.89344e-23)
(1.07665 0.180746 3.33205e-22)
(1.07423 0.141587 1.56139e-22)
(1.07567 0.105759 -1.80673e-23)
(1.0689 0.0873049 9.01071e-23)
(1.06308 0.0721248 -1.11472e-22)
(1.05903 0.0601349 -2.28723e-24)
(1.05603 0.0503324 -5.26752e-24)
(1.05389 0.0420368 -8.78895e-24)
(1.05168 0.0345014 2.03352e-23)
(1.04821 0.027544 0)
(1.04481 0.0213801 0)
(1.04209 0.0159438 0)
(1.04005 0.0110095 0)
(1.03871 0.00640859 0)
(1.03807 0.00211654 0)
(1.0354 -0.000821646 0)
(1.03618 -0.00260425 0)
(1.03794 -0.00449633 0)
(1.04058 -0.00637042 0)
(1.04431 -0.00843204 0)
(1.04922 -0.010642 0)
(1.05665 -0.0133272 -1.76313e-23)
(1.06803 -0.0171137 -2.14903e-23)
(1.08198 -0.0221671 -2.67788e-23)
(1.09758 -0.0284795 -4.58245e-23)
(1.11539 -0.0365387 -6.10415e-23)
(1.13614 -0.0472615 -3.84564e-24)
(1.15978 -0.0606071 1.89178e-22)
(1.1726 -0.0891204 -7.14236e-24)
(1.20315 -0.12087 -2.09096e-22)
(1.22805 -0.176174 8.79231e-23)
(1.26321 -0.259526 -1.66767e-22)
(1.31849 -0.413919 1.81863e-21)
(1.02168 -0.556684 -1.13562e-19)
(1.00858 0.522474 8.26473e-21)
(1.20769 0.376838 -1.61812e-22)
(1.16911 0.246169 2.07069e-22)
(1.14361 0.172462 -2.24141e-22)
(1.12011 0.136644 -2.11746e-22)
(1.1065 0.0991091 6.8495e-23)
(1.09265 0.0819192 4.36779e-24)
(1.08183 0.0676946 -3.34068e-23)
(1.07393 0.0561104 6.54273e-24)
(1.06828 0.0467084 -1.25484e-23)
(1.06446 0.0388994 -7.4727e-24)
(1.0614 0.0319322 -1.27272e-23)
(1.05703 0.0254456 0)
(1.05254 0.0196857 0)
(1.049 0.0146574 0)
(1.0464 0.0102071 0)
(1.04467 0.00603133 0)
(1.04382 0.00211221 0)
(1.03753 -0.000551456 0)
(1.03837 -0.00179451 0)
(1.04002 -0.00283383 0)
(1.04276 -0.00400527 0)
(1.04664 -0.0051434 0)
(1.05186 -0.00619649 0)
(1.06013 -0.00735464 2.68963e-24)
(1.07286 -0.00902808 1.03162e-24)
(1.08803 -0.0109422 -1.43098e-23)
(1.10519 -0.0130026 -5.09184e-23)
(1.12495 -0.0152943 1.28926e-22)
(1.14921 -0.0184925 -5.99645e-23)
(1.17804 -0.0216989 -2.53351e-22)
(1.20302 -0.042379 -1.18155e-22)
(1.24882 -0.0579332 -1.17131e-21)
(1.29783 -0.0930239 6.65873e-24)
(1.37515 -0.137273 1.31923e-22)
(1.50375 -0.184476 2.72692e-21)
(0.0180154 -0.00951979 4.54842e-19)
(0.0445856 -0.0186133 -1.3137e-19)
(1.34541 0.227495 -1.68001e-22)
(1.25382 0.176464 4.05904e-23)
(1.19566 0.133629 -1.12531e-22)
(1.15871 0.111745 1.35273e-22)
(1.13284 0.0826716 5.20278e-22)
(1.11415 0.0694325 -4.39925e-22)
(1.09923 0.0576254 2.45913e-23)
(1.08787 0.0476273 1.81305e-23)
(1.07969 0.0394925 -1.06936e-23)
(1.07414 0.0327822 -8.19273e-25)
(1.07019 0.0269181 -9.99942e-25)
(1.06506 0.0214903 0)
(1.05955 0.016602 0)
(1.05517 0.0123159 0)
(1.05195 0.00842338 0)
(1.04987 0.00487234 0)
(1.04887 0.00133346 0)
(1.03884 -0.000344448 -5.51915e-26)
(1.03964 -0.000918043 0)
(1.04141 -0.00145122 0)
(1.04409 -0.00184324 0)
(1.04774 -0.0020056 0)
(1.05272 -0.0018905 0)
(1.06111 -0.00138379 -1.71548e-23)
(1.07388 -0.000539168 9.08378e-24)
(1.08859 0.00109091 1.99969e-22)
(1.10537 0.00379149 -4.82422e-22)
(1.12501 0.00810169 3.48621e-22)
(1.14891 0.0136832 -3.46332e-22)
(1.17866 0.0226703 1.33467e-22)
(1.21082 0.0150398 8.57864e-22)
(1.26017 0.0192133 2.01424e-21)
(1.31824 0.0101023 -7.5856e-22)
(1.39805 0.00419665 -6.77346e-22)
(1.46425 0.016735 2.63368e-23)
(0.181613 -0.0317233 -1.01151e-20)
(0.123283 -0.0309167 5.63414e-21)
(1.26441 0.0616727 1.43378e-21)
(1.26968 0.0892918 -2.03431e-21)
(1.21306 0.0857898 1.83285e-21)
(1.17892 0.0798439 1.26485e-21)
(1.15044 0.0619157 -7.27555e-22)
(1.13027 0.052427 -5.05034e-22)
(1.11333 0.0436464 -8.89202e-22)
(1.0997 0.0358766 -1.53218e-22)
(1.08938 0.0293969 1.72492e-22)
(1.08216 0.0240982 1.26467e-23)
(1.07723 0.0196664 8.85043e-24)
(1.07147 0.0157233 0)
(1.06524 0.0122128 0)
(1.06029 0.00914734 0)
(1.05663 0.00634874 0)
(1.05418 0.00379166 0)
(1.05291 0.00145665 0)
(1.03927 -0.000149273 2.44187e-25)
(1.04 -0.000241956 0)
(1.04157 -0.000256727 0)
(1.04394 -1.53345e-06 0)
(1.04721 0.000578442 0)
(1.05168 0.00162681 0)
(1.05916 0.00354792 -2.21951e-24)
(1.07053 0.00662836 -2.93517e-23)
(1.08335 0.0115982 -8.00331e-23)
(1.09773 0.0187581 -1.06026e-22)
(1.11446 0.0291524 4.97072e-22)
(1.13416 0.0427827 5.072e-22)
(1.15895 0.0618543 -1.22211e-21)
(1.19318 0.0714281 7.23269e-22)
(1.23725 0.0941266 1.63799e-23)
(1.29624 0.111302 2.0611e-21)
(1.37562 0.133005 -1.40006e-21)
(1.44869 0.156309 3.47052e-22)
(0.562541 -0.0422101 -1.45594e-22)
(0.218616 -0.414031 -3.88247e-21)
(-0.0496395 -0.5325 -2.30743e-22)
(-0.227461 -0.380413 -3.3595e-21)
(0.0533286 -0.23495 9.55328e-22)
(1.07779 -0.0636602 1.56996e-21)
(1.23184 0.032839 1.81192e-21)
(1.20609 0.0544552 7.82775e-23)
(1.18514 0.0540904 3.79277e-22)
(1.16182 0.0419897 -1.09839e-21)
(1.14177 0.0342472 8.95603e-22)
(1.12398 0.0276261 8.7139e-23)
(1.10885 0.0219417 -1.7174e-22)
(1.09697 0.0172876 6.7113e-23)
(1.08827 0.0136173 1.0452e-23)
(1.08223 0.010814 5.74654e-24)
(1.07566 0.00858204 0)
(1.06897 0.00674546 0)
(1.06368 0.00513777 0)
(1.05985 0.00366156 0)
(1.05741 0.00224425 0)
(1.05635 0.000803685 0)
(1.03952 0.000152582 7.17146e-23)
(1.04001 0.0002983 0)
(1.04123 0.000753445 0)
(1.04315 0.00133551 0)
(1.04582 0.00233241 0)
(1.04938 0.00381898 0)
(1.05507 0.00630315 -1.06539e-24)
(1.06388 0.0106964 1.9461e-23)
(1.07342 0.0178702 -1.23981e-22)
(1.08353 0.0279972 -2.28803e-22)
(1.09465 0.042472 1.19874e-21)
(1.10693 0.0615843 1.09155e-22)
(1.1216 0.0891175 -7.79801e-22)
(1.14955 0.114166 -7.21095e-22)
(1.1824 0.154116 8.33728e-23)
(1.22689 0.21254 1.35273e-21)
(1.29863 0.270991 -4.49124e-22)
(1.39724 0.371442 -1.03917e-20)
(1.05926 0.324386 3.06826e-21)
(0.539913 0.0805553 3.24829e-20)
(0.0345761 -0.0823031 -2.07442e-22)
(-0.364914 -0.20286 -9.65327e-21)
(-0.0852843 -0.175693 3.19585e-21)
(0.859341 -0.017907 -4.41019e-21)
(1.18843 0.0484375 5.25275e-22)
(1.20395 0.0473543 -3.58724e-22)
(1.19129 0.0363536 -3.32446e-22)
(1.17062 0.0203399 -2.58541e-21)
(1.15042 0.0148723 -2.38727e-21)
(1.13129 0.0100121 -1.50998e-21)
(1.11498 0.00641582 1.90927e-22)
(1.10171 0.00379034 4.28862e-23)
(1.09203 0.0019416 1.73828e-24)
(1.08486 0.000826796 7.20985e-25)
(1.07742 0.000564795 0)
(1.07039 0.000530455 0)
(1.0649 0.000419249 0)
(1.06098 0.000228453 0)
(1.05844 -1.64809e-05 0)
(1.05692 -0.000243411 -1.19616e-23)
(1.03901 9.0534e-05 4.16925e-23)
(1.03961 0.000460751 0)
(1.04065 0.000868926 0)
(1.04218 0.00142977 0)
(1.04417 0.00239491 0)
(1.04666 0.00382402 0)
(1.0502 0.00632241 0)
(1.05541 0.0111442 3.95949e-24)
(1.06066 0.0188953 -6.66594e-23)
(1.06526 0.02985 2.75317e-22)
(1.06921 0.045198 -2.42646e-22)
(1.07207 0.0658618 8.77138e-22)
(1.07495 0.093921 -1.7902e-22)
(1.07675 0.139106 -7.36276e-22)
(1.0999 0.18739 1.81925e-22)
(1.11256 0.256439 6.65005e-21)
(1.14595 0.355469 4.71414e-21)
(1.16836 0.512497 2.14238e-20)
(1.13743 0.728163 -9.32382e-21)
(0.751909 0.726423 1.32376e-20)
(0.225263 0.637409 1.40725e-20)
(-0.160339 0.487338 5.72349e-21)
(-0.0150186 0.240358 -7.32691e-21)
(0.732641 0.133029 -1.39739e-19)
(1.24052 0.0906928 -1.44528e-21)
(1.23408 0.0403333 1.62378e-21)
(1.20915 0.00539148 5.45129e-22)
(1.18019 -0.00551395 -1.08044e-22)
(1.15591 -0.00809862 -2.84926e-24)
(1.13502 -0.010286 -1.47727e-22)
(1.11746 -0.0107238 -8.09971e-23)
(1.10335 -0.010843 3.1987e-23)
(1.0929 -0.0105601 -1.20763e-23)
(1.0844 -0.00951488 0)
(1.07635 -0.00759684 0)
(1.0694 -0.00580805 0)
(1.06405 -0.00432662 0)
(1.06014 -0.00301349 0)
(1.05747 -0.001704 0)
(1.05595 -0.000483914 4.21968e-23)
(1.0386 3.27014e-05 -1.23984e-23)
(1.03905 0.000283006 0)
(1.03991 0.000505282 0)
(1.04114 0.000904083 0)
(1.04257 0.00153264 0)
(1.04401 0.00249184 0)
(1.0453 0.00423754 0)
(1.04666 0.0079306 0)
(1.04748 0.0143024 -1.38328e-23)
(1.04728 0.023101 -3.71251e-23)
(1.04466 0.0353445 1.55053e-22)
(1.03812 0.0522303 -2.55549e-22)
(1.02766 0.0749389 -3.40212e-23)
(1.01131 0.111965 8.16801e-22)
(1.01265 0.165872 1.38807e-22)
(0.98915 0.231927 2.36207e-21)
(0.965305 0.33593 -3.47556e-21)
(0.912586 0.474537 1.5384e-21)
(0.863798 0.643608 7.89311e-21)
(0.667414 0.842353 9.32823e-23)
(0.324268 0.902855 -5.25579e-22)
(0.145017 0.764197 -1.05222e-21)
(0.347727 0.503131 8.45207e-21)
(0.939194 0.200534 3.92694e-20)
(1.34302 0.0306846 -3.52964e-22)
(1.28279 -0.0106131 -9.20558e-22)
(1.22234 -0.0438597 4.8531e-22)
(1.18534 -0.0418443 -4.88686e-22)
(1.15639 -0.0373126 -3.11558e-22)
(1.13377 -0.033934 -5.87675e-23)
(1.11564 -0.0297679 2.2116e-24)
(1.10145 -0.026408 4.31714e-24)
(1.09015 -0.022988 0)
(1.08055 -0.0191001 0)
(1.07243 -0.0149032 0)
(1.06599 -0.0113179 0)
(1.0611 -0.00824241 2.50032e-22)
(1.05756 -0.00553967 3.45777e-22)
(1.05526 -0.00311426 2.0619e-22)
(1.05403 -0.000965654 0)
(1.03836 4.02076e-05 0)
(1.0387 -6.58135e-05 0)
(1.03942 -0.000121372 0)
(1.04046 -7.54237e-05 0)
(1.04164 -2.6858e-06 0)
(1.04251 0.000132078 0)
(1.04224 0.000505223 0)
(1.04105 0.00185439 0)
(1.0389 0.00475569 -1.10424e-25)
(1.03533 0.00881292 4.35913e-26)
(1.02822 0.0145144 2.00146e-23)
(1.01523 0.0221557 -6.65742e-25)
(0.992831 0.034002 -6.29625e-23)
(0.96036 0.0494766 -8.59743e-23)
(0.939973 0.100115 2.74771e-20)
(0.882497 0.152731 -8.48524e-22)
(0.827846 0.234548 -1.448e-21)
(0.71821 0.334975 -7.17097e-22)
(0.577507 0.52779 8.01944e-21)
(0.445137 0.717114 -5.34478e-21)
(0.375647 0.765637 -5.5117e-21)
(0.457663 0.597362 1.00307e-20)
(0.7937 0.270979 -1.19984e-20)
(1.2724 -0.0150753 -2.32871e-21)
(1.39553 -0.125709 1.36621e-21)
(1.29595 -0.108819 8.77247e-23)
(1.21373 -0.10634 1.41946e-22)
(1.17423 -0.0863323 5.10116e-22)
(1.1459 -0.0706907 -2.31757e-22)
(1.12434 -0.0589751 1.01375e-23)
(1.10744 -0.0487836 -6.16347e-25)
(1.09398 -0.0408455 1.77107e-26)
(1.08273 -0.0335689 0)
(1.07321 -0.0268576 0)
(1.06585 -0.0206653 0)
(1.06043 -0.0155562 0)
(1.05639 -0.0112521 0)
(1.05349 -0.0075858 0)
(1.05163 -0.00434611 0)
(1.05067 -0.00138622 -3.71352e-23)
(1.03845 -1.49225e-05 0)
(1.0389 -0.000254266 0)
(1.03966 -0.000529078 0)
(1.04072 -0.000912196 0)
(1.04199 -0.0014659 0)
(1.04291 -0.00228496 0)
(1.04237 -0.00343911 0)
(1.04035 -0.00478026 0)
(1.03746 -0.00611789 0)
(1.03315 -0.00827703 0)
(1.02524 -0.01118 -4.341e-24)
(1.01091 -0.016743 -4.56584e-23)
(0.984593 -0.0208175 3.04143e-22)
(0.941248 -0.0336456 -3.47258e-22)
(0.895333 -0.000357288 8.6824e-20)
(0.81887 0.023101 2.45367e-22)
(0.735774 0.0879871 3.50466e-20)
(0.515044 0.191211 -1.91246e-21)
(0.359004 0.27754 3.71764e-21)
(0.365201 0.283962 -5.35476e-21)
(0.548061 0.166226 1.90745e-21)
(0.83789 -0.0490806 1.37549e-20)
(1.18181 -0.2638 -4.55918e-21)
(1.40588 -0.347296 -2.62044e-22)
(1.31397 -0.278583 2.33309e-21)
(1.2444 -0.205232 3.87426e-22)
(1.17149 -0.158352 -1.81024e-22)
(1.14165 -0.124991 1.51917e-22)
(1.12075 -0.0987513 -3.88425e-23)
(1.10456 -0.0790201 1.41157e-24)
(1.0916 -0.0631114 0)
(1.08073 -0.0508939 0)
(1.07118 -0.040557 0)
(1.06303 -0.0319003 0)
(1.05717 -0.0244123 0)
(1.05321 -0.0183009 0)
(1.05031 -0.0131944 0)
(1.04821 -0.00889484 0)
(1.04689 -0.00509577 0)
(1.04627 -0.00163367 0)
(1.03871 2.97344e-06 0)
(1.03937 -0.00017222 0)
(1.04036 -0.000512439 0)
(1.04172 -0.00114251 0)
(1.04344 -0.00213237 0)
(1.04504 -0.00368648 0)
(1.04535 -0.00607262 0)
(1.04429 -0.00963222 0)
(1.04315 -0.0146195 0)
(1.04166 -0.0223521 0)
(1.03799 -0.0333346 0)
(1.02991 -0.0516417 3.32807e-25)
(1.01097 -0.0732903 2.80407e-23)
(0.970754 -0.114238 -3.80589e-23)
(0.898586 -0.119765 2.89693e-20)
(0.772303 -0.128139 -8.99434e-21)
(0.623593 -0.0592393 2.42195e-20)
(0.508418 -0.0869909 -1.33037e-21)
(0.472298 -0.235266 -4.60664e-22)
(0.566152 -0.431582 1.0816e-21)
(0.78244 -0.594674 -1.84867e-21)
(1.02509 -0.680532 4.62032e-21)
(1.21256 -0.646742 -6.65921e-21)
(1.25582 -0.499472 4.21305e-22)
(1.16646 -0.338373 1.72374e-21)
(1.1529 -0.254395 -2.07952e-22)
(1.10816 -0.187933 -3.64497e-21)
(1.09414 -0.145466 5.50473e-23)
(1.084 -0.113692 4.47735e-25)
(1.07649 -0.08895 0)
(1.06975 -0.069694 0)
(1.06344 -0.0549277 0)
(1.05705 -0.0430499 0)
(1.0512 -0.0335579 0)
(1.0473 -0.0256602 0)
(1.04504 -0.0192476 0)
(1.04347 -0.0138685 0)
(1.04234 -0.00931971 0)
(1.04169 -0.0053308 0)
(1.04146 -0.00168716 0)
(1.03877 2.49233e-05 0)
(1.03966 4.86044e-05 0)
(1.04101 -0.000106551 0)
(1.0429 -0.000590271 0)
(1.04538 -0.00154145 0)
(1.04816 -0.00321829 0)
(1.05026 -0.00606131 0)
(1.05165 -0.0107516 0)
(1.05425 -0.0177712 0)
(1.05843 -0.0285025 0)
(1.06335 -0.0439392 2.82101e-23)
(1.06797 -0.0688067 0)
(1.06832 -0.103492 0)
(1.04352 -0.153643 6.92146e-21)
(0.954141 -0.243152 -4.91364e-21)
(0.769214 -0.265209 4.82483e-20)
(0.688626 -0.343182 -2.07904e-22)
(0.724825 -0.469642 8.50375e-22)
(0.747416 -0.588835 -5.43065e-21)
(0.796758 -0.670642 1.45692e-20)
(0.881924 -0.688535 -8.48296e-21)
(0.965546 -0.639904 1.43534e-20)
(1.00754 -0.535742 1.7186e-21)
(1.01598 -0.421827 2.07839e-21)
(1.03772 -0.335538 6.46529e-23)
(1.03704 -0.250379 -5.2047e-22)
(1.0395 -0.191635 3.45435e-22)
(1.04062 -0.147179 0)
(1.04258 -0.114213 0)
(1.04454 -0.0879353 -1.43494e-23)
(1.04503 -0.0679323 0)
(1.04425 -0.0524997 0)
(1.04193 -0.0404336 0)
(1.0391 -0.031125 0)
(1.03748 -0.0237964 0)
(1.03696 -0.0179653 0)
(1.03666 -0.0130725 0)
(1.03646 -0.00888866 -4.11508e-23)
(1.03643 -0.0051654 -2.9522e-23)
(1.03658 -0.00171033 0)
(1.0386 0.000150949 0)
(1.03954 0.000521054 0)
(1.04118 0.000807295 0)
(1.04362 0.000844591 0)
(1.04695 0.000489028 0)
(1.05112 -0.00049534 0)
(1.05551 -0.00257826 0)
(1.06017 -0.00666253 0)
(1.06723 -0.0132477 0)
(1.07779 -0.0233028 0)
(1.09263 -0.0377802 3.67234e-22)
(1.11185 -0.0598786 0)
(1.13716 -0.094671 0)
(1.14732 -0.1419 -3.02172e-22)
(1.0976 -0.236987 -3.54071e-20)
(0.959568 -0.383336 1.05452e-21)
(0.904537 -0.531197 0)
(0.846889 -0.619671 9.49796e-22)
(0.794604 -0.659496 2.43382e-22)
(0.767876 -0.66294 -1.17453e-20)
(0.788872 -0.621051 -1.67988e-21)
(0.82264 -0.528919 -2.12185e-21)
(0.866527 -0.436607 -4.43841e-22)
(0.910772 -0.356452 0)
(0.943218 -0.288829 -1.23248e-22)
(0.958542 -0.224349 -3.23836e-22)
(0.97198 -0.171671 -6.83407e-22)
(0.988742 -0.130327 0)
(1.00273 -0.0996907 0)
(1.01343 -0.0754118 2.75381e-23)
(1.02091 -0.0571935 0)
(1.02563 -0.0431512 0)
(1.02766 -0.0323904 0)
(1.02834 -0.0244789 0)
(1.02921 -0.018706 0)
(1.03026 -0.0142512 7.44474e-23)
(1.03099 -0.0105206 -9.67433e-23)
(1.03141 -0.0073094 0)
(1.03172 -0.00434211 0)
(1.032 -0.00152057 -2.27343e-22)
(1.03782 0.000434131 0)
(1.03873 0.00129937 0)
(1.04051 0.00218625 0)
(1.04329 0.00299823 0)
(1.0472 0.00369302 0)
(1.0524 0.00412391 0)
(1.05874 0.00400625 -3.66064e-23)
(1.06638 0.00248845 0)
(1.07709 -0.00089031 0)
(1.09232 -0.00625695 0)
(1.11425 -0.0143219 0)
(1.14418 -0.0246922 0)
(1.18732 -0.0433154 0)
(1.2365 -0.0656811 -5.59176e-22)
(1.24837 -0.122296 1.22161e-22)
(1.16064 -0.227004 -4.28049e-23)
(1.06004 -0.361791 0)
(0.952452 -0.466002 0)
(0.853082 -0.549158 -7.66809e-21)
(0.772342 -0.567209 -4.48746e-20)
(0.717655 -0.559759 5.07863e-21)
(0.700145 -0.496168 5.54899e-22)
(0.727187 -0.418329 0)
(0.782078 -0.330945 0)
(0.832204 -0.242562 0)
(0.876723 -0.173568 8.4157e-24)
(0.915359 -0.127085 -2.91485e-22)
(0.942795 -0.0934697 -6.27096e-23)
(0.968358 -0.068902 0)
(0.987232 -0.0505444 0)
(1.001 -0.0371761 0)
(1.01043 -0.027082 0)
(1.01644 -0.019606 3.26699e-22)
(1.02044 -0.0145213 1.33881e-22)
(1.02352 -0.011158 6.74478e-24)
(1.02577 -0.00862135 0)
(1.0272 -0.00644509 0)
(1.028 -0.00451458 0)
(1.02841 -0.0026977 0)
(1.02859 -0.0008693 0)
(1.0362 0.000649284 0)
(1.0371 0.00212031 0)
(1.03883 0.00366353 0)
(1.04156 0.00539957 0)
(1.04544 0.00738759 0)
(1.05079 0.00962274 0)
(1.05788 0.0120916 0)
(1.06707 0.0143326 0)
(1.07947 0.0159475 -5.38222e-24)
(1.09626 0.0177855 0)
(1.11961 0.0194593 0)
(1.15184 0.0245154 0)
(1.19691 0.0297349 -3.85976e-22)
(1.26129 0.0430316 -4.54607e-22)
(1.3237 0.0486463 0)
(1.29545 0.0233556 0)
(1.21404 -0.0515861 0)
(1.09104 -0.111667 0)
(0.950106 -0.195789 5.50329e-20)
(0.815187 -0.206041 1.05898e-19)
(0.701569 -0.23524 1.32613e-20)
(0.640682 -0.224933 -4.52352e-21)
(0.639836 -0.20949 0)
(0.676256 -0.178372 0)
(0.72869 -0.13394 0)
(0.798338 -0.0877649 0)
(0.864197 -0.0510085 -6.15097e-21)
(0.91005 -0.0325312 -2.23652e-21)
(0.944934 -0.0203925 0)
(0.970821 -0.0137972 -9.36261e-24)
(0.989255 -0.00925626 -4.5258e-24)
(1.0019 -0.00600453 3.39233e-24)
(1.01062 -0.00382988 0)
(1.01682 -0.00279041 0)
(1.02114 -0.00243864 0)
(1.02383 -0.00217913 0)
(1.02542 -0.00179588 0)
(1.02634 -0.0012921 0)
(1.02682 -0.000773127 0)
(1.02715 -0.000132045 0)
(1.034 0.000798785 0)
(1.03467 0.00277836 0)
(1.03604 0.00495302 0)
(1.03826 0.00758844 0)
(1.04149 0.0107685 0)
(1.04606 0.0146626 0)
(1.05248 0.019442 0)
(1.06128 0.0251047 0)
(1.07287 0.0315703 0)
(1.08769 0.0402227 0)
(1.10684 0.0512657 1.30217e-22)
(1.13248 0.0687729 -5.49175e-23)
(1.1653 0.0931364 3.05741e-22)
(1.21249 0.132801 -3.19035e-22)
(1.27726 0.187705 0)
(1.2955 0.245975 0)
(1.25793 0.261568 0)
(1.15974 0.279979 0)
(1.0209 0.24465 9.44334e-20)
(0.874633 0.249353 -1.54979e-19)
(0.74475 0.204438 3.59234e-22)
(0.673046 0.171805 5.91311e-22)
(0.66384 0.124321 0)
(0.680879 0.0876025 0)
(0.709494 0.0580576 0)
(0.76696 0.0460426 0)
(0.836701 0.0522043 -4.65717e-21)
(0.897656 0.0501971 -1.71606e-20)
(0.94316 0.0396221 -3.00697e-21)