/*--------------------------------*- C++ -*----------------------------------*\
| =========                 |                                                 |
| \\      /  F ield         | OpenFOAM: The Open Source CFD Toolbox           |
|  \\    /   O peration     | Version:  v2106                                 |
|   \\  /    A nd           | Website:  www.openfoam.com                      |
|    \\/     M anipulation  |                                                 |
\*---------------------------------------------------------------------------*/
FoamFile
{
    version     2.0;
    format      ascii;
    arch        "LSB;label=32;scalar=64";
    class       volScalarField;
    location    "0";
    object      p;
}
// * * * * * * * * * * * * * * * * * * * * * * * * * * * * * * * * * * * * * //

dimensions      [0 2 -2 0 0 0 0];

internalField   nonuniform List<scalar> 
11644
(
0.0358784
0.0362431
0.0370242
0.0381857
0.0397078
0.0416024
0.0438835
0.0465596
0.0496314
0.0530873
0.0568975
0.0610081
0.0653324
0.0697456
0.0740878
0.0781912
0.0818768
0.0849382
0.087078
0.088123
0.0881208
0.0870713
0.0849266
0.0818607
0.0781711
0.0740642
0.069719
0.0653033
0.060977
0.0568647
0.0530532
0.0495962
0.0465236
0.0438468
0.0415653
0.0396703
0.038148
0.0369863
0.0362052
0.0358404
0.0352243
0.0355191
0.0361453
0.0371573
0.0385791
0.0404178
0.042684
0.0453896
0.0485407
0.0521405
0.0561607
0.0605484
0.0652204
0.0700606
0.0749095
0.0795224
0.0835944
0.0868284
0.0890258
0.0901287
0.0901262
0.0890185
0.0868165
0.0835782
0.079502
0.0748855
0.0700335
0.0651908
0.0605167
0.0561273
0.0521059
0.0485051
0.0453533
0.0426471
0.0403805
0.0385415
0.0371195
0.0361074
0.0354811
0.0351862
0.0338169
0.0341369
0.0347626
0.0357215
0.0370539
0.0387916
0.0409636
0.0436006
0.046729
0.0503742
0.0545666
0.0592997
0.0645181
0.0700763
0.0757209
0.0811544
0.0860578
0.0901125
0.093057
0.0946434
0.0946407
0.0930489
0.0900996
0.0860402
0.0811325
0.0756953
0.0700476
0.0644869
0.0592667
0.0545321
0.0503387
0.0466927
0.0435637
0.0409262
0.0387539
0.037016
0.0356835
0.0347245
0.0340987
0.0337786
0.0316295
0.0319632
0.0326174
0.0335937
0.0349164
0.0366198
0.0387467
0.0413457
0.0444782
0.048192
0.052545
0.0575803
0.0632947
0.0695893
0.0762978
0.0831125
0.0896216
0.0953956
0.0997706
0.102153
0.10215
0.099762
0.0953816
0.0896026
0.083089
0.0762704
0.0695586
0.0632616
0.0575454
0.0525089
0.048155
0.0444407
0.0413078
0.0387085
0.0365816
0.034878
0.0335553
0.032579
0.0319248
0.0315911
0.0290105
0.0293133
0.0299132
0.030817
0.0320481
0.0336427
0.0356519
0.0381423
0.0411973
0.0449206
0.0494167
0.0547921
0.0611189
0.0684527
0.076703
0.085599
0.0945432
0.102998
0.109544
0.11315
0.113147
0.109536
0.102984
0.0945236
0.0855746
0.0766743
0.0684204
0.0610837
0.0547549
0.0493784
0.0448816
0.0411581
0.0381031
0.0356128
0.0336036
0.0320091
0.0307782
0.0298745
0.0292746
0.0289719
0.0259757
0.0262104
0.0266825
0.0274073
0.0284132
0.0297428
0.0314559
0.0336351
0.0363909
0.0398721
0.0442674
0.0498247
0.0568446
0.0655065
0.0760076
0.0880475
0.100782
0.113596
0.123898
0.129825
0.129822
0.12389
0.113582
0.100762
0.0880226
0.0759781
0.0654727
0.0568076
0.0497854
0.0442267
0.0398309
0.0363499
0.0335945
0.0314158
0.029703
0.0283738
0.0273681
0.0266436
0.0261716
0.0259369
0.0224669
0.0226233
0.022943
0.0234422
0.0241478
0.0251005
0.0263602
0.028014
0.0301874
0.0330607
0.0368993
0.0420617
0.0489978
0.0587609
0.0721894
0.0889276
0.102272
0.119936
0.136224
0.147334
0.149751
0.142847
0.128756
0.111395
0.0889022
0.0721586
0.0587255
0.048959
0.0420205
0.0368566
0.0330176
0.0301447
0.027972
0.0263191
0.0250601
0.0241079
0.0234028
0.0229039
0.0225844
0.0224282
0.0186161
0.0186866
0.0188334
0.0190682
0.0194093
0.0198858
0.020543
0.0214525
0.0227271
0.0245422
0.0271638
0.0310527
0.0369157
0.0467297
0.060261
0.0790111
0.104028
0.13323
0.162869
0.184551
0.189425
0.175369
0.14839
0.11839
0.0903409
0.069041
0.0529216
0.0368748
0.0310094
0.0271193
0.0244975
0.0226831
0.0214096
0.0205012
0.019845
0.0193693
0.0190287
0.0187944
0.0186479
0.0185775
0.0146047
0.0145795
0.0145329
0.0144675
0.0143872
0.0142983
0.0142153
0.0141684
0.0142168
0.0144741
0.0151425
0.0165445
0.0191056
0.0306488
0.0410947
0.0602376
0.0906153
0.134398
0.187086
0.2337
0.249653
0.224267
0.174284
0.121713
0.0822553
0.049298
0.0352862
0.0190609
0.0164988
0.0150965
0.0144284
0.0141719
0.0141249
0.0141733
0.0142575
0.0143474
0.0144284
0.0144943
0.0145412
0.0145666
0.0106033
0.0104841
0.0102391
0.00986376
0.00934
0.00864246
0.0077402
0.00659798
0.0051784
0.00345424
0.0014331
-0.000843242
-0.00346984
0.00307959
0.00602705
0.0225867
0.0513533
0.106943
0.201848
0.316566
0.368065
0.303629
0.187928
0.0978453
0.0402438
0.0090922
0.00391454
-0.00351747
-0.000890908
0.00138611
0.00340824
0.00513359
0.00655468
0.00769857
0.00860219
0.00930077
0.00982531
0.0102012
0.0104466
0.010566
0.0067949
0.00658778
0.00616943
0.0055108
0.00457137
0.00329278
0.00159519
-0.000632617
-0.00354829
-0.00737702
-0.0124387
-0.0192063
-0.0285326
-0.0317847
-0.0442617
-0.0522224
-0.0520016
-0.0321553
0.0800597
0.359959
0.579071
0.338325
0.0690135
-0.037385
-0.0581939
-0.0521981
-0.0376726
-0.0285843
-0.0192561
-0.0124863
-0.0074226
-0.0035921
-0.000674805
0.00155464
0.00325363
0.00453326
0.00547346
0.00613263
0.00655134
0.00675861
0.00339101
0.00311202
0.00254576
0.00165226
0.000370949
-0.00138083
-0.00372306
-0.00683176
-0.0109668
-0.016528
-0.0241748
-0.0349346
-0.0501288
-0.0624389
-0.0959859
-0.135006
-0.210467
-0.368814
-0.747564
-0.726491
-0.358166
-0.199133
-0.120238
-0.0769875
-0.0501849
-0.0349861
-0.0242219
-0.0165722
-0.0110087
-0.00687192
-0.00376173
-0.00141825
0.000334423
0.00161643
0.00251043
0.00307702
0.00335612
0.000445316
0.000164558
-0.000491074
-0.00153938
-0.00303336
-0.00506502
-0.00777199
-0.0113552
-0.0161117
-0.0224692
-0.0311531
-0.0432037
-0.0599032
-0.0791865
-0.118195
-0.176088
-0.292568
-0.573149
-1.11261
-1.11438
-0.545395
-0.26146
-0.146792
-0.0964904
-0.0599604
-0.0432542
-0.0311982
-0.022511
-0.0161509
-0.0113925
-0.0078081
-0.00510023
-0.00306786
-0.00157332
-0.000524624
0.000131252
0.000412226
-0.00193908
-0.00225067
-0.00291771
-0.00398477
-0.00550892
-0.00757134
-0.0102901
-0.0138329
-0.0184396
-0.0244236
-0.0322643
-0.0426434
-0.0561511
-0.0734013
-0.101192
-0.142686
-0.21101
-0.323555
-0.513439
-0.504441
-0.306071
-0.188587
-0.119319
-0.0862411
-0.0562021
-0.0426895
-0.0323055
-0.0244617
-0.0184752
-0.013867
-0.0103232
-0.00760392
-0.00554103
-0.0040165
-0.00294915
-0.00228192
-0.00197022
-0.00366417
-0.00398636
-0.00463038
-0.00562929
-0.00703222
-0.00890092
-0.0113142
-0.0143721
-0.0182013
-0.0229459
-0.028716
-0.035799
-0.0436855
-0.0554007
-0.0666842
-0.08328
-0.0958614
-0.0889419
-0.0368844
0.078456
0.150408
0.0623538
-0.0471395
-0.091617
-0.0894288
-0.0719633
-0.06101
-0.0437312
-0.0358387
-0.0287518
-0.0229792
-0.0182326
-0.0144024
-0.0113441
-0.00893061
-0.0070617
-0.0056586
-0.00465954
-0.00401542
-0.00369319
-0.00473437
-0.00502621
-0.00560036
-0.00646914
-0.00765623
-0.00919169
-0.0111077
-0.0134327
-0.0161814
-0.019344
-0.0227941
-0.0264528
-0.0297851
-0.0356922
-0.0362671
-0.0326183
-0.0258548
0.000822705
0.0442974
0.0910918
0.10876
0.0805943
0.0320665
-0.00752168
-0.0296672
-0.0352629
-0.0364007
-0.0298204
-0.0264849
-0.0228239
-0.019372
-0.0162083
-0.0134592
-0.0111343
-0.00921847
-0.00768306
-0.00649598
-0.00562719
-0.00505303
-0.0047612
-0.00527063
-0.00550541
-0.00596698
-0.00665559
-0.00757241
-0.00871679
-0.0100803
-0.0116377
-0.013333
-0.0150669
-0.0166444
-0.0177939
-0.01815
-0.0172111
-0.0164585
-0.00958175
-0.000864244
0.0172902
0.039534
0.0587638
0.0651767
0.0547749
0.0338513
0.0121597
-0.00423353
-0.0137964
-0.0172418
-0.0181771
-0.0178193
-0.0166683
-0.0150899
-0.0133557
-0.0116607
-0.0101039
-0.00874079
-0.00759665
-0.00667999
-0.00599149
-0.00552999
-0.00529525
-0.00540472
-0.00557609
-0.0059119
-0.00640506
-0.00704377
-0.00780874
-0.00866819
-0.00957084
-0.0104358
-0.0111431
-0.0115128
-0.0112926
-0.0101106
-0.00775333
-0.00637148
-0.000367239
0.00659513
0.0178169
0.0292951
0.0380118
0.0407255
0.0362764
0.0265256
0.0148902
0.00357831
-0.00373333
-0.00777472
-0.0101308
-0.0113119
-0.0115316
-0.011162
-0.0104551
-0.00959094
-0.00868911
-0.00783019
-0.00706558
-0.00642715
-0.00593417
-0.00559848
-0.00542717
-0.00524073
-0.00535426
-0.00557495
-0.00589148
-0.00628594
-0.00673145
-0.00718855
-0.00760082
-0.00788899
-0.00794606
-0.00763106
-0.00676845
-0.00511102
-0.00260239
-0.00106236
0.00342847
0.00830023
0.0149247
0.0211111
0.0254726
0.0267786
0.0246242
0.0196672
0.0132524
0.00613695
0.000959385
-0.00261645
-0.00512511
-0.00678277
-0.00764589
-0.00796171
-0.00790569
-0.00761857
-0.00720712
-0.00675059
-0.00630553
-0.0059114
-0.00559511
-0.00537457
-0.0052611
-0.00487528
-0.00494143
-0.00506783
-0.00524209
-0.00544499
-0.00564912
-0.00581679
-0.00589806
-0.00582912
-0.00553206
-0.00491862
-0.00390437
-0.00240295
-0.000403206
0.00113096
0.00443153
0.00775704
0.0117922
0.0153143
0.0176823
0.0183749
0.0172286
0.0145108
0.0108018
0.00623256
0.00270849
-0.000413032
-0.00241335
-0.00391557
-0.00493092
-0.00554562
-0.00584389
-0.00591381
-0.0058333
-0.00566623
-0.00546258
-0.00526003
-0.00508603
-0.00495979
-0.00489372
-0.0043972
-0.00442749
-0.00448282
-0.00455189
-0.00461745
-0.0046558
-0.00463622
-0.00452088
-0.0042656
-0.00382224
-0.00314297
-0.00218882
-0.00091516
0.000694279
0.00205913
0.00429659
0.00663375
0.00916353
0.0112792
0.0126599
0.0130595
0.0124029
0.0108119
0.00856208
0.00555417
0.00311727
0.000686738
-0.000923792
-0.00219859
-0.00315397
-0.00383441
-0.0042788
-0.00453491
-0.00465096
-0.00467112
-0.00463323
-0.00456803
-0.00449922
-0.00444406
-0.00441385
-0.00387405
-0.00387922
-0.00388521
-0.00388287
-0.00385847
-0.00379382
-0.00366643
-0.00345025
-0.00311683
-0.00263721
-0.00198375
-0.0011361
-8.02898e-05
0.00118321
0.00267143
0.00387974
0.0055037
0.00702908
0.0082188
0.00893871
0.00909018
0.00864785
0.00767678
0.00629998
0.0046537
0.00266598
0.00117647
-8.81444e-05
-0.00114508
-0.00199378
-0.00264818
-0.00312865
-0.00346281
-0.00367963
-0.00380755
-0.00387264
-0.00389737
-0.00389997
-0.00389414
-0.00388906
-0.00335111
-0.00334014
-0.00331486
-0.00326843
-0.0031908
-0.003069
-0.00288762
-0.00262958
-0.0022772
-0.0018139
-0.00122621
-0.000508165
0.000330681
0.00125784
0.00229358
0.00340157
0.00440737
0.00525188
0.00588416
0.00622153
0.00622109
0.00588283
0.00524965
0.00440419
0.00339745
0.00228833
0.00125151
0.000323391
-0.00051638
-0.00123528
-0.00182376
-0.0022878
-0.00264084
-0.00289946
-0.00308132
-0.00320352
-0.00328147
-0.00332813
-0.00335357
-0.00336462
-0.00285698
-0.00283671
-0.00279377
-0.00272335
-0.00261854
-0.00247063
-0.00226968
-0.00200521
-0.00166731
-0.00124814
-0.000743733
-0.000155487
0.000506455
0.00121257
0.0019433
0.00270393
0.00343742
0.00402895
0.00444718
0.00466645
0.00466603
0.0044459
0.00402682
0.00343437
0.00269991
0.00193836
0.00120681
0.000499856
-0.000162888
-0.000751888
-0.001257
-0.00167683
-0.00201531
-0.0022803
-0.0024817
-0.00262997
-0.00273507
-0.00280571
-0.00284879
-0.00286913
-0.00240784
-0.00238314
-0.0023321
-0.00225155
-0.00213704
-0.00198312
-0.00178386
-0.00153351
-0.00122729
-0.000862449
-0.000439445
3.71848e-05
0.00055875
0.00110683
0.00165538
0.00218175
0.00268223
0.00310095
0.00339597
0.00354878
0.00354838
0.00339476
0.00309893
0.00267937
0.00217797
0.00165085
0.00110162
0.000552804
3.0529e-05
-0.000446778
-0.000870417
-0.00123584
-0.00154258
-0.0017934
-0.00199305
-0.0021473
-0.00226208
-0.00234283
-0.002394
-0.00241876
-0.0020108
-0.00198492
-0.0019321
-0.00185041
-0.0017372
-0.00158938
-0.00140379
-0.00117773
-0.000909504
-0.000599125
-0.000248976
0.000135379
0.000545514
0.000969425
0.00139119
0.00178736
0.00213774
0.00242943
0.00263802
0.00274714
0.00274677
0.00263689
0.00242755
0.00213514
0.00178402
0.00138718
0.000964732
0.000540151
0.000129383
-0.000255575
-0.000606286
-0.000917183
-0.00118587
-0.00141235
-0.0015983
-0.00174642
-0.00185987
-0.00194174
-0.00199468
-0.00202062
-0.00166696
-0.00164191
-0.00159119
-0.00151373
-0.00140815
-0.00127293
-0.00110673
-0.000908715
-0.000678987
-0.000418988
-0.000131895
0.000176956
0.000499935
0.00082743
0.00114808
0.00144903
0.00171113
0.00192283
0.0020716
0.00214874
0.00214841
0.0020706
0.00192116
0.00170881
0.00144607
0.00114448
0.000823199
0.000495107
0.000171559
-0.00013783
-0.000425425
-0.000685886
-0.000916031
-0.00111442
-0.00128094
-0.00141643
-0.00152223
-0.00159985
-0.00165068
-0.00167578
-0.00137378
-0.00135071
-0.00130422
-0.00123385
-0.00113904
-0.00101928
-0.000874356
-0.00070453
-0.000510859
-0.000295429
-6.15907e-05
0.00018588
0.000440612
0.00069482
0.000939452
0.00116581
0.00136326
0.00152128
0.00163117
0.00168742
0.00168712
0.00163026
0.00151978
0.00136116
0.00116313
0.000936196
0.000691008
0.000436267
0.000181025
-6.69271e-05
-0.000301214
-0.000517057
-0.000711102
-0.00088126
-0.00102648
-0.00114647
-0.00124148
-0.001312
-0.00135859
-0.00138171
-0.00112679
-0.00110623
-0.00106495
-0.00100287
-0.000919939
-0.000816267
-0.000692267
-0.000548807
-0.000387379
-0.000210253
-2.06051e-05
0.000177417
0.000378675
0.000577123
0.000765978
0.000938185
0.00108692
0.00120539
0.00128778
0.0013299
0.00132963
0.00128696
0.00120403
0.00108502
0.000935762
0.000763042
0.000573691
0.000374764
0.00017305
-2.5403e-05
-0.000215452
-0.000392949
-0.000554712
-0.000698469
-0.000822728
-0.000926618
-0.00100973
-0.00107194
-0.00111331
-0.00113391
-0.000920665
-0.000902768
-0.00086694
-0.000813312
-0.000742137
-0.000653866
-0.000549241
-0.000429396
-0.000295955
-0.000151122
2.26415e-06
0.000160698
0.000320054
0.000475662
0.000622491
0.00075528
0.000868887
0.000958701
0.00102092
0.00105267
0.00105242
0.00102018
0.000957474
0.000867178
0.000753099
0.000619849
0.000472573
0.000316535
0.00015677
-2.04978e-06
-0.000155795
-0.00030096
-0.000434701
-0.000554813
-0.00065967
-0.000748137
-0.00081947
-0.000873217
-0.000909125
-0.000927062
-0.000749904
-0.000734596
-0.000704015
-0.000658411
-0.000598188
-0.000523957
-0.000436598
-0.000337313
-0.000227687
-0.00010973
1.41007e-05
0.000140899
0.00026736
0.000389856
0.000504575
0.000607676
0.000695403
0.000764404
0.000811961
0.000836133
0.000835913
0.000811296
0.0007633
0.000693864
0.000605712
0.000502196
0.000387076
0.000264194
0.000137366
1.0222e-05
-0.000113931
-0.000232184
-0.00034208
-0.000441604
-0.000529172
-0.000603577
-0.000663942
-0.000709653
-0.000740306
-0.000755649
-0.000609272
-0.00059635
-0.000570577
-0.000532254
-0.000481844
-0.00042001
-0.000347647
-0.000265917
-0.000176275
-8.04888e-05
1.93569e-05
0.00012088
0.000221443
0.000318222
0.000408298
0.000488793
0.000556977
0.000610422
0.000647149
0.000665768
0.000665569
0.00064655
0.000609427
0.000555592
0.000487025
0.000406156
0.00031572
0.000218596
0.000117703
1.58697e-05
-8.42652e-05
-0.000180317
-0.000270201
-0.000352146
-0.000424695
-0.000486686
-0.000537223
-0.000575643
-0.00060148
-0.000614435
-0.000493996
-0.000483197
-0.000461688
-0.000429777
-0.000387931
-0.000336799
-0.000277227
-0.000210278
-0.000137238
-5.96276e-05
2.08119e-05
0.00010214
0.000182254
0.000258948
0.000329983
0.000393174
0.000446488
0.000488144
0.000516703
0.000531153
0.000530973
0.000516163
0.000487248
0.00044524
0.000391582
0.000328056
0.000256698
0.000179693
9.92831e-05
1.76767e-05
-6.30222e-05
-0.000140871
-0.000214127
-0.000281269
-0.000341009
-0.000392282
-0.000434241
-0.000466239
-0.000487806
-0.000498634
-0.000399858
-0.000390905
-0.000373089
-0.000346706
-0.000312195
-0.000270154
-0.000221348
-0.000166715
-0.000107368
-4.45897e-05
2.01787e-05
8.53627e-05
0.000149287
0.000210221
0.000266436
0.000316265
0.000358174
0.000390831
0.000413171
0.000424451
0.000424289
0.000412685
0.000390024
0.000357051
0.000314833
0.000264703
0.000208197
0.000146983
8.27938e-05
1.736e-05
-4.76412e-05
-0.000110633
-0.000170174
-0.00022498
-0.000273936
-0.000316104
-0.000350718
-0.000377178
-0.000395045
-0.000404025
-0.000323213
-0.000315836
-0.000301168
-0.000279478
-0.000251161
-0.00021675
-0.000176915
-0.000132466
-8.43491e-05
-3.3634e-05
1.84957e-05
7.07655e-05
0.00012184
0.000170357
0.000214973
0.000254406
0.000287488
0.000313211
0.000330776
0.000339627
0.000339481
0.000330339
0.000312486
0.000286478
0.000253118
0.000213414
0.000168537
0.000119768
6.84557e-05
1.59615e-05
-3.6377e-05
-8.72842e-05
-0.000135576
-0.000180179
-0.000220148
-0.000254674
-0.000283082
-0.000304842
-0.000319556
-0.000326957
-0.000260962
-0.000254914
-0.000242895
-0.000225142
-0.000202001
-0.000173935
-0.000141521
-0.000105444
-6.64977e-05
-2.55684e-05
1.63768e-05
5.83091e-05
9.91626e-05
0.000137862
0.000173357
0.000204655
0.000230857
0.000251196
0.000265063
0.000272039
0.000271909
0.00026467
0.000250544
0.000229949
0.000203496
0.000171955
0.000136225
9.72998e-05
5.62323e-05
1.40985e-05
-2.80342e-05
-6.9136e-05
-0.000108239
-0.000144454
-0.00017699
-0.000205158
-0.000228381
-0.000246197
-0.000258257
-0.000264326
-0.000210508
-0.000205564
-0.000195753
-0.000181273
-0.000162423
-0.000139597
-0.000113283
-8.40569e-05
-5.25762e-05
-1.95704e-05
1.41731e-05
4.78247e-05
8.05329e-05
0.000111447
0.000139741
0.000164641
0.000185452
0.000201583
0.000212567
0.000218094
0.000217976
0.000212214
0.000200996
0.000184636
0.000163599
0.00013848
0.000109974
7.8858e-05
4.59575e-05
1.21249e-05
-2.17869e-05
-5.49476e-05
-8.65686e-05
-0.00011592
-0.000142343
-0.00016526
-0.000184184
-0.000198719
-0.000208568
-0.000213531
-0.000169681
-0.000165651
-0.000157662
-0.000145885
-0.00013057
-0.000112048
-9.07268e-05
-6.70858e-05
-4.1667e-05
-1.50674e-05
1.20738e-05
3.90881e-05
6.52949e-05
9.00185e-05
0.000112608
0.000132457
0.000149022
0.000161846
0.000170567
0.000174936
0.000174829
0.000170248
0.000161317
0.000148287
0.000131519
0.000111474
8.86944e-05
6.3789e-05
3.74094e-05
1.02325e-05
-1.70599e-05
-4.37986e-05
-6.93433e-05
-9.30964e-05
-0.000114515
-0.000133119
-0.000148501
-0.000160328
-0.00016835
-0.0001724
-0.00013666
-0.000133397
-0.000126912
-0.000117357
-0.00010494
-8.99378e-05
-7.26894e-05
-5.35895e-05
-3.30832e-05
-1.16571e-05
1.01707e-05
3.18622e-05
5.28726e-05
7.26643e-05
9.07221e-05
0.000106569
0.000119778
0.000129993
0.000136931
0.000140389
0.000140294
0.000136644
0.000129517
0.000119117
0.000105726
8.97023e-05
7.14737e-05
5.15186e-05
3.0353e-05
8.51546e-06
-1.34483e-05
-3.49993e-05
-5.56187e-05
-7.48192e-05
-9.21551e-05
-0.000107231
-0.000119707
-0.000129308
-0.000135822
-0.000139101
-0.000110005
-0.000107364
-0.000102112
-9.4373e-05
-8.43226e-05
-7.21897e-05
-5.82532e-05
-4.28374e-05
-2.63059e-05
-9.05422e-06
8.49854e-06
2.59193e-05
4.27718e-05
5.86274e-05
7.30774e-05
8.57443e-05
9.62933e-05
0.000104443
0.000109973
0.000112734
0.000112649
0.000109716
0.000104016
9.5699e-05
8.49864e-05
7.21604e-05
5.7557e-05
4.15545e-05
2.45625e-05
7.01056e-06
-1.06643e-05
-2.80282e-05
-4.46613e-05
-6.01675e-05
-7.41825e-05
-8.63817e-05
-9.64855e-05
-0.000104265
-0.000109544
-0.000112196
-8.8522e-05
-8.6377e-05
-8.21255e-05
-7.58659e-05
-6.77417e-05
-5.79407e-05
-4.66915e-05
-3.42592e-05
-2.09396e-05
-7.0538e-06
7.05976e-06
2.10526e-05
3.45751e-05
4.7285e-05
5.88572e-05
6.89924e-05
7.74259e-05
8.39355e-05
8.83484e-05
9.05464e-05
9.04691e-05
8.81172e-05
8.35515e-05
7.68915e-05
6.83109e-05
5.80328e-05
4.63227e-05
3.34807e-05
1.98329e-05
5.72215e-06
-8.50111e-06
-2.24877e-05
-3.58985e-05
-4.84121e-05
-5.97318e-05
-6.95923e-05
-7.77646e-05
-8.40605e-05
-8.83364e-05
-9.04937e-05
-7.11928e-05
-6.94605e-05
-6.60254e-05
-6.0969e-05
-5.44091e-05
-4.64995e-05
-3.7427e-05
-2.74073e-05
-1.66808e-05
-5.50735e-06
5.8398e-06
1.70804e-05
2.79339e-05
3.81269e-05
4.74001e-05
5.55157e-05
6.22638e-05
6.74684e-05
7.09927e-05
7.27438e-05
7.26743e-05
7.07847e-05
6.71231e-05
6.17833e-05
5.49031e-05
4.6659e-05
3.72617e-05
2.69501e-05
1.59839e-05
4.63738e-06
-6.80833e-06
-1.80723e-05
-2.88808e-05
-3.89734e-05
-4.81094e-05
-5.60724e-05
-6.26755e-05
-6.77646e-05
-7.12215e-05
-7.29647e-05
-5.72343e-05
-5.58357e-05
-5.30629e-05
-4.89824e-05
-4.36904e-05
-3.73123e-05
-3.00002e-05
-2.19293e-05
-1.32946e-05
-4.30593e-06
4.81619e-06
1.38463e-05
2.25595e-05
3.07369e-05
3.81714e-05
4.46736e-05
5.00766e-05
5.42408e-05
5.70578e-05
5.84538e-05
5.83914e-05
5.68708e-05
5.39304e-05
4.96447e-05
4.41229e-05
3.75051e-05
2.99591e-05
2.16751e-05
1.28607e-05
3.73533e-06
-5.47536e-06
-1.45454e-05
-2.32538e-05
-3.13902e-05
-3.87593e-05
-4.51853e-05
-5.05161e-05
-5.46259e-05
-5.74182e-05
-5.88266e-05
-4.59945e-05
-4.4867e-05
-4.26308e-05
-3.93405e-05
-3.50745e-05
-2.99349e-05
-2.40449e-05
-1.75468e-05
-1.05982e-05
-3.36878e-06
3.9639e-06
1.12185e-05
1.82144e-05
2.47763e-05
3.07389e-05
3.59507e-05
4.02788e-05
4.36122e-05
4.58647e-05
4.69775e-05
4.69214e-05
4.56966e-05
4.33331e-05
3.98905e-05
3.54555e-05
3.01399e-05
2.40772e-05
1.74194e-05
1.03325e-05
2.99233e-06
-4.41995e-06
-1.17225e-05
-1.87373e-05
-2.52943e-05
-3.12354e-05
-3.64182e-05
-4.0719e-05
-4.40356e-05
-4.62894e-05
-4.7426e-05
-3.69488e-05
-3.60404e-05
-3.42383e-05
-3.1587e-05
-2.81502e-05
-2.40108e-05
-1.92686e-05
-1.40388e-05
-8.44882e-06
-2.63544e-06
3.25823e-06
9.08636e-06
1.4704e-05
1.99705e-05
2.47536e-05
2.89324e-05
3.24007e-05
3.50699e-05
3.68715e-05
3.77587e-05
3.77082e-05
3.67204e-05
3.48191e-05
3.20516e-05
2.84873e-05
2.42152e-05
1.93421e-05
1.39893e-05
8.28993e-06
2.38491e-06
-3.58028e-06
-9.45938e-06
-1.51089e-05
-2.03916e-05
-2.51797e-05
-2.93579e-05
-3.28259e-05
-3.55009e-05
-3.73189e-05
-3.82352e-05
-2.96729e-05
-2.89406e-05
-2.7489e-05
-2.53537e-05
-2.25864e-05
-1.9254e-05
-1.54375e-05
-1.12299e-05
-6.73401e-06
-2.06019e-06
2.67636e-06
7.35835e-06
1.18694e-05
1.60967e-05
1.99343e-05
2.32855e-05
2.60654e-05
2.82033e-05
2.96445e-05
3.03518e-05
3.03064e-05
2.95086e-05
2.79778e-05
2.57516e-05
2.28854e-05
1.94503e-05
1.55318e-05
1.1227e-05
6.64247e-06
1.89136e-06
-2.90946e-06
-7.64233e-06
-1.21917e-05
-1.64468e-05
-2.03046e-05
-2.36718e-05
-2.64672e-05
-2.86237e-05
-3.00896e-05
-3.0829e-05
-2.38207e-05
-2.32312e-05
-2.20626e-05
-2.03438e-05
-1.81165e-05
-1.54349e-05
-1.23645e-05
-8.98024e-06
-5.36517e-06
-1.60818e-06
2.19798e-06
5.95902e-06
9.58142e-06
1.29748e-05
1.60541e-05
1.87418e-05
2.09702e-05
2.26827e-05
2.38355e-05
2.4399e-05
2.43582e-05
2.37134e-05
2.248e-05
2.06882e-05
1.83822e-05
1.5619e-05
1.2467e-05
9.00401e-06
5.31554e-06
1.4924e-06
-2.37153e-06
-6.18158e-06
-9.84469e-06
-1.32716e-05
-1.63792e-05
-1.9092e-05
-2.13446e-05
-2.30825e-05
-2.42639e-05
-2.48598e-05
-1.9116e-05
-1.86416e-05
-1.77012e-05
-1.63181e-05
-1.45261e-05
-1.2369e-05
-9.89956e-06
-7.1783e-06
-4.27211e-06
-1.25264e-06
1.8055e-06
4.8265e-06
7.73522e-06
1.04591e-05
1.293e-05
1.50857e-05
1.68721e-05
1.82437e-05
1.91658e-05
1.96144e-05
1.95777e-05
1.9056e-05
1.80615e-05
1.66185e-05
1.47625e-05
1.25389e-05
1.00027e-05
7.21621e-06
4.24812e-06
1.17131e-06
-1.93875e-06
-5.00591e-06
-7.95526e-06
-1.07149e-05
-1.32177e-05
-1.54029e-05
-1.72176e-05
-1.86178e-05
-1.95697e-05
-2.00499e-05
-1.53348e-05
-1.49532e-05
-1.41966e-05
-1.30841e-05
-1.16429e-05
-9.9082e-06
-7.92263e-06
-5.73498e-06
-3.39917e-06
-9.72848e-07
1.48395e-06
3.91026e-06
6.24573e-06
8.43211e-06
1.04147e-05
1.21437e-05
1.35756e-05
1.46742e-05
1.54114e-05
1.57683e-05
1.57353e-05
1.53127e-05
1.45104e-05
1.33477e-05
1.18531e-05
1.00632e-05
8.02185e-06
5.77923e-06
3.39039e-06
9.13916e-07
-1.58953e-06
-4.05871e-06
-6.43332e-06
-8.65544e-06
-1.0671e-05
-1.24309e-05
-1.38926e-05
-1.50205e-05
-1.57873e-05
-1.61741e-05
-1.22967e-05
-1.19898e-05
-1.13814e-05
-1.04869e-05
-9.32801e-06
-7.93339e-06
-6.33729e-06
-4.57905e-06
-2.70204e-06
-7.52697e-07
1.2207e-06
3.16915e-06
5.04415e-06
6.79893e-06
8.38958e-06
9.77618e-06
1.09238e-05
1.18035e-05
1.23927e-05
1.26763e-05
1.26467e-05
1.2304e-05
1.16562e-05
1.0719e-05
9.51499e-06
8.07363e-06
6.43017e-06
4.62485e-06
2.70188e-06
7.0835e-07
-1.30698e-06
-3.29484e-06
-5.2067e-06
-6.99594e-06
-8.61896e-06
-1.00363e-05
-1.12135e-05
-1.21219e-05
-1.27395e-05
-1.30511e-05
-9.85635e-06
-9.60964e-06
-9.12056e-06
-8.40141e-06
-7.46989e-06
-6.34896e-06
-5.06626e-06
-3.65344e-06
-2.14544e-06
-5.79588e-07
1.00527e-06
2.56973e-06
4.07485e-06
5.48303e-06
6.75906e-06
7.87088e-06
8.79051e-06
9.49464e-06
9.96534e-06
1.01904e-05
1.01638e-05
9.88562e-06
9.36232e-06
8.60639e-06
7.63611e-06
6.47507e-06
5.15158e-06
3.69797e-06
2.14974e-06
5.44757e-07
-1.07778e-06
-2.67825e-06
-4.21758e-06
-5.65826e-06
-6.96516e-06
-8.10649e-06
-9.05447e-06
-9.78605e-06
-1.02835e-05
-1.05344e-05
-7.89669e-06
-7.69842e-06
-7.30535e-06
-6.7274e-06
-5.97882e-06
-5.0781e-06
-4.0475e-06
-2.91249e-06
-1.70119e-06
-4.43636e-07
8.28944e-07
2.08488e-06
3.29287e-06
4.42274e-06
5.44618e-06
6.33749e-06
7.0742e-06
7.63764e-06
8.01342e-06
8.19177e-06
8.16784e-06
7.94176e-06
7.5187e-06
6.90871e-06
6.12647e-06
5.19092e-06
4.12482e-06
2.95412e-06
1.70739e-06
4.15032e-07
-8.91416e-07
-2.18008e-06
-3.41955e-06
-4.57959e-06
-5.63195e-06
-6.551e-06
-7.31438e-06
-7.90352e-06
-8.30409e-06
-8.50614e-06
-6.32358e-06
-6.16427e-06
-5.84843e-06
-5.38407e-06
-4.78266e-06
-4.05906e-06
-3.2312e-06
-2.31958e-06
-1.34681e-06
-3.37054e-07
6.84577e-07
1.69264e-06
2.66196e-06
3.56832e-06
4.38899e-06
5.10333e-06
5.69331e-06
6.14396e-06
6.44373e-06
6.5848e-06
6.56329e-06
6.37932e-06
6.03705e-06
5.54456e-06
4.91366e-06
4.15956e-06
3.30054e-06
2.35749e-06
1.35334e-06
3.12546e-07
-7.39526e-07
-1.77724e-06
-2.77532e-06
-3.70944e-06
-4.55685e-06
-5.29693e-06
-5.91166e-06
-6.38608e-06
-6.70866e-06
-6.87136e-06
-5.06116e-06
-4.93318e-06
-4.67947e-06
-4.30646e-06
-3.82338e-06
-3.24221e-06
-2.57736e-06
-1.84533e-06
-1.0643e-06
-2.53695e-07
5.66294e-07
1.37521e-06
2.15285e-06
2.87974e-06
3.53763e-06
4.10995e-06
4.58223e-06
4.94247e-06
5.18139e-06
5.29274e-06
5.2734e-06
5.12349e-06
4.84637e-06
4.44853e-06
3.93946e-06
3.3314e-06
2.63905e-06
1.87918e-06
1.07024e-06
2.31901e-07
-6.15447e-07
-1.45118e-06
-2.25496e-06
-3.00721e-06
-3.68964e-06
-4.28562e-06
-4.78065e-06
-5.1627e-06
-5.42247e-06
-5.55349e-06
-4.04837e-06
-3.94559e-06
-3.74183e-06
-3.44228e-06
-3.05435e-06
-2.5877e-06
-2.05389e-06
-1.46621e-06
-8.39268e-07
-1.88694e-07
4.6929e-07
1.11825e-06
1.74194e-06
2.32472e-06
2.85195e-06
3.31031e-06
3.6882e-06
3.97597e-06
4.16619e-06
4.25386e-06
4.23648e-06
4.11415e-06
3.88959e-06
3.56802e-06
3.15706e-06
2.66658e-06
2.10838e-06
1.49595e-06
8.44123e-07
1.68723e-07
-5.13852e-07
-1.18701e-06
-1.8344e-06
-2.44025e-06
-2.98985e-06
-3.46983e-06
-3.8685e-06
-4.17617e-06
-4.38537e-06
-4.49088e-06
-3.23614e-06
-3.15361e-06
-2.99002e-06
-2.74952e-06
-2.43809e-06
-2.06348e-06
-1.63499e-06
-1.16332e-06
-6.602e-07
-1.382e-07
3.89644e-07
9.10123e-07
1.41019e-06
1.87729e-06
2.29964e-06
2.66657e-06
2.96876e-06
3.19847e-06
3.34974e-06
3.41856e-06
3.40294e-06
3.30297e-06
3.12083e-06
2.86073e-06
2.52882e-06
2.13302e-06
1.68282e-06
1.18908e-06
6.63724e-07
1.19476e-07
-4.3047e-07
-9.72773e-07
-1.49426e-06
-1.98228e-06
-2.42495e-06
-2.81154e-06
-3.13263e-06
-3.38043e-06
-3.54891e-06
-3.63389e-06
-2.58501e-06
-2.51877e-06
-2.38746e-06
-2.19442e-06
-1.94447e-06
-1.64382e-06
-1.29997e-06
-9.21507e-07
-5.1787e-07
-9.91547e-08
3.24162e-07
7.41466e-07
1.14228e-06
1.51651e-06
1.8547e-06
2.14829e-06
2.38979e-06
2.57299e-06
2.69312e-06
2.74696e-06
2.73292e-06
2.65108e-06
2.5032e-06
2.29269e-06
2.02447e-06
1.70493e-06
1.3417e-06
9.43522e-07
5.19982e-07
8.13131e-08
-3.61871e-07
-7.98835e-07
-1.21899e-06
-1.61214e-06
-1.96874e-06
-2.28015e-06
-2.53879e-06
-2.73839e-06
-2.87409e-06
-2.94254e-06
-2.06325e-06
-2.0101e-06
-1.90473e-06
-1.74983e-06
-1.54927e-06
-1.30805e-06
-1.03221e-06
-7.28621e-07
-4.04894e-07
-6.91335e-08
2.70242e-07
6.04704e-07
9.25836e-07
1.22553e-06
1.49621e-06
1.73097e-06
1.92383e-06
2.0698e-06
2.16504e-06
2.20698e-06
2.19436e-06
2.12724e-06
2.00706e-06
1.83654e-06
1.61967e-06
1.36157e-06
1.0684e-06
7.47172e-07
4.0561e-07
5.19433e-08
-3.0529e-07
-6.57454e-07
-9.96027e-07
-1.31281e-06
-1.60013e-06
-1.85101e-06
-2.05937e-06
-2.22017e-06
-2.32949e-06
-2.38463e-06
-1.64534e-06
-1.6027e-06
-1.51817e-06
-1.39392e-06
-1.23304e-06
-1.03957e-06
-8.18347e-07
-5.74907e-07
-3.15357e-07
-4.62113e-08
2.25766e-07
4.93725e-07
7.50905e-07
9.90797e-07
1.20731e-06
1.39492e-06
1.5488e-06
1.66496e-06
1.74033e-06
1.77285e-06
1.7615e-06
1.70636e-06
1.60856e-06
1.47033e-06
1.29486e-06
1.08628e-06
8.49545e-07
5.90298e-07
3.14753e-07
2.95309e-08
-2.58499e-07
-5.4239e-07
-8.15286e-07
-1.07059e-06
-1.30212e-06
-1.50428e-06
-1.67218e-06
-1.80173e-06
-1.88981e-06
-1.93424e-06
-1.31079e-06
-1.27659e-06
-1.2088e-06
-1.10916e-06
-9.80163e-07
-8.2504e-07
-6.47681e-07
-4.52542e-07
-2.44523e-07
-2.88602e-08
1.89014e-07
4.03596e-07
6.09459e-07
8.01374e-07
9.74453e-07
1.12426e-06
1.24693e-06
1.33925e-06
1.39877e-06
1.42383e-06
1.41363e-06
1.36822e-06
1.28855e-06
1.17639e-06
1.03431e-06
8.65654e-07
6.74394e-07
4.65079e-07
2.42707e-07
1.26059e-08
-2.19698e-07
-4.48617e-07
-6.68631e-07
-8.74436e-07
-1.06106e-06
-1.224e-06
-1.3593e-06
-1.46371e-06
-1.53469e-06
-1.57049e-06
-1.0431e-06
-1.01569e-06
-9.61352e-07
-8.81479e-07
-7.78077e-07
-6.53746e-07
-5.11611e-07
-3.5525e-07
-1.88601e-07
-1.58686e-08
1.58583e-07
3.30336e-07
4.9503e-07
6.48468e-07
7.86726e-07
9.06244e-07
1.00392e-06
1.07719e-06
1.12407e-06
1.14324e-06
1.13407e-06
1.09661e-06
1.03161e-06
9.40506e-07
8.25384e-07
6.88917e-07
5.34314e-07
3.65233e-07
1.85698e-07
-5.41712e-12
-1.8743e-07
-3.72078e-07
-5.49512e-07
-7.15461e-07
-8.65926e-07
-9.9728e-07
-1.10635e-06
-1.19051e-06
-1.24773e-06
-1.27658e-06
-8.29069e-07
-8.07104e-07
-7.63558e-07
-6.99555e-07
-6.16704e-07
-5.17094e-07
-4.03235e-07
-2.78002e-07
-1.44556e-07
-6.27588e-09
1.33335e-07
2.70728e-07
4.02405e-07
5.24994e-07
6.35348e-07
7.30608e-07
8.08289e-07
8.66328e-07
9.03148e-07
9.1769e-07
9.09445e-07
8.78461e-07
8.25353e-07
7.51277e-07
6.57913e-07
5.47415e-07
4.22367e-07
2.85715e-07
1.40697e-07
-9.23895e-09
-1.60512e-07
-3.09506e-07
-4.52646e-07
-5.86499e-07
-7.07847e-07
-8.13771e-07
-9.01719e-07
-9.69576e-07
-1.0157e-06
-1.03896e-06
-6.58045e-07
-6.40451e-07
-6.0557e-07
-5.54305e-07
-4.8795e-07
-4.08183e-07
-3.17018e-07
-2.16764e-07
-1.09961e-07
6.78265e-10
1.12342e-07
2.22179e-07
3.27383e-07
4.25248e-07
5.13248e-07
5.89089e-07
6.50779e-07
6.96665e-07