/*--------------------------------*- C++ -*----------------------------------*\
| =========                 |                                                 |
| \\      /  F ield         | OpenFOAM: The Open Source CFD Toolbox           |
|  \\    /   O peration     | Version:  v2106                                 |
|   \\  /    A nd           | Website:  www.openfoam.com                      |
|    \\/     M anipulation  |                                                 |
\*---------------------------------------------------------------------------*/
FoamFile
{
    version     2.0;
    format      ascii;
    arch        "LSB;label=32;scalar=64";
    class       pointVectorField;
    location    "0";
    object      pointDisplacement;
}
// * * * * * * * * * * * * * * * * * * * * * * * * * * * * * * * * * * * * * //

dimensions      [0 1 0 0 0 0 0];

internalField   nonuniform List<vector> 
24440
(
(0 0 0)
(0 0 0)
(0 0 0)
(0 0 0)
(0 0 0)
(0 0 0)
(0 0 0)
(0 0 0)
(0 0 0)
(0 0 0)
(0 0 0)
(0 0 0)
(0 0 0)
(0 0 0)
(0 0 0)
(0 0 0)
(0 0 0)
(0 0 0)
(0 0 0)
(0 0 0)
(0 0 0)
(0 0 0)
(0 0 0)
(0 0 0)
(0 0 0)
(0 0 0)
(0 0 0)
(0 0 0)
(0 0 0)
(0 0 0)
(0 0 0)
(0 0 0)
(0 0 0)
(0 0 0)
(0 0 0)
(0 0 0)
(0 0 0)
(0 0 0)
(0 0 0)
(0 0 0)
(0 0 0)
(0 0 0)
(0 0 0)
(0 0 0)
(0 0 0)
(0 0 0)
(0 0 0)
(0 0 0)
(0 0 0)
(0 0 0)
(0 0 0)
(0 0 0)
(0 0 0)
(0 0 0)
(0 0 0)
(0 0 0)
(0 0 0)
(0 0 0)
(0 0 0)
(0 0 0)
(0 0 0)
(0 0 0)
(0 0 0)
(0 0 0)
(0 0 0)
(0 0 0)
(0 0 0)
(0 0 0)
(0 0 0)
(0 0 0)
(0 0 0)
(0 0 0)
(0 0 0)
(0 0 0)
(0 0 0)
(0 0 0)
(0 0 0)
(0 0 0)
(0 0 0)
(0 0 0)
(0 0 0)
(0 0 0)
(0 0 0)
(0 0 0)
(0 0 0)
(0 0 0)
(0 0 0)
(0 0 0)
(0 0 0)
(0 0 0)
(0 0 0)
(0 0 0)
(0 0 0)
(0 0 0)
(0 0 0)
(0 0 0)
(0 0 0)
(0 0 0)
(0 1.00519e-08 0)
(0 6.33877e-08 0)
(0 1.74303e-07 0)
(0 2.68592e-07 0)
(0 3.04777e-07 0)
(0 2.68592e-07 0)
(0 1.74303e-07 0)
(0 6.33877e-08 0)
(0 1.00519e-08 0)
(0 0 0)
(0 0 0)
(0 0 0)
(0 0 0)
(0 0 0)
(0 0 0)
(0 0 0)
(0 0 0)
(0 0 0)
(0 0 0)
(0 0 0)
(0 0 0)
(0 0 0)
(0 0 0)
(0 0 0)
(0 0 0)
(0 0 0)
(0 0 0)
(0 0 0)
(0 0 0)
(0 0 0)
(0 0 0)
(0 0 0)
(0 0 0)
(0 0 0)
(0 0 0)
(0 0 0)
(0 0 0)
(0 0 0)
(0 1.68342e-08 0)
(0 2.22688e-07 0)
(0 6.55354e-07 0)
(0 1.18058e-06 0)
(0 1.68398e-06 0)
(0 2.03493e-06 0)
(0 2.36117e-06 0)
(0 2.47596e-06 0)
(0 2.36117e-06 0)
(0 2.03493e-06 0)
(0 1.68398e-06 0)
(0 1.18058e-06 0)
(0 6.55354e-07 0)
(0 2.22688e-07 0)
(0 1.68342e-08 0)
(0 0 0)
(0 0 0)
(0 0 0)
(0 0 0)
(0 0 0)
(0 0 0)
(0 0 0)
(0 0 0)
(0 0 0)
(0 0 0)
(0 0 0)
(0 0 0)
(0 0 0)
(0 0 0)
(0 0 0)
(0 0 0)
(0 0 0)
(0 0 0)
(0 0 0)
(0 0 0)
(0 0 0)
(0 0 0)
(0 0 0)
(0 0 0)
(0 7.06795e-09 0)
(0 2.92856e-07 0)
(0 9.9873e-07 0)
(0 1.96948e-06 0)
(0 2.96936e-06 0)
(0 4.08484e-06 0)
(0 5.05095e-06 0)
(0 5.64928e-06 0)
(0 6.22141e-06 0)
(0 6.41914e-06 0)
(0 6.22141e-06 0)
(0 5.64928e-06 0)
(0 5.05095e-06 0)
(0 4.08484e-06 0)
(0 2.96936e-06 0)
(0 1.96948e-06 0)
(0 9.9873e-07 0)
(0 2.92856e-07 0)
(0 7.06795e-09 0)
(0 0 0)
(0 0 0)
(0 0 0)
(0 0 0)
(0 0 0)
(0 0 0)
(0 0 0)
(0 0 0)
(0 0 0)
(0 0 0)
(0 0 0)
(0 0 0)
(0 0 0)
(0 0 0)
(0 0 0)
(0 0 0)
(0 0 0)
(0 0 0)
(0 0 0)
(0 0 0)
(0 0 0)
(0 6.68309e-08 0)
(0 6.95005e-07 0)
(0 1.84701e-06 0)
(0 3.2406e-06 0)
(0 4.97089e-06 0)
(0 6.71606e-06 0)
(0 8.22791e-06 0)
(0 9.64415e-06 0)
(0 1.06491e-05 0)
(0 1.12496e-05 0)
(0 1.15252e-05 0)
(0 1.12496e-05 0)
(0 1.06491e-05 0)
(0 9.64415e-06 0)
(0 8.22791e-06 0)
(0 6.71606e-06 0)
(0 4.97089e-06 0)
(0 3.2406e-06 0)
(0 1.84701e-06 0)
(0 6.95005e-07 0)
(0 7.07518e-08 0)
(0 0 0)
(0 0 0)
(0 0 0)
(0 0 0)
(0 0 0)
(0 0 0)
(0 0 0)
(0 0 0)
(0 0 0)
(0 0 0)
(0 0 0)
(0 0 0)
(0 0 0)
(0 0 0)
(0 0 0)
(0 0 0)
(0 0 0)
(0 0 0)
(0 0 0)
(0 1.31441e-07 0)
(0 9.21666e-07 0)
(0 2.30036e-06 0)
(0 4.22311e-06 0)
(0 6.50823e-06 0)
(0 8.88282e-06 0)
(0 1.10619e-05 0)
(0 1.31277e-05 0)
(0 1.3904e-05 0)
(0 1.47435e-05 0)
(0 1.54456e-05 0)
(0 1.59989e-05 0)
(0 1.63945e-05 0)
(0 1.6668e-05 0)
(0 1.69208e-05 0)
(0 1.70054e-05 0)
(0 1.69208e-05 0)
(0 1.6668e-05 0)
(0 1.63945e-05 0)
(0 1.59989e-05 0)
(0 1.54456e-05 0)
(0 1.47435e-05 0)
(0 1.3904e-05 0)
(0 1.31277e-05 0)
(0 1.10619e-05 0)
(0 8.88282e-06 0)
(0 6.50823e-06 0)
(0 4.22311e-06 0)
(0 2.25262e-06 0)
(0 8.32819e-07 0)
(0 1.0503e-07 0)
(0 0 0)
(0 0 0)
(0 0 0)
(0 0 0)
(0 0 0)
(0 0 0)
(0 0 0)
(0 0 0)
(0 0 0)
(0 0 0)
(0 0 0)
(0 0 0)
(0 0 0)
(0 0 0)
(0 0 0)
(0 0 0)
(0 0 0)
(0 7.73117e-08 0)
(0 8.8475e-07 0)
(0 2.46507e-06 0)
(0 4.63854e-06 0)
(0 7.18441e-06 0)
(0 1.01798e-05 0)
(0 1.1612e-05 0)
(0 1.28816e-05 0)
(0 1.42866e-05 0)
(0 1.56036e-05 0)
(0 1.68086e-05 0)
(0 1.78322e-05 0)
(0 1.55411e-05 0)
(0 1.649e-05 0)
(0 1.72388e-05 0)
(0 1.79941e-05 0)
(0 1.85867e-05 0)
(0 1.90089e-05 0)
(0 1.9262e-05 0)
(0 1.95303e-05 0)
(0 1.962e-05 0)
(0 1.95303e-05 0)
(0 1.9262e-05 0)
(0 1.90089e-05 0)
(0 1.85867e-05 0)
(0 1.79941e-05 0)
(0 1.72388e-05 0)
(0 1.649e-05 0)
(0 1.55411e-05 0)
(0 1.78322e-05 0)
(0 1.68086e-05 0)
(0 1.56036e-05 0)
(0 1.42866e-05 0)
(0 1.28816e-05 0)
(0 1.1612e-05 0)
(0 1.01798e-05 0)
(0 7.18441e-06 0)
(0 4.63854e-06 0)
(0 2.37515e-06 0)
(0 8.46256e-07 0)
(0 7.02102e-08 0)
(0 0 0)
(0 0 0)
(0 0 0)
(0 0 0)
(0 0 0)
(0 0 0)
(0 0 0)
(0 0 0)
(0 0 0)
(0 0 0)
(0 0 0)
(0 0 0)
(0 0 0)
(0 0 0)
(0 0 0)
(0 0 0)
(0 4.89165e-07 0)
(0 1.99905e-06 0)
(0 4.27368e-06 0)
(0 7.13089e-06 0)
(0 1.03132e-05 0)
(0 1.35467e-05 0)
(0 1.19236e-05 0)
(0 1.34811e-05 0)
(0 1.49798e-05 0)
(0 1.6391e-05 0)
(0 1.76447e-05 0)
(0 1.89162e-05 0)
(0 2.00398e-05 0)
(0 2.09681e-05 0)
(0 1.88405e-05 0)
(0 1.96897e-05 0)
(0 2.18434e-05 0)
(0 2.24737e-05 0)
(0 2.03654e-05 0)
(0 2.09835e-05 0)
(0 2.31005e-05 0)
(0 2.35417e-05 0)
(0 2.14221e-05 0)
(0 2.16443e-05 0)
(0 2.37974e-05 0)
(0 2.40004e-05 0)
(0 2.1921e-05 0)
(0 2.20133e-05 0)
(0 2.40921e-05 0)
(0 2.40004e-05 0)
(0 2.1921e-05 0)
(0 2.16443e-05 0)
(0 2.37974e-05 0)
(0 2.35417e-05 0)
(0 2.14221e-05 0)
(0 2.09835e-05 0)
(0 2.31005e-05 0)
(0 2.24737e-05 0)
(0 2.03654e-05 0)
(0 1.96897e-05 0)
(0 2.18434e-05 0)
(0 2.09681e-05 0)
(0 1.88405e-05 0)
(0 2.00398e-05 0)
(0 1.89162e-05 0)
(0 1.76447e-05 0)
(0 1.6391e-05 0)
(0 1.49798e-05 0)
(0 1.34811e-05 0)
(0 1.19236e-05 0)
(0 1.35467e-05 0)
(0 1.03132e-05 0)
(0 7.04505e-06 0)
(0 4.23995e-06 0)
(0 1.99691e-06 0)
(0 5.31801e-07 0)
(0 0 0)
(0 0 0)
(0 0 0)
(0 0 0)
(0 0 0)
(0 0 0)
(0 0 0)
(0 0 0)
(0 0 0)
(0 0 0)
(0 0 0)
(0 0 0)
(0 0 0)
(0 0 0)
(0 0 0)
(0 1.06711e-07 0)
(0 1.09631e-06 0)
(0 3.16011e-06 0)
(0 5.92078e-06 0)
(0 9.20272e-06 0)
(0 1.29628e-05 0)
(0 1.65847e-05 0)
(0 1.51752e-05 0)
(0 1.6816e-05 0)
(0 1.50993e-05 0)
(0 1.67881e-05 0)
(0 1.83582e-05 0)
(0 1.99054e-05 0)
(0 1.82743e-05 0)
(0 1.96316e-05 0)
(0 2.13003e-05 0)
(0 2.19364e-05 0)
(0 2.25284e-05 0)
(0 2.17234e-05 0)
(0 2.07773e-05 0)
(0 2.19303e-05 0)
(0 2.27571e-05 0)
(0 2.32679e-05 0)
(0 2.24408e-05 0)
(0 2.36826e-05 0)
(0 2.4467e-05 0)
(0 2.48299e-05 0)
(0 2.40511e-05 0)
(0 2.48631e-05 0)
(0 2.56304e-05 0)
(0 2.58217e-05 0)
(0 2.50994e-05 0)
(0 2.55338e-05 0)
(0 2.62369e-05 0)
(0 2.6337e-05 0)
(0 2.56501e-05 0)
(0 2.57752e-05 0)
(0 2.64472e-05 0)
(0 2.64269e-05 0)
(0 2.57536e-05 0)
(0 2.55338e-05 0)
(0 2.62369e-05 0)
(0 2.6142e-05 0)
(0 2.5434e-05 0)
(0 2.48631e-05 0)
(0 2.56304e-05 0)
(0 2.54108e-05 0)
(0 2.46453e-05 0)
(0 2.36826e-05 0)
(0 2.4467e-05 0)
(0 2.41465e-05 0)
(0 2.32666e-05 0)
(0 2.19303e-05 0)
(0 2.27571e-05 0)
(0 2.22e-05 0)
(0 2.13752e-05 0)
(0 1.96316e-05 0)
(0 2.13003e-05 0)
(0 1.99054e-05 0)
(0 1.82743e-05 0)
(0 1.67881e-05 0)
(0 1.83582e-05 0)
(0 1.6816e-05 0)
(0 1.50993e-05 0)
(0 1.51752e-05 0)
(0 1.651e-05 0)
(0 1.29539e-05 0)
(0 9.35105e-06 0)
(0 5.87106e-06 0)
(0 3.12934e-06 0)
(0 1.15126e-06 0)
(0 1.22029e-07 0)
(0 0 0)
(0 0 0)
(0 0 0)
(0 0 0)
(0 0 0)
(0 0 0)
(0 0 0)
(0 0 0)
(0 0 0)
(0 0 0)
(0 0 0)
(0 0 0)
(0 0 0)
(0 0 0)
(0 3.49133e-07 0)
(0 1.76698e-06 0)
(0 4.15162e-06 0)
(0 7.29494e-06 0)
(0 1.09275e-05 0)
(0 1.4923e-05 0)
(0 1.86519e-05 0)
(0 1.77319e-05 0)
(0 1.94866e-05 0)
(0 1.82924e-05 0)
(0 1.98868e-05 0)
(0 2.1114e-05 0)
(0 2.25838e-05 0)
(0 2.13391e-05 0)
(0 2.26256e-05 0)
(0 2.3292e-05 0)
(0 2.38652e-05 0)
(0 2.32912e-05 0)
(0 2.49106e-05 0)
(0 2.51863e-05 0)
(0 2.54088e-05 0)
(0 2.51356e-05 0)
(0 2.63703e-05 0)
(0 2.65909e-05 0)
(0 2.6734e-05 0)
(0 2.6518e-05 0)
(0 2.72344e-05 0)
(0 2.73951e-05 0)
(0 2.74681e-05 0)
(0 2.73062e-05 0)
(0 2.76131e-05 0)
(0 2.7731e-05 0)
(0 2.77478e-05 0)
(0 2.76334e-05 0)
(0 2.771e-05 0)
(0 2.78049e-05 0)
(0 2.78033e-05 0)
(0 2.77077e-05 0)
(0 2.76131e-05 0)
(0 2.7731e-05 0)
(0 2.77077e-05 0)
(0 2.75856e-05 0)
(0 2.72344e-05 0)
(0 2.73951e-05 0)
(0 2.7334e-05 0)
(0 2.71481e-05 0)
(0 2.63703e-05 0)
(0 2.65909e-05 0)
(0 2.64662e-05 0)
(0 2.62097e-05 0)
(0 2.49106e-05 0)
(0 2.51863e-05 0)
(0 2.54386e-05 0)
(0 2.49585e-05 0)
(0 2.44217e-05 0)
(0 2.26256e-05 0)
(0 2.3292e-05 0)
(0 2.38709e-05 0)
(0 2.25838e-05 0)
(0 2.13391e-05 0)
(0 1.98868e-05 0)
(0 2.10658e-05 0)
(0 1.94741e-05 0)
(0 1.82924e-05 0)
(0 1.77531e-05 0)
(0 1.87072e-05 0)
(0 1.48855e-05 0)
(0 1.10364e-05 0)
(0 7.37143e-06 0)
(0 4.19971e-06 0)
(0 1.7922e-06 0)
(0 3.57746e-07 0)
(0 0 0)
(0 0 0)
(0 0 0)
(0 0 0)
(0 0 0)
(0 0 0)
(0 0 0)
(0 0 0)
(0 0 0)
(0 0 0)
(0 0 0)
(0 0 0)
(0 0 0)
(0 0 0)
(0 5.38354e-07 0)
(0 2.19508e-06 0)
(0 4.83053e-06 0)
(0 8.22215e-06 0)
(0 1.20843e-05 0)
(0 1.60925e-05 0)
(0 1.99111e-05 0)
(0 1.9438e-05 0)
(0 2.11789e-05 0)
(0 2.03707e-05 0)
(0 2.19467e-05 0)
(0 2.27649e-05 0)
(0 2.41649e-05 0)
(0 2.34887e-05 0)
(0 2.47632e-05 0)
(0 2.5078e-05 0)
(0 2.56265e-05 0)
(0 2.53189e-05 0)
(0 2.66396e-05 0)
(0 2.67851e-05 0)
(0 2.69492e-05 0)
(0 2.68083e-05 0)
(0 2.76518e-05 0)
(0 2.7722e-05 0)
(0 2.77807e-05 0)
(0 2.77187e-05 0)
(0 2.78942e-05 0)
(0 2.78942e-05 0)
(0 2.78942e-05 0)
(0 2.78942e-05 0)
(0 2.78942e-05 0)
(0 2.78942e-05 0)
(0 2.78942e-05 0)
(0 2.78942e-05 0)
(0 2.78942e-05 0)
(0 2.78942e-05 0)
(0 2.78942e-05 0)
(0 2.78942e-05 0)
(0 2.78942e-05 0)
(0 2.78942e-05 0)
(0 2.78942e-05 0)
(0 2.78942e-05 0)
(0 2.78942e-05 0)
(0 2.78942e-05 0)
(0 2.78942e-05 0)
(0 2.78942e-05 0)
(0 2.76518e-05 0)
(0 2.7722e-05 0)
(0 2.76447e-05 0)
(0 2.75714e-05 0)
(0 2.66396e-05 0)
(0 2.67851e-05 0)
(0 2.69093e-05 0)
(0 2.65299e-05 0)
(0 2.62581e-05 0)
(0 2.47488e-05 0)
(0 2.51146e-05 0)
(0 2.53939e-05 0)
(0 2.41314e-05 0)
(0 2.35096e-05 0)
(0 2.20718e-05 0)
(0 2.27366e-05 0)
(0 2.11564e-05 0)
(0 2.04607e-05 0)
(0 1.94215e-05 0)
(0 1.9921e-05 0)
(0 1.60858e-05 0)
(0 1.20651e-05 0)
(0 8.19578e-06 0)
(0 4.80302e-06 0)
(0 2.17232e-06 0)
(0 5.2543e-07 0)
(0 0 0)
(0 0 0)
(0 0 0)
(0 0 0)
(0 0 0)
(0 0 0)
(0 0 0)
(0 0 0)
(0 0 0)
(0 0 0)
(0 0 0)
(0 0 0)
(0 0 0)
(0 0 0)
(0 5.70776e-07 0)
(0 2.26525e-06 0)
(0 4.94114e-06 0)
(0 8.37359e-06 0)
(0 1.22742e-05 0)
(0 1.63153e-05 0)
(0 2.01572e-05 0)
(0 2.01643e-05 0)
(0 2.1907e-05 0)
(0 2.16487e-05 0)
(0 2.32229e-05 0)
(0 2.34815e-05 0)
(0 2.48548e-05 0)
(0 2.46019e-05 0)
(0 2.58021e-05 0)
(0 2.59181e-05 0)
(0 2.63993e-05 0)
(0 2.62948e-05 0)
(0 2.7381e-05 0)
(0 2.74257e-05 0)
(0 2.75445e-05 0)
(0 2.75032e-05 0)
(0 2.78942e-05 0)
(0 2.78942e-05 0)
(0 2.78942e-05 0)
(0 2.78942e-05 0)
(0 2.78942e-05 0)
(0 2.78942e-05 0)
(0 2.78942e-05 0)
(0 2.78942e-05 0)
(0 2.78942e-05 0)
(0 2.78942e-05 0)
(0 2.78942e-05 0)
(0 2.78942e-05 0)
(0 2.78942e-05 0)
(0 2.78942e-05 0)
(0 2.78942e-05 0)
(0 2.78942e-05 0)
(0 2.78942e-05 0)
(0 2.7893e-05 0)
(0 2.7889e-05 0)
(0 2.7381e-05 0)
(0 2.74257e-05 0)
(0 2.74552e-05 0)
(0 2.71763e-05 0)
(0 2.70779e-05 0)
(0 2.58005e-05 0)
(0 2.59197e-05 0)
(0 2.59978e-05 0)
(0 2.48548e-05 0)
(0 2.46376e-05 0)
(0 2.32506e-05 0)
(0 2.34224e-05 0)
(0 2.1839e-05 0)
(0 2.16676e-05 0)
(0 2.00891e-05 0)
(0 2.01121e-05 0)
(0 1.62651e-05 0)
(0 1.22233e-05 0)
(0 8.32628e-06 0)
(0 4.90156e-06 0)
(0 2.23686e-06 0)
(0 5.56067e-07 0)
(0 0 0)
(0 0 0)
(0 0 0)
(0 0 0)
(0 0 0)
(0 0 0)
(0 0 0)
(0 0 0)
(0 0 0)
(0 0 0)
(0 0 0)
(0 0 0)
(0 0 0)
(0 0 0)
(0 4.66456e-07 0)
(0 2.0386e-06 0)
(0 4.58639e-06 0)
(0 7.89248e-06 0)
(0 1.1677e-05 0)
(0 1.56217e-05 0)
(0 1.93981e-05 0)
(0 1.99432e-05 0)
(0 2.1683e-05 0)
(0 2.19012e-05 0)
(0 2.34773e-05 0)
(0 2.32588e-05 0)
(0 2.46385e-05 0)
(0 2.48521e-05 0)
(0 2.59967e-05 0)
(0 2.59355e-05 0)
(0 2.64166e-05 0)
(0 2.6475e-05 0)
(0 2.75041e-05 0)
(0 2.74896e-05 0)
(0 2.76009e-05 0)
(0 2.76141e-05 0)
(0 2.78942e-05 0)
(0 2.78942e-05 0)
(0 2.78942e-05 0)
(0 2.78942e-05 0)
(0 2.78942e-05 0)
(0 2.78942e-05 0)
(0 2.78942e-05 0)
(0 2.78942e-05 0)
(0 2.78942e-05 0)
(0 2.78942e-05 0)
(0 2.78942e-05 0)
(0 2.78942e-05 0)
(0 2.78942e-05 0)
(0 2.78942e-05 0)
(0 2.78942e-05 0)
(0 2.78942e-05 0)
(0 2.75041e-05 0)
(0 2.74777e-05 0)
(0 2.74632e-05 0)
(0 2.71849e-05 0)
(0 2.72166e-05 0)
(0 2.59726e-05 0)
(0 2.59336e-05 0)
(0 2.58152e-05 0)
(0 2.46554e-05 0)
(0 2.48217e-05 0)
(0 2.34412e-05 0)
(0 2.32711e-05 0)
(0 2.16903e-05 0)
(0 2.18602e-05 0)
(0 1.99456e-05 0)
(0 1.94475e-05 0)
(0 1.56579e-05 0)
(0 1.17006e-05 0)
(0 7.9055e-06 0)
(0 4.59157e-06 0)
(0 2.03911e-06 0)
(0 4.65438e-07 0)
(0 0 0)
(0 0 0)
(0 0 0)
(0 0 0)
(0 0 0)
(0 0 0)
(0 0 0)
(0 0 0)
(0 0 0)
(0 0 0)
(0 0 0)
(0 0 0)
(0 0 0)
(0 0 0)
(0 2.35926e-07 0)
(0 1.4819e-06 0)
(0 3.68592e-06 0)
(0 6.65006e-06 0)
(0 1.0339e-05 0)
(0 1.41111e-05 0)
(0 1.77905e-05 0)
(0 1.87662e-05 0)
(0 2.05104e-05 0)
(0 2.11253e-05 0)
(0 2.28012e-05 0)
(0 2.21109e-05 0)
(0 2.35374e-05 0)
(0 2.42229e-05 0)
(0 2.54303e-05 0)
(0 2.5141e-05 0)
(0 2.56658e-05 0)
(0 2.59468e-05 0)
(0 2.71251e-05 0)
(0 2.70428e-05 0)
(0 2.71924e-05 0)
(0 2.72803e-05 0)
(0 2.78604e-05 0)
(0 2.78318e-05 0)
(0 2.7866e-05 0)
(0 2.78837e-05 0)
(0 2.78942e-05 0)
(0 2.78942e-05 0)
(0 2.78942e-05 0)
(0 2.78942e-05 0)
(0 2.78942e-05 0)
(0 2.78942e-05 0)
(0 2.78942e-05 0)
(0 2.78942e-05 0)
(0 2.78604e-05 0)
(0 2.78276e-05 0)
(0 2.77823e-05 0)
(0 2.78228e-05 0)
(0 2.71251e-05 0)
(0 2.70428e-05 0)
(0 2.69309e-05 0)
(0 2.65761e-05 0)
(0 2.67952e-05 0)
(0 2.54303e-05 0)
(0 2.5141e-05 0)
(0 2.48124e-05 0)
(0 2.35374e-05 0)
(0 2.42229e-05 0)
(0 2.27587e-05 0)
(0 2.21109e-05 0)
(0 2.05104e-05 0)
(0 2.11807e-05 0)
(0 1.87662e-05 0)
(0 1.77905e-05 0)
(0 1.41111e-05 0)
(0 1.02057e-05 0)
(0 6.71543e-06 0)
(0 3.72879e-06 0)
(0 1.50537e-06 0)
(0 2.43855e-07 0)
(0 0 0)
(0 0 0)
(0 0 0)
(0 0 0)
(0 0 0)
(0 0 0)
(0 0 0)
(0 0 0)
(0 0 0)
(0 0 0)
(0 0 0)
(0 0 0)
(0 0 0)
(0 0 0)
(0 2.91924e-08 0)
(0 8.6657e-07 0)
(0 2.6388e-06 0)
(0 5.18897e-06 0)
(0 8.28391e-06 0)
(0 1.1652e-05 0)
(0 1.51864e-05 0)
(0 1.65265e-05 0)
(0 1.83235e-05 0)
(0 1.95019e-05 0)
(0 2.11666e-05 0)
(0 1.98969e-05 0)
(0 2.14725e-05 0)
(0 2.26143e-05 0)
(0 2.39444e-05 0)
(0 2.34111e-05 0)
(0 2.39986e-05 0)
(0 2.45274e-05 0)
(0 2.5955e-05 0)
(0 2.57175e-05 0)
(0 2.59334e-05 0)
(0 2.61307e-05 0)
(0 2.72166e-05 0)
(0 2.70604e-05 0)
(0 2.71744e-05 0)
(0 2.73246e-05 0)
(0 2.77807e-05 0)
(0 2.76934e-05 0)
(0 2.77317e-05 0)
(0 2.78115e-05 0)
(0 2.78942e-05 0)
(0 2.78787e-05 0)
(0 2.78847e-05 0)
(0 2.78942e-05 0)
(0 2.78942e-05 0)
(0 2.78942e-05 0)
(0 2.78942e-05 0)
(0 2.78942e-05 0)
(0 2.78942e-05 0)
(0 2.78942e-05 0)
(0 2.78787e-05 0)
(0 2.78701e-05 0)
(0 2.78932e-05 0)
(0 2.78939e-05 0)
(0 2.77807e-05 0)
(0 2.76934e-05 0)
(0 2.7646e-05 0)
(0 2.77411e-05 0)
(0 2.72166e-05 0)
(0 2.70604e-05 0)
(0 2.69333e-05 0)
(0 2.70952e-05 0)
(0 2.59741e-05 0)
(0 2.5756e-05 0)
(0 2.5494e-05 0)
(0 2.50608e-05 0)
(0 2.55318e-05 0)
(0 2.38787e-05 0)
(0 2.33839e-05 0)
(0 2.2806e-05 0)
(0 2.1443e-05 0)
(0 2.26143e-05 0)
(0 2.11666e-05 0)
(0 1.98969e-05 0)
(0 1.83235e-05 0)
(0 1.95019e-05 0)
(0 1.65265e-05 0)
(0 1.51864e-05 0)
(0 1.1652e-05 0)
(0 8.28391e-06 0)
(0 5.18897e-06 0)
(0 2.6388e-06 0)
(0 8.08337e-07 0)
(0 3.50654e-08 0)
(0 0 0)
(0 0 0)
(0 0 0)
(0 0 0)
(0 0 0)
(0 0 0)
(0 0 0)
(0 0 0)
(0 0 0)
(0 0 0)
(0 0 0)
(0 0 0)
(0 0 0)
(0 0 0)
(0 0 0)
(0 2.66359e-07 0)
(0 1.40361e-06 0)
(0 3.30238e-06 0)
(0 5.76461e-06 0)
(0 8.84103e-06 0)
(0 1.20219e-05 0)
(0 1.35224e-05 0)
(0 1.5293e-05 0)
(0 1.68071e-05 0)
(0 1.84486e-05 0)
(0 1.6887e-05 0)
(0 1.83774e-05 0)
(0 1.99915e-05 0)
(0 2.13884e-05 0)
(0 1.97379e-05 0)
(0 2.08769e-05 0)
(0 2.18226e-05 0)
(0 2.26176e-05 0)
(0 2.20251e-05 0)
(0 2.36746e-05 0)
(0 2.28481e-05 0)
(0 2.3359e-05 0)
(0 2.4142e-05 0)
(0 2.53121e-05 0)
(0 2.46035e-05 0)
(0 2.4887e-05 0)
(0 2.56215e-05 0)
(0 2.6349e-05 0)
(0 2.57211e-05 0)
(0 2.59055e-05 0)
(0 2.6523e-05 0)
(0 2.68868e-05 0)
(0 2.63073e-05 0)
(0 2.64096e-05 0)
(0 2.6958e-05 0)
(0 2.70534e-05 0)
(0 2.65182e-05 0)
(0 2.64906e-05 0)
(0 2.70315e-05 0)
(0 2.68868e-05 0)
(0 2.63073e-05 0)
(0 2.61622e-05 0)
(0 2.6775e-05 0)
(0 2.6349e-05 0)
(0 2.57211e-05 0)
(0 2.54905e-05 0)
(0 2.61296e-05 0)
(0 2.53121e-05 0)
(0 2.46035e-05 0)
(0 2.42371e-05 0)
(0 2.49535e-05 0)
(0 2.36746e-05 0)
(0 2.28481e-05 0)
(0 2.23684e-05 0)
(0 2.3164e-05 0)
(0 2.13884e-05 0)
(0 1.97379e-05 0)
(0 1.83774e-05 0)
(0 1.99915e-05 0)
(0 1.84486e-05 0)
(0 1.6887e-05 0)
(0 1.5293e-05 0)
(0 1.68071e-05 0)
(0 1.35224e-05 0)
(0 1.20219e-05 0)
(0 8.84103e-06 0)
(0 5.76461e-06 0)
(0 3.30238e-06 0)
(0 1.40361e-06 0)
(0 2.66359e-07 0)
(0 0 0)
(0 0 0)
(0 0 0)
(0 0 0)
(0 0 0)
(0 0 0)
(0 0 0)
(0 0 0)
(0 0 0)
(0 0 0)
(0 0 0)
(0 0 0)
(0 0 0)
(0 0 0)
(0 0 0)
(0 0 0)
(0 0 0)
(0 4.01391e-07 0)
(0 1.65744e-06 0)
(0 3.55309e-06 0)
(0 5.90405e-06 0)
(0 8.47914e-06 0)
(0 1.10211e-05 0)
(0 1.29938e-05 0)
(0 1.50914e-05 0)
(0 1.35864e-05 0)
(0 1.44055e-05 0)
(0 1.6508e-05 0)
(0 1.77575e-05 0)
(0 1.57282e-05 0)
(0 1.69381e-05 0)
(0 1.90326e-05 0)
(0 2.0159e-05 0)
(0 1.91167e-05 0)
(0 1.9519e-05 0)
(0 2.06613e-05 0)
(0 2.19432e-05 0)
(0 2.09184e-05 0)
(0 2.12986e-05 0)
(0 2.23264e-05 0)
(0 2.31997e-05 0)
(0 2.2169e-05 0)
(0 2.23389e-05 0)
(0 2.3398e-05 0)
(0 2.39532e-05 0)
(0 2.29634e-05 0)
(0 2.3079e-05 0)
(0 2.40678e-05 0)
(0 2.42026e-05 0)
(0 2.32191e-05 0)
(0 2.31715e-05 0)
(0 2.41594e-05 0)
(0 2.39532e-05 0)
(0 2.29634e-05 0)
(0 2.28015e-05 0)
(0 2.37923e-05 0)
(0 2.31997e-05 0)
(0 2.2169e-05 0)
(0 2.19244e-05 0)
(0 2.29549e-05 0)
(0 2.19432e-05 0)
(0 2.09184e-05 0)
(0 2.04942e-05 0)
(0 2.15147e-05 0)
(0 2.0159e-05 0)
(0 1.91167e-05 0)
(0 1.79121e-05 0)
(0 1.69381e-05 0)
(0 1.90326e-05 0)
(0 1.77575e-05 0)
(0 1.57282e-05 0)
(0 1.44055e-05 0)
(0 1.6508e-05 0)
(0 1.50914e-05 0)
(0 1.29938e-05 0)
(0 1.10211e-05 0)
(0 8.47914e-06 0)
(0 1.35864e-05 0)
(0 5.90405e-06 0)
(0 3.55309e-06 0)
(0 1.65744e-06 0)
(0 4.01391e-07 0)
(0 0 0)
(0 0 0)
(0 0 0)
(0 0 0)
(0 0 0)
(0 0 0)
(0 0 0)
(0 0 0)
(0 0 0)
(0 0 0)
(0 0 0)
(0 0 0)
(0 0 0)
(0 0 0)
(0 0 0)
(0 0 0)
(0 0 0)
(0 0 0)
(0 5.09015e-09 0)
(0 4.55994e-07 0)
(0 1.54521e-06 0)
(0 3.02807e-06 0)
(0 4.95629e-06 0)
(0 7.01274e-06 0)
(0 9.00103e-06 0)
(0 1.01617e-05 0)
(0 1.23162e-05 0)
(0 1.35377e-05 0)
(0 1.11402e-05 0)
(0 1.2244e-05 0)
(0 1.45441e-05 0)
(0 1.56477e-05 0)
(0 1.44618e-05 0)
(0 1.49472e-05 0)
(0 1.61523e-05 0)
(0 1.74531e-05 0)
(0 1.62018e-05 0)
(0 1.6547e-05 0)
(0 1.78102e-05 0)
(0 1.86192e-05 0)
(0 1.73662e-05 0)
(0 1.76452e-05 0)
(0 1.89063e-05 0)
(0 1.95079e-05 0)
(0 1.82307e-05 0)
(0 1.834e-05 0)
(0 1.962e-05 0)
(0 1.97678e-05 0)
(0 1.84878e-05 0)
(0 1.84277e-05 0)
(0 1.97099e-05 0)
(0 1.95079e-05 0)
(0 1.82307e-05 0)
(0 1.80781e-05 0)
(0 1.93513e-05 0)
(0 1.86192e-05 0)
(0 1.73662e-05 0)
(0 1.70468e-05 0)
(0 1.84018e-05 0)
(0 1.74531e-05 0)
(0 1.62018e-05 0)
(0 1.5819e-05 0)
(0 1.70567e-05 0)
(0 1.56477e-05 0)
(0 1.44618e-05 0)
(0 1.32546e-05 0)
(0 1.2244e-05 0)
(0 1.45441e-05 0)
(0 1.35377e-05 0)
(0 1.11402e-05 0)
(0 1.01617e-05 0)
(0 1.23162e-05 0)
(0 9.00103e-06 0)
(0 7.01274e-06 0)
(0 4.95629e-06 0)
(0 3.02807e-06 0)
(0 1.54521e-06 0)
(0 4.55994e-07 0)
(0 5.09015e-09 0)
(0 0 0)
(0 0 0)
(0 0 0)
(0 0 0)
(0 0 0)
(0 0 0)
(0 0 0)
(0 0 0)
(0 0 0)
(0 0 0)
(0 0 0)
(0 0 0)
(0 0 0)
(0 0 0)
(0 0 0)
(0 0 0)
(0 0 0)
(0 0 0)
(0 0 0)
(0 0 0)
(0 2.39473e-07 0)
(0 9.97394e-07 0)
(0 2.02053e-06 0)
(0 3.40219e-06 0)
(0 5.03064e-06 0)
(0 5.93196e-06 0)
(0 7.9043e-06 0)
(0 8.93942e-06 0)
(0 6.81522e-06 0)
(0 7.65822e-06 0)
(0 9.91886e-06 0)
(0 1.08212e-05 0)
(0 9.61837e-06 0)
(0 1.00084e-05 0)
(0 1.12374e-05 0)
(0 1.2321e-05 0)
(0 1.10263e-05 0)
(0 1.12121e-05 0)
(0 1.24884e-05 0)
(0 1.34307e-05 0)
(0 1.21019e-05 0)
(0 1.23346e-05 0)
(0 1.36767e-05 0)
(0 1.41952e-05 0)
(0 1.28257e-05 0)
(0 1.29178e-05 0)
(0 1.42923e-05 0)
(0 1.44338e-05 0)
(0 1.30552e-05 0)
(0 1.29917e-05 0)
(0 1.43703e-05 0)
(0 1.41952e-05 0)
(0 1.28257e-05 0)
(0 1.26974e-05 0)
(0 1.40598e-05 0)
(0 1.34307e-05 0)
(0 1.21019e-05 0)
(0 1.18363e-05 0)
(0 1.31498e-05 0)
(0 1.2321e-05 0)
(0 1.10263e-05 0)
(0 1.07142e-05 0)
(0 1.19892e-05 0)
(0 1.08212e-05 0)
(0 9.61837e-06 0)
(0 8.44052e-06 0)
(0 7.65822e-06 0)
(0 9.91886e-06 0)
(0 8.93942e-06 0)
(0 6.81522e-06 0)
(0 5.93196e-06 0)
(0 7.9043e-06 0)
(0 5.03064e-06 0)
(0 3.40219e-06 0)
(0 2.02053e-06 0)
(0 9.97394e-07 0)
(0 2.39473e-07 0)
(0 0 0)
(0 0 0)
(0 0 0)
(0 0 0)
(0 0 0)
(0 0 0)
(0 0 0)
(0 0 0)
(0 0 0)
(0 0 0)
(0 0 0)
(0 0 0)
(0 0 0)
(0 0 0)
(0 0 0)
(0 0 0)
(0 0 0)
(0 0 0)
(0 0 0)
(0 0 0)
(0 0 0)
(0 0 0)
(0 0 0)
(0 2.03929e-08 0)
(0 3.45913e-07 0)
(0 9.65394e-07 0)
(0 2.02519e-06 0)
(0 2.57655e-06 0)
(0 4.1301e-06 0)
(0 4.85357e-06 0)
(0 3.13641e-06 0)
(0 3.68583e-06 0)
(0 5.55193e-06 0)
(0 6.20599e-06 0)
(0 5.17176e-06 0)
(0 5.44688e-06 0)
(0 6.51091e-06 0)
(0 7.2453e-06 0)
(0 6.13191e-06 0)
(0 6.39005e-06 0)
(0 7.52894e-06 0)
(0 8.2437e-06 0)
(0 7.04235e-06 0)
(0 7.21442e-06 0)
(0 8.4318e-06 0)
(0 8.83017e-06 0)
(0 7.57938e-06 0)
(0 7.6481e-06 0)
(0 8.90509e-06 0)
(0 9.02474e-06 0)
(0 7.76026e-06 0)
(0 7.70335e-06 0)
(0 8.9653e-06 0)
(0 8.83017e-06 0)
(0 7.57938e-06 0)
(0 7.48377e-06 0)
(0 8.72588e-06 0)
(0 8.2437e-06 0)
(0 7.04235e-06 0)
(0 6.84674e-06 0)
(0 8.02965e-06 0)
(0 7.2453e-06 0)
(0 6.13191e-06 0)
(0 5.85614e-06 0)
(0 6.94174e-06 0)
(0 6.20599e-06 0)
(0 5.17176e-06 0)
(0 4.20711e-06 0)
(0 3.68583e-06 0)
(0 5.55193e-06 0)
(0 4.85357e-06 0)
(0 3.13641e-06 0)
(0 2.57655e-06 0)
(0 4.1301e-06 0)
(0 2.02519e-06 0)
(0 9.65394e-07 0)
(0 3.45913e-07 0)
(0 2.03929e-08 0)
(0 0 0)
(0 0 0)
(0 0 0)
(0 0 0)
(0 0 0)
(0 0 0)
(0 0 0)
(0 0 0)
(0 0 0)
(0 0 0)
(0 0 0)
(0 0 0)
(0 0 0)
(0 0 0)
(0 0 0)
(0 0 0)
(0 0 0)
(0 0 0)
(0 0 0)
(0 0 0)
(0 0 0)
(0 0 0)
(0 0 0)
(0 0 0)
(0 0 0)
(0 0 0)
(0 3.69664e-09 0)
(0 2.77726e-07 0)
(0 4.83749e-07 0)
(0 1.34139e-06 0)
(0 1.73795e-06 0)
(0 7.21325e-07 0)
(0 9.7539e-07 0)
(0 2.13802e-06 0)
(0 2.52555e-06 0)
(0 1.73848e-06 0)
(0 1.91645e-06 0)
(0 2.62098e-06 0)
(0 3.21811e-06 0)
(0 2.4219e-06 0)
(0 2.57533e-06 0)
(0 3.39775e-06 0)
(0 3.85713e-06 0)
(0 2.97009e-06 0)
(0 3.0758e-06 0)
(0 3.97953e-06 0)
(0 4.2407e-06 0)
(0 3.30204e-06 0)
(0 3.34493e-06 0)
(0 4.2901e-06 0)
(0 4.37602e-06 0)
(0 3.42109e-06 0)
(0 3.37948e-06 0)
(0 4.32987e-06 0)
(0 4.2407e-06 0)
(0 3.30204e-06 0)
(0 3.24251e-06 0)
(0 4.17208e-06 0)
(0 3.85713e-06 0)
(0 2.97009e-06 0)
(0 2.8507e-06 0)
(0 3.7186e-06 0)
(0 3.21811e-06 0)
(0 2.4219e-06 0)
(0 2.25988e-06 0)
(0 3.02766e-06 0)
(0 2.52555e-06 0)
(0 1.73848e-06 0)
(0 1.16906e-06 0)
(0 9.7539e-07 0)
(0 2.13802e-06 0)
(0 1.73795e-06 0)
(0 7.21325e-07 0)
(0 4.83749e-07 0)
(0 1.34139e-06 0)
(0 2.77726e-07 0)
(0 3.69664e-09 0)
(0 0 0)
(0 0 0)
(0 0 0)
(0 0 0)
(0 0 0)
(0 0 0)
(0 0 0)
(0 0 0)
(0 0 0)
(0 0 0)
(0 0 0)
(0 0 0)
(0 0 0)
(0 0 0)
(0 0 0)
(0 0 0)
(0 0 0)
(0 0 0)
(0 0 0)
(0 0 0)
(0 0 0)
(0 0 0)
(0 0 0)
(0 0 0)
(0 0 0)
(0 0 0)
(0 0 0)
(0 0 0)
(0 0 0)
(0 0 0)
(0 0 0)
(0 1.35763e-07 0)
(0 4.91039e-08 0)
(0 0 0)
(0 2.13487e-07 0)
(0 3.56657e-07 0)
(0 1.0919e-08 0)
(0 4.77265e-08 0)
(0 5.13972e-07 0)
(0 6.73377e-07 0)
(0 1.00638e-07 0)
(0 1.60244e-07 0)
(0 8.23999e-07 0)
(0 9.56391e-07 0)
(0 2.18332e-07 0)
(0 2.68083e-07 0)
(0 1.06274e-06 0)
(0 1.13705e-06 0)
(0 3.04238e-07 0)
(0 3.23222e-07 0)
(0 1.17524e-06 0)
(0 1.20579e-06 0)
(0 3.3944e-07 0)
(0 3.23222e-07 0)
(0 1.17524e-06 0)
(0 1.13705e-06 0)
(0 3.04238e-07 0)
(0 2.68083e-07 0)
(0 1.06274e-06 0)
(0 9.56391e-07 0)
(0 2.18332e-07 0)
(0 1.60244e-07 0)
(0 8.23999e-07 0)
(0 6.73377e-07 0)
(0 1.00638e-07 0)
(0 4.77265e-08 0)
(0 5.13972e-07 0)
(0 3.56657e-07 0)
(0 1.0919e-08 0)
(0 0 0)
(0 2.13487e-07 0)
(0 1.35763e-07 0)
(0 0 0)
(0 0 0)
(0 0 0)
(0 4.91039e-08 0)
(0 0 0)
(0 0 0)
(0 0 0)
(0 0 0)
(0 0 0)
(0 0 0)
(0 0 0)
(0 0 0)
(0 0 0)
(0 0 0)
(0 0 0)
(0 0 0)
(0 0 0)
(0 0 0)
(0 0 0)
(0 0 0)
(0 0 0)
(0 0 0)
(0 0 0)
(0 0 0)
(0 0 0)
(0 0 0)
(0 0 0)
(0 0 0)
(0 0 0)
(0 0 0)
(0 0 0)
(0 0 0)
(0 0 0)
(0 0 0)
(0 0 0)
(0 0 0)
(0 0 0)
(0 0 0)
(0 0 0)
(0 0 0)
(0 0 0)
(0 0 0)
(0 0 0)
(0 0 0)
(0 9.81283e-10 0)
(0 0 0)
(0 0 0)
(0 3.7763e-09 0)
(0 2.24684e-09 0)
(0 0 0)
(0 9.81283e-10 0)
(0 2.24684e-09 0)
(0 0 0)
(0 0 0)
(0 0 0)
(0 0 0)
(0 0 0)
(0 0 0)
(0 0 0)
(0 0 0)
(0 0 0)
(0 0 0)
(0 0 0)
(0 0 0)
(0 0 0)
(0 0 0)
(0 0 0)
(0 0 0)
(0 0 0)
(0 0 0)
(0 0 0)
(0 0 0)
(0 0 0)
(0 0 0)
(0 0 0)
(0 0 0)
(0 0 0)
(0 0 0)
(0 0 0)
(0 0 0)
(0 0 0)
(0 0 0)
(0 0 0)
(0 0 0)
(0 0 0)
(0 0 0)
(0 0 0)
(0 0 0)
(0 0 0)
(0 0 0)
(0 0 0)
(0 0 0)
(0 0 0)
(0 0 0)
(0 0 0)
(0 0 0)
(0 0 0)
(0 0 0)
(0 0 0)
(0 0 0)
(0 0 0)
(0 0 0)
(0 0 0)
(0 0 0)
(0 0 0)
(0 0 0)
(0 0 0)
(0 0 0)
(0 0 0)
(0 0 0)
(0 0 0)
(0 0 0)
(0 0 0)
(0 0 0)
(0 0 0)
(0 0 0)
(0 0 0)
(0 0 0)
(0 0 0)
(0 0 0)
(0 0 0)
(0 0 0)
(0 0 0)
(0 0 0)
(0 0 0)
(0 0 0)
(0 0 0)
(0 0 0)
(0 0 0)
(0 0 0)
(0 0 0)
(0 0 0)
(0 0 0)
(0 0 0)
(0 0 0)
(0 0 0)
(0 0 0)
(0 0 0)
(0 0 0)
(0 0 0)
(0 0 0)
(0 0 0)
(0 0 0)
(0 0 0)
(0 0 0)
(0 0 0)
(0 0 0)
(0 0 0)
(0 0 0)
(0 0 0)
(0 0 0)
(0 0 0)
(0 0 0)
(0 0 0)
(0 0 0)
(0 0 0)
(0 0 0)
(0 0 0)
(0 0 0)
(0 0 0)
(0 0 0)
(0 0 0)
(0 0 0)
(0 0 0)
(0 0 0)
(0 0 0)
(0 0 0)
(0 0 0)
(0 0 0)
(0 0 0)
(0 0 0)
(0 0 0)
(0 0 0)
(0 0 0)
(0 0 0)
(0 0 0)
(0 0 0)
(0 0 0)
(0 0 0)
(0 0 0)
(0 0 0)
(0 0 0)
(0 0 0)
(0 0 0)
(0 0 0)
(0 0 0)
(0 0 0)
(0 0 0)
(0 0 0)
(0 0 0)
(0 0 0)
(0 0 0)
(0 0 0)
(0 0 0)
(0 0 0)
(0 0 0)
(0 0 0)
(0 0 0)
(0 0 0)
(0 0 0)
(0 0 0)
(0 0 0)
(0 0 0)
(0 0 0)
(0 0 0)
(0 0 0)
(0 0 0)
(0 0 0)
(0 0 0)
(0 0 0)
(0 0 0)
(0 0 0)
(0 0 0)
(0 0 0)
(0 0 0)
(0 0 0)
(0 0 0)
(0 0 0)
(0 0 0)
(0 0 0)
(0 0 0)
(0 0 0)
(0 0 0)
(0 0 0)
(0 0 0)
(0 0 0)
(0 0 0)
(0 0 0)
(0 0 0)
(0 0 0)
(0 0 0)
(0 0 0)
(0 0 0)
(0 0 0)
(0 0 0)
(0 0 0)
(0 0 0)
(0 0 0)
(0 0 0)
(0 0 0)
(0 0 0)
(0 0 0)
(0 0 0)
(0 0 0)
(0 0 0)
(0 0 0)
(0 0 0)
(0 0 0)
(0 0 0)
(0 0 0)
(0 0 0)
(0 0 0)
(0 0 0)
(0 0 0)
(0 0 0)
(0 0 0)
(0 0 0)
(0 0 0)
(0 0 0)
(0 0 0)
(0 0 0)
(0 0 0)
(0 0 0)
(0 0 0)
(0 0 0)
(0 0 0)
(0 0 0)
(0 0 0)
(0 0 0)
(0 0 0)
(0 0 0)
(0 0 0)
(0 0 0)
(0 0 0)
(0 0 0)
(0 0 0)
(0 0 0)
(0 0 0)
(0 0 0)
(0 0 0)
(0 0 0)
(0 0 0)
(0 0 0)
(0 0 0)
(0 0 0)
(0 0 0)
(0 0 0)
(0 0 0)
(0 0 0)
(0 0 0)
(0 0 0)
(0 0 0)
(0 0 0)
(0 0 0)
(0 0 0)
(0 0 0)
(0 0 0)
(0 0 0)
(0 0 0)
(0 0 0)
(0 0 0)
(0 0 0)
(0 0 0)
(0 0 0)
(0 0 0)
(0 0 0)
(0 0 0)
(0 0 0)
(0 0 0)
(0 0 0)
(0 0 0)
(0 0 0)
(0 0 0)
(0 0 0)
(0 0 0)
(0 0 0)
(0 0 0)
(0 0 0)
(0 0 0)
(0 0 0)
(0 0 0)
(0 0 0)
(0 0 0)
(0 0 0)
(0 0 0)
(0 0 0)
(0 0 0)
(0 0 0)
(0 0 0)
(0 0 0)
(0 0 0)
(0 0 0)
(0 0 0)
(0 0 0)
(0 0 0)
(0 0 0)
(0 0 0)
(0 0 0)
(0 0 0)
(0 0 0)
(0 0 0)
(0 0 0)
(0 0 0)
(0 0 0)
(0 0 0)
(0 0 0)
(0 0 0)
(0 0 0)
(0 0 0)
(0 0 0)
(0 0 0)
(0 0 0)
(0 0 0)
(0 0 0)
(0 0 0)
(0 0 0)
(0 0 0)
(0 0 0)
(0 0 0)
(0 0 0)
(0 0 0)
(0 0 0)
(0 0 0)
(0 0 0)
(0 0 0)
(0 0 0)
(0 0 0)
(0 0 0)
(0 0 0)
(0 0 0)
(0 0 0)
(0 0 0)
(0 0 0)
(0 0 0)
(0 0 0)
(0 0 0)
(0 0 0)
(0 0 0)
(0 0 0)
(0 0 0)
(0 0 0)
(0 0 0)
(0 0 0)
(0 0 0)
(0 0 0)
(0 0 0)
(0 0 0)
(0 0 0)
(0 0 0)
(0 0 0)
(0 0 0)
(0 0 0)
(0 0 0)
(0 0 0)
(0 0 0)
(0 0 0)
(0 0 0)
(0 0 0)
(0 0 0)
(0 0 0)
(0 0 0)
(0 0 0)
(0 0 0)
(0 0 0)
(0 0 0)
(0 0 0)
(0 0 0)
(0 0 0)
(0 0 0)
(0 0 0)
(0 0 0)
(0 0 0)
(0 0 0)
(0 0 0)
(0 0 0)
(0 0 0)
(0 0 0)
(0 0 0)
(0 0 0)
(0 0 0)
(0 0 0)
(0 0 0)
(0 0 0)
(0 0 0)
(0 0 0)
(0 0 0)
(0 0 0)
(0 0 0)
(0 0 0)
(0 0 0)
(0 0 0)
(0 0 0)
(0 0 0)
(0 0 0)
(0 0 0)
(0 0 0)
(0 0 0)
(0 0 0)
(0 0 0)
(0 0 0)
(0 0 0)
(0 0 0)
(0 0 0)
(0 0 0)
(0 0 0)
(0 0 0)
(0 0 0)
(0 0 0)
(0 0 0)
(0 0 0)
(0 0 0)
(0 0 0)
(0 0 0)
(0 0 0)
(0 0 0)
(0 0 0)
(0 0 0)
(0 0 0)
(0 0 0)
(0 0 0)
(0 0 0)
(0 0 0)
(0 0 0)
(0 0 0)
(0 0 0)
(0 0 0)
(0 0 0)
(0 0 0)
(0 0 0)
(0 0 0)
(0 0 0)
(0 0 0)
(0 0 0)
(0 0 0)
(0 0 0)
(0 0 0)
(0 0 0)
(0 0 0)
(0 0 0)
(0 0 0)
(0 0 0)
(0 0 0)
(0 0 0)
(0 0 0)
(0 0 0)
(0 0 0)
(0 0 0)
(0 0 0)
(0 0 0)
(0 0 0)
(0 0 0)
(0 0 0)
(0 0 0)
(0 0 0)
(0 0 0)
(0 0 0)
(0 0 0)
(0 0 0)
(0 0 0)
(0 0 0)
(0 0 0)
(0 0 0)
(0 0 0)
(0 0 0)
(0 0 0)
(0 0 0)
(0 0 0)
(0 0 0)
(0 0 0)
(0 0 0)
(0 0 0)
(0 0 0)
(0 0 0)
(0 0 0)
(0 0 0)
(0 0 0)
(0 0 0)
(0 0 0)
(0 0 0)
(0 0 0)
(0 0 0)
(0 0 0)
(0 0 0)
(0 0 0)
(0 0 0)
(0 0 0)
(0 0 0)
(0 0 0)
(0 0 0)
(0 0 0)
(0 0 0)
(0 0 0)
(0 0 0)
(0 0 0)
(0 0 0)
(0 0 0)
(0 0 0)
(0 0 0)
(0 0 0)
(0 0 0)
(0 0 0)
(0 0 0)
(0 0 0)
(0 0 0)
(0 0 0)
(0 0 0)
(0 0 0)
(0 0 0)
(0 0 0)
(0 0 0)
(0 0 0)
(0 0 0)
(0 0 0)
(0 0 0)
(0 0 0)
(0 0 0)
(0 0 0)
(0 0 0)
(0 0 0)
(0 0 0)
(0 0 0)
(0 0 0)
(0 0 0)
(0 0 0)
(0 0 0)
(0 0 0)
(0 0 0)
(0 0 0)
(0 0 0)
(0 0 0)
(0 0 0)
(0 0 0)
(0 0 0)
(0 0 0)
(0 0 0)
(0 0 0)
(0 0 0)
(0 0 0)
(0 0 0)
(0 0 0)
(0 0 0)
(0 0 0)
(0 0 0)
(0 0 0)
(0 0 0)
(0 0 0)
(0 0 0)
(0 0 0)
(0 0 0)
(0 0 0)
(0 0 0)
(0 0 0)
(0 0 0)
(0 0 0)
(0 0 0)
(0 0 0)
(0 0 0)
(0 0 0)
(0 0 0)
(0 0 0)
(0 0 0)
(0 0 0)
(0 0 0)
(0 0 0)
(0 0 0)
(0 0 0)
(0 0 0)
(0 0 0)
(0 0 0)
(0 0 0)
(0 0 0)
(0 0 0)
(0 0 0)
(0 0 0)
(0 0 0)
(0 0 0)
(0 0 0)
(0 0 0)
(0 0 0)
(0 0 0)
(0 0 0)
(0 0 0)
(0 0 0)
(0 0 0)
(0 0 0)
(0 0 0)
(0 0 0)
(0 0 0)
(0 0 0)
(0 0 0)
(0 0 0)
(0 0 0)
(0 0 0)
(0 0 0)
(0 0 0)
(0 0 0)
(0 0 0)
(0 0 0)
(0 0 0)
(0 0 0)
(0 0 0)
(0 0 0)
(0 0 0)
(0 0 0)
(0 0 0)
(0 0 0)
(0 0 0)
(0 0 0)
(0 0 0)
(0 0 0)
(0 0 0)
(0 0 0)
(0 0 0)
(0 0 0)
(0 0 0)
(0 0 0)
(0 0 0)
(0 0 0)
(0 0 0)
(0 0 0)
(0 0 0)
(0 0 0)
(0 0 0)
(0 0 0)
(0 0 0)
(0 0 0)
(0 0 0)
(0 0 0)
(0 0 0)
(0 0 0)
(0 0 0)
(0 0 0)
(0 0 0)
(0 0 0)
(0 0 0)
(0 0 0)
(0 0 0)
(0 0 0)
(0 0 0)
(0 0 0)
(0 0 0)
(0 0 0)
(0 0 0)
(0 0 0)
(0 0 0)
(0 0 0)
(0 0 0)
(0 0 0)
(0 0 0)
(0 0 0)
(0 0 0)
(0 0 0)
(0 0 0)
(0 0 0)
(0 0 0)
(0 0 0)
(0 0 0)
(0 0 0)
(0 0 0)
(0 0 0)
(0 0 0)
(0 0 0)
(0 0 0)
(0 0 0)
(0 0 0)
(0 0 0)
(0 0 0)
(0 0 0)
(0 0 0)
(0 0 0)
(0 0 0)
(0 0 0)
(0 0 0)
(0 0 0)
(0 0 0)
(0 0 0)
(0 0 0)
(0 0 0)
(0 0 0)
(0 0 0)
(0 0 0)
(0 0 0)
(0 0 0)
(0 0 0)
(0 0 0)
(0 0 0)
(0 0 0)
(0 0 0)
(0 0 0)
(0 0 0)
(0 0 0)
(0 0 0)
(0 0 0)
(0 0 0)
(0 0 0)
(0 0 0)
(0 0 0)
(0 0 0)
(0 0 0)
(0 0 0)
(0 0 0)
(0 0 0)
(0 0 0)
(0 0 0)
(0 0 0)
(0 0 0)
(0 0 0)
(0 0 0)
(0 0 0)
(0 0 0)
(0 0 0)
(0 0 0)
(0 0 0)
(0 0 0)
(0 0 0)
(0 0 0)
(0 0 0)
(0 0 0)
(0 0 0)
(0 0 0)
(0 0 0)
(0 0 0)
(0 0 0)
(0 0 0)
(0 0 0)
(0 0 0)
(0 0 0)
(0 0 0)
(0 0 0)
(0 0 0)
(0 0 0)
(0 0 0)
(0 0 0)
(0 0 0)
(0 0 0)
(0 0 0)
(0 0 0)
(0 0 0)