/*--------------------------------*- C++ -*----------------------------------*\
| =========                 |                                                 |
| \\      /  F ield         | OpenFOAM: The Open Source CFD Toolbox           |
|  \\    /   O peration     | Version:  v2106                                 |
|   \\  /    A nd           | Website:  www.openfoam.com                      |
|    \\/     M anipulation  |                                                 |
\*---------------------------------------------------------------------------*/
FoamFile
{
    version     2.0;
    format      ascii;
    arch        "LSB;label=32;scalar=64";
    class       volVectorField;
    location    "0";
    object      U;
}
// * * * * * * * * * * * * * * * * * * * * * * * * * * * * * * * * * * * * * //

dimensions      [0 1 -1 0 0 0 0];

internalField   nonuniform List<vector> 
11644
(
(1.00031 -0.000346519 0)
(1.00009 -0.000915426 0)
(0.999912 -0.00134743 0)
(0.999835 -0.00176016 0)
(0.999814 -0.00216976 0)
(0.999817 -0.00258015 0)
(0.999831 -0.0029878 0)
(0.999853 -0.00338302 0)
(0.999886 -0.00375326 0)
(0.999932 -0.00408107 0)
(0.999993 -0.00434664 0)
(1.00004 -0.00452856 0)
(1.00008 -0.0046045 0)
(1.00012 -0.00455108 0)
(1.00019 -0.00435414 0)
(1.00028 -0.00401706 0)
(1.00033 -0.00354405 0)
(1.00022 -0.00291142 0)
(0.999772 -0.00208824 0)
(0.999202 -0.000811221 2.60951e-30)
(0.999202 0.000816026 -2.60951e-30)
(0.999773 0.00209222 0)
(1.00022 0.00291491 0)
(1.00033 0.00354705 0)
(1.00028 0.00401964 0)
(1.00019 0.00435632 0)
(1.00012 0.00455288 0)
(1.00008 0.00460594 0)
(1.00004 0.00452969 0)
(0.999993 0.00434751 0)
(0.999932 0.00408173 0)
(0.999886 0.00375374 0)
(0.999853 0.00338337 0)
(0.999831 0.00298804 0)
(0.999817 0.00258031 0)
(0.999814 0.00216986 0)
(0.999835 0.00176022 0)
(0.999912 0.00134747 0)
(1.00009 0.000915443 0)
(1.00031 0.000346518 0)
(1.00154 -0.000782094 0)
(1.00149 -0.0024421 0)
(1.00142 -0.00421181 0)
(1.00136 -0.0059852 0)
(1.00129 -0.00772914 0)
(1.00124 -0.00943078 0)
(1.00118 -0.0110762 0)
(1.00111 -0.0126356 0)
(1.001 -0.0140673 0)
(1.00085 -0.0153094 0)
(1.00064 -0.016277 0)
(1.00041 -0.0168937 0)
(1.00016 -0.0171178 0)
(0.999831 -0.0168856 0)
(0.999374 -0.0160883 0)
(0.998765 -0.0145908 0)
(0.998016 -0.012299 3.30879e-25)
(0.997217 -0.00923702 -3.30879e-25)
(0.996526 -0.00559194 0)
(0.996131 -0.00183048 2.79975e-24)
(0.996131 0.00183841 -2.79975e-24)
(0.996526 0.00560021 0)
(0.997218 0.00924502 3.30825e-25)
(0.998017 0.0123064 -3.30825e-25)
(0.998766 0.0145972 0)
(0.999375 0.0160937 0)
(0.999832 0.01689 0)
(1.00016 0.0171213 0)
(1.00041 0.0168964 0)
(1.00064 0.0162789 0)
(1.00085 0.0153108 0)
(1.001 0.0140682 0)
(1.00111 0.0126362 0)
(1.00118 0.0110765 0)
(1.00124 0.00943086 0)
(1.00129 0.00772911 0)
(1.00136 0.00598512 0)
(1.00142 0.00421172 0)
(1.00149 0.00244203 0)
(1.00154 0.000782073 0)
(1.00434 -0.0011568 0)
(1.00443 -0.00353447 0)
(1.00454 -0.00600553 0)
(1.00461 -0.00853124 0)
(1.00464 -0.0110935 0)
(1.00462 -0.0136627 0)
(1.00453 -0.0162007 0)
(1.00432 -0.0186613 0)
(1.00395 -0.020981 0)
(1.00339 -0.023073 0)
(1.00259 -0.0248262 0)
(1.00154 -0.0260815 0)
(1.00024 -0.0266476 0)
(0.998698 -0.026331 -1.13227e-24)
(0.996851 -0.0249856 1.13227e-24)
(0.994801 -0.0224929 5.19433e-24)
(0.992776 -0.0188575 -5.19433e-24)
(0.990977 -0.0141862 0)
(0.989715 -0.0087442 0)
(0.989126 -0.002932 -2.35199e-23)
(0.989126 0.00294132 2.35199e-23)
(0.989715 0.00875328 0)
(0.990979 0.0141947 0)
(0.992778 0.0188651 0)
(0.994803 0.0224993 0)
(0.996853 0.0249907 -1.13185e-24)
(0.9987 0.0263348 1.13185e-24)
(1.00024 0.0266503 0)
(1.00154 0.0260831 0)
(1.00259 0.024827 0)
(1.00339 0.0230733 0)
(1.00395 0.0209809 0)
(1.00432 0.018661 0)
(1.00453 0.0162003 0)
(1.00462 0.0136622 0)
(1.00464 0.011093 0)
(1.00461 0.00853082 0)
(1.00454 0.00600522 0)
(1.00443 0.00353429 0)
(1.00434 0.00115673 0)
(1.00803 -0.0013303 0)
(1.00811 -0.00399613 0)
(1.00819 -0.00666749 0)
(1.00824 -0.00935748 0)
(1.00826 -0.0120831 0)
(1.00823 -0.0148449 0)
(1.00809 -0.0176294 0)
(1.00781 -0.0204109 0)
(1.0073 -0.0231398 0)
(1.00648 -0.0257458 0)
(1.00525 -0.0281182 0)
(1.00349 -0.0300774 -9.38725e-25)
(1.0011 -0.0313432 -3.18923e-24)
(0.998002 -0.0316284 -4.93581e-24)
(0.994464 -0.0306127 9.06375e-24)
(0.990606 -0.0281638 0)
(0.986602 -0.0241767 0)
(0.98298 -0.0187011 -2.42508e-23)
(0.980278 -0.0118594 4.93412e-23)
(0.978891 -0.0040638 -2.50905e-23)
(0.978892 0.0040738 0)
(0.98028 0.011869 -2.42481e-23)
(0.982982 0.01871 2.42481e-23)
(0.986606 0.0241848 2.14583e-23)
(0.990611 0.0281707 -2.14583e-23)
(0.994468 0.030618 -9.06019e-24)
(0.998006 0.0316321 4.93421e-24)
(1.0011 0.0313453 4.12598e-24)
(1.00349 0.0300781 0)
(1.00525 0.0281181 0)
(1.00648 0.0257452 0)
(1.0073 0.023139 0)
(1.00781 0.02041 0)
(1.00809 0.0176284 0)
(1.00823 0.0148439 0)
(1.00826 0.0120823 0)
(1.00824 0.00935683 0)
(1.00819 0.00666701 0)
(1.00811 0.00399584 0)
(1.00803 0.0013302 0)
(1.0117 -0.00134881 0)
(1.01177 -0.00404513 0)
(1.01186 -0.00675092 0)
(1.01196 -0.00949505 0)
(1.01203 -0.0123035 0)
(1.01205 -0.0151936 0)
(1.01195 -0.0181738 0)
(1.01168 -0.0212406 0)
(1.01113 -0.0243701 0)
(1.01016 -0.0275065 0)
(1.00863 -0.0305472 0)
(1.00631 -0.0333193 7.20138e-24)
(1.00296 -0.0355844 -7.20137e-24)
(0.998702 -0.0368333 0)
(0.993174 -0.0368849 2.01671e-23)
(0.986771 -0.0351376 -4.2551e-23)
(0.980316 -0.0312939 -2.16197e-24)
(0.973767 -0.0250135 5.09558e-23)
(0.968576 -0.0162285 -2.64099e-23)
(0.965653 -0.00562423 2.8119e-23)
(0.965654 0.00563412 -4.49059e-25)
(0.968579 0.0162383 -1.26281e-24)
(0.973771 0.0250229 -5.09491e-23)
(0.980321 0.0313026 2.16325e-24)
(0.986778 0.0351452 4.25394e-23)
(0.993181 0.0368911 -2.01607e-23)
(0.998709 0.0368377 0)
(1.00296 0.0355869 0)
(1.00631 0.03332 0)
(1.00863 0.0305466 0)
(1.01016 0.0275052 0)
(1.01113 0.0243686 0)
(1.01168 0.0212391 0)
(1.01196 0.0181723 0)
(1.01205 0.0151922 0)
(1.01203 0.0123024 0)
(1.01196 0.00949416 0)
(1.01186 0.00675028 0)
(1.01177 0.00404474 0)
(1.0117 0.00134868 0)
(1.01526 -0.00130577 0)
(1.01535 -0.00392839 0)
(1.01551 -0.00659115 0)
(1.01572 -0.0093314 0)
(1.01594 -0.0121866 0)
(1.01614 -0.0151928 0)
(1.01624 -0.0183845 0)
(1.01617 -0.0217908 0)
(1.01579 -0.02543 0)
(1.01493 -0.0292955 0)
(1.01336 -0.0333439 5.84579e-24)
(1.01079 -0.0374286 -5.84578e-24)
(1.0069 -0.0411497 0)
(1.00067 -0.0447298 0)
(0.993134 -0.046252 0)
(0.983881 -0.0456986 0)
(0.972252 -0.0429133 0)
(0.961144 -0.0351973 0)
(0.952196 -0.022945 -3.15224e-23)
(0.947251 -0.00798347 -7.3596e-25)
(0.947253 0.00799259 3.22584e-23)
(0.952199 0.0229543 0)
(0.961147 0.0352069 0)
(0.972258 0.0429227 0)
(0.983889 0.0457071 0)
(0.993143 0.0462595 0)
(1.00068 0.0447356 0)
(1.00691 0.0411534 6.62253e-24)
(1.0108 0.03743 -6.62252e-24)
(1.01337 0.0333433 0)
(1.01493 0.0292936 -2.95814e-25)
(1.01579 0.0254276 2.95814e-25)
(1.01617 0.0217885 0)
(1.01624 0.0183824 0)
(1.01614 0.015191 0)
(1.01594 0.0121851 0)
(1.01572 0.00933028 0)
(1.01551 0.00659035 0)
(1.01535 0.00392791 0)
(1.01526 0.00130561 0)
(1.0187 -0.00123437 0)
(1.01884 -0.00372361 0)
(1.0191 -0.00627693 0)
(1.01946 -0.00894253 0)
(1.0199 -0.0117739 0)
(1.02038 -0.0148313 0)
(1.02083 -0.0181828 0)
(1.02117 -0.0219053 1.12999e-25)
(1.02127 -0.0260831 -1.12999e-25)
(1.02092 -0.0308069 0)
(1.01984 -0.036137 0)
(1.0176 -0.0421479 0)
(1.01361 -0.0490903 0)
(1.00823 -0.0540508 1.6269e-23)
(0.997407 -0.0601654 -1.6269e-23)
(0.983314 -0.063633 0)
(0.971504 -0.0562044 0)
(0.955448 -0.0494146 0)
(0.94032 -0.0355114 0)
(0.93018 -0.0150519 0)
(0.92847 0.00833151 0)
(0.935181 0.0294151 1.48151e-22)
(0.947764 0.0451026 0)
(0.963053 0.054277 0)
(0.983323 0.063643 0)
(0.997419 0.0601748 1.62611e-23)
(1.00824 0.0540587 -1.62612e-23)
(1.01362 0.049096 0)
(1.01761 0.0421509 4.90058e-24)
(1.01985 0.0361375 -4.90057e-24)
(1.02093 0.0308051 0)
(1.02127 0.0260801 1.12835e-25)
(1.02117 0.0219021 -1.12835e-25)
(1.02083 0.0181801 0)
(1.02038 0.014829 0)
(1.0199 0.0117722 0)
(1.01946 0.00894118 0)
(1.01909 0.00627599 0)
(1.01884 0.00372305 0)
(1.0187 0.00123418 0)
(1.02192 -0.00112658 0)
(1.02211 -0.00340659 0)
(1.0225 -0.00576539 0)
(1.02306 -0.00826138 0)
(1.02379 -0.0109623 0)
(1.02466 -0.0139502 0)
(1.02562 -0.0173272 0)
(1.02661 -0.021222 0)
(1.02753 -0.025796 1.46838e-24)
(1.02819 -0.0312515 -1.46838e-24)
(1.02834 -0.0378712 0)
(1.02752 -0.0458078 8.44547e-24)
(1.02508 -0.0546709 -1.08516e-23)
(1.01643 -0.0650284 0)
(1.00713 -0.0709937 0)
(0.991277 -0.0790065 -2.09039e-23)
(0.968642 -0.0837758 0)
(0.942368 -0.0783678 0)
(0.913401 -0.0613264 -1.30602e-22)
(0.891623 -0.0293723 0)
(0.886422 0.0111138 -4.6728e-23)
(0.90049 0.0481792 1.33751e-24)
(0.926941 0.072488 3.8392e-23)
(0.955304 0.0823896 0)
(0.979545 0.0822905 -2.08978e-23)
(0.999452 0.0748275 0)
(1.01252 0.0654089 0)
(1.02509 0.0546775 3.3301e-24)
(1.02753 0.0458128 -8.43522e-24)
(1.02835 0.0378733 3.20692e-24)
(1.0282 0.0312509 -4.67256e-24)
(1.02753 0.0257932 1.46564e-24)
(1.02661 0.0212182 0)
(1.02562 0.0173238 0)
(1.02466 0.0139475 0)
(1.02379 0.0109602 0)
(1.02306 0.00825984 0)
(1.0225 0.00576433 0)
(1.02211 0.00340597 0)
(1.02191 0.00112637 0)
(1.02478 -0.000975835 0)
(1.02505 -0.0029491 0)
(1.02558 -0.00500683 0)
(1.02638 -0.00720976 0)
(1.02745 -0.00963179 0)
(1.02878 -0.0123676 0)
(1.03038 -0.0155427 0)
(1.03224 -0.0193258 0)
(1.0343 -0.0239477 8.91259e-25)
(1.03649 -0.0297208 -8.91256e-25)
(1.03863 -0.0370826 1.96865e-24)
(1.04047 -0.0467006 -1.96865e-24)
(1.04135 -0.0604273 0)
(1.03314 -0.0744744 0)
(1.02502 -0.0890826 0)
(1.01041 -0.106807 2.83116e-25)
(0.98141 -0.118079 2.07655e-23)
(0.93796 -0.12568 0)
(0.884352 -0.109278 0)
(0.836523 -0.0607373 4.34926e-22)
(0.820799 0.0129771 0)
(0.847277 0.0797989 0)
(0.89779 0.116982 -6.65031e-22)
(0.950471 0.125105 2.78348e-23)
(0.987808 0.113495 1.87406e-23)
(1.01736 0.0981225 0)
(1.02716 0.0791585 0)
(1.04137 0.060435 2.20872e-24)
(1.04049 0.0467067 -2.20931e-24)
(1.03865 0.0370858 -1.83437e-24)
(1.0365 0.0297213 1.83437e-24)
(1.0343 0.0239457 -4.39515e-25)
(1.03224 0.0193222 5.49397e-25)
(1.03038 0.015539 -1.09883e-25)
(1.02878 0.0123647 0)
(1.02744 0.00962959 0)
(1.02638 0.00720815 0)
(1.02558 0.00500574 0)
(1.02505 0.00294847 0)
(1.02477 0.000975618 0)
(1.02717 -0.000762764 0)
(1.02751 -0.00233887 0)
(1.02819 -0.00398321 0)
(1.02922 -0.00575242 0)
(1.03063 -0.00771525 0)
(1.03245 -0.00996703 0)
(1.03474 -0.0126357 0)
(1.03754 -0.0158992 -1.82912e-25)
(1.04094 -0.0200172 1.82911e-25)
(1.045 -0.0253709 1.5182e-25)
(1.0498 -0.032507 -1.88467e-25)
(1.05546 -0.0423408 3.66468e-26)
(1.06162 -0.0565623 0)
(1.06008 -0.0757529 0)
(1.0583 -0.0988708 0)
(1.04431 -0.134193 2.9992e-24)
(1.01508 -0.167904 0)
(0.957278 -0.206418 -1.01292e-24)
(0.853876 -0.21911 -6.83152e-22)
(0.727291 -0.150336 0)
(0.670001 0.0116299 1.27508e-21)
(0.741565 0.16512 -1.02521e-21)
(0.869168 0.221086 0)
(0.967017 0.201877 5.46411e-23)
(1.02649 0.160821 -1.26136e-24)
(1.0556 0.118638 0)
(1.05724 0.0835133 0)
(1.06164 0.0565701 3.33572e-25)
(1.05548 0.0423467 0)
(1.04982 0.0325103 -2.97871e-25)
(1.04502 0.0253719 2.9787e-25)
(1.04095 0.020016 0)
(1.03754 0.0158963 0)
(1.03473 0.0126322 0)
(1.03245 0.00996418 0)
(1.03062 0.00771313 0)
(1.02922 0.00575088 0)
(1.02818 0.00398218 0)
(1.02751 0.00233827 0)
(1.02717 0.000762607 0)
(1.02892 -0.000563986 0)
(1.02935 -0.00161967 0)
(1.03016 -0.00272138 0)
(1.03137 -0.00390409 0)
(1.03306 -0.00522735 0)
(1.0353 -0.00675875 0)
(1.03818 -0.00859336 0)
(1.04185 -0.010869 -6.4938e-26)
(1.0465 -0.0137946 6.49378e-26)
(1.05243 -0.0177036 0)
(1.06003 -0.0230619 0)
(1.0699 -0.0305508 1.48295e-24)
(1.0831 -0.0412098 -1.78936e-24)
(1.09077 -0.0622773 3.7908e-24)
(1.10572 -0.0908214 -8.02267e-24)
(1.11454 -0.138155 3.18034e-24)
(1.11069 -0.210076 2.36081e-23)
(1.07058 -0.330514 -4.98168e-23)
(0.902749 -0.475565 -7.27642e-22)
(0.501614 -0.479046 -5.59752e-20)
(0.196737 0.0204691 0)
(0.531951 0.49179 1.67809e-21)
(0.919583 0.466615 7.62998e-22)
(1.07984 0.312112 5.98746e-23)
(1.11765 0.190161 7.94527e-24)
(1.11442 0.109499 0)
(1.09698 0.074732 0)
(1.08313 0.0412145 0)
(1.06993 0.0305551 0)
(1.06006 0.0230643 -6.18465e-25)
(1.05245 0.0177043 4.4738e-25)
(1.04651 0.0137937 1.71084e-25)
(1.04185 0.0108668 -3.41644e-27)
(1.03818 0.00859057 3.41643e-27)
(1.03529 0.0067563 0)
(1.03306 0.00522556 0)
(1.03137 0.00390282 0)
(1.03016 0.00272051 0)
(1.02935 0.00161917 0)
(1.02892 0.000563713 0)
(1.03019 -0.000201731 0)
(1.03053 -0.000728494 0)
(1.03133 -0.00121732 0)
(1.03263 -0.00173877 0)
(1.03449 -0.0023032 0)
(1.03698 -0.00293383 0)
(1.04023 -0.00366322 1.02462e-26)
(1.04444 -0.00453893 2.43099e-26)
(1.04991 -0.00562758 1.78968e-25)
(1.05705 -0.0070292 -5.54754e-26)
(1.06658 -0.00889501 3.00993e-25)
(1.07939 -0.0112641 -4.59041e-25)
(1.09736 -0.0141557 4.52911e-25)
(1.11305 -0.0304872 -3.95175e-24)
(1.15065 -0.0464895 5.9986e-24)
(1.19039 -0.0854764 4.33586e-24)
(1.25714 -0.159411 -2.97907e-24)
(1.36093 -0.324415 1.92042e-21)
(1.13694 -0.577777 -1.40452e-19)
(1.27335 0.618669 2.96284e-20)
(1.35869 0.293092 -1.57391e-22)
(1.24797 0.130524 -5.57666e-24)
(1.1759 0.0583768 -5.47458e-25)
(1.13015 0.0369568 1.07535e-24)
(1.09738 0.0141572 8.87972e-25)
(1.07942 0.0112652 -4.31545e-25)
(1.0666 0.00889511 -7.15029e-26)
(1.05707 0.00702873 -5.13081e-26)
(1.04992 0.00562655 -1.07099e-25)
(1.04445 0.00453732 1.03228e-26)
(1.04023 0.00366128 -1.03228e-26)
(1.03697 0.00293215 0)
(1.03448 0.00230201 0)
(1.03263 0.00173793 0)
(1.03132 0.00121676 0)
(1.03052 0.000728195 0)
(1.03019 0.000201724 0)
(1.0302 0.000108778 0)
(1.03072 0.000252876 0)
(1.03158 0.00037543 0)
(1.0329 0.000540709 0)
(1.03475 0.000780868 0)
(1.03724 0.00112853 0)
(1.0405 0.00162867 7.42714e-26)
(1.04473 0.00234852 1.39038e-25)
(1.05023 0.00339141 -2.13308e-25)
(1.05742 0.00496381 8.32859e-25)
(1.06691 0.00725834 -1.98776e-24)
(1.07972 0.0110138 1.1549e-24)
(1.0966 0.0173495 0)
(1.1204 0.0125475 0)
(1.16091 0.0222397 1.14777e-23)
(1.21992 0.0227544 0)
(1.32601 0.0270605 1.92565e-24)
(1.54447 0.0466102 2.87142e-21)
(0.0597217 0.011443 8.44927e-19)
(0.190356 -0.0299636 -3.17026e-19)
(1.52476 -0.0440133 -6.63403e-22)
(1.2975 -0.0348199 0)
(1.18842 -0.0286925 4.40288e-24)
(1.13957 -0.0164855 4.36535e-24)
(1.09663 -0.0173598 2.16814e-24)
(1.07975 -0.0110164 -1.60317e-24)
(1.06693 -0.00726111 8.34233e-25)
(1.05744 -0.00496556 -8.34232e-25)
(1.05025 -0.00339275 0)
(1.04474 -0.00234961 0)
(1.0405 -0.00162958 0)
(1.03724 -0.00112916 0)
(1.03475 -0.000781286 0)
(1.03289 -0.000540997 0)
(1.03158 -0.000375602 0)
(1.03071 -0.000253 0)
(1.0302 -0.000108776 0)
(1.02973 0.000301476 0)
(1.03014 0.00100229 0)
(1.03094 0.00176349 0)
(1.03215 0.0026225 0)
(1.03383 0.00364535 0)
(1.03604 0.00492007 0)
(1.03891 0.00656103 0)
(1.04258 0.00873035 0)
(1.04724 0.0116564 0)
(1.05316 0.0157257 1.76095e-24)
(1.06065 0.0215247 -4.08787e-24)
(1.07023 0.0293068 2.32692e-24)
(1.08172 0.0426702 1.05048e-24)
(1.10213 0.0504536 -4.17666e-24)
(1.12792 0.0765947 5.77795e-24)
(1.16565 0.113537 0)
(1.2223 0.183326 1.18269e-23)
(1.28912 0.347484 -4.91241e-23)
(1.08664 0.581092 0)
(1.15364 -0.588793 1.02576e-20)
(1.28092 -0.318589 0)
(1.20313 -0.16578 0)
(1.1421 -0.0966265 0)
(1.11486 -0.0606026 0)
(1.08175 -0.0426775 8.803e-25)
(1.07026 -0.029311 -4.65941e-24)
(1.06067 -0.0215293 4.65941e-24)
(1.05318 -0.0157281 -1.33382e-24)
(1.04725 -0.0116577 8.31471e-25)
(1.04258 -0.00873069 5.02347e-25)
(1.03891 -0.00656069 0)
(1.03604 -0.00491952 0)
(1.03382 -0.00364496 0)
(1.03215 -0.00262223 0)
(1.03094 -0.00176331 0)
(1.03014 -0.0010022 0)
(1.02972 -0.000301491 0)
(1.02862 0.000524646 0)
(1.02891 0.00166546 0)
(1.02955 0.00291564 0)
(1.03052 0.00433264 0)
(1.03185 0.00599143 0)
(1.03358 0.00799686 0)
(1.03575 0.0104914 0)
(1.03843 0.0136721 -5.05933e-25)
(1.04167 0.0178117 5.05931e-25)
(1.04551 0.0232668 0)
(1.04991 0.0308106 4.00818e-24)
(1.05494 0.0401799 -4.00817e-24)
(1.05971 0.0550688 -1.59923e-24)
(1.07093 0.0694545 6.35848e-24)
(1.07782 0.0954276 0)
(1.08471 0.137378 0)
(1.0809 0.199232 0)
(1.03313 0.296858 0)
(0.878892 0.412194 0)
(0.543566 0.373584 1.01965e-21)
(0.30562 -0.0155024 -9.29293e-23)
(0.592338 -0.399839 4.13725e-22)
(0.907451 -0.399709 5.93737e-22)
(1.04325 -0.282561 -4.83914e-23)
(1.08054 -0.181105 0)
(1.0781 -0.117486 2.78945e-25)
(1.07533 -0.0797661 0)
(1.05973 -0.0550757 -1.60084e-24)
(1.05496 -0.0401863 -4.01298e-24)
(1.04993 -0.0308149 4.01297e-24)
(1.04553 -0.0232689 0)
(1.04168 -0.0178123 0)
(1.03843 -0.0136713 0)
(1.03575 -0.0104896 0)
(1.03357 -0.00799521 0)
(1.03184 -0.00599027 0)
(1.03051 -0.00433181 0)
(1.02954 -0.00291509 0)
(1.02891 -0.00166515 0)
(1.02862 -0.000524563 0)
(1.02687 0.000726262 0)
(1.02707 0.00223078 0)
(1.02751 0.00384109 0)
(1.02819 0.00563765 0)
(1.02909 0.00770579 0)
(1.03023 0.0101503 0)
(1.03159 0.0131051 0)
(1.03313 0.0167429 -4.59971e-25)
(1.03481 0.0212912 4.5997e-25)
(1.03651 0.0270011 0)
(1.038 0.0343666 0)
(1.03889 0.0433856 0)
(1.03919 0.0550192 0)
(1.04007 0.0704004 0)
(1.03579 0.0885177 0)
(1.02105 0.115224 1.00373e-23)
(0.998005 0.14949 -6.64666e-24)
(0.941454 0.177335 0)
(0.854536 0.17716 0)
(0.760904 0.111905 0)
(0.72564 -0.0176409 1.30313e-23)
(0.781791 -0.135899 0)
(0.878869 -0.181746 5.83274e-23)
(0.958416 -0.171664 0)
(1.007 -0.141097 0)
(1.03049 -0.101883 8.37944e-24)
(1.03988 -0.0773507 0)
(1.03921 -0.0550266 0)
(1.03891 -0.0433904 0)
(1.03802 -0.0343695 0)
(1.03652 -0.0270021 0)
(1.03482 -0.0212906 4.60804e-25)
(1.03313 -0.0167406 -4.60803e-25)
(1.03158 -0.0131021 0)
(1.03023 -0.0101478 0)
(1.02909 -0.00770398 0)
(1.02818 -0.00563636 0)
(1.02751 -0.00384022 0)
(1.02706 -0.00223027 0)
(1.02687 -0.000726098 0)
(1.02467 0.000860691 0)
(1.02478 0.00261325 0)
(1.02503 0.00445883 0)
(1.02541 0.00647558 0)
(1.02589 0.0087437 0)
(1.02644 0.0113543 0)
(1.02702 0.0144137 0)
(1.02755 0.0180468 0)
(1.0279 0.0224026 0)
(1.02789 0.0276356 1.97017e-24)
(1.02726 0.0339741 -1.97016e-24)
(1.02541 0.0416286 0)
(1.02223 0.0507289 4.39384e-24)
(1.01499 0.0604578 -5.42974e-24)
(1.00874 0.0750129 4.12643e-24)
(0.992953 0.086679 4.57862e-24)
(0.972038 0.100499 2.66239e-25)
(0.936952 0.103093 0)
(0.895209 0.0881292 0)
(0.860073 0.0490355 1.3607e-23)
(0.848611 -0.00737487 1.54861e-23)
(0.867258 -0.0610156 1.36035e-23)
(0.905711 -0.0940329 0)
(0.946714 -0.103724 0)
(0.981159 -0.0922675 1.70685e-24)
(1.00243 -0.0810059 2.88822e-24)
(1.015 -0.0604626 4.39931e-24)
(1.02225 -0.0507346 7.17586e-26)
(1.02543 -0.0416324 -4.47287e-24)
(1.02727 -0.0339761 1.97311e-24)
(1.0279 -0.0276356 -1.97311e-24)
(1.0279 -0.0224005 0)
(1.02755 -0.0180432 0)
(1.02702 -0.0144099 0)
(1.02644 -0.0113513 0)
(1.02589 -0.0087415 0)
(1.02541 -0.00647398 0)
(1.02503 -0.00445774 0)
(1.02478 -0.00261262 0)
(1.02467 -0.000860483 0)
(1.02222 0.000923826 0)
(1.02226 0.00279578 0)
(1.02234 0.00474666 0)
(1.02244 0.00683899 0)
(1.02255 0.00913663 0)
(1.02261 0.0117077 0)
(1.02256 0.0146249 0)
(1.0223 0.0179647 0)
(1.0217 0.0218051 3.35167e-25)
(1.02056 0.0262136 -1.03895e-24)
(1.01865 0.0312378 2.12064e-24)
(1.01555 0.0368771 -1.41685e-24)
(1.01077 0.0431341 0)
(1.00271 0.0488993 -2.8629e-25)
(0.997239 0.0565806 -1.24472e-24)
(0.984349 0.0617505 5.02807e-25)
(0.968798 0.0667432 1.34712e-24)
(0.947413 0.0623623 -4.62216e-24)
(0.926176 0.0488382 0)
(0.910357 0.0255616 3.66992e-25)
(0.905471 -0.00377846 0)
(0.913474 -0.0321758 0)
(0.931227 -0.0531826 0)
(0.952901 -0.0642063 0)
(0.97589 -0.0632988 0)
(0.991665 -0.0594281 -7.40476e-25)
(1.00272 -0.0489041 -2.87533e-25)
(1.01079 -0.0431383 0)
(1.01557 -0.0368797 1.41925e-24)
(1.01866 -0.0312383 -2.12421e-24)
(1.02057 -0.026212 1.04072e-24)
(1.0217 -0.0218017 -3.3576e-25)
(1.0223 -0.0179603 0)
(1.02256 -0.0146209 0)
(1.02261 -0.0117046 0)
(1.02255 -0.00913429 0)
(1.02244 -0.00683727 0)
(1.02233 -0.00474549 0)
(1.02226 -0.0027951 0)
(1.02222 -0.000923602 0)
(1.01968 0.000931059 0)
(1.01965 0.00281284 0)
(1.0196 0.00475607 0)
(1.01949 0.0068051 0)
(1.01931 0.00900443 0)
(1.019 0.0113976 0)
(1.0185 0.0140251 0)
(1.01772 0.0169209 0)
(1.01654 0.0201054 0)
(1.01479 0.0235746 -2.41946e-25)
(1.0123 0.0272809 -2.05364e-25)
(1.00881 0.031104 4.47309e-25)
(1.00399 0.0349741 0)
(0.99722 0.0382015 5.97047e-26)
(0.991868 0.0427239 -3.89126e-25)
(0.98209 0.0440784 1.18168e-24)
(0.97151 0.0448953 2.19483e-24)
(0.958651 0.0396806 -3.37832e-24)
(0.947049 0.029569 0)
(0.939003 0.014971 0)
(0.93661 -0.00219251 0)
(0.940553 -0.018968 -1.17822e-23)
(0.949722 -0.0325659 4.88562e-24)
(0.961814 -0.0414319 -3.98362e-25)
(0.97647 -0.0438153 1.17676e-24)
(0.987363 -0.0437645 0)
(0.997233 -0.038206 5.98273e-26)
(1.00401 -0.0349768 7.39825e-25)
(1.00882 -0.031105 -1.18804e-24)
(1.0123 -0.0272797 2.05797e-25)
(1.0148 -0.0235716 2.4242e-25)
(1.01654 -0.0201011 0)
(1.01772 -0.0169164 0)
(1.0185 -0.0140214 0)
(1.019 -0.0113947 0)
(1.01931 -0.00900218 0)
(1.01949 -0.00680343 0)
(1.01959 -0.00475492 0)
(1.01965 -0.00281217 0)
(1.01967 -0.000930837 0)
(1.01717 0.000897491 0)
(1.01709 0.00270667 0)
(1.01694 0.0045584 0)
(1.01669 0.00648068 0)
(1.01631 0.00849995 0)
(1.01577 0.0106385 0)
(1.01499 0.0129115 0)
(1.01392 0.0153227 0)
(1.01246 0.0178585 0)
(1.0105 0.02048 0)
(1.00792 0.0231139 0)
(1.0046 0.0256272 0)
(1.00043 0.027929 0)
(0.995146 0.0295799 -1.92413e-26)
(0.990441 0.0324874 7.65025e-26)
(0.983373 0.0319135 0)
(0.975938 0.0311351 -1.99108e-24)
(0.967977 0.0264448 2.94046e-24)
(0.96121 0.0190663 0)
(0.956728 0.00944779 -4.27923e-24)
(0.955427 -0.00138498 0)
(0.957585 -0.0120378 0)
(0.962749 -0.0211713 3.3747e-24)
(0.969908 -0.0278952 -2.46869e-24)
(0.979542 -0.0310027 0)
(0.987185 -0.032394 0)
(0.995157 -0.0295836 -1.89272e-26)
(1.00044 -0.0279305 0)
(1.0046 -0.0256267 0)
(1.00793 -0.0231116 0)
(1.01051 -0.0204763 0)
(1.01246 -0.0178543 0)
(1.01392 -0.0153189 0)
(1.01499 -0.0129083 0)
(1.01577 -0.0106359 0)
(1.01631 -0.00849794 0)
(1.01669 -0.00647917 0)
(1.01694 -0.00455735 0)
(1.01709 -0.00270604 0)
(1.01717 -0.000897285 0)
(1.01479 0.000836112 0)
(1.01469 0.00251703 0)
(1.01447 0.00422319 0)
(1.01413 0.00596942 0)
(1.01364 0.00776783 0)
(1.01296 0.00962524 0)
(1.01206 0.0115404 0)
(1.01088 0.0135008 0)
(1.00936 0.0154783 0)
(1.00743 0.017424 0)
(1.00503 0.0192643 0)
(1.00209 0.0208798 0)
(0.998582 0.0221521 1.71538e-27)
(0.994399 0.0228343 -1.71492e-27)
(0.990211 0.024355 0)
(0.985683 0.0234052 0)
(0.980251 0.022002 0)
(0.975209 0.0182433 -2.12477e-24)
(0.971025 0.0128199 0)
(0.968354 0.00619639 0)
(0.967613 -0.00104529 -3.13006e-24)
(0.968917 -0.00816393 0)
(0.972042 -0.0144702 2.64696e-24)
(0.976515 -0.0194722 -2.12364e-24)
(0.982993 -0.0223482 0)
(0.98865 -0.024206 0)
(0.994407 -0.0228364 1.84049e-27)
(0.998589 -0.0221523 -1.84098e-27)
(1.0021 -0.0208784 0)
(1.00503 -0.0192616 0)
(1.00743 -0.0174206 0)
(1.00936 -0.0154749 0)
(1.01088 -0.0134979 0)
(1.01206 -0.0115379 0)
(1.01296 -0.00962316 0)
(1.01364 -0.00776615 0)
(1.01413 -0.00596813 0)
(1.01447 -0.00422228 0)
(1.01469 -0.00251649 0)
(1.01479 -0.000835931 0)
(1.01261 0.000758306 0)
(1.01249 0.00227897 0)
(1.01224 0.0038108 0)
(1.01186 0.00535887 0)
(1.01131 0.00692522 0)
(1.01059 0.00850674 0)
(1.00966 0.0100931 0)
(1.00848 0.0116642 0)
(1.00702 0.0131873 0)
(1.00524 0.0146139 0)
(1.00311 0.0158772 0)
(1.0006 0.0168826 0)
(0.997723 0.0175087 0)
(0.994493 0.0176121 0)
(0.990967 0.0172416 0)
(0.98743 0.0170644 1.31778e-25)
(0.98394 0.0149046 0)
(0.980853 0.0118764 0)
(0.978444 0.00794327 0)
(0.977032 0.00339248 1.08471e-24)
(0.976789 -0.00145821 0)
(0.977761 -0.00621405 1.08458e-24)
(0.979845 -0.0104865 0)
(0.982804 -0.013987 0)
(0.986178 -0.0164593 1.31497e-25)
(0.990973 -0.0172444 0)
(0.994499 -0.0176133 0)
(0.997729 -0.0175084 0)
(1.00061 -0.0168812 0)
(1.00312 -0.0158751 0)
(1.00524 -0.0146116 0)
(1.00702 -0.0131851 0)
(1.00848 -0.0116621 0)
(1.00966 -0.0100912 0)
(1.01059 -0.00850514 0)
(1.01131 -0.00692389 0)
(1.01186 -0.00535783 0)
(1.01224 -0.00381006 0)
(1.01249 -0.00227853 0)
(1.01261 -0.000758159 0)
(1.01065 0.000673206 0)
(1.01053 0.00202017 0)
(1.01027 0.00336787 0)
(1.00987 0.00471466 0)
(1.00933 0.00605607 0)
(1.00861 0.00738321 0)
(1.00771 0.00868124 0)
(1.00661 0.00992762 0)
(1.00527 0.0110904 0)
(1.0037 0.0121264 0)
(1.00186 0.0129803 0)
(0.999777 0.0135859 0)
(0.997459 0.0138578 0)
(0.994968 0.0136836 0)
(0.992376 0.0131042 0)
(0.989793 0.0119455 0)
(0.987533 0.0100716 0)
(0.985632 0.00764421 0)
(0.984263 0.00478576 0)
(0.983543 0.00162774 3.01927e-27)
(0.983543 -0.00163415 -3.01927e-27)
(0.984265 -0.00479184 0)
(0.985635 -0.00764956 0)
(0.987537 -0.0100761 0)
(0.989796 -0.0119491 0)
(0.99238 -0.0131058 0)
(0.994972 -0.0136846 0)
(0.997463 -0.0138578 0)
(0.999781 -0.0135852 0)
(1.00187 -0.0129792 0)
(1.0037 -0.0121251 0)
(1.00528 -0.011089 0)
(1.00661 -0.0099262 0)
(1.00772 -0.00867992 0)
(1.00862 -0.00738204 0)
(1.00933 -0.00605508 0)
(1.00987 -0.00471387 0)
(1.01027 -0.0033673 0)
(1.01053 -0.00201982 0)
(1.01065 -0.000673091 0)
(1.00893 0.000587463 0)
(1.00881 0.00176055 0)
(1.00856 0.00292733 0)
(1.00818 0.00408184 0)
(1.00766 0.00521584 0)
(1.00699 0.00631755 0)
(1.00616 0.00737065 0)
(1.00516 0.00835325 0)
(1.00398 0.00923698 0)
(1.00262 0.0099864 0)
(1.00107 0.0105585 0)
(0.999364 0.0109055 0)
(0.997512 0.0109753 0)
(0.995568 0.0106907 0)
(0.99363 0.0100352 0)
(0.991829 0.00899381 0)
(0.990125 0.00756026 0)
(0.98876 0.00569148 0)
(0.987802 0.00354806 0)
(0.987303 0.00120338 1.68748e-35)
(0.987304 -0.00120835 -1.68748e-35)
(0.987803 -0.00355278 0)
(0.988762 -0.00569574 0)
(0.990128 -0.00756379 0)
(0.991832 -0.00899688 0)
(0.993634 -0.0100367 0)
(0.995571 -0.0106918 0)
(0.997516 -0.0109757 0)
(0.999367 -0.0109054 0)
(1.00108 -0.0105581 0)
(1.00262 -0.00998571 0)
(1.00398 -0.00923615 0)
(1.00516 -0.00835236 0)
(1.00616 -0.00736977 0)
(1.00699 -0.00631674 0)
(1.00766 -0.00521514 0)
(1.00818 -0.00408127 0)
(1.00856 -0.00292691 0)
(1.00881 -0.00176029 0)
(1.00893 -0.000587377 0)
(1.00745 0.000505561 0)
(1.00733 0.00151336 0)
(1.00709 0.00251057 0)
(1.00674 0.00348885 0)
(1.00626 0.00443809 0)
(1.00565 0.0053456 0)
(1.00491 0.00619545 0)
(1.00403 0.00696795 0)
(1.00301 0.00763929 0)
(1.00186 0.00818147 0)
(1.00058 0.00856248 0)
(0.999193 0.00874738 0)
(0.997724 0.0087035 0)
(0.996212 0.00839029 0)
(0.994732 0.00778399 0)
(0.993388 0.00687242 0)
(0.992154 0.00571072 0)
(0.991164 0.00427277 0)
(0.990462 0.00265058 0)
(0.990099 0.000896744 0)
(0.990099 -0.000900508 0)
(0.990463 -0.00265416 0)
(0.991165 -0.004276 0)
(0.992156 -0.00571339 0)
(0.99339 -0.00687476 0)
(0.994735 -0.00778565 0)
(0.996215 -0.00839153 0)
(0.997727 -0.0087042 0)
(0.999196 -0.00874768 0)
(1.00058 -0.00856246 0)
(1.00186 -0.00818121 0)
(1.00302 -0.00763888 0)
(1.00403 -0.00696745 0)
(1.00491 -0.00619492 0)
(1.00566 -0.00534508 0)
(1.00626 -0.00443763 0)
(1.00674 -0.00348846 0)
(1.00709 -0.00251028 0)
(1.00733 -0.00151319 0)
(1.00745 -0.000505501 0)
(1.00617 0.000430187 0)
(1.00606 0.00128647 0)
(1.00585 0.00213 0)
(1.00554 0.00295139 0)
(1.00511 0.00374003 0)
(1.00457 0.00448348 0)
(1.00392 0.00516722 0)
(1.00316 0.00577431 0)
(1.0023 0.00628542 0)
(1.00133 0.00667896 0)
(1.00028 0.00693177 0)
(0.999161 0.00701961 0)
(0.997996 0.00692044 0)
(0.99682 0.00661449 0)
(0.995679 0.00608683 0)
(0.994635 0.0053431 0)
(0.993721 0.00440208 0)
(0.992989 0.00328004 0)
(0.992471 0.00202616 0)
(0.992202 0.00068421 0)
(0.992203 -0.000687131 0)
(0.992471 -0.00202895 0)
(0.992991 -0.00328258 0)
(0.993722 -0.00440426 0)
(0.994637 -0.00534497 0)
(0.995681 -0.00608841 0)
(0.996822 -0.00661568 0)
(0.997998 -0.00692125 0)
(0.999162 -0.00702011 0)
(1.00028 -0.006932 0)
(1.00134 -0.00667898 0)
(1.0023 -0.00628529 0)
(1.00317 -0.00577408 0)
(1.00392 -0.00516694 0)
(1.00457 -0.00448319 0)
(1.00511 -0.00373975 0)
(1.00554 -0.00295115 0)
(1.00585 -0.00212981 0)
(1.00607 -0.00128636 0)
(1.00617 -0.000430147 0)
(1.00509 0.000362692 0)
(1.005 0.00108373 0)
(1.00481 0.00179133 0)
(1.00453 0.00247601 0)
(1.00416 0.00312745 0)
(1.00369 0.00373416 0)
(1.00314 0.00428339 0)
(1.00249 0.00476101 0)
(1.00177 0.00515167 0)
(1.00097 0.00543903 0)
(1.0001 0.00560651 0)
(0.999201 0.00563793 0)
(0.998275 0.00551889 0)
(0.997356 0.00523937 0)
(0.996475 0.00479277 0)
(0.995668 0.00418967 0)
(0.99497 0.00343533 0)
(0.994415 0.00255355 0)
(0.994027 0.00157366 0)
(0.993828 0.000530874 1.55401e-35)
(0.993828 -0.000533225 -1.55401e-35)
(0.994028 -0.00157592 0)
(0.994416 -0.00255565 0)
(0.994971 -0.00343721 0)
(0.995669 -0.00419129 0)
(0.996476 -0.00479416 0)
(0.997357 -0.00524047 0)
(0.998277 -0.00551973 0)
(0.999202 -0.00563852 0)
(1.00011 -0.00560688 0)
(1.00097 -0.00543924 0)
(1.00177 -0.00515173 0)
(1.00249 -0.00476098 0)
(1.00314 -0.00428329 0)
(1.00369 -0.00373403 0)
(1.00416 -0.00312731 0)
(1.00453 -0.00247588 0)
(1.00481 -0.00179123 0)
(1.005 -0.00108367 0)
(1.00509 -0.00036267 0)
(1.00419 0.000303501 0)
(1.00411 0.000906222 0)
(1.00394 0.0014958 0)
(1.0037 0.00206323 0)
(1.00338 0.00259893 0)
(1.00298 0.00309271 0)
(1.00251 0.00353364 0)
(1.00197 0.00391015 0)
(1.00136 0.00421021 0)
(1.0007 0.00442161 0)
(1 0.0045325 0)
(0.999275 0.00453221 0)
(0.998539 0.00441192 0)
(0.997815 0.00416633 0)
(0.997129 0.00379392 0)
(0.996506 0.00330143 0)
(0.99597 0.00269746 0)
(0.995544 0.00199997 0)
(0.995249 0.00123003 0)
(0.995098 0.000414533 0)
(0.995098 -0.00041646 0)
(0.995249 -0.0012319 0)
(0.995545 -0.00200173 0)
(0.99597 -0.00269907 0)
(0.996507 -0.00330285 0)
(0.99713 -0.00379515 0)
(0.997816 -0.00416735 0)
(0.99854 -0.00441274 0)
(0.999277 -0.00453284 0)
(1 -0.00453296 0)
(1.00071 -0.00442192 0)
(1.00136 -0.0042104 0)
(1.00197 -0.00391025 0)
(1.00251 -0.00353367 0)
(1.00298 -0.00309269 0)
(1.00338 -0.0025989 0)
(1.0037 -0.00206318 0)
(1.00395 -0.00149576 0)
(1.00411 -0.000906193 0)
(1.00419 -0.000303491 0)
(1.00344 0.000252413 0)
(1.00336 0.000753222 0)
(1.00323 0.00124178 0)
(1.00302 0.00170985 0)
(1.00275 0.00214887 0)
(1.00241 0.00254996 0)
(1.00201 0.00290396 0)
(1.00156 0.0032015 0)
(1.00106 0.00343319 0)
(1.00052 0.00358995 0)
(0.999949 0.00366338 0)
(0.999363 0.00364636 0)
(0.998775 0.00353366 0)
(0.998203 0.00332271 0)
(0.997664 0.00301435 0)
(0.997179 0.00261337 0)
(0.996764 0.00212903 0)
(0.996437 0.00157458 0)
(0.99621 0.000966681 0)
(0.996094 0.000325465 0)