/*--------------------------------*- C++ -*----------------------------------*\
| =========                 |                                                 |
| \\      /  F ield         | OpenFOAM: The Open Source CFD Toolbox           |
|  \\    /   O peration     | Version:  v2106                                 |
|   \\  /    A nd           | Website:  www.openfoam.com                      |
|    \\/     M anipulation  |                                                 |
\*---------------------------------------------------------------------------*/
FoamFile
{
    version     2.0;
    format      ascii;
    arch        "LSB;label=32;scalar=64";
    class       volScalarField;
    location    "0";
    object      p;
}
// * * * * * * * * * * * * * * * * * * * * * * * * * * * * * * * * * * * * * //

dimensions      [0 2 -2 0 0 0 0];

internalField   nonuniform List<scalar> 
11644
(
0.0647174
0.0651146
0.0659519
0.067239
0.0689705
0.0711434
0.0737549
0.0767963
0.0802454
0.0840613
0.0881813
0.0925127
0.0969291
0.101264
0.105317
0.108904
0.111776
0.113704
0.114539
0.11423
0.112794
0.110222
0.106536
0.101897
0.0965988
0.0909233
0.0850833
0.0792622
0.0736472
0.0683719
0.0635229
0.0591625
0.055322
0.0520074
0.0492131
0.0469248
0.0451254
0.0438013
0.0429455
0.0425391
0.0640285
0.0644226
0.0652386
0.0664932
0.0681938
0.0703457
0.0729512
0.0760075
0.0795003
0.0834009
0.087659
0.0921873
0.0968627
0.101522
0.105964
0.109917
0.113152
0.115421
0.116525
0.116315
0.114746
0.111909
0.107962
0.103017
0.0973106
0.0911737
0.0849255
0.078794
0.0729357
0.0674975
0.062565
0.0581736
0.0543378
0.0510536
0.0483045
0.0460694
0.0443256
0.0430515
0.0422269
0.0418283
0.0625035
0.0629126
0.0637243
0.0649506
0.0666136
0.0687327
0.0713233
0.0743973
0.0779627
0.0820162
0.0865299
0.0914548
0.0966903
0.10206
0.107319
0.11218
0.116306
0.119399
0.121114
0.121178
0.1194
0.115937
0.111105
0.105209
0.0985654
0.0915132
0.08443
0.0776406
0.0713416
0.0656307
0.0605553
0.0561284
0.052326
0.0491175
0.046465
0.04433
0.0426756
0.0414673
0.0406731
0.0402762
0.0601775
0.0605831
0.0613828
0.0625787
0.0641955
0.0662661
0.0688248
0.0719078
0.0755535
0.0797975
0.0846716
0.090163
0.0961838
0.102585
0.109177
0.11555
0.1212
0.125825
0.12869
0.12928
0.127315
0.122926
0.116535
0.108751
0.100372
0.0917711
0.0833839
0.0756138
0.0686559
0.0625917
0.0573778
0.0529498
0.049242
0.0461776
0.0436858
0.0417038
0.0401778
0.0390626
0.0383233
0.0379503
0.0570998
0.057482
0.0582371
0.0593708
0.0609098
0.0628947
0.0653782
0.0684255
0.0721139
0.0765302
0.0817451
0.0877927
0.0947158
0.102497
0.11096
0.119652
0.127751
0.135109
0.139979
0.141572
0.139368
0.133523
0.124663
0.113877
0.102782
0.0917104
0.0814074
0.0722994
0.0645359
0.0580843
0.0528088
0.0485078
0.0450166
0.0422078
0.0399714
0.0382194
0.0368831
0.0359101
0.0352698
0.0349477
0.0533309
0.0536659
0.0543359
0.0553565
0.0567559
0.0585813
0.0608999
0.0638038
0.0674082
0.0718193
0.077144
0.0835829
0.0913755
0.100679
0.111711
0.123954
0.136075
0.147681
0.1562
0.159959
0.15749
0.148918
0.135832
0.120155
0.104932
0.0903043
0.077477
0.0669246
0.0584359
0.0517586
0.0465953
0.0426346
0.0395749
0.0371945
0.035351
0.0339376
0.0328788
0.0321209
0.0316264
0.0313829
0.0489508
0.0492148
0.0497568
0.050592
0.0517593
0.0533094
0.0553179
0.057889
0.0611427
0.0651967
0.0702849
0.0767459
0.0849638
0.0957264
0.109743
0.12638
0.139137
0.155955
0.170454
0.179423
0.179385
0.169477
0.152264
0.131787
0.105005
0.085454
0.0697881
0.0579865
0.0494634
0.0431374
0.0385322
0.0352378
0.032893
0.0311803
0.0299115
0.0289755
0.0282945
0.0278195
0.0275156
0.0273618
0.0440408
0.0442301
0.0446011
0.0451804
0.0460024
0.0471196
0.0486082
0.0505708
0.0530999
0.0563497
0.0606335
0.0664167
0.0742824
0.0848399
0.0996585
0.118427
0.144077
0.172102
0.199448
0.218014
0.219766
0.202697
0.172676
0.139119
0.106734
0.0816675
0.0636907
0.0440809
0.0365703
0.0316453
0.0284307
0.0263543
0.025078
0.0243067
0.023813
0.0234972
0.0232966
0.023169
0.0230956
0.0230644
0.0387802
0.038851
0.0390021
0.0392487
0.0396078
0.0401258
0.040861
0.0418886
0.0432649
0.0451676
0.0478615
0.0517044
0.0573199
0.0700507
0.0839945
0.105805
0.134452
0.178455
0.2264
0.268455
0.280634
0.252582
0.200007
0.143903
0.0992717
0.0622277
0.0434215
0.0233375
0.0192849
0.0171554
0.0162811
0.0161314
0.0163719
0.016823
0.017303
0.0177393
0.0181082
0.0183921
0.0185781
0.0186636
0.0333379
0.0332841
0.033181
0.0330135
0.0328051
0.0325687
0.032332
0.0321031
0.031873
0.0317389
0.0318467
0.032316
0.0330561
0.043165
0.0513105
0.0717036
0.103208
0.157441
0.244292
0.348468
0.394553
0.331151
0.216036
0.122491
0.0579197
0.0185473
0.00786558
-0.00423971
-0.0022371
4.493e-05
0.00257509
0.00502203
0.00720898
0.00912879
0.0107307
0.012008
0.0129899
0.0137044
0.0141646
0.0143926
0.0279163
0.0277466
0.0273534
0.0267503
0.0259136
0.0248146
0.0234362
0.0216951
0.0194847
0.0166874
0.0131514
0.00881525
0.00327418
0.00507274
0.00165609
0.00453074
0.0144831
0.0398676
0.137783
0.381869
0.587995
0.370571
0.112626
-0.00408209
-0.0432802
-0.0518467
-0.041846
-0.037075
-0.0266949
-0.0182644
-0.0114816
-0.00604926
-0.00169488
0.00178224
0.00453115
0.00665651
0.00825496
0.00939196
0.0101215
0.0104653
0.0229032
0.0225426
0.0218394
0.0207707
0.0192827
0.017306
0.0147314
0.0113847
0.00706299
0.00142541
-0.00605116
-0.015934
-0.0288945
-0.0341876
-0.0571142
-0.0786929
-0.122685
-0.222559
-0.495594
-0.535362
-0.294265
-0.192077
-0.136394
-0.0958675
-0.0697968
-0.0496977
-0.034973
-0.0240428
-0.0157593
-0.00940903
-0.00453796
-0.000783446
0.0020755
0.00420518
0.00570815
0.00666986
0.00712757
0.0184423
0.0179347
0.0169627
0.015468
0.0133841
0.010599
0.00692699
0.00213535
-0.0040642
-0.0121612
-0.0228707
-0.0372978
-0.0564581
-0.0698107
-0.105295
-0.144163
-0.215211
-0.353978
-0.499447
-0.721964
-0.49899
-0.305765
-0.198827
-0.137281
-0.091016
-0.0651899
-0.0465452
-0.0328032
-0.0225857
-0.0149167
-0.0091265
-0.00471424
-0.00137601
0.00109317
0.00285047
0.00398884
0.00460686
0.0146717
0.0140494
0.0128702
0.0110674
0.00854284
0.00516507
0.000705022
-0.0050915
-0.0125243
-0.0221958
-0.0348097
-0.0516216
-0.0736128
-0.0927613
-0.130787
-0.1721
-0.232088
-0.307699
-0.331159
-0.613854
-0.503564
-0.326992
-0.208811
-0.146707
-0.0937492
-0.0688672
-0.049994
-0.0358708
-0.0253472
-0.0174283
-0.0114478
-0.00689298
-0.00341688
-0.000839406
0.00100734
0.00221534
0.00278882
0.0114901
0.0109404
0.00970567
0.00777613
0.00506212
0.00142761
-0.00333522
-0.00949137
-0.0173485
-0.0274698
-0.0405777
-0.0577217
-0.0796397
-0.101023
-0.139116
-0.18201
-0.238599
-0.296776
-0.290781
-0.360405
-0.448272
-0.615729
-0.651699
-0.444171
-0.266351
-0.166194
-0.121431
-0.0787336
-0.0597065
-0.0445882
-0.032775
-0.0237344
-0.0167195
-0.0113405
-0.00719001
-0.00398103
-0.00158309
0.000139558
0.00126259
0.00177935
0.00937293
0.00889539
0.00774082
0.00588688
0.00325502
-0.000263689
-0.00480713
-0.0106299
-0.0180425
-0.0275057
-0.0395718
-0.0551615
-0.0753123
-0.0976582
-0.135185
-0.189293
-0.260201
-0.381823
-0.477575
-0.565255
-0.569523
-0.499038
-0.335438
-0.184716
-0.128292
-0.0859976
-0.0724895
-0.0488633
-0.0397301
-0.0317073
-0.0245491
-0.0183676
-0.0132018
-0.00903873
-0.00569078
-0.00306545
-0.00110084
0.000297612
0.00120347
0.00174419
0.00869498
0.0082062
0.00716549
0.00554253
0.00325671
0.000231086
-0.00364669
-0.00860941
-0.0148474
-0.0226309
-0.0324398
-0.0451836
-0.0618689
-0.0845728
-0.116068
-0.166761
-0.242263
-0.385479
-0.59153
-0.712825
-0.654553
-0.371133
-0.053826
0.0486559
0.0245068
-0.00298165
-0.0114118
-0.0141222
-0.0155469
-0.0149196
-0.012949
-0.0103085
-0.00759685
-0.00498563
-0.002696
-0.000828893
0.000626501
0.00169101
0.00237582
0.00257286
0.00920458
0.00876222
0.00792411
0.00667064
0.00492721
0.0026404
-0.000246663
-0.00387709
-0.00837776
-0.0138558
-0.020614
-0.0293891
-0.0410273
-0.0568217
-0.0846477
-0.119484
-0.175578
-0.263463
-0.408417
-0.537527
-0.515836
-0.281959
-0.00853782
0.126581
0.0885603
0.0461868
0.0213758
0.0103871
0.00329651
-8.00783e-06
-0.00142222
-0.00161195
-0.00100559
7.66555e-05
0.00124869
0.00231635
0.00322602
0.00390996
0.00432739
0.00444668
0.0106399
0.0103451
0.00978541
0.00895681
0.00784135
0.00642385
0.00471976
0.00273486
0.000378755
-0.00242778
-0.00579033
-0.0100523
-0.0161454
-0.0242383
-0.0449368
-0.063074
-0.0996523
-0.141157
-0.202799
-0.266774
-0.267007
-0.170703
-0.0263877
0.0720719
0.0604033
0.0442437
0.0286261
0.0178406
0.0121794
0.00873465
0.00656972
0.00547836
0.00509392
0.00516487
0.0054488
0.00581485
0.00617547
0.00645382
0.00665725
0.0068238
0.0126833
0.0125556
0.0122867
0.011883
0.0113855
0.0108192
0.010264
0.00982605
0.0095171
0.00928678
0.00916411
0.00907382
0.00848258
0.00687326
-0.00627684
-0.0165102
-0.0419088
-0.0765405
-0.124098
-0.176265
-0.204969
-0.181453
-0.114616
-0.0513669
-0.016165
0.00873735
0.0154941
0.0135362
0.0130151
0.0119889
0.0110072
0.0103214
0.00983776
0.00949754
0.00930636
0.0092434
0.00924905
0.00928882
0.00936839
0.00947177
0.0149957
0.0149555
0.0149098
0.0148866
0.014928
0.0150958
0.0154584
0.0161217
0.0172661
0.0190373
0.0215332
0.0246939
0.02858
0.0312855
0.0236278
0.0177107
-0.00256902
-0.0425011
-0.115658
-0.21518
-0.296623
-0.314429
-0.26841
-0.182522
-0.0837294
-0.0256248
-0.000561359
0.00688954
0.0116045
0.0131962
0.013688
0.013686
0.0134028
0.0130461
0.0127456
0.0125323
0.0123873
0.0123023
0.0122691
0.0122628
0.01727
0.0172898
0.0174177
0.0176799
0.0181181
0.0188144
0.0198376
0.0212747
0.0233318
0.026339
0.0304159
0.0357644
0.0426276
0.0491161
0.0513449
0.0408412
0.0159262
-0.0429697
-0.145077
-0.272768
-0.362965
-0.366809
-0.297047
-0.188757
-0.0922855
-0.026268
-0.0062596
0.00605306
0.0123761
0.0151991
0.0163978
0.0167393
0.0166218
0.0163277
0.015992
0.0156841
0.0154335
0.0152454
0.015119
0.0150486
0.0193155
0.0194322
0.0196924
0.0201374
0.020809
0.0217981
0.0232009
0.0251196
0.0277088
0.0312259
0.0357447
0.04146
0.0486721
0.0563506
0.0529424
0.0341626
-0.00294167
-0.0597556
-0.128624
-0.187155
-0.209246
-0.191823
-0.143665
-0.0865149
-0.0424376
-0.0155806
0.00178628
0.0117977
0.0166656
0.0190846
0.0200032
0.0201736
0.0199631
0.0195732
0.019107
0.018648
0.0182532
0.0179436
0.0177348
0.0176486
0.0210299
0.0212092
0.021547
0.0220785
0.0228439
0.0239136
0.0253644
0.0273115
0.0298237
0.0330607
0.0370511
0.0412422
0.0457092
0.0488979
0.0405596
0.0187615
-0.0193424
-0.0679283
-0.111226
-0.13226
-0.125502
-0.10464
-0.0717414
-0.037353
-0.0120171
0.00340472
0.0139653
0.0198266
0.02282
0.024056
0.0241959
0.0238172
0.0232201
0.0225537
0.0218928
0.0212853
0.0207731
0.0203692
0.0200792
0.0199415
0.0224192
0.0226012
0.0229462
0.0234691
0.0241903
0.0251441
0.026341
0.0278253
0.0296166
0.0316347
0.0337518
0.0348634
0.0337219
0.0280019
0.0123241
-0.0136532
-0.0473901
-0.0832308
-0.109578
-0.114979
-0.0997921
-0.0720191
-0.0401713
-0.0137201
0.00476877
0.0166718
0.0239377
0.0276357
0.0290279
0.0290395
0.0283084
0.0272651
0.0261376
0.025099
0.0242013
0.0234634
0.0228781
0.0224442
0.0221389
0.0219253
0.0235224
0.0236832
0.0239852
0.024426
0.0250034
0.0257007
0.0264951
0.0273102
0.0280607
0.0284739
0.0280787
0.0260722
0.0193894
0.0064808
-0.0181518
-0.050754
-0.0906595
-0.128983
-0.153239
-0.154125
-0.132349
-0.0930856
-0.050474
-0.016621
0.00765909
0.0226525
0.0305161
0.0335318
0.034109
0.0332197
0.0317631
0.0301338
0.0285632
0.0271946
0.0260759
0.0251897
0.024504
0.0240088
0.0236907
0.023516
0.0244033
0.0245274
0.0247551
0.0250721
0.0254678
0.0258929
0.0262963
0.0265938
0.0264631
0.025826
0.02359
0.0191356
0.00960333
-0.00737645
-0.0375202
-0.0770849
-0.130713
-0.174461
-0.209091
-0.208235
-0.171731
-0.122078
-0.0679472
-0.0273017
0.00322237
0.0234744
0.0339385
0.0374865
0.0374357
0.035857
0.0339564
0.0320012
0.030219
0.0287135
0.0274753
0.0264848
0.0257176
0.0251649
0.0248183
0.0247625
0.025137
0.0252122
0.0253654
0.0255785
0.0258347
0.0260818
0.0262566
0.0262493
0.025792
0.0245607
0.021717
0.0164459
0.00612491
-0.0113255
-0.0412515
-0.0794547
-0.126549
-0.169216
-0.203617
-0.207129
-0.166052
-0.119418
-0.0688715
-0.0296614
-0.000228869
0.0205004
0.0324849
0.0382418
0.0387142
0.0367253
0.0347371
0.0327662
0.0310443
0.0295973
0.028395
0.0274284
0.0266956
0.02619
0.0258879
0.0257997
0.0257185
0.0257709
0.025912
0.0261026
0.0263143
0.0264976
0.0265863
0.0264941
0.0260296
0.0249231
0.0225602
0.0181275
0.0100414
-0.00361678
-0.0268575
-0.0569267
-0.0901394
-0.122445
-0.147769
-0.154191
-0.132142
-0.102204
-0.0665255
-0.0323271
-0.00494185
0.0156152
0.0288076
0.0358264
0.0374226
0.036084
0.034357
0.0326685
0.0311758
0.0299022
0.0288434
0.0280046
0.0273749
0.0269328
0.026644
0.0264681
0.0261963
0.0262912
0.0264324
0.0266191
0.0268243
0.0270149
0.0271345
0.0271163
0.0268504
0.0261589
0.0247003
0.0221519
0.0172035
0.0089508
-0.00542966
-0.0266085
-0.0502598
-0.0750635
-0.0937551
-0.103747
-0.10339
-0.0906012
-0.0664317
-0.0384662
-0.0126899
0.00783566
0.0220806
0.0300223
0.0332379
0.0334313
0.0326445
0.0316195
0.0305209
0.029513
0.0286655
0.027981
0.0274475
0.0270533
0.0267851
0.0266251
0.026557
0.0266798
0.0268124
0.0269841
0.0271879
0.027422
0.0276552
0.0278387
0.0279182
0.0277808
0.0271775
0.0257427
0.0227238
0.0172782
0.00856693
-0.00569841
-0.0246153
-0.0462976
-0.0653083
-0.0798895
-0.0870973
-0.0829655
-0.0666247
-0.0452496
-0.0239362
-0.00543129
0.00955117
0.0203261
0.0263727
0.0287689
0.0295626
0.0295105
0.0290454
0.0284817
0.027941
0.0274584
0.0270551
0.026748
0.0265489
0.0264713
0.0266892
0.0267404
0.0268806
0.0270853
0.0273494
0.0276776
0.028074
0.0285335
0.0290027
0.0293952
0.0294032
0.0286566
0.0264827
0.0218229
0.013759
0.000728219
-0.0188184
-0.0422382
-0.0663737
-0.0864013
-0.093245
-0.0928158
-0.0814485
-0.0640788
-0.043869
-0.0230607
-0.00472776
0.00965342
0.0188293
0.0235438
0.0259029
0.0268805
0.0272004
0.0271996
0.0270513
0.0268316
0.0266053
0.0264121
0.0262772
0.0262236
0.0266821
0.0266607
0.0267801
0.027004
0.0273325
0.0277565
0.0282874
0.0289397
0.0296652
0.0304985
0.0310236
0.0309258
0.0289961
0.0238889
0.0139993
-0.00137526
-0.0233253
-0.0499719
-0.081418
-0.108298
-0.122354
-0.122369
-0.109507
-0.0911236
-0.0660146
-0.0388628
-0.0157559
0.00164461
0.0129232
0.0191889
0.0227233
0.0245289
0.0255116
0.0260001
0.0261903
0.0262195
0.0261743
0.0260961
0.0260156
0.0259263
0.0266302
0.0266335
0.0267282
0.0269193
0.0272303
0.0276653
0.028212
0.028887
0.0296798
0.0305021
0.0312995
0.0313219
0.0287455
0.0232288
0.0127396
-0.00309594
-0.0251963
-0.0525782
-0.086228
-0.11663
-0.138637
-0.137504
-0.121075
-0.0994716
-0.0701976
-0.041857
-0.0189484
-0.00161235
0.0098645
0.016663
0.0207336
0.0229807
0.0243082
0.0250159
0.025381
0.0255607
0.0256408
0.0256421
0.0256123
0.0255282
0.0263447
0.0264216
0.0265467
0.026728
0.0269939
0.0273551
0.0278144
0.0283729
0.0290263
0.0297212
0.030222
0.0293817
0.0259825
0.0195281
0.00910537
-0.00594106
-0.0259751
-0.0504609
-0.0780312
-0.101414
-0.120052
-0.116823
-0.100648
-0.0800297
-0.0543811
-0.032235
-0.013691
0.000811777
0.010676
0.0167996
0.0204798
0.0225617
0.0237719
0.0244461
0.0248258
0.0250234
0.0251094
0.0251235
0.0251124
0.0250965
0.0257477
0.0258505
0.0259731
0.0261332
0.0263417
0.0266083
0.0269402
0.0273091
0.0276624
0.0279288
0.0276603
0.0259562
0.0217161
0.0138949
0.00222049
-0.0128704
-0.0307611
-0.050835
-0.0691504
-0.0810482
-0.0854852
-0.0802129
-0.0679213
-0.0511748
-0.0330582
-0.0167662
-0.00255182
0.00807946
0.0148628
0.0189961
0.0214577
0.0229217
0.0238012
0.0243144
0.0245989
0.0247398
0.0247941
0.0247995
0.0247971
0.0248035
0.0249908
0.0250249
0.0250836
0.0251778
0.025301
0.025441
0.0255781
0.0256546
0.0255121
0.0249739
0.0235641
0.0204324
0.0149106
0.00629544
-0.00533364
-0.0194362
-0.0351631
-0.0511088
-0.0633448
-0.0669358
-0.0626668
-0.0545613
-0.0429482
-0.0281193
-0.0140484
-0.00132625
0.00863217
0.0153017
0.0192917
0.0215971
0.0228985
0.0236779
0.0241437
0.0244302
0.024571
0.0246347
0.0246581
0.0246578
0.0246473
0.0246199
0.0241984
0.0241613
0.0241675
0.0241916
0.0242078
0.0241693
0.024031
0.0237018
0.0229653
0.0214883
0.018751
0.0137431
0.00614247
-0.00388233
-0.0158713
-0.0291689
-0.0424152
-0.0550267
-0.0633202
-0.0640211
-0.0585854
-0.0474551
-0.03305
-0.0172603
-0.00302065
0.00809649
0.0158104
0.02031
0.022704
0.0238627
0.0243916
0.0245467
0.0245739
0.0245551
0.0245131
0.0244646
0.0244252
0.0243904
0.0243581
0.0243342
0.0234623
0.0234463
0.0234327
0.0233908
0.0232851
0.0230592
0.0226358
0.0218993
0.0206358
0.0184511
0.0146212
0.00802378
-0.00190609
-0.0150218
-0.0305125
-0.0459549
-0.0595406
-0.0706157
-0.0778751
-0.077167
-0.0699262
-0.053873
-0.0343112
-0.01627
-0.000747721
0.0109556
0.0189049
0.0232192
0.025137
0.0256903
0.0255504
0.0252041
0.0248472
0.0245459
0.0243109
0.0241351
0.0240073
0.0239248
0.0238886
0.0239279
0.0227853
0.0228392
0.0228051
0.0226958
0.0224935
0.0221337
0.0215252
0.0205701
0.0189693
0.0162919
0.0118943
0.00480638
-0.00612203
-0.0209569
-0.0395467
-0.0578607
-0.0750027
-0.0870072
-0.0960208
-0.0955192
-0.0807232
-0.0595745
-0.0364758
-0.017024
-0.000785224
0.0111978
0.0195056
0.0238921
0.0259505
0.0263262
0.025822
0.0252941
0.0247442
0.0243118
0.0239815
0.0237386
0.0235734
0.0234873
0.0234674
0.0235221
0.0220826
0.0221356
0.0220911
0.0219744
0.0217504
0.0213722
0.0207598
0.0198177
0.0182296
0.0156343
0.0113651
0.00466918
-0.00515383
-0.0181884
-0.0346557
-0.05286
-0.0708858
-0.0841476
-0.0947041
-0.0947887
-0.0775696
-0.0574827
-0.035743
-0.0170705
-0.00157566
0.0099238
0.0177214
0.022048
0.0244697
0.0253589
0.0250801
0.0246817
0.0242086
0.0238308
0.0235387
0.0233252
0.0231793
0.023096
0.0230541
0.0230415
0.0214622
0.0214384
0.0213976
0.0213158
0.0211518
0.0208647
0.0203939
0.0196474
0.0184215
0.0164235
0.0131052
0.00791227
0.000239497
-0.00974104
-0.0218914
-0.0359396
-0.0505297
-0.0625056
-0.0713975
-0.0736603
-0.0646891
-0.0517736
-0.0361206
-0.0202827
-0.00663988
0.00431002
0.0124781
0.0180771
0.0214578
0.0230626
0.0234975
0.0234219
0.023181
0.0229838
0.0228084
0.0226727
0.0225709
0.022494
0.0224287
0.0223695
0.021057
0.0210323
0.0209985
0.0209412
0.0208377
0.020655
0.0203582
0.0198843
0.0191436
0.0179462
0.0159452
0.0127291
0.00759987
0.000447657
-0.00827781
-0.0186001
-0.0295065
-0.039736
-0.0475183
-0.052072
-0.0527627
-0.0474571
-0.0374292
-0.0251492
-0.0132522
-0.00276195
0.00600803
0.0127078
0.0171202
0.0196647
0.0209433
0.0214409
0.021631
0.0216877
0.0216659
0.0216395
0.0216133
0.0215934
0.0215755
0.0215413
0.0207478
0.0207643
0.0207568
0.0207291
0.0206801
0.0206052
0.0204851
0.0202932
0.020001
0.0194735
0.018546
0.0169002
0.0139935
0.00924678
0.00245724
-0.00642526
-0.0165811
-0.0271568
-0.0362775
-0.0427565
-0.0458973
-0.0450598
-0.0387532
-0.029201
-0.0190432
-0.00932457
-0.000735635
0.00620526
0.0115149
0.0153249
0.0177193
0.0190392
0.0197893
0.0201723
0.0203624
0.0204653
0.0205217
0.0205632
0.0206028
0.0206493
0.0203413
0.0203398
0.0203524
0.0203714
0.0204027
0.0204532
0.0205235
0.0206187
0.0207208
0.0207768
0.0206281
0.0199459
0.0181478
0.014551
0.00826791
-0.000617802
-0.0118529
-0.0241552
-0.0359561
-0.0452112
-0.0488187
-0.0500567
-0.0459507
-0.0382011
-0.029041
-0.0192907
-0.00974897
-0.00124478
0.00583794
0.011202
0.014705
0.0168174
0.0180574
0.0187689
0.0191958
0.0194503
0.0195901
0.0196732
0.01973
0.0198008
0.019868
0.019815
0.0198193
0.0198679
0.0199664
0.0201199
0.0203394
0.0206508
0.0210399
0.0214772
0.0218778
0.0215844
0.0199817
0.016758
0.0106794
0.00192944
-0.00992996
-0.0234951
-0.0387615
-0.0519948
-0.0615364
-0.0635088
-0.0591842
-0.0519688
-0.0417988
-0.0304112
-0.0184452
-0.00724787
0.00173156
0.00825565
0.0125209
0.0150969
0.0166792
0.0176411
0.0182757
0.0186684
0.0189022
0.0190299
0.0190882
0.0190865
0.0193958
0.0193582
0.019361
0.0194096
0.019521
0.0196986
0.0199539
0.0202975
0.020721
0.0211626
0.021746
0.021315
0.0197228
0.0168663
0.0112876
0.00296886
-0.00831155
-0.0220909
-0.0383386
-0.0539224
-0.0679867
-0.0708074
-0.0653291
-0.0574593
-0.0459308
-0.0326716
-0.0196534
-0.00807456
0.000618038
0.00707777
0.0114591
0.014138
0.015792
0.0168847
0.017582
0.0180224
0.0182881
0.0184345
0.0184986
0.0184374
0.0188315
0.0188512
0.0188869
0.018939
0.0190222
0.0191445
0.0193209
0.0195393
0.0198207
0.0199701
0.019883
0.0189824
0.0170069
0.0136178
0.00808566
0.000194747
-0.0100095
-0.022186
-0.0358168
-0.0483509
-0.0590018
-0.0603856
-0.0549269
-0.0469941
-0.0357789
-0.0242447
-0.0132376
-0.0041399
0.00279909
0.00816207
0.0118391
0.0141462
0.0155963
0.0164992
0.0170689
0.017426
0.0176429
0.0177586
0.0178095
0.0177977
0.0181143
0.0181555
0.0181812
0.0181997
0.0182164
0.0182347
0.018252
0.0182495
0.0181932
0.0178862
0.0169907
0.0151721
0.0120252
0.00739298
0.00120984
-0.00644231
-0.0153805
-0.0249623
-0.0340347
-0.0407412
-0.0432979
-0.0414013
-0.0360795
-0.0289213
-0.0202873
-0.0118737
-0.00424899
0.00203871
0.00720137
0.0110077
0.0134073
0.0149181
0.0158475
0.0164319
0.0167981
0.0170244
0.0171564
0.0172304
0.0172743
0.0173144
0.0172985
0.0172897
0.0172518
0.0172008
0.0171318
0.0170313
0.0168599
0.0165537
0.0160145
0.0150649
0.013353
0.0106308
0.00667697
0.00136891
-0.00525512
-0.0126699
-0.0205251
-0.027786
-0.0329546
-0.0347795
-0.033098
-0.0285431
-0.022407
-0.0153218
-0.0080818
-0.00144927
0.0041357
0.00853454
0.0118382
0.0139236
0.0151807
0.0159093
0.016342
0.0166161
0.0167885
0.0168979
0.0169642
0.0170038
0.0170266
0.0170374
0.0164674
0.0163898
0.0163137
0.0162206
0.016087
0.0158716
0.0155151
0.0149035
0.0138706
0.0121631
0.00950969
0.00575289
0.000959551
-0.00494132
-0.0118414
-0.0191783
-0.0262799
-0.0320782
-0.0348385
-0.0337875
-0.0310381
-0.0251341
-0.0173942
-0.00908006
-0.0011389
0.00537396
0.0102811
0.0135542
0.0154239
0.0162817
0.0166727
0.0167861
0.0168156
0.0168137
0.016808
0.0168013
0.0167981
0.0167933
0.016782
0.0167615
0.0157424
0.0156808
0.0156086
0.0154934
0.0152955
0.0149626
0.0144296
0.0135659
0.0121596
0.00984587
0.00623604
0.00113233
-0.00544756
-0.013138
-0.0213481
-0.0293055
-0.0362625
-0.0412564
-0.043189
-0.0403704
-0.0343082
-0.0258543
-0.0158146
-0.00583499
0.00283428
0.0093617
0.0139047
0.0164599
0.0177079
0.0179572
0.0176831
0.0173404
0.0170252
0.0167849
0.0166134
0.0164931
0.0164158
0.016371
0.0163517
0.0163669
0.0151633
0.0151895
0.0151261
0.0149825
0.014722
0.0142984
0.013641
0.0126286
0.0110017
0.00843471
0.00440271
-0.00143435
-0.00925488
-0.0185554
-0.0284298
-0.0375802
-0.0453825
-0.0504876
-0.0524301
-0.0483615
-0.0376342
-0.0258464
-0.0136107
-0.00274784
0.00561925
0.011668
0.0156011
0.0174938
0.01847
0.0185194
0.0178758
0.017373
0.0168643
0.0165071
0.0162392
0.016056
0.0159423
0.0158909
0.0158874
0.0159374
0.0146195
0.0146735
0.0146193
0.0144885
0.0142351
0.013828
0.0131823
0.0122316
0.0106658
0.00825292
0.0045606
-0.000581653
-0.00747359
-0.0162128
-0.025917
-0.0352023
-0.0437395
-0.0490788
-0.0511144
-0.0471506
-0.036425
-0.0245077
-0.0126707
-0.00264728
0.00509008
0.0107262
0.0144009
0.0163064
0.0172804
0.0174691
0.0171299
0.0167707
0.0163546
0.0160439
0.0157991
0.0156365
0.0155345
0.0154867
0.0154716
0.0154874
0.0141144
0.0141052
0.0140666
0.0139808
0.0138177
0.0135424
0.0130941
0.0123733
0.0112218
0.00940984
0.00664392
0.00279735
-0.00208633
-0.00839647
-0.0157144
-0.0231803
-0.030329
-0.0354094
-0.0381093
-0.037001
-0.0317533
-0.0237019
-0.0150563
-0.00724729
-0.000369751
0.00522757
0.00939613
0.0122121
0.0140165
0.0150181
0.0154196
0.0154801
0.0153751
0.0152493
0.0151461
0.0150762
0.0150245
0.0149858
0.0149503
0.0149198
0.0137883
0.013757
0.0137285
0.0136871
0.0136096
0.0134748
0.0132504
0.0128844
0.0122778
0.0112821
0.00964021
0.00714744
0.00394441
-6.1165e-05
-0.00492978
-0.0102881
-0.015803
-0.0206398
-0.0245913
-0.026897
-0.0265683
-0.0235
-0.0187831
-0.0130902
-0.00707033
-0.00161139
0.00317504
0.00696462
0.00980349
0.011752
0.0129304
0.01355
0.0138539
0.0140241
0.0141189
0.0141768
0.0142174
0.014242
0.0142486
0.0142257
0.0136014
0.0136104
0.0136121
0.0136099
0.0135978
0.0135764
0.0135312
0.0134566
0.0132953
0.012971
0.0123058
0.0111054
0.00915294
0.00634815
0.00256866
-0.00214863
-0.00759884
-0.012923
-0.0180035
-0.0220388
-0.0236201
-0.0240256
-0.0221338
-0.018049
-0.0126213
-0.00725641
-0.00215509
0.00221445
0.00565441
0.0082725
0.0101766
0.0114181
0.0121918
0.0126725
0.012962
0.0131412
0.0132633
0.0133544
0.0134245
0.0134697
0.0133493
0.0133701
0.0133983
0.0134373
0.0134898
0.0135683
0.0136802
0.0138338
0.0140061
0.0141834
0.0142514
0.0139428
0.012828
0.0107378
0.00734845
0.00262774
-0.00337135
-0.00996543
-0.0163957
-0.0217907
-0.0255516
-0.0282072
-0.027865
-0.0247638
-0.0197811
-0.0141724
-0.00839683
-0.00306672
0.00145125
0.0050725
0.00778565
0.00964829
0.0108398
0.0115703
0.0120164
0.0122913
0.012464
0.0125792
0.0126667
0.0127543
0.012985
0.0129633
0.0129851
0.0130418
0.0131452
0.0133038
0.013536
0.0138617
0.0142783
0.0147664
0.0152959
0.0154831
0.0149628
0.0137083
0.0110822
0.00690345
0.00106449
-0.00697309
-0.0155076
-0.0237556
-0.0308968
-0.0356992
-0.0360087
-0.032999
-0.0281545
-0.0218792
-0.0149894
-0.00821438
-0.00215013
0.00261666
0.00606147
0.00840122
0.00987816
0.0107768
0.0113523
0.0117238
0.0119525
0.0120839
0.0121554
0.0121864
0.0125969
0.0125581
0.0125633
0.0126121
0.0127236
0.0129059
0.0131719
0.0135284
0.0140122
0.0145325
0.0151797
0.0155074
0.0153337
0.0145762
0.0125538
0.00886984
0.00341098
-0.00462753
-0.0141314
-0.0237899
-0.0325943
-0.0389489
-0.0395201
-0.0360632
-0.0309776
-0.0240554
-0.0166238
-0.00932912
-0.00295669
0.00188217
0.00540495
0.00780348
0.00928441
0.0102778
0.010921
0.0113179
0.0115773
0.0117218
0.0117793
0.0117338
0.0121644
0.0121642
0.0121847
0.012229
0.0123106
0.0124387
0.0126281
0.01287
0.013168
0.0134252
0.0135976
0.0134648
0.012877
0.0116168
0.0093048
0.00567084
0.000661529
-0.00584126
-0.0136612
-0.021725
-0.0281362
-0.0325473
-0.0323371
-0.0286343
-0.023961
-0.0177585
-0.0114135
-0.00543694
-0.000519223
0.0032458
0.00608336
0.00802581
0.0092931
0.0101223
0.0106399
0.0109716
0.0111743
0.0112813
0.0113222
0.0112915
0.0116213
0.0116494
0.0116722
0.0116875
0.011701
0.0117165
0.0117332
0.0117309
0.0116702
0.0114167
0.0108254
0.00970921
0.00805691
0.00576962
0.0027527
-0.00103891
-0.00552185
-0.0101638
-0.014767
-0.0188268
-0.0211193
-0.0215455
-0.0194931
-0.0161716
-0.0121551
-0.00769232
-0.00340196
0.000406605
0.00346347
0.00594185
0.00778784
0.00897782
0.00976436
0.0102489
0.0105468
0.0107272
0.0108286
0.0108836
0.0109123
0.0109367
0.0109804
0.0109825
0.0109515
0.010896
0.0108133
0.0106945
0.0105146
0.0102155
0.00974263
0.00893687
0.00766826
0.00582382
0.00335425
0.000287262
-0.00331003
-0.00718546
-0.0111218
-0.0145777
-0.0163288
-0.0166947
-0.0160879
-0.0138449
-0.0106297
-0.00701537
-0.00330391
0.000237069
0.00320818
0.00558114
0.0073847
0.00875093
0.00962327
0.0101326
0.0104229
0.0105694
0.0106533
0.010703
0.0107262
0.0107357
0.0107436
0.0107585
0.010313
0.0102512
0.0101713
0.0100666
0.00992218
0.00970505
0.00936221
0.00880978
0.00794415
0.00664129
0.00479632
0.00236476
-0.000770414
-0.00456971
-0.00881728
-0.0129791
-0.0166412
-0.0190199
-0.0190678
-0.0169848
-0.0143775
-0.0108225
-0.00686913
-0.00264626
0.00148283
0.00502539
0.00764277
0.00937219
0.010422
0.0109354
0.0110536
0.0110444
0.0109633
0.0108728
0.0107956
0.0107445
0.010709
0.0106778
0.0106522
0.010626
0.00972387
0.00965424
0.00957284
0.00945632
0.00927794
0.00899353
0.00854117
0.00780559
0.00661866
0.00481905
0.00226503
-0.0011436
-0.00546135
-0.0104111
-0.0155516
-0.0201963
-0.0236489
-0.0253196
-0.0243334
-0.0201632
-0.0150228
-0.00968369
-0.00397577
0.00137601
0.00573065
0.00892963
0.011008
0.0120801
0.0124659
0.0122962
0.0119031
0.0115157
0.0111756
0.010915
0.0107209
0.0105819
0.0104922
0.0104329
0.0103971
0.0103813
0.00927638
0.00927397
0.00921581
0.00909392
0.00888048
0.00853724
0.00800065
0.00715675
0.00580761
0.00368228
0.000633648
-0.00354269
-0.00882875
-0.0146841
-0.0205173
-0.0256674
-0.0291964
-0.0307423
-0.0290423
-0.0232216
-0.015948
-0.00847854
-0.00106126
0.00517911
0.00936087
0.0119787
0.0132786
0.0136303
0.0133983
0.012701
0.0120872
0.0115022
0.0110229
0.0106637
0.0104017
0.010217
0.0100998
0.0100377
0.010019
0.0100502
0.00890022
0.00894267
0.00890225
0.00878936
0.00858399
0.00823832
0.00771485
0.00690087
0.00562689
0.00365411
0.000887545
-0.00292544
-0.007844
-0.013379
-0.0189648
-0.0240023
-0.0276524
-0.0291052
-0.027752
-0.022074
-0.0152528
-0.00785809
-0.000821793
0.00487626
0.00867776
0.0111411
0.0123556
0.0127311
0.0125286
0.0119885
0.0114998
0.0109942
0.0105681
0.0102381
0.00998941
0.00982959
0.00972984
0.00968397
0.00967537
0.00970182
0.00853676
0.0085511
0.00852318
0.00845519
0.00832147
0.00809166
0.00771541
0.00711843
0.00619742
0.00480159
0.00284429
0.000246248
-0.003091
-0.00700682
-0.0111288
-0.0150007
-0.01803
-0.0198713
-0.0200691
-0.0175126
-0.0135942
-0.00884931
-0.00418304
-7.40106e-05
0.00325812
0.00586027
0.00766115
0.00885327
0.00954089
0.00987541
0.0099899
0.0098956
0.00975067
0.00960444
0.00948829
0.00941056
0.00935866
0.00932736
0.0093062
0.00929435
0.00827664
0.00825685
0.00824262
0.00822463
0.00818403
0.00810395
0.00795645
0.00769787
0.00726088
0.00656371
0.00548125
0.00408485
0.00230482
8.21488e-05
-0.00248232
-0.00523537
-0.00776002
-0.0101881
-0.0119954
-0.0123583
-0.0118034
-0.0103999
-0.0084509
-0.00589072
-0.00303822
-0.000327107
0.00205642
0.00408058
0.00571592
0.00695191
0.00776261
0.00823276
0.00849085
0.00862169
0.00870253
0.00875401
0.00878542
0.00880148
0.00879955
0.00877865
0.00814209
0.0081469
0.00816133
0.00818514
0.00821313
0.00824865
0.00828912
0.00831338
0.00827937
0.00814736
0.00781993
0.00724416
0.00631309
0.00492881
0.00302991
0.000532408
-0.00203496
-0.00482483
-0.00726051
-0.0093381
-0.0109781
-0.0121493
-0.0121725
-0.0107069
-0.00823536
-0.00531503
-0.00240663
0.00023773
0.00247362
0.00421301
0.00551891
0.00644716
0.0070812
0.00748481
0.0077494
0.0079221
0.00803901
0.0081217
0.00817422
0.00819675
0.00799382
0.00802654
0.00806767
0.00812389
0.00820096
0.00831297
0.00846692
0.00867073
0.00891385
0.00917654
0.00938515
0.00939748
0.0090385
0.00817124
0.00666056
0.00435488
0.00148944
-0.00170605
-0.00497644
-0.00863745
-0.0121796
-0.0153509
-0.0167418
-0.0161451
-0.0139594
-0.0106955
-0.00707602
-0.00353639
-0.000488958
0.00190305