/*--------------------------------*- C++ -*----------------------------------*\
| =========                 |                                                 |
| \\      /  F ield         | OpenFOAM: The Open Source CFD Toolbox           |
|  \\    /   O peration     | Version:  v2106                                 |
|   \\  /    A nd           | Website:  www.openfoam.com                      |
|    \\/     M anipulation  |                                                 |
\*---------------------------------------------------------------------------*/
FoamFile
{
    version     2.0;
    format      ascii;
    arch        "LSB;label=32;scalar=64";
    class       volScalarField;
    location    "0";
    object      p;
}
// * * * * * * * * * * * * * * * * * * * * * * * * * * * * * * * * * * * * * //

dimensions      [0 2 -2 0 0 0 0];

internalField   nonuniform List<scalar> 
11644
(
0.0727006
0.0730701
0.0738491
0.0750469
0.0766515
0.0786563
0.0810549
0.0838348
0.0869725
0.0904281
0.094137
0.0980106
0.101928
0.105705
0.109157
0.112061
0.114088
0.115117
0.11511
0.113817
0.111145
0.107202
0.102214
0.0963912
0.0899416
0.0831534
0.0763102
0.0695988
0.0632023
0.0572476
0.0518198
0.046974
0.0427269
0.0390781
0.0360142
0.0335123
0.0315468
0.0301025
0.0291738
0.0287369
0.0720864
0.0724559
0.0732172
0.0743843
0.0759645
0.0779605
0.0803683
0.0831803
0.0863814
0.0899413
0.0938072
0.0978928
0.102073
0.106162
0.109952
0.113164
0.115543
0.116919
0.11713
0.115924
0.113206
0.109032
0.103636
0.0973215
0.090401
0.083173
0.0759146
0.0688969
0.06228
0.0561919
0.0507034
0.0458464
0.0416252
0.0380262
0.0350252
0.0325916
0.0306991
0.0293215
0.0284328
0.0280028
0.070634
0.0710255
0.0717983
0.0729584
0.0745262
0.0765179
0.0789471
0.0818215
0.0851422
0.0888977
0.0930574
0.0975503
0.102259
0.107017
0.111565
0.115648
0.118972
0.121155
0.121825
0.120735
0.117876
0.113262
0.10704
0.0995983
0.0915117
0.0832459
0.0751369
0.0674396
0.0603686
0.0540207
0.0484246
0.0435645
0.0394089
0.0359133
0.0330302
0.0307132
0.0289212
0.0276117
0.0267459
0.0263068
0.0683963
0.0687937
0.0695701
0.0707295
0.0722915
0.0742834
0.0767361
0.0796812
0.0831482
0.0871593
0.0917111
0.0967725
0.102272
0.108012
0.113822
0.119383
0.124208
0.127813
0.129536
0.128913
0.125745
0.120126
0.112391
0.103108
0.093244
0.0832793
0.0737281
0.0650385
0.0573123
0.0506111
0.0448983
0.0400785
0.03605
0.0327222
0.0300143
0.0278584
0.0261946
0.0249723
0.0241564
0.0237425
0.0654276
0.065805
0.0665549
0.0676823
0.0692118
0.0711778
0.0736251
0.0766094
0.0801913
0.0844351
0.0893891
0.0950775
0.101482
0.108624
0.116257
0.124044
0.13134
0.137406
0.140975
0.141288
0.137721
0.130497
0.120215
0.107896
0.0954056
0.0829062
0.07134
0.0612227
0.052713
0.0456764
0.039926
0.0352543
0.0314655
0.0284069
0.0259617
0.0240373
0.0225619
0.0214848
0.0207723
0.0204134
0.0617556
0.0620971
0.0627807
0.0638207
0.0652506
0.067113
0.0694689
0.0723955
0.0759826
0.0803245
0.0855091
0.0916456
0.0989691
0.107566
0.117646
0.128666
0.139929
0.150294
0.157485
0.15982
0.155753
0.145546
0.130937
0.113895
0.0973003
0.0809636
0.0668112
0.0553343
0.0460389
0.0387993
0.0332146
0.0288996
0.0255486
0.0229307
0.0208867
0.0193068
0.018115
0.0172586
0.0167043
0.0164311
0.0574168
0.0577035
0.0582784
0.059171
0.0604075
0.0620439
0.0641536
0.0668349
0.0701909
0.0743037
0.0792985
0.0855041
0.093264
0.103494
0.116628
0.131955
0.142988
0.159789
0.173242
0.180554
0.178345
0.166529
0.147537
0.125759
0.0966727
0.0756636
0.0586984
0.0458608
0.0365188
0.0295558
0.0244918
0.0208602
0.0182365
0.016301
0.0148526
0.0137727
0.0129866
0.0124382
0.0120903
0.011919
0.0525033
0.0527018
0.0531226
0.0537745
0.0547052
0.0559624
0.0576197
0.0597718
0.0624959
0.0658546
0.0700684
0.0756309
0.0833391
0.0931213
0.107189
0.126168
0.15144
0.178065
0.204141
0.220698
0.219722
0.199913
0.167118
0.131266
0.0966871
0.0717561
0.0524719
0.0314559
0.0229372
0.0173061
0.013533
0.0110972
0.00958177
0.00862792
0.00800928
0.00760251
0.00733899
0.00717637
0.00708132
0.00703759
0.0470842
0.0471999
0.0474194
0.0477662
0.0482729
0.0489734
0.0499312
0.051197
0.0528083
0.0548317
0.0575325
0.0613453
0.067022
0.0791479
0.0936237
0.115179
0.143625
0.187403
0.233934
0.273692
0.281716
0.249235
0.193428
0.132931
0.0886226
0.0495481
0.0301767
0.00919959
0.00449556
0.00175256
0.00029742
-0.000233135
-0.000168423
0.00018405
0.000618618
0.00104323
0.00140786
0.00169398
0.00188959
0.00199534
0.041392
0.0413761
0.041345
0.0413179
0.0412831
0.0412712
0.0412983
0.0413513
0.0414176
0.0415462
0.0418749
0.0425169
0.0437052
0.0536534
0.0623626
0.0829306
0.115514
0.171275
0.258697
0.359672
0.397955
0.324983
0.203525
0.107549
0.0422591
0.00266087
-0.0078419
-0.0208121
-0.0189888
-0.0170436
-0.0148862
-0.0126661
-0.0105336
-0.00858998
-0.00692099
-0.00555617
-0.00449253
-0.00371618
-0.00320382
-0.00296963
0.0356342
0.0354806
0.035178
0.034701
0.0340477
0.0332093
0.0321508
0.0308018
0.0290273
0.0267318
0.0238497
0.0200352
0.0148854
0.0170051
0.0141075
0.0189458
0.0317143
0.0629812
0.168007
0.411995
0.594278
0.346171
0.0800213
-0.0325222
-0.0664306
-0.0719277
-0.0611686
-0.0563761
-0.0461163
-0.0377284
-0.030857
-0.0252914
-0.0207726
-0.017068
-0.0140905
-0.0117754
-0.0100201
-0.00874908
-0.00792625
-0.007497
0.0300132
0.0297188
0.0291404
0.0282445
0.0269885
0.0253002
0.0231278
0.0203339
0.0166739
0.0118001
0.00530887
-0.00348757
-0.0156431
-0.0208439
-0.0424919
-0.0633922
-0.10331
-0.1888
-0.414097
-0.645057
-0.345204
-0.22337
-0.16172
-0.119563
-0.0930695
-0.0726173
-0.0571768
-0.0455651
-0.0367027
-0.0298421
-0.0244725
-0.020298
-0.017116
-0.0147374
-0.013031
-0.0119371
-0.0114
0.024807
0.0244148
0.0235669
0.0222923
0.0205063
0.0180933
0.0149565
0.0109062
0.00566355
-0.00123343
-0.0104611
-0.0229149
-0.0398129
-0.0523328
-0.0863981
-0.126313
-0.19897
-0.334589
-0.464224
-0.811587
-0.546086
-0.336889
-0.228718
-0.166105
-0.119171
-0.0918529
-0.0714022
-0.0564073
-0.0451097
-0.036516
-0.0299455
-0.0249229
-0.0211112
-0.0182757
-0.0162824
-0.014999
-0.0144292
0.020254
0.0197617
0.018783
0.0172568
0.0151133
0.0122081
0.00838769
0.00348633
-0.00274802
-0.0107331
-0.0210735
-0.0346446
-0.05245
-0.0686795
-0.101228
-0.142133
-0.209486
-0.317864
-0.376509
-0.599767
-0.510785
-0.359982
-0.24916
-0.183651
-0.128064
-0.0990776
-0.077281
-0.061177
-0.0489989
-0.0397635
-0.0327737
-0.0274302
-0.0233609
-0.0203445
-0.0182143
-0.0168453
-0.0161271
0.0166069
0.016091
0.0150699
0.0134582
0.0111491
0.00802096
0.00387698
-0.00137761
-0.00787118
-0.0158993
-0.0258635
-0.038249
-0.0533899
-0.0685546
-0.0917841
-0.119799
-0.157664
-0.209776
-0.299394
-0.453319
-0.646945
-0.672986
-0.623911
-0.489461
-0.338538
-0.231296
-0.172258
-0.118716
-0.0933105
-0.073853
-0.0590375
-0.047725
-0.0390978
-0.0325756
-0.0275098
-0.0235767
-0.0206472
-0.0185441
-0.0171852
-0.016549
0.0139757
0.0136503
0.0126378
0.0110005
0.00868746
0.00562217
0.00156149
-0.00355465
-0.00968125
-0.0170326
-0.0257719
-0.0361229
-0.0477629
-0.0602211
-0.0747393
-0.0864163
-0.0858547
-0.0555645
-0.167604
-0.520288
-0.84978
-0.843576
-0.644533
-0.40799
-0.275513
-0.183062
-0.138567
-0.0941144
-0.0757695
-0.0614012
-0.0502484
-0.0414896
-0.0346344
-0.02934
-0.0251892
-0.0218577
-0.0193301
-0.0175062
-0.0163145
-0.0158069
0.0126254
0.0121879
0.0112694
0.00978764
0.00767162
0.00487603
0.00128497
-0.00323384
-0.00869219
-0.015182
-0.02282
-0.0318221
-0.0421399
-0.0548419
-0.0664086
-0.0805291
-0.085498
-0.0702415
-0.133672
-0.366287
-0.565818
-0.535828
-0.376724
-0.247553
-0.150981
-0.113763
-0.0711788
-0.0605611
-0.0508796
-0.0428942
-0.0365233
-0.0312973
-0.0270431
-0.0236299
-0.0207874
-0.0184417
-0.0165964
-0.0152359
-0.01433
-0.0138226
0.0122254
0.0117557
0.0109036
0.0096355
0.00786249
0.00552496
0.00255706
-0.00119532
-0.00582988
-0.0114966
-0.0183273
-0.026892
-0.0375138
-0.0520749
-0.069076
-0.101891
-0.142669
-0.2064
-0.250693
-0.309637
-0.316089
-0.238109
-0.155366
-0.0956274
-0.0503325
-0.0413201
-0.0265335
-0.0261157
-0.0247002
-0.0229845
-0.0212577
-0.0194386
-0.0178107
-0.0162868
-0.01479
-0.0135199
-0.0124874
-0.0116873
-0.0111447
-0.0107294
0.0126238
0.0122555
0.0115329
0.0104817
0.00906488
0.00723475
0.00492646
0.00197336
-0.0017429
-0.00642575
-0.0123436
-0.020259
-0.0309679
-0.0468521
-0.068323
-0.10819
-0.171201
-0.287179
-0.39186
-0.431737
-0.371205
-0.219332
-0.0716778
-0.000163454
0.0218718
0.0155839
0.00969825
0.00395986
-0.00146163
-0.00494211
-0.00697645
-0.00800434
-0.00844687
-0.00843969
-0.0081981
-0.00790189
-0.00758614
-0.00728876
-0.00707468
-0.00697503
0.0136074
0.0133528
0.0128565
0.0121179
0.0111115
0.00981196
0.00818187
0.00608991
0.00344053
2.82244e-05
-0.00433817
-0.0104563
-0.0190447
-0.0319734
-0.0519965
-0.0823072
-0.135255
-0.231346
-0.344805
-0.409556
-0.373003
-0.22557
-0.0631107
0.0258041
0.0579533
0.049218
0.0358567
0.0261749
0.0159587
0.00949219
0.00494638
0.00187292
-9.69683e-05
-0.00130369
-0.00206679
-0.00250326
-0.00273359
-0.00283569
-0.00289131
-0.00296388
0.0150197
0.0148752
0.0146172
0.0142176
0.0136555
0.0129232
0.012006
0.0108456
0.00943033
0.00761826
0.00529817
0.001748
-0.00325406
-0.0113508
-0.0270662
-0.0448815
-0.076938
-0.123981
-0.188414
-0.24119
-0.240469
-0.170018
-0.0689108
0.0100932
0.0529517
0.0562355
0.0446745
0.035171
0.0251782
0.0183631
0.013039
0.00912118
0.00637317
0.00446415
0.00314627
0.00224266
0.00164001
0.00123301
0.000962818
0.000824315
0.0166875
0.0166734
0.0166027
0.0164704
0.0162896
0.0160862
0.0158943
0.0157227
0.0155774
0.0153378
0.0148722
0.0139529
0.0113045
0.00751362
-0.000829629
-0.0163612
-0.0323991
-0.0547366
-0.0860663
-0.116639
-0.130263
-0.119304
-0.0740953
-0.0172192
0.0180539
0.0287474
0.0387358
0.0320649
0.0259123
0.0209831
0.0167127
0.0133062
0.0107099
0.00875687
0.00729089
0.00620641
0.0054178
0.00486096
0.00450117
0.00432341
0.0183459
0.0183979
0.018448
0.0185344
0.0186953
0.0189565
0.0193935
0.0200729
0.0209744
0.0220429
0.0230921
0.024135
0.0236354
0.0210303
0.0173362
0.00293664
-0.017009
-0.0494133
-0.0958822
-0.141024
-0.172196
-0.174607
-0.139076
-0.0905945
-0.0422011
0.00746965
0.0201764
0.0216218
0.0217858
0.0195162
0.0173991
0.015278
0.0133906
0.0117949
0.0104795
0.00945039
0.00866043
0.00809049
0.00772913
0.00755283
0.0198289
0.0198585
0.0200109
0.020294
0.0207484
0.0213792
0.0222587
0.0234834
0.025018
0.0269547
0.0290519
0.0312127
0.0323197
0.0312787
0.0253934
0.00809449
-0.0243158
-0.0749197
-0.143223
-0.212326
-0.264637
-0.256359
-0.199702
-0.135283
-0.0782651
-0.0257249
-0.000915022
0.0107062
0.0161898
0.0173118
0.0172385
0.0163551
0.0151835
0.0140533
0.0130342
0.0121787
0.0114869
0.0109692
0.0106297
0.0104726
0.0211877
0.0212144
0.0214484
0.0218549
0.0224754
0.0233338
0.0244596
0.025949
0.0278388
0.030284
0.0331327
0.0361336
0.0388171
0.0373404
0.0273447
0.00550836
-0.0309541
-0.0836488
-0.150566
-0.218101
-0.273114
-0.266865
-0.2128
-0.148381
-0.0889932
-0.0415907
-0.0110101
0.00542632
0.0131384
0.016336
0.0175372
0.017468
0.0168497
0.0160753
0.0152869
0.0145761
0.0139828
0.0135346
0.0132391
0.013099
0.0223293
0.0224361
0.022709
0.0231598
0.0238321
0.02477
0.02601
0.0276063
0.0296217
0.0322023
0.035371
0.038784
0.0410801
0.0380039
0.02519
0.00260041
-0.031975
-0.0788611
-0.130898
-0.177752
-0.209123
-0.201331
-0.162128
-0.114032
-0.0665483
-0.0292249
-0.00524086
0.0080935
0.0147097
0.0177591
0.0190072
0.0191061
0.0187162
0.0181106
0.0174333
0.0167826
0.016218
0.0157782
0.0154722
0.0153358
0.023064
0.023226
0.0235135
0.0239681
0.0246155
0.0254996
0.0266673
0.0281548
0.0299497
0.0320449
0.0343604
0.0364918
0.0363835
0.0311234
0.0187226
-0.0035237
-0.0354938
-0.074221
-0.109891
-0.132065
-0.135606
-0.122934
-0.0963351
-0.0621416
-0.0311796
-0.00614095
0.00800838
0.0153084
0.0191804
0.0208827
0.0213901
0.021171
0.0206568
0.0200234
0.0193453
0.0187009
0.0181366
0.0176816
0.0173502
0.0171712
0.0234009
0.0235448
0.0238044
0.0242057
0.0247535
0.0254605
0.0263312
0.0273652
0.0284825
0.0295113
0.0300373
0.0294358
0.0256298
0.0158882
0.000453727
-0.0205797
-0.0471557
-0.0758278
-0.0983988
-0.10507
-0.0973469
-0.0798468
-0.0549209
-0.0283512
-0.00617044
0.00867676
0.0170723
0.0218023
0.0238596
0.0243654
0.024044
0.0233144
0.0224987
0.0216794
0.0209141
0.0202411
0.0196865
0.0192553
0.0189483
0.0187153
0.02347
0.0235797
0.0237941
0.0240994
0.0244925
0.0249435
0.0253966
0.0257905
0.0259773
0.0257175
0.0243765
0.0209829
0.0134423
-0.00096743
-0.0226561
-0.0492283
-0.0778926
-0.102496
-0.11807
-0.118793
-0.108339
-0.0831264
-0.0521114
-0.0236158
-0.000522139
0.0132589
0.0214529
0.0257528
0.0271867
0.0271947
0.026381
0.0252251
0.0240952
0.0230558
0.0221658
0.0214247
0.0208377
0.0203916
0.0200862
0.0199276
0.0234161
0.0235201
0.0236732
0.0238622
0.0240709
0.0242482
0.0243268
0.0242178
0.0236337
0.0223305
0.0195087
0.0140383
0.00348335
-0.0147685
-0.0417688
-0.075675
-0.113429
-0.141362
-0.162297
-0.162969
-0.142451
-0.107458
-0.0660558
-0.0330543
-0.00571984
0.0121518
0.022898
0.0280514
0.0296728
0.0288916
0.0279023
0.0265447
0.0252191
0.0240456
0.0230618
0.0222554
0.0216219
0.0211634
0.0208847
0.020842
0.0233244
0.0234172
0.0234942
0.02357
0.0236275
0.0236154
0.0234549
0.0230179
0.0220259
0.0201498
0.0165799
0.0100266
-0.00207849
-0.0214518
-0.0496675
-0.0846511
-0.124611
-0.156409
-0.181183
-0.184243
-0.157517
-0.117784
-0.0729477
-0.0380279
-0.00983225
0.00985263
0.0222667
0.0286123
0.0306295
0.0297668
0.0286275
0.0271444
0.0258083
0.0246233
0.02365
0.0228563
0.0222509
0.0218342
0.0215963
0.0215458
0.0231562
0.0231977
0.023252
0.0232999
0.0233049
0.0232241
0.0229831
0.0224818
0.0214347
0.0195286
0.0160786
0.0100576
-0.000516299
-0.0170446
-0.0411343
-0.0702067
-0.104809
-0.134033
-0.157158
-0.162388
-0.138619
-0.107851
-0.0707038
-0.0387089
-0.0123892
0.00684374
0.0198012
0.0271469
0.0300484
0.0296828
0.0285496
0.0271059
0.0258876
0.024823
0.0239532
0.023242
0.0227084
0.0223372
0.0221008
0.0219648
0.022995
0.0230131
0.0230503
0.0230934
0.0231029
0.0230394
0.0228355
0.0224262
0.0216255
0.0202037
0.0177796
0.013604
0.00645821
-0.0053048
-0.0229109
-0.0445385
-0.0693454
-0.0928054
-0.110587
-0.117191
-0.10985
-0.092539
-0.0674036
-0.0409008
-0.0174387
0.00147961
0.0154739
0.0236612
0.0272264
0.027919
0.0272827
0.0263151
0.0253831
0.0245108
0.023783
0.0231825
0.0227228
0.0223832
0.0221503
0.0219892
0.0228735
0.0229129
0.0229373
0.0229656
0.0229812
0.0229629
0.0228665
0.0226542
0.0222477
0.0215085
0.0202017
0.0178262
0.0136637
0.00628124
-0.00532072
-0.0206989
-0.0386543
-0.05796
-0.0736104
-0.0832067
-0.0870885
-0.0809232
-0.0642319
-0.0431881
-0.0232257
-0.00628794
0.00691047
0.0160105
0.021317
0.0238667
0.0245422
0.0244727
0.0240633
0.0235279
0.0230276
0.0225824
0.0222202
0.0219448
0.0217643
0.0216684
0.022657
0.0226735
0.0227223
0.0227858
0.0228561
0.0229389
0.0230136
0.0230815
0.0231016
0.0230022
0.0224128
0.0212809
0.0186768
0.0137368
0.00521997
-0.00783742
-0.0245613
-0.0441426
-0.0622955
-0.0759683
-0.0822008
-0.0809411
-0.0699326
-0.0537904
-0.0373809
-0.0207958
-0.00615361
0.00562888
0.0139298
0.018642
0.0209191
0.0218862
0.0221568
0.0221151
0.0219513
0.0217288
0.0215103
0.0213344
0.0212185
0.0212025
0.0223478
0.0223155
0.0223626
0.0224649
0.0226162
0.0228263
0.0230869
0.0234421
0.0238349
0.0242096
0.0243712
0.0237985
0.0215623
0.0166695
0.00739947
-0.00642058
-0.0256809
-0.0475389
-0.071913
-0.0919161
-0.101733
-0.101718
-0.0915059
-0.0770427
-0.0586468
-0.0382634
-0.0187743
-0.00347214
0.00739588
0.0138478
0.0174171
0.0193089
0.0202476
0.0207072
0.0209051
0.0209325
0.0208806
0.0208068
0.0207429
0.0207125
0.022012
0.0219811
0.0220189
0.0221308
0.022325
0.0226101
0.0229802
0.0234702
0.024051
0.0245969
0.0252106
0.0247323
0.0221125
0.016673
0.00662111
-0.0080687
-0.0284745
-0.0523796
-0.0819137
-0.108426
-0.124509
-0.124293
-0.110986
-0.0947316
-0.0712155
-0.0476516
-0.0258499
-0.0089078
0.00300905
0.0104882
0.014847
0.0173556
0.0187825
0.0195443
0.0199806
0.0201939
0.020287
0.0203022
0.0202857
0.0202059
0.0215668
0.0215846
0.0216541
0.021782
0.0219814
0.02226
0.0226225
0.023096
0.0237073
0.0242273
0.0246828
0.0238074
0.0207938
0.0151515
0.00526525
-0.00903703
-0.0286159
-0.0519363
-0.079964
-0.104055
-0.124346
-0.122396
-0.107471
-0.0900827
-0.066296
-0.0438276
-0.0242039
-0.00878008
0.00239236
0.00956748
0.0139274
0.0164317
0.0179058
0.0187535
0.0192256
0.0194929
0.0196393
0.019692
0.0196902
0.0196256
0.0209397
0.0210108
0.0210979
0.0212197
0.0213858
0.0216163
0.0218987
0.0222557
0.0226928
0.0230167
0.0229472
0.0215386
0.017681
0.0108768
0.000621606
-0.0128375
-0.0302031
-0.0502202
-0.0708883
-0.0872179
-0.0992537
-0.0960053
-0.0833332
-0.0676867
-0.0485891
-0.0307338
-0.0153101
-0.00315357
0.00553673
0.0110652
0.0144559
0.0164501
0.0176345
0.0183232
0.0187194
0.0189408
0.0190493
0.019081
0.019087
0.0190785
0.0201498
0.0202053
0.0202607
0.0203381
0.0204431
0.0205777
0.0207231
0.0208451
0.0208481
0.0205947
0.0196079
0.0171934
0.0126066
0.00507265
-0.00539049
-0.0183516
-0.0335101
-0.0494953
-0.0635309
-0.0709888
-0.0713662
-0.0664143
-0.055814
-0.0423365
-0.0280798
-0.014891
-0.004065
0.00449691
0.0102229
0.0137267
0.0157937
0.0169913
0.0177341
0.0181736
0.0184318
0.0185786
0.0186514
0.0186831
0.0187003
0.0187049
0.0192368
0.019215
0.0192224
0.0192446
0.0192664
0.0192676
0.0192034
0.0189709
0.0184112
0.0172676
0.0149412
0.0109513
0.00495274
-0.00317857
-0.0135904
-0.0255331
-0.0386023
-0.0512822
-0.0601761
-0.0617885
-0.05824
-0.0507577
-0.0393266
-0.0260831
-0.0134381
-0.00268297
0.00553274
0.0111008
0.0143932
0.0162051
0.0172389
0.0177496
0.0180427
0.0182145
0.0183096
0.0183571
0.0183839
0.0183937
0.0183918
0.018382
0.0183272
0.018275
0.0182513
0.0182131
0.0181355
0.0179694
0.0176325
0.0170279
0.0159141
0.0139092
0.0103503
0.00453619
-0.00393665
-0.0145685
-0.0269573
-0.0394147
-0.0515636
-0.0620759
-0.0679366
-0.067263
-0.0627564
-0.0513532
-0.036785
-0.0216475
-0.00804304
0.00269558
0.01061
0.0151103
0.017394
0.0183332
0.0185667
0.018501
0.0183768
0.0182502
0.0181575
0.0180821
0.0180292
0.0179908
0.017969
0.0179866
0.0175242
0.0175319
0.017491
0.0173942
0.0172038
0.0168819
0.0163154
0.0153802
0.0138607
0.0112037
0.00688324
-0.000231533
-0.0106353
-0.0240329
-0.0395873
-0.054607
-0.068529
-0.0786849
-0.0861585
-0.0852926
-0.0747993
-0.0585402
-0.0387947
-0.0220556
-0.00715613
0.00398962
0.0120704
0.0165812
0.0189127
0.0195217
0.0192892
0.018887
0.0184492
0.0181296
0.0178682
0.0176944
0.0175836
0.0175278
0.0175208
0.0175624
0.01676
0.0168232
0.0167749
0.0166438
0.0163929
0.015986
0.0153161
0.0142514
0.0125718
0.00979357
0.00510116
-0.00211734
-0.0124304
-0.0260165
-0.0422245
-0.0587539
-0.0744933
-0.085807
-0.0948229
-0.0939119
-0.0793713
-0.0607346
-0.0393085
-0.0219118
-0.00688551
0.00422161
0.0120216
0.0163505
0.0186709
0.0194552
0.0191006
0.0186598
0.0182101
0.0178197
0.0175162
0.0173004
0.0171599
0.0170861
0.0170633
0.017085
0.0159929
0.0160152
0.015971
0.0158617
0.0156461
0.0152812
0.0146969
0.0137678
0.0122791
0.00981324
0.00575278
-0.000296644
-0.00892458
-0.0201662
-0.0341355
-0.0487906
-0.0634892
-0.0744934
-0.0831365
-0.0833102
-0.0710995
-0.0558629
-0.0382858
-0.0225132
-0.00882621
0.00161159
0.00917513
0.0138205
0.0166346
0.0179136
0.0181168
0.0178652
0.0175001
0.0171889
0.0169507
0.0167721
0.016645
0.0165569
0.0165015
0.0164751
0.0153614
0.0153323
0.0152853
0.015204
0.0150545
0.0148025
0.0144001
0.0137456
0.0127161
0.011039
0.00826457
0.00391178
-0.00241534
-0.010604
-0.0206708
-0.0318407
-0.043233
-0.0528957
-0.060437
-0.0629571
-0.05909
-0.050318
-0.038227
-0.0256615
-0.0140989
-0.00439299
0.00346265
0.0092338
0.0131662
0.0151891
0.0160915
0.0162628
0.0162158
0.0161212
0.0160223
0.0159349
0.0158725
0.0158236
0.0157821
0.0157305
0.0149239
0.0149059
0.0148669
0.0148017
0.0147057
0.0145622
0.0143396
0.0139974
0.0134541
0.0125775
0.0110532
0.00852157
0.00450223
-0.000981982
-0.00801463
-0.0165242
-0.0260217
-0.0352629
-0.0429715
-0.0477188
-0.0496014
-0.0470423
-0.0396924
-0.0299962
-0.0198672
-0.0106256
-0.00256977
0.00368231
0.00823054
0.0112285
0.0130656
0.0140013
0.0144805
0.0147087
0.0148004
0.014837
0.0148531
0.0148633
0.0148718
0.01487
0.014509
0.0145033
0.0144991
0.0144868
0.0144654
0.014438
0.0143956
0.014343
0.0142246
0.0139939
0.0133791
0.0122253
0.00990693
0.00594302
-5.47397e-05
-0.00804439
-0.0177788
-0.0280989
-0.0374494
-0.0441972
-0.0477459
-0.0487126
-0.0447849
-0.0371567
-0.0281483
-0.0191501
-0.0106716
-0.00352853
0.00237643
0.00682018
0.00981901
0.0116102
0.0126387
0.0131999
0.0135135
0.0136883
0.0137829
0.0138386
0.0138856
0.0139553
0.0140425
0.0140144
0.0140185
0.014044
0.0140917
0.014174
0.0143014
0.0144846
0.0147048
0.0149102
0.014943
0.0143205
0.012444
0.00896148
0.00315282
-0.00495588
-0.0155144
-0.0273243
-0.03971
-0.0497886
-0.0562986
-0.058892
-0.0557119
-0.0490197
-0.0402606
-0.0304634
-0.0203031
-0.0108669
-0.00278274
0.00310249
0.00708162
0.00954428
0.0110095
0.0118807
0.0124135
0.0127301
0.0129129
0.0130132
0.0130767
0.0131244
0.013561
0.0135159
0.0135085
0.0135433
0.0136294
0.0137789
0.0140068
0.0143163
0.0147079
0.0151071
0.0154189
0.014934
0.0132215
0.0101712
0.00472899
-0.00320466
-0.0138593
-0.0267305
-0.0414431
-0.0549856
-0.0660276
-0.0695272
-0.0657723
-0.058845
-0.0489242
-0.0376115
-0.0257327
-0.0147232
-0.00577425
0.000802266
0.00529424
0.00806949
0.00981484
0.0108987
0.0115826
0.0119906
0.0122503
0.0123935
0.0124549
0.0124252
0.0129936
0.0129753
0.012996
0.0130527
0.0131549
0.0133107
0.0135313
0.0138261
0.0141788
0.014452
0.0145521
0.0139875
0.0123365
0.00939012
0.00421632
-0.00330012
-0.0131398
-0.0253233
-0.039322
-0.0526327
-0.0647338
-0.0678319
-0.0638765
-0.0567461
-0.0463133
-0.0348798
-0.0234698
-0.0133061
-0.00535476
0.000680666
0.00487037
0.00753781
0.00922407
0.010267
0.0109346
0.0113446
0.011608
0.0117472
0.0117981
0.0117487
0.0123265
0.0123539
0.0123883
0.0124311
0.0124927
0.0125783
0.0126927
0.0128406
0.0129695
0.0129002
0.0123696
0.0110063
0.00852834
0.00496747
-0.000328344
-0.00731513
-0.0158594
-0.0256838
-0.0363564
-0.0460079
-0.0525808
-0.0533431
-0.0494512
-0.0428534
-0.033956
-0.0246771
-0.0156981
-0.00800516
-0.00193045
0.00269595
0.00585564
0.00789907
0.0091733
0.00996897
0.0104692
0.0107819
0.0109675
0.0110649
0.0111111
0.0111172
0.0115703
0.0115975
0.011595
0.0115807
0.0115566
0.011521
0.0114477
0.0113107
0.0110302
0.010399
0.00908835
0.0068857
0.00346364
-0.0010668
-0.00688007
-0.0137234
-0.0212413
-0.0286791
-0.0349501
-0.0393428
-0.0401711
-0.0377316
-0.0329417
-0.0267067
-0.019677
-0.0127982
-0.00661182
-0.00150858
0.00256465
0.00555231
0.00753427
0.00873258
0.00946524
0.00992641
0.0102222
0.0104074
0.0105242
0.0105931
0.0106387
0.0106726
0.0107212
0.0106862
0.0106347
0.010564
0.0104626
0.0103072
0.010043
0.00956619
0.00876895
0.00740621
0.00523086
0.00215442
-0.00202695
-0.00731415
-0.0137003
-0.0206721
-0.0276205
-0.0334141
-0.03631
-0.0360374
-0.0339718
-0.0295537
-0.0234562
-0.0166504
-0.00987489
-0.00390252
0.00086275
0.00435812
0.0067778
0.00826623
0.00918308
0.00964866
0.00991525
0.0100738
0.0101834
0.0102516
0.0103002
0.0103332
0.010354
0.0103605
0.00988717
0.00980536
0.00972663
0.0096196
0.00945443
0.00918104
0.00874369
0.00799628
0.00674089
0.00468115
0.00154012
-0.002848
-0.00850043
-0.0149987
-0.0222464
-0.0295416
-0.0359029
-0.0407945
-0.0422742
-0.0393778
-0.0351359
-0.0289263
-0.0210105
-0.0126851
-0.00534699
0.00065478
0.00508602
0.00796171
0.00963672
0.0102681
0.0104203
0.0103727
0.0102663
0.0101793
0.0101156
0.0100717
0.0100434
0.010023
0.0100081
0.010017
0.00918896
0.00915882
0.00908195
0.00894325
0.00871546
0.00834069
0.00774181
0.00676939
0.00520608
0.00261866
-0.00119859
-0.00664641
-0.0139582
-0.0222182
-0.0307997
-0.0390031
-0.0456382
-0.0506159
-0.0519788
-0.0472989
-0.0393676
-0.0302087
-0.0197435
-0.00984365
-0.00234255
0.00347154
0.00737337
0.00957106
0.0109215
0.0112087
0.0109362
0.0106191
0.0102866
0.0100219
0.00982758
0.00970127
0.00963105
0.00960182
0.00959957
0.00962676
0.00860888
0.00864741
0.00858529
0.00843608
0.00816977
0.00773953
0.00706708
0.00599693
0.0043525
0.00164954
-0.00236731
-0.00787852
-0.01532
-0.0241045
-0.0333219
-0.0421784
-0.0493744
-0.054589
-0.0558366
-0.0505626
-0.0404994
-0.0296241
-0.0182576
-0.00805113
-0.000843664
0.00468561
0.00813055
0.00997698
0.0109629
0.011103
0.0107484
0.0103937
0.00999536
0.00968364
0.00944078
0.00928832
0.00919964
0.0091619
0.00916196
0.00919572
0.00804899
0.00808101
0.00803376
0.00790917
0.0076822
0.00730944
0.00672596
0.00579553
0.00435356
0.00209622
-0.00133563
-0.00595695
-0.0119551
-0.0193408
-0.0273784
-0.0354574
-0.0420152
-0.0472108
-0.0486858
-0.0447956
-0.0373001
-0.0277616
-0.0179396
-0.00986068
-0.00317311
0.00204588
0.00557027
0.00777759
0.00902486
0.00959013
0.00969237
0.00958017
0.00932991
0.0091107
0.00893577
0.00881767
0.00874172
0.00869397
0.00866945
0.00867429
0.00757657
0.00755768
0.00751392
0.00743061
0.0072839
0.00704326
0.00665868
0.00604201
0.00507204
0.00358253
0.00124215
-0.00199111
-0.00610691
-0.0112
-0.016968
-0.0229723
-0.0284049
-0.0329524
-0.035681
-0.0351939
-0.032269
-0.0270148
-0.0208503
-0.0147233
-0.00896805
-0.00393963
3.01933e-06
0.00304167
0.0052732
0.00681155
0.0076556
0.00801912
0.00812541
0.00812788
0.00812658
0.00812027
0.00811939
0.00811518
0.00810166
0.00807273
0.00728717
0.00725869
0.00722056
0.00716911
0.00709194
0.00697201
0.00679164
0.00651701
0.00605683
0.0053202
0.00409643
0.00222512
-0.000248842
-0.00344907
-0.00741487
-0.0120481
-0.0169433
-0.0214429
-0.0253302
-0.0278444
-0.0285448
-0.0278902
-0.0253344
-0.020881
-0.0156536
-0.0104786
-0.00584548
-0.00190598
0.00117874
0.00342513
0.00498951
0.00595748
0.00651753
0.00686185
0.00707342
0.00720107
0.00729335
0.00735592
0.00739066
0.00739287
0.00706376
0.00706068
0.0070574
0.00705305
0.00704459
0.00703495
0.00702289
0.00701115
0.00694868
0.00678482
0.00644175
0.00566106
0.0041557
0.00180766
-0.00156514
-0.00600137
-0.0111617
-0.0164639
-0.0214324
-0.0254928
-0.0285286
-0.0306038
-0.0303852
-0.0276136
-0.0227611
-0.0173988
-0.0119842
-0.00713242
-0.00310814
-1.76236e-05
0.00232239
0.00392598
0.00496636
0.00561491
0.00601067
0.00624868
0.00640279
0.00650936
0.0065899
0.00665915
0.00679479
0.00678603
0.00679882
0.00682692
0.00687052
0.00694448
0.00706383
0.00722645
0.00742228
0.00759687
0.00770917
0.00749223
0.00650977
0.00475895
0.00190363
-0.00228158
-0.00750825
-0.0142099
-0.0210413
-0.0270841
-0.0325867
-0.0370189
-0.0376545
-0.0350513
-0.0305998
-0.0248148
-0.0185653
-0.0125096
-0.00715101
-0.00294426
0.000192991
0.00236116
0.0037595
0.0046316
0.00516996
0.00550318
0.00571377
0.00584872
0.00594575
0.00601966
0.00648659
0.00645852
0.00644959
0.00646765
0.00653013
0.00664585
0.0068273
0.00707671
0.00743353
0.00777544
0.00807033
0.00821978
0.00776932
0.00663742
0.00443321
0.000711095
-0.0045437
-0.0121016
-0.020493
-0.0284378
-0.0362503
-0.0422205
-0.0433391
-0.040735
-0.0362234
-0.0298059
-0.0227921
-0.0157449
-0.00947758
-0.00464904
-0.00109658
0.00139188
0.00298496
0.00399611
0.00462689
0.00504111
0.00530109
0.00545288
0.00552916
0.00553231
0.00611524
0.00608237
0.00608142
0.00610856
0.00617832
0.00629284
0.00646915
0.00669747
0.00699025
0.00729403
0.00751181
0.00765534
0.00723924
0.00611426
0.00407143
0.00059111
-0.00434424
-0.0111601
-0.0193442
-0.0273675
-0.0349394
-0.0404235
-0.0412809
-0.0387636
-0.0342494
-0.0279638
-0.0212772
-0.014668
-0.00890156
-0.00443901
-0.00114092
0.00117956
0.00270038
0.00366678
0.00429177
0.0047106
0.00496975
0.00511304
0.00517155
0.00513152
0.00569637
0.00569354
0.00570152
0.00571617
0.00574559
0.00579278
0.00586473
0.0059455
0.0059932
0.00593267
0.00558063
0.00490204
0.00380038
0.00202579
-0.00036773
-0.00381561
-0.00814239
-0.013293
-0.0192257
-0.0248388
-0.0294269
-0.0322399
-0.0316138
-0.0289657
-0.0249454
-0.0199388
-0.0147656
-0.00985128
-0.00566656
-0.00239031
6.00156e-05
0.00177354
0.00291151
0.00365472
0.00413424
0.00444105
0.00463026
0.00473843
0.00478696
0.00477888
0.00523532
0.0052491
0.00523438
0.00519347
0.00513249
0.00505001
0.00492796
0.00472968
0.00440084
0.00377359
0.00273736
0.0011409
-0.000940465
-0.00361549
-0.00672175
-0.0104051
-0.0143064
-0.0179671
-0.0207273
-0.0226646
-0.0237054
-0.0232895
-0.0211171
-0.0179401
-0.0143665
-0.0105844
-0.00709465
-0.00400714
-0.00150888
0.000427861
0.00188639
0.00285675
0.00349205
0.00389097
0.00414517
0.00431033
0.0044144
0.00447966
0.00452114
0.0045521
0.00470494
0.00468031
0.00461965
0.00452153
0.00437922
0.004171
0.0038541
0.00335803
0.00260274
0.00144724
-0.000203973
-0.00247596
-0.00543305
-0.00906752
-0.0130679
-0.0172372
-0.020899
-0.0233514
-0.0235625
-0.022404
-0.0205883
-0.0180122
-0.0148194
-0.0110973
-0.00739904
-0.00393191
-0.00123528
0.000798736
0.00219268
0.003104
0.00366631
0.00399348
0.00417479
0.00427175
0.00433095
0.00437144
0.0044055
0.0044307
0.00445123
0.0044641
0.00417457
0.00410397
0.00400975
0.00387624
0.00368157
0.00338519
0.00293202
0.00220332
0.00108398
-0.00056624
-0.00289651
-0.00597867
-0.00992008
-0.014547
-0.0193591
-0.0239125
-0.0274383
-0.0290533
-0.0280339
-0.0248384
-0.0208607
-0.0166079
-0.0121248
-0.00754141
-0.00343943
-8.89734e-05
0.0022555
0.00381516
0.00465742
0.00494737
0.00489929
0.00480444
0.00468937
0.00458713
0.00451054
0.00445662
0.00442656
0.00440473
0.00439163
0.00438511
0.00375639
0.00370937
0.00361657
0.00346972
0.00324053
0.00288373
0.00233348
0.00146031
8.41902e-05
-0.00197231
-0.0048381
-0.00878167
-0.0137592
-0.0194196
-0.0250726
-0.0300937
-0.0338963
-0.0352382
-0.0335412
-0.0284577
-0.0223506
-0.0160818
-0.00975619
-0.00412906
0.000222925
0.00311482
0.00484231
0.00572265
0.00592892
0.00576124
0.00543662
0.00510529
0.00482513
0.00459872
0.00444326
0.00433921
0.00427984
0.00424923
0.00424124
0.00424647
0.00346812
0.0034739
0.00340826
0.00327103
0.00302832
0.00264787
0.00205797
0.0011498
-0.00030419
-0.00247374
-0.00549724
-0.00967715
-0.0149728
-0.0208894
-0.026757
-0.0317897
-0.0361055
-0.037135
-0.0351884
-0.0295841
-0.0226723
-0.0156451
-0.00850551
-0.00243741
0.0017987
0.00446899
0.00591205
0.00644431
0.00629502
0.0058971
0.00543762
0.0050229
0.00466835
0.00440951
0.00422947
0.00411146
0.00404279
0.00401436
0.00401499
0.00404924
0.00326183