/*--------------------------------*- C++ -*----------------------------------*\
| =========                 |                                                 |
| \\      /  F ield         | OpenFOAM: The Open Source CFD Toolbox           |
|  \\    /   O peration     | Version:  v2106                                 |
|   \\  /    A nd           | Website:  www.openfoam.com                      |
|    \\/     M anipulation  |                                                 |
\*---------------------------------------------------------------------------*/
FoamFile
{
    version     2.0;
    format      ascii;
    arch        "LSB;label=32;scalar=64";
    class       volScalarField;
    location    "0";
    object      p;
}
// * * * * * * * * * * * * * * * * * * * * * * * * * * * * * * * * * * * * * //

dimensions      [0 2 -2 0 0 0 0];

internalField   nonuniform List<scalar> 
11644
(
0.038215
0.0381944
0.0380256
0.037722
0.0372117
0.0364639
0.0354343
0.034245
0.0328388
0.030973
0.0286853
0.0261034
0.0235672
0.0208708
0.0175945
0.0141211
0.0112675
0.00699776
-0.00377246
-0.012012
-0.0201456
-0.0264717
-0.0304217
-0.0377293
-0.0425604
-0.0453858
-0.0464281
-0.0463494
-0.0452898
-0.0432458
-0.0407877
-0.038175
-0.0353032
-0.0321414
-0.0291759
-0.0267118
-0.0247453
-0.0232145
-0.0221421
-0.0216669
0.0388963
0.0389294
0.0387212
0.0382989
0.0377179
0.0370482
0.0361696
0.0349793
0.0334028
0.0317879
0.0300147
0.0277465
0.0249873
0.0217396
0.0186259
0.0149746
0.0104635
0.00380055
-0.00324863
-0.0139443
-0.024986
-0.0339081
-0.033519
-0.039847
-0.0451127
-0.0478283
-0.0489976
-0.0486059
-0.0469646
-0.0444211
-0.0412127
-0.0376757
-0.0341425
-0.0309717
-0.0282328
-0.0257253
-0.0235954
-0.0219024
-0.0207918
-0.020375
0.0383546
0.0385515
0.0386586
0.0385733
0.0383302
0.0379535
0.0374002
0.0366046
0.0356094
0.0343774
0.0326115
0.0306104
0.028043
0.0259495
0.0231342
0.0180744
0.0109729
0.00351165
0.00033251
-0.0155594
-0.0245478
-0.0375845
-0.0374351
-0.0441547
-0.0499346
-0.0530897
-0.0533641
-0.0518283
-0.0488192
-0.045173
-0.0412371
-0.037124
-0.033403
-0.0301335
-0.0270967
-0.0244909
-0.0222831
-0.0206421
-0.0196399
-0.0192459
0.037696
0.0377537
0.0380312
0.0382909
0.0386444
0.038853
0.0390282
0.0391086
0.0390271
0.0386317
0.0383311
0.0371821
0.0348871
0.0296622
0.023572
0.0176344
0.00929742
0.00367872
-0.00313171
-0.0164095
-0.0261957
-0.0364713
-0.0439266
-0.0480406
-0.0512869
-0.0540418
-0.0553796
-0.0534984
-0.0493941
-0.0443981
-0.0398721
-0.0356895
-0.0316792
-0.0280456
-0.024825
-0.0221313
-0.0200404
-0.0184993
-0.0175217
-0.0169442
0.036923
0.0371753
0.0375263
0.0381441
0.0390006
0.0399263
0.0410961
0.0423492
0.0437309
0.0452251
0.0460836
0.0448572
0.0400947
0.0329049
0.0245532
0.0153985
0.00719003
-0.000755046
-0.00530512
-0.0363456
-0.038643
-0.0412445
-0.0440808
-0.042356
-0.0450037
-0.0472575
-0.0468729
-0.0470783
-0.0456829
-0.0424191
-0.0376548
-0.0328554
-0.028526
-0.0246065
-0.0213863
-0.018582
-0.0163108
-0.0145725
-0.0133835
-0.0127438
0.036192
0.0363879
0.0365617
0.0375024
0.0385434
0.0402349
0.0423848
0.0450812
0.0481551
0.0508452
0.0512074
0.0483188
0.0436959
0.0347664
0.0205238
0.00872088
-0.000636989
-0.0208014
-0.0345012
-0.0420046
-0.0461691
-0.0419206
-0.0387038
-0.0251664
-0.0257432
-0.0266425
-0.0308004
-0.0335983
-0.0361813
-0.0370446
-0.0344233
-0.0295323
-0.0246094
-0.0203557
-0.0168028
-0.0140492
-0.0118369
-0.0105214
-0.00952252
-0.0092745
0.0329049
0.0330888
0.0341128
0.0346458
0.0359651
0.0381509
0.0409258
0.0446136
0.0485854
0.049929
0.0479581
0.04438
0.0410263
0.0403848
0.0344755
0.0209682
-0.00219488
-0.0221307
-0.0360485
-0.045138
-0.0450465
-0.0299173
-0.0219855
-0.0102861
0.00496335
0.007035
-0.00274234
-0.0134185
-0.0216997
-0.0264784
-0.0270328
-0.0240183
-0.0194936
-0.0154584
-0.0122431
-0.0100303
-0.00849014
-0.00712005
-0.00659923
-0.00590094
0.0275327
0.0283332
0.0288165
0.0298124
0.0317637
0.0336231
0.03634
0.0396989
0.0423943
0.0419873
0.0380975
0.0329304
0.0245115
0.0408734
0.0241359
0.0135448
-0.0167334
-0.0353881
-0.0523861
-0.0599679
-0.0475247
-0.0233914
0.00308359
0.0125713
0.0270261
0.0262368
0.0164596
0.00250229
-0.00812976
-0.0131843
-0.0155803
-0.0158062
-0.0132065
-0.0100661
-0.00794825
-0.00593719
-0.00454227
-0.00300142
-0.00195129
-0.0019007
0.0249539
0.0244945
0.0233566
0.0242307
0.0245657
0.0255859
0.0271146
0.0291197
0.0296234
0.0257478
0.0169312
0.0057492
-0.00486205
0.00326177
-0.0146244
-0.04182
-0.0360289
-0.0626877
-0.0838038
-0.0783773
-0.0384973
-0.00676726
0.0255027
0.0531583
0.0552576
0.0291996
0.0266571
0.0059224
-0.00137921
-0.00403529
-0.00624226
-0.00700482
-0.00610764
-0.00390806
-0.00206946
-0.000893736
2.18776e-05
-0.00017674
0.000961072
0.000764274
0.0197416
0.0186516
0.0194494
0.0186682
0.0176196
0.0179451
0.0180616
0.0172668
0.0142602
0.00892452
-0.00445113
-0.0231629
-0.0326858
-0.0203438
-0.049088
-0.0698027
-0.105207
-0.143639
-0.14928
-0.135183
-0.0546369
0.032717
0.0830263
0.075074
0.0667577
0.0500628
0.0456048
0.0227607
0.0104542
0.00383482
0.00241174
0.000954786
-0.000151114
0.000656392
0.00190648
0.00195186
0.00266052
0.00344303
0.00362325
0.00581251
0.0113726
0.0109972
0.0109436
0.0103338
0.0109969
0.0102501
0.0096086
0.00756708
0.000318878
-0.00646264
-0.0150587
-0.0333435
-0.0526385
-0.0563906
-0.100328
-0.101626
-0.134042
-0.216851
-0.311492
-0.344428
-0.0913562
0.197919
0.222162
0.158883
0.108665
0.0573651
0.0171494
0.0445509
0.0237409
0.0170672
0.0124809
0.00880965
0.00755556
0.0069601
0.00674788
0.00630033
0.00532133
0.00574499
0.00530225
0.00410193
0.00504444
0.00567184
0.00315035
0.00392571
0.00346973
0.00186171
0.000580057
-0.00181755
-0.00752163
-0.0173214
-0.0244054
-0.0378111
-0.0754788
-0.0859278
-0.109954
-0.133059
-0.164254
-0.231331
-0.511186
0.551645
0.214504
0.0804518
0.0324063
0.0217013
0.0202276
0.0292401
0.0270612
0.021431
0.0190268
0.0170296
0.0135476
0.0103032
0.00823736
0.00564381
0.00229806
0.00144922
-0.000832416
-0.00325046
-0.00376789
0.000344104
0.000185096
-0.0018695
-0.00342834
-0.00596832
-0.0089402
-0.0120822
-0.0203504
-0.0320501
-0.0309324
-0.0647504
-0.0699035
-0.0573882
-0.0656947
-0.0643402
-0.0433047
-0.0590707
0.225953
0.120566
0.0573812
0.0498722
0.0415632
0.0444818
0.0419595
0.0344149
0.0300618
0.0303354
0.0257076
0.0189709
0.0126199
0.00759262
0.00508859
0.00318804
0.00162821
0.000393278
-0.0170304
-0.00967232
-0.00507352
-0.00703624
-0.00934557
-0.0126902
-0.0178827
-0.0189111
-0.0239753
-0.0282914
-0.047336
-0.00688384
-0.121205
-0.111159
-0.0815456
-0.0686348
-0.0596271
0.100792
0.0735611
-0.0304017
-0.00038672
0.0288031
0.0468489
0.0258386
0.108481
0.023794
0.0197582
0.0380895
0.0436137
0.0327248
0.0247056
0.0173247
0.0118953
0.00891173
0.00632244
0.00200189
-0.00329659
-0.0105725
-0.00206258
-0.000720299
-0.00563692
-0.00867356
-0.012924
-0.0216671
-0.0344852
-0.0266253
-0.0414949
-0.0644476
-0.0641945
-0.11013
-0.179037
-0.228424
-0.209731
-0.291283
-0.314607
-0.615573
0.395427
0.59943
0.626718
0.357134
0.0448591
0.097537
0.151527
0.0696301
0.0110767
0.0268885
0.0403842
0.0134423
0.0226651
0.0362197
0.0243942
0.0103868
0.00573384
0.00243408
0.00148918
-9.1624e-05
-0.00484481
0.0200262
0.00929776
0.00215096
-0.000799967
-0.00204605
-0.00442217
-0.00878594
-0.0222962
-0.0072793
0.000513178
-0.0370042
-0.106353
-0.0898936
-0.0972887
-0.382793
-0.501319
-0.662405
-0.943735
0.161067
0.875101
0.667773
0.0554983
0.0761974
0.525574
0.251954
0.236576
0.152496
-0.0103624
0.0351543
0.0179069
0.00863669
0.011276
0.0162921
0.0164373
0.00335585
-0.00849215
-0.0157328
-0.014195
-0.00731662
0.00878305
0.0247341
0.0188174
0.0157367
0.00982348
0.0130163
0.0169481
0.0185009
-0.00367513
0.000539298
0.0142556
0.048873
-0.0108179
-0.0663832
-0.14251
-0.198705
-0.554506
-0.802083
-1.07296
-0.698267
-1.22426
0.720946
-0.789762
0.500611
0.856692
0.327022
0.187834
0.0771733
-0.0074615
-0.0112324
-0.00640699
-0.0176805
-0.00760908
0.010524
0.00357034
0.00571953
0.000363189
0.00112153
0.00597579
0.0106884
0.000420586
0.0254057
0.0227022
0.0300712
0.0334863
0.0346222
0.0358943
0.0338748
0.0410655
0.0214549
0.014934
0.0424913
0.0804266
0.137714
-0.0976136
-0.0265748
0.0486296
0.0984313
-0.919618
-1.64892
-0.991774
-1.38219
-0.949836
1.60363
1.20719
0.0759829
0.0550545
0.0173594
-0.0876458
-0.0731804
-0.0405773
-0.00720245
0.003694
-0.00785097
-0.00434884
0.00457161
0.0105066
0.0102134
0.0125114
0.0189113
0.0193367
0.0387798
0.0388512
0.0412323
0.0433285
0.0413215
0.034212
0.0441133
0.0595178
0.0461883
0.0399137
0.0274245
0.0827443
0.189399
0.140369
0.109297
0.474257
0.468292
1.47673
-0.384908
-0.886926
-0.728482
-0.174924
-0.06295
-0.197379
-0.27074
-0.196714
-0.0741285
-0.178456
-0.188781
-0.0458112
-0.045455
-0.00978704
-0.0251228
-0.0138123
-0.00462609
0.00603292
0.00848545
0.0080066
0.0100937
0.0122669
0.0448053
0.047742
0.052803
0.057106
0.0565302
0.05518
0.0542633
0.065579
0.0766412
0.0955999
0.11163
0.0284679
0.195898
0.059824
0.355451
0.357976
0.687681
-0.270506
1.47414
0.573103
0.095519
-1.10207
-0.783789
-0.274899
-0.8096
-0.537357
-0.0240096
0.159801
-0.266624
-0.0761417
-0.0581835
-0.0371547
-0.0270328
-0.00888624
0.0022632
0.00552092
0.00376684
-0.00307913
-0.00685917
-0.00476457
0.0543896
0.0532438
0.0527153
0.0529981
0.0615903
0.0662116
0.073179
0.0809763
0.104584
0.143482
0.228498
-0.127632
-0.0517451
0.0507528
0.269913
0.0407164
0.165113
0.40634
-1.1279
-0.241509
0.325229
-0.118247
-0.60052
-1.01163
-0.410723
-0.38722
-0.00760938
0.158938
0.0699062
-0.148281
-0.0736586
-0.0351817
-0.00882579
-0.000850594
0.00188251
-0.000401511
0.00220345
0.003296
0.00374443
-0.00166411
0.0397232
0.045304
0.0448287
0.0418953
0.0449846
0.0456769
0.0550466
0.0695773
0.0964909
0.100689
0.105949
0.0129354
0.119149
-0.19049
-0.0799799
-0.775837
0.332165
-1.69977
-1.06457
1.96296
1.70179
-0.12727
0.644337
0.434413
-0.760193
0.312076
0.11959
0.102683
0.0410721
0.0193738
0.0123379
0.00758874
0.00580128
0.00655185
0.00946763
0.0108248
0.0126899
0.0105049
0.0090615
0.0112028
0.0259384
0.0303373
0.0302096
0.0316633
0.0357677
0.0271197
0.0326109
0.0458691
0.0623492
0.0739533
0.0883696
-0.0509897
-0.0174782
-0.0983367
-0.588813
0.220789
0.392343
-0.385933
0.286359
0.207626
1.9449
1.37276
0.844232
-0.0866298
-0.0729172
0.188303
0.589644
0.268013
0.105102
0.151102
0.0813135
0.053268
0.017965
0.0187398
0.0217656
0.0200126
0.0203619
0.0203771
0.0230893
0.0247732
0.0293395
0.0245194
0.0242284
0.0255348
0.0263455
0.0242484
0.0300261
0.0350506
0.00979221
0.0103822
-0.0224474
-0.0807382
-0.202062
-0.199695
-0.448409
-1.57834
-1.09157
0.707125
1.25649
1.19052
0.520514
0.754782
-0.497241
-0.751433
0.412536
0.80073
0.238273
0.209611
0.158357
0.08989
0.0716867
0.059423
0.0394216
0.0338227
0.0367876
0.0350091
0.0356406
0.037573
0.0399998
0.03564
0.0406222
0.0361561
0.0355618
0.0322803
0.0300053
0.0296819
0.0336613
0.0407298
0.004412
-0.00167462
-0.0215783
-0.146494
-0.134311
-0.015596
0.215374
0.303736
0.0839553
-0.519634
-0.698232
0.00172448
-3.0333
-1.1001
1.20401
1.31225
0.616753
-0.502995
-0.110095
0.185579
0.153129
0.0964846
0.0440769
0.0300805
0.0293937
0.0362383
0.0417749
0.0394679
0.0373906
0.0339527
0.0298333
0.0330692
0.0471438
0.041629
0.0423628
0.0423041
0.0400322
0.0428111
0.0424744
0.0474137
0.0578375
0.0785605
0.148099
-0.0663521
-0.0041544
0.30159
0.142398
0.16722
0.421782
0.815161
0.165499
-0.618625
0.631841
-0.157254
-0.787221
-0.821873
-0.493311
0.216217
0.399898
-0.144034
0.0781456
-0.15418
-0.0526593
-0.0150116
0.0143346
0.0297109
0.0348795
0.0377906
0.0381023
0.0354378
0.0373088
0.0402634
0.0412232
0.0432716
0.0428455
0.0459715
0.0405503
0.0444307
0.0499955
0.0557825
0.0643054
0.0882583
0.0930904
0.134232
0.164494
0.534826
0.879413
1.11247
2.17556
3.05964
-1.43237
0.673604
-0.717697
0.219589
-0.194259
0.655656
-0.293609
-0.58628
-0.524985
-0.069357
-0.0541227
-0.0268781
-0.0139156
0.000189165
0.0184144
0.0314601
0.0415844
0.0474742
0.0460001
0.0490119
0.0502454
0.0441222
0.0378183
0.0426139
0.0440024
0.0433333
0.0404744
0.0398831
0.0419443
0.0555862
0.0635574
0.0692871
0.0618002
0.113045
0.173324
0.138837
0.817798
1.32913
2.12434
1.79343
0.877543
-0.310733
1.24567
0.330757
-0.450019
-0.663049
-0.76578
-0.299588
0.232084
-0.0352442
0.0479609
-0.00668082
0.00542948
0.00551302
0.017579
0.0388814
0.0460578
0.0416502
0.04365
0.0443601
0.0441039
0.0389354
0.0381359
0.0342635
0.0338021
0.0320028
0.0318214
0.0261433
0.0262185
0.030824
0.0380998
0.0553275
0.0495233
0.0400921
0.0825374
0.390089
0.651942
0.854214
1.19537
0.557957
-0.212878
-3.26565
3.81366
1.47355
-0.0524105
0.0409726
0.0362119
0.103088
0.0429647
0.0480382
0.037183
0.0595022
0.0725349
0.0304284
0.0357743
0.0474129
0.0369167
0.0379031
0.0379276
0.0377594
0.0386924
0.037436
0.0272611
0.0339838
0.0302633
0.0262607
0.0216188
0.0161897
0.00998013
0.0230549
0.0116127
0.0211205
0.0389267
-0.191569
-0.150311
-0.349536
-0.249445
-0.316873
0.415668
0.135383
-0.136887
-0.686896
0.0481527
0.0713331
1.28053
1.16922
0.271638
0.273999
0.143767
0.135087
0.136676
0.170221
0.100705
0.0549051
0.0371895
0.0556854
0.0501765
0.0483437
0.0469779
0.044371
0.0431746
0.0578086
0.0318743
0.0275203
0.023948
0.0218605
0.0153886
0.00791859
0.000305366
-0.00624845
-0.0242547
-0.0378838
-0.0877932
-0.301405
-0.38621
-0.301375
-0.361425
-0.843547
-0.971829
-0.809129
-0.915171
-0.679222
1.09406
1.05937
0.755695
0.649159
0.321039
0.327898
0.582252
0.412494
0.282422
0.170651
0.0951231
0.0553818
0.0508909
0.0567646
0.0580516
0.0600067
0.062611
0.0667487
0.0699417
0.067383
0.0412247
0.0430231
0.0360317
0.027391
0.0163948
0.00426558
-0.00648446
-0.0368862
-0.0643822
-0.0931689
-0.162473
-0.212867
-0.335292
-0.739169
-0.995519
-1.13943
-0.390958
-0.710003
-0.436235
-0.339427
2.71441
1.85587
1.02243
1.03602
1.04817
0.831512
0.495054
0.299355
0.266495
0.204659
0.160669
0.10879
0.0865931
0.0789462
0.078989
0.0800827
0.0801424
0.0746314
0.0714367
0.0727215
0.0499747
0.0526182
0.0498993
0.0421297
0.0328279
0.0209117
0.00507399
-0.0224619
-0.0649682
-0.0247313
-0.0788566
-0.122809
-0.149563
-0.109094
-0.199225
-0.430801
-0.761159
-0.615259
-0.541008
0.151792
1.91807
2.60885
1.49023
1.21732
0.865696
0.578604
0.501741
0.413637
0.319408
0.196674
0.14451
0.115046
0.103036
0.0931738
0.0892723
0.0860224
0.0844248
0.0799827
0.0803313
0.0715377
0.0629234
0.0609944
0.0606931
0.0571211
0.0503898
0.0390226
0.0413804
0.0284995
0.0140428
-0.00394148
0.0303504
0.0850188
0.0969764
0.0539987
0.103761
0.119646
0.249779
0.136703
0.45636
0.808728
1.34963
1.26183
0.982589
0.788322
0.54281
0.560051
0.35449
0.213482
0.137732
0.0898082
0.15022
0.136597
0.112958
0.102402
0.100485
0.0926585
0.0857747
0.0799127
0.0753838
0.0689936
0.0881777
0.0794555
0.0779317
0.0743121
0.073055
0.0724923
0.0734687
0.0676521
0.0783144
0.0579198
0.161314
0.210464
0.255279
0.339306
0.603234
0.479073
0.0846817
0.144991
-0.0993143
-0.919975
1.25404
0.622873
0.450176
0.329462
0.15186
0.000814982
0.14502
0.150064
0.0508258
0.0351087
0.183003
0.141119
0.113489
0.097361
0.0911726
0.0857928
0.0808449
0.0723147
0.0709272
0.0735277
0.0866828
0.0902514
0.0930315
0.0974776
0.101254
0.103543
0.107337
0.112093
0.117213
0.12373
0.20011
0.293619
0.500153
0.658621
0.845381
0.786354
0.0939908
-0.205625
-0.0875582
0.139339
-1.58635
-0.880415
-0.818578
-0.722885
-0.661351
-0.437108
-0.223699
-0.128427
-0.0693038
0.0321595
0.087037
0.104253
0.0860493
0.081789
0.0821945
0.0804881
0.0764295
0.0737325
0.073544
0.0699195
0.106174
0.107615
0.10956
0.109923
0.115652
0.126413
0.135202
0.147061
0.1624
0.18437
0.229909
0.355482
0.395281
0.41312
0.653828
0.69483
0.431177
0.189058
0.162715
-0.408269
-1.76497
-1.60273
-1.47869
-0.950421
-0.888308
-0.647404
-0.331034
-0.0465756
-0.107486
-0.010356
0.0554843
0.0818983
0.0957403
0.0835723
0.0836267
0.0816965
0.0762253
0.0703195
0.0687109
0.070504
0.117565
0.120548
0.125758
0.133464
0.146439
0.150343
0.168081
0.193117
0.185241
0.218097
0.253156
0.359912
0.556692
0.571827
0.720332
0.938933
0.283931
0.399307
-0.518969
-0.208884
-3.06789
-2.07176
-0.883627
-0.695432
-0.733354
-0.384053
-0.177987
-0.206192
-0.197858
-0.0461068
0.103816
0.091367
0.0847044
0.0748893
0.0826821
0.0776732
0.0715121
0.068532
0.0660816
0.0706058
0.122528
0.12809
0.13194
0.137238
0.146041
0.153775
0.172179
0.183714
0.195104
0.230939
0.23614
0.308011
0.315577
0.443821
0.632774
0.782059
0.89771
0.956076
-0.285922
0.0726112
-2.33729
-1.29799
-0.441454
-0.410867
-0.445063
-0.493805
-0.155765
0.0614601
0.128856
0.0786223
0.0934447
0.0791064
0.0885476
0.0771815
0.0689138
0.065671
0.0619173
0.0603784
0.0565715
0.0571685
0.125442
0.129027
0.131983
0.136871
0.144872
0.154709
0.172681
0.170361
0.181184
0.192969
0.224144
0.316522
0.353304
0.339036
0.371642
0.463989
0.22224
0.186493
-0.117766
0.216271
-0.277141
-0.330362
-0.0431366
0.0858385
0.168985
0.257099
0.244515
0.108963
-0.0114305
0.0847545
0.12141
0.106106
0.0867158
0.0677381
0.05647
0.0549138
0.048628
0.0466261
0.044041
0.0477549
0.120604
0.124113
0.12745
0.132749
0.139454
0.146761
0.168416
0.161646
0.178693
0.147945
0.197894
0.162669
0.189872
0.176876
0.176991
0.136835
-0.140296
-0.10979
-0.472486
-0.606936
0.212887
0.306432
0.272593
0.230902
0.167394
0.0665498
0.0347377
0.0499533
0.119702
0.0456933
0.127003
0.0963319
0.062273
0.0354854
0.0379469
0.0365793
0.0338807
0.0317621
0.0309871
0.0334526
0.124979
0.127063
0.127569
0.127236
0.130615
0.134391
0.140429
0.14342
0.15099
0.156337
0.174234
0.119979
0.0803622
-0.0247166
-0.00519773
-0.121612
-0.368457
-0.404907
-1.25525
-1.92627
1.75744
1.02131
-0.143764
0.0445615
0.14412
0.149021
0.173678
0.0667831
0.0420718
0.0208152
0.026024
0.0473185
0.0348455
0.0347922
0.030056
0.0288412
0.0235689
0.0236104
0.0254201
0.026135
0.126766
0.127667
0.129543
0.128212
0.126034
0.128074
0.123966
0.120762
0.101753
0.120628
0.0636795
-0.0690831
-0.0715535
-0.0727488
-0.0637565
-0.103916
-0.0705611
-0.106269
-0.425189
-0.409513
0.0314141
0.279024
0.0420876
-0.0710943
0.107908
0.0930829
0.0729413
0.0424448
-0.00806331
0.011177
0.0012725
-0.00436197
0.00690998
0.00490526
0.0113386
0.0131747
0.0114313
0.00703546
0.00492103
0.00567277
0.115926
0.128969
0.127753
0.125574
0.119306
0.111998
0.0949594
0.0525583
0.0369622
0.0771734
0.0200346
0.0203666
-0.0265556
-0.142929
-0.248564
-0.374608
-0.351137
-0.376798
-0.35987
-0.218212
0.64305
0.717433
0.205428
0.147362
0.0761925
0.0628153
-0.00250718
-0.014352
0.0428367
0.106382
-0.0742371
-0.0784341
-0.0401875
-0.0323024
-0.0222334
-0.0158611
-0.01074
-0.00799194
-0.00345864
-0.0104132
0.11909
0.119121
0.11867
0.114756
0.105381
0.0968603
0.0845119
0.0596853
0.0248666
-0.000268889
-0.0248906
-0.0256032
-0.0795792
-0.112381
-0.17929
-0.182839
-0.22431
-0.361572
0.0889679
-0.0806803
1.30211
0.857097
-0.0503133
0.0374865
-0.0620168
-0.0381265
-3.09084e-06
-0.0331589
-0.0689598
-0.0639694
-0.0747592
-0.0803693
-0.0606157
-0.0413749
-0.0321529
-0.0253705
-0.0242196
-0.0216188
-0.0225247
-0.0141135
0.11417
0.109056
0.106377
0.102819
0.096274
0.0852586
0.0721261
0.0747246
0.0544892
0.0468624
0.0259231
0.0530926
0.0420752
-0.0591494
-0.156124
-0.160777
-0.412967
-0.255576
-0.358281
-0.238373
0.373387
0.546858
0.0609628
-0.00545624
-0.202826
-0.197107
-0.226214
-0.222397
-0.133529
-0.0816779
-0.121855
-0.0944486
-0.0864286
-0.0555428
-0.0504998
-0.0397179
-0.0335487
-0.0272427
-0.0223002
-0.0244396
0.121526
0.115655
0.113251
0.106551
0.105459
0.103095
0.0989428
0.089323
0.0743898
0.0963651
0.113774
0.0914796
0.0514476
0.0701331
0.0511921
0.0254934
-0.0139148
-0.159903
-0.161677
-0.109829
-0.601941
-0.284216
-0.645373
-0.679203
-0.706861
-0.624922
-0.402549
-0.259816
-0.204283
-0.181063
-0.125102
-0.101713
-0.0941564
-0.0767612
-0.0612519
-0.0491603
-0.0383579
-0.036686
-0.0332828
-0.0276329
0.131557
0.130913
0.128763
0.126744
0.125697
0.128756
0.139174
0.110938
0.137541
0.157721
0.0953811
0.201154
0.133253
0.0638228
0.013937
-0.022544
-0.0949991
-0.134342
-0.51009
-0.74986
-0.769354
-0.741438
-0.517304
-0.562052
-0.503885
-0.438519
-0.357409
-0.278287
-0.202036
-0.138113
-0.123426
-0.107598
-0.104625
-0.0791146
-0.0647971
-0.0516268
-0.0500225
-0.0472066
-0.0454505
-0.0318247
0.132126
0.14159
0.144672
0.146844
0.148708
0.15138
0.144473
0.166759
0.167074
0.191533
0.241431
0.293736
0.300442
0.2822
0.268619
0.153228
0.0516934
-0.091521
-0.470624
-0.437424
-0.568977
-0.369245
-0.315082
-0.290528
-0.462503
-0.357368
-0.291341
-0.230077
-0.172299
-0.158474
-0.119999
-0.11646
-0.0915815
-0.0741602
-0.0645002
-0.0529286
-0.0455601
-0.0394448
-0.0364692
-0.0366783
0.140346
0.132874
0.138117
0.142462
0.146156
0.151686
0.162977
0.179628
0.203559
0.22061
0.185957
0.2144
0.322004
0.360463
0.509292
0.535088
0.41824
0.534616
0.256034
0.0559824
0.245827
0.0683509
0.0387292
0.15915
0.075575
0.0304229
-0.0777818
-0.104784
-0.0886944
-0.093883
-0.0674561
-0.0804603
-0.0640146
-0.0567868
-0.0454087
-0.0350043
-0.0304272
-0.029173
-0.0296798
-0.0297583
0.129429
0.1314
0.131965
0.133848
0.137237
0.143705
0.157683
0.179289
0.193223
0.226512
0.264
0.286493
0.367517
0.496757
0.657508
0.80396
0.768425
0.779928
0.766796
0.72975
0.529101
0.407018
0.303798
0.140937
0.145294
0.105364
0.0354005
0.00176259
0.0141446
-0.0861495
-0.066413
-0.0486998
-0.0440377
-0.043919
-0.0395506
-0.0246372
-0.0245311
-0.0273168
-0.0294573
-0.0371097
0.131434
0.125452
0.126624
0.12933
0.133359
0.140557
0.150815
0.167662
0.199781
0.165156
0.189671
0.211671
0.297568
0.440919
0.486952
0.613674
0.683663
0.839591
0.953049
0.791579
0.143675
0.0929983
0.116719
0.0795092
0.282494
0.188734
0.0691069
0.0264021
-0.00207891
0.0253699
-0.0105428
-0.0312161
-0.045818
-0.0461192
-0.0419986
-0.0397559
-0.0385882
-0.0380741
-0.0371202
-0.0422591
0.133688
0.131954
0.130055
0.127527
0.126061
0.130756
0.141962
0.155801
0.167357
0.139305
0.158902
0.153839
0.117578
0.0965725
-0.157601
-0.160615
-0.211305
-0.236872
-0.172616
-0.0206577
0.304282
0.337533
0.211497
0.151575
0.229413
0.257051
0.274296
0.141022
0.063922
-0.007835
0.00408288
-0.00278841
-0.0212741
-0.035397
-0.0409517
-0.04174
-0.044162
-0.045211
-0.0423299
-0.0387936
0.126427
0.124612
0.124448
0.125547
0.126174
0.132984
0.13817
0.138309
0.160639
0.136914
0.0934157
0.0661324
-0.00174642
-0.150192
-0.333432
-0.497045
-0.703927
-0.754572
-0.803262
-0.649061
-0.360808
-0.156755
0.0650799
0.153481
0.13264
0.100862
0.0775055
0.00564483
0.0292202
0.0349103
0.0528919
0.020818
0.00316145
-0.0243441
-0.0291514
-0.0298726
-0.030788
-0.0319702
-0.0302244
-0.0269576
0.125525
0.12131
0.118868
0.117278
0.119751
0.123921
0.134166
0.146692
0.159854
0.173726
0.139434
0.0430652
-0.0206273
-0.118701
-0.221185
-0.368396
-0.564659
-0.771364
-0.775299
-0.504698
-0.156297
0.0385482
0.0854737
-0.0367069
-0.105167
-0.0232106
0.0526541
0.10086
0.114299
0.088491
0.0601268
0.0279252
0.0262106
0.000410496
-0.00600589
-0.00267592
-0.00503182
-0.00678709
-0.00852175
-0.0098659
0.127254
0.126468
0.127221
0.126944
0.130936
0.131983
0.13821
0.141637
0.138824
0.124603
0.0820756
0.0798063
0.104349
0.167221
0.206411
0.205056
0.262455
0.321189
0.226058
0.117846
-0.0990118
-0.0617506
0.0113891
0.00879912
-0.00547734
0.035974
0.0649134
0.15626
0.148751
0.113997
0.0822089
0.0545382
0.0363196
0.0193024
0.0150486
0.00861588
0.00336162
-0.00457145
-0.0123718
-0.0241589
0.12203
0.130188
0.132245
0.134723
0.137111
0.134968
0.133085
0.123894
0.135849
0.13071
0.104131
0.0581217
0.0529324
0.0531449
0.0596331
0.0612082
0.0723531
0.139448
0.101459
0.282362
0.620264
0.769057
0.703646
0.538613
0.478431
0.431409
0.331239
0.251538
0.183458
0.168383
0.101298
0.0537594
0.0162519
-0.00279165
-0.00473424
-0.01384
-0.01858
-0.0187437
-0.0218852
-0.0292834
0.112807
0.116459
0.119109
0.118386
0.114778
0.110561
0.104562
0.0834775
0.0778389
0.0314478
0.0112255
-0.062342
-0.089187
-0.163382
-0.230382
-0.357893
-0.484461
-0.151514
0.0307456
0.0623454
0.300765
0.999589
0.959014
0.351347
0.456814
0.381923
0.330011
0.288804
0.218865
0.155749
0.0533773
0.0125816
0.0173947
-0.00622858
-0.0168727
-0.0261115
-0.0303769
-0.0374982
-0.0395489
-0.0402152
0.0942191
0.0911273
0.0885766
0.0858959
0.0841512
0.0786422
0.0766234
0.0306498
0.0178991
-0.0186065
-0.0417956
-0.123498
-0.250289
-0.282657
-0.422518
-0.678962
-0.774968
-0.907301
-0.69728
-0.388967
-0.348079
-0.111243
-0.0766528
-0.0760417
0.0582475
0.0820115
0.0943012
0.107666
0.0730722
0.0666587
0.0225177
0.0104699
-0.0162322
-0.0362506
-0.0340648
-0.0424077
-0.0450031
-0.0463023
-0.045308
-0.0441851
0.0940461
0.0813363
0.0755478
0.0703224
0.0679733
0.0624085
0.0546816
0.031276
-0.0113052
-0.062312
-0.117714
-0.190746
-0.252704
-0.343324
-0.484417
-0.608267
-0.706895
-0.876802
-0.994087
-1.20457
-1.07726
-1.03899
-0.977592
-0.840295
-0.755668
-0.545814
-0.359537
-0.205993
-0.0753473
-0.045057
-0.0260606
-0.0155997
-0.0598559
-0.0525473
-0.0484206
-0.0527585
-0.0519664
-0.0506894
-0.0499397
-0.0521576
0.0982476
0.097343
0.0927481
0.0887108
0.0827837
0.0730547
0.0641396
0.0624126
-0.0258884
-0.0778114
-0.180555
-0.300542
-0.449965
-0.576304
-0.733121
-0.855422
-0.843784
-1.00397
-1.16366
-1.19302
-1.09176
-1.12441
-0.822701
-0.84732
-0.637426
-0.465074
-0.296075
-0.183497
-0.116924
-0.0970063
-0.0829912
-0.0666274
-0.0686667
-0.0676228
-0.0620049
-0.0638211
-0.0661523
-0.0683884
-0.0697514
-0.0665705
0.105782
0.113605
0.114124
0.111868
0.104365
0.0905115
0.076914
0.0545998
0.00396303
-0.0476267
-0.143126
-0.251396
-0.400766
-0.598028
-0.768156
-1.03587
-1.01541
-1.16704
-1.10724
-0.869486
-0.408152
-0.044299
0.155929
0.0908704
-0.0197792
-0.0669311
-0.107422
-0.141596
-0.144992
-0.138844
-0.110998
-0.106718
-0.0839868
-0.0861532
-0.0846854
-0.082559
-0.0787035
-0.0789059
-0.0796537
-0.0830319
0.0958891
0.102349
0.105908
0.106457
0.101132
0.0886462
0.063663
0.0496527
-0.0138366
-0.0717476
-0.135963
-0.237707
-0.342023
-0.435148
-0.507197
-0.551159
-0.558079
-0.21548
-0.0364087
0.136015
0.168586
0.293337
0.383711
0.352142
0.330522
0.207824
0.0903577
-0.00920975
-0.10678
-0.140542
-0.115001
-0.116665
-0.102835
-0.0976282
-0.0923563
-0.0875424
-0.0832609
-0.0830184
-0.0857965
-0.0907989
0.0882517
0.0943306
0.0894301
0.0817583
0.0743624
0.0655452
0.0532808
0.0268792
0.0251075
-0.00456977
-0.0248005
-0.106602
-0.0358923
0.0456009
0.126709
0.24161
0.245263
0.260645
0.407636
0.571831
0.551016
0.419095
0.237928
-0.155193
-0.266222
-0.212584
-0.220202
-0.218814
-0.213547
-0.18733
-0.185654
-0.175566
-0.145398
-0.114463
-0.115058
-0.101994
-0.0963269
-0.0963983
-0.0977282
-0.114482
0.0957611
0.0837213
0.0816364
0.0808462
0.0794983
0.0760226
0.0678021
0.0492878
0.0281389
0.00565434
-0.0162333
0.0218673
0.0157298
0.0476345
0.111192
0.139664
0.242964
0.295265
0.358087
0.374215
0.290858
-0.418499
-0.529131
-0.553224
-0.525623
-0.46124
-0.422332
-0.373147
-0.34263
-0.280452
-0.270103
-0.239384
-0.198846
-0.169807
-0.153454
-0.138613
-0.132623
-0.127383
-0.12451
-0.123696
0.115216
0.110129
0.10646
0.10278
0.0996295
0.0939145
0.0880327
0.0763686
0.0607238
0.0579182
0.00738162
-0.0649077
-0.177645
-0.304104
-0.43765
-0.594716
-0.685552
-0.670726
-0.53657
-0.373218
-0.262209
-0.355681
-0.423076
-0.463774
-0.529254
-0.466646
-0.419207
-0.370058
-0.340186
-0.329092
-0.309583
-0.270369
-0.230232
-0.20146
-0.183249
-0.170961
-0.162767
-0.158151
-0.149303
-0.137046
0.130086
0.132038
0.13347
0.131943
0.130753
0.127268
0.127256
0.114403
0.103466
0.0764313
0.0663094
0.0246806
-0.128986
-0.281102
-0.423814
-0.581766
-0.746663
-0.707814
-0.70061
-0.772439
-0.795363
-0.763626
-0.63411
-0.635349
-0.549748
-0.558324
-0.540088
-0.493197
-0.45023
-0.373756
-0.287881
-0.247616
-0.216084
-0.197354
-0.180556
-0.170167
-0.160803
-0.153628
-0.144671
-0.132039
0.131155
0.132139
0.135535
0.137643
0.14649
0.152401
0.157795
0.172431
0.190752
0.184522
0.194112
0.19669
0.216923
0.204392
0.208484
0.244741
0.0739614
-0.0308339
-0.29338
-0.403179
-0.608446
-0.620355
-0.790195
-0.867523
-0.827357
-0.792404
-0.693452
-0.571172
-0.471716
-0.358918
-0.259543
-0.228715
-0.180982
-0.163658
-0.148564
-0.136617
-0.126586
-0.121062
-0.118891
-0.12014
0.13316
0.139921
0.142694
0.147516
0.157362
0.169498
0.189205
0.215276
0.245181
0.291416
0.356715
0.467386
0.661477
0.875347
1.07003
1.23763
1.18735
0.90939
0.615736
0.229519
-0.293203
-0.526123
-0.797721
-0.930953
-0.907779
-0.879768
-0.757663
-0.587616
-0.448202
-0.334254
-0.267556
-0.194301
-0.155764
-0.146889
-0.125629
-0.111468
-0.102839
-0.102269
-0.106829
-0.120999
0.139433
0.148439
0.155991
0.167005
0.181578
0.201359
0.22513
0.259807
0.316346
0.3948
0.482511
0.563785
0.70202
0.826497
0.918166
0.984743
0.614831
0.52189
0.48118
0.369634
0.238478
0.149737
-0.051809
-0.146016
-0.181782
-0.224813
-0.289526
-0.30949
-0.32022
-0.301609
-0.221456
-0.180716
-0.173967
-0.155912
-0.142468
-0.130325
-0.121513
-0.117883
-0.117581
-0.118264
0.135447
0.140987
0.149153
0.163464
0.178918
0.193929
0.221455
0.248397
0.265549
0.329422
0.397155
0.480496
0.488861
0.496151
0.543122
0.426958
0.309864
0.243971
0.265625
0.216282
0.162366
0.235926
0.16874
0.0950328
0.000902619
0.00202326
-0.0493464
-0.0960224
-0.140108
-0.162467
-0.151971
-0.154354
-0.155297
-0.14803
-0.147703
-0.143244
-0.139851
-0.135752
-0.130573
-0.12425
0.119388
0.11838
0.120486
0.124722
0.134306
0.148744
0.169999
0.195824
0.236282
0.287282
0.341099
0.431559
0.509785
0.554816
0.557607
0.514412
0.21808
0.136227
0.0852573
-0.0121916
-0.111133
-0.243281
-0.399234
-0.472926
-0.482046
-0.334937
-0.271715
-0.197148
-0.16122
-0.135187
-0.121374
-0.130258
-0.125178
-0.117805
-0.125837
-0.125495
-0.127882
-0.126715
-0.123239
-0.105697
0.102351
0.090341
0.0896104
0.0949822
0.104384
0.117363
0.141138
0.16301
0.196212
0.264188
0.349937
0.45046
0.576527
0.631029
0.634539
0.572366
0.610055
0.404413
0.0734333
-0.213472
-0.374293
-0.550852
-0.793477
-1.01509
-0.76342
-0.723308
-0.596502
-0.425405
-0.257129
-0.147696
-0.119273
-0.106851
-0.0913731
-0.0890218
-0.0898778
-0.0958645
-0.0907364
-0.0832052
-0.0787503
-0.0801294
0.0973652
0.0927631
0.0934066
0.0969284
0.103649
0.115158
0.135111
0.158025
0.17709
0.219667
0.252561
0.278535
0.339545
0.38823
0.384051
0.419546
0.357448
0.319105
0.074929
-0.208666
-0.203035
-0.272053
-0.366436
-0.424593
-0.347426
-0.36708
-0.305278