/*--------------------------------*- C++ -*----------------------------------*\
| =========                 |                                                 |
| \\      /  F ield         | OpenFOAM: The Open Source CFD Toolbox           |
|  \\    /   O peration     | Version:  v2106                                 |
|   \\  /    A nd           | Website:  www.openfoam.com                      |
|    \\/     M anipulation  |                                                 |
\*---------------------------------------------------------------------------*/
FoamFile
{
    version     2.0;
    format      ascii;
    arch        "LSB;label=32;scalar=64";
    class       volVectorField;
    location    "0";
    object      U;
}
// * * * * * * * * * * * * * * * * * * * * * * * * * * * * * * * * * * * * * //

dimensions      [0 1 -1 0 0 0 0];

internalField   nonuniform List<vector> 
11644
(
(0.00186134 5.88273e-05 1.22743e-20)
(0.00189787 0.000100898 3.38489e-20)
(0.00189376 0.000138683 1.81608e-20)
(0.00187762 0.000174094 0)
(0.00190803 0.000207456 0)
(0.00193987 0.000158719 0)
(0.00194253 0.000111935 0)
(0.00198765 9.92264e-05 0)
(0.00213767 -0.000146573 0)
(0.00227995 -0.000581378 0)
(0.00237735 -0.00114357 0)
(0.00245731 -0.00175721 0)
(0.00252529 -0.00242113 0)
(0.00252793 -0.00323288 0)
(0.00241261 -0.00419854 0)
(0.00260272 -0.00437002 0)
(0.00159589 -0.00551902 0)
(0.00355796 -0.00422108 0)
(0.00104342 -0.00650456 0)
(0.00278199 -0.00588969 1.37801e-29)
(0.00250659 -0.00383827 -1.36575e-29)
(0.00123338 -0.00284504 0)
(0.00393794 -0.00481302 0)
(0.00149278 -0.00299418 0)
(0.00210445 -0.00343803 0)
(0.0016079 -0.00243162 0)
(0.00179203 -0.00250917 0)
(0.00178919 -0.00221329 0)
(0.00179025 -0.00199864 0)
(0.00178477 -0.00183496 0)
(0.00175591 -0.00172854 0)
(0.00168838 -0.0015933 0)
(0.00163323 -0.00136938 0)
(0.00168106 -0.00103126 0)
(0.0017191 -0.000857684 0)
(0.00172156 -0.000689279 0)
(0.00174001 -0.000501443 0)
(0.00173005 -0.000362978 0)
(0.00171211 -0.000244123 0)
(0.00175866 -8.7689e-05 2.37986e-21)
(0.00182722 1.74044e-05 1.57662e-20)
(0.00179273 9.64845e-05 1.46046e-20)
(0.00182994 0.000135449 7.84366e-21)
(0.00190179 0.000150401 0)
(0.0019648 0.000109592 0)
(0.00200799 0.000134715 0)
(0.00210514 4.23972e-05 0)
(0.00228221 -0.000179299 0)
(0.00246338 -0.000260208 0)
(0.00265666 -0.000268849 0)
(0.00285041 -0.000338244 0)
(0.00301489 -0.000532186 0)
(0.00322818 -0.000819671 0)
(0.00330789 -0.000996788 0)
(0.00325561 -0.00130407 0)
(0.00266277 -0.00238652 -7.92465e-23)
(0.00329387 -0.00214806 6.20406e-21)
(0.00101169 -0.00319903 3.19277e-20)
(0.00363923 -0.00223394 -1.54256e-20)
(-0.000398182 -0.00376262 1.64009e-19)
(-8.88688e-05 -0.00323007 -1.75145e-19)
(0.00261021 -0.00436297 -5.77298e-21)
(-0.000642165 -0.00261595 1.24806e-21)
(0.00196517 -0.00269996 -5.50058e-21)
(0.00137087 -0.00154574 -1.87411e-21)
(0.00155674 -0.00210085 0)
(0.00140204 -0.00148844 0)
(0.0014804 -0.0013197 0)
(0.00143315 -0.00106932 0)
(0.00150952 -0.000772492 0)
(0.0015544 -0.000481885 0)
(0.00157002 -0.000237373 0)
(0.00157099 -0.000136048 0)
(0.00157371 -0.000202036 0)
(0.00161321 -0.000133993 0)
(0.00167308 -7.83579e-05 0)
(0.00169063 -6.61991e-05 0)
(0.00172022 -3.89795e-05 0)
(0.0017365 -2.07215e-05 0)
(0.00168583 -1.04277e-05 0)
(0.00185135 1.00488e-05 0)
(0.0018536 0.000115943 0)
(0.00182801 0.00016954 0)
(0.00188913 0.000244646 0)
(0.0019376 0.000286111 1.44022e-20)
(0.0020595 0.000314924 0)
(0.00219135 0.000339496 0)
(0.0023276 0.000356582 0)
(0.0024757 0.000349356 0)
(0.00266236 0.000328299 0)
(0.00288469 0.000342627 0)
(0.00306555 0.00033063 0)
(0.00318238 0.000198831 -4.99877e-22)
(0.00341202 -7.48038e-05 -1.75327e-20)
(0.00360322 -0.000271258 1.20227e-19)
(0.00356804 -0.000671803 -1.672e-19)
(0.00367766 -0.00101043 -1.6763e-19)
(0.00325823 -0.00116602 1.20881e-19)
(0.00198143 -0.00179543 2.10555e-19)
(0.00247411 -0.00287244 -9.85378e-20)
(0.0015907 -0.00149229 -2.39916e-20)
(0.000623083 -0.00278988 9.9771e-21)
(0.000948511 -0.00331177 -2.25719e-19)
(0.000808586 -0.0026463 3.14168e-19)
(0.000611907 -0.00180384 6.51202e-21)
(0.00101251 -0.00152273 -1.05062e-19)
(0.00106571 -0.00118051 2.32668e-20)
(0.00101393 -0.000730189 2.96346e-22)
(0.00108126 -0.000505516 0)
(0.00114989 -0.000305119 0)
(0.00126994 -0.000124448 0)
(0.00138958 -3.58766e-05 0)
(0.00149631 8.50494e-06 0)
(0.00156608 3.57727e-05 0)
(0.00163431 3.54642e-05 0)
(0.00167918 4.09819e-05 0)
(0.00171005 5.80677e-06 0)
(0.00175873 3.24358e-05 0)
(0.00180059 2.65111e-05 0)
(0.00182456 2.15925e-05 0)
(0.00158471 0.000121113 0)
(0.00162749 8.92109e-05 0)
(0.00176465 0.000245591 0)
(0.00179919 0.000279912 0)
(0.00185146 0.000424665 0)
(0.00193334 0.000506575 0)
(0.00205825 0.000621515 0)
(0.0022105 0.000717762 0)
(0.00240827 0.000787038 0)
(0.00264869 0.000779412 0)
(0.00286196 0.000682324 -1.41077e-22)
(0.00327135 0.000388153 -2.93723e-20)
(0.00356996 -4.60395e-05 -1.23162e-19)
(0.00393533 -0.000616672 3.45624e-19)
(0.0042217 -0.00140323 -3.51671e-19)
(0.00416911 -0.00193123 -8.6729e-20)
(0.0035517 -0.00264059 2.79648e-19)
(0.0033109 -0.00291164 -2.16246e-19)
(0.00247383 -0.00375513 9.12471e-19)
(0.00262001 -0.00305268 -8.01704e-19)
(0.00215033 -0.00233468 -2.92178e-20)
(0.0011015 -0.00203788 1.19108e-18)
(0.00142232 -0.00293445 -1.043e-18)
(0.000442554 -0.00237073 -3.09772e-19)
(0.000160216 -0.00252108 3.02069e-20)
(0.000128387 -0.00185574 4.57244e-19)
(0.000257887 -0.00143048 -3.23777e-19)
(0.000490112 -0.00111441 8.98912e-20)
(0.000731959 -0.000663526 8.78934e-21)
(0.000924387 -0.000420435 7.30958e-23)
(0.00105598 -0.000313489 0)
(0.00124937 -0.000244825 0)
(0.00141379 -0.000192028 0)
(0.00152797 -0.000151534 0)
(0.00162118 -0.000124907 0)
(0.00166213 -0.000118027 0)
(0.00171183 -5.62334e-05 0)
(0.00172635 -9.7618e-05 0)
(0.00170892 -9.16212e-06 0)
(0.00170719 -5.16971e-05 0)
(0.00147615 -3.31819e-05 0)
(0.00147911 0.000222789 0)
(0.00148887 0.000291449 0)
(0.00153218 0.000450186 0)
(0.00165783 0.00057534 0)
(0.0017605 0.000659477 0)
(0.0019209 0.000755405 0)
(0.00208498 0.000844364 0)
(0.00234749 0.000897682 0)
(0.00259957 0.000871449 4.17668e-21)
(0.00320777 0.000604004 -3.3643e-20)
(0.00388422 4.71801e-05 -2.49613e-19)
(0.0047503 -0.000505583 9.44742e-20)
(0.00521076 -0.00153447 1.87138e-20)
(0.00508002 -0.00253518 1.79824e-19)
(0.00534209 -0.0031593 -3.52303e-20)
(0.00445723 -0.00376267 2.48397e-19)
(0.00359398 -0.00416606 4.83622e-19)
(0.00357335 -0.00467433 -1.78618e-18)
(0.00288695 -0.00420835 1.78002e-18)
(0.00216325 -0.00333999 -1.2552e-18)
(0.00187322 -0.00281649 6.01945e-19)
(0.00115883 -0.00237675 2.76494e-19)
(0.00029478 -0.00211774 -4.43038e-19)
(9.76792e-05 -0.00230261 2.49892e-19)
(-0.000403447 -0.00256038 -1.89635e-19)
(-0.000598331 -0.00239047 -9.36105e-20)
(-0.000350021 -0.00169712 2.09973e-19)
(1.29918e-05 -0.00112932 -8.04156e-20)
(0.000594732 -0.000630624 1.99896e-20)
(0.00106084 -0.000364879 3.85901e-21)
(0.001245 -0.000298421 0)
(0.00140385 -0.000284328 0)
(0.00151154 -0.000258733 0)
(0.00156894 -0.000200821 0)
(0.00160574 -0.000188856 0)
(0.00162259 -0.000150945 0)
(0.001643 -7.85866e-05 0)
(0.0016953 -0.00011433 0)
(0.00168669 4.9801e-05 0)
(0.00136467 4.68673e-05 0)
(0.00139352 0.000299102 0)
(0.00137734 0.000282319 0)
(0.00148125 0.000570266 0)
(0.00151848 0.000629282 0)
(0.00166025 0.000813581 0)
(0.00179143 0.000929591 0)
(0.00199347 0.00105639 0)
(0.00230002 0.00107867 -7.33265e-21)
(0.00296374 0.000813641 -2.02742e-20)
(0.00382892 0.000270137 4.45853e-20)
(0.00471448 -0.000233219 5.74268e-20)
(0.00516722 -0.000966277 -4.34933e-19)
(0.00610721 -0.000878871 -3.11715e-19)
(0.00630811 -0.00212479 8.30214e-19)
(0.0066364 -0.00435031 -9.48369e-19)
(0.00706062 -0.00459536 3.95045e-19)
(0.00562843 -0.00477704 1.03864e-18)
(0.00387828 -0.00592029 -2.73896e-19)
(0.00291695 -0.00578727 -6.53323e-19)
(0.00227867 -0.00340455 -1.71147e-18)
(0.00113236 -0.00321203 3.2075e-18)
(0.000844439 -0.00348394 -1.71786e-18)
(0.00105387 -0.00275039 6.44995e-19)
(0.000262737 -0.00248002 -2.76784e-20)
(-0.000964091 -0.00261118 -3.4254e-19)
(-0.00114046 -0.00299414 -1.73667e-19)
(-0.00164281 -0.00261604 4.83333e-19)
(-0.0010433 -0.00183555 -8.55192e-20)
(-0.000250274 -0.00123609 -1.50544e-19)
(0.000702866 -0.000603434 1.78751e-19)
(0.00119977 -0.000284308 -2.20247e-20)
(0.0013704 -0.000194725 0)
(0.00146896 -0.000227696 0)
(0.00153748 -0.000223287 0)
(0.0015943 -0.000139455 0)
(0.00165537 -0.000182671 0)
(0.00167134 -4.77919e-05 0)
(0.00165564 -6.94716e-05 0)
(0.00167968 -1.81772e-05 0)
(0.00108307 0.000386502 0)
(0.00110741 -2.53248e-06 0)
(0.00118029 0.000595363 0)
(0.00118515 0.000496192 0)
(0.00135311 0.000694589 0)
(0.00148216 0.000849846 0)
(0.00160806 0.00099763 0)
(0.00188851 0.00118825 1.53761e-21)
(0.00264263 0.00103061 2.56497e-20)
(0.00380042 0.000526768 -1.01967e-19)
(0.00489477 -0.000136314 -1.14119e-19)
(0.00570941 -0.000656369 -3.47231e-19)
(0.00562844 -0.000948178 3.15631e-19)
(0.00738254 -0.00237391 6.40106e-19)
(0.0062706 -0.00145165 -5.57851e-19)
(0.00611193 -0.00199535 2.11317e-19)
(0.00577234 -0.0081112 -1.53727e-18)
(0.00635482 -0.00738347 -7.94406e-19)
(0.0049881 -0.00671738 -7.10832e-20)
(0.00356866 -0.00874148 -2.95497e-18)
(0.00242875 -0.00268558 -2.23595e-18)
(0.00103463 -0.00513782 -6.42052e-20)
(-3.21746e-05 -0.00312933 -1.04291e-18)
(-0.000175846 -0.000911102 -1.52965e-18)
(-0.00210625 -0.00426607 -1.405e-19)
(-0.00219501 -0.00406053 4.00447e-19)
(-0.00199735 -0.00328559 -5.49453e-19)
(-0.0026255 -0.00298068 2.01411e-19)
(-0.00187893 -0.00230076 3.61646e-20)
(-0.00141837 -0.00164124 1.31725e-19)
(-0.000259546 -0.00079671 -7.65433e-20)
(0.000821426 -0.000170553 -5.44361e-20)
(0.00142899 7.80247e-05 -4.5977e-21)
(0.00155727 5.02508e-05 0)
(0.00158146 -7.5943e-05 0)
(0.00161163 -0.0001321 0)
(0.00158185 -9.61009e-05 0)
(0.00156234 -0.000282214 0)
(0.00155966 3.20648e-05 0)
(0.00158384 -0.000214734 0)
(0.000866169 -0.000361988 0)
(0.00090591 0.00042588 0)
(0.000910954 0.000306843 0)
(0.00100312 0.000445514 0)
(0.00104502 0.000764064 0)
(0.00116884 0.000856723 0)
(0.001333 0.00113612 0)
(0.00194524 0.00116597 2.8026e-21)
(0.00349414 0.00075311 -1.01486e-19)
(0.0048734 9.54947e-05 1.20019e-19)
(0.00562391 -3.46703e-05 -2.04559e-21)
(0.00638005 -0.00117833 1.28426e-19)
(0.00634207 0.00195681 -3.3455e-19)
(0.00289406 0.00225155 -1.11446e-19)
(0.00799276 -0.00425345 1.12544e-18)
(0.00815785 -0.00545218 -9.10921e-19)
(0.0098094 -0.00206695 1.0829e-18)
(0.00568146 -0.00674796 1.78226e-19)
(0.00500887 -0.0073004 2.63964e-18)
(0.00460625 -0.00798126 -3.57284e-18)
(0.00316915 -0.00616986 2.78205e-18)
(0.00142001 -0.0060967 -2.01877e-18)
(-0.00134332 -0.00573137 6.34452e-19)
(-0.00415024 -0.00333325 1.2844e-18)
(-0.000897348 -0.00601809 3.25232e-19)
(-0.00193161 -0.00341592 -6.51606e-20)
(-0.00285745 -0.000217952 2.6777e-19)
(-0.00359851 -0.0044947 3.42258e-19)
(-0.00290348 -0.00162376 -4.19537e-19)
(-0.0022962 -0.00164007 3.04279e-19)
(-0.00121885 -0.000829923 -1.92544e-19)
(1.81057e-05 -0.000296051 5.74336e-20)
(0.00127099 0.000168546 5.14094e-21)
(0.00170723 0.000270146 0)
(0.00166137 0.000253226 0)
(0.00158331 0.000111865 0)
(0.00156433 0.000196002 0)
(0.00154559 0.000177178 0)
(0.0015624 -5.66811e-05 0)
(0.00151252 0.000251829 0)
(0.000622591 0.000146577 0)
(0.000570573 0.000593262 0)
(0.000732271 0.00031832 0)
(0.000877056 0.00105087 0)
(0.000938278 0.00104856 0)
(0.00101201 0.0013145 0)
(0.00126615 0.00153736 -5.86564e-21)
(0.00255642 0.0012884 -6.00322e-20)
(0.00446411 0.000699579 1.36475e-20)
(0.00592966 0.000160597 7.14546e-20)
(0.00697321 -0.000489618 -4.98727e-20)
(0.0076175 -0.00149346 -1.06493e-19)
(0.00990629 0.00101002 1.92146e-19)
(0.011064 0.000836149 6.42718e-20)
(0.00837098 -0.00368859 -1.76432e-19)
(0.0121815 -0.00134304 3.60882e-19)
(0.00609549 -0.0100557 -1.54087e-18)
(0.0122046 -0.00656148 7.70696e-19)
(0.00930525 -0.0130245 7.21661e-20)
(0.00677535 -0.012852 -1.05227e-18)
(0.00286035 -0.00848238 -5.54717e-20)
(-0.00169594 -0.0105664 9.73427e-19)
(-0.00208179 -0.00759634 -1.07045e-18)
(5.68708e-05 -0.00967988 -1.66723e-19)
(-0.00674979 0.00191232 -1.13561e-19)
(-0.0054939 -0.00254872 7.18103e-19)
(-0.00237443 -0.00148609 -6.74785e-20)
(-0.00286595 -0.00219484 1.75726e-19)
(-0.00320278 -0.00101382 -1.56018e-19)
(-0.00233819 -0.000910581 -1.38113e-19)
(-0.00165917 -0.000833548 2.12076e-19)
(-0.000608589 -0.000607468 -8.91097e-20)
(0.00079886 -0.000197385 1.09921e-20)
(0.00181712 -5.34474e-05 -6.13728e-21)
(0.00187218 -9.2346e-05 0)
(0.00185583 -3.015e-05 0)
(0.00178603 -0.000189207 0)
(0.00170113 0.000197808 0)
(0.00154402 -0.000124065 0)
(0.00155381 7.11008e-05 0)
(0.000195433 0.000948095 0)
(0.000274921 -0.000122793 0)
(0.000166574 0.00121419 0)
(0.000100565 0.0010978 0)
(0.000317632 0.00125499 0)
(0.000516619 0.00160379 0)
(0.00117764 0.00161366 -1.54037e-20)
(0.00312326 0.00148089 -2.12813e-20)
(0.00513201 0.00134276 6.97263e-20)
(0.00674974 0.00104342 -4.87341e-20)
(0.00807996 0.0012334 -8.49897e-20)
(0.0102958 0.00123411 1.48393e-19)
(0.0122133 0.000431423 -5.75886e-20)
(0.00406337 0.00411119 1.97369e-19)
(0.00891978 -0.00218414 3.88499e-20)
(0.00990108 0.00721144 3.51912e-19)
(0.00819372 -0.00263762 2.93128e-19)
(0.0124943 -0.00426504 -5.66939e-19)
(0.0106254 -0.00754886 1.88434e-19)
(0.00857754 -0.0164341 -4.96931e-19)
(0.000526101 -0.0175566 -8.86447e-19)
(-0.00697361 -0.0132777 -1.25357e-18)
(-0.0112884 -0.00814165 3.15467e-19)
(-0.00525631 -0.00387603 -1.24044e-18)
(-0.00758288 -0.00207329 -8.14609e-20)
(-0.00583234 -0.0050608 -8.27947e-19)
(-0.00770102 0.000998321 1.0903e-19)
(-0.000339516 -0.000548312 9.54697e-20)
(-0.0014782 -0.000775539 -1.9878e-19)
(-0.00205616 -0.000880108 2.10684e-20)
(-0.00174873 -0.000900834 4.31195e-20)
(-0.00102966 -0.000856714 -3.04605e-20)
(0.000222458 -0.000550589 4.12107e-20)
(0.00163469 -0.000210856 -1.56246e-21)
(0.00172508 -0.000346805 0)
(0.00144982 -0.000373055 0)
(0.0012836 -0.000508169 0)
(0.00133 -0.00072521 0)
(0.0014952 -3.1069e-06 0)
(0.00151387 -0.000584275 0)
(-0.000271685 -0.000642272 0)
(-0.000109834 0.000685792 0)
(3.37346e-05 0.000731289 0)
(0.000364235 0.000615641 0)
(0.000374261 0.00124467 0)
(0.000431555 0.0015644 0)
(0.00124307 0.00187783 2.68626e-21)
(0.0032196 0.00204453 -6.56743e-21)
(0.00480426 0.00269021 2.52807e-20)
(0.00652943 0.00294533 -4.75791e-20)
(0.00780971 0.00357759 -8.98279e-21)
(0.00887861 0.00503329 1.03645e-19)
(0.00903203 -0.000767723 -8.89973e-20)
(0.0114805 -0.000847668 2.59783e-19)
(0.0138292 0.00400118 -2.55674e-19)
(0.00662577 0.00517161 3.50517e-20)
(0.00451918 0.0105617 6.122e-20)
(0.0167543 0.00377215 6.13662e-20)
(0.0287982 -0.00326966 -3.60986e-20)
(0.0253655 -0.0277348 -8.48305e-19)
(-0.00206492 -0.0437787 2.99963e-18)
(-0.0262333 -0.0211438 1.14072e-19)
(-0.0168759 0.000214151 8.35857e-20)
(-0.0119751 0.00502716 5.49977e-20)
(-0.00633091 -0.0060476 -3.18037e-20)
(0.00187275 0.0047596 4.53456e-20)
(0.000301465 -0.00405269 -7.18221e-20)
(-0.00193263 0.00381497 -5.24471e-20)
(-0.00217264 -0.00184014 4.05273e-20)
(-0.00189292 -0.00113591 5.80678e-21)
(-0.00174753 -0.000962236 -3.10258e-21)
(-0.00131598 -0.000903217 4.35909e-21)
(-0.000309092 -0.000793542 4.38498e-22)
(0.00137868 -0.000376044 -5.07788e-21)
(0.00210651 -5.07788e-05 0)
(0.00199829 -4.69299e-05 0)
(0.00194384 0.000270076 0)
(0.00159939 -0.000129186 0)
(0.00139873 -3.5545e-05 0)
(0.00119793 0.000119814 0)
(-0.000798942 -0.0007641 0)
(-0.00118844 0.000653769 0)
(-0.000737093 -9.88267e-05 0)
(-0.000714353 0.000954452 0)
(-0.000580668 0.00145775 0)
(-0.000507518 0.00182655 0)
(0.000404219 0.00240782 4.96042e-22)
(0.0022003 0.0028855 2.43314e-21)
(0.00369643 0.00349748 1.41932e-21)
(0.00523701 0.00399674 -7.12939e-21)
(0.00681899 0.00379 -5.72499e-21)
(0.00604905 0.00400764 2.05109e-20)
(0.00431014 0.00240963 -1.39196e-20)
(0.0115463 0.00413878 1.60311e-20)
(0.00495525 0.00832949 -5.09267e-21)
(0.0163511 0.00363922 1.51506e-20)
(0.0157252 0.00939504 1.1725e-19)
(0.0175138 0.0170867 1.44448e-20)
(0.0858986 0.00641211 -1.72351e-18)
(-0.0424715 0.0199144 -2.86898e-18)
(-0.00195363 0.0226115 -1.9495e-20)
(0.00304518 0.018907 5.60613e-20)
(-0.00298693 0.00758098 5.87578e-20)
(-0.00265659 -4.72828e-05 2.32795e-20)
(-0.0052704 0.00169148 -1.00118e-20)
(-0.00426163 -0.0005535 2.81487e-21)
(-0.00249647 -0.000594595 9.17216e-22)
(-0.00201162 -0.000756349 1.6186e-21)
(-0.00130629 -0.000843526 -3.26313e-21)
(-0.000564531 -0.000943359 -4.86885e-22)
(0.000628391 -0.000908364 5.6455e-22)
(0.00144313 -0.000599749 0)
(0.00145944 -0.000380005 0)
(0.00130587 5.22236e-06 0)
(0.00126201 0.000634516 0)
(0.000932791 -5.93896e-05 0)
(0.00101197 0.00108933 0)
(-0.000634601 0.00244653 0)
(-0.000710843 0.000780642 0)
(-0.00109791 0.00189037 0)
(-0.00142776 0.00205767 0)
(-0.00144045 0.00179977 0)
(-0.00135483 0.00180641 0)
(-0.000614704 0.00219687 -1.85213e-21)
(0.00123155 0.00292504 1.61744e-20)
(0.00327315 0.00357194 -4.89165e-21)
(0.00445535 0.00391747 2.00012e-20)
(0.0108225 0.00225576 -3.07202e-20)
(0.00359886 2.73615e-05 -6.16971e-20)
(0.00637128 0.00531383 9.77333e-20)
(0.00715687 0.00732542 3.24378e-20)
(0.00492242 0.00458767 -9.66684e-20)
(0.00148869 0.0117772 -8.71461e-20)
(-0.000597377 0.01598 3.78617e-20)
(0.0100912 0.027721 -5.46629e-21)
(-0.00937803 0.0413562 4.29525e-18)
(0.0252455 0.0523781 2.19237e-18)
(0.00426585 0.0241699 -4.58139e-21)
(0.0113554 0.00671284 8.05751e-21)
(0.00457798 0.00221223 4.52557e-20)
(0.000682246 0.00164281 2.5893e-20)
(-0.00427896 -0.00291118 4.24308e-20)
(-0.00772677 0.00106515 -1.43423e-20)
(0.000238933 0.000387682 3.42687e-20)
(-0.00274233 -0.00147266 -5.59779e-21)
(-0.00163849 -0.001171 -1.40176e-20)
(-0.000529666 -0.000829549 6.96924e-21)
(0.000452479 -0.000766961 -1.80699e-21)
(0.000741671 -0.000844721 0)
(0.000662349 -0.00100586 0)
(0.00062398 -0.00152544 0)
(0.000973995 -0.00130319 0)
(0.00122729 -0.000961849 0)
(0.0019381 -0.00121411 0)
(-0.00378318 0.00065166 1.7635e-22)
(-0.00206418 0.000460627 0)
(-0.00151914 0.0019219 0)
(-0.00071089 0.0017503 0)
(-0.000536799 0.00176152 0)
(-0.00124799 0.0017676 0)
(-0.0017219 0.00241333 -4.16953e-22)
(-0.00027823 0.00358968 1.56117e-20)
(0.00242206 0.00329465 3.61439e-20)
(0.00202464 0.0102062 -1.37939e-19)
(0.00907216 0.000781418 5.59396e-20)
(0.00191116 -0.00507236 -1.05754e-19)
(0.00609547 0.00792572 1.9439e-19)
(0.0118375 0.0103263 -5.38082e-20)
(0.00694047 0.00397718 -3.69201e-19)
(-0.0199234 -0.00286666 -1.96655e-19)
(-0.0134094 0.0116657 -2.21346e-19)
(-0.0216665 0.0504549 -9.97904e-20)
(-0.0172564 -0.00533331 -3.73586e-19)
(0.029995 -0.000327921 -3.99384e-19)
(0.0204652 -0.0176744 1.46634e-19)
(0.0132494 -0.011151 -2.33747e-19)
(0.0183055 -0.0119059 -1.90353e-19)
(0.0217459 0.00396621 3.91021e-19)
(-0.000736732 -0.00982836 -1.12763e-19)
(-0.00618194 0.00556874 1.10576e-19)
(0.000226142 0.00101853 -5.99128e-20)
(-0.00511536 -0.00796389 1.02529e-20)
(-0.00192737 -0.0012283 -2.5708e-20)
(-0.00142541 -0.00145823 -2.32976e-20)
(0.000480552 -0.000723044 1.21006e-20)
(0.00189154 -0.000697013 0)
(0.00208806 -0.000965482 0)
(0.00175292 -0.00142592 0)
(0.00107211 -0.00166269 0)
(0.000965273 -0.000397224 0)
(-0.000199023 -0.0028357 0)
(-0.000821053 -0.00571554 -2.88033e-23)
(-0.00286783 -0.000301201 0)
(-0.0016132 -0.000490423 0)
(-0.00113647 -0.000271848 0)
(-0.00124299 -8.73864e-05 0)
(-0.0019717 7.73389e-05 0)
(-0.0030959 0.00139632 5.10361e-21)
(0.000155704 0.00669877 9.29385e-21)
(-0.00139758 0.00131911 1.37496e-20)
(0.00437377 0.0065818 8.89557e-21)
(0.0135039 0.0104551 -8.01184e-20)
(0.011837 0.0208374 -1.09011e-19)
(0.0285662 -0.0049655 2.6706e-19)
(0.0125419 0.0777481 -2.94612e-19)
(-0.00288537 -0.0198807 1.61889e-19)
(0.0205298 0.0127821 -1.19869e-18)
(-0.0294705 -0.00420232 1.13985e-18)
(-0.0303269 0.0460168 1.25082e-18)
(-0.060487 0.0850009 -3.25932e-19)
(-0.212007 0.0404618 5.08512e-19)
(-0.0219069 -0.054793 1.67837e-20)
(-0.207445 -0.0151491 5.65156e-19)
(-0.0712446 -0.136167 1.08648e-18)
(0.0594288 -0.078848 7.23968e-19)
(0.00357028 -0.0130026 -5.72289e-19)
(-0.0495165 0.024395 8.14917e-20)
(0.0161699 -0.0537105 8.2627e-19)
(0.0112941 0.0116652 5.85559e-19)
(-0.000873225 -0.0207199 -3.20576e-19)
(0.00358534 -0.006731 -8.72611e-20)
(-0.00218686 -0.00263382 -4.04329e-20)
(-0.00447851 0.000272759 -8.45494e-22)
(0.000823402 -0.00417062 4.87989e-20)
(0.000412047 0.000282674 9.03934e-21)
(0.00147106 0.0012471 0)
(0.00191668 0.000557952 0)
(0.00214997 0.000498881 0)
(0.00139225 0.000588324 0)
(-0.0004135 0.00119654 0)
(0.000751792 0.00577775 0)
(0.00458581 0.00227264 -1.53398e-20)
(-0.00430998 0.00316378 0)
(-0.00536663 0.00400679 0)
(-0.00493055 0.00182258 0)
(-0.0051593 0.00156934 0)
(-0.00790763 0.000406171 0)
(-1.03374e-05 0.00583086 5.61408e-23)
(0.000975547 0.00633555 -2.54403e-20)
(0.000213494 0.00249172 -6.73646e-20)
(0.00917754 0.0102763 -1.20981e-20)
(-0.0170056 -0.0137412 -3.27624e-20)
(-0.0174054 -0.00980572 1.62122e-19)
(0.0294335 0.0698266 1.6979e-19)
(-0.0289267 -0.0230538 -3.24172e-19)
(-0.0398658 -0.00523319 3.07037e-19)
(0.158252 0.0715291 -1.34022e-19)
(-0.0990028 -0.00469806 -3.74304e-19)
(-0.358992 0.0826592 2.53895e-18)
(-0.43933 -0.044576 -6.47856e-19)
(3.53899 -0.968528 -2.68897e-18)
(3.38237 0.941868 -4.86612e-19)
(1.3524 1.3307 4.98899e-19)
(0.545936 0.252593 -4.3311e-18)
(0.394513 -0.0801508 1.31287e-18)
(-0.0288077 0.0525739 -8.35638e-19)
(0.00103307 -0.0330564 2.51978e-19)
(-0.143238 0.0399459 7.40542e-19)
(0.0175095 -0.0637485 -3.16602e-19)
(-0.0327379 0.0159643 -1.8314e-19)
(-0.024821 0.0193337 -1.01622e-19)
(0.000385043 -0.00686011 4.84537e-20)
(-0.00203705 -0.000737925 1.05851e-19)
(0.0036167 -0.00530581 8.96494e-21)
(0.00291416 -0.00440237 1.55984e-22)
(-0.00468362 -0.000133417 0)
(-0.00119974 -0.00071756 0)
(-0.00193577 -0.00114375 0)
(-0.0024807 -0.00334248 0)
(-0.00118339 -0.0026677 0)
(0.00799507 -0.000646523 -1.31898e-20)
(-0.00585403 0.00407102 4.33585e-20)
(-0.00194181 0.00122287 0)
(-0.0027678 0.0007628 0)
(-0.00599218 -0.0010982 0)
(-0.0065825 -0.00172284 0)
(-0.000905432 0.00339757 0)
(-0.00551892 0.00724278 0)
(-0.00382782 0.00512364 7.58775e-21)
(0.00156978 0.0164054 2.12518e-21)
(0.0188327 0.0208213 -8.49391e-20)
(0.0286958 0.0339795 9.17655e-20)
(0.0247711 0.0151923 2.1284e-19)
(-0.0457588 -0.0337138 -5.30805e-19)
(0.0586157 0.0382299 3.87715e-19)
(0.0815503 0.0222034 2.58461e-19)
(-0.107556 -0.172188 -1.76711e-19)
(0.267016 0.011883 -2.32483e-19)
(-1.00362 0.46476 5.74174e-19)
(3.05449 -1.82325 4.65318e-18)
(-3.27116 1.43385 1.2923e-18)
(2.77766 0.865962 4.21819e-18)
(-5.57436 -2.62186 5.63944e-18)
(0.353314 0.874049 1.10863e-18)
(-0.763726 0.789251 -7.98234e-19)
(-0.0600322 -0.0723163 7.11679e-20)
(-0.00907922 0.0727523 -2.30713e-19)
(0.0406579 -0.041903 -2.62333e-19)
(-0.0638116 0.0563972 6.80284e-19)
(0.0120359 -0.00949051 6.17869e-22)
(0.0234908 -0.030363 -2.36264e-19)
(0.0164014 -0.0171283 9.35846e-20)
(0.00152415 -0.0107633 -2.13263e-20)
(-0.00345758 -0.00168139 1.92076e-21)
(-0.00207249 -0.00487991 0)
(0.00165386 -0.00120147 0)
(-0.00405502 0.00237826 0)
(-0.0019832 0.000544064 0)
(0.00152134 -0.00149285 0)
(0.00202889 -0.00183455 0)
(-0.00320605 -0.00424962 -4.70389e-20)
(-0.00700759 0.000297461 -3.77765e-21)
(-0.00566933 0.000478701 0)
(-0.00611668 0.00252834 0)
(-0.00507096 0.00571033 0)
(-0.00507018 0.00471857 0)
(-0.00504393 0.0073362 0)
(0.00306836 0.0156834 0)
(8.51472e-05 0.00391786 0)
(-0.00870978 -0.00585472 3.57369e-21)
(-0.0214505 -0.00133495 -7.19569e-22)
(-0.00954607 0.0302252 3.6524e-21)
(0.0299828 0.0297838 6.14562e-20)
(-3.84403e-05 0.0130045 -1.52965e-19)
(-0.0135249 -0.00799835 -7.54006e-21)
(0.0204372 -0.00473786 -4.75158e-19)
(0.0908072 0.0697091 -6.76345e-20)
(-0.362462 -0.282701 -1.41013e-18)
(2.05459 0.595607 -2.97376e-18)
(0.294497 -1.97981 -1.86848e-18)
(-1.1148 2.96456 -3.22788e-18)
(-0.724565 -1.13587 2.79558e-20)
(-0.12407 -0.766296 7.99446e-18)
(-2.05365 1.00754 1.42242e-18)
(0.887759 -0.681593 -1.44258e-17)
(0.1154 -0.0644133 1.0606e-18)
(0.000368581 -0.0338429 3.96465e-19)
(-0.039513 0.026372 7.95845e-20)
(-0.0179068 0.00612827 3.7215e-19)
(0.0231337 -0.0180891 -1.95288e-19)
(-0.0163952 -0.0193605 -1.38085e-19)
(-0.0248399 0.00852543 6.03452e-20)
(-0.00798159 0.00945053 1.08688e-21)
(0.00455365 -0.00290042 0)
(0.00635035 -0.0141839 0)
(-0.00144464 -0.00562116 0)
(-0.000974535 -0.00372845 0)
(-0.00138944 -0.00491849 2.27345e-20)
(-0.00272691 -0.00168596 3.14404e-20)
(-0.00244404 -1.97679e-05 1.87482e-20)
(-0.00385384 -0.000392687 0)
(-0.00662826 -0.000984423 0)
(-0.00633135 -0.000395003 0)
(-0.00550552 -0.00163547 0)
(-0.00649378 9.74212e-05 0)
(-0.00713424 0.00216038 0)
(-0.00900831 -0.00027841 0)
(-0.0132134 -0.000207792 0)
(-0.00205391 0.0189138 0)
(0.0038686 0.013804 -6.05911e-24)
(-0.00774609 0.00394267 2.94243e-22)
(-0.0131263 0.0109989 -7.7798e-21)
(0.00984477 0.0374468 -6.5054e-20)
(0.0272128 0.0244299 -1.53959e-19)
(-0.0223073 0.0297946 -1.75341e-19)
(0.0733619 0.0866646 2.59544e-18)
(0.167365 0.0598121 2.3392e-19)
(0.380326 -0.173207 -6.85009e-20)
(-1.80382 0.321445 1.33757e-18)
(2.98145 1.12336 -1.10074e-18)
(-1.54602 -5.18427 2.62427e-18)
(-2.25362 0.555889 3.53927e-18)
(-0.821572 4.9462 5.89466e-18)
(3.43647 -2.62782 -6.93476e-19)
(-0.892705 -0.0450372 9.17833e-20)
(-0.458505 0.280414 -4.82636e-19)
(0.0808327 -0.0538525 4.12794e-20)
(-0.0365437 0.0232244 -1.5748e-19)
(0.0260709 0.0040518 -6.78038e-20)
(0.0122852 -0.0185911 -6.82312e-20)
(-0.00962172 0.00213744 -1.83675e-20)
(-0.000665501 0.00296478 -2.22643e-21)
(0.0085335 -0.0109163 4.95628e-23)
(0.00189878 -0.0158664 0)
(-0.00905865 0.0033438 0)
(-0.00282615 0.000674221 0)
(-0.00162053 -0.00148117 0)
(-0.00143682 0.000838055 0)
(-0.000656267 0.00206348 0)
(-0.00156353 0.000385874 0)
(-0.00157367 0.00147379 -3.37658e-21)
(-0.00652273 -0.00114624 0)
(-0.0106324 0.000349874 0)
(-0.00775443 0.00294515 0)
(-0.0043877 0.00420868 0)
(-0.00393946 0.00521877 0)
(-0.00535518 0.00321406 0)
(-0.0102764 -0.00220976 0)
(-0.0176036 0.000940224 0)
(-0.0124883 0.0139573 0)
(-0.0156794 0.0145473 0)
(-0.0176442 0.00550279 4.10946e-22)
(-0.0358537 0.0119805 -2.13947e-21)
(0.00230489 0.0704269 -6.55861e-20)
(-0.0250471 0.092574 8.75806e-20)
(0.0230549 0.0844243 7.85726e-18)
(0.119842 0.00419083 -3.4952e-19)
(0.502387 0.522036 4.00523e-18)
(-0.543332 0.314474 1.6607e-18)
(-2.50519 -2.03768 1.73181e-18)
(1.07009 -0.937592 6.73815e-18)
(2.36414 -0.182899 -2.86877e-18)
(0.398543 1.50121 5.50937e-18)
(-2.40598 1.72264 -1.71305e-18)
(0.0841819 0.0274622 -5.93597e-20)
(0.221997 -0.297951 2.52015e-18)
(-0.0737535 -0.0686142 2.24232e-19)
(0.0184127 -0.0450725 1.17413e-20)
(0.0308257 -0.0383102 -1.95552e-20)
(-0.0139737 0.0076391 1.4798e-20)
(-0.00437023 0.0083426 -8.50045e-22)
(-0.00468095 -0.0101875 0)
(-0.00555168 -0.0112908 0)
(-0.0120505 -0.000559733 0)
(-0.00416927 -0.000228827 0)
(0.000477685 -0.00597121 0)
(0.000723174 -0.00689941 0)
(-0.000842275 -0.0051109 0)
(-0.00483668 -0.00337998 0)
(-0.00774716 -0.000621844 0)
(-0.0033334 0.000847629 0)
(-0.00312411 0.000984863 0)
(-0.00343612 -0.00163838 0)
(-0.00895915 -0.00332253 0)
(-0.0106268 -0.0016071 0)
(-0.00844798 0.000957667 0)
(-0.00717978 0.00358666 0)
(-0.00885554 0.00347532 0)
(-0.0153853 -0.000348775 0)
(-0.0158828 0.00204334 0)
(-0.0153148 0.0110463 0)
(-0.0220459 0.0171815 0)
(-0.0244094 0.0337174 1.85864e-22)
(-0.0835554 0.00342617 2.18744e-21)
(-0.100224 0.045836 -3.66935e-20)
(-0.0865281 0.110558 2.69675e-18)
(-0.168966 0.509443 -1.12149e-18)
(-0.42078 -0.242005 2.03626e-18)
(1.52927 1.57853 -8.02636e-20)
(-0.935341 1.00784 -4.33183e-19)
(-0.346209 1.28798 1.46312e-18)
(-0.405685 0.18223 -8.50722e-19)
(-0.430155 -1.55664 3.14008e-18)
(-0.562571 -1.03019 -4.86112e-19)
(1.73974 -1.23817 1.1777e-19)
(-0.733753 0.754376 -3.50021e-20)
(0.0409851 0.145609 8.88511e-19)
(-0.0189223 -0.0211141 -2.98366e-19)
(-0.0318299 0.0143069 -1.55385e-20)
(0.0164233 -0.0288089 -4.62624e-22)
(0.00097477 -0.0208344 0)
(0.000163686 -0.0108353 0)
(-0.00617474 -0.00480602 0)
(-0.00806572 -0.00349893 0)
(-0.00229299 -0.00791208 0)
(-0.00246855 -0.00635436 0)
(-0.00493673 -0.00317854 0)
(-0.00730424 0.00040205 0)
(-0.00546671 0.00261797 0)
(-8.98287e-05 0.00115379 0)
(-0.000433625 -0.00127176 0)
(-0.0105281 0.000886849 0)
(-0.0074085 0.00309355 0)
(-0.00483107 0.0016117 0)
(-0.00703287 -0.000588689 0)
(-0.0100406 -0.00232845 0)
(-0.0117451 -0.00240694 0)
(-0.0114582 0.00024625 0)
(-0.0120361 0.00140718 0)
(-0.0194979 -0.00300607 0)
(-0.0272559 -0.0049044 0)
(-0.0349871 -3.03868e-05 -5.24423e-21)
(-0.0551062 -0.0168133 0)
(-0.0704697 -0.000414002 0)
(-0.0528725 -0.136655 7.55341e-19)
(-0.330537 0.0320721 -1.35326e-18)
(-0.174701 0.361969 4.39613e-18)
(2.66643 1.04354 3.20161e-20)
(-2.32135 -2.93315 1.8009e-19)
(-3.07203 -1.8021 -1.03451e-19)
(-1.01408 0.350436 -5.20094e-18)
(-0.852385 -0.795341 -2.87356e-20)
(-1.91387 -0.0872212 2.59299e-18)
(-3.56818 3.34632 -2.30795e-19)
(1.20814 1.3341 1.97876e-19)
(1.77522 -1.66171 -1.3009e-20)
(-0.101603 -0.0557287 -1.437e-19)
(0.0725834 0.102402 -1.30859e-18)
(-0.0126084 -0.0260595 0)
(-0.0194211 0.00150996 0)
(-0.011611 -0.0126742 2.96052e-21)
(-0.00986831 -0.0037062 0)
(-0.00697516 -0.00497824 0)
(-0.00327857 -0.00808341 0)
(-0.00609682 -0.00545963 0)
(-0.00768408 -0.00119749 0)
(-0.00651544 -0.000540972 0)
(-0.00418434 -0.00189173 0)
(-0.0026955 -0.00360203 -3.7417e-21)
(-0.00546541 -0.0040328 -2.68434e-21)
(-0.0076344 -0.00126643 0)
(-0.00404554 -0.00408368 0)
(-0.00647371 -0.0047424 0)
(-0.00770542 -0.002614 0)
(-0.00594028 -0.00178183 0)
(-0.00674129 -0.00189027 0)
(-0.00825782 -0.00358486 0)
(-0.0115121 -0.00665162 0)
(-0.0148145 -0.00708826 0)
(-0.015926 -0.00731629 0)
(-0.0171078 -0.0122103 0)
(-0.0225925 -0.0254905 -5.49262e-21)
(-0.0188891 -0.0392666 0)
(-0.00620898 -0.0635079 0)
(-0.172066 -0.111018 3.26017e-19)
(-0.423804 -0.396727 -6.31699e-18)
(0.521373 -0.354991 -1.24003e-19)
(-0.329221 -1.35686 0)
(-2.23411 -0.323973 7.63914e-19)
(-1.68467 1.60659 2.64609e-18)
(-1.82911 -0.33821 9.38169e-19)
(-2.04204 0.0715314 -3.01684e-18)
(-1.94482 -1.53375 1.81849e-18)
(-2.34708 0.422984 5.95189e-19)