/*--------------------------------*- C++ -*----------------------------------*\
| =========                 |                                                 |
| \\      /  F ield         | OpenFOAM: The Open Source CFD Toolbox           |
|  \\    /   O peration     | Version:  v2106                                 |
|   \\  /    A nd           | Website:  www.openfoam.com                      |
|    \\/     M anipulation  |                                                 |
\*---------------------------------------------------------------------------*/
FoamFile
{
    version     2.0;
    format      ascii;
    arch        "LSB;label=32;scalar=64";
    class       volVectorField;
    location    "0";
    object      U;
}
// * * * * * * * * * * * * * * * * * * * * * * * * * * * * * * * * * * * * * //

dimensions      [0 1 -1 0 0 0 0];

internalField   nonuniform List<vector> 
11644
(
(0.997497 -0.000210345 -1.28268e-23)
(0.997395 -0.000551689 -3.53726e-23)
(0.997335 -0.000808492 -1.89783e-23)
(0.997319 -0.00106748 0)
(0.997315 -0.00133612 0)
(0.997313 -0.00160761 0)
(0.997313 -0.00187626 0)
(0.997314 -0.00213437 0)
(0.997316 -0.00237092 0)
(0.99732 -0.00256909 0)
(0.997302 -0.00271877 0)
(0.997301 -0.00279419 0)
(0.997374 -0.002776 0)
(0.997519 -0.00269516 0)
(0.997379 -0.00241588 0)
(0.997376 -0.00215219 0)
(0.99716 -0.0017291 0)
(0.996776 -0.000853138 0)
(0.996701 0.00032437 0)
(0.996925 0.00127595 3.2213e-30)
(0.997051 0.00200535 -3.23273e-30)
(0.997167 0.00270084 0)
(0.997322 0.00329307 0)
(0.997437 0.0037668 0)
(0.997335 0.00406227 0)
(0.997304 0.00424104 0)
(0.997458 0.00428582 0)
(0.997268 0.0042165 0)
(0.997271 0.00403484 0)
(0.997306 0.003767 0)
(0.997295 0.00345015 0)
(0.997303 0.00309148 0)
(0.997306 0.00271722 0)
(0.997309 0.00233831 0)
(0.997312 0.00196674 0)
(0.997316 0.00160972 0)
(0.997321 0.00127157 0)
(0.997338 0.000956295 0)
(0.99741 0.00065019 0)
(0.997529 0.000246156 -2.48699e-24)
(0.998216 -0.000425945 -1.6476e-23)
(0.998142 -0.00128489 -1.5262e-23)
(0.998089 -0.00213932 -8.19674e-24)
(0.998076 -0.00297892 0)
(0.998082 -0.0038103 0)
(0.998087 -0.00463531 0)
(0.99808 -0.00544654 0)
(0.998053 -0.00622224 0)
(0.997997 -0.00693161 0)
(0.99789 -0.00753709 0)
(0.997776 -0.00797335 0)
(0.99758 -0.00819867 0)
(0.997215 -0.00812045 0)
(0.996695 -0.00764247 0)
(0.996528 -0.0068266 0)
(0.996 -0.00547609 -4.13475e-24)
(0.995243 -0.00353887 8.08409e-24)
(0.99467 -0.00118372 -6.23986e-23)
(0.994576 0.0014032 -9.02652e-23)
(0.994786 0.00407988 6.60205e-22)
(0.995011 0.00652956 -4.8897e-22)
(0.995124 0.00863808 -1.31567e-22)
(0.99537 0.0105035 1.07613e-22)
(0.99583 0.0120402 -3.46638e-24)
(0.996568 0.0130969 1.42863e-24)
(0.997106 0.0135636 0)
(0.997304 0.013619 0)
(0.997913 0.0131767 0)
(0.998145 0.0124781 0)
(0.998265 0.0115652 0)
(0.998384 0.0104743 0)
(0.998404 0.00931748 0)
(0.998399 0.00812452 0)
(0.998365 0.00693936 0)
(0.99832 0.00578531 0)
(0.998272 0.00467645 0)
(0.998234 0.00361028 0)
(0.998232 0.00256619 0)
(0.998289 0.0015228 0)
(0.998371 0.000501667 0)
(0.999665 -0.000670329 0)
(0.999613 -0.00204469 0)
(0.999583 -0.00345943 0)
(0.999583 -0.00487167 0)
(0.999598 -0.00627671 -1.50505e-23)
(0.999606 -0.00767239 0)
(0.999581 -0.00904619 0)
(0.999496 -0.0103672 0)
(0.999318 -0.0115919 0)
(0.999038 -0.0126435 0)
(0.998542 -0.0134556 0)
(0.997862 -0.0138868 0)
(0.997097 -0.0137911 -4.95646e-25)
(0.996217 -0.0131051 1.52481e-22)
(0.994673 -0.0115101 2.20943e-22)
(0.993149 -0.0090424 -6.54546e-22)
(0.991584 -0.00576255 -7.20359e-23)
(0.990294 -0.00192774 3.28236e-22)
(0.98959 0.00251762 5.31654e-22)
(0.989575 0.00750962 -6.29772e-23)
(0.990194 0.0124519 3.02273e-22)
(0.991246 0.0167179 3.84241e-22)
(0.992511 0.0199844 -1.43553e-21)
(0.994009 0.0223578 2.59673e-22)
(0.995449 0.0238429 4.04819e-22)
(0.99697 0.0244356 -2.27282e-22)
(0.998624 0.0241067 -1.36287e-22)
(0.999282 0.0232176 5.20412e-26)
(1.00002 0.0217345 0)
(1.0005 0.0198796 0)
(1.00068 0.0178641 0)
(1.00074 0.0157349 0)
(1.00068 0.0136191 0)
(1.00055 0.0115523 0)
(1.0004 0.00956685 0)
(1.00025 0.0076699 0)
(1.00013 0.00585233 0)
(1.00005 0.00409695 0)
(1.00003 0.00239843 0)
(1.00007 0.000778355 0)
(1.00187 -0.000932751 0)
(1.00183 -0.0028374 0)
(1.00183 -0.00478129 0)
(1.00185 -0.00675293 0)
(1.00188 -0.00874407 0)
(1.0019 -0.0107501 0)
(1.00185 -0.0127488 0)
(1.00169 -0.0147063 0)
(1.00137 -0.0165592 0)
(1.00077 -0.0182403 0)
(0.999927 -0.0195755 -1.20201e-25)
(0.99872 -0.0204103 2.83555e-22)
(0.996879 -0.0205531 -4.60425e-22)
(0.994194 -0.0197004 -2.64268e-22)
(0.991678 -0.0176661 -3.03973e-22)
(0.988653 -0.0142846 3.49844e-22)
(0.985597 -0.00958863 5.14941e-22)
(0.982921 -0.00379841 1.25181e-21)
(0.981024 0.00316032 -7.35118e-23)
(0.980628 0.0108848 -1.64846e-21)
(0.98172 0.0185432 -1.60312e-22)
(0.984044 0.0254625 -2.25149e-21)
(0.987069 0.031003 3.0545e-21)
(0.990477 0.0346285 -1.43592e-21)
(0.994009 0.0365993 4.61595e-22)
(0.997319 0.0370489 2.53132e-22)
(0.99952 0.0363703 2.05453e-22)
(1.00197 0.0342115 2.47439e-22)
(1.00332 0.0315528 -2.57891e-23)
(1.00406 0.0285132 4.96691e-25)
(1.00441 0.0252778 0)
(1.0044 0.0220655 0)
(1.0042 0.0189211 0)
(1.0039 0.0159259 0)
(1.00356 0.0130956 0)
(1.00323 0.0104319 0)
(1.00295 0.00792263 0)
(1.00274 0.00553778 0)
(1.00263 0.00325656 0)
(1.00261 0.00107411 0)
(1.0048 -0.00121058 0)
(1.00478 -0.00365569 0)
(1.00481 -0.00614204 0)
(1.00488 -0.00867443 0)
(1.00497 -0.0112611 0)
(1.00502 -0.0139142 0)
(1.00498 -0.0166174 0)
(1.00478 -0.019338 0)
(1.00431 -0.0220266 0)
(1.0035 -0.02454 1.32075e-23)
(1.00214 -0.02673 -1.44792e-22)
(0.999874 -0.0284135 -3.46521e-22)
(0.996863 -0.0291827 8.37345e-22)
(0.99329 -0.0287156 -1.42573e-21)
(0.988062 -0.0267197 2.87846e-21)
(0.98265 -0.0227433 -2.0419e-21)
(0.977479 -0.0168293 6.00882e-22)
(0.972376 -0.00884862 -1.16448e-22)
(0.96829 0.00132616 -9.70545e-22)
(0.966854 0.0131298 -9.7889e-22)
(0.968723 0.0252428 3.34204e-22)
(0.973501 0.0361611 2.27597e-22)
(0.979783 0.0446228 1.49976e-21)
(0.987301 0.0497355 -5.67608e-22)
(0.993359 0.0518249 1.75293e-21)
(0.998773 0.0518371 -2.23432e-21)
(1.00408 0.0494239 7.92131e-22)
(1.00645 0.0462827 -2.84016e-22)
(1.00838 0.041933 -3.65153e-23)
(1.00934 0.0371792 2.19254e-22)
(1.00963 0.0324586 -5.43017e-24)
(1.00948 0.0279463 0)
(1.00901 0.0237288 0)
(1.0084 0.0197995 0)
(1.00775 0.0161649 0)
(1.00715 0.0128014 0)
(1.00663 0.00967775 0)
(1.00624 0.00675444 0)
(1.00599 0.00397397 0)
(1.0059 0.00129721 0)
(1.00844 -0.00147439 0)
(1.00845 -0.00443247 0)
(1.00855 -0.00747555 0)
(1.00871 -0.0105751 0)
(1.0089 -0.0137983 0)
(1.00906 -0.0171519 0)
(1.00913 -0.0206479 0)
(1.00899 -0.0242782 0)
(1.00853 -0.0279771 3.24737e-23)
(1.00749 -0.0316238 4.54249e-22)
(1.00544 -0.0350783 -3.09244e-22)
(1.00239 -0.0380068 -4.82716e-22)
(0.998096 -0.0402363 2.17704e-23)
(0.99148 -0.0414935 3.39252e-22)
(0.984804 -0.0401224 -4.70927e-22)
(0.976295 -0.0363693 7.71048e-22)
(0.966183 -0.0298321 6.31026e-22)
(0.95677 -0.0191473 -4.29387e-22)
(0.949217 -0.00417374 -6.53757e-21)
(0.946107 0.0131955 1.57812e-20)
(0.948633 0.0310905 -1.14795e-20)
(0.95616 0.0475712 -1.23678e-22)
(0.967299 0.0609541 2.37118e-21)
(0.980428 0.0683988 -1.13185e-21)
(0.99228 0.0702063 5.11078e-24)
(1.00241 0.0693094 6.73516e-22)
(1.00874 0.0659648 -6.1409e-22)
(1.01415 0.0588276 -8.4708e-22)
(1.01644 0.0520927 1.40268e-21)
(1.01705 0.0453463 1.08931e-22)
(1.01674 0.0389107 -1.64122e-22)
(1.01603 0.033017 -1.47361e-24)
(1.01508 0.0276932 0)
(1.01397 0.0228965 0)
(1.01286 0.0185618 0)
(1.01185 0.0146344 0)
(1.01101 0.011039 0)
(1.01036 0.00770967 0)
(1.00993 0.00455701 0)
(1.00974 0.00152377 0)
(1.01274 -0.00169794 0)
(1.0128 -0.00519169 0)
(1.01302 -0.00870249 0)
(1.01334 -0.0123838 0)
(1.01373 -0.0162425 0)
(1.01413 -0.0203395 0)
(1.01446 -0.0247109 0)
(1.01458 -0.0293754 -7.2958e-24)
(1.0142 -0.0342506 1.79029e-24)
(1.01287 -0.0393097 1.27359e-22)
(1.01048 -0.044369 -1.149e-21)
(1.00681 -0.0493569 1.2604e-21)
(1.00165 -0.0541571 7.66102e-22)
(0.995367 -0.0577248 1.4161e-22)
(0.983887 -0.0603654 9.1089e-22)
(0.970028 -0.0588048 -2.01228e-21)
(0.960905 -0.0464451 -3.35622e-21)
(0.946356 -0.0352183 -1.79303e-21)
(0.93316 -0.0167431 -2.20899e-21)
(0.925608 0.00744097 6.82166e-21)
(0.927228 0.033698 2.81034e-21)
(0.937075 0.0570182 -2.11948e-21)
(0.952564 0.0745491 -3.20275e-21)
(0.970198 0.0839152 -5.28675e-21)
(0.994053 0.0957585 2.07595e-21)
(1.00902 0.0915333 -7.30093e-22)
(1.02107 0.0812944 -1.56515e-22)
(1.02499 0.0729215 -1.71881e-21)
(1.02746 0.0623532 6.69309e-22)
(1.02751 0.0527051 1.04209e-22)
(1.02608 0.0442222 1.35946e-22)
(1.0242 0.0368853 -1.06687e-23)
(1.02228 0.0305463 -4.58187e-24)
(1.02044 0.0250233 0)
(1.01869 0.0201537 0)
(1.01715 0.0158089 0)
(1.01588 0.0118826 0)
(1.0149 0.00826179 0)
(1.01426 0.00485804 0)
(1.01396 0.00157628 0)
(1.01764 -0.00195693 0)
(1.01779 -0.00582176 0)
(1.01816 -0.0098621 0)
(1.01873 -0.0140554 0)
(1.01946 -0.0185085 0)
(1.02026 -0.0233262 0)
(1.02107 -0.0285907 0)
(1.02163 -0.034312 -9.24843e-24)
(1.02132 -0.040462 -3.01284e-22)
(1.02015 -0.0469479 -1.39081e-22)
(1.0181 -0.053861 9.63228e-22)
(1.01487 -0.0613653 -7.52103e-22)
(1.01 -0.0691087 7.84872e-22)
(0.999929 -0.0737475 -1.74081e-21)
(0.990749 -0.0772053 -5.46264e-22)
(0.973871 -0.0820415 4.1943e-21)
(0.949992 -0.0799242 -2.02897e-21)
(0.925249 -0.0677923 5.44187e-21)
(0.899064 -0.0434835 5.03215e-22)
(0.881269 -0.00537976 1.88579e-21)
(0.881316 0.0397324 2.11804e-21)
(0.899443 0.0798144 7.81069e-21)
(0.929813 0.106441 5.2794e-21)
(0.962499 0.117989 3.34328e-21)
(0.992437 0.119462 1.94454e-21)
(1.01445 0.110364 1.20642e-21)
(1.02763 0.0985089 -1.8882e-21)
(1.04172 0.0842982 -2.46985e-22)
(1.04251 0.0710047 -2.07566e-22)
(1.04094 0.0586669 7.83302e-22)
(1.03771 0.047979 -3.17809e-22)
(1.03404 0.0391294 2.59701e-22)
(1.0305 0.0318904 -1.26784e-23)
(1.02756 0.0258768 0)
(1.02499 0.0207053 0)
(1.02279 0.0161625 0)
(1.021 0.0121073 0)
(1.01966 0.00840572 0)
(1.01877 0.00496644 0)
(1.01835 0.00165039 0)
(1.02304 -0.00205422 0)
(1.02331 -0.00627253 0)
(1.02392 -0.0106297 0)
(1.02484 -0.0152234 0)
(1.02603 -0.0202194 0)
(1.02745 -0.0256907 0)
(1.02899 -0.0317611 4.7481e-24)
(1.03006 -0.0384491 -6.24309e-23)
(1.0301 -0.0456695 1.72138e-22)
(1.0297 -0.0535057 3.51484e-22)
(1.02876 -0.0624665 -1.89778e-22)
(1.02701 -0.0729611 -9.38294e-22)
(1.02329 -0.0864679 1.25807e-21)
(1.01195 -0.0964541 -2.27377e-21)
(1.00102 -0.107074 -1.4119e-22)
(0.981956 -0.121345 2.89804e-23)
(0.95387 -0.122915 -1.79177e-21)
(0.909707 -0.119322 -2.352e-21)
(0.860367 -0.0932154 1.83183e-22)
(0.818027 -0.0357878 4.42028e-21)
(0.80949 0.0437409 1.18755e-21)
(0.841284 0.114001 -2.6286e-21)
(0.896013 0.154129 9.6078e-22)
(0.954831 0.165819 2.86564e-21)
(0.99859 0.156399 -2.01982e-21)
(1.03426 0.139819 -3.33145e-22)
(1.04888 0.11845 8.11968e-22)
(1.06367 0.0965455 -3.86073e-23)
(1.06183 0.0770238 5.19715e-22)
(1.05738 0.0618689 -1.75142e-22)
(1.05144 0.0494527 -1.35278e-22)
(1.04531 0.0394179 1.11949e-22)
(1.03956 0.0314954 -4.27183e-23)
(1.03498 0.0252473 -6.50453e-24)
(1.03143 0.020084 0)
(1.02849 0.0156355 0)
(1.02614 0.0116935 0)
(1.0244 0.00813938 0)
(1.02325 0.00476492 0)
(1.02271 0.00160551 0)
(1.02876 -0.00216596 0)
(1.02918 -0.00654951 0)
(1.03008 -0.0110524 0)
(1.03145 -0.0159098 0)
(1.03329 -0.0211976 0)
(1.03553 -0.0270827 0)
(1.03798 -0.0336953 -2.21724e-23)
(1.03964 -0.0410254 1.13266e-22)
(1.04047 -0.0489611 -1.85654e-23)
(1.0415 -0.0579208 -1.03325e-23)
(1.04267 -0.0687834 -3.3295e-22)
(1.04377 -0.0823379 1.57606e-22)
(1.04437 -0.0998975 1.41691e-22)
(1.03695 -0.116658 -2.03201e-22)
(1.02884 -0.136981 -6.86026e-23)
(1.00616 -0.163662 -6.3398e-22)
(0.97235 -0.185683 -3.47992e-22)
(0.911034 -0.209151 -8.25969e-22)
(0.812408 -0.202955 4.18653e-21)
(0.69732 -0.120288 2.28001e-21)
(0.652586 0.0466342 -1.35922e-22)
(0.730892 0.201492 8.68892e-22)
(0.861952 0.261587 2.98877e-22)
(0.965631 0.24817 2.87158e-22)
(1.03446 0.211046 -7.64356e-22)
(1.07445 0.170067 8.21789e-22)
(1.08404 0.131124 3.53014e-22)
(1.09281 0.0992043 -4.0587e-23)
(1.08501 0.0769302 6.23602e-23)
(1.07619 0.0606124 2.69677e-24)
(1.06662 0.0475881 -9.8017e-23)
(1.0574 0.0371559 9.93308e-23)
(1.04902 0.0291056 -3.02474e-23)
(1.04233 0.0230247 1.62266e-23)
(1.03761 0.01822 0)
(1.03387 0.0141276 0)
(1.03095 0.0105273 0)
(1.02881 0.00726887 0)
(1.02744 0.00429204 0)
(1.02678 0.00133502 0)
(1.03454 -0.00207367 0)
(1.03514 -0.00638664 0)
(1.0364 -0.0109151 0)
(1.03834 -0.0157775 0)
(1.04093 -0.0210991 0)
(1.04417 -0.0270964 0)
(1.04755 -0.0338485 -6.50679e-24)
(1.04992 -0.0412444 8.8274e-24)
(1.05203 -0.049422 4.84891e-23)
(1.05519 -0.0590387 -4.37428e-23)
(1.0595 -0.0708281 -7.59967e-23)
(1.06506 -0.0857178 2.05313e-22)
(1.07225 -0.10382 -1.58883e-22)
(1.07197 -0.126953 -1.96215e-22)
(1.07321 -0.157326 -2.14014e-22)
(1.06647 -0.199302 8.48464e-23)
(1.04377 -0.25622 -4.07113e-23)
(0.986596 -0.346395 3.57576e-22)
(0.823603 -0.44749 -2.12018e-21)
(0.45854 -0.419608 -6.31596e-20)
(0.18827 0.06898 1.28985e-20)
(0.523859 0.521901 -3.85593e-20)
(0.900087 0.503237 1.27728e-21)
(1.06633 0.367533 9.13993e-23)
(1.12318 0.257687 -7.60275e-23)
(1.13963 0.176799 -7.6501e-23)
(1.13145 0.132828 -3.41612e-22)
(1.12511 0.0874846 1.72618e-22)
(1.11019 0.068381 -1.60858e-22)
(1.09578 0.0531596 5.6417e-24)
(1.0819 0.0411705 -1.61978e-23)
(1.06931 0.0317649 3.2117e-23)
(1.05816 0.0245543 1.40786e-23)
(1.04914 0.0191993 -1.35228e-23)
(1.0431 0.015188 0)
(1.03867 0.0118394 0)
(1.03525 0.0088995 0)
(1.03275 0.00618866 0)
(1.03114 0.00368415 0)
(1.03036 0.00127843 0)
(1.04015 -0.00212622 0)
(1.04096 -0.00603615 0)
(1.04262 -0.0102155 0)
(1.04511 -0.0146613 0)
(1.0485 -0.0196565 0)
(1.05278 -0.0253492 0)
(1.05706 -0.0317312 -2.31786e-23)
(1.06024 -0.0386162 -1.45473e-23)
(1.06395 -0.0463451 -5.76658e-24)
(1.06968 -0.0556636 4.67438e-23)
(1.07756 -0.0669406 7.31962e-23)
(1.08784 -0.0805478 1.02031e-22)
(1.10204 -0.097295 -1.91903e-22)
(1.10886 -0.121766 -9.7876e-23)
(1.12737 -0.150272 5.51845e-22)
(1.14404 -0.197148 -7.06236e-23)
(1.16705 -0.267176 4.79352e-22)
(1.20467 -0.397436 1.09839e-21)
(0.886334 -0.472541 -7.79102e-20)
(1.14729 0.60259 7.51359e-20)
(1.31304 0.38739 1.58689e-22)
(1.25597 0.232287 1.57015e-22)
(1.21684 0.143922 9.07944e-23)
(1.18244 0.105595 7.19836e-23)
(1.1566 0.0624629 4.44776e-22)
(1.13301 0.0488188 -1.52837e-22)
(1.11281 0.0380196 -1.20989e-22)
(1.09497 0.0296546 -9.54615e-23)
(1.07946 0.0230631 -6.43053e-23)
(1.06595 0.0178632 -4.98961e-23)
(1.05481 0.0139619 -2.21787e-23)
(1.04744 0.0111309 0)
(1.04245 0.00881669 0)
(1.03867 0.00670517 0)
(1.03594 0.00476321 0)
(1.03412 0.00277153 0)
(1.03329 0.000967303 0)
(1.04523 -0.0014654 0)
(1.0462 -0.00505521 0)
(1.04821 -0.0086568 0)
(1.05129 -0.0125544 0)
(1.05549 -0.0168863 0)
(1.06079 -0.0218193 0)
(1.06583 -0.0272727 -1.61285e-24)
(1.06987 -0.0331402 1.45039e-24)
(1.07531 -0.0398423 -1.05738e-24)
(1.08343 -0.0479321 1.11711e-22)
(1.09456 -0.0576719 -1.98014e-22)
(1.10874 -0.0687196 5.95225e-23)
(1.12739 -0.0810033 3.65425e-22)
(1.14088 -0.100651 1.82603e-22)
(1.17146 -0.118156 4.50221e-21)
(1.20543 -0.147929 -1.79145e-22)
(1.2639 -0.185925 5.46098e-23)
(1.3492 -0.223836 1.88731e-21)
(0.0135156 0.0120497 3.87219e-19)
(0.0600902 0.00230076 -1.93798e-19)
(1.48528 0.187499 -3.51775e-22)
(1.35415 0.124074 1.13704e-22)
(1.27436 0.071843 2.692e-21)
(1.22181 0.0520721 4.47026e-21)
(1.17638 0.0234241 6.32304e-22)
(1.14722 0.01994 3.21229e-23)
(1.12333 0.0165728 -9.27067e-23)
(1.10336 0.0139606 -8.5688e-24)
(1.0862 0.0116423 -1.83675e-23)
(1.07115 0.00954675 -5.65559e-25)
(1.05858 0.00777783 8.90215e-24)
(1.05026 0.00649318 0)
(1.04489 0.00535641 0)
(1.04089 0.00414688 0)
(1.03807 0.00294053 0)
(1.03633 0.00182623 0)
(1.03547 0.000475851 0)
(1.04937 -0.00136102 -1.74375e-25)
(1.05061 -0.00390212 0)
(1.05301 -0.00662061 0)
(1.05659 -0.00959399 0)
(1.0614 -0.0128422 0)
(1.06745 -0.0165366 0)
(1.07312 -0.0206183 -1.65108e-24)
(1.07811 -0.0251583 3.97344e-23)
(1.08522 -0.0305212 -4.78425e-23)
(1.09537 -0.0370228 -1.40881e-22)
(1.10872 -0.0447182 1.76953e-22)
(1.12494 -0.0529479 2.56095e-22)
(1.14454 -0.0611702 -2.57618e-22)
(1.15953 -0.0735784 8.29538e-22)
(1.18936 -0.0785746 -1.28113e-21)
(1.22431 -0.0853107 1.66834e-21)
(1.28151 -0.083897 -2.24318e-22)
(1.21592 -0.0427553 1.06875e-22)
(0.0948096 0.0185032 -2.85875e-21)
(0.238147 0.0286573 1.91248e-20)
(1.46773 -0.00150712 -4.66102e-22)
(1.378 -0.00377137 4.12699e-22)
(1.29079 -0.0169182 -2.37416e-21)
(1.23413 -0.0141811 -1.27638e-21)
(1.17909 -0.0217658 1.24434e-21)
(1.14885 -0.0130791 -5.1187e-22)
(1.12455 -0.00763526 -2.94526e-22)
(1.10464 -0.00350143 -6.44312e-23)
(1.08763 -0.000924619 1.4491e-23)
(1.07281 0.00054257 1.57435e-23)
(1.05998 0.00139633 -3.81841e-23)
(1.05145 0.00186317 0)
(1.04622 0.00198322 0)
(1.04236 0.00181213 0)
(1.03954 0.0014146 0)
(1.03771 0.000915773 0)
(1.03681 0.000376268 0)
(1.05299 -0.00100326 -4.635e-26)
(1.05411 -0.00252074 0)
(1.05659 -0.00412205 0)
(1.06038 -0.00583042 0)
(1.06555 -0.00769431 0)
(1.07207 -0.00982581 0)
(1.0785 -0.0123237 -2.6854e-24)
(1.08457 -0.0153109 -6.5582e-24)
(1.09327 -0.0192099 -1.17697e-22)
(1.10496 -0.0240708 2.08831e-22)
(1.11947 -0.0298285 7.40715e-22)
(1.13662 -0.0364251 -1.42266e-21)
(1.15509 -0.0436851 7.51775e-22)
(1.16757 -0.0512449 1.56629e-22)
(1.18623 -0.0520322 1.21006e-21)
(1.20499 -0.0419898 -5.89565e-22)
(1.23162 -0.00832872 7.73578e-22)
(1.02574 0.103605 -1.73547e-22)
(-0.0116041 0.260527 1.67136e-21)
(-0.237601 0.424056 2.67374e-21)
(-0.0401879 0.552098 1.53772e-22)
(0.236318 0.408128 -3.00737e-23)
(0.659176 0.0211051 3.74265e-22)
(1.45755 -0.138603 2.17021e-22)
(1.35959 -0.125745 -4.31936e-21)
(1.26929 -0.105474 -3.09609e-22)
(1.2162 -0.0791543 7.94906e-22)
(1.16116 -0.0627654 9.96217e-22)
(1.13549 -0.0437672 -4.15747e-22)
(1.11485 -0.0300148 -3.12057e-22)
(1.09775 -0.0195367 -6.72139e-23)
(1.08301 -0.0123402 2.0016e-23)
(1.06989 -0.00739428 -5.60574e-23)
(1.05837 -0.00412284 1.66176e-23)
(1.05066 -0.00203412 0)
(1.04592 -0.000813209 0)
(1.04246 -0.000152845 0)
(1.03994 0.000130146 0)
(1.03826 0.000117448 0)
(1.03747 0.000108402 0)
(1.05444 0.000135848 2.29008e-23)
(1.05584 -0.000386633 0)
(1.05827 -0.000893687 0)
(1.06212 -0.00136507 0)
(1.06753 -0.00179093 0)
(1.07441 -0.0021982 0)
(1.08171 -0.00288122 3.12428e-25)
(1.08886 -0.00428053 -2.79287e-23)
(1.09883 -0.00653661 1.70086e-22)
(1.11186 -0.00975444 -1.66644e-22)
(1.12741 -0.0139381 1.53095e-22)
(1.14548 -0.0196041 -4.78594e-22)
(1.16333 -0.0265788 4.07352e-22)
(1.17301 -0.0371924 1.07518e-22)
(1.18272 -0.0458314 -7.03502e-22)
(1.17782 -0.0508165 -3.08466e-22)
(1.13924 -0.0283301 1.28289e-21)
(0.662236 0.106992 1.43871e-20)
(-0.263753 0.289286 1.38127e-21)
(-0.32182 0.2902 5.07517e-22)
(0.177036 0.114134 -3.4565e-21)
(0.626105 -0.0760401 7.02537e-21)
(1.22458 -0.331102 -2.18509e-21)
(1.39738 -0.332495 -3.74179e-22)
(1.29058 -0.245919 8.28095e-22)
(1.21017 -0.182339 -1.23949e-21)
(1.17062 -0.129611 -1.05926e-21)
(1.12456 -0.0917822 1.61889e-21)
(1.10857 -0.0647812 -4.9297e-22)
(1.09512 -0.0452045 -3.90997e-22)
(1.08355 -0.0302544 4.84281e-22)
(1.07307 -0.0197034 -3.71532e-22)
(1.06315 -0.0122201 1.33445e-23)
(1.05416 -0.0075171 -6.21836e-26)
(1.04823 -0.00476126 0)
(1.04449 -0.0030041 0)
(1.04165 -0.00182837 0)
(1.03959 -0.00107396 0)
(1.03827 -0.000484178 0)
(1.03781 -0.000194081 8.04493e-23)
(1.05385 0.000393585 1.29582e-22)
(1.05537 0.00135981 0)
(1.058 0.0023635 0)
(1.06188 0.00332897 0)
(1.06722 0.00442696 0)
(1.07412 0.00579317 0)
(1.08211 0.00712239 0)
(1.0906 0.00756262 -1.49512e-23)
(1.10143 0.00710536 -3.28137e-24)
(1.11538 0.00601352 1.71443e-23)
(1.1323 0.00409374 1.14057e-22)
(1.15238 -7.78428e-05 -3.62085e-22)
(1.17447 -0.00558139 -6.10344e-23)
(1.19917 -0.0209312 2.888e-22)
(1.20342 -0.041179 8.41765e-22)
(1.20987 -0.0793577 -2.43938e-21)
(1.13558 -0.12413 9.68434e-22)
(0.448697 -0.0997711 -1.05462e-19)
(-0.200708 -0.190284 2.3115e-21)
(-0.0601221 -0.431282 -2.11575e-20)
(0.422416 -0.586716 -1.00341e-20)
(0.8614 -0.710538 2.51557e-22)
(1.21186 -0.689712 6.49566e-21)
(1.20493 -0.467874 3.1966e-20)
(1.1353 -0.31427 3.60511e-21)
(1.11665 -0.224682 -3.09668e-21)
(1.0813 -0.146615 -8.07666e-22)
(1.07711 -0.100404 -2.72907e-22)
(1.07319 -0.0711887 2.48835e-22)
(1.06888 -0.0497106 -1.71847e-22)
(1.06466 -0.0333488 -6.60661e-23)
(1.05987 -0.0215152 5.2682e-23)
(1.05424 -0.0132547 5.13968e-23)
(1.04887 -0.00794115 0)
(1.04512 -0.00506978 0)
(1.0425 -0.00334244 0)
(1.04042 -0.00213572 0)
(1.03886 -0.00134484 0)
(1.03784 -0.000708873 0)
(1.03731 -0.00023105 -5.47178e-23)
(1.05226 0.000806369 7.81026e-24)
(1.05352 0.00275068 0)
(1.05591 0.00498101 0)
(1.05952 0.00738371 0)
(1.06449 0.0100619 0)
(1.07103 0.013192 0)
(1.07929 0.0166911 0)
(1.08905 0.0196638 0)
(1.10087 0.0219218 5.91041e-24)
(1.11537 0.0238548 -1.84352e-23)
(1.1335 0.025826 -1.35882e-23)
(1.15618 0.0263036 -1.14702e-22)
(1.18445 0.026608 -3.56829e-22)
(1.21954 0.0225014 4.3482e-23)
(1.24435 -0.00766093 6.72163e-22)
(1.29448 -0.0482455 8.75475e-22)
(1.24818 -0.138276 -1.14242e-21)
(0.621844 -0.301446 5.3147e-21)
(0.185076 -0.592663 4.46741e-21)
(0.192441 -0.823276 -4.24361e-21)
(0.490998 -0.887694 5.93414e-21)
(0.805503 -0.805577 -1.13045e-20)
(0.915534 -0.635749 3.55538e-21)
(0.943515 -0.463863 1.51883e-20)
(0.982049 -0.299207 1.79268e-21)
(1.01094 -0.207882 8.44848e-22)
(1.01389 -0.12645 -6.47881e-22)
(1.02779 -0.0850839 9.53688e-22)
(1.03657 -0.0604158 -3.6947e-23)
(1.04199 -0.0416762 -4.12841e-23)
(1.04492 -0.0277333 4.21074e-23)
(1.04548 -0.0175906 -2.73954e-23)
(1.04465 -0.0103704 0)
(1.04341 -0.00590725 0)
(1.04207 -0.0037323 0)
(1.0406 -0.00246842 0)
(1.03921 -0.0015942 -2.37579e-23)
(1.03804 -0.00100112 -3.28556e-23)
(1.03717 -0.000579954 -1.95921e-23)
(1.0367 -9.93635e-05 0)
(1.04923 0.00128908 0)
(1.05025 0.00406261 0)
(1.05223 0.0071101 0)
(1.05529 0.0105522 0)
(1.05954 0.0145322 0)
(1.06525 0.0192547 0)
(1.07306 0.0248482 0)
(1.0832 0.0307274 0)
(1.09546 0.0367099 9.12305e-26)
(1.10991 0.0431106 1.01014e-24)
(1.12789 0.050948 -1.82014e-23)
(1.15107 0.0596042 -1.72398e-22)
(1.18132 0.0710965 -3.3857e-22)
(1.22236 0.0859045 -8.78874e-22)
(1.26881 0.0711832 -2.54368e-22)
(1.35317 0.0683117 -6.63896e-22)
(1.40272 0.0120704 -3.00962e-21)
(1.03425 -0.175084 -5.0916e-21)
(0.57154 -0.490188 -4.946e-21)
(0.384696 -0.737328 -4.11291e-21)
(0.423638 -0.808854 -3.82748e-22)
(0.56025 -0.687154 -6.37083e-21)
(0.682722 -0.485548 4.07958e-21)
(0.757035 -0.329263 1.62211e-21)
(0.848441 -0.214949 -7.08838e-22)
(0.919737 -0.144483 -1.19745e-21)
(0.957963 -0.0692558 1.50655e-22)
(0.987426 -0.04713 -9.02254e-23)
(1.00872 -0.0322293 -7.75165e-24)
(1.02192 -0.0216369 1.66524e-23)
(1.02996 -0.0138035 -1.84724e-24)
(1.03456 -0.00808935 -2.10424e-26)
(1.03748 -0.00409179 0)
(1.03934 -0.00194572 0)
(1.03989 -0.00113978 0)
(1.03921 -0.000720258 0)
(1.0382 -0.000434475 0)
(1.03726 -0.000227084 0)
(1.03659 -0.00014919 0)
(1.03629 -8.15692e-05 3.52857e-24)
(1.04506 0.00160138 0)
(1.04578 0.00496566 0)
(1.04726 0.00862156 0)
(1.04958 0.0127481 0)
(1.05279 0.0176141 0)
(1.05718 0.0234788 0)
(1.0637 0.0306 0)
(1.07287 0.0387999 0)
(1.08401 0.0482721 0)
(1.09667 0.0594592 0)
(1.11178 0.0737696 1.70528e-24)
(1.13105 0.0913932 2.91224e-23)
(1.15542 0.11524 -5.57317e-23)
(1.19029 0.146219 -5.19304e-23)
(1.24029 0.161159 -8.19239e-21)
(1.31699 0.208895 -3.35214e-23)
(1.43372 0.245868 2.18067e-22)
(1.33109 0.221612 6.99839e-21)
(0.997535 0.017384 -2.85567e-21)
(0.680699 -0.237881 2.82941e-20)
(0.467149 -0.40378 3.56686e-21)
(0.371315 -0.420976 -6.49557e-21)
(0.418619 -0.318403 -3.59347e-23)
(0.580971 -0.180765 7.82481e-22)
(0.781613 -0.0784081 -3.15677e-22)
(0.860639 -0.0412702 -6.12694e-23)
(0.927775 0.0132986 1.14757e-22)
(0.970254 0.00760216 -1.13911e-22)
(0.998296 0.00765085 4.01078e-23)
(1.01479 0.00543269 1.05378e-23)
(1.02472 0.00446283 0)
(1.03091 0.00386557 0)
(1.03526 0.00345301 0)
(1.0384 0.00271714 0)
(1.03963 0.00186573 0)
(1.03908 0.00123894 0)
(1.03805 0.000810172 0)
(1.03713 0.000511983 0)
(1.03649 0.000261184 0)
(1.03609 2.20352e-05 0)
(1.04034 0.00167238 0)
(1.0407 0.00529045 0)
(1.04155 0.009244 0)
(1.04293 0.0137381 0)
(1.04487 0.0190417 0)
(1.04762 0.0254135 0)
(1.05226 0.0332014 0)
(1.05937 0.0425393 0)
(1.06768 0.0540825 0)
(1.0763 0.0684657 0)
(1.08566 0.0872303 0)
(1.09672 0.111076 -3.59097e-25)
(1.10999 0.14272 -3.26879e-23)
(1.12868 0.183937 1.17712e-23)
(1.16411 0.222727 -2.58749e-21)
(1.19924 0.29351 1.35475e-21)
(1.29368 0.39146 -4.05528e-21)
(1.32961 0.522839 3.50887e-21)
(1.17693 0.583484 5.86616e-22)
(0.919608 0.532352 -4.06313e-21)
(0.655125 0.40612 -5.24791e-21)
(0.459321 0.249017 9.24197e-21)
(0.414293 0.102193 2.80746e-21)
(0.510504 0.014104 9.76333e-22)
(0.698981 0.0597696 -1.61357e-21)
(0.844768 0.0915496 -9.66163e-22)
(0.943077 0.0994589 4.85301e-22)
(0.986875 0.0650496 -8.8358e-23)
(1.01152 0.0471966 8.42441e-24)
(1.02387 0.0311809 0)
(1.0308 0.0211007 0)
(1.03499 0.0143004 0)
(1.0382 0.00974186 0)
(1.04077 0.00642019 0)
(1.04142 0.00408562 0)
(1.04031 0.00251208 0)
(1.03889 0.00146936 0)
(1.03772 0.000769377 0)
(1.03689 0.00033834 0)
(1.03632 5.0105e-05 0)
(1.0355 0.00169803 0)
(1.03543 0.0052305 0)
(1.0356 0.00905181 0)
(1.03602 0.0133749 0)
(1.03664 0.0184371 0)
(1.03766 0.0244867 0)
(1.04012 0.0320023 0)
(1.04442 0.0413699 0)
(1.04873 0.0534122 0)
(1.05192 0.068794 0)
(1.05408 0.0888955 6.28323e-24)
(1.05518 0.114782 0)
(1.05597 0.148317 0)
(1.05758 0.192055 -1.29027e-21)
(1.05579 0.251887 1.09119e-21)
(1.06836 0.310968 -4.57718e-21)
(1.07273 0.410936 9.54379e-22)
(1.07968 0.555127 -5.33247e-22)
(1.03922 0.682366 1.71565e-21)
(0.937897 0.741662 -8.42326e-21)
(0.818525 0.722393 -6.46459e-21)
(0.726336 0.620918 2.75194e-21)
(0.692646 0.469217 -2.21599e-23)
(0.686621 0.318539 -7.2801e-22)
(0.681224 0.224203 -9.71013e-23)
(0.893517 0.23575 3.98583e-21)
(1.00227 0.156128 3.77033e-21)
(1.03844 0.105798 0)
(1.04729 0.0727973 0)
(1.04784 0.0470512 -4.27691e-23)
(1.04676 0.0309025 0)
(1.04555 0.0199886 0)
(1.04532 0.0126556 0)
(1.04567 0.00765848 0)
(1.04467 0.00449383 0)
(1.04244 0.00250957 0)
(1.04026 0.00128711 0)
(1.03857 0.000559381 3.91013e-24)
(1.03736 0.000193261 2.80517e-24)
(1.03654 2.4937e-05 0)
(1.03072 0.00162167 0)
(1.03043 0.00464534 0)
(1.03016 0.00785321 0)
(1.02986 0.0113775 0)
(1.02938 0.0154664 0)
(1.02878 0.0203449 0)
(1.02885 0.0265922 0)
(1.02982 0.0349105 0)
(1.02976 0.0460162 0)
(1.02744 0.060365 0)
(1.02258 0.079045 7.00543e-23)
(1.01459 0.103406 0)
(1.0034 0.134248 0)
(0.988341 0.175228 -5.66986e-22)
(0.974861 0.227897 -9.60367e-22)
(0.955594 0.287287 8.03875e-22)
(0.92867 0.344294 0)
(0.901431 0.419137 -1.32942e-22)
(0.863555 0.508038 -4.52896e-21)
(0.821848 0.594164 -7.55791e-21)
(0.785678 0.63631 8.41113e-21)
(0.791431 0.633258 -1.64692e-20)
(0.820406 0.609396 1.09041e-21)
(0.849488 0.540314 0)
(0.869313 0.409219 1.02131e-21)
(1.022 0.272451 -1.00369e-21)
(1.10391 0.16592 -2.82594e-21)
(1.1119 0.112072 0)
(1.09496 0.0733409 0)
(1.07961 0.0465107 4.02349e-23)
(1.0679 0.0296889 0)
(1.05966 0.0181241 0)
(1.0547 0.0103462 0)
(1.05166 0.00531205 0)
(1.04827 0.00249541 0)
(1.04456 0.000937368 -7.07397e-24)
(1.04145 0.000140752 9.19251e-24)
(1.03916 -0.000170773 0)
(1.03758 -0.000170091 0)
(1.03662 -3.76521e-05 2.16021e-23)
(1.02681 0.00109733 0)
(1.02658 0.00324019 0)
(1.02618 0.00540915 0)
(1.02545 0.00771706 0)
(1.02417 0.0103475 0)
(1.02227 0.0134376 0)
(1.02007 0.0175004 3.47833e-24)
(1.01766 0.0234528 0)
(1.01352 0.0319344 0)
(1.00642 0.043112 0)
(0.995486 0.0578652 0)
(0.979672 0.0776005 0)
(0.957679 0.103098 0)
(0.931436 0.137219 -2.13913e-22)
(0.901491 0.182842 4.83538e-23)
(0.867857 0.245058 1.41442e-22)
(0.823665 0.321737 0)
(0.771656 0.408454 0)
(0.73596 0.49602 -1.75103e-21)
(0.732756 0.580415 -2.77634e-20)
(0.761883 0.603828 1.17488e-21)
(0.817515 0.599545 -5.49067e-21)
(0.890457 0.539584 0)
(0.982216 0.448609 0)
(1.07413 0.310393 0)
(1.18878 0.185054 1.10118e-23)
(1.21242 0.103889 -9.94869e-22)
(1.17693 0.0700193 5.37423e-23)
(1.13622 0.0436063 0)
(1.10736 0.0268411 0)
(1.08657 0.0154689 0)
(1.07231 0.00755087 0)
(1.06294 0.00232012 -3.10428e-23)
(1.05641 -0.000638081 -1.27213e-23)
(1.05066 -0.00175955 -6.40886e-25)
(1.04562 -0.00205813 0)
(1.04174 -0.00189421 0)
(1.03898 -0.00147446 0)
(1.0372 -0.000884747 0)
(1.03628 -0.000290254 0)
(1.02475 0.000315882 0)
(1.0245 0.00131449 0)
(1.02403 0.00220331 0)
(1.02311 0.00310966 0)
(1.0215 0.00400747 0)
(1.01891 0.00492065 0)
(1.01516 0.00613004 0)
(1.01013 0.00840104 0)
(1.00287 0.0122963 5.84124e-24)
(0.992084 0.0177378 0)
(0.976133 0.0252899 0)
(0.953299 0.0358423 0)
(0.923267 0.0517776 6.21118e-22)
(0.882317 0.073021 -2.5288e-21)
(0.822318 0.110686 0)
(0.762087 0.166226 0)
(0.707035 0.229276 0)
(0.663347 0.282153 0)
(0.65336 0.322417 -4.56437e-21)
(0.699806 0.354164 -5.58096e-21)
(0.792827 0.337491 -8.73948e-20)
(0.90188 0.331685 3.64525e-20)
(1.02298 0.247294 0)
(1.14293 0.170391 0)
(1.24022 0.0701539 0)
(1.30414 0.0144726 0)
(1.2669 -0.0065033 -1.11878e-21)
(1.2039 -0.00455451 -1.91089e-22)
(1.1543 -0.00667707 0)
(1.11991 -0.00702491 8.89632e-25)
(1.09533 -0.00853706 -1.18798e-23)
(1.07823 -0.00942494 -1.27722e-23)
(1.06627 -0.00967799 0)
(1.05747 -0.00892209 0)
(1.0504 -0.00741605 0)
(1.04481 -0.00588877 0)
(1.04068 -0.00441568 0)
(1.03777 -0.00307174 0)
(1.03593 -0.00180331 0)
(1.03502 -0.000587767 0)
(1.02455 -0.000140073 0)
(1.02417 -0.000335582 0)
(1.02372 -0.000722341 0)
(1.02296 -0.00128267 0)
(1.02163 -0.00221921 0)
(1.01925 -0.00363937 0)
(1.0152 -0.00554816 0)
(1.00926 -0.00764885 0)
(1.00088 -0.00982172 0)
(0.988832 -0.012534 0)
(0.970817 -0.0159077 -3.16527e-23)
(0.943655 -0.0201785 5.79643e-23)
(0.903663 -0.0221502 -7.89678e-21)
(0.84897 -0.017926 -1.00163e-20)
(0.77614 -0.00347001 0)
(0.710844 0.00249048 0)
(0.671226 -0.00301897 0)
(0.645926 -0.0201951 0)
(0.652174 -0.0461583 -1.30516e-20)
(0.72232 -0.067599 1.94479e-20)
(0.851845 -0.10637 -2.82596e-20)
(0.988248 -0.102425 1.12931e-19)
(1.12354 -0.157437 0)
(1.23497 -0.166973 0)
(1.29401 -0.183527 0)
(1.30389 -0.154118 0)
(1.2426 -0.114832 8.86043e-22)
(1.18374 -0.0791921 1.89556e-21)