/*--------------------------------*- C++ -*----------------------------------*\
| =========                 |                                                 |
| \\      /  F ield         | OpenFOAM: The Open Source CFD Toolbox           |
|  \\    /   O peration     | Version:  v2106                                 |
|   \\  /    A nd           | Website:  www.openfoam.com                      |
|    \\/     M anipulation  |                                                 |
\*---------------------------------------------------------------------------*/
FoamFile
{
    version     2.0;
    format      ascii;
    arch        "LSB;label=32;scalar=64";
    class       volScalarField;
    location    "0";
    object      p;
}
// * * * * * * * * * * * * * * * * * * * * * * * * * * * * * * * * * * * * * //

dimensions      [0 2 -2 0 0 0 0];

internalField   nonuniform List<scalar> 
11644
(
0.0447468
0.044843
0.0449741
0.0451445
0.0452075
0.0451733
0.0449057
0.0442012
0.0432729
0.0421113
0.040746
0.0394138
0.0379798
0.0371098
0.0371715
0.0354328
0.0336009
0.0329991
0.032809
0.0342279
0.0263625
0.0164327
0.0201754
0.0179023
0.0139538
0.0109047
0.00909779
0.00812407
0.00753281
0.0074323
0.00789072
0.00882843
0.00998997
0.0110158
0.0118281
0.0125203
0.0131109
0.0135829
0.0139273
0.014023
0.044993
0.0451443
0.04524
0.0453211
0.0454415
0.045512
0.0454773
0.0453057
0.0448831
0.044242
0.0432976
0.0421862
0.0409396
0.0392032
0.0372175
0.035532
0.0343868
0.0344557
0.0350288
0.0295968
0.0256539
0.0241222
0.0166326
0.0128263
0.0108147
0.00923633
0.00808565
0.00751071
0.00779899
0.00844502
0.00923268
0.0100673
0.0107838
0.0114971
0.0122592
0.0129643
0.0135653
0.0140367
0.0142818
0.0143166
0.0437789
0.0441761
0.0446532
0.0450617
0.0454797
0.0459629
0.0465235
0.0471817
0.0477641
0.0481065
0.0482563
0.0477556
0.0465053
0.0442008
0.0413122
0.0398005
0.0376563
0.0337627
0.0347095
0.0322126
0.0261065
0.0216716
0.019971
0.0141095
0.0104867
0.00859724
0.00792233
0.00795943
0.00843433
0.00924675
0.0100767
0.0106626
0.0112779
0.0119566
0.0126589
0.0132455
0.0136841
0.0139641
0.0140661
0.0140956
0.0422147
0.0424925
0.0430542
0.044009
0.0451316
0.0463877
0.0477762
0.0492605
0.050777
0.0521311
0.0528181
0.0525018
0.0510415
0.0482262
0.0445493
0.0417772
0.0382447
0.0335632
0.0335003
0.0200599
0.0253368
0.0180284
0.0177014
0.0162903
0.0126208
0.0101297
0.00944774
0.00952093
0.00979716
0.0102472
0.011038
0.0117215
0.0122748
0.0127653
0.0131658
0.0134736
0.013728
0.0138963
0.0140348
0.0140429
0.0406242
0.040754
0.0413271
0.0422866
0.0437527
0.0456743
0.0478791
0.0503443
0.0528856
0.0552986
0.0570983
0.0578623
0.0565173
0.0545044
0.0508815
0.0448864
0.0404563
0.0334992
0.0302321
0.0109783
0.0167603
0.0101956
0.0159708
0.0195543
0.0174846
0.0141604
0.0145456
0.01409
0.013889
0.013676
0.0135147
0.013691
0.0138753
0.0139506
0.014044
0.0141025
0.0140909
0.0140779
0.0140967
0.0141933
0.0370439
0.0375329
0.0383174
0.0394436
0.041205
0.0433487
0.0460782
0.0492651
0.0528119
0.056406
0.0595611
0.0614922
0.0623052
0.0595855
0.0535846
0.0453503
0.0384227
0.0277609
0.0168713
0.0106204
0.00955785
0.0192883
0.0215668
0.0285053
0.0310901
0.0296239
0.0251306
0.0226432
0.0195984
0.0169613
0.0154248
0.0145749
0.0142827
0.0140997
0.0139713
0.0139895
0.0140884
0.0144058
0.014669
0.0150162
0.03338
0.0334963
0.0338531
0.0351465
0.0366781
0.0388743
0.0417914
0.0454194
0.0496491
0.0535592
0.0564955
0.0586011
0.0587053
0.0611231
0.0630055
0.059736
0.0417153
0.0384135
0.0293388
0.01341
0.0234523
0.0349783
0.0364259
0.0399013
0.0397507
0.0426214
0.0382912
0.0287996
0.02122
0.0162984
0.0135915
0.0123653
0.0122492
0.0125747
0.012934
0.01337
0.013915
0.0142787
0.0148333
0.0146721
0.0281499
0.0281551
0.0288101
0.0293911
0.0304183
0.0323846
0.0349388
0.0383466
0.0419043
0.0444564
0.044995
0.0468175
0.0479508
0.0646542
0.0546754
0.0570669
0.0486847
0.0376067
0.0306473
0.025283
0.0283436
0.0424472
0.0474473
0.0439951
0.0524894
0.0481997
0.0345201
0.0254424
0.0169435
0.0116746
0.00927657
0.00848478
0.00875387
0.00976059
0.0108309
0.0115655
0.012252
0.0127446
0.0131487
0.0141318
0.019984
0.0203736
0.0210952
0.0217162
0.0233929
0.0249198
0.0269431
0.0292086
0.0300212
0.0297408
0.027974
0.0231141
0.0222672
0.0405417
0.0418568
0.0311672
0.0413462
0.0277799
0.0252084
0.0322135
0.0269758
0.0512369
0.0609936
0.0604608
0.0579258
0.0276278
0.018337
0.00359734
0.00341814
0.0045332
0.00418412
0.00407118
0.00483408
0.00617025
0.00752661
0.00898188
0.0102463
0.0119466
0.0126587
0.013287
0.0136954
0.0133813
0.0125469
0.0133469
0.0142726
0.015127
0.0162986
0.0171153
0.0165817
0.0143164
0.0115755
0.00533214
0.00318791
0.0297437
0.0134283
0.0102989
0.000805455
-0.0095826
-0.000656187
0.0125899
0.0518651
0.0773332
0.0838086
0.0527212
0.0345679
0.00929476
0.0151454
-0.0144835
-0.00779939
-0.00301844
-0.000835985
0.000940391
0.00269606
0.00429954
0.00599474
0.00761088
0.00858697
0.00909629
0.0104997
0.0101381
0.00556305
0.00548181
0.00618308
0.00649948
0.00614795
0.00672501
0.00705191
0.0063117
0.00605798
0.00436605
0.00156774
0.000428097
-0.00180489
0.0153033
-0.00681149
0.00206755
-0.00592472
-0.0498539
-0.0893735
-0.0796097
0.0653716
0.156135
0.106499
0.0446309
0.0187765
-0.00114258
-0.0186949
0.00510152
-0.00317783
-0.00343293
-0.00117717
0.000732176
0.00210843
0.00339489
0.00474623
0.00548126
0.00632977
0.00686985
0.00778133
0.0106807
-0.00370364
-0.00397414
-0.00248207
-0.00222129
-0.00111504
-1.09512e-05
0.00102856
0.00192206
0.00220554
0.0022389
-0.00154214
-0.00610293
-0.0139934
-0.014532
-0.00977466
-0.0247941
-0.0414797
-0.0880063
-0.305563
0.0594584
-0.0349696
-0.0526906
-0.0384561
-0.0199962
0.00268077
0.00584318
0.00715075
0.00596954
0.00602676
0.00649155
0.00661129
0.00677026
0.00670105
0.00662596
0.00738527
0.00664683
0.0058852
-0.0125589
-0.00953491
-0.0100685
-0.00871437
-0.00669863
-0.00478139
-0.00212764
0.00263128
0.00683462
0.0112031
0.0140533
0.0128676
0.000572585
0.0123676
0.0165235
0.0254395
0.023925
0.0230768
-0.0116901
-0.368551
-0.187086
-0.0761654
-0.0121737
0.0152877
0.0445305
0.0307693
0.0317786
0.0219742
0.0205001
0.0176789
0.0139833
0.0105895
0.00835245
0.00567773
0.00287542
0.00147182
-0.00188617
-0.0136448
-0.0191194
-0.0153268
-0.0118167
-0.00972528
-0.00757419
-0.00134057
0.00582755
0.0163052
0.0248395
0.0477638
0.0617862
-0.0033755
-0.00748684
-0.0222233
0.0891376
0.083364
0.155995
0.237023
-0.317445
-0.154807
-0.0455313
0.0462259
0.0877725
0.128088
0.0514691
0.0711773
0.0387847
0.0465923
0.0335867
0.0203805
0.013168
0.00812142
0.00511833
0.00198614
0.000296857
-0.000877115
-0.0299001
-0.0272879
-0.018194
-0.0163296
-0.0174242
-0.0153949
-0.00670205
-0.00883335
0.00565231
0.0305883
0.0247224
0.0627513
0.0485485
-0.034433
-0.123475
-0.00856041
0.10498
0.207436
0.0699628
-0.869065
-0.841024
-0.0673369
-0.049536
0.153698
0.127435
0.235076
0.227159
0.163866
0.130582
0.164873
0.00928734
0.080015
0.0565344
0.0187464
0.0113913
0.011388
0.0107567
0.0107394
0.00845381
0.00922969
-0.02872
-0.0246156
-0.0187818
-0.0165301
-0.0122593
-0.0164937
-0.01848
-0.00886826
-0.00426085
0.015837
0.0274642
-0.0306476
-0.013829
0.154099
-0.203576
0.0341173
-0.0722602
-0.224497
-0.563904
-0.450194
-0.756017
0.962331
0.858268
0.543683
0.540467
0.289709
0.373655
0.203434
0.224144
0.137867
0.0630561
0.0600776
0.0488575
0.020967
0.00918478
0.0117628
0.0152355
0.0139033
0.00753058
0.0195328
-0.0047065
-0.00418139
-0.00642073
-0.0138411
-0.0201486
-0.0233873
-0.0238837
-0.0330901
-0.0477439
-0.0415101
0.00914504
-0.0668551
-0.157393
-0.0315142
-0.484285
-0.415644
-0.330197
-0.226115
0.56537
-0.550742
0.366375
-0.270414
0.415685
0.740633
0.639093
0.529123
0.285035
0.233114
0.130935
0.042439
0.0946878
0.0877833
0.0689015
0.0193677
0.00416667
0.00228921
0.00815172
0.00439245
0.00524248
0.0066949
0.000308704
-0.0109688
-0.0217071
-0.0286402
-0.0365955
-0.0430006
-0.0490497
-0.0768325
-0.0800014
-0.101476
-0.110853
-0.117823
-0.0892124
-0.121595
-0.426468
-0.439105
-0.656373
-1.00918
-1.02356
2.57065
0.767203
-1.58427
-0.179784
0.8115
0.0633017
0.45611
0.598361
-0.0879896
0.128347
0.058838
0.0925324
0.0830881
0.0482922
0.0233886
0.0189971
0.00580124
-0.00685502
-0.00880511
0.000870944
0.001114
-0.0407033
-0.0417403
-0.0430454
-0.0446478
-0.052225
-0.0645989
-0.0634227
-0.082881
-0.093925
-0.129567
-0.180892
-0.312455
-0.0431035
-0.0244774
-0.475114
-0.457246
-0.950401
0.271457
-0.502257
-0.266656
-0.580102
0.394367
1.21557
-0.459284
0.41057
0.61226
0.242213
0.0767349
0.189823
0.10245
0.0690161
0.00958874
0.00313561
0.0259597
0.0367797
0.0206191
0.0038836
-0.00557858
-0.00898116
-0.00516468
-0.0534754
-0.0514646
-0.0559396
-0.0602021
-0.0633655
-0.0729757
-0.0777309
-0.0736609
-0.100115
-0.125172
-0.150403
-0.424752
0.103992
-0.112794
0.0571766
-0.245613
-0.147118
-1.60004
0.154903
-0.307765
-0.607295
-0.531615
0.383722
1.34739
0.341913
0.644954
0.494584
0.105536
0.141403
0.0239739
-0.0034159
-0.0124425
-0.00804219
0.0260137
0.0114611
-0.0097287
-0.0158746
-0.0175424
-0.0123906
-0.012306
-0.0578651
-0.058879
-0.0579879
-0.0558956
-0.0609064
-0.0686191
-0.075502
-0.0888761
-0.109217
-0.143451
-0.191821
-0.192155
-0.142317
-0.23913
0.206517
0.0989678
0.0103935
0.941902
-0.033335
-0.733661
0.0630617
0.272339
1.54271
-0.318569
1.21146
0.556918
0.508614
0.218697
0.0750785
-0.0772121
-0.0473906
-0.0236478
-0.0114696
-0.0508183
-0.0486448
-0.0480998
-0.0331132
-0.0265688
-0.0261149
-0.0300888
-0.0489058
-0.053072
-0.0517571
-0.0481834
-0.0514537
-0.0523206
-0.0608713
-0.0754597
-0.0807301
-0.0994788
-0.0896499
-0.0872741
-0.066389
-0.43514
-0.145213
-0.0899879
1.15096
0.110382
-2.18737
-2.66757
-1.39403
0.0762834
3.19461
0.342492
-0.739706
0.549454
0.326656
-0.425519
-0.192212
-0.169805
-0.118023
-0.0899562
-0.0865944
-0.0830298
-0.0683412
-0.0576854
-0.0461553
-0.0424879
-0.0412656
-0.036821
-0.0407967
-0.0336336
-0.0322053
-0.036872
-0.0370233
-0.0250175
-0.0326031
-0.0237715
-0.079188
-0.0905089
-0.129002
0.0212023
-0.0585283
-0.13334
0.458312
1.125
0.37813
0.499273
0.294279
-2.88258
2.29458
0.108772
0.400699
-1.67972
-1.48438
-0.673697
0.0853537
-0.253342
-0.188254
-0.220909
-0.168073
-0.127384
-0.130933
-0.100704
-0.0844772
-0.0705655
-0.059867
-0.0550123
-0.0515572
-0.0473204
-0.0449996
-0.0495027
-0.0428714
-0.0346764
-0.0265204
-0.0184158
-0.0126825
0.00041874
-0.0423241
-0.0229717
0.000191344
0.0968291
0.163009
0.108653
0.335693
0.364524
0.597436
0.919534
1.14804
2.73855
-0.768043
-0.900901
-1.73407
-0.385136
1.23132
1.05797
0.000208262
-0.117549
-0.170754
-0.168543
-0.162925
-0.133256
-0.135436
-0.11664
-0.0893037
-0.0759887
-0.0642284
-0.0554381
-0.0495593
-0.046713
-0.0521142
-0.0443069
-0.0438782
-0.0393107
-0.0308322
-0.0298682
-0.0141277
-0.00177973
0.0154074
0.0515124
0.0589004
0.0522273
-0.0553702
0.0712708
0.897734
0.121564
0.129114
0.171498
-0.238449
-0.938163
3.092
2.14432
1.58219
0.381012
-0.553449
-0.897748
-0.00142047
-0.0797513
-0.192598
-0.223345
-0.19229
-0.162407
-0.145968
-0.11938
-0.0936753
-0.0792317
-0.0654359
-0.0564949
-0.0518134
-0.0444359
-0.0515695
-0.0454993
-0.0427433
-0.0374652
-0.0303481
-0.0249002
-0.00992017
0.00875918
0.0497682
0.0918582
0.225817
0.236311
0.67243
-0.319841
0.374233
1.0198
0.715001
1.82791
-0.624909
-1.76214
1.02342
0.249786
-0.110987
0.420343
-0.101159
0.318111
0.105083
-0.624462
-0.277895
-0.385168
-0.227471
-0.181899
-0.142605
-0.113788
-0.0887531
-0.0759277
-0.0608165
-0.0449141
-0.0383495
-0.0369394
-0.0592885
-0.0538281
-0.0559483
-0.0465089
-0.040235
-0.0335134
-0.0225498
0.00257369
0.0314865
-0.0636521
-0.0116516
0.108847
0.207843
0.719182
0.554998
0.360571
-1.24174
-0.335536
0.649888
2.27174
-2.06975
-0.701768
1.11608
2.56674
-2.10548
-1.337
-0.961061
-0.374269
-0.237331
-0.0719804
-0.00513206
-0.154459
-0.11553
-0.0824717
-0.0663387
-0.0512446
-0.0435925
-0.0342877
-0.0338042
-0.0196767
-0.0612285
-0.0564701
-0.057344
-0.0560772
-0.0542799
-0.0515284
-0.0455079
-0.0354227
-0.0410778
-0.0780712
-0.0952166
-0.0688731
0.0206833
-0.440199
-0.102066
0.152994
0.302683
1.12808
0.875524
1.81309
-3.57067
-1.97345
-0.6043
-0.305211
-0.477712
-0.211766
-0.0296947
-0.0273634
-0.0552849
0.0447703
0.0172542
-0.0228741
-0.0390119
-0.0361194
-0.0290114
-0.0258705
-0.0232503
-0.0194839
-0.0170302
-0.01473
-0.055498
-0.064465
-0.0629982
-0.0602267
-0.0603892
-0.0665918
-0.0641564
-0.05647
-0.0684962
-0.116295
-0.129962
-0.0109181
-0.0656403
-0.0640541
-0.0691315
-0.0739397
-0.195437
-0.187994
-0.107406
-0.269467
0.627405
-0.0349131
0.148291
-0.325768
-0.0284242
-0.18539
-0.0794466
-0.0016888
-0.0196115
0.0503493
0.0496525
0.0254618
0.000978628
-0.000885624
0.00502301
0.00248755
0.00422361
0.00850786
0.0111938
0.00107602
-0.066375
-0.0601472
-0.0621471
-0.0646882
-0.0684773
-0.0738672
-0.0696085
-0.0534143
-0.0769677
-0.131988
-0.178026
-0.00663371
0.0504257
-0.0334577
-0.366081
-0.465123
-0.243211
-0.891221
2.13488
2.09371
0.558347
0.412244
-0.163472
-0.0406656
0.0874708
0.116214
0.17974
0.0590064
0.0564494
0.0629317
0.063104
0.0611992
0.0387931
0.031743
0.0295658
0.0254104
0.0213234
0.0167797
0.0108527
0.0188746
-0.0683575
-0.0639271
-0.0658673
-0.0677316
-0.0730412
-0.0765324
-0.0773586
-0.0789093
-0.0762461
-0.084184
-0.114745
-0.0847357
-0.188707
-0.0872123
0.301121
0.297981
-0.0901128
-0.590231
-0.0603193
-0.829273
1.04482
0.579617
0.500241
0.242282
0.101767
-0.022509
-0.0560771
0.144908
0.14612
0.119886
0.08977
0.0739839
0.0559274
0.0546063
0.045092
0.0368361
0.0315732
0.0295009
0.0261876
0.0327893
-0.0740056
-0.064932
-0.0693129
-0.0774037
-0.0862188
-0.0936498
-0.0978719
-0.114614
-0.122831
-0.124629
-0.133888
-0.101742
0.00893413
-0.198476
-0.453107
-0.330804
-0.0147158
-0.395953
0.347014
-1.36284
3.45424
1.55154
0.070367
-0.320394
0.0186654
0.0337714
0.144386
0.0507808
0.203072
0.145119
0.0992243
0.0684434
0.0497757
0.0710657
0.0624393
0.0545529
0.0465924
0.0431793
0.0410423
0.0428879
-0.0778511
-0.0880681
-0.0900018
-0.093133
-0.0987574
-0.110429
-0.122706
-0.131063
-0.144029
-0.142689
-0.163274
-0.201226
-0.153319
-0.0497101
0.0219681
-0.0570785
-0.144666
-0.361035
-0.07241
0.212727
1.44839
0.652433
0.0238209
0.149863
0.143256
0.0303962
0.00980764
0.0543677
0.212046
0.146126
0.0804027
0.0762301
0.073034
0.075614
0.0723073
0.0681939
0.0652063
0.0582894
0.0577578
0.0561082
-0.0795103
-0.0784528
-0.0870479
-0.0953421
-0.105073
-0.124388
-0.136186
-0.158635
-0.192395
-0.215691
-0.178068
-0.252749
-0.233538
-0.306409
-0.52349
-0.611264
-0.0751932
0.192926
0.896147
1.37906
-1.31624
-0.861141
-0.669598
-0.507429
-0.0237896
0.141664
0.314416
0.174665
0.282985
0.237849
0.11215
0.107601
0.0961858
0.0916812
0.0821755
0.0793985
0.0745839
0.0690754
0.06721
0.0636777
-0.0554623
-0.0535758
-0.0599714
-0.0737297
-0.0865116
-0.103737
-0.120563
-0.145122
-0.191437
-0.234212
-0.28214
-0.324107
-0.45623
-0.337213
-0.510157
-0.720905
-0.0321759
-0.0591173
0.413259
0.411589
0.36861
0.40536
0.315853
0.62335
0.448615
0.387351
0.386267
0.416249
0.321937
0.245185
0.144895
0.128444
0.126313
0.108107
0.0996268
0.0906766
0.0831363
0.0760595
0.0727761
0.0654409
-0.0412286
-0.0463857
-0.0459281
-0.0495217
-0.058302
-0.0748797
-0.0856668
-0.11112
-0.143341
-0.161796
-0.22613
-0.249861
-0.244042
-0.146623
-0.263489
-0.299814
-0.118503
-0.212592
0.0966554
1.38218
-0.909111
0.923551
1.59149
1.06861
0.866221
0.542878
0.254495
0.220735
0.248653
0.230745
0.171605
0.148539
0.152387
0.143605
0.121292
0.10327
0.0907873
0.0814465
0.0768943
0.0818967
-0.0315434
-0.0312474
-0.0325335
-0.0350003
-0.0372336
-0.0518931
-0.0572203
-0.0686021
-0.0809777
-0.10623
-0.111034
-0.0871073
-0.0378502
-0.155378
-0.238291
-0.370974
-0.477754
-0.340522
-0.548665
-0.694233
0.77746
0.763626
1.11192
0.755216
0.524567
0.339721
0.525563
0.502668
0.345228
0.196441
0.163162
0.146201
0.131402
0.134757
0.118435
0.104346
0.0950029
0.0820198
0.0791242
0.0694549
-0.00810493
-0.0139567
-0.0139489
-0.0104622
-0.00101235
-0.0169803
-0.00981181
-0.00776745
0.0118452
-0.0215998
0.00725851
0.0680696
0.169795
0.144452
0.213504
0.127973
0.132709
-0.246132
-0.857424
-1.27089
1.42132
1.01493
0.862237
0.941149
0.513772
0.501757
0.259204
0.0333996
0.0862039
0.0641883
0.168447
0.138663
0.120564
0.111528
0.088378
0.0853879
0.0804744
0.0777328
0.0747966
0.0755855
0.00678785
0.0115143
0.0112012
0.0119263
0.0144556
0.0161172
0.0292615
0.0602656
0.0877088
0.111152
0.0727756
0.0949295
0.262018
0.474287
0.610441
0.826373
0.572589
0.795701
-0.463193
-1.35768
0.432423
-0.31045
0.0382954
0.0571272
0.111364
0.0302723
0.0306238
0.0180452
0.00269946
-0.0161134
0.0558251
0.0841184
0.0987364
0.0885883
0.0782412
0.0755383
0.0701851
0.0620635
0.057372
0.0576943
0.0281791
0.0318654
0.0354015
0.0379416
0.0436105
0.0488658
0.0515689
0.0967445
0.119614
0.171473
0.205765
0.393763
0.41262
0.395947
0.277507
0.541341
0.103731
0.145794
0.176373
0.0799732
-1.19159
-1.06339
-0.656541
-0.473616
-0.260576
0.0453705
-0.437553
-0.299968
-0.247717
-0.0804708
0.0304616
0.0656217
0.067591
0.0627139
0.051151
0.0647271
0.0492174
0.0493777
0.0436966
0.0390289
0.05682
0.0521776
0.0541033
0.0561181
0.0629962
0.0762274
0.0856213
0.0990209
0.104009
0.146744
0.203701
0.220306
0.396627
0.571531
0.610898
0.50879
0.393305
0.278488
0.272137
0.403624
-1.97274
-1.63966
-0.752789
-0.672294
-0.48998
-0.422815
-0.37659
-0.173204
-0.0838018
-0.0535046
0.0444108
0.0491396
0.0505948
0.0342135
0.0362414
0.0365097
0.0340121
0.0341247
0.0356509
0.0262118
0.0513506
0.056479
0.0583082
0.0595566
0.0641979
0.07222
0.0730424
0.0761683
0.0688866
0.172656
0.21885
0.294169
0.475397
0.469492
0.543524
0.639178
0.613961
0.548424
-0.0234483
-0.27555
-0.397872
-0.492408
-0.678213
-0.662471
-0.381249
-0.257855
-0.243922
-0.260528
-0.10701
-0.0424378
0.00380423
0.0419261
0.0267907
0.0193497
0.0204572
0.0224169
0.0188923
0.0184251
0.0181302
0.00617501
0.0673988
0.0622752
0.0627804
0.0625344
0.0643148
0.078299
0.081396
0.0784663
0.117983
0.125333
0.219289
0.318869
0.312236
0.393451
0.435966
0.475095
0.936662
0.53874
0.629007
0.809585
-0.232453
-0.252165
-0.753294
-0.714575
-0.635416
-0.463732
-0.315299
-0.156731
-0.091912
-0.0255805
0.00542814
0.0106946
-0.000497434
0.00146992
-0.00620446
-0.00626075
-0.00662854
-0.00853177
-0.009308
-0.00841425
0.0777748
0.0842888
0.0833041
0.0849642
0.086687
0.090022
0.0970889
0.116234
0.122361
0.0876644
0.186229
0.224494
0.198172
0.177554
0.0944183
0.0894596
0.00840565
-0.0767051
-0.569224
-0.727751
0.361153
0.226439
0.0159525
-0.170991
-0.265058
-0.276308
-0.175451
-0.0949662
-0.0939487
-0.0587738
0.0292318
-0.00458171
-0.0385689
-0.0347003
-0.0317549
-0.0319154
-0.0310485
-0.0291031
-0.0269424
-0.0221287
0.0923229
0.10297
0.101848
0.0976013
0.092516
0.0874599
0.0915891
0.0854196
0.0934382
0.124166
0.135562
0.0916277
0.0168565
-0.0413104
0.0335552
0.0648985
-0.053962
-0.200677
-0.133522
-0.504616
1.12451
0.656648
-0.184116
-0.0227195
-0.0702727
-0.083298
0.104626
0.028591
0.0307442
-0.0168276
-0.0488419
-0.0659776
-0.0531506
-0.0447076
-0.036249
-0.0429088
-0.0395958
-0.0439498
-0.0417465
-0.0338472
0.0970153
0.0949009
0.0973877
0.0973695
0.0927066
0.0798891
0.0893088
0.0907532
0.0957683
0.0984567
0.0500867
-0.0130096
0.019991
-0.0191594
-0.257832
-0.276944
-0.240185
-0.102172
0.279596
0.165376
1.06391
0.789789
0.30224
0.243576
0.17319
0.197022
0.16037
0.062738
0.0196872
-0.0395913
-0.0933988
-0.0705537
-0.0594792
-0.0515678
-0.0457739
-0.0470273
-0.04957
-0.0514128
-0.0517686
-0.0470703
0.107824
0.100799
0.10002
0.0972429
0.0944286
0.0908085
0.0835521
0.0676656
0.0650648
0.0462182
-0.0207604
-0.109118
-0.193757
-0.217712
-0.271879
-0.249543
0.0648963
0.168626
0.748876
1.0671
-0.349623
-0.161685
-0.207912
-0.255505
-0.299589
0.0059686
-0.0561332
0.0177302
0.111188
0.0491628
-0.10118
-0.0771777
-0.065681
-0.0647418
-0.0641629
-0.0630494
-0.0658287
-0.0674627
-0.0655709
-0.0739782
0.128699
0.124219
0.121941
0.119253
0.116904
0.109192
0.0994225
0.0789301
0.0491287
0.00114677
-0.129265
-0.155782
-0.172475
-0.260263
-0.327061
-0.289144
-0.0515635
0.165804
0.546141
0.703991
-0.184958
-0.265729
-0.532072
-0.216154
-0.0772517
0.184182
0.133003
0.0603931
0.0362658
0.0358457
-0.0717766
-0.0757159
-0.0951076
-0.0873053
-0.0867976
-0.0901099
-0.0841509
-0.0829392
-0.0809901
-0.0796535
0.133719
0.137488
0.1404
0.142034
0.143159
0.143028
0.127181
0.106275
0.0805282
0.0496282
-0.00966849
-0.0666737
-0.115907
-0.19947
-0.26295
-0.300363
-0.0903683
-0.00567846
0.0733115
1.02727
-1.24163
-0.438245
-0.284953
-0.301488
0.0632933
0.0402391
0.0334181
-0.0544597
-0.126524
-0.124709
-0.10725
-0.0927926
-0.10642
-0.106637
-0.105641
-0.106648
-0.104473
-0.104525
-0.103563
-0.0960804
0.141848
0.14807
0.149731
0.149857
0.150221
0.15066
0.140546
0.132053
0.119796
0.095823
0.0902787
-0.00431604
-0.162714
-0.25804
-0.472887
-0.54193
-0.603426
-0.566042
-0.684558
-0.540237
-0.589449
-0.353793
-0.315468
-0.263156
-0.307716
-0.335441
-0.271515
-0.255686
-0.118058
-0.0579529
-0.097341
-0.129935
-0.134834
-0.120696
-0.115522
-0.116691
-0.11504
-0.11385
-0.111761
-0.112402
0.154747
0.15922
0.15796
0.159242
0.162637
0.168103
0.166621
0.167991
0.173809
0.170977
0.173642
0.155756
0.0687567
0.0014693
-0.104208
-0.186198
-0.445874
-0.663867
-0.933734
-0.908252
-0.43087
-0.23013
-0.299703
-0.422537
-0.47353
-0.389609
-0.31115
-0.238279
-0.265639
-0.248409
-0.175766
-0.162123
-0.140718
-0.130879
-0.123757
-0.120957
-0.116514
-0.113092
-0.111677
-0.108886
0.162887
0.167343
0.170068
0.176598
0.182063
0.187977
0.195608
0.212133
0.218433
0.219882
0.241048
0.303805
0.339759
0.410778
0.321612
0.291182
-0.0651803
-0.10458
-0.152211
-0.416261
-0.190556
-0.566563
-0.498598
-0.446572
-0.481146
-0.360683
-0.319778
-0.283348
-0.284688
-0.258509
-0.214881
-0.173831
-0.162334
-0.145138
-0.134286
-0.128031
-0.121976
-0.118008
-0.116888
-0.123799
0.183749
0.182898
0.187773
0.191623
0.197858
0.201434
0.208896
0.219445
0.214926
0.300135
0.28548
0.266546
0.25496
0.264934
0.258593
0.267064
0.18203
0.196946
0.0384335
-0.102309
0.00887704
-0.117205
-0.201665
-0.229321
-0.24486
-0.213804
-0.199761
-0.30311
-0.29506
-0.259346
-0.226052
-0.15653
-0.162743
-0.155539
-0.146149
-0.141319
-0.137521
-0.138794
-0.138542
-0.141733
0.192506
0.193919
0.198528
0.199236
0.202829
0.203449
0.206772
0.21975
0.201806
0.193648
0.220146
0.294542
0.311204
0.288218
0.264208
0.208461
0.214806
0.195627
0.230883
0.127466
-0.151081
-0.141275
-0.0545305
-0.0815333
-0.0983666
-0.145599
-0.233035
-0.268088
-0.232536
-0.168948
-0.175127
-0.175882
-0.170233
-0.175893
-0.161687
-0.153262
-0.144129
-0.149151
-0.142644
-0.147599
0.183098
0.190009
0.18839
0.19273
0.192142
0.193076
0.189976
0.20373
0.200833
0.20935
0.214399
0.258599
0.265918
0.329365
0.34373
0.266651
0.164656
-0.00748482
-0.177162
0.0214444
0.0642535
0.0514852
0.0236859
-0.0499269
-0.0191439
-0.0292363
-0.0455853
-0.0847191
-0.146809
-0.168105
-0.1624
-0.190341
-0.177028
-0.170437
-0.158959
-0.14707
-0.139365
-0.136488
-0.133124
-0.134647
0.184309
0.175804
0.176363
0.179944
0.183197
0.183433
0.188967
0.194298
0.198523
0.193421
0.226291
0.234384
0.237741
0.310258
0.279567
0.129158
0.100213
0.113852
-0.076484
0.0906449
0.0363109
-0.0403254
-0.15644
-0.261177
-0.276855
-0.332295
-0.200379
-0.146916
-0.149802
-0.149462
-0.160705
-0.161729
-0.157451
-0.152734
-0.143947
-0.13968
-0.137367
-0.135077
-0.135189
-0.127693
0.182752
0.180536
0.180324
0.182936
0.186407
0.189642
0.192577
0.198952
0.213224
0.213742
0.215646
0.167733
0.0774436
-0.00054284
-0.0806162
-0.165631
-0.303152
-0.442925
-0.772511
-0.51949
-0.0460884
0.338824
0.355377
0.073518
-0.0409086
-0.118616
-0.127404
-0.144648
-0.133219
-0.144555
-0.151158
-0.149158
-0.143787
-0.144883
-0.142025
-0.137266
-0.133778
-0.126079
-0.124211
-0.124022
0.199273
0.200591
0.199442
0.196714
0.194459
0.191699
0.188411
0.184704
0.237729
0.234549
0.209425
0.129281
0.11815
0.10154
0.0484919
-0.0487785
-0.157662
-0.404246
-0.343814
-0.168408
0.0966685
0.673344
0.813858
-0.045052
0.0618454
-0.00834845
0.0449697
0.0307493
-0.000674329
-0.0722193
-0.107906
-0.136025
-0.127617
-0.120313
-0.115914
-0.113204
-0.114764
-0.117829
-0.118643
-0.115714
0.195784
0.201039
0.203103
0.204801
0.203325
0.207587
0.205339
0.168969
0.224678
0.219197
0.21379
0.210101
0.197066
0.219884
0.204189
0.0280766
0.286884
-0.0526171
0.199383
0.434381
0.423708
0.666442
0.646197
0.337463
0.33029
0.20185
0.161379
0.13729
0.0650855
-0.0216742
-0.0723641
-0.102086
-0.100805
-0.0826623
-0.0916954
-0.0995979
-0.104475
-0.109298
-0.113824
-0.115483
0.186438
0.187292
0.190232
0.191737
0.195639
0.191528
0.190934
0.184737
0.173362
0.15847
0.208215
0.161022
0.13013
0.115264
0.11338
0.199151
0.142414
0.380933
0.34035
0.236143
0.399246
0.421817
0.427478
0.274294
0.195973
0.0916647
0.0422269
0.00996279
0.0142537
0.0197129
0.00378259
-0.0589186
-0.0534013
-0.0741766
-0.0851138
-0.0975712
-0.100545
-0.103168
-0.104901
-0.116388
0.178017
0.179744
0.178693
0.176236
0.175509
0.177989
0.178809
0.17593
0.146003
0.122326
0.126657
0.109432
0.0605385
0.0256504
-0.0123897
-0.0540687
-0.0997773
-0.0406593
5.70831e-05
-0.0154815
-0.0192412
0.0622698
0.0401105
-0.195061
0.0152873
0.0310143
0.0705102
0.0937107
0.0680439
0.047087
0.0141457
-0.0326079
-0.0583354
-0.0786842
-0.0874448
-0.0982287
-0.104259
-0.106435
-0.105908
-0.106254
0.175428
0.17242
0.172437
0.172605
0.174148
0.174749
0.174381
0.171923
0.152801
0.135803
0.124204
0.0809803
0.0310653
-0.0526474
-0.181458
-0.435329
-0.612743
-0.745124
-0.736567
-0.616705
-0.387151
-0.392557
-0.28936
-0.264363
-0.236886
-0.145215
-0.0788491
0.0792994
0.0575683
0.0123972
-0.0377599
-0.0579164
-0.0639464
-0.0878241
-0.0984795
-0.107478
-0.117561
-0.119557
-0.1204
-0.117737
0.179801
0.175139
0.171297
0.167345
0.164195
0.16191
0.161471
0.151694
0.148813
0.107665
0.0344412
-0.0560464
-0.178915
-0.327244
-0.465388
-0.586935
-0.581171
-0.994423
-1.06807
-1.08907
-0.939851
-0.858488
-0.713018
-0.556897
-0.438684
-0.304722
-0.192717
-0.0815392
-0.0283171
-0.0022331
-0.0170246
-0.0501579
-0.0761339
-0.0920734
-0.105225
-0.115762
-0.122364
-0.12371
-0.123864
-0.115089
0.179996
0.181284
0.176688
0.170139
0.164804
0.159256
0.152766
0.149526
0.134007
0.0942745
0.0122707
-0.0519225
-0.151909
-0.323928
-0.435593
-0.563622
-0.597633
-1.21476
-1.32581
-1.095
-0.920869
-0.562306
-0.381453
-0.388595
-0.356767
-0.322587
-0.239823
-0.160015
-0.0979828
-0.0797949
-0.0876035
-0.0898939
-0.0966327
-0.100801
-0.103615
-0.109508
-0.114424
-0.118759
-0.121064
-0.117332
0.173151
0.16932
0.171855
0.175088
0.17522
0.16941
0.159455
0.145821
0.127369
0.096063
0.0635094
-0.00131253
-0.0751902
-0.212686
-0.368
-0.524135
-0.587126
-0.641475
-0.581748
-0.610153
-0.563911
-0.415276
-0.268267
-0.188461
-0.121784
-0.12319
-0.0889028
-0.084964
-0.105892
-0.108081
-0.0942591
-0.0936864
-0.123123
-0.118478
-0.119303
-0.11677
-0.115442
-0.114147
-0.114917
-0.12425
0.171192
0.173045
0.174191
0.174022
0.17211
0.165832
0.151338
0.131175
0.124561
0.0943118
0.0233505
-0.0734457
-0.138133
-0.222246
-0.281663
-0.308613
-0.340761
-0.290023
-0.221581
-0.182745
-0.18388
-0.134286
-0.0529139
0.01502
-0.0451413
-0.0565363
-0.0387137
-0.0495867
-0.088198
-0.131638
-0.133861
-0.13082
-0.129359
-0.130599
-0.126318
-0.125183
-0.124022
-0.129611
-0.13225
-0.13251
0.173541
0.180069
0.177244
0.174196
0.168865
0.160952
0.135899
0.12596
0.082921
0.0462967
0.0106426
-0.0468661
-0.0975209
-0.133598
-0.147875
-0.126911
-0.105308
-0.1356
0.0136435
-0.177646
-0.104168
-0.155061
-0.209608
-0.209203
-0.259447
-0.219174
-0.178811
-0.177379
-0.208708
-0.188074
-0.154799
-0.143981
-0.160449
-0.164494
-0.155296
-0.152099
-0.147712
-0.147519
-0.147204
-0.146629
0.176398
0.169278
0.168209
0.166727
0.160257
0.147589
0.14471
0.128647
0.0967297
0.0694307
0.0102687
-0.0363027
-0.105847
-0.196351
-0.274806
-0.388865
-0.412024
-0.420702
-0.392148
-0.107861
-0.194621
-0.312251
-0.393225
-0.411842
-0.366786
-0.303367
-0.269885
-0.265057
-0.249747
-0.247832
-0.247241
-0.231334
-0.207786
-0.188017
-0.171888
-0.168005
-0.164213
-0.161193
-0.159303
-0.15307
0.17717
0.169801
0.168079
0.169154
0.166181
0.159234
0.152665
0.141945
0.115349
0.0950819
0.0448387
-0.0153523
-0.0995225
-0.22292
-0.359478
-0.496561
-0.548491
-0.504552
-0.478177
-0.417084
-0.387664
-0.461703
-0.596887
-0.683279
-0.666838
-0.60709
-0.538994
-0.495657
-0.409577
-0.353667
-0.318267
-0.273786
-0.238606
-0.193297
-0.182706
-0.174771
-0.169977
-0.167443
-0.165268
-0.161415
0.192243
0.189735
0.18749
0.187137
0.185268
0.180761
0.179954
0.170738
0.150853
0.138801
0.111927
0.023882
-0.0720437
-0.171694
-0.260718
-0.308846
-0.322538
-0.402891
-0.499944
-0.465055
-0.481646
-0.556011
-0.610566
-0.638929
-0.644206
-0.649231
-0.623062
-0.575273
-0.511689
-0.421973
-0.357252
-0.299428
-0.244189
-0.214293
-0.195673
-0.181651
-0.171347
-0.161124
-0.15376
-0.155215
0.20273
0.202021
0.203821
0.204439
0.206847
0.209617
0.213188
0.205298
0.214187
0.203004
0.193952
0.209276
0.252931
0.307894
0.333119
0.390339
0.261844
0.161902
0.084473
-0.022029
-0.181045
-0.453648
-0.585907
-0.795835
-0.78247
-0.754699
-0.675478
-0.586888
-0.481566
-0.386405
-0.325537
-0.271677
-0.232006
-0.203496
-0.182569
-0.170437
-0.163448
-0.161548
-0.159108
-0.158627
0.204001
0.211209
0.215621
0.217847
0.226054
0.232654
0.246766
0.262976
0.290857
0.316791
0.377514
0.455552
0.559646
0.671402
0.744173
0.849825
0.583555
0.676629
0.556744
0.334623
0.189481
-0.229998
-0.40752
-0.558717
-0.680513
-0.699012
-0.650502
-0.545823
-0.44864
-0.374736
-0.328555
-0.275075
-0.227105
-0.198187
-0.175547
-0.165064
-0.157023
-0.156689
-0.156014
-0.157388
0.206602
0.215177
0.22153
0.230436
0.238614
0.250628
0.273615
0.305829
0.350815
0.413838
0.472724
0.54411
0.635966
0.701487
0.73555
0.678341
0.68704
0.538761
0.428826
0.301435
0.191274
-0.00392555
-0.165051
-0.259204
-0.48797
-0.502267
-0.49353
-0.49384
-0.454356
-0.393637
-0.326233
-0.252071
-0.221425
-0.195196
-0.172948
-0.159618
-0.145938
-0.138156
-0.135237
-0.138229
0.206467
0.209313
0.213541
0.22215
0.234075
0.248092
0.262601
0.311365
0.348276
0.397996
0.472781
0.545001
0.620531
0.675582
0.751452
0.708677
0.703799
0.547208
0.401777
0.167726
-0.000260484
-0.282667
-0.391019
-0.464642
-0.544688
-0.488538