/*--------------------------------*- C++ -*----------------------------------*\
| =========                 |                                                 |
| \\      /  F ield         | OpenFOAM: The Open Source CFD Toolbox           |
|  \\    /   O peration     | Version:  v2106                                 |
|   \\  /    A nd           | Website:  www.openfoam.com                      |
|    \\/     M anipulation  |                                                 |
\*---------------------------------------------------------------------------*/
FoamFile
{
    version     2.0;
    format      ascii;
    arch        "LSB;label=32;scalar=64";
    class       volVectorField;
    location    "0";
    object      U;
}
// * * * * * * * * * * * * * * * * * * * * * * * * * * * * * * * * * * * * * //

dimensions      [0 1 -1 0 0 0 0];

internalField   nonuniform List<vector> 
11644
(
(-0.000198264 5.43912e-05 2.03606e-20)
(-0.000153711 6.08033e-05 5.61485e-20)
(-0.000185112 3.93466e-05 3.01251e-20)
(-0.000211025 6.77322e-05 0)
(-0.000169026 2.66015e-05 0)
(-0.000119554 -7.13309e-05 0)
(-6.54351e-05 -0.000146713 0)
(6.85122e-05 -0.000438769 0)
(0.000255782 -0.000897774 0)
(0.00043318 -0.00155202 0)
(0.000603752 -0.00239101 0)
(0.000821559 -0.0034484 0)
(0.00104537 -0.00477417 0)
(0.00116489 -0.00622412 0)
(0.00107339 -0.0074963 0)
(0.000501201 -0.00903865 0)
(0.000118873 -0.00964586 0)
(0.000212075 -0.00967426 0)
(-0.000324513 -0.00940125 0)
(0.000163277 -0.00718445 1.5292e-30)
(0.00117607 -0.00604528 -1.43766e-30)
(0.00294879 -0.00649313 0)
(0.000740571 -0.00687779 0)
(-0.000557616 -0.00674928 0)
(-0.000862456 -0.00564296 0)
(-0.000691292 -0.00492626 0)
(-0.000587526 -0.0044796 0)
(-0.000521384 -0.00408779 0)
(-0.000550607 -0.00365877 0)
(-0.000620231 -0.00330916 0)
(-0.000655999 -0.00289019 0)
(-0.000690923 -0.00246242 0)
(-0.000685904 -0.00205621 0)
(-0.000667037 -0.00168797 0)
(-0.000637723 -0.00134581 0)
(-0.000591428 -0.00105525 0)
(-0.000519121 -0.000770789 0)
(-0.000514705 -0.000559712 0)
(-0.000519171 -0.000389112 0)
(-0.000401004 -0.000138669 3.94771e-21)
(-7.27605e-05 -2.80359e-05 2.6153e-20)
(-0.000151639 -0.000108201 2.42261e-20)
(-7.9669e-05 -0.000159299 1.30111e-20)
(-1.71901e-05 -0.000352061 0)
(0.000105584 -0.000475034 0)
(0.000190836 -0.000611898 0)
(0.000368319 -0.000854042 0)
(0.000596137 -0.00102275 0)
(0.000799066 -0.00113115 0)
(0.00105048 -0.00122651 0)
(0.00141439 -0.00129538 0)
(0.001669 -0.00152679 0)
(0.00175714 -0.00154782 0)
(0.0018639 -0.00157387 0)
(0.00170819 -0.00219623 0)
(0.00163435 -0.00241961 1.2197e-22)
(0.00170513 -0.00329502 1.84534e-20)
(4.92652e-05 -0.00425955 -4.96571e-20)
(-0.00279868 -0.00433807 4.73907e-20)
(-0.00390951 -0.00458381 -1.57845e-19)
(-0.00260566 -0.00378633 1.79993e-19)
(-0.00192463 -0.00129707 -6.22152e-20)
(0.000508401 -0.000103938 4.31001e-20)
(0.000470755 -0.000918569 -2.02383e-20)
(-0.000447627 -0.0012512 1.00734e-21)
(-0.000973838 -0.0013813 0)
(-0.00115515 -0.00108092 0)
(-0.00123577 -0.000667574 0)
(-0.00131105 -0.000292988 0)
(-0.00116578 6.39848e-05 0)
(-0.00100439 0.000291699 0)
(-0.000873529 0.00038706 0)
(-0.000742627 0.000401056 0)
(-0.000613051 0.000377888 0)
(-0.000496214 0.00032881 0)
(-0.000436861 0.000210579 0)
(-0.000426407 0.000154603 0)
(-0.000385153 9.06991e-05 0)
(-0.000387019 6.817e-05 0)
(-0.000498164 -8.58626e-06 0)
(0.000285849 -8.8663e-05 0)
(0.000286522 -6.90257e-05 0)
(0.000187157 -0.000143313 0)
(0.000235205 -0.00016371 0)
(0.000214661 -0.00013887 2.38903e-20)
(0.00025892 -9.84401e-05 0)
(0.000312814 -1.10699e-05 0)
(0.000301243 0.000200259 0)
(0.000358048 0.000471666 0)
(0.000448562 0.000790072 0)
(0.00050657 0.00113464 0)
(0.000762282 0.00168723 0)
(0.000867414 0.0018794 -3.03279e-21)
(0.00156451 0.00201504 1.35992e-20)
(0.00225074 0.00225957 1.06194e-19)
(0.00261693 0.00212388 5.47132e-19)
(0.00243729 0.00174813 3.77584e-20)
(0.00180394 0.00204753 -7.95197e-20)
(0.0020901 0.00143662 -7.11369e-19)
(-1.01256e-05 -0.000363629 1.26971e-18)
(-0.00205273 -0.000856703 -1.20475e-18)
(-0.00183115 -0.0010828 2.89976e-19)
(-0.00232702 -0.00101469 4.44759e-19)
(-0.00177081 0.000643967 -5.5527e-19)
(-0.00143345 0.00075729 -8.05739e-20)
(-0.00136465 0.000878906 -8.17432e-20)
(-0.00144673 0.000740258 5.21709e-21)
(-0.00136247 0.000647196 2.75619e-21)
(-0.00115132 0.000337565 0)
(-0.0010969 0.000135157 0)
(-0.000995121 1.15682e-05 0)
(-0.000763965 -8.09041e-05 0)
(-0.000594838 -0.000113616 0)
(-0.000444562 -0.000116084 0)
(-0.000360029 -0.000124062 0)
(-0.000280308 -3.09636e-05 0)
(-0.000231418 -6.24359e-05 0)
(-0.000199653 2.71818e-05 0)
(-0.000121707 1.52689e-05 0)
(-9.19327e-05 6.03774e-05 0)
(9.68932e-05 -4.44528e-05 0)
(0.000117349 -9.63533e-05 0)
(0.000164866 -0.000174346 0)
(9.69909e-05 -1.16502e-05 0)
(-1.28237e-05 -2.83461e-05 0)
(-1.533e-05 9.12502e-05 0)
(-9.11367e-05 0.00020437 0)
(-0.000108688 0.000299615 0)
(-0.000119237 0.000379446 0)
(-0.000110044 0.000428124 0)
(3.02526e-05 0.000398264 3.65984e-22)
(0.00040644 -5.41344e-05 5.53254e-20)
(0.00124974 -0.000488162 1.50159e-21)
(0.00125077 -0.00153704 -1.19073e-19)
(0.0015665 -0.00275035 1.01514e-19)
(0.00193051 -0.00297622 -2.01146e-19)
(0.00110574 -0.00305669 5.76453e-19)
(0.00115024 -0.0025409 -5.62826e-19)
(0.00285075 -0.00365055 8.8368e-20)
(0.00192981 -0.00327693 9.73613e-19)
(-0.000229015 0.00133285 -1.15424e-18)
(0.00104231 -0.000716437 8.70586e-19)
(-0.00110555 -0.00268941 -2.11942e-19)
(-0.00158774 -0.00165242 -1.88786e-19)
(-0.00129825 -0.0018704 1.43568e-20)
(-0.00162002 -0.00196124 -2.79663e-19)
(-0.00177327 -0.00226136 1.18959e-19)
(-0.00162316 -0.00221055 -9.57184e-20)
(-0.00159165 -0.0018027 1.15475e-20)
(-0.00124333 -0.00175412 1.18127e-22)
(-0.00110941 -0.00181999 0)
(-0.00104727 -0.00169941 0)
(-0.000923099 -0.0015263 0)
(-0.000816282 -0.00132517 0)
(-0.000718062 -0.00109851 0)
(-0.000666784 -0.00088163 0)
(-0.000545124 -0.000667649 0)
(-0.000524359 -0.000489293 0)
(-0.000466546 -0.00020095 0)
(-0.000393194 -9.24327e-05 0)
(0.000404456 7.45361e-05 0)
(0.000301647 -0.000472412 0)
(0.000299579 -0.000294366 0)
(0.000136666 -0.000683563 0)
(0.000188386 -0.000734729 0)
(5.37193e-05 -0.00088948 0)
(1.42312e-05 -0.00102747 0)
(5.53655e-06 -0.00105665 0)
(0.000115041 -0.00120058 0)
(0.000264545 -0.00139002 7.14205e-21)
(0.000895 -0.00186429 1.80426e-19)
(0.00154796 -0.00292938 -3.87262e-19)
(0.00198756 -0.00418885 2.12415e-19)
(0.0035045 -0.00554672 -3.27774e-19)
(0.00260672 -0.00706252 -6.98542e-20)
(0.00146137 -0.00764816 -4.39281e-19)
(0.00156542 -0.00813983 5.43281e-19)
(0.00173156 -0.00911895 -8.96849e-19)
(0.000415264 -0.00808031 1.122e-18)
(0.00196289 -0.00659754 9.73316e-19)
(0.000260666 -0.00168363 -1.62231e-18)
(0.000907811 -0.000252809 -4.03691e-19)
(0.000322038 -0.00386273 7.53661e-19)
(-0.00116537 -0.00364187 -2.51213e-19)
(-0.00133632 -0.00388662 3.27341e-19)
(-0.00165877 -0.0046446 -1.22305e-19)
(-0.00225637 -0.0047497 4.2497e-19)
(-0.00297592 -0.00422734 -5.55399e-19)
(-0.00264998 -0.00365788 7.26096e-19)
(-0.00202968 -0.00257631 -1.85907e-19)
(-0.00146555 -0.00184458 -7.24832e-21)
(-0.00138045 -0.00150874 0)
(-0.00129066 -0.00119641 0)
(-0.00114749 -0.000923732 0)
(-0.001023 -0.000664454 0)
(-0.000832673 -0.000519587 0)
(-0.000761169 -0.00028687 0)
(-0.000627599 -0.000246948 0)
(-0.000589794 -0.000118975 0)
(-0.000547934 -4.00492e-05 0)
(0.000728764 -0.000382154 0)
(0.000701253 4.33985e-06 0)
(0.000496317 -0.000648662 0)
(0.000618371 -0.000809764 0)
(0.000573319 -0.00112797 0)
(0.00058465 -0.00152522 0)
(0.000582833 -0.00173634 0)
(0.000570975 -0.00197447 0)
(0.000696768 -0.0021787 1.64717e-20)
(0.00132091 -0.00280333 2.45419e-19)
(0.00203648 -0.00387536 -6.33797e-19)
(0.00263462 -0.00418321 -7.65909e-20)
(0.00187949 -0.00510774 6.17985e-19)
(0.00205164 -0.00361626 -7.10589e-19)
(0.00251442 -0.00499468 -1.84132e-20)
(0.00290063 -0.00803036 -5.64317e-19)
(0.00236163 -0.0087638 -6.87948e-19)
(0.00312402 -0.00944288 2.91494e-18)
(0.001238 -0.0109815 1.77913e-19)
(0.00153012 -0.0107549 -2.92566e-18)
(0.000926967 -0.00166148 2.57421e-18)
(-0.00236189 -0.00104345 5.00665e-19)
(-0.00259464 -0.00539479 -3.06676e-18)
(-0.00213347 -0.00505543 2.2689e-18)
(-0.00303777 -0.00499659 -1.43438e-18)
(-0.00391316 -0.00468602 4.19045e-19)
(-0.00356906 -0.00550317 8.03157e-19)
(-0.00449543 -0.00522653 -5.02755e-19)
(-0.00425515 -0.00392744 1.87784e-19)
(-0.00403407 -0.00276992 -1.12891e-19)
(-0.00276328 -0.00122769 -4.66199e-21)
(-0.00173959 -0.00036152 1.03272e-20)
(-0.00134335 -4.623e-05 0)
(-0.00110312 -6.0721e-06 0)
(-0.000950771 7.7396e-06 0)
(-0.000822466 3.8076e-06 0)
(-0.000757987 -9.92335e-05 0)
(-0.000692678 1.95591e-05 0)
(-0.000667449 -0.000124526 0)
(-0.000602998 1.73571e-05 0)
(0.000969956 -0.000143773 0)
(0.00110789 -0.000577973 0)
(0.00120143 -0.00101572 0)
(0.00114203 -0.000989721 0)
(0.00100756 -0.00150519 0)
(0.000939808 -0.0015356 0)
(0.000780804 -0.00173352 0)
(0.000834232 -0.00195204 3.03578e-21)
(0.00161448 -0.00268347 6.68076e-20)
(0.00256793 -0.00366834 1.05506e-19)
(0.00276758 -0.00406461 -1.75832e-19)
(0.0026473 -0.00378908 3.08833e-19)
(0.00202365 -0.000959271 -9.56526e-19)
(0.00358654 -0.00494838 2.17591e-18)
(0.00255146 -0.00111453 -1.83293e-18)
(0.00411734 -0.00189643 -1.21494e-21)
(0.00146197 -0.0129442 2.50965e-18)
(0.00344662 -0.0114063 -4.87548e-18)
(0.00261551 -0.0107221 3.99495e-19)
(-0.000108778 -0.0094736 -2.4813e-18)
(-0.00152288 -0.00945327 -1.25851e-18)
(-0.00291938 -0.00407703 1.47089e-19)
(-0.00472311 -0.00566354 -1.9024e-18)
(-0.00337044 -0.00203984 6.9826e-20)
(-0.00449525 -0.00639391 -1.31142e-19)
(-0.00518054 -0.00481601 1.24825e-18)
(-0.00461782 -0.00355185 -1.5911e-18)
(-0.00610042 -0.00376558 -1.58268e-19)
(-0.0054488 -0.00257809 3.55633e-19)
(-0.00526447 -0.00232611 1.02155e-19)
(-0.0041748 -0.00141036 1.70268e-19)
(-0.00260559 -0.000390224 -1.38574e-20)
(-0.00137924 3.02954e-05 -2.6758e-21)
(-0.00105623 3.84409e-05 0)
(-0.000913556 -5.51433e-05 0)
(-0.000797466 6.43867e-05 0)
(-0.000626884 7.05815e-05 0)
(-0.000575484 8.99102e-05 0)
(-0.000483517 0.00016592 0)
(-0.000556081 1.85048e-05 0)
(0.00147581 0.000335983 0)
(0.00129649 -0.000707065 0)
(0.00147206 -0.000128605 0)
(0.00156648 -0.00105163 0)
(0.0015971 -0.0011196 0)
(0.00157622 -0.00150213 0)
(0.00149431 -0.00201324 0)
(0.00204163 -0.00268185 -3.81862e-21)
(0.00350939 -0.00385868 3.09324e-20)
(0.00391426 -0.00466514 3.52829e-19)
(0.00282386 -0.00373882 -1.0103e-18)
(0.00166485 -0.00569495 4.57675e-19)
(0.00077481 0.0026526 -2.27452e-19)
(-0.00381666 0.00604839 -4.78618e-20)
(0.00340292 -0.00735246 -2.10576e-18)
(0.0057782 -0.00773909 1.58018e-19)
(0.010769 0.00343809 4.6731e-19)
(0.00395854 -0.00883212 5.2385e-18)
(0.00143501 -0.00877855 -5.29082e-18)
(0.000920355 -0.0100924 -2.07163e-18)
(-6.3228e-05 -0.0105676 3.8825e-19)
(-0.00262442 -0.00948111 1.24064e-18)
(-0.00458846 -0.00924917 3.79204e-18)
(-0.00557211 -0.00670136 4.5209e-18)
(-0.00283533 -0.0103708 -8.11287e-19)
(-0.00532088 -0.00458236 -1.19264e-19)
(-0.00711327 0.00333668 -4.26506e-19)
(-0.00735151 -0.00517857 1.76983e-19)
(-0.00582322 -0.000157339 -3.01488e-20)
(-0.00500212 -0.00154325 -1.45769e-19)
(-0.00446719 -0.00149366 -8.23163e-20)
(-0.00341609 -0.00124973 1.45735e-19)
(-0.00160427 -0.000366127 -3.01802e-20)
(-0.000705662 -1.53995e-05 0)
(-0.000549971 -2.30582e-05 0)
(-0.000553811 -6.8334e-05 0)
(-0.00055622 1.0719e-05 0)
(-0.000476224 -8.3849e-05 0)
(-0.000519662 -0.000150214 0)
(-0.0004976 6.13751e-05 0)
(0.00186835 -0.000563105 0)
(0.0018533 -0.000177432 0)
(0.00166536 -0.00093551 0)
(0.00159035 -0.00119068 0)
(0.00169551 -0.00129781 0)
(0.00183383 -0.0020879 0)
(0.00237518 -0.00248026 1.09255e-21)
(0.00413226 -0.00340373 5.5261e-21)
(0.00520891 -0.00391251 -2.12601e-20)
(0.00523092 -0.00418208 2.54852e-20)
(0.00538355 -0.00460766 -3.38472e-19)
(0.00487965 -0.00507032 3.34944e-19)
(0.00805512 -0.00222997 -1.60672e-20)
(0.0126111 0.0029045 -5.91594e-19)
(0.00496555 -0.00908301 -7.14561e-19)
(0.00741629 -0.00517564 -3.01543e-20)
(0.000259855 -0.0146286 -7.91522e-20)
(0.00548006 -0.00146583 -4.47319e-19)
(0.00725131 -0.0206718 -8.87787e-19)
(0.00533338 -0.0225127 2.52416e-18)
(0.00056225 -0.0186593 3.30269e-18)
(-0.00876382 -0.018318 -6.87538e-19)
(-0.011076 -0.0132619 1.09936e-18)
(-0.00759242 -0.0108155 3.68881e-19)
(-0.0174239 0.00332657 1.31853e-18)
(-0.0131174 -0.00412017 -5.65072e-19)
(-0.00683151 -0.000602816 -1.24563e-19)
(-0.00537074 -0.00151154 -2.23597e-19)
(-0.0050195 -4.70761e-05 1.27358e-19)
(-0.00351923 -1.30602e-05 7.07591e-20)
(-0.00353088 -0.000452004 -1.67151e-19)
(-0.00352736 -0.00079734 8.97101e-20)
(-0.00260647 -0.000358759 5.6718e-21)
(-0.00102259 0.000197712 -1.90167e-21)
(-0.000901157 0.000396381 0)
(-0.000839707 0.000306246 0)
(-0.000824714 0.000262376 0)
(-0.000650453 0.000146046 0)
(-0.000426012 0.000312164 0)
(-0.000344696 -0.000197992 0)
(0.00194463 -0.00084184 0)
(0.00219693 -0.000665475 0)
(0.00251792 -0.00190603 0)
(0.00290056 -0.00131936 0)
(0.00321882 -0.00195216 0)
(0.00332431 -0.00192432 0)
(0.00385973 -0.00204004 7.46812e-21)
(0.00522627 -0.00245615 -3.19406e-20)
(0.00548 -0.00215259 4.22488e-20)
(0.00601124 -0.00181719 -3.49145e-20)
(0.00744366 -0.00269138 -1.03895e-19)
(0.00944686 -0.000834273 1.67219e-20)
(0.00929032 -0.000720934 2.07318e-19)
(-0.00361439 0.00337216 -3.30506e-19)
(0.00537427 -0.00292479 -2.52587e-20)
(0.00643561 0.0144523 -3.91962e-19)
(0.00412001 -0.00901043 -3.64785e-19)
(0.0154308 -0.0117061 -1.40816e-18)
(0.00973443 -0.0131689 7.78673e-19)
(0.00907026 -0.0274525 -6.22864e-19)
(-0.00541956 -0.0312486 2.03907e-19)
(-0.0174381 -0.023576 -1.0246e-19)
(-0.0257873 -0.0126136 1.01529e-19)
(-0.0131755 -0.00304065 -8.75528e-19)
(-0.0167126 0.00128817 5.99092e-19)
(-0.0124026 -0.00702925 -1.40929e-18)
(-0.0144061 3.89246e-05 2.25962e-21)
(-0.000369857 -0.000549966 -5.00491e-20)
(-0.00177514 0.00022393 5.43478e-20)
(-0.00237687 0.00107977 1.58119e-20)
(-0.00261168 0.00131916 7.21041e-20)
(-0.00280433 0.000964314 -4.66836e-20)
(-0.00278412 0.00052062 -3.53746e-20)
(-0.00126381 0.000636934 1.98763e-20)
(-0.000374926 0.000931858 0)
(-8.34669e-05 0.00105806 0)
(0.000117053 0.00109221 0)
(-6.36261e-05 0.000886801 0)
(-0.000342068 0.000542738 0)
(-0.000395532 0.000168784 0)
(0.00241062 0.000726139 0)
(0.00206618 -0.000386349 0)
(0.00171018 0.000185566 0)
(0.00162377 -0.000295835 0)
(0.00193882 -0.000792391 0)
(0.00253893 -0.000703532 0)
(0.00396533 -0.00119969 4.36132e-21)
(0.00513039 -0.00139376 5.23644e-21)
(0.00582853 -0.00181048 -3.12784e-20)
(0.00731604 -0.0016724 4.47902e-20)
(0.00873812 -0.00158891 1.92515e-20)
(0.0101491 -0.00208728 -1.13073e-19)
(0.00526829 -0.00970186 7.23106e-20)
(0.00949524 -0.00996253 -3.94995e-20)
(0.0140141 -0.00367049 -7.04343e-20)
(0.0019182 0.00389635 -1.49155e-19)
(-0.00230555 0.016115 1.7292e-20)
(0.0155622 0.0105884 -4.13169e-20)
(0.0409191 0.000797334 6.69143e-20)
(0.0421697 -0.0432572 4.0753e-18)
(-0.00483534 -0.0786391 -4.64e-18)
(-0.0515586 -0.0396133 2.30661e-18)
(-0.0365706 -0.000287987 -1.7158e-20)
(-0.0278888 0.00835308 1.13934e-20)
(-0.0164465 -0.00561577 -5.04125e-20)
(0.00657515 0.0144523 1.67087e-19)
(0.00160159 -0.00304705 -1.26632e-19)
(-0.00425111 0.0082109 1.68941e-20)
(-0.00276913 0.000594723 -2.59542e-20)
(-0.00304856 0.00161512 2.19655e-20)
(-0.00274195 0.0020948 -3.36745e-20)
(-0.00197745 0.00247696 9.96713e-21)
(-0.00190569 0.00215636 -8.10685e-21)
(-0.00146113 0.00152751 4.48178e-22)
(-0.000856975 0.00100601 0)
(-0.000965204 0.000888536 0)
(-0.000897812 0.000614108 0)
(-0.000519538 0.000971776 0)
(2.39721e-05 2.59069e-05 0)
(-0.000147322 0.00139184 0)
(0.00290362 0.000974167 0)
(0.00256696 -0.000498527 0)
(0.00290504 0.000970768 0)
(0.00314249 -0.000178663 0)
(0.00291423 -0.000307259 0)
(0.00329231 -0.00109649 0)
(0.00430305 -0.00149542 -1.01921e-22)
(0.0054825 -0.00167093 5.92042e-22)
(0.00703516 -0.00247323 -9.98922e-22)
(0.00833836 -0.00375713 -3.72689e-21)
(0.00748239 -0.00371887 1.11849e-20)
(0.00878762 -0.00675897 -5.04025e-21)
(0.0031217 -0.00748146 -6.67937e-21)
(0.0126695 -0.00541167 -4.45033e-20)
(-0.0121594 0.00561172 7.95024e-20)
(0.0110492 -0.00369533 -1.10909e-19)
(0.0122636 0.0104065 -1.27679e-19)
(0.0111692 0.0281441 2.78298e-20)
(0.117569 0.032176 -2.76632e-18)
(-0.0982374 0.0353873 -7.09688e-18)
(-0.0103814 0.0417889 9.26458e-21)
(0.00167586 0.034373 -1.46161e-19)
(-0.01307 0.0127495 -2.29481e-20)
(-0.00131083 0.0112267 -5.54466e-21)
(-0.00462977 0.00623194 1.60748e-21)
(-0.0023555 0.00756068 2.76031e-20)
(-0.00398936 0.00343468 -2.18892e-20)
(-0.00388372 0.00283348 9.03557e-21)
(-0.00270322 0.0031167 -5.65727e-21)
(-0.0011467 0.00325123 -6.6488e-22)
(-0.000608062 0.0027798 3.92752e-22)
(-0.000161446 0.00190173 0)
(-7.55585e-05 0.00111345 0)
(0.000134931 0.000263514 0)
(0.000361428 -0.000604944 0)
(0.000255496 -0.000197631 0)
(0.000712047 -0.00198832 0)
(-0.000646832 -0.00265066 0)
(0.00152049 -0.00131533 0)
(0.00194858 -0.00219923 0)
(0.00281842 -0.00158719 0)
(0.00392328 -0.000501776 0)
(0.00426677 -0.000590495 0)
(0.00443309 -0.000199884 4.1474e-21)
(0.00564967 -0.000930826 -5.01429e-21)
(0.00706009 -0.00133161 -3.43822e-21)
(0.0078867 -0.0031045 1.07218e-20)
(0.00687131 -0.00346165 -5.82165e-22)
(0.00565777 -0.00842359 -2.98865e-20)
(0.00647963 -0.0040442 7.73445e-20)
(-0.00158203 -0.000143794 -8.17395e-20)
(0.0114478 -0.0107772 2.93841e-20)
(-0.0138571 -0.0023132 -1.18458e-19)
(-0.0187961 0.0106603 1.06545e-19)
(-0.0398774 0.030615 3.29048e-20)
(-0.0204341 0.0883062 2.16166e-17)
(0.045027 0.0935435 2.00923e-18)
(0.0231758 0.0311009 -2.16144e-20)
(0.0126721 0.0131046 7.32868e-20)
(0.00702309 0.00861349 4.365e-20)
(-0.00264796 0.00619995 1.71138e-19)
(-0.00349261 0.00525885 5.03692e-20)
(-0.00420121 0.00223212 -4.39197e-20)
(-0.00470385 0.0033031 -8.77327e-20)
(-0.00403487 0.00358563 3.64706e-20)
(-0.00422284 0.00331718 -5.62239e-21)
(-0.00192364 0.0031112 2.95262e-21)
(0.000138235 0.00298025 2.79343e-21)
(0.000929196 0.00269229 0)
(0.0010872 0.00250044 0)
(0.000847194 0.00263651 0)
(3.89145e-05 0.00174877 0)
(-0.000410855 0.00167722 0)
(-0.0011361 7.18061e-05 0)
(0.00282169 -0.00351418 2.24466e-22)
(-2.08202e-05 -0.000390767 0)
(0.000583539 -0.00190038 0)
(0.000172689 -0.00160054 0)
(0.000567611 -0.000960672 0)
(0.00107295 0.00121624 0)
(0.00164125 0.00193608 6.02358e-21)
(0.00357261 0.0029714 1.67381e-20)
(0.00494848 0.00229899 -1.22857e-19)
(0.00617513 4.39292e-05 4.03919e-20)
(0.00631481 0.00332494 8.42099e-20)
(0.00522613 -0.002501 -1.40068e-19)
(0.00403598 -0.00988162 -2.89226e-20)
(-0.0019837 0.000643468 -5.81187e-21)
(-0.010228 -0.00561386 -8.10957e-20)
(-0.0201646 0.000764805 -3.09041e-19)
(-0.0284411 0.00262472 9.93116e-19)
(-0.0810852 0.00918636 -3.15515e-19)
(-0.0588181 0.0166797 1.69376e-19)
(0.0830022 0.00682255 -1.07999e-18)
(0.00700017 -0.00195001 3.68137e-19)
(0.0134352 -0.00483185 -5.05699e-19)
(0.00263245 0.00320805 4.76667e-19)
(0.00386645 -0.00384021 1.2025e-18)
(-0.000994418 -0.00736671 -2.09247e-19)
(-0.00474826 0.0042761 -2.29549e-19)
(-0.011068 0.00768195 1.60255e-19)
(-0.0064443 0.00596416 5.55e-20)
(-0.00469511 0.00466177 -1.27841e-19)
(-0.0019434 0.00447591 3.92624e-20)
(0.000513659 0.00323882 -6.07908e-21)
(0.000355868 0.00239966 0)
(-0.000799025 0.00232504 0)
(-0.000311957 0.00217534 0)
(0.00073468 0.00245589 0)
(0.00146736 0.000765181 0)
(0.00408443 0.00243409 0)
(-0.00253192 -0.00226713 -4.61039e-23)
(-0.000851171 0.000862382 0)
(0.000973906 0.00234904 0)
(-8.81042e-05 0.00311205 0)
(-0.00104466 0.00220547 0)
(0.000715175 0.00288258 0)
(-0.00108755 0.00445768 -5.7283e-21)
(0.000296514 0.00358756 2.50411e-20)
(0.00249542 0.00453568 5.12219e-20)
(0.00238861 0.000216299 -3.9784e-20)
(-0.000327628 -0.0023377 -1.20294e-19)
(0.00284716 -0.00234402 2.05699e-19)
(0.0117915 -0.00419916 -7.53878e-20)
(0.0212323 -0.00447385 -4.39224e-19)
(0.0143873 -0.00785514 3.87803e-19)
(-0.00634899 -0.023754 1.00809e-18)
(-0.019211 -0.0229354 3.65563e-19)
(-0.143193 -0.00274529 -8.45455e-19)
(-0.0595538 0.0345987 6.95663e-19)
(0.145514 -0.186285 2.20448e-19)
(-0.283378 -0.188521 -4.3902e-20)
(0.282595 0.0883096 1.10043e-18)
(-0.0184151 -0.176135 1.07079e-19)
(-0.0197254 -0.0695273 1.47503e-18)
(-0.00763435 -0.020116 -6.55184e-19)
(-0.012459 0.00713911 -1.12141e-19)
(-0.00977993 -0.00284303 8.06845e-20)
(-0.026012 0.0274972 1.40671e-19)
(-0.0279156 0.00388588 -2.67422e-19)
(-0.0035778 0.00482144 1.46022e-19)
(-0.00592398 0.00936628 -2.55691e-21)
(-0.0051875 0.0078477 -7.45293e-20)
(-0.00027655 0.00682134 7.53184e-20)
(0.00208045 0.00256319 -5.9029e-23)
(0.000195874 0.00290832 0)
(-2.78979e-05 -0.000789255 0)
(0.000297054 -0.00172611 0)
(0.000949475 -0.00162047 0)
(0.00221316 -0.000523947 0)
(-0.000881591 -0.00496417 0)
(0.00394668 0.0052018 -1.45804e-21)
(0.00291551 -0.000437642 0)
(0.00180597 -0.000130941 0)
(0.00414797 -0.00149169 0)
(0.00276299 0.000669928 0)
(-0.00135043 0.000520518 0)
(-0.000383806 0.00250801 -7.53658e-23)
(-0.00237702 0.00166281 2.25846e-20)
(-0.00204859 0.00139646 2.22136e-20)
(-0.00704262 -0.00532889 -2.02585e-19)
(0.00579794 -0.00462234 3.05318e-19)
(0.0123098 -0.00167884 -4.04165e-19)
(0.0123184 -0.014022 1.30228e-19)
(0.0302112 -0.0100805 -1.65064e-19)
(0.0220647 -0.0260352 -4.73823e-19)
(0.0161079 -0.0332745 3.76598e-21)
(0.013304 -0.0562503 2.59108e-18)
(-0.483443 -0.102215 2.45458e-17)
(-0.262907 -0.135547 5.06049e-18)
(0.27457 0.277804 8.63076e-18)
(-0.527721 -0.439679 3.13005e-18)
(0.66593 0.312309 2.02568e-18)
(-0.0182823 -0.196468 -6.85649e-18)
(-0.11717 -0.017305 2.39123e-18)
(-0.0437133 -0.0188059 1.60613e-18)
(-0.0275967 0.00344661 -3.41329e-19)
(-0.0376498 0.00824263 1.05248e-18)
(-0.0200483 0.00530375 -6.82517e-20)
(0.00150732 0.0250523 -9.77733e-19)
(0.00270433 0.0050779 -1.48515e-19)
(0.0103078 0.00286556 -3.17804e-20)
(0.00940057 0.00430798 -4.06342e-20)
(0.0041486 0.00721552 2.27441e-20)
(0.000519417 0.00720397 -5.48033e-22)
(0.00463769 0.00176981 0)
(0.00596831 0.00425804 0)
(0.0014604 0.00434167 0)
(-5.22e-06 0.00331468 0)
(-0.00177353 0.00142501 0)
(0.000400349 0.00278133 -3.84279e-22)
(0.0022188 0.000938682 8.94365e-22)
(-0.00265002 -0.000435944 0)
(-0.00497219 -0.00125983 0)
(-0.00521157 -0.00167849 0)
(0.000565936 -0.000321661 0)
(0.00224042 0.00377956 0)
(0.00145804 0.00346139 0)
(-0.00363861 0.00366155 -3.89122e-22)
(0.00136784 -0.00707924 4.43598e-20)
(0.00334623 -0.00608545 -3.75557e-20)
(0.00609681 -0.00677092 -5.00131e-20)
(0.0128121 -0.0023061 -7.67298e-20)
(0.0275863 0.0140448 7.25695e-19)
(0.0124087 0.00379482 -6.8657e-19)
(0.0340024 -0.0056891 -1.61164e-19)
(0.0832444 0.0178892 -1.56691e-18)
(0.0168543 -0.0494996 9.79998e-19)
(0.31484 -0.343822 -5.7497e-18)
(-0.652397 0.124872 6.08989e-18)
(0.658318 -0.196879 8.76116e-18)
(-0.27702 0.651603 -8.86699e-18)
(-0.746964 -1.14812 -1.18348e-17)
(0.503195 0.0976753 -5.32545e-18)
(-0.124679 -0.0154574 -1.07886e-17)
(-0.0417524 0.0151902 2.3587e-18)
(-0.0290409 0.021957 1.01704e-18)
(-0.0403094 0.0322287 4.66414e-19)
(0.00879016 0.0243942 -5.75186e-19)
(0.00349057 0.00421378 1.89513e-20)
(0.00360167 0.0129879 8.07601e-20)
(-0.00452797 0.0107299 1.77711e-20)
(-0.0039352 0.0101698 3.11318e-21)
(0.000658589 0.0128288 -1.49093e-20)
(0.00138611 0.00952309 0)
(0.000588441 0.00762528 0)
(0.00232546 0.00157072 0)
(0.00892096 -0.0018894 0)
(0.0104622 -0.00275402 0)
(0.00770176 -0.000879539 0)
(-0.00626612 0.00289342 -2.44757e-21)
(-0.00111603 0.00141934 -4.96635e-21)
(-0.00128538 0.00291195 0)
(-0.00404056 0.00302472 0)
(-0.00548251 0.000768566 0)
(-0.00678571 -0.000822648 0)
(-0.00254092 0.00170705 0)
(0.00067563 0.00311632 0)
(0.00859369 0.00767141 0)
(0.00650919 0.0116465 1.50923e-21)
(0.0144676 0.0168358 6.28949e-21)
(0.00964254 0.0148869 3.61609e-20)
(0.00215735 0.0227294 8.47035e-20)
(0.0122092 0.0301806 -2.15149e-19)
(0.0184083 0.00808409 -1.40884e-19)
(0.034386 0.0165668 8.78836e-20)
(0.0698261 0.0199819 9.09694e-19)
(0.21419 0.0377023 -1.64865e-18)
(0.38987 -0.0208887 -5.18715e-18)
(-0.599319 0.148128 -2.66366e-18)
(-1.07464 -0.621276 4.52326e-18)
(1.00232 0.47775 -7.10172e-18)
(0.313531 -0.189977 -3.3971e-18)
(-0.624873 0.511929 2.81347e-18)
(0.343983 -0.0243468 3.1611e-17)
(-0.159778 -0.0601732 -1.16334e-18)
(-0.0755451 0.0951817 -2.18365e-19)
(0.0205112 0.0358565 -3.47694e-19)
(0.00920605 0.0254181 6.52666e-19)
(0.0132802 0.0220718 -2.24226e-19)
(-0.00185169 0.0276436 3.51026e-20)
(0.00249516 0.0209991 -1.27949e-20)
(0.00997936 0.0104661 9.85692e-22)
(0.00685019 0.00391559 0)
(0.00626877 0.00703658 0)
(0.00700268 0.00345021 0)
(0.00686755 0.000321286 0)
(0.00488491 0.00056432 3.7712e-20)
(0.00303686 0.00138718 5.21533e-20)
(0.00444885 0.00288779 3.10995e-20)
(0.00462938 0.00153872 0)
(-0.00835561 0.00214143 0)
(-0.00466714 0.00229637 0)
(-0.00166045 0.00290744 0)
(-0.000512578 0.00480619 0)
(-0.00207975 0.00278015 0)
(-0.00401732 -0.000562234 0)
(-0.00518574 0.00309485 0)
(-0.00274713 0.00396236 0)
(-0.0077771 0.0101494 1.81793e-23)
(-0.00535787 0.0158815 -3.54835e-21)
(-0.00198682 0.0205568 2.63574e-20)
(-0.00359122 0.0261536 -3.91068e-20)
(-0.00511189 0.0349977 -1.92736e-19)
(0.00842561 0.0421221 3.31572e-19)
(-0.0359414 0.0316605 3.84703e-18)
(0.0733093 0.110885 -7.99988e-19)
(0.39157 0.0732356 -7.82369e-19)
(-0.585827 0.340251 3.23996e-18)
(0.586185 0.304646 -2.72518e-18)
(0.878151 -0.186376 -7.47129e-18)
(-0.291689 0.0102149 -7.9535e-18)
(-1.10063 0.0681972 -8.40265e-18)
(0.305101 0.0410994 -1.00675e-18)
(0.0579789 -0.312202 -2.61772e-18)
(-0.109211 0.580424 2.02137e-19)
(0.030537 0.0883224 9.67254e-19)
(0.0354631 0.0213658 -9.69754e-20)
(0.0167252 0.0311466 -1.3576e-19)
(0.00952701 0.023182 -3.29737e-20)
(0.0139857 0.0253132 2.29244e-20)
(0.015147 0.0163405 -2.89414e-21)
(0.0122475 0.0108247 -5.73501e-23)
(0.00951611 0.00788932 0)
(0.0123771 0.00277614 0)
(0.00932735 0.00143441 0)
(0.00667852 0.00465885 0)
(0.00573362 0.00609137 0)
(0.00548464 0.00450678 0)
(0.00757169 0.00260597 0)
(0.00885348 0.000700141 -5.60107e-21)
(-0.0047813 -0.00281068 0)
(-0.000224128 -0.00365252 0)
(0.00269748 -0.00193245 0)
(0.00288205 -6.95236e-06 0)
(0.000929736 0.000327976 0)
(-0.000587915 -0.00326157 0)
(-0.00349672 -0.00593432 0)
(-0.00491896 -0.00712169 0)
(-0.00561505 -0.00413808 0)
(-0.00707132 -0.00390664 0)
(-0.0105091 0.0169888 -2.70298e-22)
(-0.00419303 0.00535007 -7.94857e-21)
(-0.00464301 0.0238853 -2.05946e-21)
(-0.0181026 0.0094147 -4.63065e-20)
(0.0133645 0.014243 1.27476e-17)
(-0.431879 0.191764 -5.63632e-19)
(0.127629 0.24405 5.0178e-18)
(0.848812 -0.50657 2.21628e-19)
(0.0674084 -0.236227 -6.52016e-19)
(-0.643079 0.192314 -5.67545e-18)
(-0.496401 0.694215 4.86047e-18)
(0.273721 -0.209085 -1.60775e-18)
(0.743352 -0.0417979 7.08694e-20)
(-0.831667 0.666199 2.6519e-19)
(0.252768 0.449634 3.57644e-19)
(0.164149 0.0383382 3.18924e-19)
(0.0454057 0.00980909 -7.46814e-20)
(0.0295621 0.0128838 1.39616e-19)
(0.0189485 0.0143031 -5.62873e-20)
(0.0230423 0.00671144 -6.48007e-21)
(0.0200243 0.00772002 0)
(0.0184847 0.00809782 0)
(0.0175799 0.00397937 0)
(0.0108567 0.000921468 0)
(0.00725687 0.00347279 0)
(0.00585888 0.0035152 0)
(0.00511152 0.00112708 0)
(0.00556843 -0.00162993 0)
(0.00549539 -0.00259641 0)
(0.00635396 -0.00209254 0)
(0.00600074 -0.00170814 0)
(0.00149403 0.000407347 0)
(0.00167595 0.000188433 0)
(0.00188688 0.000254567 0)
(0.00281067 0.000869846 0)
(0.00214954 0.00228027 0)
(0.00284527 0.00172164 0)
(-0.00278396 -6.20894e-05 0)
(-0.00316483 -0.00164655 0)
(-0.007992 -0.00140904 0)
(-0.0107108 -0.00735198 0)
(-0.014537 0.00252757 1.85411e-21)
(0.0201403 0.0215191 4.09358e-20)
(0.0211681 0.0299113 -1.58578e-20)
(-0.0789831 -0.0460564 4.31057e-18)
(-0.129644 -0.305321 -1.00356e-18)
(0.278788 -0.0141224 2.29787e-18)
(-0.121618 1.23828 -7.81414e-19)
(-0.18651 1.39048 -5.14768e-20)
(-0.353837 0.475578 -1.15294e-18)
(0.0932681 0.386679 -1.04971e-18)
(0.346 0.0208244 6.20161e-18)
(-0.41444 0.908451 2.02761e-18)
(-1.013 0.931392 -1.21469e-19)
(1.52417 -0.411088 -2.36945e-19)
(0.0509462 -0.119361 4.93553e-19)
(0.0350677 0.0135802 -5.93778e-19)
(0.0230718 0.00889566 4.55963e-20)
(0.030122 -0.00307506 -2.0785e-21)
(0.0226107 -0.00700138 0)
(0.0198207 -0.00104518 0)
(0.0148934 -0.00362341 0)
(0.0128628 -0.00098267 0)
(0.0089482 0.00210353 0)
(0.00821115 0.00352148 0)
(0.00749131 0.00275785 0)
(0.00672659 0.00221429 0)
(0.00551671 0.00138038 0)
(0.00391275 0.000558676 0)
(0.00321847 -0.000263901 0)
(0.0017591 -0.00113137 0)
(-0.00110687 -0.0019602 0)
(-0.00163289 -0.00194354 0)
(-0.00244645 0.000925249 0)
(-0.00229433 0.00280307 0)
(-0.00264861 0.00492047 0)
(-0.00232847 0.00689988 0)
(-0.00492368 0.0082055 0)
(-0.00584223 0.00706831 0)
(-0.0147459 0.00799359 0)
(-0.0137752 0.00843686 9.50163e-21)
(-0.038746 0.0313116 0)
(-0.022189 0.0295979 0)
(0.0450528 0.204971 3.17549e-19)
(0.282403 0.0336757 -4.29277e-19)
(-0.554854 -0.179414 7.28122e-18)
(-1.18058 -0.172137 -4.23614e-21)
(0.0205265 -0.0985766 -2.44637e-19)
(0.785208 -0.413594 3.88243e-18)
(0.690607 -0.614613 7.04731e-18)
(0.205291 -0.388801 -1.63892e-18)
(-0.679443 -0.336741 5.8508e-18)
(-0.542968 -0.186785 -1.88376e-19)
(1.30042 -1.12071 -1.62175e-19)
(0.847418 -0.857547 -8.43669e-20)
(-0.263954 0.165257 -9.40115e-19)
(0.046725 -0.000155787 -3.71505e-19)
(0.0477438 -0.00590304 0)
(0.0345201 -0.0107225 0)
(0.0289816 -0.00855185 -3.28925e-20)
(0.0208649 -0.0107749 0)
(0.0121022 -0.00523986 0)
(0.00743825 -0.00282007 0)
(0.00682826 -0.00176307 0)
(0.00892705 -0.00192074 0)
(0.0096256 -0.000525466 0)
(0.00989596 0.00139502 0)
(0.00968275 0.00325998 -6.20673e-21)
(0.00809764 0.00329906 -4.45278e-21)
(0.00199983 0.00294095 0)
(0.00354675 0.00423617 0)
(0.000713874 0.0023083 0)
(-0.00244011 0.0017306 0)
(-0.00397567 0.000890536 0)
(-0.00429388 0.000298046 0)
(-0.00496248 -0.000527496 0)
(-0.00547088 -0.00040471 0)
(-0.0051844 0.00113436 0)
(-0.009516 0.00217086 0)
(-0.0143532 -0.00467126 0)
(-0.0378424 -0.00659899 -3.55532e-20)
(-0.0592731 -0.00580076 0)
(-0.151648 0.00663044 0)
(-0.033677 -0.0395517 5.44539e-19)
(0.423501 0.385242 -3.97363e-19)
(0.113664 0.201065 1.01819e-19)
(0.162235 -0.204891 0)