/*--------------------------------*- C++ -*----------------------------------*\
| =========                 |                                                 |
| \\      /  F ield         | OpenFOAM: The Open Source CFD Toolbox           |
|  \\    /   O peration     | Version:  v2106                                 |
|   \\  /    A nd           | Website:  www.openfoam.com                      |
|    \\/     M anipulation  |                                                 |
\*---------------------------------------------------------------------------*/
FoamFile
{
    version     2.0;
    format      ascii;
    arch        "LSB;label=32;scalar=64";
    class       pointVectorField;
    location    "0";
    object      pointDisplacement;
}
// * * * * * * * * * * * * * * * * * * * * * * * * * * * * * * * * * * * * * //

dimensions      [0 1 0 0 0 0 0];

internalField   nonuniform List<vector> 
24440
(
(0 0 0)
(0 0 0)
(0 0 0)
(0 0 0)
(0 0 0)
(0 0 0)
(0 0 0)
(0 0 0)
(0 0 0)
(0 0 0)
(0 0 0)
(0 0 0)
(0 0 0)
(0 0 0)
(0 0 0)
(0 0 0)
(0 0 0)
(0 0 0)
(0 0 0)
(0 0 0)
(0 0 0)
(0 0 0)
(0 0 0)
(0 0 0)
(0 0 0)
(0 0 0)
(0 0 0)
(0 0 0)
(0 0 0)
(0 0 0)
(0 0 0)
(0 0 0)
(0 0 0)
(0 0 0)
(0 0 0)
(0 0 0)
(0 0 0)
(0 0 0)
(0 0 0)
(0 0 0)
(0 0 0)
(0 0 0)
(0 0 0)
(0 0 0)
(0 0 0)
(0 0 0)
(0 0 0)
(0 0 0)
(0 0 0)
(0 0 0)
(0 0 0)
(0 0 0)
(0 0 0)
(0 0 0)
(0 0 0)
(0 0 0)
(0 0 0)
(0 0 0)
(0 0 0)
(0 0 0)
(0 0 0)
(0 0 0)
(0 0 0)
(0 0 0)
(0 0 0)
(0 0 0)
(0 0 0)
(0 0 0)
(0 0 0)
(0 0 0)
(0 0 0)
(0 0 0)
(0 0 0)
(0 0 0)
(0 0 0)
(0 0 0)
(0 0 0)
(0 0 0)
(0 0 0)
(0 0 0)
(0 0 0)
(0 0 0)
(0 0 0)
(0 0 0)
(0 0 0)
(0 0 0)
(0 0 0)
(0 0 0)
(0 0 0)
(0 0 0)
(0 0 0)
(0 0 0)
(0 0 0)
(0 0 0)
(0 0 0)
(0 0 0)
(0 0 0)
(0 0 0)
(0 4.78151e-06 0)
(0 3.01525e-05 0)
(0 8.29129e-05 0)
(0 0.000127765 0)
(0 0.000144978 0)
(0 0.000127765 0)
(0 8.29129e-05 0)
(0 3.01525e-05 0)
(0 4.78151e-06 0)
(0 0 0)
(0 0 0)
(0 0 0)
(0 0 0)
(0 0 0)
(0 0 0)
(0 0 0)
(0 0 0)
(0 0 0)
(0 0 0)
(0 0 0)
(0 0 0)
(0 0 0)
(0 0 0)
(0 0 0)
(0 0 0)
(0 0 0)
(0 0 0)
(0 0 0)
(0 0 0)
(0 0 0)
(0 0 0)
(0 0 0)
(0 0 0)
(0 0 0)
(0 0 0)
(0 0 0)
(0 0 0)
(0 0 0)
(0 8.00773e-06 0)
(0 0.000105929 0)
(0 0.000311741 0)
(0 0.000561581 0)
(0 0.000801043 0)
(0 0.000967981 0)
(0 0.00112317 0)
(0 0.00117777 0)
(0 0.00112317 0)
(0 0.000967981 0)
(0 0.000801043 0)
(0 0.000561581 0)
(0 0.000311741 0)
(0 0.000105929 0)
(0 8.00773e-06 0)
(0 0 0)
(0 0 0)
(0 0 0)
(0 0 0)
(0 0 0)
(0 0 0)
(0 0 0)
(0 0 0)
(0 0 0)
(0 0 0)
(0 0 0)
(0 0 0)
(0 0 0)
(0 0 0)
(0 0 0)
(0 0 0)
(0 0 0)
(0 0 0)
(0 0 0)
(0 0 0)
(0 0 0)
(0 0 0)
(0 0 0)
(0 0 0)
(0 3.36211e-06 0)
(0 0.000139307 0)
(0 0.000475079 0)
(0 0.000936851 0)
(0 0.00141247 0)
(0 0.00194309 0)
(0 0.00240265 0)
(0 0.00268727 0)
(0 0.00295942 0)
(0 0.00305348 0)
(0 0.00295942 0)
(0 0.00268727 0)
(0 0.00240265 0)
(0 0.00194309 0)
(0 0.00141247 0)
(0 0.000936851 0)
(0 0.000475079 0)
(0 0.000139307 0)
(0 3.36211e-06 0)
(0 0 0)
(0 0 0)
(0 0 0)
(0 0 0)
(0 0 0)
(0 0 0)
(0 0 0)
(0 0 0)
(0 0 0)
(0 0 0)
(0 0 0)
(0 0 0)
(0 0 0)
(0 0 0)
(0 0 0)
(0 0 0)
(0 0 0)
(0 0 0)
(0 0 0)
(0 0 0)
(0 0 0)
(0 3.17903e-05 0)
(0 0.000330602 0)
(0 0.000878592 0)
(0 0.0015415 0)
(0 0.00236457 0)
(0 0.00319472 0)
(0 0.00391388 0)
(0 0.00458756 0)
(0 0.00506562 0)
(0 0.00535124 0)
(0 0.00548235 0)
(0 0.00535124 0)
(0 0.00506562 0)
(0 0.00458756 0)
(0 0.00391388 0)
(0 0.00319472 0)
(0 0.00236457 0)
(0 0.0015415 0)
(0 0.000878592 0)
(0 0.000330602 0)
(0 3.36555e-05 0)
(0 0 0)
(0 0 0)
(0 0 0)
(0 0 0)
(0 0 0)
(0 0 0)
(0 0 0)
(0 0 0)
(0 0 0)
(0 0 0)
(0 0 0)
(0 0 0)
(0 0 0)
(0 0 0)
(0 0 0)
(0 0 0)
(0 0 0)
(0 0 0)
(0 0 0)
(0 6.25245e-05 0)
(0 0.000438421 0)
(0 0.00109424 0)
(0 0.00200886 0)
(0 0.00309586 0)
(0 0.00422541 0)
(0 0.00526197 0)
(0 0.00624465 0)
(0 0.0066139 0)
(0 0.00701322 0)
(0 0.00734723 0)
(0 0.00761039 0)
(0 0.00779858 0)
(0 0.00792871 0)
(0 0.00804893 0)
(0 0.00808918 0)
(0 0.00804893 0)
(0 0.00792871 0)
(0 0.00779858 0)
(0 0.00761039 0)
(0 0.00734723 0)
(0 0.00701322 0)
(0 0.0066139 0)
(0 0.00624465 0)
(0 0.00526197 0)
(0 0.00422541 0)
(0 0.00309586 0)
(0 0.00200886 0)
(0 0.00107153 0)
(0 0.000396158 0)
(0 4.99612e-05 0)
(0 0 0)
(0 0 0)
(0 0 0)
(0 0 0)
(0 0 0)
(0 0 0)
(0 0 0)
(0 0 0)
(0 0 0)
(0 0 0)
(0 0 0)
(0 0 0)
(0 0 0)
(0 0 0)
(0 0 0)
(0 0 0)
(0 0 0)
(0 3.67759e-05 0)
(0 0.000420861 0)
(0 0.00117259 0)
(0 0.00220648 0)
(0 0.0034175 0)
(0 0.00484236 0)
(0 0.00552366 0)
(0 0.00612754 0)
(0 0.00679591 0)
(0 0.00742239 0)
(0 0.00799556 0)
(0 0.0084825 0)
(0 0.00739263 0)
(0 0.00784399 0)
(0 0.00820022 0)
(0 0.00855951 0)
(0 0.00884137 0)
(0 0.00904222 0)
(0 0.00916263 0)
(0 0.00929025 0)
(0 0.00933292 0)
(0 0.00929025 0)
(0 0.00916263 0)
(0 0.00904222 0)
(0 0.00884137 0)
(0 0.00855951 0)
(0 0.00820022 0)
(0 0.00784399 0)
(0 0.00739263 0)
(0 0.0084825 0)
(0 0.00799556 0)
(0 0.00742239 0)
(0 0.00679591 0)
(0 0.00612754 0)
(0 0.00552366 0)
(0 0.00484236 0)
(0 0.0034175 0)
(0 0.00220648 0)
(0 0.00112982 0)
(0 0.00040255 0)
(0 3.33978e-05 0)
(0 0 0)
(0 0 0)
(0 0 0)
(0 0 0)
(0 0 0)
(0 0 0)
(0 0 0)
(0 0 0)
(0 0 0)
(0 0 0)
(0 0 0)
(0 0 0)
(0 0 0)
(0 0 0)
(0 0 0)
(0 0 0)
(0 0.000232688 0)
(0 0.000950913 0)
(0 0.00203292 0)
(0 0.00339204 0)
(0 0.0049058 0)
(0 0.00644394 0)
(0 0.00567184 0)
(0 0.00641272 0)
(0 0.00712563 0)
(0 0.0077969 0)
(0 0.0083933 0)
(0 0.00899814 0)
(0 0.00953262 0)
(0 0.00997419 0)
(0 0.00896211 0)
(0 0.00936608 0)
(0 0.0103905 0)
(0 0.0106904 0)
(0 0.00968747 0)
(0 0.00998152 0)
(0 0.0109885 0)
(0 0.0111984 0)
(0 0.0101901 0)
(0 0.0102958 0)
(0 0.01132 0)
(0 0.0114166 0)
(0 0.0104274 0)
(0 0.0104714 0)
(0 0.0114602 0)
(0 0.0114166 0)
(0 0.0104274 0)
(0 0.0102958 0)
(0 0.01132 0)
(0 0.0111984 0)
(0 0.0101901 0)
(0 0.00998152 0)
(0 0.0109885 0)
(0 0.0106904 0)
(0 0.00968747 0)
(0 0.00936608 0)
(0 0.0103905 0)
(0 0.00997419 0)
(0 0.00896211 0)
(0 0.00953262 0)
(0 0.00899814 0)
(0 0.0083933 0)
(0 0.0077969 0)
(0 0.00712563 0)
(0 0.00641272 0)
(0 0.00567184 0)
(0 0.00644394 0)
(0 0.0049058 0)
(0 0.00335121 0)
(0 0.00201687 0)
(0 0.000949897 0)
(0 0.000252969 0)
(0 0 0)
(0 0 0)
(0 0 0)
(0 0 0)
(0 0 0)
(0 0 0)
(0 0 0)
(0 0 0)
(0 0 0)
(0 0 0)
(0 0 0)
(0 0 0)
(0 0 0)
(0 0 0)
(0 0 0)
(0 5.07606e-05 0)
(0 0.000521499 0)
(0 0.00150321 0)
(0 0.00281641 0)
(0 0.00437758 0)
(0 0.0061662 0)
(0 0.00788907 0)
(0 0.00721858 0)
(0 0.00799907 0)
(0 0.00718249 0)
(0 0.0079858 0)
(0 0.0087327 0)
(0 0.00946865 0)
(0 0.00869277 0)
(0 0.00933841 0)
(0 0.0101322 0)
(0 0.0104348 0)
(0 0.0107164 0)
(0 0.0103335 0)
(0 0.00988342 0)
(0 0.0104319 0)
(0 0.0108252 0)
(0 0.0110682 0)
(0 0.0106747 0)
(0 0.0112654 0)
(0 0.0116385 0)
(0 0.0118112 0)
(0 0.0114407 0)
(0 0.011827 0)
(0 0.012192 0)
(0 0.0122829 0)
(0 0.0119394 0)
(0 0.012146 0)
(0 0.0124804 0)
(0 0.0125281 0)
(0 0.0122013 0)
(0 0.0122608 0)
(0 0.0125805 0)
(0 0.0125708 0)
(0 0.0122506 0)
(0 0.012146 0)
(0 0.0124804 0)
(0 0.0124353 0)
(0 0.0120985 0)
(0 0.011827 0)
(0 0.012192 0)
(0 0.0120875 0)
(0 0.0117234 0)
(0 0.0112654 0)
(0 0.0116385 0)
(0 0.0114861 0)
(0 0.0110675 0)
(0 0.0104319 0)
(0 0.0108252 0)
(0 0.0105601 0)
(0 0.0101678 0)
(0 0.00933841 0)
(0 0.0101322 0)
(0 0.00946865 0)
(0 0.00869277 0)
(0 0.0079858 0)
(0 0.0087327 0)
(0 0.00799907 0)
(0 0.00718249 0)
(0 0.00721858 0)
(0 0.00785353 0)
(0 0.00616195 0)
(0 0.00444814 0)
(0 0.00279276 0)
(0 0.00148858 0)
(0 0.000547636 0)
(0 5.80473e-05 0)
(0 0 0)
(0 0 0)
(0 0 0)
(0 0 0)
(0 0 0)
(0 0 0)
(0 0 0)
(0 0 0)
(0 0 0)
(0 0 0)
(0 0 0)
(0 0 0)
(0 0 0)
(0 0 0)
(0 0.000166077 0)
(0 0.000840524 0)
(0 0.00197485 0)
(0 0.00347008 0)
(0 0.00519803 0)
(0 0.00709861 0)
(0 0.00887241 0)
(0 0.00843475 0)
(0 0.00926947 0)
(0 0.00870138 0)
(0 0.0094598 0)
(0 0.0100436 0)
(0 0.0107427 0)
(0 0.0101506 0)
(0 0.0107626 0)
(0 0.0110796 0)
(0 0.0113523 0)
(0 0.0110792 0)
(0 0.0118495 0)
(0 0.0119807 0)
(0 0.0120865 0)
(0 0.0119566 0)
(0 0.0125439 0)
(0 0.0126488 0)
(0 0.0127169 0)
(0 0.0126142 0)
(0 0.012955 0)
(0 0.0130314 0)
(0 0.0130661 0)
(0 0.0129891 0)
(0 0.0131351 0)
(0 0.0131912 0)
(0 0.0131992 0)
(0 0.0131447 0)
(0 0.0131812 0)
(0 0.0132264 0)
(0 0.0132256 0)
(0 0.0131801 0)
(0 0.0131351 0)
(0 0.0131912 0)
(0 0.0131801 0)
(0 0.013122 0)
(0 0.012955 0)
(0 0.0130314 0)
(0 0.0130023 0)
(0 0.0129139 0)
(0 0.0125439 0)
(0 0.0126488 0)
(0 0.0125896 0)
(0 0.0124675 0)
(0 0.0118495 0)
(0 0.0119807 0)
(0 0.0121007 0)
(0 0.0118723 0)
(0 0.011617 0)
(0 0.0107626 0)
(0 0.0110796 0)
(0 0.011355 0)
(0 0.0107427 0)
(0 0.0101506 0)
(0 0.0094598 0)
(0 0.0100207 0)
(0 0.00926349 0)
(0 0.00870138 0)
(0 0.00844484 0)
(0 0.00889869 0)
(0 0.00708076 0)
(0 0.00524982 0)
(0 0.00350647 0)
(0 0.00199773 0)
(0 0.000852518 0)
(0 0.000170174 0)
(0 0 0)
(0 0 0)
(0 0 0)
(0 0 0)
(0 0 0)
(0 0 0)
(0 0 0)
(0 0 0)
(0 0 0)
(0 0 0)
(0 0 0)
(0 0 0)
(0 0 0)
(0 0 0)
(0 0.000256086 0)
(0 0.00104416 0)
(0 0.0022978 0)
(0 0.00391114 0)
(0 0.0057483 0)
(0 0.00765491 0)
(0 0.00947138 0)
(0 0.00924633 0)
(0 0.0100744 0)
(0 0.00968999 0)
(0 0.0104397 0)
(0 0.0108289 0)
(0 0.0114948 0)
(0 0.0111732 0)
(0 0.0117794 0)
(0 0.0119292 0)
(0 0.0121901 0)
(0 0.0120438 0)
(0 0.012672 0)
(0 0.0127412 0)
(0 0.0128193 0)
(0 0.0127523 0)
(0 0.0131535 0)
(0 0.0131869 0)
(0 0.0132148 0)
(0 0.0131853 0)
(0 0.0132688 0)
(0 0.0132688 0)
(0 0.0132688 0)
(0 0.0132688 0)
(0 0.0132688 0)
(0 0.0132688 0)
(0 0.0132688 0)
(0 0.0132688 0)
(0 0.0132688 0)
(0 0.0132688 0)
(0 0.0132688 0)
(0 0.0132688 0)
(0 0.0132688 0)
(0 0.0132688 0)
(0 0.0132688 0)
(0 0.0132688 0)
(0 0.0132688 0)
(0 0.0132688 0)
(0 0.0132688 0)
(0 0.0132688 0)
(0 0.0131535 0)
(0 0.0131869 0)
(0 0.0131501 0)
(0 0.0131153 0)
(0 0.012672 0)
(0 0.0127412 0)
(0 0.0128003 0)
(0 0.0126198 0)
(0 0.0124906 0)
(0 0.0117726 0)
(0 0.0119466 0)
(0 0.0120794 0)
(0 0.0114789 0)
(0 0.0111831 0)
(0 0.0104992 0)
(0 0.0108154 0)
(0 0.0100637 0)
(0 0.00973283 0)
(0 0.00923848 0)
(0 0.0094761 0)
(0 0.00765177 0)
(0 0.00573916 0)
(0 0.0038986 0)
(0 0.00228472 0)
(0 0.00103334 0)
(0 0.000249938 0)
(0 0 0)
(0 0 0)
(0 0 0)
(0 0 0)
(0 0 0)
(0 0 0)
(0 0 0)
(0 0 0)
(0 0 0)
(0 0 0)
(0 0 0)
(0 0 0)
(0 0 0)
(0 0 0)
(0 0.000271509 0)
(0 0.00107754 0)
(0 0.00235042 0)
(0 0.00398318 0)
(0 0.00583864 0)
(0 0.00776089 0)
(0 0.00958845 0)
(0 0.00959182 0)
(0 0.0104208 0)
(0 0.0102979 0)
(0 0.0110468 0)
(0 0.0111698 0)
(0 0.011823 0)
(0 0.0117027 0)
(0 0.0122736 0)
(0 0.0123288 0)
(0 0.0125577 0)
(0 0.012508 0)
(0 0.0130247 0)
(0 0.013046 0)
(0 0.0131024 0)
(0 0.0130828 0)
(0 0.0132688 0)
(0 0.0132688 0)
(0 0.0132688 0)
(0 0.0132688 0)
(0 0.0132688 0)
(0 0.0132688 0)
(0 0.0132688 0)
(0 0.0132688 0)
(0 0.0132688 0)
(0 0.0132688 0)
(0 0.0132688 0)
(0 0.0132688 0)
(0 0.0132688 0)
(0 0.0132688 0)
(0 0.0132688 0)
(0 0.0132688 0)
(0 0.0132688 0)
(0 0.0132683 0)
(0 0.0132663 0)
(0 0.0130247 0)
(0 0.013046 0)
(0 0.01306 0)
(0 0.0129273 0)
(0 0.0128805 0)
(0 0.0122729 0)
(0 0.0123296 0)
(0 0.0123667 0)
(0 0.011823 0)
(0 0.0117197 0)
(0 0.0110599 0)
(0 0.0111416 0)
(0 0.0103885 0)
(0 0.0103069 0)
(0 0.00955604 0)
(0 0.00956701 0)
(0 0.00773703 0)
(0 0.0058144 0)
(0 0.00396067 0)
(0 0.00233159 0)
(0 0.00106404 0)
(0 0.000264512 0)
(0 0 0)
(0 0 0)
(0 0 0)
(0 0 0)
(0 0 0)
(0 0 0)
(0 0 0)
(0 0 0)
(0 0 0)
(0 0 0)
(0 0 0)
(0 0 0)
(0 0 0)
(0 0 0)
(0 0.000221885 0)
(0 0.00096973 0)
(0 0.00218167 0)
(0 0.00375432 0)
(0 0.00555454 0)
(0 0.00743097 0)
(0 0.00922738 0)
(0 0.00948665 0)
(0 0.0103142 0)
(0 0.0104181 0)
(0 0.0111678 0)
(0 0.0110638 0)
(0 0.0117201 0)
(0 0.0118218 0)
(0 0.0123662 0)
(0 0.0123371 0)
(0 0.0125659 0)
(0 0.0125937 0)
(0 0.0130833 0)
(0 0.0130763 0)
(0 0.0131293 0)
(0 0.0131356 0)
(0 0.0132688 0)
(0 0.0132688 0)
(0 0.0132688 0)
(0 0.0132688 0)
(0 0.0132688 0)
(0 0.0132688 0)
(0 0.0132688 0)
(0 0.0132688 0)
(0 0.0132688 0)
(0 0.0132688 0)
(0 0.0132688 0)
(0 0.0132688 0)
(0 0.0132688 0)
(0 0.0132688 0)
(0 0.0132688 0)
(0 0.0132688 0)
(0 0.0130833 0)
(0 0.0130707 0)
(0 0.0130638 0)
(0 0.0129314 0)
(0 0.0129465 0)
(0 0.0123547 0)
(0 0.0123362 0)
(0 0.0122799 0)
(0 0.0117282 0)
(0 0.0118073 0)
(0 0.0111506 0)
(0 0.0110697 0)
(0 0.0103177 0)
(0 0.0103985 0)
(0 0.0094878 0)
(0 0.00925083 0)
(0 0.0074482 0)
(0 0.00556579 0)
(0 0.00376051 0)
(0 0.00218413 0)
(0 0.00096997 0)
(0 0.000221401 0)
(0 0 0)
(0 0 0)
(0 0 0)
(0 0 0)
(0 0 0)
(0 0 0)
(0 0 0)
(0 0 0)
(0 0 0)
(0 0 0)
(0 0 0)
(0 0 0)
(0 0 0)
(0 0 0)
(0 0.000112226 0)
(0 0.000704915 0)
(0 0.00175333 0)
(0 0.00316332 0)
(0 0.00491808 0)
(0 0.00671242 0)
(0 0.00846264 0)
(0 0.00892678 0)
(0 0.00975648 0)
(0 0.0100489 0)
(0 0.0108462 0)
(0 0.0105178 0)
(0 0.0111963 0)
(0 0.0115224 0)
(0 0.0120968 0)
(0 0.0119592 0)
(0 0.0122088 0)
(0 0.0123424 0)
(0 0.012903 0)
(0 0.0128638 0)
(0 0.012935 0)
(0 0.0129768 0)
(0 0.0132527 0)
(0 0.0132391 0)
(0 0.0132554 0)
(0 0.0132638 0)
(0 0.0132688 0)
(0 0.0132688 0)
(0 0.0132688 0)
(0 0.0132688 0)
(0 0.0132688 0)
(0 0.0132688 0)
(0 0.0132688 0)
(0 0.0132688 0)
(0 0.0132527 0)
(0 0.0132371 0)
(0 0.0132156 0)
(0 0.0132349 0)
(0 0.012903 0)
(0 0.0128638 0)
(0 0.0128106 0)
(0 0.0126418 0)
(0 0.012746 0)
(0 0.0120968 0)
(0 0.0119592 0)
(0 0.0118028 0)
(0 0.0111963 0)
(0 0.0115224 0)
(0 0.010826 0)
(0 0.0105178 0)
(0 0.00975648 0)
(0 0.0100753 0)
(0 0.00892678 0)
(0 0.00846264 0)
(0 0.00671242 0)
(0 0.0048547 0)
(0 0.00319442 0)
(0 0.00177372 0)
(0 0.000716077 0)
(0 0.000115998 0)
(0 0 0)
(0 0 0)
(0 0 0)
(0 0 0)
(0 0 0)
(0 0 0)
(0 0 0)
(0 0 0)
(0 0 0)
(0 0 0)
(0 0 0)
(0 0 0)
(0 0 0)
(0 0 0)
(0 1.38863e-05 0)
(0 0.000412213 0)
(0 0.00125524 0)
(0 0.00246831 0)
(0 0.00394052 0)
(0 0.00554268 0)
(0 0.0072239 0)
(0 0.00786137 0)
(0 0.0087162 0)
(0 0.00927672 0)
(0 0.0100686 0)
(0 0.00946461 0)
(0 0.0102141 0)
(0 0.0107572 0)
(0 0.01139 0)
(0 0.0111363 0)
(0 0.0114157 0)
(0 0.0116673 0)
(0 0.0123463 0)
(0 0.0122334 0)
(0 0.0123361 0)
(0 0.01243 0)
(0 0.0129465 0)
(0 0.0128722 0)
(0 0.0129264 0)
(0 0.0129978 0)
(0 0.0132148 0)
(0 0.0131733 0)
(0 0.0131915 0)
(0 0.0132295 0)
(0 0.0132688 0)
(0 0.0132614 0)
(0 0.0132643 0)
(0 0.0132688 0)
(0 0.0132688 0)
(0 0.0132688 0)
(0 0.0132688 0)
(0 0.0132688 0)
(0 0.0132688 0)
(0 0.0132688 0)
(0 0.0132614 0)
(0 0.0132574 0)
(0 0.0132683 0)
(0 0.0132687 0)
(0 0.0132148 0)
(0 0.0131733 0)
(0 0.0131507 0)
(0 0.013196 0)
(0 0.0129465 0)
(0 0.0128722 0)
(0 0.0128117 0)
(0 0.0128887 0)
(0 0.0123554 0)
(0 0.0122517 0)
(0 0.0121271 0)
(0 0.011921 0)
(0 0.0121451 0)
(0 0.0113587 0)
(0 0.0111233 0)
(0 0.0108484 0)
(0 0.0102001 0)
(0 0.0107572 0)
(0 0.0100686 0)
(0 0.00946461 0)
(0 0.0087162 0)
(0 0.00927672 0)
(0 0.00786137 0)
(0 0.0072239 0)
(0 0.00554268 0)
(0 0.00394052 0)
(0 0.00246831 0)
(0 0.00125524 0)
(0 0.000384512 0)
(0 1.668e-05 0)
(0 0 0)
(0 0 0)
(0 0 0)
(0 0 0)
(0 0 0)
(0 0 0)
(0 0 0)
(0 0 0)
(0 0 0)
(0 0 0)
(0 0 0)
(0 0 0)
(0 0 0)
(0 0 0)
(0 0 0)
(0 0.000126702 0)
(0 0.000667674 0)
(0 0.00157089 0)
(0 0.00274213 0)
(0 0.00420553 0)
(0 0.0057186 0)
(0 0.00643236 0)
(0 0.00727462 0)
(0 0.00799487 0)
(0 0.0087757 0)
(0 0.00803287 0)
(0 0.00874182 0)
(0 0.00950961 0)
(0 0.0101741 0)
(0 0.00938901 0)
(0 0.00993081 0)
(0 0.0103807 0)
(0 0.0107588 0)
(0 0.010477 0)
(0 0.0112616 0)
(0 0.0108685 0)
(0 0.0111115 0)
(0 0.011484 0)
(0 0.0120406 0)
(0 0.0117035 0)
(0 0.0118383 0)
(0 0.0121877 0)
(0 0.0125338 0)
(0 0.0122351 0)
(0 0.0123228 0)
(0 0.0126166 0)
(0 0.0127896 0)
(0 0.012514 0)
(0 0.0125626 0)
(0 0.0128235 0)
(0 0.0128688 0)
(0 0.0126143 0)
(0 0.0126011 0)
(0 0.0128584 0)
(0 0.0127896 0)
(0 0.012514 0)
(0 0.0124449 0)
(0 0.0127364 0)
(0 0.0125338 0)
(0 0.0122351 0)
(0 0.0121254 0)
(0 0.0124294 0)
(0 0.0120406 0)
(0 0.0117035 0)
(0 0.0115292 0)
(0 0.01187 0)
(0 0.0112616 0)
(0 0.0108685 0)
(0 0.0106403 0)
(0 0.0110187 0)
(0 0.0101741 0)
(0 0.00938901 0)
(0 0.00874182 0)
(0 0.00950961 0)
(0 0.0087757 0)
(0 0.00803287 0)
(0 0.00727462 0)
(0 0.00799487 0)
(0 0.00643236 0)
(0 0.0057186 0)
(0 0.00420553 0)
(0 0.00274213 0)
(0 0.00157089 0)
(0 0.000667674 0)
(0 0.000126702 0)
(0 0 0)
(0 0 0)
(0 0 0)
(0 0 0)
(0 0 0)
(0 0 0)
(0 0 0)
(0 0 0)
(0 0 0)
(0 0 0)
(0 0 0)
(0 0 0)
(0 0 0)
(0 0 0)
(0 0 0)
(0 0 0)
(0 0 0)
(0 0.000190935 0)
(0 0.000788418 0)
(0 0.00169015 0)
(0 0.00280846 0)
(0 0.00403338 0)
(0 0.00524257 0)
(0 0.00618093 0)
(0 0.00717872 0)
(0 0.00646283 0)
(0 0.00685245 0)
(0 0.00785257 0)
(0 0.00844693 0)
(0 0.00748166 0)
(0 0.00805715 0)
(0 0.0090535 0)
(0 0.00958929 0)
(0 0.00909349 0)
(0 0.00928485 0)
(0 0.00982825 0)
(0 0.010438 0)
(0 0.00995052 0)
(0 0.0101314 0)
(0 0.0106203 0)
(0 0.0110357 0)
(0 0.0105454 0)
(0 0.0106263 0)
(0 0.0111301 0)
(0 0.0113941 0)
(0 0.0109233 0)
(0 0.0109783 0)
(0 0.0114487 0)
(0 0.0115128 0)
(0 0.0110449 0)
(0 0.0110223 0)
(0 0.0114922 0)
(0 0.0113941 0)
(0 0.0109233 0)
(0 0.0108463 0)
(0 0.0113176 0)
(0 0.0110357 0)
(0 0.0105454 0)
(0 0.0104291 0)
(0 0.0109193 0)
(0 0.010438 0)
(0 0.00995052 0)
(0 0.00974877 0)
(0 0.0102342 0)
(0 0.00958929 0)
(0 0.00909349 0)
(0 0.00852047 0)
(0 0.00805715 0)
(0 0.0090535 0)
(0 0.00844693 0)
(0 0.00748166 0)
(0 0.00685245 0)
(0 0.00785257 0)
(0 0.00717872 0)
(0 0.00618093 0)
(0 0.00524257 0)
(0 0.00403338 0)
(0 0.00646283 0)
(0 0.00280846 0)
(0 0.00169015 0)
(0 0.000788418 0)
(0 0.000190935 0)
(0 0 0)
(0 0 0)
(0 0 0)
(0 0 0)
(0 0 0)
(0 0 0)
(0 0 0)
(0 0 0)
(0 0 0)
(0 0 0)
(0 0 0)
(0 0 0)
(0 0 0)
(0 0 0)
(0 0 0)
(0 0 0)
(0 0 0)
(0 0 0)
(0 2.4213e-06 0)
(0 0.000216909 0)
(0 0.000735033 0)
(0 0.0014404 0)
(0 0.00235763 0)
(0 0.00333584 0)
(0 0.00428164 0)
(0 0.00483377 0)
(0 0.00585861 0)
(0 0.00643964 0)
(0 0.00529919 0)
(0 0.00582429 0)
(0 0.0069184 0)
(0 0.00744333 0)
(0 0.00687926 0)
(0 0.00711014 0)
(0 0.00768336 0)
(0 0.00830213 0)
(0 0.00770691 0)
(0 0.00787115 0)
(0 0.00847199 0)
(0 0.00885686 0)
(0 0.00826083 0)
(0 0.00839352 0)
(0 0.00899343 0)
(0 0.00927957 0)
(0 0.00867203 0)
(0 0.00872403 0)
(0 0.00933291 0)
(0 0.00940319 0)
(0 0.00879435 0)
(0 0.00876573 0)
(0 0.00937568 0)
(0 0.00927957 0)
(0 0.00867203 0)
(0 0.00859946 0)
(0 0.00920507 0)
(0 0.00885686 0)
(0 0.00826083 0)
(0 0.00810888 0)
(0 0.00875343 0)
(0 0.00830213 0)
(0 0.00770691 0)
(0 0.00752483 0)
(0 0.0081136 0)
(0 0.00744333 0)
(0 0.00687926 0)
(0 0.00630498 0)
(0 0.00582429 0)
(0 0.0069184 0)
(0 0.00643964 0)
(0 0.00529919 0)
(0 0.00483377 0)
(0 0.00585861 0)
(0 0.00428164 0)
(0 0.00333584 0)
(0 0.00235763 0)
(0 0.0014404 0)
(0 0.000735033 0)
(0 0.000216909 0)
(0 2.4213e-06 0)
(0 0 0)
(0 0 0)
(0 0 0)
(0 0 0)
(0 0 0)
(0 0 0)
(0 0 0)
(0 0 0)
(0 0 0)
(0 0 0)
(0 0 0)
(0 0 0)
(0 0 0)
(0 0 0)
(0 0 0)
(0 0 0)
(0 0 0)
(0 0 0)
(0 0 0)
(0 0 0)
(0 0.000113913 0)
(0 0.000474444 0)
(0 0.000961131 0)
(0 0.00161836 0)
(0 0.00239299 0)
(0 0.00282173 0)
(0 0.00375994 0)
(0 0.00425233 0)
(0 0.00324189 0)
(0 0.00364289 0)
(0 0.00471824 0)
(0 0.00514745 0)
(0 0.0045753 0)
(0 0.00476081 0)
(0 0.00534543 0)
(0 0.00586091 0)
(0 0.00524504 0)
(0 0.00533341 0)
(0 0.00594054 0)
(0 0.00638877 0)
(0 0.00575666 0)
(0 0.00586737 0)
(0 0.0065058 0)
(0 0.00675242 0)
(0 0.00610097 0)
(0 0.00614477 0)
(0 0.00679862 0)
(0 0.00686594 0)
(0 0.00621012 0)
(0 0.00617994 0)
(0 0.00683571 0)
(0 0.00675242 0)
(0 0.00610097 0)
(0 0.00603993 0)
(0 0.00668802 0)
(0 0.00638877 0)
(0 0.00575666 0)
(0 0.00563034 0)
(0 0.00625513 0)
(0 0.00586091 0)
(0 0.00524504 0)
(0 0.00509657 0)
(0 0.00570305 0)
(0 0.00514745 0)
(0 0.0045753 0)
(0 0.00401501 0)
(0 0.00364289 0)
(0 0.00471824 0)
(0 0.00425233 0)
(0 0.00324189 0)
(0 0.00282173 0)
(0 0.00375994 0)
(0 0.00239299 0)
(0 0.00161836 0)
(0 0.000961131 0)
(0 0.000474444 0)
(0 0.000113913 0)
(0 0 0)
(0 0 0)
(0 0 0)
(0 0 0)
(0 0 0)
(0 0 0)
(0 0 0)
(0 0 0)
(0 0 0)
(0 0 0)
(0 0 0)
(0 0 0)
(0 0 0)
(0 0 0)
(0 0 0)
(0 0 0)
(0 0 0)
(0 0 0)
(0 0 0)
(0 0 0)
(0 0 0)
(0 0 0)
(0 0 0)
(0 9.70059e-06 0)
(0 0.000164545 0)
(0 0.000459222 0)
(0 0.000963348 0)
(0 0.00122562 0)
(0 0.00196462 0)
(0 0.00230876 0)
(0 0.00149194 0)
(0 0.00175329 0)
(0 0.00264096 0)
(0 0.00295209 0)
(0 0.00246012 0)
(0 0.00259099 0)
(0 0.00309713 0)
(0 0.00344647 0)
(0 0.00291685 0)
(0 0.00303964 0)
(0 0.00358139 0)
(0 0.00392139 0)
(0 0.00334993 0)
(0 0.00343178 0)
(0 0.00401087 0)
(0 0.00420036 0)
(0 0.00360539 0)
(0 0.00363807 0)
(0 0.004236 0)
(0 0.00429292 0)
(0 0.00369143 0)
(0 0.00366435 0)
(0 0.00426464 0)
(0 0.00420036 0)
(0 0.00360539 0)
(0 0.00355991 0)
(0 0.00415076 0)
(0 0.00392139 0)
(0 0.00334993 0)
(0 0.00325688 0)
(0 0.00381957 0)
(0 0.00344647 0)
(0 0.00291685 0)
(0 0.00278567 0)
(0 0.00330207 0)
(0 0.00295209 0)
(0 0.00246012 0)
(0 0.00200125 0)
(0 0.00175329 0)
(0 0.00264096 0)
(0 0.00230876 0)
(0 0.00149194 0)
(0 0.00122562 0)
(0 0.00196462 0)
(0 0.000963348 0)
(0 0.000459222 0)
(0 0.000164545 0)
(0 9.70059e-06 0)
(0 0 0)
(0 0 0)
(0 0 0)
(0 0 0)
(0 0 0)
(0 0 0)
(0 0 0)
(0 0 0)
(0 0 0)
(0 0 0)
(0 0 0)
(0 0 0)
(0 0 0)
(0 0 0)
(0 0 0)
(0 0 0)
(0 0 0)
(0 0 0)
(0 0 0)
(0 0 0)
(0 0 0)
(0 0 0)
(0 0 0)
(0 0 0)
(0 0 0)
(0 0 0)
(0 1.75843e-06 0)
(0 0.00013211 0)
(0 0.000230112 0)
(0 0.000638075 0)
(0 0.000826712 0)
(0 0.000343123 0)
(0 0.000463977 0)
(0 0.00101702 0)
(0 0.00120136 0)
(0 0.000826968 0)
(0 0.000911625 0)
(0 0.00124675 0)
(0 0.0015308 0)
(0 0.00115206 0)
(0 0.00122504 0)
(0 0.00161625 0)
(0 0.00183477 0)
(0 0.00141282 0)
(0 0.00146311 0)
(0 0.001893 0)
(0 0.00201723 0)
(0 0.00157072 0)
(0 0.00159113 0)
(0 0.00204073 0)
(0 0.0020816 0)
(0 0.00162735 0)
(0 0.00160756 0)
(0 0.00205965 0)
(0 0.00201723 0)
(0 0.00157072 0)
(0 0.00154241 0)
(0 0.00198459 0)
(0 0.00183477 0)
(0 0.00141282 0)
(0 0.00135603 0)
(0 0.00176887 0)
(0 0.0015308 0)
(0 0.00115206 0)
(0 0.00107499 0)
(0 0.00144021 0)
(0 0.00120136 0)
(0 0.000826968 0)
(0 0.000556101 0)
(0 0.000463977 0)
(0 0.00101702 0)
(0 0.000826712 0)
(0 0.000343123 0)
(0 0.000230112 0)
(0 0.000638075 0)
(0 0.00013211 0)
(0 1.75843e-06 0)
(0 0 0)
(0 0 0)
(0 0 0)
(0 0 0)
(0 0 0)
(0 0 0)
(0 0 0)
(0 0 0)
(0 0 0)
(0 0 0)
(0 0 0)
(0 0 0)
(0 0 0)
(0 0 0)
(0 0 0)
(0 0 0)
(0 0 0)
(0 0 0)
(0 0 0)
(0 0 0)
(0 0 0)
(0 0 0)
(0 0 0)
(0 0 0)
(0 0 0)
(0 0 0)
(0 0 0)
(0 0 0)
(0 0 0)
(0 0 0)
(0 0 0)
(0 6.45803e-05 0)
(0 2.33579e-05 0)
(0 0 0)
(0 0.000101552 0)
(0 0.000169656 0)
(0 5.19399e-06 0)
(0 2.27027e-05 0)
(0 0.000244488 0)
(0 0.000320314 0)
(0 4.78717e-05 0)
(0 7.62255e-05 0)
(0 0.000391963 0)
(0 0.00045494 0)
(0 0.000103857 0)
(0 0.000127523 0)
(0 0.000505529 0)
(0 0.000540875 0)
(0 0.000144721 0)
(0 0.000153752 0)
(0 0.00055904 0)
(0 0.000573574 0)
(0 0.000161466 0)
(0 0.000153752 0)
(0 0.00055904 0)
(0 0.000540875 0)
(0 0.000144721 0)
(0 0.000127523 0)
(0 0.000505529 0)
(0 0.00045494 0)
(0 0.000103857 0)
(0 7.62255e-05 0)
(0 0.000391963 0)
(0 0.000320314 0)
(0 4.78717e-05 0)
(0 2.27027e-05 0)
(0 0.000244488 0)
(0 0.000169656 0)
(0 5.19399e-06 0)
(0 0 0)
(0 0.000101552 0)
(0 6.45803e-05 0)
(0 0 0)
(0 0 0)
(0 0 0)
(0 2.33579e-05 0)
(0 0 0)
(0 0 0)
(0 0 0)
(0 0 0)
(0 0 0)
(0 0 0)
(0 0 0)
(0 0 0)
(0 0 0)
(0 0 0)
(0 0 0)
(0 0 0)
(0 0 0)
(0 0 0)
(0 0 0)
(0 0 0)
(0 0 0)
(0 0 0)
(0 0 0)
(0 0 0)
(0 0 0)
(0 0 0)
(0 0 0)
(0 0 0)
(0 0 0)
(0 0 0)
(0 0 0)
(0 0 0)
(0 0 0)
(0 0 0)
(0 0 0)
(0 0 0)
(0 0 0)
(0 0 0)
(0 0 0)
(0 0 0)
(0 0 0)
(0 0 0)
(0 0 0)
(0 0 0)
(0 4.6678e-07 0)
(0 0 0)
(0 0 0)
(0 1.79632e-06 0)
(0 1.06878e-06 0)
(0 0 0)
(0 4.6678e-07 0)
(0 1.06878e-06 0)
(0 0 0)
(0 0 0)
(0 0 0)
(0 0 0)
(0 0 0)
(0 0 0)
(0 0 0)
(0 0 0)
(0 0 0)
(0 0 0)
(0 0 0)
(0 0 0)
(0 0 0)
(0 0 0)
(0 0 0)
(0 0 0)
(0 0 0)
(0 0 0)
(0 0 0)
(0 0 0)
(0 0 0)
(0 0 0)
(0 0 0)
(0 0 0)
(0 0 0)
(0 0 0)
(0 0 0)
(0 0 0)
(0 0 0)
(0 0 0)
(0 0 0)
(0 0 0)
(0 0 0)
(0 0 0)
(0 0 0)
(0 0 0)
(0 0 0)
(0 0 0)
(0 0 0)
(0 0 0)
(0 0 0)
(0 0 0)
(0 0 0)
(0 0 0)
(0 0 0)
(0 0 0)
(0 0 0)
(0 0 0)
(0 0 0)
(0 0 0)
(0 0 0)
(0 0 0)
(0 0 0)
(0 0 0)
(0 0 0)
(0 0 0)
(0 0 0)
(0 0 0)
(0 0 0)
(0 0 0)
(0 0 0)
(0 0 0)
(0 0 0)
(0 0 0)
(0 0 0)
(0 0 0)
(0 0 0)
(0 0 0)
(0 0 0)
(0 0 0)
(0 0 0)
(0 0 0)
(0 0 0)
(0 0 0)
(0 0 0)
(0 0 0)
(0 0 0)
(0 0 0)
(0 0 0)
(0 0 0)
(0 0 0)
(0 0 0)
(0 0 0)
(0 0 0)
(0 0 0)
(0 0 0)
(0 0 0)
(0 0 0)
(0 0 0)
(0 0 0)
(0 0 0)
(0 0 0)
(0 0 0)
(0 0 0)
(0 0 0)
(0 0 0)
(0 0 0)
(0 0 0)
(0 0 0)
(0 0 0)
(0 0 0)
(0 0 0)
(0 0 0)
(0 0 0)
(0 0 0)
(0 0 0)
(0 0 0)
(0 0 0)
(0 0 0)
(0 0 0)
(0 0 0)
(0 0 0)
(0 0 0)
(0 0 0)
(0 0 0)
(0 0 0)
(0 0 0)
(0 0 0)
(0 0 0)
(0 0 0)
(0 0 0)
(0 0 0)
(0 0 0)
(0 0 0)
(0 0 0)
(0 0 0)
(0 0 0)
(0 0 0)
(0 0 0)
(0 0 0)
(0 0 0)
(0 0 0)
(0 0 0)
(0 0 0)
(0 0 0)
(0 0 0)
(0 0 0)
(0 0 0)
(0 0 0)
(0 0 0)
(0 0 0)
(0 0 0)
(0 0 0)
(0 0 0)
(0 0 0)
(0 0 0)
(0 0 0)
(0 0 0)
(0 0 0)
(0 0 0)
(0 0 0)
(0 0 0)
(0 0 0)
(0 0 0)
(0 0 0)
(0 0 0)
(0 0 0)
(0 0 0)
(0 0 0)
(0 0 0)
(0 0 0)
(0 0 0)
(0 0 0)
(0 0 0)
(0 0 0)
(0 0 0)
(0 0 0)
(0 0 0)
(0 0 0)
(0 0 0)
(0 0 0)
(0 0 0)
(0 0 0)
(0 0 0)
(0 0 0)
(0 0 0)
(0 0 0)
(0 0 0)
(0 0 0)
(0 0 0)
(0 0 0)
(0 0 0)
(0 0 0)
(0 0 0)
(0 0 0)
(0 0 0)
(0 0 0)
(0 0 0)
(0 0 0)
(0 0 0)
(0 0 0)
(0 0 0)
(0 0 0)
(0 0 0)
(0 0 0)
(0 0 0)
(0 0 0)
(0 0 0)
(0 0 0)
(0 0 0)
(0 0 0)
(0 0 0)
(0 0 0)
(0 0 0)
(0 0 0)
(0 0 0)
(0 0 0)
(0 0 0)
(0 0 0)
(0 0 0)
(0 0 0)
(0 0 0)
(0 0 0)
(0 0 0)
(0 0 0)
(0 0 0)
(0 0 0)
(0 0 0)
(0 0 0)
(0 0 0)
(0 0 0)
(0 0 0)
(0 0 0)
(0 0 0)
(0 0 0)
(0 0 0)
(0 0 0)
(0 0 0)
(0 0 0)
(0 0 0)
(0 0 0)
(0 0 0)
(0 0 0)
(0 0 0)
(0 0 0)
(0 0 0)
(0 0 0)
(0 0 0)
(0 0 0)
(0 0 0)
(0 0 0)
(0 0 0)
(0 0 0)
(0 0 0)
(0 0 0)
(0 0 0)
(0 0 0)
(0 0 0)
(0 0 0)
(0 0 0)
(0 0 0)
(0 0 0)
(0 0 0)
(0 0 0)
(0 0 0)
(0 0 0)
(0 0 0)
(0 0 0)
(0 0 0)
(0 0 0)
(0 0 0)
(0 0 0)
(0 0 0)
(0 0 0)
(0 0 0)
(0 0 0)
(0 0 0)
(0 0 0)
(0 0 0)
(0 0 0)
(0 0 0)
(0 0 0)
(0 0 0)
(0 0 0)
(0 0 0)
(0 0 0)
(0 0 0)
(0 0 0)
(0 0 0)
(0 0 0)
(0 0 0)
(0 0 0)
(0 0 0)
(0 0 0)
(0 0 0)
(0 0 0)
(0 0 0)
(0 0 0)
(0 0 0)
(0 0 0)
(0 0 0)
(0 0 0)
(0 0 0)
(0 0 0)
(0 0 0)
(0 0 0)
(0 0 0)
(0 0 0)
(0 0 0)
(0 0 0)
(0 0 0)
(0 0 0)
(0 0 0)
(0 0 0)
(0 0 0)
(0 0 0)
(0 0 0)
(0 0 0)
(0 0 0)
(0 0 0)
(0 0 0)
(0 0 0)
(0 0 0)
(0 0 0)
(0 0 0)
(0 0 0)
(0 0 0)
(0 0 0)
(0 0 0)
(0 0 0)
(0 0 0)
(0 0 0)
(0 0 0)
(0 0 0)
(0 0 0)
(0 0 0)
(0 0 0)
(0 0 0)
(0 0 0)
(0 0 0)
(0 0 0)
(0 0 0)
(0 0 0)
(0 0 0)
(0 0 0)
(0 0 0)
(0 0 0)
(0 0 0)
(0 0 0)
(0 0 0)
(0 0 0)
(0 0 0)
(0 0 0)
(0 0 0)
(0 0 0)
(0 0 0)
(0 0 0)
(0 0 0)
(0 0 0)
(0 0 0)
(0 0 0)
(0 0 0)
(0 0 0)
(0 0 0)
(0 0 0)
(0 0 0)
(0 0 0)
(0 0 0)
(0 0 0)
(0 0 0)
(0 0 0)
(0 0 0)
(0 0 0)
(0 0 0)
(0 0 0)
(0 0 0)
(0 0 0)
(0 0 0)
(0 0 0)
(0 0 0)
(0 0 0)
(0 0 0)
(0 0 0)
(0 0 0)
(0 0 0)
(0 0 0)
(0 0 0)
(0 0 0)
(0 0 0)
(0 0 0)
(0 0 0)
(0 0 0)
(0 0 0)
(0 0 0)
(0 0 0)
(0 0 0)
(0 0 0)
(0 0 0)
(0 0 0)
(0 0 0)
(0 0 0)
(0 0 0)
(0 0 0)
(0 0 0)
(0 0 0)
(0 0 0)
(0 0 0)
(0 0 0)
(0 0 0)
(0 0 0)
(0 0 0)
(0 0 0)
(0 0 0)
(0 0 0)
(0 0 0)
(0 0 0)
(0 0 0)
(0 0 0)
(0 0 0)
(0 0 0)
(0 0 0)
(0 0 0)
(0 0 0)
(0 0 0)
(0 0 0)
(0 0 0)
(0 0 0)
(0 0 0)
(0 0 0)
(0 0 0)
(0 0 0)
(0 0 0)
(0 0 0)
(0 0 0)
(0 0 0)
(0 0 0)
(0 0 0)
(0 0 0)
(0 0 0)
(0 0 0)
(0 0 0)
(0 0 0)
(0 0 0)
(0 0 0)
(0 0 0)
(0 0 0)
(0 0 0)
(0 0 0)
(0 0 0)
(0 0 0)
(0 0 0)
(0 0 0)
(0 0 0)
(0 0 0)
(0 0 0)
(0 0 0)
(0 0 0)
(0 0 0)
(0 0 0)
(0 0 0)
(0 0 0)
(0 0 0)
(0 0 0)
(0 0 0)
(0 0 0)
(0 0 0)
(0 0 0)
(0 0 0)
(0 0 0)
(0 0 0)
(0 0 0)
(0 0 0)
(0 0 0)
(0 0 0)
(0 0 0)
(0 0 0)
(0 0 0)
(0 0 0)
(0 0 0)
(0 0 0)
(0 0 0)
(0 0 0)
(0 0 0)
(0 0 0)
(0 0 0)
(0 0 0)
(0 0 0)
(0 0 0)
(0 0 0)
(0 0 0)
(0 0 0)
(0 0 0)
(0 0 0)
(0 0 0)
(0 0 0)
(0 0 0)
(0 0 0)
(0 0 0)
(0 0 0)
(0 0 0)
(0 0 0)
(0 0 0)
(0 0 0)
(0 0 0)
(0 0 0)
(0 0 0)
(0 0 0)
(0 0 0)
(0 0 0)
(0 0 0)
(0 0 0)
(0 0 0)
(0 0 0)
(0 0 0)
(0 0 0)
(0 0 0)
(0 0 0)
(0 0 0)
(0 0 0)
(0 0 0)
(0 0 0)
(0 0 0)
(0 0 0)
(0 0 0)
(0 0 0)
(0 0 0)
(0 0 0)
(0 0 0)
(0 0 0)
(0 0 0)
(0 0 0)
(0 0 0)
(0 0 0)
(0 0 0)
(0 0 0)
(0 0 0)
(0 0 0)
(0 0 0)
(0 0 0)
(0 0 0)
(0 0 0)
(0 0 0)
(0 0 0)
(0 0 0)
(0 0 0)
(0 0 0)
(0 0 0)
(0 0 0)
(0 0 0)
(0 0 0)
(0 0 0)
(0 0 0)
(0 0 0)
(0 0 0)
(0 0 0)
(0 0 0)
(0 0 0)
(0 0 0)
(0 0 0)
(0 0 0)
(0 0 0)
(0 0 0)
(0 0 0)
(0 0 0)
(0 0 0)
(0 0 0)
(0 0 0)
(0 0 0)
(0 0 0)
(0 0 0)
(0 0 0)
(0 0 0)
(0 0 0)
(0 0 0)
(0 0 0)
(0 0 0)
(0 0 0)
(0 0 0)
(0 0 0)
(0 0 0)
(0 0 0)
(0 0 0)
(0 0 0)
(0 0 0)
(0 0 0)
(0 0 0)
(0 0 0)
(0 0 0)
(0 0 0)
(0 0 0)
(0 0 0)
(0 0 0)
(0 0 0)
(0 0 0)
(0 0 0)
(0 0 0)
(0 0 0)
(0 0 0)
(0 0 0)
(0 0 0)
(0 0 0)
(0 0 0)
(0 0 0)
(0 0 0)
(0 0 0)
(0 0 0)
(0 0 0)
(0 0 0)
(0 0 0)
(0 0 0)
(0 0 0)
(0 0 0)
(0 0 0)
(0 0 0)
(0 0 0)
(0 0 0)
(0 0 0)
(0 0 0)
(0 0 0)
(0 0 0)
(0 0 0)
(0 0 0)
(0 0 0)
(0 0 0)
(0 0 0)
(0 0 0)
(0 0 0)
(0 0 0)
(0 0 0)
(0 0 0)
(0 0 0)
(0 0 0)
(0 0 0)
(0 0 0)
(0 0 0)
(0 0 0)
(0 0 0)
(0 0 0)
(0 0 0)
(0 0 0)
(0 0 0)
(0 0 0)
(0 0 0)
(0 0 0)
(0 0 0)
(0 0 0)
(0 0 0)
(0 0 0)
(0 0 0)
(0 0 0)
(0 0 0)
(0 0 0)
(0 0 0)
(0 0 0)
(0 0 0)
(0 0 0)
(0 0 0)
(0 0 0)
(0 0 0)
(0 0 0)
(0 0 0)
(0 0 0)
(0 0 0)
(0 0 0)
(0 0 0)
(0 0 0)
(0 0 0)
(0 0 0)
(0 0 0)
(0 0 0)
(0 0 0)
(0 0 0)
(0 0 0)
(0 0 0)
(0 0 0)
(0 0 0)
(0 0 0)
(0 0 0)
(0 0 0)
(0 0 0)
(0 0 0)
(0 0 0)
(0 0 0)
(0 0 0)
(0 0 0)
(0 0 0)
(0 0 0)
(0 0 0)
(0 0 0)
(0 0 0)
(0 0 0)
(0 0 0)
(0 0 0)
(0 0 0)
(0 0 0)
(0 0 0)
(0 0 0)
(0 0 0)
(0 0 0)
(0 0 0)
(0 0 0)
(0 0 0)
(0 0 0)
(0 0 0)
(0 0 0)
(0 0 0)
(0 0 0)
(0 0 0)
(0 0 0)
(0 0 0)
(0 0 0)
(0 0 0)
(0 0 0)
(0 0 0)
(0 0 0)
(0 0 0)
(0 0 0)
(0 0 0)
(0 0 0)
(0 0 0)
(0 0 0)
(0 0 0)
(0 0 0)
(0 0 0)
(0 0 0)
(0 0 0)
(0 0 0)
(0 0 0)
(0 0 0)
(0 0 0)
(0 0 0)
(0 0 0)
(0 0 0)
(0 0 0)
(0 0 0)
(0 0 0)
(0 0 0)
(0 0 0)
(0 0 0)
(0 0 0)
(0 0 0)
(0 0 0)
(0 0 0)
(0 0 0)
(0 0 0)
(0 0 0)
(0 0 0)
(0 0 0)
(0 0 0)
(0 0 0)
(0 0 0)
(0 0 0)
(0 0 0)
(0 0 0)
(0 0 0)
(0 0 0)
(0 0 0)
(0 0 0)
(0 0 0)
(0 0 0)
(0 0 0)
(0 0 0)
(0 0 0)
(0 0 0)
(0 0 0)
(0 0 0)
(0 0 0)
(0 0 0)
(0 0 0)
(0 0 0)
(0 0 0)
(0 0 0)
(0 0 0)
(0 0 0)
(0 0 0)
(0 0 0)
(0 0 0)
(0 0 0)
(0 0 0)
(0 0 0)
(0 0 0)
(0 0 0)
(0 0 0)
(0 0 0)
(0 0 0)
(0 0 0)
(0 0 0)
(0 0 0)
(0 0 0)
(0 0 0)
(0 0 0)
(0 0 0)
(0 0 0)
(0 0 0)
(0 0 0)
(0 0 0)
(0 0 0)
(0 0 0)
(0 0 0)
(0 0 0)
(0 0 0)
(0 0 0)
(0 0 0)
(0 0 0)
(0 0 0)
(0 0 0)
(0 0 0)
(0 0 0)
(0 0 0)
(0 0 0)
(0 0 0)
(0 0 0)
(0 0 0)
(0 0 0)
(0 0 0)
(0 0 0)
(0 0 0)
(0 0 0)
(0 0 0)
(0 0 0)
(0 0 0)
(0 0 0)
(0 0 0)
(0 0 0)
(0 0 0)
(0 0 0)
(0 0 0)
(0 0 0)
(0 0 0)
(0 0 0)
(0 0 0)
(0 0 0)
(0 0 0)
(0 0 0)
(0 0 0)
(0 0 0)
(0 0 0)
(0 0 0)
(0 0 0)
(0 0 0)
(0 0 0)
(0 0 0)
(0 0 0)
(0 0 0)
(0 0 0)
(0 0 0)
(0 0 0)
(0 0 0)
(0 0 0)
(0 0 0)
(0 0 0)
(0 0 0)
(0 0 0)
(0 0 0)
(0 0 0)
(0 0 0)
(0 0 0)
(0 0 0)
(0 0 0)
(0 0 0)
(0 0 0)
(0 0 0)
(0 0 0)
(0 0 0)
(0 0 0)
(0 0 0)
(0 0 0)
(0 0 0)
(0 0 0)
(0 0 0)
(0 0 0)
(0 0 0)
(0 0 0)
(0 0 0)
(0 0 0)
(0 0 0)
(0 0 0)
(0 0 0)
(0 0 0)
(0 0 0)
(0 0 0)
(0 0 0)
(0 0 0)
(0 0 0)
(0 0 0)
(0 0 0)
(0 0 0)
(0 0 0)
(0 0 0)
(0 0 0)
(0 0 0)
(0 0 0)
(0 0 0)
(0 0 0)
(0 0 0)
(0 0 0)
(0 0 0)
(0 0 0)
(0 0 0)