/*--------------------------------*- C++ -*----------------------------------*\
| =========                 |                                                 |
| \\      /  F ield         | OpenFOAM: The Open Source CFD Toolbox           |
|  \\    /   O peration     | Version:  v2106                                 |
|   \\  /    A nd           | Website:  www.openfoam.com                      |
|    \\/     M anipulation  |                                                 |
\*---------------------------------------------------------------------------*/
FoamFile
{
    version     2.0;
    format      ascii;
    arch        "LSB;label=32;scalar=64";
    class       volScalarField;
    location    "0";
    object      p;
}
// * * * * * * * * * * * * * * * * * * * * * * * * * * * * * * * * * * * * * //

dimensions      [0 2 -2 0 0 0 0];

internalField   nonuniform List<scalar> 
11644
(
0.025721
0.0261717
0.0271236
0.0286013
0.0306141
0.0331819
0.0363317
0.0400884
0.0444685
0.049474
0.055091
0.0612646
0.0679088
0.0749104
0.0820884
0.0892473
0.0961369
0.102485
0.10808
0.112711
0.116146
0.118233
0.119022
0.118754
0.117471
0.115231
0.11232
0.108968
0.105365
0.101708
0.0981396
0.0947626
0.0916595
0.0888851
0.0864754
0.0844527
0.08283
0.0816166
0.0808232
0.0804446
0.0249325
0.0253744
0.0262876
0.0277011
0.0296414
0.0321364
0.0352171
0.0389156
0.043259
0.0482653
0.0539319
0.060235
0.0671128
0.0744278
0.0820227
0.0896577
0.0970586
0.103938
0.109968
0.114821
0.118279
0.120314
0.120963
0.12039
0.118737
0.116173
0.112913
0.109222
0.105343
0.101456
0.0977079
0.0942086
0.0910257
0.0882055
0.085775
0.0837502
0.082139
0.0809438
0.080163
0.0797851
0.0232093
0.0236479
0.0245227
0.025853
0.0276761
0.0300344
0.0329725
0.0365396
0.0407883
0.0457663
0.0515138
0.0580552
0.0653607
0.0733473
0.0818299
0.0905311
0.0991198
0.107133
0.114013
0.119408
0.123121
0.125123
0.125357
0.124059
0.121517
0.118068
0.114012
0.109623
0.105158
0.100821
0.0967465
0.0930222
0.089699
0.0868006
0.0843361
0.0823049
0.0807007
0.0795125
0.0787248
0.0783291
0.0206321
0.0210378
0.0218438
0.0230581
0.0247188
0.0268777
0.0295959
0.0329465
0.037015
0.0419025
0.0477161
0.0545573
0.062495
0.0714938
0.0814268
0.0918554
0.102258
0.112161
0.120643
0.12716
0.131323
0.133017
0.132296
0.129655
0.125678
0.12077
0.115413
0.109957
0.104642
0.0996575
0.0951283
0.0911069
0.0876071
0.084619
0.0821193
0.0800829
0.0784844
0.0772985
0.0765057
0.0761026
0.0173083
0.0176539
0.01834
0.0193797
0.0208096
0.022684
0.0250785
0.0280901
0.0318444
0.0365022
0.0422698
0.0494014
0.0581134
0.0685256
0.0805227
0.0935162
0.106558
0.119625
0.13085
0.13913
0.143826
0.144669
0.142175
0.137068
0.130718
0.123602
0.116438
0.109601
0.103306
0.09762
0.0925993
0.0882769
0.084619
0.0815639
0.0790539
0.0770359
0.0754652
0.0743058
0.0735332
0.0731446
0.0133778
0.0136298
0.0141425
0.0149329
0.0160356
0.0175074
0.0194291
0.021914
0.0251238
0.0293168
0.0348611
0.0421627
0.0516081
0.0634459
0.0780079
0.0948222
0.112131
0.130151
0.14587
0.157244
0.162637
0.161604
0.155622
0.146221
0.135923
0.125554
0.115852
0.107424
0.100223
0.0940564
0.0887541
0.0842627
0.0805414
0.0775074
0.0750637
0.0731296
0.0716415
0.0705546
0.0698374
0.0694764
0.00898283
0.00912917
0.00942121
0.0098796
0.0105413
0.0114603
0.012713
0.0144177
0.0167788
0.0201943
0.0251393
0.0320797
0.0414795
0.054463
0.0717868
0.0933865
0.1122
0.134898
0.156908
0.174305
0.182989
0.181776
0.172531
0.158702
0.139872
0.124949
0.112166
0.102202
0.0944089
0.0881457
0.0830114
0.0787237
0.0751792
0.0723375
0.0700972
0.0683543
0.0670326
0.0660766
0.0654567
0.0651494
0.00431622
0.0043264
0.00435586
0.00441574
0.00453101
0.00474064
0.00511064
0.00574972
0.00691705
0.00905472
0.0125761
0.0180296
0.0263519
0.0393644
0.0565888
0.0789634
0.110465
0.146894
0.183263
0.212101
0.22435
0.217672
0.197198
0.171619
0.146828
0.124567
0.109439
0.0927383
0.0850613
0.079307
0.0748846
0.0713184
0.0683618
0.0659822
0.0641391
0.062733
0.0616866
0.0609472
0.0604671
0.0602352
-0.000405409
-0.000538359
-0.000802291
-0.00119906
-0.00172068
-0.00235407
-0.00305987
-0.00376333
-0.0042076
-0.00406121
-0.00302319
-0.000653217
0.00374702
0.0186399
0.0334889
0.0588351
0.0938782
0.144111
0.205497
0.25964
0.28463
0.269387
0.228081
0.183388
0.144395
0.1138
0.0963239
0.0775488
0.0714728
0.0673316
0.064299
0.0619474
0.0600268
0.0584618
0.0572618
0.0563697
0.0557156
0.0552564
0.0549639
0.0548097
-0.00493518
-0.00520106
-0.00577192
-0.00664749
-0.00785383
-0.00941421
-0.0113469
-0.0136257
-0.0161229
-0.0187615
-0.0213965
-0.0238155
-0.0260746
-0.0160243
-0.00912593
0.0135886
0.0499431
0.113224
0.214993
0.336656
0.398735
0.351045
0.252482
0.172303
0.116877
0.0818917
0.0696417
0.0554632
0.0536389
0.0523861
0.0514811
0.0508553
0.0503676
0.0499375
0.0496142
0.0494007
0.0492633
0.0491673
0.0491106
0.0490873
-0.00893963
-0.00938466
-0.0102552
-0.011606
-0.0134791
-0.015953
-0.0191524
-0.0231371
-0.0279673
-0.0339193
-0.0412469
-0.0501443
-0.0611413
-0.0627408
-0.0720663
-0.0725885
-0.062252
-0.0310095
0.0883664
0.365894
0.592278
0.394757
0.168278
0.0716492
0.038224
0.0270301
0.0306227
0.0279044
0.0320497
0.0348163
0.03693
0.0385934
0.0398526
0.0407758
0.0415074
0.0421034
0.0425687
0.0429092
0.0431198
0.0432139
-0.0122717
-0.0128076
-0.0139344
-0.015692
-0.0181525
-0.0214365
-0.02576
-0.0313233
-0.0384098
-0.0475796
-0.0595934
-0.0755175
-0.0968109
-0.108184
-0.144963
-0.177896
-0.238481
-0.360264
-0.663414
-0.371301
-0.156419
-0.0754663
-0.0379877
-0.0140526
-0.001768
0.0086858
0.0162003
0.0218326
0.0260122
0.0291431
0.0315186
0.0333728
0.0348233
0.0359017
0.0366741
0.0371816
0.0374411
-0.0146435
-0.0152753
-0.0165863
-0.0186126
-0.0214849
-0.0253338
-0.0304141
-0.0370724
-0.0457845
-0.0572751
-0.0726043
-0.0934265
-0.121506
-0.146467
-0.20001
-0.26211
-0.370827
-0.580846
-0.838698
-0.407119
-0.281811
-0.154746
-0.0886825
-0.0512913
-0.0272859
-0.0118959
-0.000548267
0.00792745
0.0142478
0.019075
0.0228121
0.0257127
0.0279412
0.0295938
0.0307867
0.0315909
0.0319883
-0.0158406
-0.0165771
-0.0179743
-0.0201322
-0.0231562
-0.0272081
-0.0325201
-0.0395035
-0.0487528
-0.060989
-0.077325
-0.0993046
-0.128864
-0.160586
-0.217292
-0.287659
-0.395635
-0.552227
-0.631759
-0.319298
-0.25751
-0.165569
-0.106035
-0.0714313
-0.0433665
-0.0263225
-0.0132433
-0.00323929
0.00446835
0.0105188
0.0153173
0.0190651
0.0218969
0.0239915
0.025484
0.0264558
0.0269989
-0.0160755
-0.0166789
-0.0180179
-0.0200919
-0.0229776
-0.0268492
-0.0318143
-0.0382547
-0.046823
-0.0580448
-0.0728809
-0.0922343
-0.117414
-0.14921
-0.198363
-0.265478
-0.367592
-0.526642
-0.673326
-0.720761
-0.626801
-0.389151
-0.233319
-0.171321
-0.135589
-0.100432
-0.0750154
-0.0496293
-0.033865
-0.0209823
-0.010698
-0.00249368
0.00413444
0.00953778
0.0138019
0.0170024
0.0193726
0.021041
0.0221115
0.0225832
-0.015242
-0.0157224
-0.0168742
-0.0186362
-0.0210899
-0.0243309
-0.0283434
-0.0334312
-0.0400973
-0.0485671
-0.0593138
-0.0729857
-0.0900308
-0.117555
-0.15145
-0.202299
-0.288094
-0.438814
-0.693188
-0.848402
-0.721973
-0.353714
-0.12044
-0.097032
-0.11125
-0.0925838
-0.072821
-0.0495143
-0.0355989
-0.0238479
-0.0142035
-0.00621033
0.000398712
0.00588922
0.0102088
0.0134932
0.0159708
0.0177134
0.0187646
0.0190918
-0.0131672
-0.0136469
-0.0145146
-0.015823
-0.0175956
-0.0198321
-0.02251
-0.0256138
-0.0294575
-0.0341435
-0.0396988
-0.0464621
-0.0542694
-0.0614771
-0.087881
-0.109483
-0.161687
-0.228579
-0.347611
-0.475978
-0.463132
-0.291644
-0.171211
-0.163934
-0.129787
-0.0962416
-0.0643574
-0.046623
-0.0336539
-0.0228491
-0.0140378
-0.00666403
-0.00050375
0.00451525
0.00846394
0.0115407
0.0138539
0.0154628
0.0164632
0.0169362
-0.0100265
-0.0103882
-0.010893
-0.0116258
-0.0125557
-0.0136623
-0.0149501
-0.0161169
-0.0172352
-0.0183237
-0.0190126
-0.0190876
-0.0178801
-0.0161788
-0.0233013
-0.0208332
-0.0372777
-0.0637796
-0.127552
-0.24825
-0.357052
-0.372577
-0.338097
-0.264488
-0.156057
-0.102186
-0.0601196
-0.0421315
-0.0291866
-0.0189854
-0.0110347
-0.0045273
0.000814356
0.0050974
0.00846319
0.0110899
0.0130791
0.0145088
0.0154735
0.0160098
-0.00617609
-0.00625184
-0.00642748
-0.00664418
-0.00683393
-0.0069377
-0.00690259
-0.00651384
-0.00559907
-0.00385077
-0.000844103
0.00399812
0.0119569
0.0201055
0.0246446
0.0416488
0.0434857
0.0234043
-0.0818566
-0.27392
-0.431257
-0.468251
-0.393743
-0.259623
-0.140948
-0.0901142
-0.0496552
-0.0329175
-0.0211344
-0.012378
-0.00572024
-0.000406852
0.00387165
0.00727165
0.0099298
0.0120135
0.013612
0.0147877
0.0155944
0.0160232
-0.0021236
-0.0020411
-0.00193962
-0.00175357
-0.00141404
-0.000838324
0.000120193
0.00161585
0.00392673
0.00740302
0.0124478
0.0196341
0.0305575
0.0423498
0.0503181
0.0687285
0.0710735
0.0329164
-0.0723948
-0.233791
-0.344129
-0.340913
-0.258146
-0.163901
-0.0921908
-0.0604911
-0.0289333
-0.0173489
-0.00904825
-0.00293392
0.0017007
0.0053757
0.00831265
0.0106483
0.0124992
0.0139717
0.0151039
0.015931
0.0164825
0.0167644
0.00169218
0.00183448
0.00213471
0.00259099
0.00324549
0.00419041
0.00552688
0.00742807
0.010144
0.0139543
0.0190702
0.0254846
0.0344068
0.0435693
0.050832
0.055945
0.046022
0.00380635
-0.0661182
-0.139099
-0.175474
-0.162793
-0.123778
-0.0868325
-0.0486745
-0.0280859
-0.00622366
0.000364759
0.0049574
0.00819218
0.0103886
0.012108
0.0134988
0.0146782
0.0156797
0.0165041
0.017149
0.0176098
0.0178961
0.0180394
0.0052897
0.00545406
0.00580929
0.00635956
0.00712202
0.00815101
0.00949579
0.011218
0.0134471
0.0162918
0.0197564
0.0236736
0.0274462
0.0317639
0.0179347
0.00849536
-0.016686
-0.0663093
-0.117809
-0.136607
-0.127833
-0.100903
-0.0675277
-0.0380355
-0.0167162
0.0055366
0.0128237
0.0164788
0.0182316
0.0187243
0.0187835
0.0187267
0.018687
0.0187503
0.0189145
0.0191238
0.0193322
0.0195008
0.019598
0.0196166
0.00865186
0.00881562
0.00915459
0.00968614
0.0104058
0.011328
0.0124784
0.0138215
0.0152973
0.0167645
0.0178415
0.0188692
0.0160036
0.00969028
-0.00603433
-0.0667664
-0.12422
-0.179184
-0.228196
-0.224288
-0.174249
-0.111839
-0.0539582
-0.0131624
0.0100989
0.0236729
0.0273897
0.0291608
0.0287352
0.0271546
0.0256499
0.0242634
0.0231573
0.0223391
0.0218201
0.0214887
0.0213
0.021214
0.0211848
0.0211666
0.0117145
0.0118563
0.0121724
0.0126581
0.0133002
0.01408
0.0149869
0.0159622
0.016842
0.0173252
0.0167308
0.0147206
0.00823999
-0.00564014
-0.0308454
-0.0842605
-0.146452
-0.216167
-0.282289
-0.294148
-0.228555
-0.153542
-0.0783438
-0.0208869
0.0140826
0.0322173
0.038272
0.0381244
0.0359559
0.0331206
0.030507
0.0282448
0.0265098
0.025173
0.0242241
0.0235025
0.0230089
0.0227012
0.022542
0.0225406
0.0144597
0.0145942
0.0148957
0.0153515
0.0159488
0.0166531
0.0174097
0.0181377
0.0186575
0.0186826
0.0174761
0.0143104
0.00749454
-0.0071299
-0.0332026
-0.0752077
-0.128552
-0.185213
-0.235299
-0.244049
-0.196772
-0.136349
-0.0750093
-0.0243886
0.00973962
0.0319634
0.0427541
0.043844
0.040411
0.0368488
0.0335629
0.030875
0.0288292
0.0272571
0.0260565
0.0251575
0.0245334
0.0241225
0.0238864
0.0238316
0.016796
0.0169593
0.0172985
0.0177802
0.0183897
0.0190906
0.0198194
0.0204867
0.0209921
0.0211444
0.0205038
0.018212
0.0136589
0.00407942
-0.0131737
-0.0416203
-0.0784284
-0.116206
-0.14597
-0.156003
-0.139441
-0.107545
-0.0669083
-0.026005
0.00611758
0.0272784
0.0394166
0.0430977
0.041108
0.0378957
0.0347531
0.0321945
0.0301646
0.0285527
0.0273
0.0263698
0.0257112
0.0252687
0.024999
0.024855
0.0187491
0.0189711
0.0193376
0.0198388
0.0204633
0.021196
0.0220034
0.0228257
0.0236016
0.0242485
0.024436
0.0237702
0.0217035
0.0175402
0.00860564
-0.0091571
-0.0349164
-0.0634874
-0.0867939
-0.102243
-0.106616
-0.0950564
-0.0689831
-0.0362373
-0.00650291
0.0150826
0.0284335
0.0349407
0.0362385
0.0351185
0.0334505
0.0317422
0.0301738
0.0288365
0.0277642
0.0269366
0.026316
0.0258681
0.0255753
0.0254311
0.0204204
0.0206536
0.0209868
0.0214672
0.0221006
0.0228919
0.0238391
0.0249185
0.0261003
0.0272493
0.0281085
0.0282321
0.0268997
0.0231527
0.0170968
0.00592835
-0.0143656
-0.040673
-0.069098
-0.0916991
-0.101522
-0.0992687
-0.0812697
-0.0558333
-0.0297962
-0.00741219
0.0103238
0.0223865
0.0278384
0.0297214
0.0300983
0.0296653
0.028956
0.028214
0.0275268
0.0269291
0.0264475
0.0260877
0.0258494
0.0257235
0.021724
0.0218433
0.0221744
0.0226823
0.0233682
0.0242381
0.0253046
0.0265772
0.0280358
0.0295127
0.030774
0.0313702
0.0302831
0.0259979
0.0171016
0.00294727
-0.0192717
-0.0487074
-0.0838843
-0.115049
-0.131052
-0.131692
-0.116826
-0.0916409
-0.0602435
-0.0307317
-0.00600291
0.0110415
0.0198713
0.0243965
0.0264426
0.0271439
0.0273536
0.0272585
0.0269962
0.026682
0.0263916
0.0261458
0.0259592
0.0258437
0.0227083
0.0227473
0.0230495
0.0235546
0.0242601
0.0251581
0.0262567
0.0275709
0.0290712
0.0306383
0.0319092
0.0337184
0.0326123
0.0279337
0.0168271
-0.00257906
-0.0300706
-0.0645273
-0.107985
-0.14705
-0.172361
-0.172717
-0.149761
-0.1202
-0.0794727
-0.043628
-0.014796
0.00379123
0.0146893
0.0205863
0.0237094
0.0252933
0.0260904
0.026343
0.0263971
0.0263187
0.0261848
0.0260449
0.0259221
0.0258224
0.0234468
0.0235526
0.0238069
0.0242315
0.0248526
0.0256688
0.0266793
0.0278929
0.0293065
0.0309132
0.0323035
0.0336134
0.0319012
0.0257071
0.0143059
-0.00430529
-0.030626
-0.0643145
-0.106387
-0.143624
-0.171234
-0.167315
-0.142474
-0.111549
-0.074056
-0.0420171
-0.0161082
0.00143893
0.0126427
0.0189041
0.0223808
0.0242754
0.0252801
0.0257366
0.0259225
0.0259638
0.0259252
0.0258621
0.0258009
0.0257429
0.0237856
0.023954
0.0242127
0.0245894
0.0251155
0.0258062
0.0266668
0.0276947
0.0288886
0.0302465
0.0313178
0.0315654
0.0287631
0.0215794
0.00949835
-0.00782378
-0.0307588
-0.0591093
-0.088541
-0.111848
-0.127851
-0.122205
-0.103361
-0.0781245
-0.0507745
-0.027512
-0.0078013
0.00582626
0.0146084
0.0196456
0.0225738
0.0242015
0.0250877
0.0255427
0.0257517
0.0258145
0.0257944
0.02574
0.0256867
0.0256625
0.0237072
0.0238355
0.0240656
0.0244019
0.0248459
0.0254019
0.02607
0.026828
0.0275965
0.0282446
0.0284394
0.0272143
0.0231823
0.0148967
0.00170261
-0.0156119
-0.0359556
-0.0582544
-0.0767245
-0.086062
-0.0864378
-0.0791705
-0.065636
-0.0461121
-0.02692
-0.00945076
0.00461229
0.0137297
0.018998
0.0219893
0.0237477
0.0247644
0.0253411
0.0256529
0.0257864
0.0258108
0.0257799
0.0257239
0.025673
0.0256332
0.0234103
0.0234694
0.0236134
0.023844
0.0241489
0.0245044
0.0248748
0.0251945
0.0253057
0.0248859
0.0235696
0.0203048
0.0140009
0.0041498
-0.0092637
-0.025551
-0.0430863
-0.060543
-0.0731641
-0.0759945
-0.0704953
-0.0589645
-0.0434726
-0.0251259
-0.00836751
0.0054092
0.0145726
0.019997
0.022827
0.0243798
0.0252341
0.0256271
0.0258
0.0258478
0.0258221
0.0257692
0.0257139
0.0256598
0.0256149
0.0255551
0.0230299
0.0230495
0.023142
0.023269
0.0234038
0.0235031
0.0235004
0.0232883
0.0226879
0.0212674
0.0183449
0.0128281
0.00335187
-0.0095592
-0.0252223
-0.042737
-0.0590361
-0.0736466
-0.0835373
-0.0839673
-0.0766588
-0.0597381
-0.0386017
-0.0179076
-0.000691682
0.011607
0.0189403
0.0233417
0.0256349
0.0265506
0.0267752
0.0265801
0.0262956
0.0260223
0.0257949
0.0256134
0.0254725
0.0253709
0.0253052
0.025313
0.0226116
0.0226671
0.0227134
0.0227429
0.0227125
0.0225858
0.0222837
0.0216556
0.0204918
0.018373
0.0144595
0.00770105
-0.00369307
-0.0199742
-0.0407076
-0.0630939
-0.0831089
-0.097914
-0.108796
-0.109106
-0.0954064
-0.0720149
-0.0452995
-0.0222532
-0.00321655
0.0107012
0.020293
0.0256157
0.0278284
0.028195
0.027708
0.0271217
0.026527
0.0260291
0.0256462
0.0253525
0.0251358
0.0250035
0.0249494
0.0249939
0.022151
0.0222289
0.0222325
0.0221948
0.0220714
0.021838
0.0213843
0.020566
0.0191044
0.0166178
0.0123842
0.00531067
-0.00591369
-0.0222046
-0.0435013
-0.0674627
-0.0912147
-0.108558
-0.122521
-0.124182
-0.104706
-0.0786414
-0.0488156
-0.024886
-0.00487457
0.00983786
0.0197581
0.025163
0.0277372
0.0281928
0.0275403
0.026932
0.0262767
0.025749
0.0253457
0.0250369
0.0248224
0.0246992
0.024646
0.024646
0.0216648
0.0216952
0.0216907
0.0216485
0.0215263
0.0212921
0.0208573
0.0201019
0.0187663
0.0165268
0.0127078
0.0064868
-0.00304807
-0.0161717
-0.0327612
-0.0523775
-0.0739999
-0.0909335
-0.104201
-0.107034
-0.0913841
-0.0704656
-0.046328
-0.024528
-0.00631215
0.0072267
0.0165011
0.0223028
0.0255341
0.0266608
0.0264606
0.0260383
0.0255315
0.0251205
0.0247967
0.0245485
0.0243696
0.0242514
0.0241695
0.024108
0.0212974
0.0212874
0.02129
0.0212748
0.021202
0.0210331
0.0207167
0.0201736
0.0192488
0.0177057
0.015063
0.010747
0.00386864
-0.00587971
-0.0179747
-0.0321803
-0.047746
-0.0616836
-0.0713366
-0.0750686
-0.0709874
-0.0604213
-0.0448408
-0.0273922
-0.0119514
0.000757685
0.0106932
0.0177792
0.0219651
0.0239202
0.0245127
0.0244844
0.0242835
0.024069
0.0238705
0.0237055
0.0235752
0.0234734
0.0233937
0.0233315
0.0210892
0.0211031
0.0211035
0.0210916
0.0210548
0.0209721
0.0208096
0.0205198
0.0200301
0.0192383
0.0179044
0.0156353
0.0114736
0.00468937
-0.00446621
-0.0155433
-0.0275708
-0.0397662
-0.0491196
-0.0555398
-0.0583003
-0.054916
-0.0450617
-0.0318387
-0.0188563
-0.00691883
0.00338758
0.0113522
0.0166755
0.0198244
0.0214617
0.0221922
0.0225165
0.0226071
0.0225968
0.0225543
0.0225094
0.022477
0.022464
0.0224619
0.0208219
0.0208435
0.0208605
0.0208775
0.0208987
0.0209257
0.0209457
0.0209465
0.0208898
0.0206942
0.0201825
0.019141
0.0170482
0.0129043
0.00564513
-0.00460812
-0.0171538
-0.0307186
-0.0432096
-0.0523851
-0.0565643
-0.056641
-0.0498124
-0.0392485
-0.0277604
-0.0162685
-0.00568853
0.00310465
0.00997921
0.0149183
0.0179416
0.0196057
0.0205341
0.0210164
0.0212668
0.021395
0.0214552
0.0214896
0.0215208
0.0215663
0.0204307
0.0203928
0.0204204
0.020484
0.020591
0.0207463
0.020949
0.0212246
0.0215719
0.0218903
0.0220178
0.021515
0.0197193
0.0160097
0.0090239
-0.00123512
-0.0147789
-0.0305035
-0.0464202
-0.0602617
-0.0679823
-0.0689546
-0.0637185
-0.0542093
-0.0426934
-0.0298041
-0.0166599
-0.00501228
0.00425232
0.0109017
0.0149786
0.0173426
0.018764
0.0196013
0.0201118
0.0204106
0.0205706
0.020651
0.0206889
0.0207211
0.0200353
0.019986
0.0200019
0.0200753
0.0202185
0.0204354
0.0207311
0.021125
0.0217193
0.0222331
0.0227802
0.0224938
0.0204724
0.0163857
0.00899689
-0.00155968
-0.0156101
-0.0321082
-0.0515431
-0.0696696
-0.0831324
-0.0846642
-0.077765
-0.0679915
-0.0539407
-0.0386002
-0.0228141
-0.00904222
0.00138972
0.00857055
0.0130564
0.0157962
0.017464
0.0185225
0.0191525
0.0195739
0.0198223
0.0199606
0.020018
0.0199739
0.0195788
0.0195865
0.0196214
0.0196932
0.0198217
0.0200165
0.0202906
0.0206525
0.0211133
0.0214768
0.0218112
0.0210878
0.0189731
0.015132
0.00817579
-0.00200762
-0.0154612
-0.0314573
-0.0502805
-0.0677104
-0.0823479
-0.0830726
-0.0749077
-0.0643667
-0.0496133
-0.0341528
-0.0195463
-0.00747895
0.00164686
0.00814667
0.012469
0.0151505
0.0167598
0.0177902
0.0184399
0.0188541
0.0191124
0.0192461
0.0193079
0.0192644
0.0189314
0.01898
0.0190335
0.0190978
0.0191849
0.0193063
0.0194658
0.019657
0.019878
0.0199054
0.0194773
0.0180697
0.0152319
0.0106361
0.0038045
-0.00565518
-0.0175077
-0.0310303
-0.0447172
-0.0558488
-0.0637991
-0.0628012
-0.0557783
-0.0461218
-0.033726
-0.0215825
-0.0107547
-0.00193442
0.0049962
0.010013
0.0133585
0.0154379
0.0166941
0.0174787
0.0179732
0.0182814
0.0184626
0.0185541
0.0185988
0.0186159
0.0181367
0.0181543
0.0181694
0.0181854
0.0182018
0.0182145
0.0182105
0.0181385
0.0179466
0.0174415
0.0161822
0.013778
0.00975163
0.00395751
-0.00344768
-0.012296
-0.0221222
-0.0324052
-0.0408431
-0.0458015
-0.045932
-0.0421923
-0.0356653
-0.0271882
-0.0180557
-0.00919352
-0.00154404
0.00484183
0.00979181
0.01307
0.015062
0.0162531
0.0169871
0.0174622
0.0177619
0.0179482
0.0180569
0.018114
0.0181463
0.018177
0.0173063
0.0172654
0.0172155
0.0171607
0.0170891
0.0169706
0.0167607
0.0163515
0.0156003
0.0143085
0.0120966
0.00856511
0.00363073
-0.00275165
-0.0104759
-0.0190112
-0.0277407
-0.0357655
-0.0408483
-0.0413732
-0.0389045
-0.0331713
-0.0251445
-0.0160107
-0.00710312
0.00074007
0.00688484
0.0114074
0.0142707
0.0158315
0.016682
0.0171343
0.0174105
0.0175926
0.0177062
0.0177776
0.0178275
0.0178603
0.0178784
0.0178657
0.0164956
0.0164287
0.0163683
0.0162808
0.0161344
0.0158775
0.015451
0.0147267
0.0134766
0.011367
0.00795257
0.00300793
-0.00333794
-0.0110443
-0.019751
-0.0287036
-0.0370523
-0.0438567
-0.0472015
-0.0455204
-0.041095
-0.0327974
-0.0221782
-0.0111231
-0.000988527
0.00694633
0.0125522
0.015765
0.0172557
0.0178248
0.017969
0.0178952
0.0177813
0.0176662
0.0175843
0.0175249
0.0174887
0.0174647
0.0174502
0.0174566
0.0157923
0.0157808
0.0157237
0.0156044
0.0153815
0.015002
0.014387
0.0134402
0.0118612
0.00929524
0.00510515
-0.00110077
-0.00942463
-0.0195875
-0.0303589
-0.0406201
-0.0497882
-0.0562022
-0.0597421
-0.0570336
-0.0472717
-0.0351537
-0.0214172
-0.00897056
0.00145026
0.00920828
0.0144774
0.0173191
0.018848
0.0191166
0.0187339
0.0182605
0.0178128
0.0174863
0.0172537
0.0170912
0.0169874
0.0169363
0.0169267
0.0169732
0.0151924
0.0152435
0.015183
0.0150389
0.0147701
0.0143434
0.0136627
0.0126267
0.0109148
0.0083005
0.00405968
-0.0021624
-0.0106296
-0.0213971
-0.033424
-0.0448458
-0.0550677
-0.0618469
-0.0660582
-0.0630511
-0.0501258
-0.0356494
-0.0206872
-0.00806887
0.00196482
0.00940708
0.0144717
0.0171694
0.0186119
0.0188942
0.0184492
0.0179493
0.0174683
0.0170899
0.0168233
0.0166401
0.0165291
0.0164792
0.0164722
0.0165032
0.014615
0.0146432
0.0145938
0.014477
0.014258
0.0139026
0.0133357
0.0124346
0.0109721
0.00869008
0.00516952
5.10454e-05
-0.00658648
-0.0152506
-0.0253727
-0.0357303
-0.0458112
-0.0526355
-0.056661
-0.0547958
-0.0450513
-0.0333057
-0.0207513
-0.00964839
-0.000360744
0.00676693
0.0117401
0.0147048
0.0163571
0.0170669
0.0171321
0.0169647
0.0166735
0.0164294
0.0162451
0.0161183
0.0160353
0.0159863
0.0159546
0.0159341
0.0141463
0.0141186
0.0140872
0.0140251
0.0139001
0.013681
0.0133217
0.0127413
0.0117785
0.0102109
0.00780891
0.00420919
-0.000493354
-0.00640883
-0.013525
-0.0212416
-0.0289026
-0.035024
-0.0391489
-0.0400074
-0.0370552
-0.0306242
-0.022508
-0.0140653
-0.00620182
0.000534903
0.00588607
0.00979526
0.0124781
0.0141154
0.0149594
0.0152894
0.0153454
0.0153387
0.0153156
0.0152932
0.0152746
0.015255
0.0152301
0.0151975
0.0138775
0.0138618
0.0138421
0.0138092
0.0137497
0.013651
0.0134868
0.0132281
0.0127998
0.0120686
0.0107713
0.00862457
0.00546558
0.0014373
-0.00354934
-0.00937581
-0.0156536
-0.0216735
-0.026924
-0.0305999
-0.0314333
-0.0295987
-0.0253156
-0.01919
-0.0125171
-0.00613833
-0.000466162
0.00424857
0.00789794
0.010486
0.0121358
0.0130814
0.0136036
0.0139169
0.0140934
0.0141998
0.0142715
0.0143259
0.0143652
0.0143841
0.0136398
0.01366
0.0136643
0.0136681
0.0136723
0.013683
0.0136894
0.0136978
0.0136648
0.0135647
0.0132108
0.0124331
0.0107068
0.00775894
0.00343913
-0.00220408
-0.00912376
-0.016257
-0.0229355
-0.0280646
-0.0306649
-0.0320926
-0.0303534
-0.0256776
-0.0194919
-0.0130388
-0.00679558
-0.00129925
0.00316428
0.00665581
0.00920591
0.0108829
0.0119197
0.0125595
0.0129314
0.013161
0.0133094
0.0134175
0.0135022
0.0135701
0.0132829
0.013268
0.0132928
0.0133415
0.0134215
0.0135404
0.0137199
0.0139483
0.0142327
0.0145631
0.0148433
0.0147016
0.0137285
0.0116275
0.00778796
0.00224783
-0.00510095
-0.0137863
-0.0226569
-0.030171
-0.0361236
-0.0396717
-0.0390234
-0.0350588
-0.0290196
-0.0219208
-0.0144592
-0.00745029
-0.00140523
0.00339008
0.0068737
0.00917462
0.0106127
0.0114929
0.0120329
0.012372
0.0125756
0.0126957
0.0127691
0.0128331
0.0128807
0.0128395
0.0128482
0.0129007
0.0130118
0.0131894
0.0134553
0.0138143
0.0143022
0.0148026
0.0154404
0.0154599
0.0146347
0.0131206
0.00989677
0.00491832
-0.00203094
-0.0115462
-0.0223892
-0.0327291
-0.0422519
-0.0474167
-0.0470085
-0.0427465
-0.0364144
-0.0285293
-0.0196417
-0.0112992
-0.00397968
0.00155485
0.00545941
0.00807567
0.00969491
0.0107166
0.0113611
0.0117759
0.0120387
0.0121837
0.0122497
0.0122334
0.0124648
0.0124507
0.0124634
0.0125087
0.0126056
0.0127623
0.0129999
0.0133141
0.0137292
0.0140918
0.0144947
0.0144596
0.0136779
0.0121448
0.00917524
0.0044669
-0.00200206
-0.0107675
-0.021304
-0.0318812
-0.040936
-0.0459602
-0.0452577
-0.0403632
-0.033943
-0.0259186
-0.0175398
-0.00964858
-0.00315154
0.00170908
0.00531713
0.00776426
0.00926442
0.0102629
0.0109049
0.0113111
0.0115646
0.0117024
0.0117617
0.0117116
0.0119334
0.0119579
0.0119863
0.0120214
0.0120732
0.0121492
0.0122565
0.0123866
0.012514
0.0124935
0.0122337
0.0115017
0.0101258
0.00787526
0.00444839
-0.000250653
-0.00617601
-0.0127702
-0.0202362
-0.0274733
-0.0323774
-0.0346317
-0.0329488
-0.0285557
-0.0228933
-0.0163695
-0.00992168
-0.00418086
0.000320414
0.00388421
0.00656815
0.0083289
0.00947331
0.0102068
0.0106613
0.0109399
0.0111045
0.0111903
0.011229
0.0112256
0.0112731
0.0112876
0.0112877
0.0112729
0.011243
0.0111955
0.0111129
0.0109656
0.0106917
0.0101292
0.00908003
0.00736315
0.00494714
0.00175219
-0.00217845
-0.00676254
-0.0118501
-0.0166372
-0.0206057
-0.0234052
-0.024368
-0.0228542
-0.0196276
-0.0156451
-0.0110176
-0.00636188
-0.0020834
0.00155277
0.00446659
0.00682295
0.00842656
0.009398
0.0100123
0.0103862
0.0106115
0.0107421
0.0108129
0.0108473
0.0108664
0.0108944
0.0105754
0.0105363
0.0104698
0.0103806
0.0102614
0.0100875
0.00980886
0.00935867
0.00864271
0.00749393
0.00574807
0.00328909
7.5422e-05
-0.00387508
-0.00839139
-0.0131233
-0.0177542
-0.0213943
-0.0227058
-0.0219459
-0.0204301
-0.017059
-0.0128027
-0.00812097
-0.00341351
0.000753523
0.0040634
0.00654357
0.00834939
0.00952386
0.0101297
0.0104319
0.0105684
0.0106351
0.0106777
0.0106993
0.0107109
0.0107172
0.0107208
0.0107143
0.00990081
0.00982753
0.00973895
0.00962065
0.0094483
0.0091792
0.00874888
0.00804551
0.00690105
0.00515338
0.00266241
-0.000654977
-0.00488472
-0.00991313
-0.0153803
-0.0206291
-0.0251154
-0.027826
-0.0276828
-0.0245011
-0.0205192
-0.0154891
-0.0098071
-0.00398456
0.00131629
0.0055365
0.0085356
0.0103401
0.0112777
0.0114605
0.0113312
0.0111519
0.0109632
0.0108051
0.0106882
0.0106069
0.0105532
0.0105149
0.0104907
0.0104725
0.00933295
0.00929
0.00922151
0.0090992
0.00888884
0.00854503
0.00801181
0.00713444
0.00571984
0.00349132
0.000275086
-0.00412246
-0.00971728
-0.0160424
-0.0225458
-0.0285564
-0.0329412
-0.0355008
-0.034723
-0.0294466
-0.0223715
-0.0149665
-0.00710909
-1.7551e-05
0.00530457
0.00903485
0.0113228
0.0123769
0.0127118
0.0124174
0.0119406
0.0114494
0.0110187
0.0106923
0.0104548
0.0102883
0.0101829
0.0101206
0.0100956
0.0101195
0.0088933
0.00892398
0.00886817
0.00873239
0.00848902
0.00810284
0.00752976
0.00659287
0.00512918
0.00277722
-0.000589919
-0.00517656
-0.011186
-0.0179786
-0.024821
-0.031048
-0.0354102
-0.0383384
-0.037535
-0.0313793
-0.0231254
-0.0142404
-0.00544028
0.0019281
0.00689175
0.0101262
0.0118655
0.0125571
0.012655
0.0122346
0.0117085
0.0111763
0.0106892
0.010328
0.0100619
0.0098826
0.00977344
0.00972561
0.00971747
0.00974827
0.00850236
0.00853959
0.00849691
0.00838928
0.0081869
0.00785859
0.00734514
0.00654642
0.00531713
0.00341037
0.000674029
-0.00297868
-0.00770816
-0.0133433
-0.0192283
-0.0248588
-0.0290723
-0.0318768
-0.0317164
-0.0274454
-0.0211938
-0.0138117
-0.0066995
-0.000736031
0.00379926
0.00708526
0.00911754
0.0102502
0.0107142
0.0107341
0.010575
0.0102963
0.010002
0.00976606
0.00958717
0.0094672
0.00939199
0.00935308
0.00933519
0.00933419
0.00816019
0.00815228
0.00812803
0.00807759
0.00797515
0.00779174
0.0074891
0.00699187
0.00619671
0.00500821
0.00323656
0.000862037
-0.00213376
-0.00581964
-0.00988846
-0.0139896
-0.0175008
-0.0201909
-0.021677
-0.0207833
-0.0182084
-0.0143516
-0.0102163
-0.00610916
-0.00221901
0.00104991
0.00367446
0.00567064
0.0070796
0.00803891
0.00857656
0.00880354
0.00887573
0.00888336
0.00887001
0.00885857
0.00884844
0.00883662
0.00881846
0.00879546
0.00796519
0.00795009
0.00794434
0.00793747
0.00791363
0.00786525
0.00777708
0.00761641
0.00730551
0.00677342
0.00588366
0.00457481
0.00289581
0.000726753
-0.00194913
-0.00508529
-0.0083037
-0.0114521
-0.0141384
-0.0157024
-0.016157
-0.0158196
-0.0144004
-0.0116476
-0.00831047
-0.00495328
-0.00180649
0.000909192
0.00315047
0.00489013
0.00611312
0.00690184
0.00738383
0.00768186
0.00787118
0.00799521
0.0080786
0.00813242
0.00816192
0.00816945
0.00785117
0.00786913
0.0078843
0.00790614
0.00793532
0.00798156
0.00804764
0.00812831
0.00819919
0.00820145
0.00808867
0.00766968
0.00677095
0.00530252
0.00311433
8.93504e-05
-0.00342559
-0.00708448
-0.010462
-0.0136154
-0.0163042
-0.0185958
-0.0191816
-0.0175521
-0.0145831
-0.0108291
-0.00694482
-0.00335548
-0.000313618
0.00204332
0.00382745
0.00510888
0.00597222
0.00653418
0.0068922
0.00712692
0.00728658
0.0074034
0.00748983
0.00754636
0.00764569
0.00765747
0.00769022
0.00774504
0.00782767
0.00795448
0.00813195
0.0083662
0.00868326
0.0090524
0.00943207
0.00968823
0.0094846
0.00868088
0.00705106
0.00439553
0.000727155
-0.00379217
-0.00870603
-0.0139735
-0.0189582
-0.0233208
-0.0250854
-0.0243384
-0.0214725
-0.0172607
-0.0125158
-0.00782508
-0.00369063
-0.000402169
0.00203984
0.00379834
0.00499022
0.00574006
0.00621303
0.00651388
0.00670588
0.00683234
0.00691941
0.00698578
0.00735033
0.00732837
0.0073477
0.00740379
0.00750939
0.00767394
0.00791247
0.0082388
0.00867944
0.00923162
0.00983021
0.0104544
0.0108638
0.0107517
0.00983806
0.00787146
0.00439683
-0.00097978
-0.00743945
-0.0143151
-0.0213802
-0.0269359
-0.0293547
-0.0290247
-0.0259353
-0.0215771
-0.0163412
-0.0108996
-0.00596951
-0.0019464
0.000950897
0.00302048
0.00440265
0.00522663
0.00577759
0.00612967
0.00634618
0.00647224
0.00653664
0.00654992
0.00704276
0.00701739
0.00702242
0.00705854
0.00714033
0.0072763
0.00749502
0.00778646
0.00817612
0.00866151
0.00917046
0.0097366
0.0101107
0.0100039
0.00913324
0.00728088
0.00407657
-0.000891269
-0.00712186
-0.0137503
-0.0201587
-0.0251839
-0.0273744
-0.0268818
-0.0236678
-0.0196848
-0.0147834
-0.00984763
-0.00533041
-0.00169133
0.00093356
0.0028838
0.00416167
0.00498262
0.00552063
0.00586256
0.00608167
0.00619999
0.00624894
0.00621586
0.00668307
0.00668615
0.0066957
0.00671307
0.00674941
0.00681106
0.00690859
0.00703332
0.00717512
0.00730171
0.00730664
0.00715973
0.00671804
0.00582911
0.00440202
0.00229994
-0.000443281
-0.00392857
-0.00801419
-0.0122706
-0.0161083
-0.0186817
-0.0192906
-0.0181519