/*--------------------------------*- C++ -*----------------------------------*\
| =========                 |                                                 |
| \\      /  F ield         | OpenFOAM: The Open Source CFD Toolbox           |
|  \\    /   O peration     | Version:  v2106                                 |
|   \\  /    A nd           | Website:  www.openfoam.com                      |
|    \\/     M anipulation  |                                                 |
\*---------------------------------------------------------------------------*/
FoamFile
{
    version     2.0;
    format      ascii;
    arch        "LSB;label=32;scalar=64";
    class       pointVectorField;
    location    "0";
    object      pointDisplacement;
}
// * * * * * * * * * * * * * * * * * * * * * * * * * * * * * * * * * * * * * //

dimensions      [0 1 0 0 0 0 0];

internalField   nonuniform List<vector> 
24440
(
(0 0 0)
(0 0 0)
(0 0 0)
(0 0 0)
(0 0 0)
(0 0 0)
(0 0 0)
(0 0 0)
(0 0 0)
(0 0 0)
(0 0 0)
(0 0 0)
(0 0 0)
(0 0 0)
(0 0 0)
(0 0 0)
(0 0 0)
(0 0 0)
(0 0 0)
(0 0 0)
(0 0 0)
(0 0 0)
(0 0 0)
(0 0 0)
(0 0 0)
(0 0 0)
(0 0 0)
(0 0 0)
(0 0 0)
(0 0 0)
(0 0 0)
(0 0 0)
(0 0 0)
(0 0 0)
(0 0 0)
(0 0 0)
(0 0 0)
(0 0 0)
(0 0 0)
(0 0 0)
(0 0 0)
(0 0 0)
(0 0 0)
(0 0 0)
(0 0 0)
(0 0 0)
(0 0 0)
(0 0 0)
(0 0 0)
(0 0 0)
(0 0 0)
(0 0 0)
(0 0 0)
(0 0 0)
(0 0 0)
(0 0 0)
(0 0 0)
(0 0 0)
(0 0 0)
(0 0 0)
(0 0 0)
(0 0 0)
(0 0 0)
(0 0 0)
(0 0 0)
(0 0 0)
(0 0 0)
(0 0 0)
(0 0 0)
(0 0 0)
(0 0 0)
(0 0 0)
(0 0 0)
(0 0 0)
(0 0 0)
(0 0 0)
(0 0 0)
(0 0 0)
(0 0 0)
(0 0 0)
(0 0 0)
(0 0 0)
(0 0 0)
(0 0 0)
(0 0 0)
(0 0 0)
(0 0 0)
(0 0 0)
(0 0 0)
(0 0 0)
(0 0 0)
(0 0 0)
(0 0 0)
(0 0 0)
(0 0 0)
(0 0 0)
(0 0 0)
(0 0 0)
(0 -2.78714e-06 0)
(0 -1.75759e-05 0)
(0 -4.83299e-05 0)
(0 -7.44739e-05 0)
(0 -8.45073e-05 0)
(0 -7.44739e-05 0)
(0 -4.83299e-05 0)
(0 -1.75759e-05 0)
(0 -2.78714e-06 0)
(0 0 0)
(0 0 0)
(0 0 0)
(0 0 0)
(0 0 0)
(0 0 0)
(0 0 0)
(0 0 0)
(0 0 0)
(0 0 0)
(0 0 0)
(0 0 0)
(0 0 0)
(0 0 0)
(0 0 0)
(0 0 0)
(0 0 0)
(0 0 0)
(0 0 0)
(0 0 0)
(0 0 0)
(0 0 0)
(0 0 0)
(0 0 0)
(0 0 0)
(0 0 0)
(0 0 0)
(0 0 0)
(0 0 0)
(0 -4.6677e-06 0)
(0 -6.17459e-05 0)
(0 -0.000181714 0)
(0 -0.000327345 0)
(0 -0.000466927 0)
(0 -0.000564236 0)
(0 -0.000654694 0)
(0 -0.000686522 0)
(0 -0.000654694 0)
(0 -0.000564236 0)
(0 -0.000466927 0)
(0 -0.000327345 0)
(0 -0.000181714 0)
(0 -6.17459e-05 0)
(0 -4.6677e-06 0)
(0 0 0)
(0 0 0)
(0 0 0)
(0 0 0)
(0 0 0)
(0 0 0)
(0 0 0)
(0 0 0)
(0 0 0)
(0 0 0)
(0 0 0)
(0 0 0)
(0 0 0)
(0 0 0)
(0 0 0)
(0 0 0)
(0 0 0)
(0 0 0)
(0 0 0)
(0 0 0)
(0 0 0)
(0 0 0)
(0 0 0)
(0 0 0)
(0 -1.95977e-06 0)
(0 -8.12017e-05 0)
(0 -0.000276923 0)
(0 -0.00054609 0)
(0 -0.00082333 0)
(0 -0.00113263 0)
(0 -0.00140051 0)
(0 -0.00156641 0)
(0 -0.00172505 0)
(0 -0.00177987 0)
(0 -0.00172505 0)
(0 -0.00156641 0)
(0 -0.00140051 0)
(0 -0.00113263 0)
(0 -0.00082333 0)
(0 -0.00054609 0)
(0 -0.000276923 0)
(0 -8.12017e-05 0)
(0 -1.95977e-06 0)
(0 0 0)
(0 0 0)
(0 0 0)
(0 0 0)
(0 0 0)
(0 0 0)
(0 0 0)
(0 0 0)
(0 0 0)
(0 0 0)
(0 0 0)
(0 0 0)
(0 0 0)
(0 0 0)
(0 0 0)
(0 0 0)
(0 0 0)
(0 0 0)
(0 0 0)
(0 0 0)
(0 0 0)
(0 -1.85306e-05 0)
(0 -0.000192708 0)
(0 -0.000512131 0)
(0 -0.00089854 0)
(0 -0.00137831 0)
(0 -0.0018622 0)
(0 -0.0022814 0)
(0 -0.00267409 0)
(0 -0.00295274 0)
(0 -0.00311923 0)
(0 -0.00319566 0)
(0 -0.00311923 0)
(0 -0.00295274 0)
(0 -0.00267409 0)
(0 -0.0022814 0)
(0 -0.0018622 0)
(0 -0.00137831 0)
(0 -0.00089854 0)
(0 -0.000512131 0)
(0 -0.000192708 0)
(0 -1.96177e-05 0)
(0 0 0)
(0 0 0)
(0 0 0)
(0 0 0)
(0 0 0)
(0 0 0)
(0 0 0)
(0 0 0)
(0 0 0)
(0 0 0)
(0 0 0)
(0 0 0)
(0 0 0)
(0 0 0)
(0 0 0)
(0 0 0)
(0 0 0)
(0 0 0)
(0 0 0)
(0 -3.64455e-05 0)
(0 -0.000255556 0)
(0 -0.000637835 0)
(0 -0.00117096 0)
(0 -0.00180457 0)
(0 -0.00246299 0)
(0 -0.0030672 0)
(0 -0.00364 0)
(0 -0.00385524 0)
(0 -0.004088 0)
(0 -0.0042827 0)
(0 -0.00443609 0)
(0 -0.00454579 0)
(0 -0.00462164 0)
(0 -0.00469171 0)
(0 -0.00471518 0)
(0 -0.00469171 0)
(0 -0.00462164 0)
(0 -0.00454579 0)
(0 -0.00443609 0)
(0 -0.0042827 0)
(0 -0.004088 0)
(0 -0.00385524 0)
(0 -0.00364 0)
(0 -0.0030672 0)
(0 -0.00246299 0)
(0 -0.00180457 0)
(0 -0.00117096 0)
(0 -0.000624595 0)
(0 -0.00023092 0)
(0 -2.91223e-05 0)
(0 0 0)
(0 0 0)
(0 0 0)
(0 0 0)
(0 0 0)
(0 0 0)
(0 0 0)
(0 0 0)
(0 0 0)
(0 0 0)
(0 0 0)
(0 0 0)
(0 0 0)
(0 0 0)
(0 0 0)
(0 0 0)
(0 0 0)
(0 -2.14366e-05 0)
(0 -0.00024532 0)
(0 -0.000683504 0)
(0 -0.00128615 0)
(0 -0.00199206 0)
(0 -0.00282261 0)
(0 -0.00321974 0)
(0 -0.00357174 0)
(0 -0.00396133 0)
(0 -0.00432651 0)
(0 -0.00466061 0)
(0 -0.00494445 0)
(0 -0.00430916 0)
(0 -0.00457226 0)
(0 -0.0047799 0)
(0 -0.00498933 0)
(0 -0.00515363 0)
(0 -0.0052707 0)
(0 -0.00534089 0)
(0 -0.00541528 0)
(0 -0.00544016 0)
(0 -0.00541528 0)
(0 -0.00534089 0)
(0 -0.0052707 0)
(0 -0.00515363 0)
(0 -0.00498933 0)
(0 -0.0047799 0)
(0 -0.00457226 0)
(0 -0.00430916 0)
(0 -0.00494445 0)
(0 -0.00466061 0)
(0 -0.00432651 0)
(0 -0.00396133 0)
(0 -0.00357174 0)
(0 -0.00321974 0)
(0 -0.00282261 0)
(0 -0.00199206 0)
(0 -0.00128615 0)
(0 -0.000658572 0)
(0 -0.000234646 0)
(0 -1.94676e-05 0)
(0 0 0)
(0 0 0)
(0 0 0)
(0 0 0)
(0 0 0)
(0 0 0)
(0 0 0)
(0 0 0)
(0 0 0)
(0 0 0)
(0 0 0)
(0 0 0)
(0 0 0)
(0 0 0)
(0 0 0)
(0 0 0)
(0 -0.000135634 0)
(0 -0.000554287 0)
(0 -0.00118499 0)
(0 -0.00197722 0)
(0 -0.00285959 0)
(0 -0.00375617 0)
(0 -0.00330611 0)
(0 -0.00373797 0)
(0 -0.00415353 0)
(0 -0.00454481 0)
(0 -0.00489245 0)
(0 -0.00524501 0)
(0 -0.00555656 0)
(0 -0.00581395 0)
(0 -0.00522401 0)
(0 -0.00545948 0)
(0 -0.00605664 0)
(0 -0.0062314 0)
(0 -0.00564682 0)
(0 -0.00581822 0)
(0 -0.00640521 0)
(0 -0.00652755 0)
(0 -0.00593981 0)
(0 -0.00600143 0)
(0 -0.00659845 0)
(0 -0.00665473 0)
(0 -0.00607814 0)
(0 -0.00610374 0)
(0 -0.00668014 0)
(0 -0.00665473 0)
(0 -0.00607814 0)
(0 -0.00600143 0)
(0 -0.00659845 0)
(0 -0.00652755 0)
(0 -0.00593981 0)
(0 -0.00581822 0)
(0 -0.00640521 0)
(0 -0.0062314 0)
(0 -0.00564682 0)
(0 -0.00545948 0)
(0 -0.00605664 0)
(0 -0.00581395 0)
(0 -0.00522401 0)
(0 -0.00555656 0)
(0 -0.00524501 0)
(0 -0.00489245 0)
(0 -0.00454481 0)
(0 -0.00415353 0)
(0 -0.00373797 0)
(0 -0.00330611 0)
(0 -0.00375617 0)
(0 -0.00285959 0)
(0 -0.00195342 0)
(0 -0.00117563 0)
(0 -0.000553695 0)
(0 -0.000147455 0)
(0 0 0)
(0 0 0)
(0 0 0)
(0 0 0)
(0 0 0)
(0 0 0)
(0 0 0)
(0 0 0)
(0 0 0)
(0 0 0)
(0 0 0)
(0 0 0)
(0 0 0)
(0 0 0)
(0 0 0)
(0 -2.95883e-05 0)
(0 -0.000303981 0)
(0 -0.000876221 0)
(0 -0.00164169 0)
(0 -0.00255169 0)
(0 -0.00359428 0)
(0 -0.00459853 0)
(0 -0.00420771 0)
(0 -0.00466265 0)
(0 -0.00418667 0)
(0 -0.00465492 0)
(0 -0.00509028 0)
(0 -0.00551927 0)
(0 -0.00506701 0)
(0 -0.00544335 0)
(0 -0.00590605 0)
(0 -0.00608241 0)
(0 -0.00624658 0)
(0 -0.00602337 0)
(0 -0.00576104 0)
(0 -0.00608073 0)
(0 -0.00630999 0)
(0 -0.00645163 0)
(0 -0.00622228 0)
(0 -0.00656662 0)
(0 -0.00678409 0)
(0 -0.00688472 0)
(0 -0.00666878 0)
(0 -0.00689392 0)
(0 -0.00710669 0)
(0 -0.00715971 0)
(0 -0.00695946 0)
(0 -0.00707989 0)
(0 -0.00727484 0)
(0 -0.0073026 0)
(0 -0.00711214 0)
(0 -0.00714682 0)
(0 -0.00733315 0)
(0 -0.00732753 0)
(0 -0.00714085 0)
(0 -0.00707989 0)
(0 -0.00727484 0)
(0 -0.00724854 0)
(0 -0.00705222 0)
(0 -0.00689392 0)
(0 -0.00710669 0)
(0 -0.00704578 0)
(0 -0.00683354 0)
(0 -0.00656662 0)
(0 -0.00678409 0)
(0 -0.00669524 0)
(0 -0.00645125 0)
(0 -0.00608073 0)
(0 -0.00630999 0)
(0 -0.0061555 0)
(0 -0.00592683 0)
(0 -0.00544335 0)
(0 -0.00590605 0)
(0 -0.00551927 0)
(0 -0.00506701 0)
(0 -0.00465492 0)
(0 -0.00509028 0)
(0 -0.00466265 0)
(0 -0.00418667 0)
(0 -0.00420771 0)
(0 -0.00457781 0)
(0 -0.0035918 0)
(0 -0.00259282 0)
(0 -0.0016279 0)
(0 -0.00086769 0)
(0 -0.000319217 0)
(0 -3.38357e-05 0)
(0 0 0)
(0 0 0)
(0 0 0)
(0 0 0)
(0 0 0)
(0 0 0)
(0 0 0)
(0 0 0)
(0 0 0)
(0 0 0)
(0 0 0)
(0 0 0)
(0 0 0)
(0 0 0)
(0 -9.6806e-05 0)
(0 -0.000489941 0)
(0 -0.00115114 0)
(0 -0.00202271 0)
(0 -0.00302993 0)
(0 -0.00413777 0)
(0 -0.00517172 0)
(0 -0.00491661 0)
(0 -0.00540317 0)
(0 -0.00507203 0)
(0 -0.00551411 0)
(0 -0.00585441 0)
(0 -0.00626194 0)
(0 -0.00591681 0)
(0 -0.00627352 0)
(0 -0.0064583 0)
(0 -0.00661723 0)
(0 -0.00645808 0)
(0 -0.00690709 0)
(0 -0.00698354 0)
(0 -0.00704523 0)
(0 -0.00696948 0)
(0 -0.00731185 0)
(0 -0.00737299 0)
(0 -0.00741268 0)
(0 -0.0073528 0)
(0 -0.00755144 0)
(0 -0.007596 0)
(0 -0.00761622 0)
(0 -0.00757133 0)
(0 -0.00765645 0)
(0 -0.00768913 0)
(0 -0.00769379 0)
(0 -0.00766206 0)
(0 -0.0076833 0)
(0 -0.00770963 0)
(0 -0.00770919 0)
(0 -0.00768266 0)
(0 -0.00765645 0)
(0 -0.00768913 0)
(0 -0.00768268 0)
(0 -0.0076488 0)
(0 -0.00755144 0)
(0 -0.007596 0)
(0 -0.00757905 0)
(0 -0.00752751 0)
(0 -0.00731185 0)
(0 -0.00737299 0)
(0 -0.00733844 0)
(0 -0.00726729 0)
(0 -0.00690709 0)
(0 -0.00698354 0)
(0 -0.00705349 0)
(0 -0.00692038 0)
(0 -0.00677153 0)
(0 -0.00627352 0)
(0 -0.0064583 0)
(0 -0.00661881 0)
(0 -0.00626194 0)
(0 -0.00591681 0)
(0 -0.00551411 0)
(0 -0.00584103 0)
(0 -0.00539968 0)
(0 -0.00507203 0)
(0 -0.00492249 0)
(0 -0.00518704 0)
(0 -0.00412737 0)
(0 -0.00306011 0)
(0 -0.00204392 0)
(0 -0.00116448 0)
(0 -0.000496932 0)
(0 -9.91941e-05 0)
(0 0 0)
(0 0 0)
(0 0 0)
(0 0 0)
(0 0 0)
(0 0 0)
(0 0 0)
(0 0 0)
(0 0 0)
(0 0 0)
(0 0 0)
(0 0 0)
(0 0 0)
(0 0 0)
(0 -0.000149272 0)
(0 -0.000608642 0)
(0 -0.00133939 0)
(0 -0.0022798 0)
(0 -0.00335068 0)
(0 -0.00446204 0)
(0 -0.00552086 0)
(0 -0.00538968 0)
(0 -0.00587239 0)
(0 -0.00564829 0)
(0 -0.00608528 0)
(0 -0.00631214 0)
(0 -0.00670034 0)
(0 -0.00651284 0)
(0 -0.00686622 0)
(0 -0.00695351 0)
(0 -0.00710559 0)
(0 -0.00702032 0)
(0 -0.00738651 0)
(0 -0.00742684 0)
(0 -0.00747234 0)
(0 -0.00743328 0)
(0 -0.00766717 0)
(0 -0.00768663 0)
(0 -0.0077029 0)
(0 -0.00768572 0)
(0 -0.00773437 0)
(0 -0.00773437 0)
(0 -0.00773437 0)
(0 -0.00773437 0)
(0 -0.00773437 0)
(0 -0.00773437 0)
(0 -0.00773437 0)
(0 -0.00773437 0)
(0 -0.00773437 0)
(0 -0.00773437 0)
(0 -0.00773437 0)
(0 -0.00773437 0)
(0 -0.00773437 0)
(0 -0.00773437 0)
(0 -0.00773437 0)
(0 -0.00773437 0)
(0 -0.00773437 0)
(0 -0.00773437 0)
(0 -0.00773437 0)
(0 -0.00773437 0)
(0 -0.00766717 0)
(0 -0.00768663 0)
(0 -0.00766519 0)
(0 -0.00764487 0)
(0 -0.00738651 0)
(0 -0.00742684 0)
(0 -0.0074613 0)
(0 -0.0073561 0)
(0 -0.00728074 0)
(0 -0.00686223 0)
(0 -0.00696365 0)
(0 -0.00704109 0)
(0 -0.00669104 0)
(0 -0.00651863 0)
(0 -0.00611996 0)
(0 -0.0063043 0)
(0 -0.00586615 0)
(0 -0.00567326 0)
(0 -0.0053851 0)
(0 -0.00552361 0)
(0 -0.00446021 0)
(0 -0.00334535 0)
(0 -0.00227249 0)
(0 -0.00133176 0)
(0 -0.000602332 0)
(0 -0.000145689 0)
(0 0 0)
(0 0 0)
(0 0 0)
(0 0 0)
(0 0 0)
(0 0 0)
(0 0 0)
(0 0 0)
(0 0 0)
(0 0 0)
(0 0 0)
(0 0 0)
(0 0 0)
(0 0 0)
(0 -0.000158262 0)
(0 -0.000628099 0)
(0 -0.00137006 0)
(0 -0.00232179 0)
(0 -0.00340334 0)
(0 -0.00452382 0)
(0 -0.0055891 0)
(0 -0.00559106 0)
(0 -0.00607426 0)
(0 -0.00600265 0)
(0 -0.00643915 0)
(0 -0.00651085 0)
(0 -0.00689162 0)
(0 -0.00682149 0)
(0 -0.00715429 0)
(0 -0.00718646 0)
(0 -0.00731989 0)
(0 -0.00729089 0)
(0 -0.00759207 0)
(0 -0.00760448 0)
(0 -0.00763741 0)
(0 -0.00762596 0)
(0 -0.00773437 0)
(0 -0.00773437 0)
(0 -0.00773437 0)
(0 -0.00773437 0)
(0 -0.00773437 0)
(0 -0.00773437 0)
(0 -0.00773437 0)
(0 -0.00773437 0)
(0 -0.00773437 0)
(0 -0.00773437 0)
(0 -0.00773437 0)
(0 -0.00773437 0)
(0 -0.00773437 0)
(0 -0.00773437 0)
(0 -0.00773437 0)
(0 -0.00773437 0)
(0 -0.00773437 0)
(0 -0.00773406 0)
(0 -0.00773294 0)
(0 -0.00759207 0)
(0 -0.00760448 0)
(0 -0.00761266 0)
(0 -0.00753532 0)
(0 -0.00750803 0)
(0 -0.00715385 0)
(0 -0.00718691 0)
(0 -0.00720856 0)
(0 -0.00689162 0)
(0 -0.0068314 0)
(0 -0.00644683 0)
(0 -0.00649445 0)
(0 -0.00605543 0)
(0 -0.00600788 0)
(0 -0.00557021 0)
(0 -0.0055766 0)
(0 -0.00450991 0)
(0 -0.00338921 0)
(0 -0.00230867 0)
(0 -0.00135908 0)
(0 -0.000620227 0)
(0 -0.000154184 0)
(0 0 0)
(0 0 0)
(0 0 0)
(0 0 0)
(0 0 0)
(0 0 0)
(0 0 0)
(0 0 0)
(0 0 0)
(0 0 0)
(0 0 0)
(0 0 0)
(0 0 0)
(0 0 0)
(0 -0.000129337 0)
(0 -0.000565255 0)
(0 -0.00127169 0)
(0 -0.00218839 0)
(0 -0.00323774 0)
(0 -0.00433151 0)
(0 -0.00537863 0)
(0 -0.00552976 0)
(0 -0.00601216 0)
(0 -0.00607268 0)
(0 -0.00650968 0)
(0 -0.0064491 0)
(0 -0.00683166 0)
(0 -0.00689089 0)
(0 -0.00720826 0)
(0 -0.00719128 0)
(0 -0.00732468 0)
(0 -0.00734086 0)
(0 -0.00762623 0)
(0 -0.00762219 0)
(0 -0.00765307 0)
(0 -0.00765672 0)
(0 -0.00773437 0)
(0 -0.00773437 0)
(0 -0.00773437 0)
(0 -0.00773437 0)
(0 -0.00773437 0)
(0 -0.00773437 0)
(0 -0.00773437 0)
(0 -0.00773437 0)
(0 -0.00773437 0)
(0 -0.00773437 0)
(0 -0.00773437 0)
(0 -0.00773437 0)
(0 -0.00773437 0)
(0 -0.00773437 0)
(0 -0.00773437 0)
(0 -0.00773437 0)
(0 -0.00762623 0)
(0 -0.0076189 0)
(0 -0.00761488 0)
(0 -0.00753772 0)
(0 -0.00754649 0)
(0 -0.00720156 0)
(0 -0.00719074 0)
(0 -0.00715793 0)
(0 -0.00683634 0)
(0 -0.00688245 0)
(0 -0.00649967 0)
(0 -0.00645251 0)
(0 -0.0060142 0)
(0 -0.0060613 0)
(0 -0.00553043 0)
(0 -0.0053923 0)
(0 -0.00434155 0)
(0 -0.0032443 0)
(0 -0.002192 0)
(0 -0.00127313 0)
(0 -0.000565395 0)
(0 -0.000129054 0)
(0 0 0)
(0 0 0)
(0 0 0)
(0 0 0)
(0 0 0)
(0 0 0)
(0 0 0)
(0 0 0)
(0 0 0)
(0 0 0)
(0 0 0)
(0 0 0)
(0 0 0)
(0 0 0)
(0 -6.54166e-05 0)
(0 -0.000410894 0)
(0 -0.00102202 0)
(0 -0.0018439 0)
(0 -0.00286674 0)
(0 -0.00391266 0)
(0 -0.00493287 0)
(0 -0.00520341 0)
(0 -0.00568704 0)
(0 -0.00585752 0)
(0 -0.00632223 0)
(0 -0.00613082 0)
(0 -0.00652634 0)
(0 -0.00671642 0)
(0 -0.00705121 0)
(0 -0.00697098 0)
(0 -0.00711649 0)
(0 -0.0071944 0)
(0 -0.00752112 0)
(0 -0.0074983 0)
(0 -0.0075398 0)
(0 -0.00756417 0)
(0 -0.00772502 0)
(0 -0.00771708 0)
(0 -0.00772656 0)
(0 -0.00773147 0)
(0 -0.00773437 0)
(0 -0.00773437 0)
(0 -0.00773437 0)
(0 -0.00773437 0)
(0 -0.00773437 0)
(0 -0.00773437 0)
(0 -0.00773437 0)
(0 -0.00773437 0)
(0 -0.00772502 0)
(0 -0.00771592 0)
(0 -0.00770335 0)
(0 -0.00771459 0)
(0 -0.00752112 0)
(0 -0.0074983 0)
(0 -0.00746727 0)
(0 -0.00736891 0)
(0 -0.00742965 0)
(0 -0.00705121 0)
(0 -0.00697098 0)
(0 -0.00687987 0)
(0 -0.00652634 0)
(0 -0.00671642 0)
(0 -0.00631044 0)
(0 -0.00613082 0)
(0 -0.00568704 0)
(0 -0.00587289 0)
(0 -0.00520341 0)
(0 -0.00493287 0)
(0 -0.00391266 0)
(0 -0.0028298 0)
(0 -0.00186203 0)
(0 -0.0010339 0)
(0 -0.000417401 0)
(0 -6.76151e-05 0)
(0 0 0)
(0 0 0)
(0 0 0)
(0 0 0)
(0 0 0)
(0 0 0)
(0 0 0)
(0 0 0)
(0 0 0)
(0 0 0)
(0 0 0)
(0 0 0)
(0 0 0)
(0 0 0)
(0 -8.09434e-06 0)
(0 -0.000240279 0)
(0 -0.000731676 0)
(0 -0.00143877 0)
(0 -0.00229693 0)
(0 -0.00323082 0)
(0 -0.0042108 0)
(0 -0.00458238 0)
(0 -0.00508067 0)
(0 -0.0054074 0)
(0 -0.00586898 0)
(0 -0.00551691 0)
(0 -0.0059538 0)
(0 -0.00627038 0)
(0 -0.0066392 0)
(0 -0.00649131 0)
(0 -0.00665422 0)
(0 -0.00680086 0)
(0 -0.00719668 0)
(0 -0.00713082 0)
(0 -0.00719071 0)
(0 -0.00724541 0)
(0 -0.00754649 0)
(0 -0.00750318 0)
(0 -0.0075348 0)
(0 -0.00757643 0)
(0 -0.00770292 0)
(0 -0.00767869 0)
(0 -0.00768933 0)
(0 -0.00771146 0)
(0 -0.00773437 0)
(0 -0.00773007 0)
(0 -0.00773175 0)
(0 -0.00773437 0)
(0 -0.00773437 0)
(0 -0.00773437 0)
(0 -0.00773437 0)
(0 -0.00773437 0)
(0 -0.00773437 0)
(0 -0.00773437 0)
(0 -0.00773007 0)
(0 -0.00772771 0)
(0 -0.00773411 0)
(0 -0.00773431 0)
(0 -0.00770292 0)
(0 -0.00767869 0)
(0 -0.00766555 0)
(0 -0.00769193 0)
(0 -0.00754649 0)
(0 -0.00750318 0)
(0 -0.00746795 0)
(0 -0.00751284 0)
(0 -0.00720198 0)
(0 -0.00714152 0)
(0 -0.00706887 0)
(0 -0.00694873 0)
(0 -0.00707935 0)
(0 -0.00662097 0)
(0 -0.00648379 0)
(0 -0.00632355 0)
(0 -0.00594562 0)
(0 -0.00627038 0)
(0 -0.00586898 0)
(0 -0.00551691 0)
(0 -0.00508067 0)
(0 -0.0054074 0)
(0 -0.00458238 0)
(0 -0.0042108 0)
(0 -0.00323082 0)
(0 -0.00229693 0)
(0 -0.00143877 0)
(0 -0.000731676 0)
(0 -0.000224132 0)
(0 -9.72277e-06 0)
(0 0 0)
(0 0 0)
(0 0 0)
(0 0 0)
(0 0 0)
(0 0 0)
(0 0 0)
(0 0 0)
(0 0 0)
(0 0 0)
(0 0 0)
(0 0 0)
(0 0 0)
(0 0 0)
(0 0 0)
(0 -7.38548e-05 0)
(0 -0.000389187 0)
(0 -0.000915669 0)
(0 -0.00159839 0)
(0 -0.0024514 0)
(0 -0.00333337 0)
(0 -0.00374942 0)
(0 -0.00424037 0)
(0 -0.0046602 0)
(0 -0.00511535 0)
(0 -0.00468236 0)
(0 -0.0050956 0)
(0 -0.00554315 0)
(0 -0.00593049 0)
(0 -0.00547285 0)
(0 -0.00578866 0)
(0 -0.00605088 0)
(0 -0.0062713 0)
(0 -0.00610703 0)
(0 -0.00656439 0)
(0 -0.00633523 0)
(0 -0.00647688 0)
(0 -0.006694 0)
(0 -0.00701843 0)
(0 -0.00682196 0)
(0 -0.00690054 0)
(0 -0.0071042 0)
(0 -0.00730594 0)
(0 -0.00713182 0)
(0 -0.00718297 0)
(0 -0.00735418 0)
(0 -0.00745504 0)
(0 -0.00729438 0)
(0 -0.00732273 0)
(0 -0.0074748 0)
(0 -0.00750123 0)
(0 -0.00735285 0)
(0 -0.00734518 0)
(0 -0.00749517 0)
(0 -0.00745504 0)
(0 -0.00729438 0)
(0 -0.00725415 0)
(0 -0.00742406 0)
(0 -0.00730594 0)
(0 -0.00713182 0)
(0 -0.0070679 0)
(0 -0.00724511 0)
(0 -0.00701843 0)
(0 -0.00682196 0)
(0 -0.00672036 0)
(0 -0.006919 0)
(0 -0.00656439 0)
(0 -0.00633523 0)
(0 -0.00620221 0)
(0 -0.00642282 0)
(0 -0.00593049 0)
(0 -0.00547285 0)
(0 -0.0050956 0)
(0 -0.00554315 0)
(0 -0.00511535 0)
(0 -0.00468236 0)
(0 -0.00424037 0)
(0 -0.0046602 0)
(0 -0.00374942 0)
(0 -0.00333337 0)
(0 -0.0024514 0)
(0 -0.00159839 0)
(0 -0.000915669 0)
(0 -0.000389187 0)
(0 -7.38548e-05 0)
(0 0 0)
(0 0 0)
(0 0 0)
(0 0 0)
(0 0 0)
(0 0 0)
(0 0 0)
(0 0 0)
(0 0 0)
(0 0 0)
(0 0 0)
(0 0 0)
(0 0 0)
(0 0 0)
(0 0 0)
(0 0 0)
(0 0 0)
(0 -0.000111296 0)
(0 -0.000459568 0)
(0 -0.000985184 0)
(0 -0.00163705 0)
(0 -0.00235106 0)
(0 -0.00305589 0)
(0 -0.00360286 0)
(0 -0.00418447 0)
(0 -0.00376718 0)
(0 -0.00399429 0)
(0 -0.00457726 0)
(0 -0.00492371 0)
(0 -0.00436106 0)
(0 -0.00469651 0)
(0 -0.00527728 0)
(0 -0.00558959 0)
(0 -0.00530059 0)
(0 -0.00541214 0)
(0 -0.00572888 0)
(0 -0.0060843 0)
(0 -0.00580015 0)
(0 -0.00590559 0)
(0 -0.00619056 0)
(0 -0.00643271 0)
(0 -0.00614691 0)
(0 -0.00619404 0)
(0 -0.0064877 0)
(0 -0.00664163 0)
(0 -0.00636718 0)
(0 -0.00639924 0)
(0 -0.00667342 0)
(0 -0.0067108 0)
(0 -0.00643808 0)
(0 -0.00642488 0)
(0 -0.00669882 0)
(0 -0.00664163 0)
(0 -0.00636718 0)
(0 -0.00632229 0)
(0 -0.00659702 0)
(0 -0.00643271 0)
(0 -0.00614691 0)
(0 -0.00607911 0)
(0 -0.00636484 0)
(0 -0.0060843 0)
(0 -0.00580015 0)
(0 -0.00568255 0)
(0 -0.00596551 0)
(0 -0.00558959 0)
(0 -0.00530059 0)
(0 -0.00496658 0)
(0 -0.00469651 0)
(0 -0.00527728 0)
(0 -0.00492371 0)
(0 -0.00436106 0)
(0 -0.00399429 0)
(0 -0.00457726 0)
(0 -0.00418447 0)
(0 -0.00360286 0)
(0 -0.00305589 0)
(0 -0.00235106 0)
(0 -0.00376718 0)
(0 -0.00163705 0)
(0 -0.000985184 0)
(0 -0.000459568 0)
(0 -0.000111296 0)
(0 0 0)
(0 0 0)
(0 0 0)
(0 0 0)
(0 0 0)
(0 0 0)
(0 0 0)
(0 0 0)
(0 0 0)
(0 0 0)
(0 0 0)
(0 0 0)
(0 0 0)
(0 0 0)
(0 0 0)
(0 0 0)
(0 0 0)
(0 0 0)
(0 -1.41137e-06 0)
(0 -0.000126436 0)
(0 -0.00042845 0)
(0 -0.000839609 0)
(0 -0.00137426 0)
(0 -0.00194446 0)
(0 -0.00249576 0)
(0 -0.0028176 0)
(0 -0.00341498 0)
(0 -0.00375366 0)
(0 -0.00308889 0)
(0 -0.00339497 0)
(0 -0.00403273 0)
(0 -0.00433871 0)
(0 -0.00400991 0)
(0 -0.0041445 0)
(0 -0.00447863 0)
(0 -0.00483931 0)
(0 -0.00449235 0)
(0 -0.00458809 0)
(0 -0.00493832 0)
(0 -0.00516266 0)
(0 -0.00481523 0)
(0 -0.00489258 0)
(0 -0.00524226 0)
(0 -0.00540906 0)
(0 -0.00505492 0)
(0 -0.00508523 0)
(0 -0.00544015 0)
(0 -0.00548111 0)
(0 -0.00512622 0)
(0 -0.00510954 0)
(0 -0.00546508 0)
(0 -0.00540906 0)
(0 -0.00505492 0)
(0 -0.00501262 0)
(0 -0.00536563 0)
(0 -0.00516266 0)
(0 -0.00481523 0)
(0 -0.00472666 0)
(0 -0.00510237 0)
(0 -0.00483931 0)
(0 -0.00449235 0)
(0 -0.00438622 0)
(0 -0.00472941 0)
(0 -0.00433871 0)
(0 -0.00400991 0)
(0 -0.00367517 0)
(0 -0.00339497 0)
(0 -0.00403273 0)
(0 -0.00375366 0)
(0 -0.00308889 0)
(0 -0.0028176 0)
(0 -0.00341498 0)
(0 -0.00249576 0)
(0 -0.00194446 0)
(0 -0.00137426 0)
(0 -0.000839609 0)
(0 -0.00042845 0)
(0 -0.000126436 0)
(0 -1.41137e-06 0)
(0 0 0)
(0 0 0)
(0 0 0)
(0 0 0)
(0 0 0)
(0 0 0)
(0 0 0)
(0 0 0)
(0 0 0)
(0 0 0)
(0 0 0)
(0 0 0)
(0 0 0)
(0 0 0)
(0 0 0)
(0 0 0)
(0 0 0)
(0 0 0)
(0 0 0)
(0 0 0)
(0 -6.63999e-05 0)
(0 -0.000276553 0)
(0 -0.000560242 0)
(0 -0.000943343 0)
(0 -0.00139487 0)
(0 -0.00164479 0)
(0 -0.00219167 0)
(0 -0.00247868 0)
(0 -0.00188969 0)
(0 -0.00212344 0)
(0 -0.00275026 0)
(0 -0.00300045 0)
(0 -0.00266694 0)
(0 -0.00277507 0)
(0 -0.00311585 0)
(0 -0.00341632 0)
(0 -0.00305733 0)
(0 -0.00310884 0)
(0 -0.00346274 0)
(0 -0.00372401 0)
(0 -0.00335555 0)
(0 -0.00342009 0)
(0 -0.00379223 0)
(0 -0.00393598 0)
(0 -0.00355625 0)
(0 -0.00358178 0)
(0 -0.00396291 0)
(0 -0.00400215 0)
(0 -0.00361987 0)
(0 -0.00360228 0)
(0 -0.00398453 0)
(0 -0.00393598 0)
(0 -0.00355625 0)
(0 -0.00352067 0)
(0 -0.00389844 0)
(0 -0.00372401 0)
(0 -0.00335555 0)
(0 -0.00328192 0)
(0 -0.00364611 0)
(0 -0.00341632 0)
(0 -0.00305733 0)
(0 -0.00297079 0)
(0 -0.0033243 0)
(0 -0.00300045 0)
(0 -0.00266694 0)
(0 -0.00234035 0)
(0 -0.00212344 0)
(0 -0.00275026 0)
(0 -0.00247868 0)
(0 -0.00188969 0)
(0 -0.00164479 0)
(0 -0.00219167 0)
(0 -0.00139487 0)
(0 -0.000943343 0)
(0 -0.000560242 0)
(0 -0.000276553 0)
(0 -6.63999e-05 0)
(0 0 0)
(0 0 0)
(0 0 0)
(0 0 0)
(0 0 0)
(0 0 0)
(0 0 0)
(0 0 0)
(0 0 0)
(0 0 0)
(0 0 0)
(0 0 0)
(0 0 0)
(0 0 0)
(0 0 0)
(0 0 0)
(0 0 0)
(0 0 0)
(0 0 0)
(0 0 0)
(0 0 0)
(0 0 0)
(0 0 0)
(0 -5.65446e-06 0)
(0 -9.59132e-05 0)
(0 -0.00026768 0)
(0 -0.000561535 0)
(0 -0.000714414 0)
(0 -0.00114517 0)
(0 -0.00134577 0)
(0 -0.000869648 0)
(0 -0.00102199 0)
(0 -0.00153941 0)
(0 -0.00172077 0)
(0 -0.001434 0)
(0 -0.00151029 0)
(0 -0.00180531 0)
(0 -0.00200894 0)
(0 -0.00170023 0)
(0 -0.0017718 0)
(0 -0.00208759 0)
(0 -0.00228578 0)
(0 -0.00195267 0)
(0 -0.00200038 0)
(0 -0.00233793 0)
(0 -0.00244839 0)
(0 -0.00210158 0)
(0 -0.00212063 0)
(0 -0.00246916 0)
(0 -0.00250234 0)
(0 -0.00215173 0)
(0 -0.00213595 0)
(0 -0.00248586 0)
(0 -0.00244839 0)
(0 -0.00210158 0)
(0 -0.00207507 0)
(0 -0.00241947 0)
(0 -0.00228578 0)
(0 -0.00195267 0)
(0 -0.00189843 0)
(0 -0.00222643 0)
(0 -0.00200894 0)
(0 -0.00170023 0)
(0 -0.00162376 0)
(0 -0.00192477 0)
(0 -0.00172077 0)
(0 -0.001434 0)
(0 -0.00116653 0)
(0 -0.00102199 0)
(0 -0.00153941 0)
(0 -0.00134577 0)
(0 -0.000869648 0)
(0 -0.000714414 0)
(0 -0.00114517 0)
(0 -0.000561535 0)
(0 -0.00026768 0)
(0 -9.59132e-05 0)
(0 -5.65446e-06 0)
(0 0 0)
(0 0 0)
(0 0 0)
(0 0 0)
(0 0 0)
(0 0 0)
(0 0 0)
(0 0 0)
(0 0 0)
(0 0 0)
(0 0 0)
(0 0 0)
(0 0 0)
(0 0 0)
(0 0 0)
(0 0 0)
(0 0 0)
(0 0 0)
(0 0 0)
(0 0 0)
(0 0 0)
(0 0 0)
(0 0 0)
(0 0 0)
(0 0 0)
(0 0 0)
(0 -1.02499e-06 0)
(0 -7.70067e-05 0)
(0 -0.000134132 0)
(0 -0.000371934 0)
(0 -0.00048189 0)
(0 -0.000200006 0)
(0 -0.000270452 0)
(0 -0.000592822 0)
(0 -0.000700273 0)
(0 -0.000482039 0)
(0 -0.000531386 0)
(0 -0.000726732 0)
(0 -0.000892304 0)
(0 -0.000671534 0)
(0 -0.000714075 0)
(0 -0.000942114 0)
(0 -0.00106949 0)
(0 -0.000823534 0)
(0 -0.000852844 0)
(0 -0.00110343 0)
(0 -0.00117584 0)
(0 -0.000915574 0)
(0 -0.000927468 0)
(0 -0.00118954 0)
(0 -0.00121336 0)
(0 -0.000948584 0)
(0 -0.000937048 0)
(0 -0.00120057 0)
(0 -0.00117584 0)
(0 -0.000915574 0)
(0 -0.000899069 0)
(0 -0.00115682 0)
(0 -0.00106949 0)
(0 -0.000823534 0)
(0 -0.000790429 0)
(0 -0.00103108 0)
(0 -0.000892304 0)
(0 -0.000671534 0)
(0 -0.00062661 0)
(0 -0.000839495 0)
(0 -0.000700273 0)
(0 -0.000482039 0)
(0 -0.000324151 0)
(0 -0.000270452 0)
(0 -0.000592822 0)
(0 -0.00048189 0)
(0 -0.000200006 0)
(0 -0.000134132 0)
(0 -0.000371934 0)
(0 -7.70067e-05 0)
(0 -1.02499e-06 0)
(0 0 0)
(0 0 0)
(0 0 0)
(0 0 0)
(0 0 0)
(0 0 0)
(0 0 0)
(0 0 0)
(0 0 0)
(0 0 0)
(0 0 0)
(0 0 0)
(0 0 0)
(0 0 0)
(0 0 0)
(0 0 0)
(0 0 0)
(0 0 0)
(0 0 0)
(0 0 0)
(0 0 0)
(0 0 0)
(0 0 0)
(0 0 0)
(0 0 0)
(0 0 0)
(0 0 0)
(0 0 0)
(0 0 0)
(0 0 0)
(0 0 0)
(0 -3.76438e-05 0)
(0 -1.36153e-05 0)
(0 0 0)
(0 -5.91947e-05 0)
(0 -9.88923e-05 0)
(0 -3.02758e-06 0)
(0 -1.32334e-05 0)
(0 -0.000142512 0)
(0 -0.000186711 0)
(0 -2.79044e-05 0)
(0 -4.44318e-05 0)
(0 -0.000228475 0)
(0 -0.000265184 0)
(0 -6.05382e-05 0)
(0 -7.43328e-05 0)
(0 -0.000294673 0)
(0 -0.000315276 0)
(0 -8.43578e-05 0)
(0 -8.96216e-05 0)
(0 -0.000325864 0)
(0 -0.000334336 0)
(0 -9.41185e-05 0)
(0 -8.96216e-05 0)
(0 -0.000325864 0)
(0 -0.000315276 0)
(0 -8.43578e-05 0)
(0 -7.43328e-05 0)
(0 -0.000294673 0)
(0 -0.000265184 0)
(0 -6.05382e-05 0)
(0 -4.44318e-05 0)
(0 -0.000228475 0)
(0 -0.000186711 0)
(0 -2.79044e-05 0)
(0 -1.32334e-05 0)
(0 -0.000142512 0)
(0 -9.88923e-05 0)
(0 -3.02758e-06 0)
(0 0 0)
(0 -5.91947e-05 0)
(0 -3.76438e-05 0)
(0 0 0)
(0 0 0)
(0 0 0)
(0 -1.36153e-05 0)
(0 0 0)
(0 0 0)
(0 0 0)
(0 0 0)
(0 0 0)
(0 0 0)
(0 0 0)
(0 0 0)
(0 0 0)
(0 0 0)
(0 0 0)
(0 0 0)
(0 0 0)
(0 0 0)
(0 0 0)
(0 0 0)
(0 0 0)
(0 0 0)
(0 0 0)
(0 0 0)
(0 0 0)
(0 0 0)
(0 0 0)
(0 0 0)
(0 0 0)
(0 0 0)
(0 0 0)
(0 0 0)
(0 0 0)
(0 0 0)
(0 0 0)
(0 0 0)
(0 0 0)
(0 0 0)
(0 0 0)
(0 0 0)
(0 0 0)
(0 0 0)
(0 0 0)
(0 0 0)
(0 -2.72086e-07 0)
(0 0 0)
(0 0 0)
(0 -1.04708e-06 0)
(0 -6.22993e-07 0)
(0 0 0)
(0 -2.72086e-07 0)
(0 -6.22993e-07 0)
(0 0 0)
(0 0 0)
(0 0 0)
(0 0 0)
(0 0 0)
(0 0 0)
(0 0 0)
(0 0 0)
(0 0 0)
(0 0 0)
(0 0 0)
(0 0 0)
(0 0 0)
(0 0 0)
(0 0 0)
(0 0 0)
(0 0 0)
(0 0 0)
(0 0 0)
(0 0 0)
(0 0 0)
(0 0 0)
(0 0 0)
(0 0 0)
(0 0 0)
(0 0 0)
(0 0 0)
(0 0 0)
(0 0 0)
(0 0 0)
(0 0 0)
(0 0 0)
(0 0 0)
(0 0 0)
(0 0 0)
(0 0 0)
(0 0 0)
(0 0 0)
(0 0 0)
(0 0 0)
(0 0 0)
(0 0 0)
(0 0 0)
(0 0 0)
(0 0 0)
(0 0 0)
(0 0 0)
(0 0 0)
(0 0 0)
(0 0 0)
(0 0 0)
(0 0 0)
(0 0 0)
(0 0 0)
(0 0 0)
(0 0 0)
(0 0 0)
(0 0 0)
(0 0 0)
(0 0 0)
(0 0 0)
(0 0 0)
(0 0 0)
(0 0 0)
(0 0 0)
(0 0 0)
(0 0 0)
(0 0 0)
(0 0 0)
(0 0 0)
(0 0 0)
(0 0 0)
(0 0 0)
(0 0 0)
(0 0 0)
(0 0 0)
(0 0 0)
(0 0 0)
(0 0 0)
(0 0 0)
(0 0 0)
(0 0 0)
(0 0 0)
(0 0 0)
(0 0 0)
(0 0 0)
(0 0 0)
(0 0 0)
(0 0 0)
(0 0 0)
(0 0 0)
(0 0 0)
(0 0 0)
(0 0 0)
(0 0 0)
(0 0 0)
(0 0 0)
(0 0 0)
(0 0 0)
(0 0 0)
(0 0 0)
(0 0 0)
(0 0 0)
(0 0 0)
(0 0 0)
(0 0 0)
(0 0 0)
(0 0 0)
(0 0 0)
(0 0 0)
(0 0 0)
(0 0 0)
(0 0 0)
(0 0 0)
(0 0 0)
(0 0 0)
(0 0 0)
(0 0 0)
(0 0 0)
(0 0 0)
(0 0 0)
(0 0 0)
(0 0 0)
(0 0 0)
(0 0 0)
(0 0 0)
(0 0 0)
(0 0 0)
(0 0 0)
(0 0 0)
(0 0 0)
(0 0 0)
(0 0 0)
(0 0 0)
(0 0 0)
(0 0 0)
(0 0 0)
(0 0 0)
(0 0 0)
(0 0 0)
(0 0 0)
(0 0 0)
(0 0 0)
(0 0 0)
(0 0 0)
(0 0 0)
(0 0 0)
(0 0 0)
(0 0 0)
(0 0 0)
(0 0 0)
(0 0 0)
(0 0 0)
(0 0 0)
(0 0 0)
(0 0 0)
(0 0 0)
(0 0 0)
(0 0 0)
(0 0 0)
(0 0 0)
(0 0 0)
(0 0 0)
(0 0 0)
(0 0 0)
(0 0 0)
(0 0 0)
(0 0 0)
(0 0 0)
(0 0 0)
(0 0 0)
(0 0 0)
(0 0 0)
(0 0 0)
(0 0 0)
(0 0 0)
(0 0 0)
(0 0 0)
(0 0 0)
(0 0 0)
(0 0 0)
(0 0 0)
(0 0 0)
(0 0 0)
(0 0 0)
(0 0 0)
(0 0 0)
(0 0 0)
(0 0 0)
(0 0 0)
(0 0 0)
(0 0 0)
(0 0 0)
(0 0 0)
(0 0 0)
(0 0 0)
(0 0 0)
(0 0 0)
(0 0 0)
(0 0 0)
(0 0 0)
(0 0 0)
(0 0 0)
(0 0 0)
(0 0 0)
(0 0 0)
(0 0 0)
(0 0 0)
(0 0 0)
(0 0 0)
(0 0 0)
(0 0 0)
(0 0 0)
(0 0 0)
(0 0 0)
(0 0 0)
(0 0 0)
(0 0 0)
(0 0 0)
(0 0 0)
(0 0 0)
(0 0 0)
(0 0 0)
(0 0 0)
(0 0 0)
(0 0 0)
(0 0 0)
(0 0 0)
(0 0 0)
(0 0 0)
(0 0 0)
(0 0 0)
(0 0 0)
(0 0 0)
(0 0 0)
(0 0 0)
(0 0 0)
(0 0 0)
(0 0 0)
(0 0 0)
(0 0 0)
(0 0 0)
(0 0 0)
(0 0 0)
(0 0 0)
(0 0 0)
(0 0 0)
(0 0 0)
(0 0 0)
(0 0 0)
(0 0 0)
(0 0 0)
(0 0 0)
(0 0 0)
(0 0 0)
(0 0 0)
(0 0 0)
(0 0 0)
(0 0 0)
(0 0 0)
(0 0 0)
(0 0 0)
(0 0 0)
(0 0 0)
(0 0 0)
(0 0 0)
(0 0 0)
(0 0 0)
(0 0 0)
(0 0 0)
(0 0 0)
(0 0 0)
(0 0 0)
(0 0 0)
(0 0 0)
(0 0 0)
(0 0 0)
(0 0 0)
(0 0 0)
(0 0 0)
(0 0 0)
(0 0 0)
(0 0 0)
(0 0 0)
(0 0 0)
(0 0 0)
(0 0 0)
(0 0 0)
(0 0 0)
(0 0 0)
(0 0 0)
(0 0 0)
(0 0 0)
(0 0 0)
(0 0 0)
(0 0 0)
(0 0 0)
(0 0 0)
(0 0 0)
(0 0 0)
(0 0 0)
(0 0 0)
(0 0 0)
(0 0 0)
(0 0 0)
(0 0 0)
(0 0 0)
(0 0 0)
(0 0 0)
(0 0 0)
(0 0 0)
(0 0 0)
(0 0 0)
(0 0 0)
(0 0 0)
(0 0 0)
(0 0 0)
(0 0 0)
(0 0 0)
(0 0 0)
(0 0 0)
(0 0 0)
(0 0 0)
(0 0 0)
(0 0 0)
(0 0 0)
(0 0 0)
(0 0 0)
(0 0 0)
(0 0 0)
(0 0 0)
(0 0 0)
(0 0 0)
(0 0 0)
(0 0 0)
(0 0 0)
(0 0 0)
(0 0 0)
(0 0 0)
(0 0 0)
(0 0 0)
(0 0 0)
(0 0 0)
(0 0 0)
(0 0 0)
(0 0 0)
(0 0 0)
(0 0 0)
(0 0 0)
(0 0 0)
(0 0 0)
(0 0 0)
(0 0 0)
(0 0 0)
(0 0 0)
(0 0 0)
(0 0 0)
(0 0 0)
(0 0 0)
(0 0 0)
(0 0 0)
(0 0 0)
(0 0 0)
(0 0 0)
(0 0 0)
(0 0 0)
(0 0 0)
(0 0 0)
(0 0 0)
(0 0 0)
(0 0 0)
(0 0 0)
(0 0 0)
(0 0 0)
(0 0 0)
(0 0 0)
(0 0 0)
(0 0 0)
(0 0 0)
(0 0 0)
(0 0 0)
(0 0 0)
(0 0 0)
(0 0 0)
(0 0 0)
(0 0 0)
(0 0 0)
(0 0 0)
(0 0 0)
(0 0 0)
(0 0 0)
(0 0 0)
(0 0 0)
(0 0 0)
(0 0 0)
(0 0 0)
(0 0 0)
(0 0 0)
(0 0 0)
(0 0 0)
(0 0 0)
(0 0 0)
(0 0 0)
(0 0 0)
(0 0 0)
(0 0 0)
(0 0 0)
(0 0 0)
(0 0 0)
(0 0 0)
(0 0 0)
(0 0 0)
(0 0 0)
(0 0 0)
(0 0 0)
(0 0 0)
(0 0 0)
(0 0 0)
(0 0 0)
(0 0 0)
(0 0 0)
(0 0 0)
(0 0 0)
(0 0 0)
(0 0 0)
(0 0 0)
(0 0 0)
(0 0 0)
(0 0 0)
(0 0 0)
(0 0 0)
(0 0 0)
(0 0 0)
(0 0 0)
(0 0 0)
(0 0 0)
(0 0 0)
(0 0 0)
(0 0 0)
(0 0 0)
(0 0 0)
(0 0 0)
(0 0 0)
(0 0 0)
(0 0 0)
(0 0 0)
(0 0 0)
(0 0 0)
(0 0 0)
(0 0 0)
(0 0 0)
(0 0 0)
(0 0 0)
(0 0 0)
(0 0 0)
(0 0 0)
(0 0 0)
(0 0 0)
(0 0 0)
(0 0 0)
(0 0 0)
(0 0 0)
(0 0 0)
(0 0 0)
(0 0 0)
(0 0 0)
(0 0 0)
(0 0 0)
(0 0 0)
(0 0 0)
(0 0 0)
(0 0 0)
(0 0 0)
(0 0 0)
(0 0 0)
(0 0 0)
(0 0 0)
(0 0 0)
(0 0 0)
(0 0 0)
(0 0 0)
(0 0 0)
(0 0 0)
(0 0 0)
(0 0 0)
(0 0 0)
(0 0 0)
(0 0 0)
(0 0 0)
(0 0 0)
(0 0 0)
(0 0 0)
(0 0 0)
(0 0 0)
(0 0 0)
(0 0 0)
(0 0 0)
(0 0 0)
(0 0 0)
(0 0 0)
(0 0 0)
(0 0 0)
(0 0 0)
(0 0 0)
(0 0 0)
(0 0 0)
(0 0 0)
(0 0 0)
(0 0 0)
(0 0 0)
(0 0 0)
(0 0 0)
(0 0 0)
(0 0 0)
(0 0 0)
(0 0 0)
(0 0 0)
(0 0 0)
(0 0 0)
(0 0 0)
(0 0 0)
(0 0 0)
(0 0 0)
(0 0 0)
(0 0 0)
(0 0 0)
(0 0 0)
(0 0 0)
(0 0 0)
(0 0 0)
(0 0 0)
(0 0 0)
(0 0 0)
(0 0 0)
(0 0 0)
(0 0 0)
(0 0 0)
(0 0 0)
(0 0 0)
(0 0 0)
(0 0 0)
(0 0 0)
(0 0 0)
(0 0 0)
(0 0 0)
(0 0 0)
(0 0 0)
(0 0 0)
(0 0 0)
(0 0 0)
(0 0 0)
(0 0 0)
(0 0 0)
(0 0 0)
(0 0 0)
(0 0 0)
(0 0 0)
(0 0 0)
(0 0 0)
(0 0 0)
(0 0 0)
(0 0 0)
(0 0 0)
(0 0 0)
(0 0 0)
(0 0 0)
(0 0 0)
(0 0 0)
(0 0 0)
(0 0 0)
(0 0 0)
(0 0 0)
(0 0 0)
(0 0 0)
(0 0 0)
(0 0 0)
(0 0 0)
(0 0 0)
(0 0 0)
(0 0 0)
(0 0 0)
(0 0 0)
(0 0 0)
(0 0 0)
(0 0 0)
(0 0 0)
(0 0 0)
(0 0 0)
(0 0 0)
(0 0 0)
(0 0 0)
(0 0 0)
(0 0 0)
(0 0 0)
(0 0 0)
(0 0 0)
(0 0 0)
(0 0 0)
(0 0 0)
(0 0 0)
(0 0 0)
(0 0 0)
(0 0 0)
(0 0 0)
(0 0 0)
(0 0 0)
(0 0 0)
(0 0 0)
(0 0 0)
(0 0 0)
(0 0 0)
(0 0 0)
(0 0 0)
(0 0 0)
(0 0 0)
(0 0 0)
(0 0 0)
(0 0 0)
(0 0 0)
(0 0 0)
(0 0 0)
(0 0 0)
(0 0 0)
(0 0 0)
(0 0 0)
(0 0 0)
(0 0 0)
(0 0 0)
(0 0 0)
(0 0 0)
(0 0 0)
(0 0 0)
(0 0 0)
(0 0 0)
(0 0 0)
(0 0 0)
(0 0 0)
(0 0 0)
(0 0 0)
(0 0 0)
(0 0 0)
(0 0 0)
(0 0 0)
(0 0 0)
(0 0 0)
(0 0 0)
(0 0 0)
(0 0 0)
(0 0 0)
(0 0 0)
(0 0 0)
(0 0 0)
(0 0 0)
(0 0 0)
(0 0 0)
(0 0 0)
(0 0 0)
(0 0 0)
(0 0 0)
(0 0 0)
(0 0 0)
(0 0 0)
(0 0 0)
(0 0 0)
(0 0 0)
(0 0 0)
(0 0 0)
(0 0 0)
(0 0 0)
(0 0 0)
(0 0 0)
(0 0 0)
(0 0 0)
(0 0 0)
(0 0 0)
(0 0 0)
(0 0 0)
(0 0 0)
(0 0 0)
(0 0 0)
(0 0 0)
(0 0 0)
(0 0 0)
(0 0 0)
(0 0 0)
(0 0 0)
(0 0 0)
(0 0 0)
(0 0 0)
(0 0 0)
(0 0 0)
(0 0 0)
(0 0 0)
(0 0 0)
(0 0 0)
(0 0 0)