/*--------------------------------*- C++ -*----------------------------------*\
| =========                 |                                                 |
| \\      /  F ield         | OpenFOAM: The Open Source CFD Toolbox           |
|  \\    /   O peration     | Version:  v2106                                 |
|   \\  /    A nd           | Website:  www.openfoam.com                      |
|    \\/     M anipulation  |                                                 |
\*---------------------------------------------------------------------------*/
FoamFile
{
    version     2.0;
    format      ascii;
    arch        "LSB;label=32;scalar=64";
    class       volVectorField;
    location    "0";
    object      U;
}
// * * * * * * * * * * * * * * * * * * * * * * * * * * * * * * * * * * * * * //

dimensions      [0 1 -1 0 0 0 0];

internalField   nonuniform List<vector> 
11644
(
(0.996856 -0.000249553 4.05603e-23)
(0.996738 -0.000664736 1.11853e-22)
(0.996664 -0.000985399 6.0012e-23)
(0.996644 -0.00131505 0)
(0.99664 -0.00166945 0)
(0.996638 -0.00204756 0)
(0.996635 -0.0024451 0)
(0.996631 -0.00285597 0)
(0.996628 -0.00327017 0)
(0.996624 -0.00367636 0)
(0.996628 -0.00404927 0)
(0.996588 -0.00438524 0)
(0.996601 -0.00463703 0)
(0.996781 -0.00478023 0)
(0.99666 -0.00482318 0)
(0.996686 -0.0047277 0)
(0.996702 -0.00447801 0)
(0.996526 -0.00403265 0)
(0.9965 -0.00346996 0)
(0.996617 -0.00289405 3.32974e-30)
(0.996569 -0.00232837 -3.32556e-30)
(0.996186 -0.00148887 0)
(0.995944 -0.000237861 0)
(0.996222 0.000890876 0)
(0.996574 0.00150079 0)
(0.996644 0.00187021 0)
(0.996795 0.00225224 0)
(0.996671 0.00241963 0)
(0.996605 0.00251469 0)
(0.996613 0.00250509 0)
(0.99663 0.00241244 0)
(0.996631 0.00225776 0)
(0.99663 0.00205669 0)
(0.99663 0.00182477 0)
(0.99663 0.00157461 0)
(0.996633 0.00131833 0)
(0.996638 0.00105892 0)
(0.996655 0.000805187 0)
(0.996716 0.000551803 0)
(0.996819 0.000211197 7.86422e-24)
(0.99771 -0.000503447 5.20994e-23)
(0.997635 -0.0015308 4.82607e-23)
(0.997587 -0.00259006 2.59193e-23)
(0.997597 -0.00365896 0)
(0.997643 -0.00475958 0)
(0.997705 -0.00591278 0)
(0.997768 -0.00712451 0)
(0.997823 -0.00838471 0)
(0.997856 -0.00967351 0)
(0.99786 -0.010951 0)
(0.997775 -0.0121854 0)
(0.997691 -0.013265 0)
(0.997483 -0.0141526 0)
(0.996915 -0.0148066 0)
(0.996657 -0.014956 0)
(0.99605 -0.0146777 5.15014e-25)
(0.995325 -0.0138329 -1.6186e-23)
(0.995021 -0.0126202 -6.0873e-23)
(0.994797 -0.0110729 -4.03922e-23)
(0.994459 -0.00898647 -3.72203e-23)
(0.993991 -0.00625714 1.93855e-22)
(0.993693 -0.0032342 -1.23392e-22)
(0.993819 -0.000492829 6.82408e-23)
(0.994331 0.00185246 1.8214e-23)
(0.994987 0.0039295 -2.0176e-24)
(0.995545 0.0055723 0)
(0.995753 0.00663833 0)
(0.996299 0.00734456 0)
(0.996698 0.00761568 0)
(0.996929 0.00755443 0)
(0.997077 0.00725051 0)
(0.997207 0.00675157 0)
(0.99729 0.00612065 0)
(0.99734 0.00540087 0)
(0.997364 0.0046259 0)
(0.997375 0.00382016 0)
(0.997381 0.0029982 0)
(0.997402 0.00216005 0)
(0.997463 0.00130034 0)
(0.997543 0.000431777 0)
(0.999408 -0.000772279 0)
(0.999389 -0.00237872 0)
(0.999425 -0.00406357 0)
(0.999527 -0.00581888 0)
(0.999681 -0.00764984 4.75918e-23)
(0.999867 -0.0095757 0)
(1.00006 -0.0116075 0)
(1.00025 -0.0137407 0)
(1.00037 -0.0159483 0)
(1.00038 -0.0181985 0)
(1.00029 -0.0203634 0)
(0.999874 -0.0224141 0)
(0.999158 -0.024137 1.96563e-24)
(0.998476 -0.0252772 5.10913e-23)
(0.996859 -0.0259019 3.57327e-22)
(0.995331 -0.0256423 -3.78205e-22)
(0.99399 -0.0245787 -5.13158e-22)
(0.992404 -0.0225112 5.00357e-22)
(0.990783 -0.0192257 -8.96716e-22)
(0.989292 -0.0147495 1.01357e-21)
(0.988422 -0.00960999 -2.62982e-22)
(0.988407 -0.00444663 6.591e-23)
(0.989236 0.000132658 -5.14181e-22)
(0.990495 0.00406549 5.13028e-22)
(0.991901 0.00751787 4.9126e-22)
(0.993326 0.0102293 -3.88811e-22)
(0.994955 0.0121259 -4.23106e-23)
(0.995893 0.0130938 -2.7644e-24)
(0.996721 0.0134227 0)
(0.99747 0.0131827 0)
(0.998048 0.012516 0)
(0.998403 0.0115672 0)
(0.998641 0.0104133 0)
(0.998779 0.0091327 0)
(0.998848 0.00777688 0)
(0.998876 0.00638001 0)
(0.998888 0.00496375 0)
(0.998909 0.00353129 0)
(0.998955 0.00208939 0)
(0.999017 0.000684895 0)
(1.00192 -0.0010462 0)
(1.00195 -0.00317328 0)
(1.00209 -0.00540404 0)
(1.00233 -0.00773943 0)
(1.00267 -0.0102075 0)
(1.00306 -0.0128406 0)
(1.00347 -0.015654 0)
(1.00387 -0.018651 0)
(1.00417 -0.0218198 0)
(1.0043 -0.0250814 0)
(1.00405 -0.0284243 -7.09864e-25)
(1.00343 -0.0316231 7.06016e-23)
(1.00223 -0.0344781 -7.91954e-23)
(0.999953 -0.0368879 -5.48269e-22)
(0.997789 -0.0379189 -3.40219e-22)
(0.994602 -0.0378429 1.17594e-21)
(0.99089 -0.0361423 7.41786e-25)
(0.986999 -0.0325113 -1.32958e-21)
(0.983508 -0.0268184 4.84598e-22)
(0.980742 -0.0198562 8.34064e-22)
(0.979372 -0.0122657 2.46416e-22)
(0.979679 -0.00452605 -1.3247e-21)
(0.981645 0.00255486 1.10006e-21)
(0.98419 0.00850869 -6.98404e-22)
(0.987022 0.0134147 -8.39008e-22)
(0.990016 0.0170398 6.38571e-22)
(0.992522 0.0193285 5.59814e-22)
(0.995385 0.0204193 1.81527e-23)
(0.99737 0.0204846 3.0206e-23)
(0.998723 0.0197948 4.89933e-25)
(0.99967 0.0185481 0)
(1.00038 0.0169074 0)
(1.00079 0.0150612 0)
(1.00103 0.0130871 0)
(1.00114 0.0110571 0)
(1.00118 0.00900847 0)
(1.00119 0.00696697 0)
(1.0012 0.00493815 0)
(1.00122 0.00293447 0)
(1.00128 0.000963994 0)
(1.00509 -0.00124998 0)
(1.0052 -0.00382044 0)
(1.00548 -0.0064905 0)
(1.00591 -0.00929946 0)
(1.00648 -0.0123095 0)
(1.00717 -0.015555 0)
(1.00791 -0.0190755 0)
(1.00863 -0.0228975 0)
(1.00924 -0.0270227 0)
(1.00953 -0.0314746 -7.33791e-24)
(1.00946 -0.0361744 3.80513e-23)
(1.00878 -0.0409689 -5.11987e-22)
(1.00704 -0.0454985 5.29303e-22)
(1.0048 -0.0488843 -1.89733e-21)
(0.999681 -0.0514936 1.26977e-21)
(0.994172 -0.0516627 1.24841e-23)
(0.987738 -0.0495808 -1.07042e-22)
(0.979536 -0.0442703 1.84787e-22)
(0.972862 -0.0357837 1.90618e-21)
(0.967852 -0.0249584 -4.12139e-22)
(0.965806 -0.01302 1.3953e-21)
(0.967092 -0.0013531 -5.03427e-21)
(0.970972 0.00887808 1.84524e-21)
(0.975734 0.0169535 -2.93449e-22)
(0.98072 0.0230649 3.5543e-22)
(0.9861 0.0272386 -1.34677e-21)
(0.991423 0.0293731 2.2704e-21)
(0.995051 0.0300219 -6.05087e-22)
(0.998311 0.0293736 4.51349e-22)
(1.00084 0.0277541 -2.65572e-23)
(1.00242 0.0255351 -1.09415e-23)
(1.00335 0.0229445 0)
(1.00394 0.0201496 0)
(1.00423 0.017321 0)
(1.00435 0.0145075 0)
(1.00435 0.0117457 0)
(1.00431 0.0090471 0)
(1.00428 0.0064073 0)
(1.00427 0.0038066 0)
(1.00431 0.00126565 0)
(1.00876 -0.00144347 0)
(1.00895 -0.00433251 0)
(1.0094 -0.00732972 0)
(1.01008 -0.0104935 0)
(1.01097 -0.0138985 0)
(1.01204 -0.0176204 0)
(1.01323 -0.0217293 0)
(1.01445 -0.0262861 0)
(1.01557 -0.0313696 1.4289e-23)
(1.01652 -0.0370684 4.12228e-23)
(1.01716 -0.0433652 5.66588e-23)
(1.01686 -0.0500954 -8.31865e-22)
(1.01488 -0.0567932 5.46167e-22)
(1.00974 -0.0638798 -7.76957e-22)
(1.00328 -0.0673212 4.797e-22)
(0.992852 -0.0681142 -2.99848e-22)
(0.980389 -0.0660718 -1.00754e-22)
(0.966949 -0.0586306 7.67128e-22)
(0.955586 -0.0453522 -2.0475e-21)
(0.948031 -0.0290609 1.00262e-21)
(0.94532 -0.0113006 2.32836e-21)
(0.948203 0.00600374 -6.92773e-22)
(0.955326 0.0210076 -1.41731e-21)
(0.964469 0.0317819 1.09271e-21)
(0.974322 0.0383132 -4.52071e-22)
(0.98273 0.0421612 -7.67458e-22)
(0.98935 0.0435869 1.02793e-21)
(0.996272 0.0422279 -7.02645e-22)
(1.00075 0.040007 6.62918e-22)
(1.00414 0.0370368 -9.84151e-24)
(1.00653 0.0334639 9.8236e-23)
(1.0078 0.0295947 -1.42773e-23)
(1.00836 0.0256597 0)
(1.00859 0.0217912 0)
(1.00859 0.0180779 0)
(1.00847 0.0145231 0)
(1.00832 0.0111158 0)
(1.00818 0.00784475 0)
(1.0081 0.00465401 0)
(1.0081 0.00153506 0)
(1.01275 -0.00148812 0)
(1.01304 -0.00459409 0)
(1.01369 -0.00780274 0)
(1.01466 -0.0112115 0)
(1.01595 -0.0148944 0)
(1.01751 -0.0189607 0)
(1.0193 -0.0235021 0)
(1.02122 -0.0286495 -3.66219e-24)
(1.02337 -0.0346506 1.55378e-23)
(1.02562 -0.0417317 -1.70169e-22)
(1.02733 -0.0499973 -1.97881e-22)
(1.02765 -0.0593593 5.02666e-22)
(1.02547 -0.0697336 2.34177e-22)
(1.02159 -0.0779079 4.00729e-22)
(1.00954 -0.0878177 -1.10565e-21)
(0.99433 -0.0917514 6.6666e-22)
(0.979358 -0.0828897 2.34539e-21)
(0.961016 -0.0754855 4.62109e-21)
(0.942889 -0.0601267 1.31472e-21)
(0.929785 -0.0376276 3.88937e-21)
(0.924706 -0.0113515 3.06479e-21)
(0.928907 0.013474 -1.75742e-21)
(0.939182 0.0332193 3.03017e-21)
(0.952812 0.046971 4.09982e-21)
(0.968103 0.0625697 -4.26894e-22)
(0.98207 0.0640414 1.08431e-21)
(0.993744 0.0612301 -6.15642e-23)
(0.99998 0.0574835 -3.99281e-23)
(1.00538 0.0524805 -7.77475e-22)
(1.00933 0.0472715 -1.89883e-22)
(1.01219 0.0419682 3.22939e-22)
(1.01381 0.0365872 -7.97343e-23)
(1.01436 0.0313338 -9.16279e-24)
(1.01428 0.0262991 0)
(1.01399 0.0215926 0)
(1.0136 0.0172048 0)
(1.01321 0.0130971 0)
(1.01289 0.00918873 0)
(1.01268 0.0054749 0)
(1.01261 0.00179919 0)
(1.01689 -0.0015878 0)
(1.01729 -0.0046994 0)
(1.01815 -0.00795422 0)
(1.01945 -0.0114055 0)
(1.02119 -0.0151835 0)
(1.02334 -0.0193867 0)
(1.02586 -0.0241557 0)
(1.02886 -0.0297298 -1.71992e-23)
(1.03276 -0.0365878 7.37091e-23)
(1.03682 -0.0451247 1.46994e-22)
(1.04022 -0.0554287 -2.71513e-22)
(1.04208 -0.06731 -3.56214e-22)
(1.04162 -0.0799932 -1.01165e-21)
(1.03162 -0.0931287 -6.59074e-22)
(1.02203 -0.101337 6.11469e-22)
(1.00635 -0.109918 1.95293e-22)
(0.978198 -0.115057 -2.23228e-21)
(0.946253 -0.108286 1.04688e-21)
(0.913018 -0.0887507 -2.59107e-21)
(0.887897 -0.0534703 -3.9893e-21)
(0.878576 -0.00880127 -1.01567e-21)
(0.888687 0.0333617 -3.58011e-21)
(0.910609 0.0639617 -4.4396e-21)
(0.937165 0.0805706 -1.7721e-21)
(0.960626 0.0872987 -3.34186e-21)
(0.981527 0.0846596 3.03889e-21)
(0.995427 0.0784999 -1.21183e-21)
(1.00874 0.0738277 -3.90636e-22)
(1.014 0.0655094 2.64223e-23)
(1.01745 0.0575167 -3.93351e-22)
(1.01997 0.0501842 1.65559e-22)
(1.02143 0.0432828 -1.20726e-22)
(1.02196 0.0366721 4.8667e-23)
(1.02145 0.0304796 0)
(1.02059 0.0247787 0)
(1.01973 0.0195985 0)
(1.01896 0.014835 0)
(1.01834 0.0104006 0)
(1.01793 0.0061107 0)
(1.01776 0.00206381 0)
(1.021 -0.00147611 0)
(1.0215 -0.00451839 0)
(1.02258 -0.00769293 0)
(1.02422 -0.0110468 0)
(1.02644 -0.0147278 0)
(1.02924 -0.018847 0)
(1.03264 -0.0235926 3.85847e-24)
(1.03729 -0.0293982 5.51927e-23)
(1.04347 -0.0369263 -4.55714e-23)
(1.04984 -0.0465064 -5.64082e-23)
(1.05574 -0.0582506 -2.40212e-23)
(1.06042 -0.0725428 2.85598e-22)
(1.06254 -0.0912946 -1.61263e-22)
(1.05212 -0.108097 -4.25041e-23)
(1.0426 -0.123922 8.35255e-22)
(1.0227 -0.143374 -3.49885e-22)
(0.989628 -0.154325 1.03343e-21)
(0.940635 -0.159953 1.43026e-21)
(0.880988 -0.139844 3.29721e-22)
(0.828804 -0.0877605 -2.51114e-22)
(0.807202 -0.00951732 -2.27607e-21)
(0.827094 0.063675 -2.71871e-21)
(0.872078 0.110516 -1.42499e-21)
(0.920587 0.129178 1.5373e-21)
(0.960388 0.127849 3.87879e-22)
(0.990698 0.120709 1.15357e-21)
(1.00696 0.105655 -6.32142e-23)
(1.02314 0.0921477 -4.22744e-22)
(1.02705 0.0781106 6.69558e-22)
(1.02892 0.066699 -5.21785e-23)
(1.03028 0.0569824 -3.22932e-22)
(1.03091 0.0485567 1.45658e-22)
(1.031 0.0408546 1.29367e-23)
(1.03003 0.0336576 2.11159e-23)
(1.02834 0.0271117 0)
(1.02675 0.0212457 0)
(1.02542 0.0159366 0)
(1.0244 0.0110783 0)
(1.02372 0.00655794 0)
(1.02341 0.00210189 0)
(1.02488 -0.00133188 0)
(1.02548 -0.00417673 0)
(1.02675 -0.00702144 0)
(1.02872 -0.0101355 0)
(1.03143 -0.0135077 0)
(1.03489 -0.0173127 0)
(1.03938 -0.0217452 7.59999e-25)
(1.04613 -0.0274311 1.11205e-24)
(1.05483 -0.0350392 4.18827e-23)
(1.06395 -0.0447903 -2.42436e-23)
(1.07316 -0.0568534 -1.0297e-22)
(1.08217 -0.07207 7.2679e-23)
(1.09004 -0.093201 9.94372e-24)
(1.08506 -0.116387 -7.76912e-23)
(1.07964 -0.142221 -7.24512e-23)
(1.05745 -0.17859 2.3631e-22)
(1.02117 -0.21082 2.48139e-22)
(0.955597 -0.246563 1.15537e-22)
(0.846215 -0.254216 4.31525e-22)
(0.715443 -0.181821 1.09454e-21)
(0.650515 -0.0184075 1.8976e-22)
(0.708776 0.140914 -2.22232e-21)
(0.824516 0.212128 -4.60463e-22)
(0.918438 0.213173 8.91173e-22)
(0.981969 0.190167 -3.91926e-22)
(1.02035 0.160392 -3.0415e-21)
(1.03319 0.131016 4.49862e-22)
(1.04576 0.107278 -1.29888e-22)
(1.04547 0.0880143 1.41298e-22)
(1.04411 0.073069 -1.36193e-22)
(1.04316 0.0612657 1.86779e-22)
(1.04215 0.051503 1.21087e-22)
(1.04123 0.0430255 -1.86909e-22)
(1.03966 0.035266 1.85549e-23)
(1.03698 0.0282228 0)
(1.03445 0.0219985 0)
(1.03238 0.0164741 0)
(1.03082 0.0114127 0)
(1.0298 0.00673368 0)
(1.02932 0.00227119 0)
(1.02837 -0.00132375 0)
(1.02907 -0.00368085 0)
(1.03055 -0.00623907 0)
(1.03281 -0.00885282 0)
(1.0359 -0.0116784 0)
(1.03994 -0.0148313 0)
(1.0457 -0.0186017 8.11528e-24)
(1.05467 -0.0236442 5.87862e-24)
(1.06573 -0.0303077 1.25667e-23)
(1.07777 -0.0387774 -1.75464e-23)
(1.09088 -0.049513 -1.32992e-24)
(1.10538 -0.0634034 1.20755e-22)
(1.12018 -0.0810758 -1.35071e-22)
(1.1258 -0.109985 2.74739e-22)
(1.13398 -0.14453 3.07302e-22)
(1.1325 -0.196677 -2.04346e-22)
(1.11358 -0.267902 8.34675e-24)
(1.0578 -0.379415 1.54255e-23)
(0.884662 -0.50909 -7.08459e-22)
(0.492582 -0.507533 -3.43306e-20)
(0.186868 -0.0262208 -2.07197e-20)
(0.485922 0.43376 -1.27251e-20)
(0.835099 0.442718 1.29667e-21)
(0.992064 0.337734 -8.96338e-23)
(1.05106 0.251743 2.17295e-23)
(1.07351 0.188743 -7.535e-23)
(1.07258 0.148033 -6.84953e-23)
(1.07574 0.111701 1.89505e-22)
(1.06889 0.0910803 -1.12725e-22)
(1.06279 0.0747082 -8.62766e-23)
(1.05823 0.0617008 7.68718e-23)
(1.05467 0.0511096 -2.32311e-23)
(1.05212 0.0423468 1.3358e-24)
(1.04974 0.0346226 1.23157e-23)
(1.04605 0.0275768 0)
(1.0424 0.0213609 0)
(1.03948 0.0159102 0)
(1.03731 0.0110168 0)
(1.03586 0.00641686 0)
(1.03517 0.0020852 0)
(1.03139 -0.000919325 0)
(1.03211 -0.00295487 0)
(1.03368 -0.00498817 0)
(1.03612 -0.00705308 0)
(1.03953 -0.00926272 0)
(1.04404 -0.0115882 0)
(1.05106 -0.014362 -1.06277e-23)
(1.06182 -0.0180534 -1.51737e-23)
(1.07472 -0.0226586 -2.14211e-23)
(1.08909 -0.0281725 -5.48293e-23)
(1.10575 -0.0351006 -3.81779e-23)
(1.12559 -0.044114 -1.04615e-22)
(1.14896 -0.0557585 2.21573e-22)
(1.16313 -0.0828226 5.49518e-23)
(1.19513 -0.112883 1.34392e-22)
(1.22286 -0.167587 2.99838e-22)
(1.26147 -0.251158 -7.48799e-23)
(1.32055 -0.408095 1.81227e-21)
(1.03236 -0.565375 -1.22109e-19)
(0.986717 0.509987 8.64341e-21)
(1.19388 0.382014 -5.97801e-23)
(1.16082 0.25552 1.63296e-22)
(1.14047 0.182175 3.55613e-23)
(1.11991 0.145589 -3.04327e-23)
(1.10846 0.104756 -5.56367e-24)
(1.09469 0.0858037 4.75602e-23)
(1.08331 0.0701137 9.59116e-24)
(1.07438 0.0571696 -8.86589e-24)
(1.0677 0.0468208 -1.12918e-23)
(1.06305 0.0384905 -1.35128e-23)
(1.05954 0.0313694 -1.51544e-23)
(1.05486 0.02492 0)
(1.05005 0.0192199 0)
(1.04625 0.0142677 0)
(1.04347 0.00989718 0)
(1.04164 0.00587178 0)
(1.04075 0.00202221 0)
(1.03381 -0.000674944 0)
(1.03458 -0.00225995 0)
(1.03615 -0.00365574 0)
(1.03869 -0.00518214 0)
(1.04224 -0.00665583 0)
(1.047 -0.00803455 0)
(1.05474 -0.00948069 8.105e-24)
(1.06649 -0.0112015 -1.32179e-23)
(1.08017 -0.0127864 -2.29196e-23)
(1.09566 -0.0140973 2.07848e-23)
(1.1138 -0.0153692 9.39146e-24)
(1.13642 -0.0167857 1.80358e-22)
(1.16448 -0.0175978 -3.77952e-22)
(1.19099 -0.0358122 -2.84669e-22)
(1.23811 -0.0482068 -2.11551e-21)
(1.29052 -0.0807324 1.74579e-22)
(1.37323 -0.122985 1.18634e-22)
(1.51184 -0.169606 2.82724e-21)
(0.0217666 -0.0151731 3.67118e-19)
(0.0348605 -0.023326 -1.15054e-19)
(1.32282 0.243626 -1.79179e-22)
(1.24573 0.193404 3.46122e-23)
(1.19584 0.147296 -4.71731e-22)
(1.16216 0.122123 -5.13887e-22)
(1.13867 0.0880816 4.2698e-23)
(1.11927 0.0726256 -5.77596e-23)
(1.103 0.0590937 -3.25742e-23)
(1.08997 0.047707 4.28639e-23)
(1.08017 0.0386578 -1.63189e-23)
(1.07323 0.0314696 7.22951e-24)
(1.06838 0.0255116 5.92142e-25)
(1.0628 0.0202657 0)
(1.05692 0.0156275 0)
(1.05228 0.0116006 0)
(1.04885 0.00795518 0)
(1.04661 0.00461847 0)
(1.04547 0.00131484 0)
(1.03563 -0.000713619 -4.91312e-25)
(1.03643 -0.00163588 0)
(1.03812 -0.00269202 0)
(1.04063 -0.00355235 0)
(1.04404 -0.00421815 0)
(1.04863 -0.00461949 0)
(1.05635 -0.00466698 -1.62269e-23)
(1.06782 -0.00407655 3.19802e-23)
(1.08066 -0.0024166 1.04288e-22)
(1.09535 0.000710335 -1.5734e-22)
(1.11298 0.00572882 2.12378e-22)
(1.1347 0.0130245 -5.60926e-22)
(1.16259 0.0247988 4.53341e-22)
(1.19529 0.0208248 1.16921e-21)
(1.24435 0.0294593 5.4434e-22)
(1.30513 0.025696 -6.77973e-22)
(1.38986 0.0260775 -4.60855e-22)
(1.4742 0.0447709 -1.34507e-22)
(0.235397 -0.0155561 -1.36861e-20)
(0.0661656 -0.0304054 4.46173e-21)
(1.22988 0.0934323 1.49002e-22)
(1.26979 0.117531 -2.1665e-22)
(1.22275 0.103325 2.20693e-22)
(1.19004 0.0896982 3.26344e-22)
(1.16195 0.0645439 3.05082e-22)
(1.13925 0.0531798 -6.37808e-22)
(1.1198 0.0429166 -2.18267e-22)
(1.1036 0.0341736 -7.03402e-23)
(1.09103 0.0271792 -1.65091e-23)
(1.08181 0.0216531 1.96104e-23)
(1.07542 0.0173102 -2.96755e-26)
(1.0689 0.0137234 0)
(1.06227 0.0106328 0)
(1.05707 0.00795578 0)
(1.05323 0.00553267 0)
(1.05063 0.00331459 0)
(1.04935 0.001325 0)
(1.03716 -0.000293951 5.81159e-26)
(1.0378 -0.00098791 0)
(1.03928 -0.0015684 0)
(1.04153 -0.00193884 0)
(1.04464 -0.00208559 0)
(1.04883 -0.0018268 0)
(1.0556 -0.000721391 9.81891e-24)
(1.06539 0.00183775 -3.29078e-23)
(1.07609 0.00639035 -6.23537e-23)
(1.08816 0.0135036 2.13023e-23)
(1.10237 0.0240532 5.39265e-22)
(1.11901 0.0384715 -1.1578e-21)
(1.14036 0.0592269 2.26934e-22)
(1.17273 0.0733119 9.7668e-22)
(1.2133 0.10038 -2.36793e-21)
(1.27126 0.126436 -7.52765e-22)
(1.35201 0.160361 -5.31599e-22)
(1.44506 0.202346 -4.31729e-22)
(0.643809 0.0299162 -4.69112e-22)
(0.239142 -0.329702 -1.40463e-22)
(-0.0649319 -0.455805 -7.98273e-23)
(-0.223414 -0.271331 -6.69272e-23)
(-0.0314912 -0.151531 -1.44466e-21)
(1.03541 0.000343779 6.71254e-22)
(1.25523 0.0712856 -7.86844e-22)
(1.23174 0.0701134 4.46474e-22)
(1.20558 0.058886 -9.40607e-22)
(1.17808 0.0381761 -9.6586e-22)
(1.1538 0.0299155 6.36778e-22)
(1.13226 0.0230405 1.03046e-22)
(1.11397 0.0175173 -4.32258e-24)
(1.0993 0.0131577 -4.74891e-23)
(1.08819 0.00981206 -1.31131e-23)
(1.08028 0.00745129 -4.73071e-24)
(1.07266 0.00584731 0)
(1.06552 0.00462927 0)
(1.05996 0.00352461 0)
(1.05599 0.00247349 0)
(1.05352 0.00143948 0)
(1.05236 0.000367551 0)
(1.03827 -3.12403e-05 1.07157e-22)
(1.0388 -0.000461299 0)
(1.04003 -0.000613139 0)
(1.042 -0.000766161 0)
(1.04472 -0.000616872 0)
(1.04819 -7.32811e-05 0)
(1.05303 0.0014239 -1.03331e-24)
(1.06007 0.0049196 -1.92142e-23)
(1.0674 0.0111044 -6.45006e-23)
(1.07495 0.0204153 9.33152e-24)
(1.08315 0.0335518 4.40482e-22)
(1.09174 0.0515216 2.92448e-22)
(1.10127 0.0787134 -5.30736e-22)
(1.12488 0.106248 3.46944e-22)
(1.1502 0.1495 -4.7333e-22)
(1.18379 0.214766 4.72403e-22)
(1.24655 0.289547 3.34411e-21)
(1.33919 0.421943 -4.68857e-21)
(1.08198 0.476285 -2.28111e-21)
(0.521197 0.255614 7.1934e-20)
(-0.0337965 0.147181 6.47256e-22)
(-0.370921 0.0706521 -9.21092e-21)
(-0.0211414 0.0384136 1.42017e-21)
(0.896931 0.059922 -7.08033e-22)
(1.25432 0.0717248 1.3824e-22)
(1.24821 0.0447522 -8.20241e-22)
(1.21943 0.0276295 1.26729e-21)
(1.18801 0.00719352 -1.31595e-21)
(1.16196 0.00357419 -8.60531e-23)
(1.13899 0.000515102 -4.41153e-22)
(1.11952 -0.00132089 5.46036e-23)
(1.10355 -0.0025435 -3.57131e-23)
(1.0915 -0.00332048 1.57933e-23)
(1.08226 -0.00346017 2.27808e-27)
(1.07365 -0.00274868 0)
(1.06631 -0.00196488 0)
(1.06069 -0.00143151 0)
(1.05669 -0.00105008 0)
(1.05404 -0.000720926 0)
(1.05248 -0.000333508 -1.54793e-23)
(1.03868 -0.000311262 1.86329e-23)
(1.03941 -0.000395387 0)
(1.04065 -0.000557659 0)
(1.04237 -0.000646203 0)
(1.04453 -0.000486896 0)
(1.04703 -3.73688e-05 0)
(1.04976 0.00130016 0)
(1.0531 0.00485124 -1.40184e-23)
(1.05635 0.0107531 -2.77166e-24)
(1.05886 0.0194756 1.83721e-22)
(1.06006 0.0317849 -7.48146e-23)
(1.05951 0.0485564 1.58705e-22)
(1.05733 0.0724629 8.34039e-22)
(1.05081 0.114086 -9.96529e-22)
(1.06467 0.164156 6.11642e-22)
(1.0617 0.2317 1.31212e-21)
(1.07182 0.340626 6.34538e-22)
(1.05063 0.511551 -1.69872e-20)
(1.00946 0.740045 -2.71295e-21)
(0.669134 0.837239 -1.90549e-20)
(0.0930335 0.8074 2.13591e-20)
(-0.175236 0.641948 7.01577e-21)
(0.206381 0.367757 -3.73872e-21)
(0.923743 0.143128 -3.31328e-20)
(1.32924 0.0417441 4.96249e-24)
(1.28148 0.00117921 3.28732e-21)
(1.22913 -0.0278983 7.67468e-22)
(1.19205 -0.030173 -1.49398e-21)
(1.16278 -0.0267999 5.76707e-22)
(1.13907 -0.0244748 -1.14873e-22)
(1.1192 -0.0215163 -1.0665e-22)
(1.1032 -0.0190757 1.65279e-23)
(1.09076 -0.016841 2.80887e-23)
(1.08033 -0.0141688 0)
(1.07142 -0.0110048 0)
(1.0644 -0.00826038 0)
(1.05909 -0.00603032 0)
(1.05526 -0.0040761 0)
(1.05272 -0.00222778 0)
(1.05138 -0.000633757 -1.41452e-23)
(1.03929 -0.000181023 -1.168e-24)
(1.03981 -0.000457744 0)
(1.04082 -0.000727494 0)
(1.04229 -0.000864266 0)
(1.04406 -0.000912521 0)
(1.04579 -0.000858199 0)
(1.04667 -0.000367993 0)
(1.04679 0.00153722 0)
(1.04639 0.00528222 -1.52958e-23)
(1.04521 0.0106582 -2.1369e-24)
(1.04122 0.0182681 6.99581e-23)
(1.03258 0.0287495 -1.42169e-22)
(1.01803 0.04388 -1.44864e-22)
(0.994257 0.0687642 1.72805e-22)
(0.983924 0.121579 4.1733e-23)
(0.943649 0.180191 -1.54864e-22)
(0.897166 0.276801 -1.1889e-21)
(0.807332 0.392831 2.47662e-21)
(0.699953 0.57677 -3.11211e-21)
(0.471298 0.818252 1.20798e-20)
(0.198557 0.88059 4.12333e-21)
(0.197301 0.675127 1.92607e-21)
(0.604646 0.352344 5.73838e-21)
(1.2199 0.0538264 -2.37273e-20)
(1.39289 -0.0809545 -2.34034e-22)
(1.30285 -0.0824614 -2.33248e-22)
(1.22466 -0.0904541 -1.2959e-22)
(1.18421 -0.0743532 3.17829e-22)
(1.15412 -0.0606238 -1.97018e-22)
(1.13093 -0.0505862 6.32044e-23)
(1.11231 -0.04183 -5.31725e-23)
(1.09748 -0.0350121 1.41071e-23)
(1.08505 -0.0290157 0)
(1.07439 -0.0232294 0)
(1.06605 -0.0178103 0)
(1.05995 -0.013314 0)
(1.05539 -0.00959439 7.5126e-23)
(1.05211 -0.00640213 1.03894e-22)
(1.04999 -0.00359542 6.19532e-23)
(1.04887 -0.00111221 0)
(1.03945 -2.22256e-05 0)
(1.03998 -0.000421546 0)
(1.0409 -0.000808741 0)
(1.04229 -0.00118496 0)
(1.04401 -0.00162074 0)
(1.04552 -0.00219395 0)
(1.0456 -0.0029233 0)
(1.04428 -0.00333166 0)
(1.04226 -0.00322328 5.97597e-26)
(1.03922 -0.00309456 -5.10653e-24)
(1.03295 -0.0029173 1.36534e-24)
(1.02052 -0.00333135 -3.95445e-25)
(0.998011 -0.00155342 -1.81234e-22)
(0.960964 -0.00496903 2.19593e-23)
(0.927223 0.0366603 8.78122e-21)
(0.854628 0.0734153 -5.79963e-22)
(0.796356 0.138957 1.19017e-21)
(0.607984 0.233461 3.20576e-21)
(0.378547 0.416902 9.67996e-22)
(0.274994 0.547855 -2.26735e-21)
(0.358975 0.495759 -3.4654e-21)
(0.629552 0.244337 4.30621e-21)
(1.06459 -0.0794113 -7.37946e-21)
(1.42197 -0.258109 -8.12115e-22)
(1.36286 -0.241352 -3.77208e-22)
(1.27126 -0.18551 -2.03982e-21)
(1.19117 -0.150168 4.13645e-22)
(1.15639 -0.116862 -3.22492e-24)
(1.13206 -0.0919407 -4.10765e-24)
(1.1132 -0.0735135 -2.63898e-23)
(1.09813 -0.0586673 7.64028e-25)
(1.08561 -0.0472519 3.54758e-26)
(1.07453 -0.0377152 0)
(1.06504 -0.0295333 0)
(1.05816 -0.0224965 0)
(1.05349 -0.0167652 0)
(1.05004 -0.0120669 0)
(1.04754 -0.00810443 0)
(1.04592 -0.00462984 0)
(1.04513 -0.00147492 -1.11579e-23)
(1.03953 9.62631e-06 0)
(1.04025 -0.000194499 0)
(1.04134 -0.000516728 0)
(1.04289 -0.00106059 0)
(1.04487 -0.00185055 0)
(1.04675 -0.00303543 0)
(1.0472 -0.00487583 0)
(1.04609 -0.00746414 0)
(1.04477 -0.0109753 0)
(1.04299 -0.0163854 0)
(1.03879 -0.0243837 -3.53607e-24)
(1.02943 -0.0375587 -2.90808e-23)
(1.00942 -0.0522781 1.75396e-22)
(0.970373 -0.0837772 -1.99006e-22)
(0.910405 -0.073246 2.63477e-20)
(0.819726 -0.0775324 3.63506e-22)
(0.69701 -0.00826624 9.88173e-21)
(0.4664 0.0636633 1.0371e-21)
(0.32034 0.00841618 2.24978e-21)
(0.374917 -0.144258 9.2271e-21)
(0.630785 -0.341517 2.36627e-22)
(0.964127 -0.51467 1.57418e-20)
(1.26156 -0.578489 -4.62488e-21)
(1.35559 -0.489689 -1.62003e-21)
(1.22667 -0.340414 -1.77095e-21)
(1.18609 -0.255905 1.01435e-21)
(1.1287 -0.185919 -6.13029e-23)
(1.11009 -0.143912 1.09037e-22)
(1.09694 -0.111633 -5.14207e-23)
(1.08641 -0.0872071 5.13912e-24)
(1.07739 -0.0680123 0)
(1.06903 -0.0534275 0)
(1.06088 -0.0417953 0)
(1.05361 -0.0323912 0)
(1.04872 -0.0246539 0)
(1.04575 -0.0183828 0)
(1.04361 -0.0132162 0)
(1.04206 -0.00888195 0)
(1.04109 -0.00508258 0)
(1.04068 -0.00162758 0)
(1.03951 7.38564e-05 0)
(1.04043 0.000163692 0)
(1.04181 9.3376e-05 0)
(1.04378 -0.00029485 0)
(1.04634 -0.00108235 0)
(1.04913 -0.00246637 0)
(1.05095 -0.00488192 0)
(1.05167 -0.00889263 0)
(1.05323 -0.0149568 0)
(1.05591 -0.0241975 0)
(1.05849 -0.0379354 0)
(1.05957 -0.060091 2.17967e-24)
(1.05431 -0.0888844 3.61674e-24)
(1.0305 -0.139378 -3.14749e-23)
(0.959242 -0.176863 8.85652e-21)
(0.795215 -0.220419 -6.72518e-21)
(0.603287 -0.183792 7.22928e-21)
(0.581282 -0.261848 1.32611e-21)
(0.586404 -0.441829 1.63059e-22)
(0.666615 -0.647233 2.05504e-21)
(0.830563 -0.77944 -4.55263e-21)
(0.999661 -0.795687 3.12085e-21)
(1.10136 -0.687362 1.33419e-21)
(1.10607 -0.50901 -1.15637e-21)
(1.08267 -0.352543 1.19443e-21)
(1.08464 -0.27092 5.8583e-22)
(1.05556 -0.195597 -1.02841e-21)
(1.0553 -0.149183 -6.2657e-24)
(1.05468 -0.115587 -7.34403e-25)
(1.05418 -0.0891903 0)
(1.05259 -0.0687204 0)
(1.04979 -0.0531004 0)
(1.04571 -0.0409 0)
(1.04142 -0.0313854 0)
(1.03882 -0.0239085 0)
(1.03764 -0.017924 0)
(1.03686 -0.0129515 0)
(1.03631 -0.00874408 0)
(1.03603 -0.00504505 0)
(1.03603 -0.00162498 0)
(1.03922 0.000190231 0)
(1.04021 0.000674051 0)
(1.04189 0.00105594 0)
(1.04434 0.00119261 0)
(1.04764 0.000930741 0)
(1.05167 7.93275e-05 0)
(1.05561 -0.00186726 0)
(1.05937 -0.00580564 0)
(1.06512 -0.0122624 0)
(1.07391 -0.022079 0)
(1.08588 -0.0365689 2.70455e-23)
(1.10123 -0.0594686 0)
(1.1195 -0.0929945 0)
(1.12489 -0.140359 3.17053e-21)
(1.07955 -0.242901 -7.80978e-22)
(0.862534 -0.322961 1.44956e-20)
(0.736928 -0.453971 1.17118e-22)
(0.767285 -0.571312 5.60831e-22)
(0.783938 -0.636757 -1.21743e-22)
(0.800881 -0.653532 9.00584e-23)
(0.844842 -0.623897 -4.16387e-21)
(0.887232 -0.550074 -2.44392e-22)
(0.912932 -0.463321 3.19321e-22)
(0.935672 -0.392353 4.83567e-22)
(0.970272 -0.33265 -1.72851e-25)
(0.964739 -0.234802 -4.46199e-22)
(0.985227 -0.178489 1.59763e-21)
(1.00091 -0.135251 0)
(1.01281 -0.104297 0)
(1.02158 -0.0794879 2.31699e-23)
(1.02733 -0.0604897 0)
(1.03026 -0.045877 0)
(1.03069 -0.0345851 0)
(1.02996 -0.0261337 0)
(1.02989 -0.0199372 0)
(1.03038 -0.0151064 0)
(1.03074 -0.0110779 0)
(1.03095 -0.00761911 -1.23644e-23)
(1.03114 -0.00449734 -8.87036e-24)
(1.03139 -0.00154104 0)
(1.03838 0.000472992 0)
(1.03929 0.00146518 0)
(1.0411 0.00246733 0)
(1.0439 0.00336969 0)
(1.04782 0.00408868 0)
(1.05296 0.00450226 0)
(1.05899 0.00425257 0)
(1.06595 0.00238358 0)
(1.07571 -0.00159723 0)
(1.08982 -0.0079802 0)
(1.10984 -0.0174959 6.83211e-22)
(1.13735 -0.0314133 0)
(1.17675 -0.0546144 0)
(1.22094 -0.082607 8.05895e-22)
(1.23184 -0.150815 -2.32167e-20)
(1.11393 -0.288786 -9.10523e-22)
(0.995238 -0.454332 0)
(0.897213 -0.572526 -3.31086e-22)
(0.809527 -0.646366 7.11106e-21)
(0.737817 -0.652542 -1.10045e-20)
(0.707679 -0.621023 -1.73764e-21)
(0.716429 -0.532223 4.80588e-21)
(0.761467 -0.430005 -2.30143e-22)
(0.821321 -0.330639 0)
(0.858339 -0.243819 1.66182e-21)
(0.891771 -0.180487 2.73258e-21)
(0.926069 -0.136968 4.95876e-23)
(0.955004 -0.102382 0)
(0.977389 -0.0773276 0)
(0.993933 -0.0576399 -1.22455e-22)
(1.0058 -0.0428789 0)
(1.01362 -0.0316452 0)
(1.01824 -0.0231283 0)
(1.02107 -0.01717 0)
(1.02338 -0.0131852 0)
(1.0252 -0.0101439 2.23689e-23)
(1.02635 -0.00756338 -2.90681e-23)
(1.02698 -0.00529126 0)
(1.02732 -0.00316463 0)
(1.02753 -0.00108496 -6.83089e-23)
(1.03657 0.00078141 0)
(1.03744 0.00237493 0)
(1.03924 0.00405614 0)
(1.04209 0.00586088 0)
(1.04614 0.00784532 0)
(1.05164 0.0100006 0)
(1.05877 0.0122495 -1.0999e-23)
(1.06776 0.0139345 0)
(1.07986 0.0147108 0)
(1.0965 0.0149231 0)
(1.11978 0.0145777 0)
(1.15223 0.0155918 0)
(1.19879 0.0145894 0)
(1.26465 0.0189071 -3.48326e-22)
(1.3296 0.0121472 -4.78845e-23)
(1.28769 -0.0337791 5.20918e-24)
(1.17339 -0.140897 0)
(1.04367 -0.237678 0)
(0.904875 -0.334123 -1.66441e-20)
(0.774301 -0.347587 -1.56334e-19)
(0.669288 -0.366954 -1.29411e-20)
(0.617301 -0.339475 2.40319e-21)
(0.62797 -0.292541 0)
(0.679646 -0.229803 0)
(0.744036 -0.157467 0)
(0.817854 -0.10367 -1.59281e-24)
(0.882419 -0.0716042 5.86167e-22)
(0.920138 -0.0490809 3.30567e-23)
(0.952107 -0.0346823 0)
(0.975363 -0.0245269 0)
(0.991832 -0.0173363 0)
(1.00312 -0.0120216 0)
(1.01082 -0.00824755 9.81619e-23)
(1.01626 -0.0060517 4.02268e-23)
(1.02013 -0.004906 2.02658e-24)
(1.02261 -0.00402057 0)
(1.02408 -0.00314159 0)
(1.02489 -0.00223586 0)
(1.02527 -0.00133855 0)
(1.02546 -0.000353188 0)
(1.03397 0.00091023 0)
(1.03475 0.00309744 0)
(1.0363 0.00542907 0)
(1.03873 0.00816755 0)
(1.04224 0.0114213 0)
(1.04712 0.0153256 0)
(1.05389 0.0200406 0)
(1.06299 0.0253675 0)
(1.07498 0.0313112 -1.33233e-23)
(1.09059 0.0387376 0)
(1.11123 0.0484065 0)
(1.13948 0.0636787 0)
(1.17744 0.0850316 9.24047e-23)
(1.2349 0.119666 1.2409e-21)
(1.3102 0.169118 0)
(1.32413 0.213038 0)
(1.26337 0.208267 0)
(1.14776 0.198551 0)
(0.998103 0.144949 4.89376e-20)
(0.844235 0.14378 1.13021e-19)
(0.704725 0.097127 6.73648e-21)
(0.627875 0.0664281 -3.11249e-21)
(0.617374 0.0316058 0)
(0.642275 0.00758539 0)
(0.692253 -0.0022968 0)
(0.772108 0.00812759 0)
(0.849068 0.0242362 -1.30992e-20)
(0.904588 0.0244507 -2.31219e-21)
(0.944226 0.0212238 0)
(0.971054 0.0161866 -2.81315e-24)
(0.989154 0.0123288 -4.88652e-24)
(1.00147 0.00955286 -4.49453e-24)
(1.01015 0.00729443 0)
(1.01641 0.00518278 0)
(1.02051 0.00330604 0)
(1.02274 0.00193267 0)
(1.02391 0.00105002 0)
(1.02455 0.00055297 0)
(1.0249 0.000237854 0)
(1.0252 0.000114997 0)
(1.031 0.00112415 0)
(1.03137 0.00365522 0)
(1.03232 0.00649875 0)
(1.03396 0.00991098 0)
(1.03642 0.0140204 0)
(1.03997 0.0190991 0)
(1.04525 0.0254321 0)
(1.05273 0.0331479 0)
(1.06228 0.0427226 0)
(1.07373 0.0552178 0)
(1.08745 0.0719749 -1.58916e-23)
(1.10494 0.0955779 1.47351e-23)
(1.12548 0.129227 1.68741e-22)
(1.15287 0.177312 -8.99078e-22)
(1.1976 0.248335 0)
(1.22695 0.339484 0)
(1.20351 0.410159 0)
(1.12992 0.469789 0)
(1.01515 0.477604 4.2167e-20)
(0.889278 0.488676 -7.6331e-20)
(0.772067 0.450662 -4.03407e-21)
(0.715098 0.4019 1.72976e-20)
(0.708515 0.331962 0)
(0.723948 0.264634 0)
(0.743169 0.195236 0)
(0.788537 0.149752 0)