/*--------------------------------*- C++ -*----------------------------------*\
| =========                 |                                                 |
| \\      /  F ield         | OpenFOAM: The Open Source CFD Toolbox           |
|  \\    /   O peration     | Version:  v2106                                 |
|   \\  /    A nd           | Website:  www.openfoam.com                      |
|    \\/     M anipulation  |                                                 |
\*---------------------------------------------------------------------------*/
FoamFile
{
    version     2.0;
    format      ascii;
    arch        "LSB;label=32;scalar=64";
    class       volScalarField;
    location    "0";
    object      p;
}
// * * * * * * * * * * * * * * * * * * * * * * * * * * * * * * * * * * * * * //

dimensions      [0 2 -2 0 0 0 0];

internalField   nonuniform List<scalar> 
11644
(
-0.107262
-0.107392
-0.107511
-0.107615
-0.10759
-0.107339
-0.106753
-0.105644
-0.103812
-0.101284
-0.0979389
-0.0935787
-0.0883187
-0.0817737
-0.0739884
-0.0641622
-0.0525135
-0.0431714
-0.0316655
-0.0141472
0.00632279
0.0252769
0.0364658
0.0464529
0.0576604
0.0673262
0.0747138
0.0797554
0.0826539
0.0841982
0.0848085
0.0847662
0.0841811
0.0832424
0.0822344
0.0812764
0.0804448
0.0797522
0.0792306
0.079051
-0.107445
-0.107635
-0.107772
-0.107844
-0.10787
-0.10785
-0.10755
-0.106906
-0.105702
-0.103738
-0.100771
-0.0967147
-0.0912588
-0.0845034
-0.0763507
-0.0664158
-0.0571091
-0.0474379
-0.0299325
-0.00633817
0.00903777
0.020854
0.041618
0.0529612
0.063116
0.0709969
0.0769788
0.0811585
0.0838093
0.0850777
0.0852476
0.0847134
0.0838832
0.0828777
0.0818429
0.0808355
0.0799085
0.0791122
0.07864
0.078521
-0.106236
-0.106662
-0.107198
-0.107728
-0.108274
-0.108796
-0.109253
-0.109511
-0.109361
-0.108602
-0.106814
-0.103633
-0.0986002
-0.0918583
-0.0836628
-0.0740931
-0.0617428
-0.0430323
-0.0220792
-0.00858577
0.00640046
0.0119496
0.0399088
0.0563208
0.0690346
0.0775664
0.0829593
0.0860698
0.0875481
0.0877336
0.0871732
0.0861308
0.0848947
0.0835854
0.0822229
0.0809708
0.079866
0.0790552
0.0786097
0.0784517
-0.104862
-0.105195
-0.105945
-0.10704
-0.108385
-0.109855
-0.111425
-0.112983
-0.114377
-0.11523
-0.115182
-0.113241
-0.108741
-0.100581
-0.089771
-0.0766942
-0.0583426
-0.0359404
-0.0151841
-0.0101236
0.00699933
0.0197577
0.0368686
0.0558879
0.0704222
0.0808952
0.0882443
0.0919155
0.0927669
0.0918375
0.0901444
0.0881545
0.0860773
0.084056
0.0822278
0.0806847
0.0794872
0.0786619
0.0780572
0.0777517
-0.103358
-0.10381
-0.104723
-0.106243
-0.10828
-0.110746
-0.113584
-0.116734
-0.120071
-0.123404
-0.125539
-0.124702
-0.118767
-0.10919
-0.0939787
-0.0769443
-0.0577729
-0.0338146
-0.00676735
-0.00347149
0.0131056
0.0339653
0.045324
0.0541437
0.0681962
0.0795049
0.0866934
0.0920824
0.0944274
0.0940004
0.0916704
0.0886772
0.0858357
0.083285
0.0811256
0.0793306
0.0779234
0.0768456
0.0761512
0.075667
-0.100805
-0.101357
-0.102519
-0.104359
-0.10698
-0.110281
-0.114339
-0.119152
-0.124605
-0.129834
-0.133121
-0.132978
-0.12926
-0.11874
-0.101499
-0.0802692
-0.0596024
-0.0307134
-0.00126097
0.0140046
0.0314311
0.0334111
0.0451513
0.0425295
0.0559235
0.0651975
0.0755167
0.083495
0.0893621
0.0926024
0.0920211
0.0890585
0.0854774
0.0822618
0.0795324
0.0773494
0.0757251
0.0745691
0.0738203
0.0734514
-0.0962437
-0.0970732
-0.09859
-0.100752
-0.103551
-0.107341
-0.112159
-0.118172
-0.125134
-0.130278
-0.132252
-0.131562
-0.128508
-0.1247
-0.114314
-0.0956143
-0.0681833
-0.0433319
-0.0164309
8.98142e-05
0.0204847
0.0253639
0.0284083
0.0301078
0.0359705
0.0398384
0.0538325
0.0705614
0.0828596
0.0904128
0.0923315
0.0899856
0.0854242
0.0810505
0.0775782
0.0750388
0.0732668
0.0721888
0.0714589
0.0712194
-0.0906063
-0.0911689
-0.0926155
-0.094969
-0.0979921
-0.101969
-0.106967
-0.113334
-0.11952
-0.12248
-0.121135
-0.119555
-0.113625
-0.129785
-0.109987
-0.0994821
-0.0669639
-0.035169
-0.00417742
0.0232503
0.0265126
0.0203927
0.0122296
0.0173552
0.00195178
0.0234817
0.0454658
0.0670118
0.0795452
0.0873129
0.0898874
0.0887055
0.0843197
0.0793339
0.0755782
0.072711
0.0705364
0.0689381
0.0680976
0.067691
-0.0838784
-0.0844522
-0.0859468
-0.0878251
-0.0906599
-0.0940918
-0.0985154
-0.103881
-0.106951
-0.105923
-0.099429
-0.0885129
-0.0805441
-0.0945252
-0.0825848
-0.0575955
-0.0593125
-0.0138428
0.0173288
0.0321633
0.0230494
0.00943074
-0.00347766
-0.0183608
-0.0021987
0.0340609
0.0457799
0.0718824
0.0816796
0.0833083
0.084127
0.0830945
0.0797498
0.0750545
0.0710936
0.0681882
0.0662283
0.0648356
0.0640871
0.0636651
-0.075752
-0.0766639
-0.0782028
-0.0799896
-0.0820319
-0.0845693
-0.0877647
-0.0904405
-0.0904122
-0.0883169
-0.0829145
-0.0706601
-0.0643272
-0.0826989
-0.0525972
-0.0379477
-0.00634813
0.0374421
0.0578863
0.0802766
0.0417365
-0.00930644
-0.0345654
-0.0120425
0.00743328
0.033675
0.0336249
0.0728713
0.08026
0.0780217
0.0763472
0.0746233
0.0724065
0.0687708
0.0650437
0.0624997
0.0608859
0.0599309
0.0593733
0.0594336
-0.0691574
-0.0700569
-0.0711792
-0.0720052
-0.0726257
-0.073796
-0.075331
-0.0758342
-0.0746757
-0.0731275
-0.0731974
-0.071588
-0.0680282
-0.0507752
-0.0246854
-0.0373309
-0.0209355
0.0519027
0.15142
0.235364
0.0855546
-0.11573
-0.107715
-0.0435972
0.00221123
0.0396216
0.0669176
0.058786
0.0678515
0.0678496
0.0661646
0.0646541
0.0626346
0.060324
0.0580442
0.056494
0.0552625
0.054317
0.0527793
0.0528658
-0.062007
-0.0640524
-0.0635603
-0.0626434
-0.0624972
-0.0622441
-0.0627936
-0.0638637
-0.0643694
-0.0635127
-0.0627821
-0.063976
-0.0565244
-0.0262541
-0.0456199
-0.0355911
-0.035152
-0.0265556
0.119629
-0.248069
-0.0227796
0.0623798
0.0849208
0.0767833
0.075214
0.0567191
0.0521287
0.0508447
0.0494766
0.0479719
0.0472802
0.0466272
0.0466132
0.046654
0.0466973
0.0469889
0.0435128
-0.0529869
-0.0546143
-0.053071
-0.0524909
-0.0527765
-0.0531797
-0.0534751
-0.0560396
-0.059643
-0.0634128
-0.0644778
-0.0711083
-0.0802456
-0.0987651
-0.131392
-0.13654
-0.163896
-0.243118
-0.388595
0.128468
0.0879899
0.0939323
0.0781592
0.0743404
0.0520741
0.0356266
0.0320378
0.0271076
0.0281199
0.0306326
0.0338955
0.0365049
0.0376651
0.0385555
0.0390051
0.0399431
0.0377919
-0.0685117
-0.0485929
-0.0436209
-0.0415273
-0.0397867
-0.0401963
-0.0401546
-0.0442861
-0.0529968
-0.0635498
-0.0776856
-0.0479346
-0.0909161
-0.0965516
-0.107315
-0.158175
-0.220984
-0.351767
-0.397134
0.0935273
0.122265
0.1139
0.145555
0.0544798
0.0368141
-0.00204758
0.0154809
-0.00529083
0.0100702
0.0126038
0.0204138
0.0255447
0.0291317
0.0312618
0.0326089
0.03553
0.0517353
-0.0278675
-0.0367142
-0.0396692
-0.0295271
-0.0233116
-0.0288811
-0.0249669
-0.0198436
-0.0219149
-0.0534635
-0.0500132
-0.0808669
-0.0835591
-0.0719059
-0.0175689
-0.120298
-0.137494
-0.30207
0.357277
1.69323
0.271627
-1.47159
-0.341728
0.100763
0.0791503
0.0467899
0.0819949
0.0733197
0.0385782
0.0187025
-0.0126763
0.00383311
-0.000532872
0.0164058
0.0210546
0.0224345
0.0249623
0.0303723
0.0317657
0.0181759
0.00628373
-0.00515128
-0.0160263
-0.0236968
-0.0243919
-0.0234742
-0.015032
-0.0101584
-0.0143348
-0.0242124
-0.0206384
-0.0354052
-0.022458
-0.0548441
-0.0597703
0.16156
0.100082
0.0171635
0.187839
0.524255
-0.0913083
0.160225
-0.197163
-0.0392782
0.0368108
0.0398956
0.0406114
0.0331754
0.0482299
0.0165172
0.0032802
0.00414381
0.00734103
0.0124374
0.0231928
0.0273776
0.0264253
0.0190411
0.0119428
0.00496165
-0.0189657
-0.0274475
-0.019591
-0.018242
-0.00941666
0.00110149
0.00262074
0.00589536
0.00139619
0.00235017
0.00101753
0.0251934
0.0132533
0.112494
0.101278
0.441368
0.679284
0.2964
-1.37181
-1.67203
-0.233496
1.00214
1.02813
-0.35099
-0.0793168
0.0798668
0.00329375
0.0359279
0.0374806
0.0150001
0.0312369
0.0273453
0.0230582
0.00920287
0.0187745
0.0310118
0.0332857
0.0328429
0.0333515
0.0451054
-0.00138494
-0.00878355
0.0029414
0.0120461
0.0184565
0.019281
0.0208976
0.0121558
0.014865
0.0215933
0.0260488
-0.0123974
-0.0292422
0.0417689
0.184297
0.477282
0.978004
0.60566
-0.575927
0.460307
0.41405
1.07129
0.675724
-0.398431
0.0450767
0.132375
0.155294
0.078255
0.0899289
0.0676239
0.05056
0.0327388
0.0257133
0.0194231
0.0187868
0.0218709
0.0276656
0.0332237
0.035303
0.0267
0.0269747
0.0245495
0.0290413
0.0308835
0.0272277
0.0225015
0.0176306
0.021351
0.0116362
0.0178146
0.0415792
0.0227499
0.0784422
-0.285697
-0.0970685
0.0266839
0.144509
1.03107
1.15094
1.19006
0.53356
0.17627
-0.0773083
0.116866
0.417668
0.361075
0.132806
0.123887
0.19365
0.104964
0.0561191
0.048917
0.0309888
0.0288751
0.0232202
0.0137073
0.0126734
0.0176059
0.0171633
0.0126104
0.0411406
0.039745
0.0411785
0.037966
0.0292422
0.0285298
0.0232009
0.0221304
0.0176553
0.0177273
0.010471
-0.195194
0.0532626
-0.28668
-0.407419
-0.325869
-0.577985
-0.448222
-0.468194
0.523684
0.327128
0.281114
0.590059
1.01154
0.809775
0.526886
0.256332
-0.00669858
0.271769
0.090448
0.0595415
0.0492474
0.0331807
0.0261785
0.0169488
0.00774398
0.000934887
0.00122045
0.00367721
0.00376578
0.0496894
0.0504541
0.0494113
0.0474452
0.0418345
0.0382619
0.0343258
0.0290207
0.0235016
0.016652
-0.00302832
-0.0409272
-0.0955593
-0.358198
-0.206481
-0.242331
-0.695583
-0.258883
-0.680693
-0.742253
-0.44656
0.199813
0.357945
0.624617
0.42301
0.393499
0.0257595
0.184554
0.313153
0.0897757
0.054449
0.0345495
0.016183
0.0147682
0.00880034
0.00710804
4.99358e-06
-0.0041792
-0.00516448
-0.00227517
0.0553144
0.0581669
0.0559357
0.0516426
0.0485839
0.0431556
0.0391267
0.0348845
0.0269273
0.0181744
0.00227588
-0.0524559
-0.0692185
-0.252196
-0.0430233
-0.118226
-0.115251
0.584741
-0.183086
-1.40038
-0.225151
0.889026
1.2459
0.0774394
0.286487
0.0959363
0.103718
0.136673
0.129981
0.0583866
0.0348943
0.0203873
0.0130992
0.00917719
0.00401909
0.000703995
-0.00218555
-0.00501734
-0.00394999
-0.00384165
0.0657182
0.0637036
0.0604825
0.0581351
0.0570178
0.0677439
0.0551225
0.0470197
0.0186556
0.00918537
-0.00438135
-0.0233107
-0.0606219
-0.156958
-0.300442
0.686266
0.940519
1.16581
0.765838
-0.544145
1.05825
-1.61528
0.309019
0.216525
0.474365
0.638538
0.307506
-0.0336386
0.0205742
-0.013897
0.00325342
0.00876989
-0.00286571
-0.00601413
-0.0132069
-0.0101002
-0.0100623
-0.0113325
-0.0113495
-0.0118007
0.0723543
0.074724
0.0778322
0.0794378
0.0805057
0.0836691
0.0767869
0.073096
0.0519877
0.0436423
0.0317837
0.0263602
0.0201184
0.0480809
-0.0805948
-0.496249
-0.722592
-0.807626
-0.132261
-0.108705
-1.1681
-0.606392
0.812417
1.13999
0.864547
-0.02957
0.0369622
-0.0590666
-0.0374376
-0.0322213
-0.021751
-0.0110009
-0.0431064
-0.0357881
-0.034693
-0.029417
-0.0269634
-0.0260556
-0.0256764
-0.0262723
0.0841839
0.0904636
0.0900921
0.0910172
0.0924984
0.0878389
0.0941063
0.0962029
0.10373
0.108875
0.140598
0.0905414
0.0794689
-0.0766437
-0.47108
-0.44506
-0.962424
0.279192
-0.107042
-0.0947789
0.873433
0.383312
-0.314255
-0.468382
-0.578725
-0.391748
-0.0495185
-0.0961843
-0.110989
-0.110751
-0.0651491
-0.0511775
-0.0560171
-0.0460156
-0.0396144
-0.0365034
-0.0363718
-0.0353706
-0.0343115
-0.0251748
0.0881625
0.0924672
0.0945687
0.0969703
0.100486
0.10315
0.112807
0.119964
0.134607
0.155532
0.213414
0.00943528
0.0711047
-0.179443
-0.434372
-0.478006
-0.575038
0.353516
1.31483
1.55711
1.15676
0.497708
-1.33438
-0.96837
-0.357949
-0.370931
-0.181303
-0.235697
-0.203905
-0.134903
-0.105264
-0.0863813
-0.0558615
-0.0447845
-0.0395278
-0.0304134
-0.0273012
-0.0262692
-0.0245545
-0.0215468
0.0933345
0.0942156
0.0987506
0.102903
0.105745
0.114489
0.128465
0.117004
0.144849
0.0815058
0.0946207
-0.00580578
-0.0972539
0.0190819
-0.00667458
-0.197172
-0.429996
-0.786381
2.69363
2.61942
2.37511
3.65526
-2.93002
-1.80871
-0.715136
-0.578668
-0.255539
-0.270642
-0.228763
-0.151318
-0.109594
-0.07437
-0.0611722
-0.0472445
-0.0387262
-0.0325393
-0.0276094
-0.022708
-0.0200589
-0.0191778
0.0986735
0.0995393
0.101004
0.103554
0.105968
0.1105
0.114288
0.114934
0.111526
0.0745253
0.0460021
-0.0917561
-0.196621
-0.270077
-0.239584
-0.137144
-0.0212539
0.00319223
1.27071
1.34846
0.692622
1.30791
-0.508326
-0.458712
-0.219895
-0.271582
-0.336917
-0.203357
-0.11699
-0.0812809
-0.0737677
-0.0623536
-0.0557639
-0.046576
-0.0374964
-0.0339933
-0.0296906
-0.0248372
-0.0211786
-0.0192715
0.106608
0.103112
0.105184
0.107699
0.106014
0.109316
0.110482
0.112309
0.103432
0.104411
0.0532139
-0.0715013
-0.12434
-0.55553
-0.700339
-0.854806
-0.645893
-0.309181
-0.253531
-0.48889
0.554463
0.542995
0.197933
-0.0585478
-0.0871342
0.012239
-0.00525166
-0.111039
-0.0732932
-0.0643609
-0.0536238
-0.0472
-0.0537836
-0.040165
-0.0335258
-0.0311446
-0.0258004
-0.0235353
-0.0207398
-0.0173304
0.105187
0.104616
0.105105
0.106085
0.1063
0.106657
0.104006
0.108366
0.0948089
0.0795403
0.0528216
-0.128317
-0.192875
-0.28391
-0.49746
-0.70292
-1.15639
-1.03494
-0.701871
-0.219278
-0.514457
-0.109714
0.37141
0.453836
-0.209889
-0.168688
-0.14168
-0.0130979
0.0571172
-0.163111
-0.0806699
-0.0547736
-0.045288
-0.0275797
-0.0217611
-0.017969
-0.0144138
-0.0111695
-0.00836778
-0.00443461
0.102557
0.0988827
0.100067
0.101793
0.101425
0.104877
0.108516
0.112178
0.101104
0.0854269
0.0243808
-0.0489789
-0.169693
-0.368268
-0.286087
-0.303778
-0.560516
-0.483556
-0.872006
-0.830022
0.105339
0.172419
0.298799
0.149028
-0.148624
-0.214017
-0.188542
-0.0397058
-0.0585991
-0.104344
-0.0554651
-0.0318101
-0.022859
-0.00734023
-0.00215603
0.00156271
0.00539095
0.00787284
0.00777906
0.00809944
0.0996265
0.100427
0.100264
0.102439
0.105134
0.109314
0.119339
0.128693
0.118125
0.0942992
0.0456511
0.0168207
0.0295525
0.00789031
-0.116191
-0.292796
-0.215389
-0.164691
-0.889119
-0.973545
-0.132562
0.192069
0.17014
0.0845374
-0.181151
-0.141795
-0.205566
-0.205176
-0.160214
-0.112323
-0.048252
-0.00353325
0.00739659
0.00665365
0.0119672
0.0167224
0.0183414
0.0179017
0.0177827
0.0149365
0.110817
0.101482
0.10505
0.105439
0.109007
0.114103
0.122814
0.136033
0.148811
0.0827825
0.0722917
0.041392
-0.0421366
-0.064125
0.00558859
0.101917
0.297204
0.544574
-0.580181
-0.943884
-1.08881
-0.921587
-0.223634
-0.25656
-0.147855
-0.0985893
-0.0691981
-0.093889
-0.156883
-0.180008
0.0180322
0.0459114
0.0362576
0.0337406
0.0298044
0.0285809
0.0267428
0.0244038
0.0204768
0.0277962
0.100148
0.100948
0.101831
0.101407
0.0980972
0.0980403
0.102346
0.105437
0.0907705
0.0851756
0.0993777
0.0469895
0.114225
0.0183636
-0.0586706
0.0441351
0.08644
0.261964
0.0219635
0.137155
-1.21902
-1.18276
-0.559318
-0.348692
0.094764
-0.140756
0.0196011
-0.0168108
-0.00339471
-0.0589168
0.016141
0.0501426
0.0407789
0.0524225
0.0463772
0.0432144
0.0351215
0.0311399
0.0296168
0.0330374
0.0820905
0.0832589
0.0852109
0.0838264
0.0849903
0.0855556
0.0847562
0.0815447
0.0542007
0.021337
0.0225602
0.0980243
0.112727
0.112442
0.127376
0.027402
-0.11276
-0.245058
-0.162963
0.278355
-0.554812
-0.596967
-0.302027
-0.114659
0.14027
-0.0721472
0.084595
0.075557
0.0521222
0.0334045
0.0611665
0.059308
0.054956
0.0568244
0.0534338
0.0494577
0.0450207
0.0411908
0.03953
0.0407742
0.0777606
0.0688792
0.0680107
0.069698
0.0736612
0.0757867
0.072236
0.0673052
0.0561842
0.0488648
0.0618808
0.101821
0.126193
0.144245
0.150965
0.0868909
-0.648752
-0.81844
-0.671313
-0.558846
-0.68247
-0.436116
0.305045
0.107717
0.091319
-0.0297094
-0.0285258
0.0215534
0.058186
0.0824441
0.0575959
0.0613489
0.0699628
0.0711172
0.0620889
0.0587037
0.0574302
0.0568823
0.054797
0.0522533
0.0801064
0.0768636
0.0738937
0.0707226
0.0691242
0.0644652
0.0615691
0.0570848
0.0478169
0.0417399
0.0881198
0.0994131
0.0794874
0.0502902
0.159628
0.194547
0.0988192
0.0272915
-0.331802
-0.897685
-0.614157
-0.750973
-0.0786509
-0.181394
0.155281
0.192816
0.192195
0.0782444
0.0663058
0.123328
0.119508
0.0868107
0.0711692
0.0624277
0.0625141
0.061088
0.0595344
0.0595202
0.0580991
0.0527339
0.0761152
0.0813727
0.0802204
0.0766085
0.0680323
0.0662964
0.0566243
0.0468529
0.0499432
0.0615774
0.0807835
0.0867605
0.140748
0.143359
0.26203
0.474003
0.118272
0.308631
-0.172809
-0.129371
-0.130253
-0.0578743
0.307349
0.303457
0.0397214
0.282157
0.188336
0.17853
0.226719
0.190962
0.0745183
0.0688192
0.063145
0.0567532
0.0541969
0.0543687
0.0513117
0.0496751
0.0487782
0.052091
0.0583062
0.074414
0.0727075
0.0696125
0.0642829
0.0559148
0.0463474
0.0397634
0.0346163
0.0765056
0.134503
0.209423
0.285604
0.248949
0.205919
0.0344517
-0.0923813
0.0212574
-0.657137
-1.76643
2.27103
0.684571
0.562955
0.292372
0.293316
0.265018
0.267983
0.247227
0.229106
0.149781
0.0779325
0.0503924
0.0420438
0.0500087
0.0549955
0.0552315
0.0550314
0.0540215
0.0576574
0.0545179
0.0606472
0.055425
0.0526611
0.0491083
0.0507447
0.0461573
0.0391687
0.0552178
0.0788218
0.10982
0.13781
0.208838
0.342862
0.368424
0.424907
0.172646
-0.0679045
-0.230811
-0.478125
-0.682315
0.990142
0.805209
0.516596
0.563987
0.195612
-0.00788738
0.218557
0.179727
0.145401
-0.00116741
0.00465573
0.0379879
0.0533208
0.0603974
0.0670669
0.0673234
0.0698046
0.0748805
0.075142
0.0738585
0.0718167
0.0550031
0.0515735
0.0507252
0.0541795
0.0572721
0.068373
0.0757942
0.0861077
0.139944
0.192734
0.242612
0.34183
0.496282
0.676431
0.673515
0.601305
0.426469
0.389668
0.0466444
-0.202696
-0.208225
-0.401963
-0.391078
-0.317609
-0.251709
-0.109577
0.100251
0.0355947
0.0305977
0.0603612
0.0601811
0.0681278
0.066364
0.0723483
0.0784403
0.0809608
0.0827723
0.0814844
0.0767956
0.0824284
0.0804652
0.0804248
0.0777855
0.0797797
0.0807418
0.0858339
0.0917732
0.11157
0.166455
0.225131
0.243679
0.317397
0.384986
0.590115
0.811607
0.811125
0.98155
0.548994
-0.276323
-0.687122
-1.02953
-1.02448
-1.05756
-0.714141
-0.484974
-0.212375
0.0129932
0.103463
0.0936916
0.0904618
0.0981734
0.0841841
0.0676234
0.0707029
0.0726731
0.0714228
0.0710017
0.0699769
0.0698395
0.088981
0.0990946
0.102274
0.101562
0.101733
0.097501
0.105003
0.114411
0.124459
0.183216
0.247777
0.265392
0.35937
0.388198
0.412748
0.453001
0.420466
0.144244
0.0140376
-0.103224
-0.587545
-0.43397
-0.53671
-0.495271
-0.358343
-0.170973
-0.0494276
0.00744995
0.0832917
0.102657
0.095981
0.0901028
0.0739641
0.0690576
0.0698572
0.0696036
0.0669611
0.0682594
0.0719026
0.0780455
0.0747214
0.0752121
0.0823365
0.0869051
0.0914397
0.0977593
0.110651
0.124284
0.109899
0.177621
0.251668
0.285399
0.412383
0.48951
0.433863
0.278017
-0.00652268
-0.269936
-0.508446
-0.447111
0.345507
0.531665
0.392393
0.380515
0.276206
0.185987
0.0918251
0.0808622
0.109757
0.118368
0.107931
0.099192
0.0793414
0.0815215
0.0875819
0.0894757
0.08937
0.0906934
0.0918215
0.092387
0.058474
0.048406
0.0486636
0.0563104
0.0676682
0.0830364
0.104831
0.132937
0.140082
0.255121
0.3263
0.325041
0.395448
0.512492
0.616459
0.59487
0.418699
0.223271
0.0501698
-0.238283
0.185417
0.0777965
0.31419
0.206087
0.0724693
0.0422358
0.0536661
0.118511
0.137596
0.0768838
0.102125
0.090294
0.106214
0.109566
0.112042
0.117597
0.113403
0.115921
0.111181
0.104677
0.0651548
0.0620933
0.0589731
0.0630662
0.0714034
0.086535
0.114158
0.154834
0.141894
0.208676
0.25487
0.269511
0.367138
0.566451
0.862788
1.10085
0.990571
1.10008
0.742061
0.493188
-0.816875
-1.0385
-0.662197
-0.602148
-0.265461
-0.158887
0.00900985
0.12338
0.10567
0.150122
0.147327
0.10069
0.118465
0.126733
0.119954
0.118029
0.111964
0.10867
0.104235
0.0989617
0.0729224
0.0839758
0.0864431
0.0946438
0.0957323
0.0975381
0.106235
0.120978
0.139947
0.223058
0.11924
0.141337
0.189637
0.260032
0.389216
0.504185
0.603677
0.638261
0.329802
0.123974
-0.578873
-0.739666
-0.235401
-0.143823
0.165209
0.178596
0.277821
0.170117
0.207838
0.189474
0.166407
0.123837
0.152325
0.123757
0.106321
0.0962023
0.0824196
0.0834652
0.0838966
0.085502
0.0582525
0.0673383
0.0751557
0.0800288
0.0824229
0.0824171
0.0831883
0.0880278
0.092419
0.0969561
0.0401643
0.0402823
0.0459207
-0.11285
-0.302214
-0.458859
-0.548613
-0.582598
-0.601023
-0.359115
0.082566
0.307499
0.556597
0.641892
0.7435
0.595647
0.422653
0.272652
0.244399
0.23529
0.193783
0.152707
0.143697
0.122853
0.102574
0.0952115
0.0845463
0.0811138
0.0835788
0.0879975
0.0299344
0.0247393
0.0246023
0.026479
0.0295043
0.034813
0.041203
0.0496329
0.0397574
0.0449811
-0.00192974
-0.0271646
-0.0798559
-0.178074
-0.321252
-0.416385
-0.447715
-0.414851
-0.671443
-0.0654986
-0.421677
0.202239
0.345123
0.381529
0.679494
0.44999
0.29476
0.24125
0.232399
0.172147
0.188885
0.154626
0.145061
0.128722
0.123152
0.117714
0.114347
0.112815
0.110993
0.106323
0.0238215
0.00944144
0.00283588
-3.06708e-05
0.00035047
0.00271956
0.0102636
0.0126112
0.00902687
-0.0156726
-0.0176183
-0.0615719
-0.00778378
0.164029
0.363177
0.465306
0.536272
0.56895
0.553694
0.436977
-0.502064
-0.525453
-0.35798
-0.307244
-0.112737
0.0178143
0.128414
0.246826
0.232108
0.172773
0.163199
0.131267
0.131751
0.128816
0.126531
0.121937
0.12294
0.122902
0.117935
0.102407
0.0233327
0.0259948
0.0245699
0.0239984
0.0195743
0.0130587
0.00456541
0.00623715
-0.0106226
-0.046543
-0.0864269
-0.114541
-0.12467
-0.0410784
0.124896
0.316391
0.405565
0.532259
0.453452
0.330528
-0.0861441
-0.107158
-0.148616
-0.117283
-0.0323909
0.179257
0.275182
0.29304
0.21055
0.178789
0.15446
0.11484
0.103625
0.0947029
0.0907548
0.0877522
0.0830487
0.0796193
0.0764615
0.0790987
0.0244316
0.036761
0.0380452
0.0409111
0.0292416
0.0126388
-0.010317
-0.0340656
-0.0443905
-0.0824727
-0.151827
-0.268981
-0.453417
-0.645725
-0.801887
-0.878251
-1.11846
-1.0624
-1.06685
-1.05278
1.01818
0.965865
0.981819
0.958998
0.66045
0.595121
0.466346
0.340027
0.247002
0.203124
0.117326
0.0921962
0.0689259
0.0599472
0.0561723
0.0507682
0.0444956
0.047802
0.0519669
0.0686869
0.0101713
0.00616649
0.00567558
0.00354475
-0.00595183
-0.0229602
-0.052313
-0.0794828
-0.109906
-0.129189
-0.255387
-0.330048
-0.484196
-0.814426
-0.995743
-1.35559
-1.61994
-1.67828
-1.42021
-0.88576
0.372793
0.901228
1.15745
1.17648
0.976561
0.748563
0.437962
0.280489
0.182903
0.148927
0.0486032
0.0821042
0.0736962
0.0674107
0.067666
0.0663743
0.0682111
0.069481
0.0727534
0.0829234
-0.0133642
-0.0321974
-0.0398243
-0.044692
-0.047784
-0.0518815
-0.0579253
-0.0983403
-0.119258
-0.174505
-0.226221
-0.265754
-0.248093
-0.244242
-0.321249
-0.379203
-0.306774
-0.411148
-0.269558
-0.103838
-0.507992
-0.355183
-0.217857
-0.188787
-0.083886
-0.0974331
-0.0448376
0.0236224
0.0691585
0.0750821
0.0623985
0.0778922
0.0777242
0.0836867
0.0911702
0.0933462
0.0962982
0.0965631
0.0910641
0.0779503
-0.00454061
-0.016149
-0.0211277
-0.0277074
-0.0312477
-0.0374477
-0.0347671
-0.068555
-0.0976514
-0.137067
-0.179083
-0.26857
-0.311117
-0.204803
-0.0822561
0.171557
0.361862
0.586056
0.48044
-0.0480697
-0.793336
-1.07048
-1.02967
-0.893167
-0.686568
-0.474727
-0.28617
-0.117261
-0.00522456
0.0367117
0.0480711
0.0408653
0.0633923
0.060815
0.0661402
0.0663756
0.0695367
0.0690417
0.0642619
0.0536727
0.0239451
0.0394847
0.0416705
0.03783
0.0249448
0.0090582
-0.0101777
-0.03775
-0.083689
-0.147105
-0.19088
-0.316307
-0.487114
-0.686815
-0.734878
-0.729871
-0.743759
-0.622549
-0.510182
-0.571434
-0.0121512
0.0899851
0.171439
0.353517
0.373284
0.389536
0.198987
0.119529
0.0672079
0.033468
0.0132913
0.0134894
0.0153791
0.0155998
0.0206896
0.0168102
0.0163459
0.0187269
0.0243834
0.0344657
0.0218107
0.0416203
0.0473052
0.0447278
0.0336535
0.0192939
-0.00159807
-0.0321519
-0.0931305
-0.159137
-0.235637
-0.324956
-0.519217
-0.828799
-1.13755
-1.43218
-1.59737
-1.60903
-1.15836
-0.440987
0.460111
1.00846
1.3065
1.35566
1.21408
0.949652
0.633022
0.350116
0.151874
0.0719197
0.045398
0.0219948
0.0221327
0.0181642
0.0149733
0.0129565
0.0116045
0.0146526
0.0201299
0.0312956
-0.00315954
-0.0110847
-0.0133835
-0.015344
-0.0158754
-0.018687
-0.0255145
-0.0329528
-0.064346
-0.0853721
-0.120923
-0.164866
-0.207906
-0.249325
-0.313257
-0.428422
-0.434951
-0.486618
-0.293087
0.0451586
-0.0763497
0.119563
0.214596
0.420824
0.292521
0.195349
0.055352
0.0177573
0.0226759
0.0160437
0.00757926
0.0225251
0.0476683
0.0446271
0.0433558
0.0478765
0.0476303
0.047432
0.0452831
0.0403371
0.0021663
-0.0187313
-0.0283159
-0.0318547
-0.0302652
-0.0218961
-0.021141
0.00315443
0.0297832
0.00923486
0.0488393
0.0185417
0.168542
0.367233
0.59788
0.765567
0.972266
0.92572
0.946311
-0.139074
-0.818154
-1.14785
-1.22466
-1.08398
-0.951651
-0.753079
-0.54672
-0.349845
-0.172277
-0.0721766
-0.044623
0.00287724
0.0200505
0.0276169
0.0324717
0.0455971
0.0550967
0.0583966
0.0554818
0.0351302
0.0424615
0.0422207
0.0415556
0.0411343
0.0385455
0.0457985
0.0500084
0.0564397
0.0657785
0.0697259
0.028814
0.0505632
0.0683776
0.0810493
0.12333
0.118293
0.178673
0.0199993
-0.180014
-0.376842
-0.412686
-0.63538
-0.771532
-0.56002
-0.441705
-0.273158
-0.164178
-0.105365
-0.0858073
-0.0633312
-0.0689651
-0.03009
-0.0286582
-0.0137443
-0.00233897
-0.00119812
0.00522075
0.0112826
0.0148626
0.0172558
0.0617303
0.0829051
0.0938051
0.0995629
0.0978019
0.0951298
0.0898598
0.0829243
0.0772444
0.0438686
0.0133011
-0.087108
-0.304824
-0.59004
-0.8897
-1.19802
-1.33487
-1.42021
-1.1625
-0.640498
-0.0450677
0.390159
0.632935
0.81969
0.701405
0.516956
0.360684
0.209042
0.0704888
0.00713034
-0.00753917
-0.0203023
-0.0221999
-0.0222623
-0.0156667
-0.0212587
-0.0240076
-0.0223051
-0.0148185
0.0066583
0.0461001
0.0558616
0.0595199
0.0614893
0.0618804
0.0613009
0.0690269
0.0635871
0.056789
0.0509638
0.0369635
-0.0156825
-0.113846
-0.228021
-0.379772
-0.623665
-0.751203
-0.790203
-0.734189
-0.212855
-0.145773
0.110005
0.373378
0.432688
0.348103
0.191844
0.0612385
0.0340862
0.0164899
-0.00871089
0.0175091
0.0229617
0.0189996
0.0167453
0.0185309
0.0196512
0.0204823
0.0234433
0.0242265
0.0280617
0.0304537
0.0121833
0.00584555
0.00550439
0.0167923
0.029935
0.0404442
0.0591572
0.0919073
0.137534
0.203322
0.362326
0.595776
0.841662
1.05158
1.17132
1.15035
1.07467
0.773655
0.289259
-0.329039
-0.832102
-1.14568
-1.15883
-1.04096
-0.831177
-0.611213
-0.367291
-0.165346
-0.0526382
0.00185676
0.0328078
0.0403707
0.0502257
0.0598324
0.0670149
0.0743302
0.0759753
0.0694436
0.0483589
0.0390936
0.0241129
0.0246217
0.0323781
0.0477868
0.0658592
0.0875529
0.127932
0.163972
0.215059
0.288787
0.431634
0.616796
0.793995
0.981294
1.11246
1.18826
0.981097
0.621757
0.0817018
-0.261352
-0.700276
-1.01268
-1.0798
-0.915336
-0.745697
-0.504781
-0.30196
-0.142142
-0.0625489
-0.0213203
0.00146794
0.0137573
0.0284332
0.0387972
0.0445817
0.0482635
0.0502424
0.0466805
0.0334388
0.0685415
0.0841815
0.0934684
0.0988937
0.103394
0.112783
0.125077
0.142644
0.165084
0.176953
0.162276
0.044741
-0.099372
-0.26713
-0.433721
-0.603475
-0.736122
-0.858347
-0.823385
-0.459564
-0.183069
0.235618
0.405513
0.513849
0.465668
0.392918
0.285246
0.169606
0.0815936
0.0175964
0.0353884
0.0272532
-0.00879921
-0.00914383
-0.0131341
-0.0113575
-0.0143002
-0.0112395
-0.00306027
0.0133595
0.0640476
0.0874768
0.093758
0.0942866
0.0908623
0.0885755
0.0864343
0.0674053
0.0856448
0.0631255
0.0257736
-0.0713614
-0.277317
-0.533121
-0.810427
-1.09594
-1.31754
-1.33628
-1.12851
-0.610903
-0.240211
0.247308
0.633355
0.833113
0.691651
0.616431
0.472687
0.332573
0.202339
0.120581
0.0888905
0.0599738
0.038694
0.022838
0.0119188
0.00312593
-0.00290151
-0.00440492
0.00201044
0.0231007
0.0210327
0.00979257
0.00675595
0.00981677
0.0142299
0.0187066
0.0251385
0.0310224
0.0331086
0.0679128
0.109959
0.219943
0.311819
0.392488
0.436887
0.461057
0.405625
0.256079
0.0148549
-0.265997
-0.50643
-0.637284
-0.711967
-0.762415
-0.767208
-0.551394
-0.322998
-0.145393
-0.0250134
0.0768804
0.0922522
0.0948789
0.0932851
0.0833904
0.0812978
0.0752671
0.0701752
0.0662681
0.0592692
0.049695
0.00242534
-0.0242295
-0.0306566
-0.025188
-0.0132467
0.0040423
0.0155922
0.0425965
0.0764511
0.124128
0.184984
0.358324
0.577922
0.805523
1.04216
1.2665
1.39458
1.2412
0.689151
-0.0225509
-0.54963
-1.0073
-1.31166
-1.36345
-1.18906
-0.969066
-0.698478
-0.428392
-0.176953
-0.0217406
0.0141685
0.059799
0.0781892
0.0843858
0.089803
0.0895791
0.0918146
0.0901797
0.0809813
0.0612995
0.0286563
0.0319119
0.0355354
0.0390074
0.0422919
0.0485947
0.0566145
0.0725252
0.0870677
0.0949077
0.0966731
0.058079
0.0352003
-0.00256611
-0.0358937
-0.0837845
-0.144512
-0.163094
-0.142174
-0.102428
-0.00519267
0.0836346
0.173938
0.235403
0.308914
0.249803
0.174404
0.112433
0.0626554
0.016921
0.0157279
0.0279542
0.0283834
0.0308821
0.0326609
0.0310668
0.0311473
0.0325119
0.0353295
0.0349589
0.0354002
0.062534
0.0736252
0.074305
0.0675465
0.0628926
0.0486397
0.0342736
0.00991272
-0.038868
-0.0901577
-0.2528
-0.489778
-0.730689
-0.953251
-1.11238
-1.4373
-1.1926
-0.678349
-0.125512
0.388425
0.876057
1.26365
1.35571
1.22395
1.06932
0.839261
0.594901
0.342013
0.176388
0.12059
0.0679663
0.0360983
0.0207483
0.00853484
-0.000746208
-0.00950129
-0.0137351
-0.00833006
0.0124196
-0.00647031
-0.00200575
-0.000481015
-0.00376214
-0.00976951
-0.0175141
-0.0308066
-0.0578794
-0.0660523
-0.0979021
-0.129395
-0.118039
-0.137073
-0.124084
-0.11008
-0.09675
-0.182034
-0.187102
-0.118815
0.0668533
0.219785
0.284153
0.30168
0.198039
0.123925
0.137407
0.129681
0.135386
0.113875
0.126348
0.114403
0.0786894
0.0699563
0.0557919
0.0457674
0.0379639
0.0314423
0.0258501
0.0239343
0.0260986
-0.0431944
-0.0721601
-0.0850619
-0.0904704
-0.0856352
-0.0887291
-0.0845412
-0.0823002
-0.0618339
-0.0248675
0.0420028
0.206082
0.476456
0.740941
0.984636
1.20537
1.27023
1.05956
0.630682
0.214716
-0.202851
-0.608604
-1.04146
-1.23928
-1.09312
-0.93649
-0.703092
-0.491538
-0.251671
-0.0828801
-0.0150925
0.0254108
0.0516032
0.065252
0.0691144
0.0715362
0.0768839
0.0776737
0.0707741
0.0497763
-0.0344231
-0.0508668
-0.0582287
-0.0592774
-0.054406
-0.0510947
-0.0374237
-0.025465
-0.00440917
0.0302702
0.0761384
0.144125
0.218262
0.2813
0.347224
0.400858
0.403481
0.414689
0.188282
0.0474025
-0.17991
-0.378875
-0.51603
-0.54768
-0.399261
-0.377911
-0.299762
-0.230686
-0.147656
-0.116547
-0.0668073
-0.0230191
-0.000946286
0.014714
0.0277327
0.0379087
0.0392231
0.0384351
0.0341807
0.0306107
-0.00662304
0.0159659
0.0243244
0.0247695
0.0201942
0.0127838
0.00294568
0.00305723
-0.0191682
-0.0620331
-0.122948
-0.281691
-0.535398
-0.762963
-0.945637
-1.08877
-1.09787
-0.906328
-0.517579
-0.191815
0.12732
0.426164
0.831668
0.978104
0.886704
0.709909
0.528339
0.353367
0.158411
0.0409982
0.0143561
-0.00913637
-0.0258657
-0.0205628
-0.0208875
-0.0245074
-0.0274938