/*--------------------------------*- C++ -*----------------------------------*\
| =========                 |                                                 |
| \\      /  F ield         | OpenFOAM: The Open Source CFD Toolbox           |
|  \\    /   O peration     | Version:  v2106                                 |
|   \\  /    A nd           | Website:  www.openfoam.com                      |
|    \\/     M anipulation  |                                                 |
\*---------------------------------------------------------------------------*/
FoamFile
{
    version     2.0;
    format      ascii;
    arch        "LSB;label=32;scalar=64";
    class       volVectorField;
    location    "0";
    object      U;
}
// * * * * * * * * * * * * * * * * * * * * * * * * * * * * * * * * * * * * * //

dimensions      [0 1 -1 0 0 0 0];

internalField   nonuniform List<vector> 
11644
(
(-0.000605089 -0.000200053 -1.56999e-20)
(-0.000664014 -0.000429886 -4.32956e-20)
(-0.000605482 -0.000601019 -2.32292e-20)
(-0.000365828 -0.000753031 0)
(-0.00038915 -0.00109101 0)
(-0.000528343 -0.00139742 0)
(-0.00066984 -0.00161257 0)
(-0.000677801 -0.00168214 0)
(-0.000785887 -0.00150315 0)
(-0.000950671 -0.0010323 0)
(-0.00118157 -0.000169754 0)
(-0.0012671 0.00110952 0)
(-0.0012155 0.00281184 0)
(-0.0026749 0.00470507 0)
(-0.00259795 0.00654422 0)
(-0.00212201 0.00821632 0)
(-0.00160402 0.008687 0)
(-0.000580144 0.00719619 0)
(-0.00132115 0.00559249 0)
(-0.00325914 0.00528407 -3.42736e-30)
(-0.0036684 0.0049326 3.35484e-30)
(-0.00206833 0.00366385 0)
(-0.00110828 0.00219563 0)
(-0.00130165 0.00168266 0)
(-0.00115005 0.00126156 0)
(-0.00157562 0.000986709 0)
(-0.00158855 0.00190356 0)
(-0.000773126 0.00265028 0)
(-0.00104976 0.00335181 0)
(-0.000755137 0.00386534 0)
(-0.00055172 0.00400811 0)
(-0.000393617 0.00396564 0)
(-0.000398778 0.00372914 0)
(-0.000409483 0.00334634 0)
(-0.000408571 0.00287486 0)
(-0.000377011 0.0023977 0)
(-0.000392253 0.00189891 0)
(-0.000191388 0.00140632 0)
(-0.000122817 0.000923405 0)
(-0.000293794 0.000349834 -3.04404e-21)
(-0.000353427 -0.000193588 -2.01664e-20)
(-0.000194629 -0.000578979 -1.86805e-20)
(-0.000100329 -0.000928709 -1.00327e-20)
(5.06016e-05 -0.00128214 0)
(4.33881e-05 -0.00155673 0)
(0.000199921 -0.00191146 0)
(0.000357765 -0.00224616 0)
(0.000301322 -0.00246954 0)
(0.000207665 -0.00239952 0)
(0.000214456 -0.00189056 0)
(-0.000301452 -0.000925529 0)
(-0.000984125 0.00105241 0)
(-0.00181776 0.00332701 0)
(-0.0011196 0.00667651 0)
(-0.00211104 0.00973088 0)
(-0.00248424 0.0116135 7.44706e-22)
(-0.00146946 0.0119123 -1.06386e-20)
(-0.00265205 0.0126326 1.69276e-20)
(-0.00532496 0.0125595 -5.26283e-20)
(-0.00479181 0.0096386 -1.03247e-20)
(-0.00298898 0.004694 3.45561e-20)
(-0.000845886 0.00136417 -1.14944e-21)
(-0.000662182 0.000163389 1.31452e-20)
(-0.00206068 5.22679e-05 1.05962e-20)
(-0.00211905 0.000653889 -7.00954e-22)
(-0.000288761 0.00184163 0)
(0.000155275 0.00301926 0)
(-0.00043396 0.00447827 0)
(0.000742027 0.00548039 0)
(0.00104284 0.00598199 0)
(0.00100976 0.00620558 0)
(0.00104552 0.00603636 0)
(0.00110998 0.00557897 0)
(0.00103357 0.00497973 0)
(0.000943215 0.00426134 0)
(0.000971239 0.00348223 0)
(0.000906075 0.00263444 0)
(0.00101756 0.00185819 0)
(0.000883624 0.00119789 0)
(0.000669366 0.00040092 0)
(-0.00113765 -5.27886e-05 0)
(-0.000757919 -0.000149977 0)
(-0.000241963 -0.000714113 0)
(6.26184e-05 -0.00118334 0)
(0.000214612 -0.00162657 -1.84216e-20)
(0.000534537 -0.00209461 0)
(0.00090284 -0.0026248 0)
(0.00142784 -0.0030127 0)
(0.00177015 -0.00332587 0)
(0.00185925 -0.0033303 0)
(0.00184954 -0.00252335 0)
(0.000525897 -0.00139158 0)
(-0.00087707 0.000992801 -8.81362e-22)
(-0.00452329 0.0040365 -6.74165e-21)
(-0.00528024 0.00807921 -3.49902e-20)
(-0.00344987 0.011183 -6.67762e-21)
(-0.00575572 0.0146662 2.20842e-19)
(-0.00683359 0.0169996 -2.64623e-19)
(-0.00552012 0.014007 -3.90791e-20)
(-0.00203755 0.00828074 8.1579e-19)
(0.00021587 0.00320591 -7.24997e-19)
(0.00103371 -0.000397652 2.50722e-20)
(8.79228e-05 -0.00261907 1.83417e-19)
(-0.00163329 -0.00339952 -3.21492e-19)
(-0.00192288 -0.00249252 9.79084e-20)
(-0.00127924 0.000442453 4.97419e-20)
(1.7705e-05 0.00302947 5.59655e-21)
(0.0024464 0.00486674 6.46017e-22)
(0.00266577 0.00640133 0)
(0.00328464 0.00696946 0)
(0.00376106 0.00673845 0)
(0.00369753 0.0062549 0)
(0.0035264 0.0054718 0)
(0.0031035 0.00456076 0)
(0.0028204 0.00360973 0)
(0.00226 0.0027638 0)
(0.00188766 0.00204181 0)
(0.00143907 0.00143779 0)
(0.00113552 0.000676844 0)
(0.000755128 0.00030452 0)
(-0.00161001 0.000329565 0)
(-0.00146213 0.000122051 0)
(-0.000951455 -8.2229e-05 0)
(-0.000468181 -0.000500801 0)
(0.000336257 -0.00104104 0)
(0.00111152 -0.00176768 0)
(0.00206686 -0.00263709 0)
(0.00287193 -0.00374384 0)
(0.00386543 -0.00473402 0)
(0.0044296 -0.00558003 0)
(0.00389089 -0.00663665 -1.09551e-21)
(0.00329411 -0.00601176 2.92733e-20)
(0.00128523 -0.00531082 -3.69718e-20)
(0.000568936 -0.00178795 -6.48485e-20)
(-0.00122014 0.00443616 1.34396e-19)
(-0.00568432 0.00997192 -5.51906e-19)
(-0.00734805 0.0153684 6.85824e-19)
(-0.00647644 0.0156239 1.79449e-19)
(-0.00495835 0.0118861 -6.57529e-19)
(-0.00244236 0.00693934 2.9944e-19)
(-0.00126033 0.000994676 -5.74934e-20)
(-0.00172776 -0.00320382 -7.07712e-20)
(-0.00176088 -0.00502281 3.71912e-19)
(-0.00143784 -0.0045399 -3.31231e-20)
(-0.00111866 -0.00381494 -1.42431e-19)
(0.001398 -0.000115072 -1.4464e-19)
(0.00503831 0.00380434 7.80411e-20)
(0.00596459 0.00635451 -3.56203e-21)
(0.00788202 0.00711946 -1.52763e-20)
(0.00789096 0.00757123 8.13597e-22)
(0.00710865 0.00740446 0)
(0.00641961 0.00651622 0)
(0.005505 0.00560891 0)
(0.0044218 0.00473341 0)
(0.00339949 0.00405819 0)
(0.00250455 0.00337125 0)
(0.00179811 0.0027269 0)
(0.00149798 0.0017989 0)
(0.0012015 0.000966975 0)
(0.00108018 3.16258e-05 0)
(-0.00207541 -0.000301028 0)
(-0.00194304 -0.00077958 0)
(-0.00197677 -0.00108141 0)
(-0.00143318 -0.00156598 0)
(-0.000554046 -0.00178624 0)
(0.000754567 -0.00228859 0)
(0.00230535 -0.00304757 0)
(0.00407648 -0.00416886 0)
(0.0055047 -0.00592642 0)
(0.00666208 -0.00821407 3.54072e-21)
(0.00763684 -0.0104811 9.13627e-22)
(0.00715689 -0.0129783 -1.57215e-19)
(0.00752413 -0.0111002 -8.45514e-20)
(0.00252726 -0.00736122 -2.21586e-19)
(-0.00457236 0.000135854 6.75992e-19)
(-0.00394147 0.00864747 -6.32413e-19)
(-0.00554522 0.0125193 8.25333e-19)
(-0.00974952 0.0106143 -1.17318e-19)
(-0.00987636 0.00702282 -1.42306e-18)
(-0.00970095 0.00518305 4.56853e-19)
(-0.0102944 0.0015324 9.26689e-19)
(-0.0110881 -0.00165739 7.49576e-20)
(-0.0080571 -0.00392086 1.58062e-19)
(-0.00554571 -0.00636327 -1.1088e-18)
(-0.00161417 -0.00349557 7.53608e-19)
(5.65415e-05 0.00262197 -5.02723e-19)
(0.00259278 0.00691258 1.96307e-19)
(0.00893214 0.00889085 2.49341e-19)
(0.0106937 0.00962913 -5.30931e-20)
(0.0118644 0.00873301 -1.9113e-20)
(0.0109533 0.0080212 1.06907e-21)
(0.00895405 0.00735119 0)
(0.00713257 0.00629254 0)
(0.0054293 0.00514657 0)
(0.0040452 0.00405078 0)
(0.00307268 0.00296458 0)
(0.0023393 0.00210019 0)
(0.00187726 0.00113388 0)
(0.00155643 0.000704385 0)
(0.00151413 7.47694e-05 0)
(-0.00270254 -0.000115995 0)
(-0.0024018 0.00131949 0)
(-0.00208529 0.0002733 0)
(-0.0015925 0.000411535 0)
(-0.000840131 -0.000361788 0)
(0.000369188 -0.000955553 0)
(0.00187914 -0.00204935 0)
(0.00387614 -0.00356772 0)
(0.00576396 -0.00574588 -7.53008e-23)
(0.00859831 -0.0085106 -1.52986e-19)
(0.0125141 -0.0111074 1.45564e-19)
(0.0167205 -0.0110756 -1.57456e-19)
(0.0148685 -0.0162624 -2.21416e-19)
(0.0148419 -0.0161535 4.17665e-19)
(0.0103692 -0.00442295 5.19152e-19)
(-0.00589023 0.00553112 -1.00676e-18)
(-0.0104977 0.00262523 1.1336e-20)
(-0.00933327 0.000610761 1.18401e-18)
(-0.0122949 0.00663415 -7.3188e-19)
(-0.0141396 0.00785795 6.42659e-19)
(-0.0152799 0.00334966 -9.61092e-19)
(-0.013831 0.00284054 7.54771e-19)
(-0.00895531 0.00243837 -8.47876e-19)
(-0.00272481 0.00217244 -4.16841e-20)
(0.00285756 0.00116953 1.06093e-18)
(0.00788409 0.00563162 -5.81787e-19)
(0.0122977 0.0124903 -4.73663e-19)
(0.012468 0.0148104 3.35925e-19)
(0.0139997 0.0115307 1.21685e-20)
(0.0137262 0.00966222 1.34251e-19)
(0.0126262 0.00784094 -3.2801e-20)
(0.0104207 0.00675606 -6.03358e-21)
(0.00788254 0.0056643 0)
(0.00585975 0.00460739 0)
(0.00442071 0.00342022 0)
(0.00327284 0.00264429 0)
(0.00261761 0.00170743 0)
(0.00189055 0.00173845 0)
(0.00168686 -0.000153437 0)
(0.00151934 0.00108143 0)
(-0.00423113 0.00136353 0)
(-0.0042477 -0.000539616 0)
(-0.0037995 0.00135757 0)
(-0.00349554 0.00125953 0)
(-0.00275517 0.00141031 0)
(-0.00164284 0.00123528 0)
(5.88121e-06 0.000856044 0)
(0.00194348 -0.000738284 9.53894e-22)
(0.00507067 -0.00255829 1.93914e-20)
(0.00975556 -0.00404715 -5.81008e-20)
(0.0140166 -0.00620925 -1.11508e-19)
(0.0175883 -0.0131824 1.57474e-19)
(0.0219191 -0.0139385 -2.24119e-19)
(0.0129607 -0.0160479 7.86431e-19)
(0.0138395 -0.0240354 -3.91546e-19)
(0.0123841 -0.0153158 -3.56549e-19)
(-0.00162296 0.00310604 4.95747e-19)
(-0.0034769 0.00252749 1.68167e-19)
(-0.00353529 0.00428793 1.19098e-18)
(-0.00604914 0.00609649 -1.27739e-18)
(-0.00753776 0.00989473 -1.26115e-18)
(-0.00560477 0.011045 8.23663e-20)
(-0.00168675 0.00736862 1.06529e-19)
(0.0032077 0.00128313 2.73724e-19)
(0.0168131 0.00559429 3.12692e-19)
(0.0212716 0.0117384 2.97245e-19)
(0.00946106 0.0135489 -4.57938e-19)
(0.0186038 0.0126879 1.75953e-19)
(0.0126907 0.0117522 -6.99722e-20)
(0.0111591 0.00962539 -1.68473e-20)
(0.0102489 0.00631356 -3.72388e-20)
(0.00913119 0.00394024 -2.31387e-20)
(0.0069507 0.00322583 -3.94137e-21)
(0.00486629 0.00299539 0)
(0.00346783 0.00254916 0)
(0.00221104 0.00205537 0)
(0.00141312 0.00164397 0)
(0.00117711 0.000461529 0)
(0.000717514 0.00190538 0)
(0.000750239 -0.00209188 0)
(-0.00632584 -0.00134924 0)
(-0.00609676 -0.000986172 0)
(-0.00600033 -0.00136305 0)
(-0.00551305 -0.0016001 0)
(-0.00524869 0.000145066 0)
(-0.00490109 0.00107815 0)
(-0.00372813 0.00190937 0)
(-0.00205333 0.0017949 -1.09572e-20)
(0.0015882 0.00151862 -3.79748e-20)
(0.00604026 0.000619939 1.99941e-19)
(0.00997898 -0.00211087 -1.39015e-19)
(0.013489 -0.00291021 -3.02853e-20)
(0.0258096 -0.0121218 5.48328e-19)
(0.0156776 -0.0235221 -1.00837e-19)
(0.0199931 -0.0115869 1.10065e-19)
(0.029298 -0.0129912 7.18666e-19)
(0.0128889 -0.0181421 -2.99971e-20)
(0.00235579 0.00731493 3.35761e-19)
(-0.00692956 0.011437 -2.32529e-18)
(-0.0096598 0.0173042 -1.23235e-18)
(-0.00811169 0.0182872 -1.61692e-18)
(-0.00115292 0.0104574 -1.16758e-20)
(0.00420358 0.00854656 -1.4516e-18)
(0.00418552 0.010594 9.1875e-19)
(0.0165798 0.0180586 1.60612e-19)
(0.0237633 0.0087002 3.85935e-19)
(0.0232592 -0.00176559 -2.0487e-19)
(0.015187 0.0107696 4.45863e-19)
(0.00878574 0.00221481 -4.20506e-19)
(0.00691887 0.00380238 6.19179e-20)
(0.00448684 0.0014684 -5.68464e-20)
(0.0037412 -0.000383161 -5.03268e-20)
(0.00330047 -0.00124086 3.42861e-20)
(0.00190856 -0.000630313 0)
(0.000909679 5.20351e-06 0)
(0.000501426 -9.21574e-05 0)
(0.000116696 0.000944382 0)
(-0.000262224 0.000749551 0)
(-0.000327538 0.000312943 0)
(-0.00055471 0.00258956 0)
(-0.00779872 -0.00122159 0)
(-0.00850949 0.00357924 0)
(-0.00887424 0.00122861 0)
(-0.00967169 0.00431892 0)
(-0.00980953 0.00394706 0)
(-0.00984457 0.00464407 0)
(-0.00950278 0.00427037 3.36558e-22)
(-0.00795558 0.0039454 5.53526e-21)
(-0.00506405 0.0052773 4.90205e-20)
(-0.00275552 0.0045623 1.36011e-20)
(-3.16586e-05 0.00203827 -1.67639e-19)
(0.00251811 0.000813962 2.23896e-19)
(0.00509065 -0.0324254 -2.23723e-19)
(0.00322233 -0.0274868 -2.63163e-19)
(0.0142816 -0.012224 3.81484e-19)
(-0.00654059 -0.0164614 -2.4969e-19)
(0.011667 -0.0143179 -4.64299e-19)
(-0.00800222 -0.0151152 -3.41023e-19)
(-0.0158153 0.0152081 1.08267e-18)
(-0.0123339 0.0204659 -1.69536e-18)
(-0.00503863 0.0295783 -6.42872e-19)
(0.0034959 0.0246132 -4.74508e-19)
(0.00806466 0.0158625 5.31524e-19)
(0.00893771 0.0198189 -1.14429e-19)
(0.0169592 0.0104432 -1.23103e-19)
(-0.00347169 0.00787696 4.81832e-19)
(-0.00180888 -0.00107013 -6.00923e-19)
(-0.00366027 0.0108202 8.70868e-20)
(-0.00302297 -0.00851627 1.25179e-19)
(-0.00431203 -0.00446467 -1.65256e-19)
(-0.00478389 -0.00425107 8.53942e-20)
(-0.00457703 -0.00389431 -4.32625e-20)
(-0.00326248 -0.00377503 -1.3433e-20)
(-0.00274519 -0.00241173 2.00424e-21)
(-0.00311399 -0.00130319 0)
(-0.00331951 -0.000604666 0)
(-0.00311145 -0.00125327 0)
(-0.00291897 0.00140976 0)
(-0.00275343 -0.00222872 0)
(-0.00208994 0.00101888 0)
(-0.00959692 0.00573837 0)
(-0.0100339 -0.0031185 0)
(-0.0113217 0.00150947 0)
(-0.0125518 0.00048762 0)
(-0.0133161 0.000444375 0)
(-0.0140329 0.00146549 0)
(-0.0152508 0.00239238 -4.00845e-21)
(-0.0155602 0.00403343 8.80662e-21)
(-0.014996 0.00573812 -9.37233e-21)
(-0.0151687 0.00466357 4.28904e-20)
(-0.0147753 0.00196535 -9.51194e-20)
(-0.0130341 0.00180331 9.97175e-20)
(-0.00577123 -0.0223452 -4.68144e-20)
(0.00622266 -0.0208025 -6.51542e-20)
(0.00354867 -0.00970694 -1.20236e-19)
(-0.0116192 -0.0442205 -2.60907e-19)
(-0.019277 -0.0157602 2.70078e-21)
(-0.0310148 -0.00993333 1.88184e-19)
(-0.0278101 0.00647517 -2.69793e-19)
(-0.0243631 0.0342878 -4.49517e-19)
(0.00206602 0.0432382 -6.27772e-19)
(0.0156758 0.0302616 7.84767e-20)
(0.0193728 0.0149346 3.72546e-19)
(0.00155092 0.00539378 1.43793e-20)
(-0.00660433 0.00260097 -2.61948e-19)
(-0.0105388 0.0179072 1.1772e-18)
(-0.00781801 -0.0177369 -4.33692e-20)
(-0.0257968 0.0078058 9.56982e-20)
(-0.0260872 -0.00604056 3.07257e-21)
(-0.0224228 -0.0061464 -4.1991e-20)
(-0.0177482 -0.00457728 1.52075e-20)
(-0.0142338 -0.00194658 -4.84532e-20)
(-0.011097 -0.0015311 2.74098e-20)
(-0.00838706 -0.000697871 -6.04816e-21)
(-0.00735099 0.000610491 0)
(-0.00690929 0.00123262 0)
(-0.00655489 0.000538051 0)
(-0.00590873 -0.00175673 0)
(-0.0049441 0.00392283 0)
(-0.00467389 -0.00703898 0)
(-0.0126715 -0.00644377 0)
(-0.011852 -0.00385984 0)
(-0.0114127 -0.00437248 0)
(-0.0109826 -0.00607734 0)
(-0.0132084 -0.00321629 0)
(-0.0161356 -0.00202601 0)
(-0.0193625 -0.00160844 2.60855e-21)
(-0.0219467 -0.000276727 7.15145e-21)
(-0.0218293 -0.00181195 -1.86958e-20)
(-0.021285 -0.0046494 -2.59427e-20)
(-0.0199346 -0.00968708 4.37128e-20)
(-0.0224377 -0.00743755 2.85772e-20)
(-0.0252322 3.39363e-05 -3.30829e-20)
(0.00866266 -0.0181421 -5.0786e-20)
(-0.0200466 -0.0256103 6.18573e-20)
(0.00793083 -0.025922 2.2789e-20)
(-0.00304036 -0.0396663 -2.95916e-20)
(-0.0421926 -0.0310294 1.04903e-20)
(-0.0779646 -0.00713403 -9.76221e-20)
(-0.0782549 0.0635433 1.25475e-18)
(0.00402751 0.116271 6.22644e-19)
(0.0735418 0.0493664 8.87206e-20)
(0.0380724 -0.0124628 -1.04667e-19)
(0.00293501 -0.0183481 2.47084e-20)
(-0.0143249 0.00405586 1.56827e-20)
(-0.0291811 0.0118514 3.32835e-21)
(-0.0364909 0.00317485 4.63332e-20)
(-0.0447172 -0.00655727 -1.57617e-21)
(-0.0447514 -0.00270773 -7.75639e-21)
(-0.0396683 0.000818962 -5.81156e-21)
(-0.0298433 0.00299219 1.86509e-20)
(-0.0220833 0.00439089 -6.50248e-21)
(-0.0164148 0.0041016 -1.09996e-21)
(-0.0121749 0.00364727 2.90135e-22)
(-0.00924246 0.00450899 0)
(-0.00717201 0.00455745 0)
(-0.00582141 0.0065127 0)
(-0.00604492 0.00490847 0)
(-0.00635755 0.00313749 0)
(-0.00743379 0.00997995 0)
(-0.0100383 -0.00706607 0)
(-0.0139288 0.00175791 0)
(-0.0141615 -0.00461697 0)
(-0.0170398 -0.00192419 0)
(-0.0187848 -0.00249145 0)
(-0.0207248 -0.00404152 0)
(-0.0211307 -0.00673433 1.70696e-22)
(-0.0191972 -0.00884218 -1.34813e-21)
(-0.0168742 -0.0123084 -2.44164e-21)
(-0.0177582 -0.0147123 5.07191e-21)
(-0.0161018 -0.018598 -1.41874e-20)
(-0.0149097 -0.0150807 -1.61311e-21)
(-0.0068688 -0.01153 1.48575e-20)
(-0.031047 -0.0191172 -5.80785e-22)
(-0.0193747 -0.0205126 7.48581e-20)
(-0.0165675 -0.0417577 5.63794e-20)
(-0.0207645 -0.0555101 2.06459e-21)
(-0.036591 -0.080062 -2.00769e-20)
(-0.082169 -0.147408 1.69214e-18)
(0.00333565 -0.157057 -7.26534e-19)
(-0.0436849 -0.0545373 1.64505e-20)
(-0.0583593 -0.0320868 6.38478e-20)
(-0.0641088 -0.0270338 4.82584e-20)
(-0.0667979 0.0203993 1.35289e-20)
(-0.0478035 -0.00745163 1.24466e-20)
(-0.0467018 0.00643237 -7.11156e-23)
(-0.0411706 0.0136072 -1.66956e-21)
(-0.0337955 0.0122652 -3.66551e-21)
(-0.0254784 0.0112987 2.67161e-22)
(-0.0166401 0.0114293 -4.9055e-22)
(-0.0114768 0.00984095 -7.80947e-22)
(-0.00982883 0.00838223 0)
(-0.00934319 0.00631119 0)
(-0.00917128 0.00449054 0)
(-0.00759115 0.00725302 0)
(-0.00838423 -0.000516846 0)
(-0.0058437 0.00339543 0)
(-0.00969587 0.0180169 0)
(-0.00662197 -0.00220976 0)
(-0.00934712 0.000830038 0)
(-0.00996561 -0.00161486 0)
(-0.00967743 -0.00588105 0)
(-0.009514 -0.00820746 0)
(-0.00950558 -0.0115536 -1.04441e-21)
(-0.00735369 -0.0146728 -3.49623e-21)
(-0.00401418 -0.0177924 1.66112e-20)
(-0.00217297 -0.016799 -6.26953e-21)
(0.00288574 -0.0185497 -5.61893e-20)
(-6.8231e-05 -0.00830535 5.61048e-20)
(0.0116742 0.00240596 -5.24386e-20)
(0.00905407 -0.00740557 3.49572e-20)
(0.0335379 -0.00157746 -1.96179e-20)
(0.0376657 -0.022298 1.42266e-20)
(0.0433553 -0.0564983 2.84016e-21)
(0.0663707 -0.117882 -2.31179e-20)
(0.0230775 -0.202407 -1.37476e-17)
(-0.0963646 -0.19531 -2.06045e-18)
(-0.132553 -0.0072393 1.06283e-20)
(-0.0719277 0.0202097 -5.08041e-20)
(-0.0340031 0.00576494 -7.621e-20)
(-0.0416451 0.0244319 -8.06189e-20)
(-0.029899 0.00774969 4.26141e-20)
(-0.0288743 0.0151149 -2.52967e-20)
(-0.0271365 0.0223992 5.01402e-21)
(-0.0251409 0.0189117 8.10892e-21)
(-0.0201825 0.0165731 -5.30215e-21)
(-0.0119804 0.0154425 -8.3641e-22)
(-0.00449504 0.0135812 9.07003e-22)
(-0.0026203 0.0104477 0)
(-0.00392399 0.00688807 0)
(-0.00467863 0.00158637 0)
(-0.00431396 -0.00191429 0)
(-0.00209031 0.00102479 0)
(-0.00291968 -0.0166679 0)
(-0.0202654 -0.0169247 -3.22754e-23)
(-0.00986477 -0.00685487 0)
(-0.00317264 -0.00447471 0)
(0.000426341 -0.00707744 0)
(0.00127709 -0.00818074 0)
(-0.000774718 -0.00892053 0)
(0.00164008 -0.0107579 -2.83408e-22)
(0.00959561 -0.0108709 -7.57521e-21)
(0.0167741 -0.0157496 -6.53734e-21)
(0.0205978 -0.00993867 -7.48749e-20)
(0.0319599 -0.00798327 -2.48733e-20)
(0.0408953 0.00886495 8.09166e-20)
(0.0424153 0.0288704 -6.29402e-21)
(0.0487157 0.021724 2.38531e-20)
(0.0542544 0.0301279 -7.52337e-19)
(0.0740529 0.0134771 5.31922e-19)
(0.10031 -0.0173147 -3.50956e-20)
(0.322726 -0.118553 1.49237e-19)
(0.00324349 -0.197857 -1.4711e-19)
(-0.44708 0.0886868 -2.06511e-19)
(-0.142096 0.120018 8.14761e-20)
(-0.046119 0.0809618 -1.83436e-19)
(-0.00929415 0.0409208 -1.59266e-19)
(0.0024271 0.0265302 1.81844e-19)
(0.0145741 0.0055739 1.36266e-19)
(0.00672238 0.0177453 1.23458e-20)
(0.00113064 0.0205124 1.35232e-19)
(-0.00496383 0.0183318 -1.29693e-20)
(-0.00484843 0.0162737 9.41321e-21)
(-0.00271945 0.0145874 1.43055e-21)
(0.00398584 0.0128766 -1.54639e-21)
(0.0070234 0.011952 0)
(0.00822787 0.0100066 0)
(0.00812072 0.00927449 0)
(0.00510796 0.00632456 0)
(-0.000566982 0.00918173 0)
(-0.011277 0.0153068 0)
(0.00942701 0.00082244 5.04815e-23)
(0.00441628 0.00359017 0)
(0.000436527 -0.00547288 0)
(0.000680583 -0.00661392 0)
(0.00317102 -0.00682093 0)
(0.00736397 -0.00683167 0)
(0.0131529 -0.00695189 -3.39611e-21)
(0.0228813 -0.00606282 -5.48616e-22)
(0.0352468 -0.00563457 -5.18546e-20)
(0.0432366 0.00136868 5.06359e-20)
(0.0505598 0.00743445 -3.90488e-20)
(0.0597526 0.0226755 -1.23593e-20)
(0.0486525 0.0399903 5.23613e-20)
(0.0562365 0.0350391 -3.35707e-19)
(0.0461356 0.0629846 9.75939e-19)
(0.0671252 0.0608019 1.68265e-18)
(0.127869 0.0806682 -1.00784e-20)
(0.690389 -0.0264897 -2.77997e-19)
(0.115226 -0.304388 -2.35658e-19)
(-0.221868 -0.278468 -1.32358e-19)
(-0.447628 0.0102518 -2.59397e-20)
(-0.119475 0.416092 1.02666e-18)
(-0.586022 0.300206 -2.253e-19)
(-0.0908356 0.155707 1.02656e-18)
(0.0232727 0.118094 3.8235e-20)
(0.0307081 0.0812093 6.72117e-19)
(0.0318446 0.0463062 4.75145e-19)
(0.0278094 0.0100134 -1.78171e-19)
(0.0193914 0.00922525 1.76368e-19)
(0.0184578 0.00849072 -1.62239e-20)
(0.0176626 0.0102657 -6.46931e-20)
(0.0147824 0.0110086 -2.83325e-21)
(0.013064 0.00943554 -4.15323e-21)
(0.0131141 0.00875961 1.2969e-21)
(0.0139094 0.00629467 0)
(0.0130977 0.00583138 0)
(0.0114988 0.00685583 0)
(0.0108692 0.00576747 0)
(0.0150071 -0.00179771 0)
(0.0205077 0.00352401 0)
(0.00626526 0.0067331 -2.3582e-21)
(0.00350304 0.00561664 0)
(0.00253404 0.00275544 0)
(0.00554063 0.00185524 0)
(0.00968392 0.00140652 0)
(0.0143269 0.00179568 0)
(0.0216562 0.0033738 3.75336e-23)
(0.0294421 0.00602294 -7.48261e-22)
(0.0411607 0.00446506 -1.25045e-20)
(0.0474715 0.0156948 -9.42037e-20)
(0.0565391 0.0136158 2.9466e-19)
(0.0566087 0.0078598 -2.55161e-19)
(0.0459948 0.00135056 -1.94136e-20)
(0.0351471 0.030007 1.34207e-19)
(0.0130061 0.0531109 3.5379e-20)
(-0.0193756 0.118143 -5.49219e-19)
(0.0422435 0.184986 1.2153e-18)
(0.975514 0.295208 -4.69788e-18)
(-0.11019 0.266616 3.2423e-18)
(-0.305313 0.311654 -1.04368e-17)
(-0.663751 0.0601524 -7.07286e-19)
(-0.588234 -0.10157 -1.02164e-18)
(-0.00499987 0.342969 1.64497e-18)
(-0.0446671 0.0835839 -6.11262e-19)
(0.0818361 0.130717 -6.05782e-19)
(0.0788313 0.0748339 -4.84115e-19)
(0.0473442 0.0376238 -8.96003e-20)
(0.0487798 0.0202417 2.89191e-19)
(0.0393533 0.000241002 3.44801e-19)
(0.0350483 9.63203e-05 -4.97208e-20)
(0.0238246 -0.00550902 7.3051e-20)
(0.0266961 -0.0011029 -1.44348e-20)
(0.0251507 -0.00175919 6.41112e-21)
(0.0228072 -0.00143994 -1.08859e-22)
(0.016883 -0.00221675 0)
(0.0110846 -0.00279288 0)
(0.00777038 -0.00498059 0)
(0.00566313 -0.00603447 0)
(0.00619167 -0.00886154 0)
(0.00883659 -0.00859697 -1.54845e-21)
(0.0103268 -0.00164989 -8.57695e-21)
(0.0114458 -0.00169275 0)
(0.0139571 0.000619506 0)
(0.0145918 0.00120923 0)
(0.0166699 0.00122554 0)
(0.0208907 0.00504312 0)
(0.0267044 0.00495412 0)
(0.0332074 0.0130536 1.05085e-21)
(0.046922 0.00668446 -3.25944e-21)
(0.0648284 0.00627919 -3.48683e-20)
(0.0626608 0.00397901 1.24724e-19)
(0.0710569 -0.0142325 1.76271e-19)
(0.0516403 -0.02837 -2.03609e-19)
(0.01102 0.00439047 -2.1399e-19)
(-0.00646807 0.0384073 3.90862e-19)
(-0.108068 0.0364345 1.90957e-19)
(-0.103682 0.156805 1.08598e-18)
(0.376194 0.553435 -2.22632e-20)
(0.356302 0.86739 -2.50508e-18)
(0.373653 0.630731 -3.51005e-18)
(-0.293055 -0.318002 -1.47122e-18)
(-0.551959 0.0308628 2.36751e-18)
(-0.410049 -0.259302 2.85212e-18)
(-0.107405 0.0896962 2.77315e-18)
(0.152839 0.0833137 3.33024e-19)
(0.0798414 0.0647972 -3.33489e-19)
(0.0577962 0.0327734 -8.18387e-20)
(0.0480983 -0.00543632 -6.55719e-20)
(0.0304653 -0.00892718 -8.05224e-20)
(0.0298362 -0.00944572 -2.76731e-20)
(0.0302269 -0.0149106 3.10079e-20)
(0.0302671 -0.0118883 6.19096e-21)
(0.0266019 -0.0118738 4.70363e-21)
(0.0269087 -0.0111313 0)
(0.0228631 -0.0102567 0)
(0.0195209 -0.00724554 0)
(0.0173368 -0.00694906 0)
(0.0154665 -0.00465643 0)
(0.0121736 0.00043614 0)
(0.011359 -0.000173887 1.47116e-20)
(0.0143451 0.00157257 -4.70968e-22)
(0.0126998 0.000933693 0)
(0.0133762 0.00510929 0)
(0.0116684 0.00648611 0)
(0.011266 0.00647448 0)
(0.0135564 0.00947464 0)
(0.0197719 0.0116019 0)
(0.0347582 0.0135295 0)
(0.0369418 0.0131894 -8.24649e-21)
(0.0512215 0.00682152 -3.19812e-20)
(0.0553925 0.000546988 3.32273e-20)
(0.0566894 -0.00982884 1.69719e-20)
(0.0790457 -0.0333403 -2.82406e-20)
(0.0576996 -0.0725598 2.51926e-20)
(-0.0317719 -0.0810284 -9.55396e-20)
(-0.112574 -0.170405 2.54091e-19)
(-0.20433 -0.113411 1.0607e-19)
(-0.665178 0.236368 6.07824e-19)
(0.0865279 -0.108567 -5.22346e-19)
(0.449851 0.341338 4.33043e-18)
(0.650422 0.490077 -3.32207e-18)
(-0.653924 -0.00249155 -3.186e-18)
(-0.478448 0.0922567 -1.54687e-18)
(-0.194482 -0.0732165 4.75173e-18)
(0.0648748 0.0500485 1.31543e-19)
(0.0924772 0.040216 2.65396e-19)
(0.0760334 -0.0164385 -6.46812e-20)
(0.0369482 -0.0175747 4.29216e-20)
(0.0299947 -0.0111354 -4.44565e-20)
(0.0230337 -0.0110022 2.56157e-20)
(0.0191447 -0.0186983 1.21593e-20)
(0.0223809 -0.0149501 5.60983e-21)
(0.0249706 -0.0149111 0)
(0.0259692 -0.0151523 0)
(0.0236739 -0.015922 0)
(0.0214988 -0.0124931 0)
(0.0200671 -0.0106208 -2.90794e-20)
(0.020087 -0.00679211 -4.02149e-20)
(0.0172168 -0.00163514 -2.39806e-20)
(0.0161347 -0.00183828 0)
(0.00371053 0.00244753 0)
(0.00181189 -0.000286009 0)
(0.00216877 0.00196151 0)
(0.00295009 0.00430346 0)
(0.00331061 0.005269 0)
(0.00374985 0.00432058 0)
(0.00468529 0.0048783 0)
(0.0168949 0.00617551 0)
(0.0216874 0.00928939 7.96624e-24)
(0.0315724 0.010136 8.42468e-22)
(0.0459261 0.0107984 2.55995e-21)
(0.0516984 0.00576039 -4.47453e-20)
(0.0834109 -0.0121295 -1.28089e-20)
(0.101276 -0.0789922 -5.16363e-21)
(0.0535848 -0.1529 -3.27031e-18)
(0.0307473 -0.272771 -3.43254e-19)
(-0.431954 -0.237332 -3.98964e-19)
(-0.406408 -0.576575 -2.19858e-19)
(0.156338 -0.697141 5.27567e-19)
(0.471573 -0.478963 3.03713e-18)
(-0.452033 -0.18858 -1.0604e-18)
(-0.735205 0.381349 -1.99296e-18)
(0.357401 0.139212 2.84973e-19)
(-0.118712 0.062911 1.02475e-18)
(0.109821 -0.00611156 -6.60518e-19)
(0.165743 -0.03627 -2.43814e-20)
(0.0957424 -0.102812 1.61783e-19)
(0.0623029 -0.046484 -4.37981e-20)
(0.0421706 -0.024386 -1.3529e-20)
(0.031036 -0.0237083 1.32259e-20)
(0.0260009 -0.0210631 -7.35354e-22)
(0.0244125 -0.0176814 5.88024e-23)
(0.0255062 -0.0202689 0)
(0.0250754 -0.0181945 0)
(0.020326 -0.0174511 0)
(0.0172315 -0.0136507 0)
(0.01419 -0.0112012 0)
(0.0121865 -0.00673705 0)
(0.0100622 -0.00230988 0)
(0.0116542 -0.00107757 4.31893e-21)
(0.00469777 0.00011433 0)
(0.0052449 -0.000200777 0)
(0.00617587 -0.000811628 0)
(0.00677068 0.000199084 0)
(0.00504209 0.00150914 0)
(0.00391359 -1.53256e-05 0)
(0.00408651 7.85904e-05 0)
(0.00996289 -0.000677907 0)
(0.0147498 0.00315896 0)
(0.018365 0.0160078 0)
(0.0265986 0.0239106 -1.30141e-21)
(0.0472481 0.0460766 4.90677e-21)
(0.0918191 0.0492294 6.36169e-20)
(0.171357 0.0173711 -7.45159e-20)
(0.280139 -0.0662165 -1.00206e-17)
(-0.00579556 -0.183117 2.4123e-19)
(-0.200975 -0.262562 -4.68662e-18)
(0.608396 -0.78682 1.33001e-19)
(-0.129605 -0.647207 2.72835e-19)
(-0.78539 -0.870608 2.02632e-18)
(-0.597892 -0.675509 1.78079e-18)
(-0.0766978 -0.204893 9.30228e-18)
(0.0254055 0.0472567 -5.34942e-19)
(-0.308947 0.0922419 -8.6133e-20)
(0.502543 -0.00298372 -4.91131e-19)
(0.216358 -0.171604 -1.54796e-19)
(0.0533433 -0.131197 -4.28856e-20)
(0.0400378 -0.0733394 4.63172e-20)
(0.0364247 -0.0559868 -3.65513e-20)
(0.0267203 -0.0475721 -2.32867e-21)
(0.0288571 -0.0351359 0)
(0.024708 -0.0314047 0)
(0.0245057 -0.0294689 0)
(0.0212436 -0.0218688 0)
(0.016375 -0.0169126 0)
(0.0135957 -0.0127528 0)
(0.0108428 -0.00978781 0)
(0.00872197 -0.00646881 0)
(0.0081432 -0.00400381 0)
(0.0100094 -0.00135956 0)
(0.00706671 -0.00087128 0)
(0.00532031 0.000302611 0)
(0.00481982 -0.000886808 0)
(0.00436074 -0.00149348 0)
(0.0024552 -0.00166622 0)
(0.000305008 -0.00230843 0)
(0.000756252 -0.00121961 0)
(-0.00199908 0.00180612 0)
(-0.00457795 0.00886216 0)
(-0.00998815 0.0320456 0)
(-0.012796 0.0530675 0)
(0.00904383 0.106606 -4.67523e-22)
(0.0359585 0.166484 -3.14389e-21)
(0.181645 0.293753 1.80486e-20)
(0.348453 0.130173 -3.42239e-18)
(0.39005 -0.0450413 -1.23553e-19)
(0.104494 -0.353176 -2.70983e-18)
(-0.0772636 0.40817 8.62562e-19)
(-0.312049 0.917659 -1.86232e-19)
(-0.610141 1.03126 -1.55717e-18)
(-0.366573 0.853561 2.11612e-19)
(-0.0947864 0.486279 -4.9935e-19)
(-0.136117 0.077015 -3.63575e-19)
(-0.100741 -0.192173 6.68134e-19)
(0.469909 -0.462538 -4.16844e-19)
(0.119709 -0.195585 3.19425e-19)
(-0.0301824 -0.0984767 4.16459e-19)
(-0.0119872 -0.0813465 -9.47691e-21)
(0.0108863 -0.0589702 -4.11847e-22)
(0.0106231 -0.0591251 0)
(0.0179168 -0.0483465 0)
(0.0129076 -0.0452769 0)
(0.0115168 -0.0367851 0)
(0.00778482 -0.0263583 0)
(0.00679706 -0.0191965 0)
(0.00589552 -0.0142322 0)
(0.00566659 -0.0102171 0)
(0.0052276 -0.00794913 0)
(0.00494049 -0.00628951 0)
(0.00436052 -0.00128328 0)
(0.00787363 -0.00274039 0)
(0.0060193 -0.00333939 0)
(0.0045279 -0.00601869 0)
(0.00249502 -0.00791215 0)
(-0.000322004 -0.00917636 0)
(-0.00286549 -0.0102145 0)
(-0.00447281 -0.0087232 0)
(-0.0150285 -0.00262961 0)
(-0.0308781 0.0101559 0)
(-0.0526917 0.0333849 0)
(-0.0819776 0.0780715 4.7076e-21)
(-0.0866839 0.124749 0)
(-0.092542 0.279956 0)
(0.154834 0.478995 6.77669e-19)
(0.863932 0.451065 1.83939e-18)
(0.467776 0.185409 -5.5874e-18)
(-0.600414 1.01232 3.38168e-20)
(-0.700748 0.846991 1.89391e-19)
(-0.843714 0.5511 -2.42735e-18)
(-0.412372 0.477153 -1.04553e-17)
(0.223085 0.210636 -7.93984e-20)
(0.632997 0.00904284 -1.7826e-18)
(0.590769 -0.268124 -2.84677e-19)
(0.342313 -0.304629 3.15954e-19)
(0.114998 -0.25453 -1.76539e-20)
(-0.227536 -0.0761695 -1.02772e-19)
(-0.129962 -0.0313655 3.66555e-19)
(-0.0496331 -0.0495514 0)
(-0.00364902 -0.0480701 0)
(0.00340389 -0.0549909 1.93389e-20)
(0.00649009 -0.0519122 0)
(-0.00131871 -0.0476522 0)
(-0.0069326 -0.0388806 0)
(-0.00965967 -0.0289592 0)
(-0.00670296 -0.0221985 0)
(-0.00540289 -0.0163231 0)
(-0.00386191 -0.0108127 0)
(-0.00278175 -0.0062433 4.78596e-21)
(-0.00159367 -0.00398464 3.4335e-21)
(-0.00170636 0.00170628 0)
(0.0117719 -0.00248967 0)
(0.00961544 -0.00556772 0)
(0.0081902 -0.0103051 0)
(0.00598319 -0.0141704 0)
(0.00307461 -0.0178102 0)
(-0.00148842 -0.0203557 0)
(-0.00934116 -0.0203859 0)
(-0.0269987 -0.0147077 0)
(-0.0543557 -0.000227953 0)
(-0.0897082 0.0167025 0)
(-0.149521 0.0550552 1.67631e-20)
(-0.219226 0.108235 0)
(-0.289319 0.225292 0)
(-0.127892 0.490152 -8.96723e-20)
(0.535469 0.719995 1.99678e-18)
(-0.229627 0.990753 8.44731e-20)
(-0.800205 0.323324 0)
(-0.634971 0.0881835 1.3692e-19)
(-0.391314 -0.0181822 -1.4864e-18)
(-0.163466 0.116877 6.29788e-19)
(0.249981 -0.148088 -7.25984e-18)
(0.492749 -0.155955 -3.69489e-18)
(0.622821 -0.196335 -1.44363e-20)
(0.507679 -0.151969 0)
(0.0202172 0.151099 -2.6056e-19)
(-0.252937 0.127058 3.44789e-19)
(-0.107923 0.0477364 -1.0828e-20)
(-0.00129276 -0.0053592 0)
(0.00969797 -0.0245654 0)
(0.00966583 -0.0414156 -5.25319e-20)
(-0.0012511 -0.041413 0)
(-0.0112401 -0.0387251 0)
(-0.0186444 -0.0350752 0)
(-0.0197437 -0.0292207 0)
(-0.0170901 -0.0235578 0)
(-0.0151267 -0.0174148 -8.65846e-21)
(-0.0134608 -0.0124889 1.12515e-20)
(-0.0106795 -0.00732569 0)
(-0.00721366 -0.00478256 0)
(-0.00352695 -0.00105868 2.64407e-20)
(0.0169025 -0.00219608 0)
(0.0169586 -0.00702765 0)
(0.0151634 -0.0127247 0)