/*--------------------------------*- C++ -*----------------------------------*\
| =========                 |                                                 |
| \\      /  F ield         | OpenFOAM: The Open Source CFD Toolbox           |
|  \\    /   O peration     | Version:  v2106                                 |
|   \\  /    A nd           | Website:  www.openfoam.com                      |
|    \\/     M anipulation  |                                                 |
\*---------------------------------------------------------------------------*/
FoamFile
{
    version     2.0;
    format      ascii;
    arch        "LSB;label=32;scalar=64";
    class       volScalarField;
    location    "0";
    object      p;
}
// * * * * * * * * * * * * * * * * * * * * * * * * * * * * * * * * * * * * * //

dimensions      [0 2 -2 0 0 0 0];

internalField   nonuniform List<scalar> 
11644
(
0.0669769
0.0673497
0.0681434
0.0693655
0.0710103
0.0730792
0.0755742
0.0784921
0.0818193
0.0855316
0.089578
0.093884
0.0983576
0.102829
0.107119
0.111065
0.114321
0.116598
0.11787
0.118119
0.117094
0.114765
0.111277
0.106842
0.101708
0.0961315
0.0903737
0.0846121
0.0790354
0.0737752
0.0689212
0.0645356
0.060646
0.0572666
0.0543981
0.052035
0.0501668
0.0487844
0.0478902
0.047472
0.0663173
0.066694
0.0674674
0.0686558
0.0702714
0.0723216
0.0748119
0.0777446
0.081116
0.0849066
0.0890838
0.093584
0.0982996
0.103086
0.107743
0.111998
0.115559
0.118222
0.119846
0.120185
0.119081
0.116556
0.112774
0.107947
0.102391
0.0963729
0.0902108
0.0841663
0.0783607
0.0729542
0.0680112
0.0635821
0.0596847
0.056323
0.0534895
0.0511706
0.0493517
0.0480195
0.0471549
0.0467336
0.0648581
0.0652481
0.0660135
0.0671693
0.0687442
0.0707596
0.0732347
0.0761863
0.0796278
0.0835634
0.0879813
0.0928291
0.098029
0.103433
0.10881
0.11391
0.118421
0.122063
0.124374
0.125023
0.123831
0.120826
0.116263
0.110436
0.103889
0.0969086
0.0899433
0.0832305
0.0769673
0.0712518
0.0661368
0.0616338
0.0577325
0.0544121
0.0516445
0.049401
0.0476552
0.0463771
0.0455291
0.0450955
0.0626479
0.0630293
0.0637738
0.0648893
0.0664068
0.068362
0.0707938
0.0737438
0.077257
0.0813652
0.0860857
0.09143
0.097337
0.103678
0.110306
0.11691
0.123039
0.128285
0.131781
0.133074
0.131755
0.127911
0.121961
0.114361
0.106123
0.0975369
0.0892634
0.0816203
0.0746683
0.0685329
0.0631955
0.0586155
0.054736
0.0514943
0.0488347
0.046705
0.0450553
0.0438412
0.0430291
0.0426134
0.0597549
0.0600993
0.0607854
0.0618217
0.0632381
0.06508
0.0674068
0.0702879
0.0738027
0.0780355
0.0830725
0.0889647
0.0957383
0.103407
0.111787
0.120688
0.129327
0.137142
0.142654
0.145022
0.143601
0.138456
0.130298
0.11983
0.109019
0.0980122
0.0878341
0.0787764
0.0710146
0.064434
0.0589314
0.0543507
0.0505812
0.0475068
0.0450329
0.0430763
0.0415692
0.0404652
0.0397356
0.0393691
0.056232
0.0565214
0.0571045
0.0580004
0.0592417
0.0608758
0.0629788
0.0656488
0.0690082
0.0731977
0.0783459
0.0846154
0.0922426
0.10128
0.112246
0.124442
0.136935
0.149134
0.158371
0.16293
0.161307
0.153555
0.141465
0.126755
0.111864
0.0971934
0.0845809
0.0741517
0.0654439
0.0584925
0.0529788
0.0485988
0.0451333
0.0423858
0.0402217
0.0385379
0.0372603
0.036341
0.0357441
0.0354519
0.0521549
0.0523685
0.052805
0.0534906
0.0544547
0.0557525
0.057458
0.0596917
0.0626186
0.0663746
0.0711615
0.077343
0.08542
0.0960616
0.11024
0.126785
0.13945
0.157592
0.173127
0.182789
0.18314
0.174176
0.15793
0.138468
0.112689
0.0939868
0.0780945
0.0659152
0.0570841
0.0501558
0.044997
0.0411533
0.0382866
0.0360999
0.0344281
0.0331656
0.0322353
0.0315792
0.0311645
0.0309589
0.047632
0.0477513
0.0479967
0.0483868
0.0489589
0.0497627
0.0508646
0.0523774
0.0544379
0.0571546
0.0608715
0.066062
0.0739168
0.0838955
0.0992111
0.119177
0.14542
0.174321
0.203006
0.22256
0.224772
0.208049
0.178426
0.145569
0.11492
0.0908023
0.0723957
0.0531464
0.0445168
0.038732
0.034715
0.0319144
0.0300104
0.0286913
0.0277498
0.0270859
0.0266274
0.0263208
0.0261337
0.0260485
0.0428028
0.0428023
0.0428179
0.04285
0.0429246
0.0430668
0.0433289
0.0437792
0.0444806
0.0455244
0.0472891
0.0501825
0.0552139
0.0675832
0.0817445
0.104196
0.134899
0.180925
0.230667
0.273631
0.285394
0.256891
0.204817
0.149694
0.106905
0.0702182
0.0519519
0.0322332
0.0269937
0.023856
0.0219894
0.0209535
0.0204894
0.0203783
0.0204086
0.0205178
0.020644
0.0207669
0.0208532
0.0209037
0.037856
0.0377391
0.0374904
0.0371172
0.0366032
0.03595
0.0351607
0.0342293
0.0331189
0.0318777
0.0306595
0.0296822
0.0293088
0.0385492
0.0467533
0.0675731
0.101463
0.160495
0.25277
0.35877
0.400857
0.332066
0.216292
0.125379
0.0640849
0.0271877
0.0167698
0.00361409
0.00428242
0.00549405
0.00705286
0.0086333
0.010151
0.0115737
0.0127881
0.0137966
0.0145922
0.0151788
0.0155705
0.0157536
0.0330472
0.0328009
0.0322863
0.031484
0.0303578
0.0288569
0.0269278
0.0244861
0.0213328
0.0173643
0.0123047
0.00585244
-0.00189276
-0.000439279
-0.00706086
-0.0032728
0.00961474
0.043512
0.157019
0.412237
0.596157
0.350802
0.0963044
-0.00662783
-0.036085
-0.0420804
-0.0330627
-0.0306573
-0.0221219
-0.014777
-0.00889236
-0.00410741
-0.000244719
0.0029057
0.0054014
0.00734299
0.00883361
0.00990646
0.01061
0.0109681
0.0286331
0.0282317
0.0274806
0.0262951
0.024641
0.0223725
0.0194026
0.0155717
0.0105186
0.00390315
-0.00489366
-0.0168972
-0.0333506
-0.0409924
-0.0697121
-0.0948234
-0.140905
-0.232196
-0.461572
-0.594911
-0.297315
-0.180888
-0.124749
-0.0879482
-0.0653095
-0.0476261
-0.0337888
-0.0236942
-0.0157099
-0.00961554
-0.00480712
-0.00112367
0.00169724
0.00381002
0.00532613
0.00628344
0.00676901
0.0247186
0.024324
0.0233835
0.0219324
0.0198834
0.0170717
0.0133718
0.00858103
0.00225798
-0.00609811
-0.0172522
-0.0325428
-0.0537221
-0.0726115
-0.114241
-0.165155
-0.253666
-0.415552
-0.575942
-0.6876
-0.462965
-0.278757
-0.184461
-0.130349
-0.0901725
-0.0663661
-0.0479953
-0.0347941
-0.0244489
-0.0167544
-0.0107269
-0.00619676
-0.0027093
-0.000136221
0.00167392
0.00284987
0.00339201
0.0216708
0.021173
0.0201623
0.0186023
0.0163876
0.0133816
0.009398
0.00424464
-0.00242279
-0.0111194
-0.0225174
-0.0377413
-0.0584785
-0.0811016
-0.122221
-0.178151
-0.271136
-0.42233
-0.49759
-0.472543
-0.414034
-0.296983
-0.205752
-0.149084
-0.100857
-0.0749206
-0.0549807
-0.040482
-0.0291462
-0.0207657
-0.0142184
-0.00933655
-0.00552223
-0.00272683
-0.000760891
0.000520414
0.00115686
0.0196011
0.0189512
0.0180116
0.0165006
0.0143469
0.011439
0.00758468
0.00267355
-0.00345422
-0.0111507
-0.0207312
-0.0326592
-0.0475788
-0.0667211
-0.0937893
-0.135198
-0.201016
-0.324948
-0.459636
-0.487933
-0.544706
-0.510834
-0.460175
-0.401827
-0.289393
-0.19971
-0.14597
-0.0973783
-0.0728156
-0.0542516
-0.0403327
-0.0294869
-0.0213531
-0.0150597
-0.0102905
-0.00655539
-0.00379555
-0.00180466
-0.000560171
-1.11451e-05
0.0183009
0.0179957
0.0170633
0.0156316
0.0136551
0.0110537
0.0076742
0.0035171
-0.0013825
-0.00713412
-0.0136836
-0.0210288
-0.0281871
-0.0403618
-0.0466595
-0.0480324
-0.0514916
-0.0541474
-0.246112
-0.583105
-0.803331
-0.75162
-0.601314
-0.389198
-0.260975
-0.172019
-0.125572
-0.0814856
-0.0613086
-0.0460649
-0.0345112
-0.0254796
-0.0185625
-0.0131522
-0.00898928
-0.00572334
-0.00329399
-0.0015483
-0.000455805
6.75159e-05
0.0179032
0.0176719
0.0169469
0.0157603
0.0140949
0.0119675
0.00933324
0.00607688
0.00249808
-0.00136618
-0.00516035
-0.00900763
-0.0106147
-0.0110136
-0.00877818
0.0131621
0.0496447
0.0970572
-0.116735
-0.492787
-0.73748
-0.678178
-0.467025
-0.291851
-0.174797
-0.123616
-0.0737314
-0.0566724
-0.0423746
-0.0322003
-0.0241504
-0.0178683
-0.0129251
-0.00896372
-0.00579071
-0.00328834
-0.00139247
-1.80919e-05
0.000879852
0.00134817
0.0182536
0.0179253
0.0173835
0.0165315
0.0153135
0.0137301
0.0118226
0.00949962
0.00686936
0.00407709
0.00143867
-0.000972496
-0.00242279
-0.00230753
-0.00184906
0.00320433
0.0239685
0.0427093
-0.0907094
-0.280987
-0.37798
-0.336307
-0.235953
-0.157362
-0.0916369
-0.0654365
-0.0341959
-0.0263304
-0.0198227
-0.0150952
-0.0111836
-0.00800987
-0.00541219
-0.00318904
-0.00127911
0.000316753
0.00158473
0.00253903
0.00317535
0.00350775
0.0192978
0.019019
0.0185638
0.0179134
0.0170495
0.015924
0.0145718
0.0129483
0.0110375
0.00868093
0.00602775
0.00260312
-0.00257101
-0.00875782
-0.0160272
-0.0408729
-0.077226
-0.138311
-0.196969
-0.267282
-0.266273
-0.197012
-0.11863
-0.0625225
-0.0208674
-0.0101628
0.00259129
0.00290807
0.00205394
0.00181629
0.00181256
0.00211693
0.00255944
0.0031927
0.00390891
0.00460028
0.00519053
0.00566524
0.00600284
0.00618971
0.0208176
0.0206525
0.020331
0.0198609
0.0192536
0.0184789
0.0175316
0.0163325
0.0148691
0.0128283
0.00999943
0.00584536
-0.00141357
-0.0128051
-0.0268422
-0.0648091
-0.130458
-0.265923
-0.377217
-0.407697
-0.351545
-0.220485
-0.0853769
-0.00988568
0.0256576
0.030524
0.0305421
0.0271663
0.0196185
0.0163629
0.0129581
0.0111636
0.00997482
0.00942355
0.00910294
0.00899178
0.00900691
0.00907794
0.00917227
0.0092113
0.0225769
0.0224901
0.0223269
0.0220832
0.0217614
0.0213444
0.0208018
0.0200275
0.018965
0.0174561
0.0150503
0.0113376
0.00481368
-0.00638159
-0.022186
-0.0534204
-0.107437
-0.205076
-0.320063
-0.399907
-0.374506
-0.246861
-0.0921189
0.00482712
0.053692
0.0583982
0.0483629
0.0428878
0.0327006
0.0271934
0.0220555
0.0188947
0.0165416
0.0149962
0.0138771
0.0131759
0.0127379
0.0124718
0.0123264
0.0122644
0.0243863
0.0243769
0.0243769
0.0243674
0.0243414
0.0242847
0.0241753
0.0239491
0.0235454
0.0228827
0.0215183
0.0191122
0.0145863
0.00612329
-0.00630194
-0.0270806
-0.0618425
-0.110645
-0.169346
-0.209685
-0.206246
-0.14422
-0.060619
0.00903034
0.046639
0.0598849
0.0592323
0.0476498
0.0400328
0.033576
0.028261
0.0244759
0.0215581
0.019441
0.0178857
0.0168041
0.016044
0.0155395
0.0152304
0.0150938
0.0261427
0.0262403
0.0263703
0.0265373
0.0267504
0.0270177
0.0273621
0.0277721
0.0282092
0.0285469
0.028478
0.027564
0.0251973
0.019836
0.0104736
-0.00400624
-0.0251155
-0.0537902
-0.0883071
-0.114456
-0.122826
-0.111367
-0.0745633
-0.0204713
0.0257729
0.0568523
0.0559914
0.046017
0.0407435
0.035072
0.0306979
0.027236
0.0245056
0.0224151
0.0208468
0.019679
0.0188301
0.0182454
0.0178582
0.0176395
0.0278066
0.0279435
0.0281253
0.0284096
0.0288353
0.0294182
0.0302066
0.0312122
0.0323957
0.0336094
0.0346666
0.0350919
0.0343284
0.0307503
0.0235262
0.010437
-0.011264
-0.041196
-0.08132
-0.116464
-0.137311
-0.13411
-0.110283
-0.0660963
-0.0292432
0.00244067
0.0271138
0.0326555
0.0342116
0.0319509
0.0299434
0.0276722
0.0257667
0.0241956
0.0229016
0.0218562
0.0210509
0.0204566
0.0200615
0.0198621
0.029138
0.0292144
0.0294937
0.0299319
0.0305604
0.0313948
0.0324813
0.0338708
0.035552
0.0374391
0.0393072
0.0409309
0.0408629
0.0372433
0.0290938
0.010183
-0.022421
-0.069948
-0.135321
-0.197513
-0.259462
-0.264295
-0.210779
-0.14258
-0.0754649
-0.0264966
0.00524574
0.0176547
0.0254003
0.0269172
0.0283672
0.0271828
0.0263227
0.0252435
0.0242749
0.0234403
0.022767
0.0222655
0.0219382
0.0217857
0.0302602
0.0303001
0.0305939
0.0310817
0.0318057
0.0327654
0.0339868
0.0354952
0.0373543
0.0395856
0.0417613
0.0444626
0.0449883
0.040111
0.0282385
0.00322261
-0.0356963
-0.0817596
-0.156399
-0.199616
-0.314481
-0.302088
-0.224883
-0.155276
-0.0848646
-0.0417816
-0.00940419
0.00949195
0.0199398
0.0240179
0.0264909
0.0267412
0.0265832
0.0259364
0.0253365
0.0247403
0.0242329
0.0238532
0.0235944
0.0234839
0.0311545
0.0312913
0.031567
0.0320274
0.0327132
0.033646
0.0348541
0.0363367
0.0381501
0.0403124
0.0424514
0.0453277
0.0443319
0.0378008
0.0250274
0.00270583
-0.029556
-0.071843
-0.124953
-0.16837
-0.205671
-0.2039
-0.170332
-0.1251
-0.0810507
-0.0371449
-0.00331662
0.0107722
0.0197718
0.0240789
0.0262985
0.027009
0.0271192
0.026826
0.0264394
0.0259835
0.0255694
0.0252412
0.0250153
0.024917
0.031575
0.031744
0.0320392
0.0324874
0.0331183
0.0339553
0.0350373
0.0363634
0.0379431
0.0397615
0.0413573
0.0427229
0.0405798
0.0328799
0.0180951
-0.00541723
-0.0369766
-0.0754907
-0.110642
-0.1328
-0.145614
-0.137822
-0.109701
-0.0738826
-0.040253
-0.00959726
0.00778272
0.0174258
0.0231961
0.0261528
0.0275924
0.0281216
0.0281756
0.0279551
0.0275942
0.0271808
0.0267905
0.0264557
0.0262114
0.0260641
0.0315854
0.0317032
0.0319536
0.0323431
0.0328746
0.0335517
0.0343716
0.0353274
0.0362806
0.0371547
0.0373097
0.0364495
0.0321051
0.0215486
0.00336157
-0.0212959
-0.0499516
-0.0781674
-0.102501
-0.111217
-0.106709
-0.0916011
-0.066238
-0.0377939
-0.0111201
0.00692933
0.0175125
0.0238751
0.027392
0.0289662
0.0295861
0.0295761
0.0293377
0.0289544
0.0285307
0.0281126
0.027744
0.027431
0.0271977
0.0270188
0.0313835
0.0314669
0.0316622
0.0319542
0.0323122
0.0327276
0.0331261
0.0334955
0.0335978
0.0333311
0.03158
0.0278371
0.0191832
0.00518704
-0.0136067
-0.0371528
-0.066468
-0.0899499
-0.106033
-0.105563
-0.09725
-0.0774188
-0.0480968
-0.0223189
0.000186067
0.014053
0.0233352
0.0284495
0.0309973
0.0317302
0.0316675
0.0311127
0.0304767
0.0298132
0.0292311
0.0287348
0.0283424
0.0280575
0.0278544
0.027725
0.0311368
0.0312327
0.0313593
0.0315155
0.0316736
0.0318031
0.0317968
0.0315807
0.0308955
0.0295845
0.0265736
0.0207935
0.00915485
-0.010909
-0.0392
-0.0715436
-0.105603
-0.127183
-0.143733
-0.144548
-0.126937
-0.0969139
-0.0578168
-0.0268857
-0.000959612
0.016189
0.0267242
0.0317522
0.0338971
0.0340392
0.0333147
0.0323715
0.0314138
0.0305348
0.0298069
0.029211
0.0287248
0.0283622
0.0281228
0.0281457
0.0307069
0.0308147
0.0308815
0.0309526
0.0309592
0.0309041
0.030632
0.030129
0.028872
0.0268435
0.0226908
0.0160113
0.00357047
-0.0149567
-0.0477654
-0.0847188
-0.127249
-0.155157
-0.184664
-0.184388
-0.147484
-0.11003
-0.0660928
-0.0328261
-0.00507955
0.014145
0.0268473
0.0331511
0.0355849
0.03534
0.0337976
0.0327761
0.0317364
0.0308081
0.0300512
0.0294358
0.0289695
0.0286714
0.0285332
0.0284916
0.0302209
0.0302478
0.0302733
0.0302953
0.0302387
0.0301032
0.0297227
0.0291292
0.0277914
0.0256961
0.02147
0.0147702
0.00235793
-0.0151411
-0.0394438
-0.0672117
-0.103253
-0.132697
-0.156791
-0.163101
-0.136087
-0.104859
-0.0636014
-0.0321262
-0.00649137
0.0116956
0.0239546
0.0308069
0.0340885
0.0344333
0.0334317
0.0324732
0.0315569
0.0307377
0.030073
0.0295429
0.0291539
0.0288889
0.0287209
0.0285987
0.029861
0.0298746
0.0298854
0.0298885
0.0298329
0.0296976
0.0293583
0.0288014
0.0277349
0.0260084
0.0229439
0.0178365
0.00920648
-0.00448302
-0.02397
-0.0466792
-0.0724311
-0.0960829
-0.112917
-0.118678
-0.107174
-0.0893962
-0.0621424
-0.0353413
-0.0123099
0.00600359
0.019019
0.0270583
0.0310689
0.0324551
0.032226
0.0315733
0.0308803
0.030223
0.0296793
0.029231
0.0288783
0.028609
0.0284156
0.0282963
0.0295915
0.0296295
0.0296592
0.0296754
0.0296482
0.0295623
0.0293475
0.02896
0.0282784
0.0271591
0.0253048
0.022069
0.0167623
0.00775124
-0.0059081
-0.0238064
-0.0438353
-0.063789
-0.079095
-0.0868776
-0.0881763
-0.0809444
-0.0624022
-0.0419687
-0.0224253
-0.00488039
0.00972775
0.020063
0.0260009
0.0288463
0.029616
0.0296979
0.0294442
0.029065
0.0287075
0.0283865
0.0281297
0.0279406
0.0278208
0.0277626
0.0292846
0.0293096
0.0293194
0.0293226
0.0293294
0.0293388
0.0293089
0.0292265
0.0290203
0.0286034
0.0276894
0.0259389
0.0225697
0.0167255
0.00693905
-0.0067803
-0.0249238
-0.0439331
-0.0619777
-0.0747157
-0.0788125
-0.0775511
-0.0660396
-0.049336
-0.0316945
-0.0148858
-0.000213795
0.010835
0.0186086
0.0233968
0.0258099
0.0270132
0.0274912
0.027573
0.0275282
0.0274028
0.0272799
0.0271761
0.0271212
0.0271212
0.0287539
0.0287174
0.0287705
0.0288493
0.0289642
0.0291161
0.0293065
0.0295538
0.0297958
0.0299417
0.0297427
0.0287904
0.0262161
0.0212436
0.0116743
-0.00185912
-0.0206866
-0.0423595
-0.0669922
-0.0839613
-0.0902171
-0.0897326
-0.0814753
-0.0686309
-0.0513741
-0.0328874
-0.0142325
0.00030493
0.0113593
0.0184973
0.0223863
0.0244007
0.0254871
0.026059
0.0263748
0.0264838
0.0265083
0.0264726
0.0264384
0.0264373
0.0282788
0.0282044
0.0282285
0.0283314
0.0285138
0.0287645
0.0291084
0.0295525
0.0300763
0.0306196
0.0309211
0.0302311
0.0275342
0.0219448
0.0116005
-0.00292412
-0.0226767
-0.0466043
-0.075685
-0.101573
-0.124161
-0.124616
-0.110182
-0.0937158
-0.071399
-0.0479153
-0.0240123
-0.00545737
0.00744347
0.015126
0.019747
0.0223594
0.0239306
0.0248396
0.0253778
0.0256593
0.0258153
0.0258773
0.0258955
0.0258375
0.0277978
0.0278108
0.0278347
0.0279033
0.028044
0.0282654
0.0285806
0.0289759
0.0294826
0.0299317
0.0301035
0.0291466
0.0260117
0.0204716
0.0106365
-0.00350081
-0.0233447
-0.0461469
-0.077943
-0.100848
-0.134168
-0.132515
-0.112606
-0.0930467
-0.0664514
-0.0420923
-0.0208788
-0.00600553
0.00545271
0.0135004
0.0184506
0.0212566
0.023005
0.0239569
0.0245786
0.0249057
0.0251161
0.0251963
0.0252257
0.0251702
0.0270371
0.0271017
0.0271792
0.0272736
0.0273958
0.0275564
0.027769
0.0280013
0.0282675
0.0283653
0.0278711
0.0261984
0.0225171
0.0160628
0.00599321
-0.00790519
-0.0254151
-0.0455673
-0.0684716
-0.0858412
-0.0982491
-0.0956672
-0.0835042
-0.0672146
-0.0477311
-0.030079
-0.0143718
-0.00110723
0.00912562
0.0151601
0.0190038
0.0212622
0.0226473
0.0234502
0.0239681
0.0242473
0.0244168
0.024483
0.0245139
0.024523
0.0260975
0.0261263
0.026165
0.0262156
0.0262785
0.0263504
0.0264242
0.0264622
0.0263786
0.0259852
0.0246881
0.0218274
0.0166297
0.00861683
-0.00228737
-0.015715
-0.030747
-0.047381
-0.0633894
-0.0703954
-0.0712971
-0.0672938
-0.0573474
-0.0438281
-0.0289665
-0.0147438
-0.00234648
0.00747412
0.0140335
0.0180463
0.0204747
0.021948
0.0228479
0.0234076
0.0237479
0.0239365
0.0240399
0.0240818
0.0240978
0.0241039
0.0251283
0.0250886
0.0250501
0.0250168
0.0249817
0.0249214
0.024785
0.0244777
0.0238027
0.0225337
0.0201105
0.0157855
0.00916566
0.000341999
-0.0104577
-0.0227181
-0.0359623
-0.0486535
-0.0594629
-0.0619923
-0.0592005
-0.0515027
-0.0399174
-0.0265372
-0.0129579
-0.00107432
0.00843655
0.0146642
0.0186321
0.020855
0.0221144
0.0228327
0.0232637
0.0235309
0.0236876
0.023774
0.0238222
0.0238389
0.0238353
0.0238141
0.0241365
0.0240766
0.0240319
0.0239743
0.0238538
0.0236309
0.0232233
0.0225215
0.0212563
0.0190156
0.0152195
0.00934711
0.00129804
-0.00889729
-0.0211391
-0.0337646
-0.0468653
-0.057691
-0.0649073
-0.0628415
-0.0579046
-0.0480307
-0.0330169
-0.0179515
-0.00363867
0.00744454
0.0155292
0.0197728
0.0222206
0.023238
0.0236236
0.0236863
0.0236464
0.0235749
0.0235154
0.023467
0.0234446
0.0234398
0.0234327
0.0234183
0.0232714
0.023259
0.0232016
0.0230857
0.0228549
0.0224741
0.0218352
0.0208333
0.0192211
0.0164734
0.0117251
0.00396884
-0.00709061
-0.020977
-0.0367394
-0.0511934
-0.0655889
-0.0749063
-0.08233
-0.0826865
-0.0703597
-0.0535097
-0.0329077
-0.0157119
-0.00100422
0.0101465
0.0180361
0.0221556
0.0243562
0.0249277
0.0247151
0.0242671
0.0238571
0.0235106
0.0232567
0.0230695
0.0229358
0.0228514
0.0228225
0.0229071
0.0224792
0.0225636
0.0224884
0.0223229
0.0220208
0.0215956
0.0208647
0.0197333
0.0178879
0.0149953
0.0102405
0.00294454
-0.00831496
-0.0228204
-0.0428557
-0.0589918
-0.0760463
-0.0864187
-0.0962992
-0.0953412
-0.0750313
-0.0557411
-0.0333296
-0.0153556
-0.000337449
0.0104366
0.0178833
0.0219894
0.0244257
0.0249803
0.0246646
0.0240568
0.0235468
0.0231221
0.0228169
0.0226031
0.0224709
0.0224175
0.0224224
0.0224494
0.0217099
0.0217126
0.0216632
0.0215471
0.0213037
0.020922
0.0202827
0.0192895
0.01762
0.0149486
0.0105982
0.00412236
-0.00483676
-0.0159926
-0.0305833
-0.0456797
-0.0617531
-0.0729015
-0.0809595
-0.0813895
-0.0678486
-0.0525211
-0.0325767
-0.0162528
-0.00244209
0.00790259
0.0151594
0.0195852
0.0220865
0.0230865
0.0232945
0.023069
0.0227624
0.0224842
0.0222746
0.0221267
0.0220313
0.0219742
0.021935
0.0218901
0.0210759
0.0210364
0.0209859
0.0209024
0.0207442
0.0204827
0.0200445
0.0193531
0.018212
0.0163508
0.0132644
0.00852509
0.00171269
-0.00708212
-0.0177014
-0.0289912
-0.0411881
-0.0509886
-0.0580201
-0.0600231
-0.0556671
-0.0477597
-0.0347462
-0.0213155
-0.00910329
0.00107435
0.00896615
0.014573
0.0181767
0.0201803
0.0211374
0.0214335
0.0214589
0.0214071
0.021343
0.021284
0.0212302
0.02118
0.0211319
0.0210904
0.0206664
0.0206611
0.0206436
0.0206033
0.0205213
0.0203783
0.0201413
0.0197557
0.0191406
0.0181228
0.0163836
0.0135189
0.00898154
0.00275928
-0.00531681
-0.014438
-0.0241884
-0.0334724
-0.0415201
-0.047168
-0.0480422
-0.044343
-0.0362192
-0.0265171
-0.0163945
-0.00705215
0.00105244
0.00765791
0.0127073
0.0161193
0.0181014
0.0190993
0.0196068
0.0198616
0.0199912
0.020065
0.0201145
0.0201556
0.020188
0.0202071
0.0203067
0.020328
0.0203264
0.020312
0.0202917
0.0202675
0.0202262
0.0201462
0.0199918
0.0196789
0.0190077
0.0176728
0.0150487
0.0108453
0.00417543
-0.00450958
-0.015345
-0.0260133
-0.0360694
-0.042754
-0.045062
-0.045494
-0.0407008
-0.0327027
-0.0231646
-0.0139576
-0.00539792
0.00174138
0.0074584
0.0118046
0.0147809
0.0166286
0.017745
0.0183775
0.0187338
0.0189385
0.0190668
0.0191619
0.0192443
0.0193209
0.0197811
0.0197667
0.0197838
0.0198215
0.0198912
0.0200042
0.0201626
0.0203796
0.0206307
0.0208806
0.0209795
0.0204806
0.0187114
0.0155467
0.00957807
0.00107227
-0.0101047
-0.023094
-0.0362686
-0.0463884
-0.0538995
-0.0561851
-0.0524252
-0.0459135
-0.0364818
-0.0263762
-0.0158561
-0.00625571
0.00171394
0.0077242
0.0119633
0.0146266
0.0161989
0.0171276
0.0177083
0.0180593
0.0182614
0.0183584
0.018414
0.0184668
0.019243
0.0191472
0.0191607
0.0192238
0.0193588
0.0195619
0.0198478
0.0202451
0.0207374
0.0212803
0.0216848
0.0213705
0.0197428
0.0169655
0.011707
0.00370042
-0.00723508
-0.0212596
-0.0372237
-0.0518357
-0.0665618
-0.0702701
-0.0656219
-0.0582802
-0.047654
-0.0359191
-0.0236057
-0.0117091
-0.00166455
0.00552373
0.0102784
0.0132037
0.0150011
0.0161307
0.0168583
0.0173156
0.0176051
0.0177692
0.0178538
0.0178239
0.0187167
0.0187071
0.0187063
0.0187379
0.0188274
0.0189891
0.0192318
0.0195724
0.0199807
0.0203567
0.0204853
0.0200398
0.0185053
0.0158041
0.0109137
0.00342673
-0.00696379
-0.0200773
-0.0363041
-0.051056
-0.066381
-0.0699422
-0.0651465
-0.0574064
-0.0451973
-0.0327599
-0.0198683
-0.00888299
-0.000781716
0.0052429
0.00976436
0.0126458
0.0144747
0.0155954
0.0163132
0.0167526
0.0170351
0.0171779
0.0172364
0.0171735
0.0180259
0.0180701
0.0181094
0.0181491
0.0181985
0.018269
0.0183623
0.0184757
0.0185558
0.0184546
0.0179558
0.0168096
0.0145901
0.0108777
0.00532084
-0.00217181
-0.0115341
-0.0223178
-0.034184
-0.0439713
-0.0511523
-0.0521647
-0.0475712
-0.040237
-0.0303392
-0.0207238
-0.011304
-0.00387393
0.00262124
0.00784569
0.0110994
0.0132609
0.0146003
0.0154245
0.0159384
0.0162462
0.0164307
0.0165192
0.0165578
0.016573
0.0171705
0.0171818
0.0171821
0.0171671
0.0171339
0.0170769
0.0169788
0.0167981
0.0164474
0.0157159
0.0143149
0.011899
0.00831863
0.00346756
-0.0027411
-0.00992701
-0.0178904
-0.0259744
-0.0329615
-0.0374595
-0.0380214
-0.0346383
-0.0298221
-0.0235756
-0.0163497
-0.00911843
-0.00241568
0.00309428
0.00784012
0.0110327
0.0131013
0.0143633
0.0151102
0.0155617
0.0158383
0.0159999
0.0160933
0.016143
0.0161734
0.0161978
0.0163015
0.0162434
0.0161549
0.0160405
0.0158979
0.0156998
0.0153896
0.0148745
0.0140209
0.0125743
0.0102376
0.00687696
0.00255939
-0.00268068
-0.00895314
-0.0158494
-0.02294
-0.0292188
-0.0330765
-0.033584
-0.0330193
-0.0285584
-0.0214848
-0.0141229
-0.00656892
3.76482e-05
0.00547947
0.00944851
0.0123202
0.0139461
0.014936
0.0154332
0.0156966
0.0158395
0.0159278
0.0159672
0.0159851
0.0159867
0.0159776
0.0159617
0.0154488
0.0153597
0.0152637
0.0151405
0.0149509
0.0146472
0.0141467
0.0133195
0.0119451
0.00976832
0.00657873
0.00226751
-0.00343889
-0.0103679
-0.0181848
-0.0260415
-0.033283
-0.0387713
-0.0401583
-0.0362663
-0.0311587
-0.0251629
-0.0169655
-0.0078813
0.000233334
0.00666628
0.0114112
0.0141476
0.0157463
0.0162678
0.0163184
0.0162186
0.0160754
0.0159431
0.0158444
0.015772
0.0157301
0.0157106
0.0156949
0.0156736
0.0147248
0.0146873
0.0146177
0.0144825
0.0142224
0.0138022
0.0131427
0.0121394
0.0104659
0.00768701
0.00344943
-0.00250004
-0.0102872
-0.0189958
-0.0281646
-0.0370091
-0.0444582
-0.0496851
-0.0511557
-0.0461755
-0.0359364
-0.0253199
-0.0136442
-0.00281641
0.0051004
0.0109611
0.014741
0.0165923
0.0176749
0.017632
0.0171014
0.0166248
0.0161833
0.0158363
0.0155756
0.0153946
0.0152711
0.0151959
0.0151558
0.0152002
0.0141535
0.0142368
0.0141466
0.0139695
0.0136612
0.0131777
0.0124052
0.0114029
0.00971867
0.0069794
0.00267175
-0.00333618
-0.0116421
-0.0212763
-0.0314207
-0.0413441
-0.0488618
-0.05654
-0.0578413
-0.0490684
-0.037471
-0.024575
-0.0113892
-0.000528136
0.0069748
0.0123036
0.0153304
0.0165737
0.0174518
0.0173803
0.0168149
0.016341
0.0157877
0.0153991
0.0151027
0.0149022
0.0147759
0.0147235
0.0147247
0.0147642
0.013616
0.0136235
0.013582
0.0134699
0.013233
0.012856
0.0122368
0.0113008
0.00977984
0.00748106
0.00398645
-0.000623346
-0.00677691
-0.014474
-0.0231301
-0.0317027
-0.039219
-0.0445146
-0.0465802
-0.0426221
-0.0343357
-0.023654
-0.0128535
-0.00381616
0.00324268
0.00850365
0.0120195
0.0140784
0.0151558
0.0155144
0.0154763
0.0152889
0.0149844
0.0147492
0.0145639
0.0144462
0.014378
0.0143466
0.0143325
0.0143155
0.0131481
0.0131135
0.0130787
0.0130173
0.0128904
0.0126795
0.0123158
0.0117428
0.0107591
0.00924306
0.00687338
0.00355189
-0.000692341
-0.00586746
-0.0118816
-0.018158
-0.0240863
-0.0287116
-0.0312717
-0.0313992
-0.0290281
-0.0239247
-0.0176001
-0.0107725
-0.00433097
0.00117231
0.00563682
0.0088816
0.011101
0.0124927
0.0132405
0.0135873
0.0137151
0.0137561
0.013761
0.0137574
0.0137448
0.0137226
0.0136933
0.0136622
0.0128921
0.0128865
0.0128808
0.0128691
0.0128356
0.012761
0.0126269
0.0124055
0.0119892
0.0112479
0.0100078
0.00810692
0.00535414
0.00184771
-0.00244135
-0.00739794
-0.0126398
-0.0177039
-0.0221707
-0.0254845
-0.0258916
-0.0245793
-0.0211992
-0.0160572
-0.0106865
-0.00558832
-0.00100612
0.00287209
0.00610394
0.00859837
0.0103031
0.0113488
0.0119502
0.0123124
0.0125373
0.0126843
0.0127833
0.0128516
0.0128946
0.012912
0.0127009
0.0127271
0.0127512
0.0127745
0.0128082
0.0128398
0.0128818
0.0129272
0.0129363
0.0128429
0.0125026
0.0117536
0.0101259
0.00759987
0.00375904
-0.00130446
-0.00711849
-0.0126046
-0.0179436
-0.0225886
-0.0254199
-0.0278794
-0.0270038
-0.0230169
-0.0177674
-0.011978
-0.00641417
-0.00155277
0.00235347
0.00536924
0.00767316
0.00929123
0.0103309
0.0109926
0.0114046
0.0116705
0.011852
0.0119941
0.0121064
0.0121847
0.0123718
0.0123894
0.0124219
0.0124687
0.0125506
0.0126897
0.0128924
0.0131535
0.0134843
0.0138813
0.0141974
0.0143313
0.0136392
0.0120399
0.00909726
0.00464328
-0.00122136
-0.00921434
-0.0171207
-0.0238787
-0.0302801
-0.0354397
-0.0355877
-0.0324968
-0.0277298
-0.0212134
-0.0144068
-0.00780977
-0.00208604
0.00229803
0.00549567
0.00775628
0.0092158
0.0101159
0.010668
0.0110142
0.0112209
0.0113401
0.0114235
0.0114974
0.0119442
0.0118841
0.0119111
0.0119935
0.0121327
0.0123419
0.0126349
0.0130275
0.013531
0.0141347
0.0146965
0.0152781
0.0151533
0.0142545
0.0122437
0.0083503
0.0026244
-0.0061274
-0.0160111
-0.0257003
-0.0347215
-0.041834
-0.0426163
-0.039266
-0.034209
-0.0271271
-0.0195788
-0.0120281
-0.00517013
0.000278796
0.00416435
0.00676831
0.00841396
0.00943668
0.0100885
0.0105129
0.010781
0.0109312
0.0110057
0.0110063
0.0115505
0.0115336
0.0115284
0.0115606
0.0116559
0.0118208
0.0120717
0.0124172
0.0128468
0.013325
0.0136846
0.0139705
0.0138114
0.0129216
0.0109989
0.00737054
0.00198532
-0.00572853
-0.0148724
-0.0249698
-0.0330247
-0.0394573
-0.039395
-0.0363793
-0.0314322
-0.0242823
-0.0170236
-0.00970681
-0.00366757
0.000706551
0.0040767
0.00656851
0.00812323
0.00912984
0.00976808
0.0101815
0.010444
0.0105857
0.0106477
0.0105658
0.0110702
0.0111018
0.0111229
0.011145
0.0111813
0.0112403
0.011333
0.0114463
0.0115494
0.0115734
0.0114107
0.0108773
0.00982762
0.00802971
0.00525611
0.00126489
-0.00379061
-0.00966007
-0.0157018
-0.0216268
-0.0260257
-0.0287175
-0.0276406
-0.0246749
-0.0202324
-0.0146703
-0.00925693
-0.00426484
-0.000215765
0.00317135
0.00578176
0.00738586
0.00850096
0.00920522
0.00964674
0.00991437
0.0100723
0.0101512
0.0101759
0.0101752
0.010428
0.0104429
0.0104466
0.0104315
0.0103899
0.010315
0.0101944
0.00999034
0.00963595
0.00901192
0.00794851
0.00629338
0.00398164
0.00105691
-0.00227836
-0.00593439
-0.00995816
-0.0140191
-0.0170217
-0.0190598
-0.0199206
-0.0189253
-0.0160175
-0.0122701
-0.00869023
-0.00489353
-0.00137197
0.0017544
0.00432063
0.00638492
0.00777694
0.00865885
0.00921223
0.00952439
0.00970325
0.0098007
0.00985487
0.00988513
0.0099008
0.00992163
0.00976011
0.00971875
0.00963974
0.00952431
0.00936672
0.00914358
0.00881487
0.00831277
0.0075296
0.00630767
0.00455705
0.00234234
-0.000356879
-0.00362197
-0.00744729
-0.011527
-0.0152843
-0.0180106
-0.0187959
-0.0179507
-0.0167264
-0.0143575
-0.0111423
-0.00672532
-0.00255403
0.00137955
0.00438142
0.00660949
0.00813295
0.00907686
0.00960038
0.00985137
0.00993572
0.00994302
0.009922
0.00989677
0.00987259
0.00984409
0.00982
0.0098053
0.00913185
0.0090476
0.00893469
0.00878722
0.00858767
0.00828851
0.00782603
0.00709711
0.00597574
0.00433162
0.00208683
-0.00100649
-0.00516019
-0.0101819
-0.015427
-0.0202983
-0.0238098
-0.0254439
-0.0247287
-0.0205201
-0.0158613
-0.010775
-0.00625877
-0.00161205
0.00292904
0.00642798
0.00878031
0.0102337
0.0108873
0.0109823
0.0108378
0.0105761
0.0103333
0.0101287
0.00997336
0.0098599
0.00978418
0.00973373
0.00970107
0.00967014
0.00858829
0.00853372
0.00846279
0.00834399
0.00812806
0.00777534
0.00721921
0.00632817
0.00488284
0.00267515
-0.000420257
-0.0047797
-0.0102292
-0.0162909
-0.0223143
-0.0277147
-0.0315827
-0.0329432
-0.0310832
-0.0245344
-0.0171541
-0.00963635
-0.00229672
0.00380894
0.00821276
0.0110137
0.0124418
0.0128974
0.0126364
0.0120499
0.0114455
0.0108528
0.0103959
0.0100398
0.00978879
0.00960394
0.00947675
0.00940157
0.00935992
0.00936217
0.00824047
0.00826892
0.0081986
0.00805088
0.00779747
0.00740781
0.00680829
0.0058688
0.00441966
0.00204119
-0.00102405
-0.00554238
-0.0112095
-0.017517
-0.0237691
-0.0294379
-0.0335841
-0.0346972
-0.0324932
-0.0251015
-0.0173096
-0.00856175
-0.000575731
0.00580561
0.00982015
0.012126
0.0130686
0.0132182
0.0125615
0.011835
0.011208
0.0105286
0.0100713
0.0096346
0.00939349
0.00919197
0.00906021
0.00899409
0.00897696
0.00903871
0.00790476
0.00793163
0.00789827