/*--------------------------------*- C++ -*----------------------------------*\
| =========                 |                                                 |
| \\      /  F ield         | OpenFOAM: The Open Source CFD Toolbox           |
|  \\    /   O peration     | Version:  v2106                                 |
|   \\  /    A nd           | Website:  www.openfoam.com                      |
|    \\/     M anipulation  |                                                 |
\*---------------------------------------------------------------------------*/
FoamFile
{
    version     2.0;
    format      ascii;
    arch        "LSB;label=32;scalar=64";
    class       pointVectorField;
    location    "0";
    object      pointDisplacement;
}
// * * * * * * * * * * * * * * * * * * * * * * * * * * * * * * * * * * * * * //

dimensions      [0 1 0 0 0 0 0];

internalField   nonuniform List<vector> 
24440
(
(0 0 0)
(0 0 0)
(0 0 0)
(0 0 0)
(0 0 0)
(0 0 0)
(0 0 0)
(0 0 0)
(0 0 0)
(0 0 0)
(0 0 0)
(0 0 0)
(0 0 0)
(0 0 0)
(0 0 0)
(0 0 0)
(0 0 0)
(0 0 0)
(0 0 0)
(0 0 0)
(0 0 0)
(0 0 0)
(0 0 0)
(0 0 0)
(0 0 0)
(0 0 0)
(0 0 0)
(0 0 0)
(0 0 0)
(0 0 0)
(0 0 0)
(0 0 0)
(0 0 0)
(0 0 0)
(0 0 0)
(0 0 0)
(0 0 0)
(0 0 0)
(0 0 0)
(0 0 0)
(0 0 0)
(0 0 0)
(0 0 0)
(0 0 0)
(0 0 0)
(0 0 0)
(0 0 0)
(0 0 0)
(0 0 0)
(0 0 0)
(0 0 0)
(0 0 0)
(0 0 0)
(0 0 0)
(0 0 0)
(0 0 0)
(0 0 0)
(0 0 0)
(0 0 0)
(0 0 0)
(0 0 0)
(0 0 0)
(0 0 0)
(0 0 0)
(0 0 0)
(0 0 0)
(0 0 0)
(0 0 0)
(0 0 0)
(0 0 0)
(0 0 0)
(0 0 0)
(0 0 0)
(0 0 0)
(0 0 0)
(0 0 0)
(0 0 0)
(0 0 0)
(0 0 0)
(0 0 0)
(0 0 0)
(0 0 0)
(0 0 0)
(0 0 0)
(0 0 0)
(0 0 0)
(0 0 0)
(0 0 0)
(0 0 0)
(0 0 0)
(0 0 0)
(0 0 0)
(0 0 0)
(0 0 0)
(0 0 0)
(0 0 0)
(0 0 0)
(0 0 0)
(0 5.81813e-06 0)
(0 3.66895e-05 0)
(0 0.000100888 0)
(0 0.000155464 0)
(0 0.000176408 0)
(0 0.000155464 0)
(0 0.000100888 0)
(0 3.66895e-05 0)
(0 5.81813e-06 0)
(0 0 0)
(0 0 0)
(0 0 0)
(0 0 0)
(0 0 0)
(0 0 0)
(0 0 0)
(0 0 0)
(0 0 0)
(0 0 0)
(0 0 0)
(0 0 0)
(0 0 0)
(0 0 0)
(0 0 0)
(0 0 0)
(0 0 0)
(0 0 0)
(0 0 0)
(0 0 0)
(0 0 0)
(0 0 0)
(0 0 0)
(0 0 0)
(0 0 0)
(0 0 0)
(0 0 0)
(0 0 0)
(0 0 0)
(0 9.7438e-06 0)
(0 0.000128894 0)
(0 0.000379326 0)
(0 0.000683331 0)
(0 0.000974708 0)
(0 0.00117784 0)
(0 0.00136667 0)
(0 0.00143311 0)
(0 0.00136667 0)
(0 0.00117784 0)
(0 0.000974708 0)
(0 0.000683331 0)
(0 0.000379326 0)
(0 0.000128894 0)
(0 9.7438e-06 0)
(0 0 0)
(0 0 0)
(0 0 0)
(0 0 0)
(0 0 0)
(0 0 0)
(0 0 0)
(0 0 0)
(0 0 0)
(0 0 0)
(0 0 0)
(0 0 0)
(0 0 0)
(0 0 0)
(0 0 0)
(0 0 0)
(0 0 0)
(0 0 0)
(0 0 0)
(0 0 0)
(0 0 0)
(0 0 0)
(0 0 0)
(0 0 0)
(0 4.09101e-06 0)
(0 0.000169508 0)
(0 0.000578076 0)
(0 0.00113996 0)
(0 0.0017187 0)
(0 0.00236435 0)
(0 0.00292355 0)
(0 0.00326987 0)
(0 0.00360102 0)
(0 0.00371547 0)
(0 0.00360102 0)
(0 0.00326987 0)
(0 0.00292355 0)
(0 0.00236435 0)
(0 0.0017187 0)
(0 0.00113996 0)
(0 0.000578076 0)
(0 0.000169508 0)
(0 4.09101e-06 0)
(0 0 0)
(0 0 0)
(0 0 0)
(0 0 0)
(0 0 0)
(0 0 0)
(0 0 0)
(0 0 0)
(0 0 0)
(0 0 0)
(0 0 0)
(0 0 0)
(0 0 0)
(0 0 0)
(0 0 0)
(0 0 0)
(0 0 0)
(0 0 0)
(0 0 0)
(0 0 0)
(0 0 0)
(0 3.86824e-05 0)
(0 0.000402276 0)
(0 0.00106907 0)
(0 0.0018757 0)
(0 0.00287721 0)
(0 0.00388733 0)
(0 0.0047624 0)
(0 0.00558214 0)
(0 0.00616383 0)
(0 0.00651138 0)
(0 0.00667091 0)
(0 0.00651138 0)
(0 0.00616383 0)
(0 0.00558214 0)
(0 0.0047624 0)
(0 0.00388733 0)
(0 0.00287721 0)
(0 0.0018757 0)
(0 0.00106907 0)
(0 0.000402276 0)
(0 4.09519e-05 0)
(0 0 0)
(0 0 0)
(0 0 0)
(0 0 0)
(0 0 0)
(0 0 0)
(0 0 0)
(0 0 0)
(0 0 0)
(0 0 0)
(0 0 0)
(0 0 0)
(0 0 0)
(0 0 0)
(0 0 0)
(0 0 0)
(0 0 0)
(0 0 0)
(0 0 0)
(0 7.60797e-05 0)
(0 0.00053347 0)
(0 0.00133148 0)
(0 0.00244438 0)
(0 0.00376704 0)
(0 0.00514147 0)
(0 0.00640276 0)
(0 0.00759848 0)
(0 0.00804779 0)
(0 0.00853367 0)
(0 0.0089401 0)
(0 0.00926032 0)
(0 0.0094893 0)
(0 0.00964764 0)
(0 0.00979392 0)
(0 0.00984291 0)
(0 0.00979392 0)
(0 0.00964764 0)
(0 0.0094893 0)
(0 0.00926032 0)
(0 0.0089401 0)
(0 0.00853367 0)
(0 0.00804779 0)
(0 0.00759848 0)
(0 0.00640276 0)
(0 0.00514147 0)
(0 0.00376704 0)
(0 0.00244438 0)
(0 0.00130384 0)
(0 0.000482044 0)
(0 6.07927e-05 0)
(0 0 0)
(0 0 0)
(0 0 0)
(0 0 0)
(0 0 0)
(0 0 0)
(0 0 0)
(0 0 0)
(0 0 0)
(0 0 0)
(0 0 0)
(0 0 0)
(0 0 0)
(0 0 0)
(0 0 0)
(0 0 0)
(0 0 0)
(0 4.47488e-05 0)
(0 0.000512103 0)
(0 0.00142681 0)
(0 0.00268484 0)
(0 0.00415841 0)
(0 0.00589218 0)
(0 0.00672118 0)
(0 0.00745598 0)
(0 0.00826925 0)
(0 0.00903155 0)
(0 0.00972899 0)
(0 0.0103215 0)
(0 0.00899534 0)
(0 0.00954456 0)
(0 0.00997801 0)
(0 0.0104152 0)
(0 0.0107582 0)
(0 0.0110026 0)
(0 0.0111491 0)
(0 0.0113044 0)
(0 0.0113563 0)
(0 0.0113044 0)
(0 0.0111491 0)
(0 0.0110026 0)
(0 0.0107582 0)
(0 0.0104152 0)
(0 0.00997801 0)
(0 0.00954456 0)
(0 0.00899534 0)
(0 0.0103215 0)
(0 0.00972899 0)
(0 0.00903155 0)
(0 0.00826925 0)
(0 0.00745598 0)
(0 0.00672118 0)
(0 0.00589218 0)
(0 0.00415841 0)
(0 0.00268484 0)
(0 0.00137476 0)
(0 0.000489822 0)
(0 4.06384e-05 0)
(0 0 0)
(0 0 0)
(0 0 0)
(0 0 0)
(0 0 0)
(0 0 0)
(0 0 0)
(0 0 0)
(0 0 0)
(0 0 0)
(0 0 0)
(0 0 0)
(0 0 0)
(0 0 0)
(0 0 0)
(0 0 0)
(0 0.000283134 0)
(0 0.00115707 0)
(0 0.00247365 0)
(0 0.00412743 0)
(0 0.00596937 0)
(0 0.00784098 0)
(0 0.00690149 0)
(0 0.00780299 0)
(0 0.00867046 0)
(0 0.00948726 0)
(0 0.010213 0)
(0 0.0109489 0)
(0 0.0115993 0)
(0 0.0121366 0)
(0 0.0109051 0)
(0 0.0113966 0)
(0 0.0126432 0)
(0 0.013008 0)
(0 0.0117877 0)
(0 0.0121455 0)
(0 0.0133708 0)
(0 0.0136262 0)
(0 0.0123993 0)
(0 0.012528 0)
(0 0.0137742 0)
(0 0.0138917 0)
(0 0.0126881 0)
(0 0.0127415 0)
(0 0.0139447 0)
(0 0.0138917 0)
(0 0.0126881 0)
(0 0.012528 0)
(0 0.0137742 0)
(0 0.0136262 0)
(0 0.0123993 0)
(0 0.0121455 0)
(0 0.0133708 0)
(0 0.013008 0)
(0 0.0117877 0)
(0 0.0113966 0)
(0 0.0126432 0)
(0 0.0121366 0)
(0 0.0109051 0)
(0 0.0115993 0)
(0 0.0109489 0)
(0 0.010213 0)
(0 0.00948726 0)
(0 0.00867046 0)
(0 0.00780299 0)
(0 0.00690149 0)
(0 0.00784098 0)
(0 0.00596937 0)
(0 0.00407775 0)
(0 0.00245413 0)
(0 0.00115583 0)
(0 0.000307812 0)
(0 0 0)
(0 0 0)
(0 0 0)
(0 0 0)
(0 0 0)
(0 0 0)
(0 0 0)
(0 0 0)
(0 0 0)
(0 0 0)
(0 0 0)
(0 0 0)
(0 0 0)
(0 0 0)
(0 0 0)
(0 6.17654e-05 0)
(0 0.000634559 0)
(0 0.00182911 0)
(0 0.00342701 0)
(0 0.00532664 0)
(0 0.00750303 0)
(0 0.0095994 0)
(0 0.00878356 0)
(0 0.00973326 0)
(0 0.00873965 0)
(0 0.00971711 0)
(0 0.0106259 0)
(0 0.0115214 0)
(0 0.0105773 0)
(0 0.011363 0)
(0 0.0123288 0)
(0 0.012697 0)
(0 0.0130397 0)
(0 0.0125737 0)
(0 0.0120261 0)
(0 0.0126935 0)
(0 0.0131721 0)
(0 0.0134677 0)
(0 0.012989 0)
(0 0.0137078 0)
(0 0.0141617 0)
(0 0.0143718 0)
(0 0.013921 0)
(0 0.014391 0)
(0 0.0148352 0)
(0 0.0149459 0)
(0 0.0145278 0)
(0 0.0147792 0)
(0 0.0151862 0)
(0 0.0152441 0)
(0 0.0148466 0)
(0 0.0149189 0)
(0 0.0153079 0)
(0 0.0152962 0)
(0 0.0149065 0)
(0 0.0147792 0)
(0 0.0151862 0)
(0 0.0151313 0)
(0 0.0147215 0)
(0 0.014391 0)
(0 0.0148352 0)
(0 0.014708 0)
(0 0.014265 0)
(0 0.0137078 0)
(0 0.0141617 0)
(0 0.0139763 0)
(0 0.013467 0)
(0 0.0126935 0)
(0 0.0131721 0)
(0 0.0128496 0)
(0 0.0123722 0)
(0 0.011363 0)
(0 0.0123288 0)
(0 0.0115214 0)
(0 0.0105773 0)
(0 0.00971711 0)
(0 0.0106259 0)
(0 0.00973326 0)
(0 0.00873965 0)
(0 0.00878356 0)
(0 0.00955616 0)
(0 0.00749785 0)
(0 0.00541249 0)
(0 0.00339823 0)
(0 0.0018113 0)
(0 0.000666363 0)
(0 7.06319e-05 0)
(0 0 0)
(0 0 0)
(0 0 0)
(0 0 0)
(0 0 0)
(0 0 0)
(0 0 0)
(0 0 0)
(0 0 0)
(0 0 0)
(0 0 0)
(0 0 0)
(0 0 0)
(0 0 0)
(0 0.000202082 0)
(0 0.00102275 0)
(0 0.002403 0)
(0 0.00422239 0)
(0 0.00632496 0)
(0 0.00863757 0)
(0 0.0107959 0)
(0 0.0102634 0)
(0 0.0112791 0)
(0 0.0105878 0)
(0 0.0115107 0)
(0 0.012221 0)
(0 0.0130718 0)
(0 0.0123513 0)
(0 0.0130959 0)
(0 0.0134817 0)
(0 0.0138134 0)
(0 0.0134812 0)
(0 0.0144185 0)
(0 0.0145781 0)
(0 0.0147069 0)
(0 0.0145487 0)
(0 0.0152634 0)
(0 0.0153911 0)
(0 0.0154739 0)
(0 0.0153489 0)
(0 0.0157636 0)
(0 0.0158566 0)
(0 0.0158988 0)
(0 0.0158051 0)
(0 0.0159828 0)
(0 0.016051 0)
(0 0.0160607 0)
(0 0.0159945 0)
(0 0.0160388 0)
(0 0.0160938 0)
(0 0.0160929 0)
(0 0.0160375 0)
(0 0.0159828 0)
(0 0.016051 0)
(0 0.0160375 0)
(0 0.0159668 0)
(0 0.0157636 0)
(0 0.0158566 0)
(0 0.0158212 0)
(0 0.0157136 0)
(0 0.0152634 0)
(0 0.0153911 0)
(0 0.0153189 0)
(0 0.0151704 0)
(0 0.0144185 0)
(0 0.0145781 0)
(0 0.0147241 0)
(0 0.0144463 0)
(0 0.0141355 0)
(0 0.0130959 0)
(0 0.0134817 0)
(0 0.0138167 0)
(0 0.0130718 0)
(0 0.0123513 0)
(0 0.0115107 0)
(0 0.0121931 0)
(0 0.0112718 0)
(0 0.0105878 0)
(0 0.0102757 0)
(0 0.0108279 0)
(0 0.00861586 0)
(0 0.00638797 0)
(0 0.00426666 0)
(0 0.00243084 0)
(0 0.00103734 0)
(0 0.000207067 0)
(0 0 0)
(0 0 0)
(0 0 0)
(0 0 0)
(0 0 0)
(0 0 0)
(0 0 0)
(0 0 0)
(0 0 0)
(0 0 0)
(0 0 0)
(0 0 0)
(0 0 0)
(0 0 0)
(0 0.000311605 0)
(0 0.00127054 0)
(0 0.00279596 0)
(0 0.00475907 0)
(0 0.00699452 0)
(0 0.00931449 0)
(0 0.0115248 0)
(0 0.0112509 0)
(0 0.0122586 0)
(0 0.0117908 0)
(0 0.012703 0)
(0 0.0131766 0)
(0 0.0139869 0)
(0 0.0135955 0)
(0 0.0143332 0)
(0 0.0145154 0)
(0 0.0148329 0)
(0 0.0146549 0)
(0 0.0154193 0)
(0 0.0155035 0)
(0 0.0155985 0)
(0 0.0155169 0)
(0 0.0160052 0)
(0 0.0160458 0)
(0 0.0160797 0)
(0 0.0160439 0)
(0 0.0161455 0)
(0 0.0161455 0)
(0 0.0161455 0)
(0 0.0161455 0)
(0 0.0161455 0)
(0 0.0161455 0)
(0 0.0161455 0)
(0 0.0161455 0)
(0 0.0161455 0)
(0 0.0161455 0)
(0 0.0161455 0)
(0 0.0161455 0)
(0 0.0161455 0)
(0 0.0161455 0)
(0 0.0161455 0)
(0 0.0161455 0)
(0 0.0161455 0)
(0 0.0161455 0)
(0 0.0161455 0)
(0 0.0161455 0)
(0 0.0160052 0)
(0 0.0160458 0)
(0 0.016001 0)
(0 0.0159586 0)
(0 0.0154193 0)
(0 0.0155035 0)
(0 0.0155754 0)
(0 0.0153558 0)
(0 0.0151985 0)
(0 0.0143249 0)
(0 0.0145366 0)
(0 0.0146982 0)
(0 0.0139675 0)
(0 0.0136076 0)
(0 0.0127754 0)
(0 0.0131602 0)
(0 0.0122456 0)
(0 0.0118429 0)
(0 0.0112414 0)
(0 0.0115305 0)
(0 0.00931066 0)
(0 0.0069834 0)
(0 0.0047438 0)
(0 0.00278004 0)
(0 0.00125736 0)
(0 0.000304124 0)
(0 0 0)
(0 0 0)
(0 0 0)
(0 0 0)
(0 0 0)
(0 0 0)
(0 0 0)
(0 0 0)
(0 0 0)
(0 0 0)
(0 0 0)
(0 0 0)
(0 0 0)
(0 0 0)
(0 0.000330371 0)
(0 0.00131115 0)
(0 0.00285998 0)
(0 0.00484673 0)
(0 0.00710444 0)
(0 0.00944344 0)
(0 0.0116672 0)
(0 0.0116713 0)
(0 0.01268 0)
(0 0.0125305 0)
(0 0.0134417 0)
(0 0.0135914 0)
(0 0.0143862 0)
(0 0.0142398 0)
(0 0.0149345 0)
(0 0.0150017 0)
(0 0.0152802 0)
(0 0.0152197 0)
(0 0.0158484 0)
(0 0.0158743 0)
(0 0.015943 0)
(0 0.0159191 0)
(0 0.0161455 0)
(0 0.0161455 0)
(0 0.0161455 0)
(0 0.0161455 0)
(0 0.0161455 0)
(0 0.0161455 0)
(0 0.0161455 0)
(0 0.0161455 0)
(0 0.0161455 0)
(0 0.0161455 0)
(0 0.0161455 0)
(0 0.0161455 0)
(0 0.0161455 0)
(0 0.0161455 0)
(0 0.0161455 0)
(0 0.0161455 0)
(0 0.0161455 0)
(0 0.0161448 0)
(0 0.0161425 0)
(0 0.0158484 0)
(0 0.0158743 0)
(0 0.0158914 0)
(0 0.0157299 0)
(0 0.015673 0)
(0 0.0149336 0)
(0 0.0150026 0)
(0 0.0150478 0)
(0 0.0143862 0)
(0 0.0142605 0)
(0 0.0134577 0)
(0 0.0135571 0)
(0 0.0126407 0)
(0 0.0125414 0)
(0 0.0116278 0)
(0 0.0116411 0)
(0 0.0094144 0)
(0 0.00707495 0)
(0 0.00481934 0)
(0 0.00283708 0)
(0 0.00129472 0)
(0 0.000321858 0)
(0 0 0)
(0 0 0)
(0 0 0)
(0 0 0)
(0 0 0)
(0 0 0)
(0 0 0)
(0 0 0)
(0 0 0)
(0 0 0)
(0 0 0)
(0 0 0)
(0 0 0)
(0 0 0)
(0 0.00026999 0)
(0 0.00117997 0)
(0 0.00265465 0)
(0 0.00456825 0)
(0 0.00675875 0)
(0 0.00904199 0)
(0 0.0112279 0)
(0 0.0115433 0)
(0 0.0125503 0)
(0 0.0126767 0)
(0 0.0135889 0)
(0 0.0134625 0)
(0 0.0142611 0)
(0 0.0143847 0)
(0 0.0150472 0)
(0 0.0150118 0)
(0 0.0152902 0)
(0 0.015324 0)
(0 0.0159197 0)
(0 0.0159113 0)
(0 0.0159757 0)
(0 0.0159834 0)
(0 0.0161455 0)
(0 0.0161455 0)
(0 0.0161455 0)
(0 0.0161455 0)
(0 0.0161455 0)
(0 0.0161455 0)
(0 0.0161455 0)
(0 0.0161455 0)
(0 0.0161455 0)
(0 0.0161455 0)
(0 0.0161455 0)
(0 0.0161455 0)
(0 0.0161455 0)
(0 0.0161455 0)
(0 0.0161455 0)
(0 0.0161455 0)
(0 0.0159197 0)
(0 0.0159044 0)
(0 0.015896 0)
(0 0.0157349 0)
(0 0.0157533 0)
(0 0.0150332 0)
(0 0.0150106 0)
(0 0.0149421 0)
(0 0.0142708 0)
(0 0.0143671 0)
(0 0.013568 0)
(0 0.0134696 0)
(0 0.0125546 0)
(0 0.0126529 0)
(0 0.0115447 0)
(0 0.0112564 0)
(0 0.00906296 0)
(0 0.00677245 0)
(0 0.00457579 0)
(0 0.00265765 0)
(0 0.00118026 0)
(0 0.0002694 0)
(0 0 0)
(0 0 0)
(0 0 0)
(0 0 0)
(0 0 0)
(0 0 0)
(0 0 0)
(0 0 0)
(0 0 0)
(0 0 0)
(0 0 0)
(0 0 0)
(0 0 0)
(0 0 0)
(0 0.000136557 0)
(0 0.000857739 0)
(0 0.00213345 0)
(0 0.00384913 0)
(0 0.00598431 0)
(0 0.00816766 0)
(0 0.0102973 0)
(0 0.0108621 0)
(0 0.0118717 0)
(0 0.0122275 0)
(0 0.0131976 0)
(0 0.012798 0)
(0 0.0136237 0)
(0 0.0140205 0)
(0 0.0147194 0)
(0 0.0145519 0)
(0 0.0148556 0)
(0 0.0150183 0)
(0 0.0157003 0)
(0 0.0156526 0)
(0 0.0157393 0)
(0 0.0157901 0)
(0 0.0161259 0)
(0 0.0161094 0)
(0 0.0161291 0)
(0 0.0161394 0)
(0 0.0161455 0)
(0 0.0161455 0)
(0 0.0161455 0)
(0 0.0161455 0)
(0 0.0161455 0)
(0 0.0161455 0)
(0 0.0161455 0)
(0 0.0161455 0)
(0 0.0161259 0)
(0 0.0161069 0)
(0 0.0160807 0)
(0 0.0161042 0)
(0 0.0157003 0)
(0 0.0156526 0)
(0 0.0155879 0)
(0 0.0153826 0)
(0 0.0155093 0)
(0 0.0147194 0)
(0 0.0145519 0)
(0 0.0143617 0)
(0 0.0136237 0)
(0 0.0140205 0)
(0 0.013173 0)
(0 0.012798 0)
(0 0.0118717 0)
(0 0.0122596 0)
(0 0.0108621 0)
(0 0.0102973 0)
(0 0.00816766 0)
(0 0.00590719 0)
(0 0.00388697 0)
(0 0.00215826 0)
(0 0.000871322 0)
(0 0.000141146 0)
(0 0 0)
(0 0 0)
(0 0 0)
(0 0 0)
(0 0 0)
(0 0 0)
(0 0 0)
(0 0 0)
(0 0 0)
(0 0 0)
(0 0 0)
(0 0 0)
(0 0 0)
(0 0 0)
(0 1.68969e-05 0)
(0 0.00050158 0)
(0 0.00152737 0)
(0 0.00300343 0)
(0 0.00479482 0)
(0 0.00674432 0)
(0 0.00879003 0)
(0 0.0095657 0)
(0 0.0106059 0)
(0 0.0112879 0)
(0 0.0122515 0)
(0 0.0115165 0)
(0 0.0124285 0)
(0 0.0130894 0)
(0 0.0138593 0)
(0 0.0135506 0)
(0 0.0138906 0)
(0 0.0141967 0)
(0 0.015023 0)
(0 0.0148855 0)
(0 0.0150106 0)
(0 0.0151248 0)
(0 0.0157533 0)
(0 0.0156628 0)
(0 0.0157288 0)
(0 0.0158158 0)
(0 0.0160798 0)
(0 0.0160292 0)
(0 0.0160514 0)
(0 0.0160976 0)
(0 0.0161455 0)
(0 0.0161365 0)
(0 0.01614 0)
(0 0.0161455 0)
(0 0.0161455 0)
(0 0.0161455 0)
(0 0.0161455 0)
(0 0.0161455 0)
(0 0.0161455 0)
(0 0.0161455 0)
(0 0.0161365 0)
(0 0.0161315 0)
(0 0.0161449 0)
(0 0.0161453 0)
(0 0.0160798 0)
(0 0.0160292 0)
(0 0.0160018 0)
(0 0.0160569 0)
(0 0.0157533 0)
(0 0.0156628 0)
(0 0.0155893 0)
(0 0.015683 0)
(0 0.0150341 0)
(0 0.0149079 0)
(0 0.0147562 0)
(0 0.0145054 0)
(0 0.0147781 0)
(0 0.0138212 0)
(0 0.0135349 0)
(0 0.0132004 0)
(0 0.0124114 0)
(0 0.0130894 0)
(0 0.0122515 0)
(0 0.0115165 0)
(0 0.0106059 0)
(0 0.0112879 0)
(0 0.0095657 0)
(0 0.00879003 0)
(0 0.00674432 0)
(0 0.00479482 0)
(0 0.00300343 0)
(0 0.00152737 0)
(0 0.000467874 0)
(0 2.02962e-05 0)
(0 0 0)
(0 0 0)
(0 0 0)
(0 0 0)
(0 0 0)
(0 0 0)
(0 0 0)
(0 0 0)
(0 0 0)
(0 0 0)
(0 0 0)
(0 0 0)
(0 0 0)
(0 0 0)
(0 0 0)
(0 0.000154171 0)
(0 0.000812425 0)
(0 0.00191145 0)
(0 0.00333662 0)
(0 0.00511728 0)
(0 0.00695838 0)
(0 0.00782689 0)
(0 0.00885175 0)
(0 0.00972814 0)
(0 0.0106783 0)
(0 0.00977439 0)
(0 0.010637 0)
(0 0.0115713 0)
(0 0.0123799 0)
(0 0.0114245 0)
(0 0.0120838 0)
(0 0.0126312 0)
(0 0.0130913 0)
(0 0.0127484 0)
(0 0.0137031 0)
(0 0.0132247 0)
(0 0.0135204 0)
(0 0.0139737 0)
(0 0.0146509 0)
(0 0.0142408 0)
(0 0.0144048 0)
(0 0.01483 0)
(0 0.0152511 0)
(0 0.0148876 0)
(0 0.0149944 0)
(0 0.0153518 0)
(0 0.0155624 0)
(0 0.015227 0)
(0 0.0152861 0)
(0 0.0156036 0)
(0 0.0156588 0)
(0 0.015349 0)
(0 0.015333 0)
(0 0.0156461 0)
(0 0.0155624 0)
(0 0.015227 0)
(0 0.015143 0)
(0 0.0154977 0)
(0 0.0152511 0)
(0 0.0148876 0)
(0 0.0147542 0)
(0 0.0151241 0)
(0 0.0146509 0)
(0 0.0142408 0)
(0 0.0140287 0)
(0 0.0144434 0)
(0 0.0137031 0)
(0 0.0132247 0)
(0 0.0129471 0)
(0 0.0134076 0)
(0 0.0123799 0)
(0 0.0114245 0)
(0 0.010637 0)
(0 0.0115713 0)
(0 0.0106783 0)
(0 0.00977439 0)
(0 0.00885175 0)
(0 0.00972814 0)
(0 0.00782689 0)
(0 0.00695838 0)
(0 0.00511728 0)
(0 0.00333662 0)
(0 0.00191145 0)
(0 0.000812425 0)
(0 0.000154171 0)
(0 0 0)
(0 0 0)
(0 0 0)
(0 0 0)
(0 0 0)
(0 0 0)
(0 0 0)
(0 0 0)
(0 0 0)
(0 0 0)
(0 0 0)
(0 0 0)
(0 0 0)
(0 0 0)
(0 0 0)
(0 0 0)
(0 0 0)
(0 0.000232329 0)
(0 0.000959346 0)
(0 0.00205657 0)
(0 0.00341733 0)
(0 0.00490782 0)
(0 0.00637915 0)
(0 0.00752094 0)
(0 0.00873506 0)
(0 0.00786396 0)
(0 0.00833805 0)
(0 0.009555 0)
(0 0.0102782 0)
(0 0.00910368 0)
(0 0.00980393 0)
(0 0.0110163 0)
(0 0.0116682 0)
(0 0.0110649 0)
(0 0.0112978 0)
(0 0.011959 0)
(0 0.0127009 0)
(0 0.0121078 0)
(0 0.0123279 0)
(0 0.0129228 0)
(0 0.0134282 0)
(0 0.0128316 0)
(0 0.01293 0)
(0 0.013543 0)
(0 0.0138644 0)
(0 0.0132915 0)
(0 0.0133584 0)
(0 0.0139307 0)
(0 0.0140087 0)
(0 0.0134394 0)
(0 0.0134119 0)
(0 0.0139837 0)
(0 0.0138644 0)
(0 0.0132915 0)
(0 0.0131977 0)
(0 0.0137712 0)
(0 0.0134282 0)
(0 0.0128316 0)
(0 0.0126901 0)
(0 0.0132866 0)
(0 0.0127009 0)
(0 0.0121078 0)
(0 0.0118623 0)
(0 0.012453 0)
(0 0.0116682 0)
(0 0.0110649 0)
(0 0.0103677 0)
(0 0.00980393 0)
(0 0.0110163 0)
(0 0.0102782 0)
(0 0.00910368 0)
(0 0.00833805 0)
(0 0.009555 0)
(0 0.00873506 0)
(0 0.00752094 0)
(0 0.00637915 0)
(0 0.00490782 0)
(0 0.00786396 0)
(0 0.00341733 0)
(0 0.00205657 0)
(0 0.000959346 0)
(0 0.000232329 0)
(0 0 0)
(0 0 0)
(0 0 0)
(0 0 0)
(0 0 0)
(0 0 0)
(0 0 0)
(0 0 0)
(0 0 0)
(0 0 0)
(0 0 0)
(0 0 0)
(0 0 0)
(0 0 0)
(0 0 0)
(0 0 0)
(0 0 0)
(0 0 0)
(0 2.94623e-06 0)
(0 0.000263934 0)
(0 0.000894387 0)
(0 0.00175268 0)
(0 0.00286876 0)
(0 0.00405905 0)
(0 0.00520989 0)
(0 0.00588172 0)
(0 0.00712875 0)
(0 0.00783575 0)
(0 0.00644804 0)
(0 0.00708698 0)
(0 0.0084183 0)
(0 0.00905703 0)
(0 0.00837067 0)
(0 0.00865161 0)
(0 0.0093491 0)
(0 0.010102 0)
(0 0.00937775 0)
(0 0.0095776 0)
(0 0.0103087 0)
(0 0.010777 0)
(0 0.0100518 0)
(0 0.0102132 0)
(0 0.0109432 0)
(0 0.0112914 0)
(0 0.0105521 0)
(0 0.0106154 0)
(0 0.0113563 0)
(0 0.0114418 0)
(0 0.010701 0)
(0 0.0106661 0)
(0 0.0114083 0)
(0 0.0112914 0)
(0 0.0105521 0)
(0 0.0104638 0)
(0 0.0112007 0)
(0 0.010777 0)
(0 0.0100518 0)
(0 0.00986688 0)
(0 0.0106512 0)
(0 0.010102 0)
(0 0.00937775 0)
(0 0.0091562 0)
(0 0.00987262 0)
(0 0.00905703 0)
(0 0.00837067 0)
(0 0.00767189 0)
(0 0.00708698 0)
(0 0.0084183 0)
(0 0.00783575 0)
(0 0.00644804 0)
(0 0.00588172 0)
(0 0.00712875 0)
(0 0.00520989 0)
(0 0.00405905 0)
(0 0.00286876 0)
(0 0.00175268 0)
(0 0.000894387 0)
(0 0.000263934 0)
(0 2.94623e-06 0)
(0 0 0)
(0 0 0)
(0 0 0)
(0 0 0)
(0 0 0)
(0 0 0)
(0 0 0)
(0 0 0)
(0 0 0)
(0 0 0)
(0 0 0)
(0 0 0)
(0 0 0)
(0 0 0)
(0 0 0)
(0 0 0)
(0 0 0)
(0 0 0)
(0 0 0)
(0 0 0)
(0 0.000138609 0)
(0 0.000577302 0)
(0 0.0011695 0)
(0 0.00196922 0)
(0 0.00291179 0)
(0 0.00343348 0)
(0 0.00457509 0)
(0 0.00517423 0)
(0 0.00394472 0)
(0 0.00443266 0)
(0 0.00574114 0)
(0 0.00626341 0)
(0 0.00556722 0)
(0 0.00579295 0)
(0 0.00650431 0)
(0 0.00713154 0)
(0 0.00638216 0)
(0 0.00648969 0)
(0 0.00722844 0)
(0 0.00777384 0)
(0 0.0070047 0)
(0 0.00713941 0)
(0 0.00791625 0)
(0 0.00821634 0)
(0 0.00742365 0)
(0 0.00747695 0)
(0 0.00827255 0)
(0 0.00835446 0)
(0 0.00755646 0)
(0 0.00751974 0)
(0 0.00831768 0)
(0 0.00821634 0)
(0 0.00742365 0)
(0 0.00734938 0)
(0 0.00813798 0)
(0 0.00777384 0)
(0 0.0070047 0)
(0 0.00685099 0)
(0 0.00761123 0)
(0 0.00713154 0)
(0 0.00638216 0)
(0 0.00620149 0)
(0 0.00693946 0)
(0 0.00626341 0)
(0 0.00556722 0)
(0 0.00488546 0)
(0 0.00443266 0)
(0 0.00574114 0)
(0 0.00517423 0)
(0 0.00394472 0)
(0 0.00343348 0)
(0 0.00457509 0)
(0 0.00291179 0)
(0 0.00196922 0)
(0 0.0011695 0)
(0 0.000577302 0)
(0 0.000138609 0)
(0 0 0)
(0 0 0)
(0 0 0)
(0 0 0)
(0 0 0)
(0 0 0)
(0 0 0)
(0 0 0)
(0 0 0)
(0 0 0)
(0 0 0)
(0 0 0)
(0 0 0)
(0 0 0)
(0 0 0)
(0 0 0)
(0 0 0)
(0 0 0)
(0 0 0)
(0 0 0)
(0 0 0)
(0 0 0)
(0 0 0)
(0 1.18037e-05 0)
(0 0.000200218 0)
(0 0.00055878 0)
(0 0.0011722 0)
(0 0.00149133 0)
(0 0.00239055 0)
(0 0.0028093 0)
(0 0.00181539 0)
(0 0.0021334 0)
(0 0.00321352 0)
(0 0.0035921 0)
(0 0.00299347 0)
(0 0.00315272 0)
(0 0.00376858 0)
(0 0.00419366 0)
(0 0.00354922 0)
(0 0.00369863 0)
(0 0.00435783 0)
(0 0.00477154 0)
(0 0.00407619 0)
(0 0.00417578 0)
(0 0.00488041 0)
(0 0.005111 0)
(0 0.00438703 0)
(0 0.0044268 0)
(0 0.00515436 0)
(0 0.00522362 0)
(0 0.00449173 0)
(0 0.00445878 0)
(0 0.00518921 0)
(0 0.005111 0)
(0 0.00438703 0)
(0 0.00433169 0)
(0 0.00505064 0)
(0 0.00477154 0)
(0 0.00407619 0)
(0 0.00396297 0)
(0 0.00464765 0)
(0 0.00419366 0)
(0 0.00354922 0)
(0 0.0033896 0)
(0 0.00401795 0)
(0 0.0035921 0)
(0 0.00299347 0)
(0 0.00243512 0)
(0 0.0021334 0)
(0 0.00321352 0)
(0 0.0028093 0)
(0 0.00181539 0)
(0 0.00149133 0)
(0 0.00239055 0)
(0 0.0011722 0)
(0 0.00055878 0)
(0 0.000200218 0)
(0 1.18037e-05 0)
(0 0 0)
(0 0 0)
(0 0 0)
(0 0 0)
(0 0 0)
(0 0 0)
(0 0 0)
(0 0 0)
(0 0 0)
(0 0 0)
(0 0 0)
(0 0 0)
(0 0 0)
(0 0 0)
(0 0 0)
(0 0 0)
(0 0 0)
(0 0 0)
(0 0 0)
(0 0 0)
(0 0 0)
(0 0 0)
(0 0 0)
(0 0 0)
(0 0 0)
(0 0 0)
(0 2.13965e-06 0)
(0 0.000160751 0)
(0 0.000279999 0)
(0 0.000776409 0)
(0 0.00100594 0)
(0 0.000417511 0)
(0 0.000564566 0)
(0 0.00123751 0)
(0 0.00146182 0)
(0 0.00100625 0)
(0 0.00110926 0)
(0 0.00151705 0)
(0 0.00186268 0)
(0 0.00140182 0)
(0 0.00149063 0)
(0 0.00196666 0)
(0 0.00223255 0)
(0 0.00171912 0)
(0 0.00178031 0)
(0 0.00230339 0)
(0 0.00245456 0)
(0 0.00191126 0)
(0 0.00193608 0)
(0 0.00248316 0)
(0 0.00253289 0)
(0 0.00198016 0)
(0 0.00195608 0)
(0 0.00250617 0)
(0 0.00245456 0)
(0 0.00191126 0)
(0 0.0018768 0)
(0 0.00241484 0)
(0 0.00223255 0)
(0 0.00171912 0)
(0 0.00165002 0)
(0 0.00215236 0)
(0 0.00186268 0)
(0 0.00140182 0)
(0 0.00130804 0)
(0 0.00175244 0)
(0 0.00146182 0)
(0 0.00100625 0)
(0 0.000676663 0)
(0 0.000564566 0)
(0 0.00123751 0)
(0 0.00100594 0)
(0 0.000417511 0)
(0 0.000279999 0)
(0 0.000776409 0)
(0 0.000160751 0)
(0 2.13965e-06 0)
(0 0 0)
(0 0 0)
(0 0 0)
(0 0 0)
(0 0 0)
(0 0 0)
(0 0 0)
(0 0 0)
(0 0 0)
(0 0 0)
(0 0 0)
(0 0 0)
(0 0 0)
(0 0 0)
(0 0 0)
(0 0 0)
(0 0 0)
(0 0 0)
(0 0 0)
(0 0 0)
(0 0 0)
(0 0 0)
(0 0 0)
(0 0 0)
(0 0 0)
(0 0 0)
(0 0 0)
(0 0 0)
(0 0 0)
(0 0 0)
(0 0 0)
(0 7.85812e-05 0)
(0 2.84219e-05 0)
(0 0 0)
(0 0.000123568 0)
(0 0.000206437 0)
(0 6.32004e-06 0)
(0 2.76246e-05 0)
(0 0.000297492 0)
(0 0.000389758 0)
(0 5.82502e-05 0)
(0 9.27511e-05 0)
(0 0.00047694 0)
(0 0.00055357 0)
(0 0.000126373 0)
(0 0.000155169 0)
(0 0.000615127 0)
(0 0.000658136 0)
(0 0.000176096 0)
(0 0.000187085 0)
(0 0.000680239 0)
(0 0.000697924 0)
(0 0.000196472 0)
(0 0.000187085 0)
(0 0.000680239 0)
(0 0.000658136 0)
(0 0.000176096 0)
(0 0.000155169 0)
(0 0.000615127 0)
(0 0.00055357 0)
(0 0.000126373 0)
(0 9.27511e-05 0)
(0 0.00047694 0)
(0 0.000389758 0)
(0 5.82502e-05 0)
(0 2.76246e-05 0)
(0 0.000297492 0)
(0 0.000206437 0)
(0 6.32004e-06 0)
(0 0 0)
(0 0.000123568 0)
(0 7.85812e-05 0)
(0 0 0)
(0 0 0)
(0 0 0)
(0 2.84219e-05 0)
(0 0 0)
(0 0 0)
(0 0 0)
(0 0 0)
(0 0 0)
(0 0 0)
(0 0 0)
(0 0 0)
(0 0 0)
(0 0 0)
(0 0 0)
(0 0 0)
(0 0 0)
(0 0 0)
(0 0 0)
(0 0 0)
(0 0 0)
(0 0 0)
(0 0 0)
(0 0 0)
(0 0 0)
(0 0 0)
(0 0 0)
(0 0 0)
(0 0 0)
(0 0 0)
(0 0 0)
(0 0 0)
(0 0 0)
(0 0 0)
(0 0 0)
(0 0 0)
(0 0 0)
(0 0 0)
(0 0 0)
(0 0 0)
(0 0 0)
(0 0 0)
(0 0 0)
(0 0 0)
(0 5.67977e-07 0)
(0 0 0)
(0 0 0)
(0 2.18576e-06 0)
(0 1.30049e-06 0)
(0 0 0)
(0 5.67977e-07 0)
(0 1.30049e-06 0)
(0 0 0)
(0 0 0)
(0 0 0)
(0 0 0)
(0 0 0)
(0 0 0)
(0 0 0)
(0 0 0)
(0 0 0)
(0 0 0)
(0 0 0)
(0 0 0)
(0 0 0)
(0 0 0)
(0 0 0)
(0 0 0)
(0 0 0)
(0 0 0)
(0 0 0)
(0 0 0)
(0 0 0)
(0 0 0)
(0 0 0)
(0 0 0)
(0 0 0)
(0 0 0)
(0 0 0)
(0 0 0)
(0 0 0)
(0 0 0)
(0 0 0)
(0 0 0)
(0 0 0)
(0 0 0)
(0 0 0)
(0 0 0)
(0 0 0)
(0 0 0)
(0 0 0)
(0 0 0)
(0 0 0)
(0 0 0)
(0 0 0)
(0 0 0)
(0 0 0)
(0 0 0)
(0 0 0)
(0 0 0)
(0 0 0)
(0 0 0)
(0 0 0)
(0 0 0)
(0 0 0)
(0 0 0)
(0 0 0)
(0 0 0)
(0 0 0)
(0 0 0)
(0 0 0)
(0 0 0)
(0 0 0)
(0 0 0)
(0 0 0)
(0 0 0)
(0 0 0)
(0 0 0)
(0 0 0)
(0 0 0)
(0 0 0)
(0 0 0)
(0 0 0)
(0 0 0)
(0 0 0)
(0 0 0)
(0 0 0)
(0 0 0)
(0 0 0)
(0 0 0)
(0 0 0)
(0 0 0)
(0 0 0)
(0 0 0)
(0 0 0)
(0 0 0)
(0 0 0)
(0 0 0)
(0 0 0)
(0 0 0)
(0 0 0)
(0 0 0)
(0 0 0)
(0 0 0)
(0 0 0)
(0 0 0)
(0 0 0)
(0 0 0)
(0 0 0)
(0 0 0)
(0 0 0)
(0 0 0)
(0 0 0)
(0 0 0)
(0 0 0)
(0 0 0)
(0 0 0)
(0 0 0)
(0 0 0)
(0 0 0)
(0 0 0)
(0 0 0)
(0 0 0)
(0 0 0)
(0 0 0)
(0 0 0)
(0 0 0)
(0 0 0)
(0 0 0)
(0 0 0)
(0 0 0)
(0 0 0)
(0 0 0)
(0 0 0)
(0 0 0)
(0 0 0)
(0 0 0)
(0 0 0)
(0 0 0)
(0 0 0)
(0 0 0)
(0 0 0)
(0 0 0)
(0 0 0)
(0 0 0)
(0 0 0)
(0 0 0)
(0 0 0)
(0 0 0)
(0 0 0)
(0 0 0)
(0 0 0)
(0 0 0)
(0 0 0)
(0 0 0)
(0 0 0)
(0 0 0)
(0 0 0)
(0 0 0)
(0 0 0)
(0 0 0)
(0 0 0)
(0 0 0)
(0 0 0)
(0 0 0)
(0 0 0)
(0 0 0)
(0 0 0)
(0 0 0)
(0 0 0)
(0 0 0)
(0 0 0)
(0 0 0)
(0 0 0)
(0 0 0)
(0 0 0)
(0 0 0)
(0 0 0)
(0 0 0)
(0 0 0)
(0 0 0)
(0 0 0)
(0 0 0)
(0 0 0)
(0 0 0)
(0 0 0)
(0 0 0)
(0 0 0)
(0 0 0)
(0 0 0)
(0 0 0)
(0 0 0)
(0 0 0)
(0 0 0)
(0 0 0)
(0 0 0)
(0 0 0)
(0 0 0)
(0 0 0)
(0 0 0)
(0 0 0)
(0 0 0)
(0 0 0)
(0 0 0)
(0 0 0)
(0 0 0)
(0 0 0)
(0 0 0)
(0 0 0)
(0 0 0)
(0 0 0)
(0 0 0)
(0 0 0)
(0 0 0)
(0 0 0)
(0 0 0)
(0 0 0)
(0 0 0)
(0 0 0)
(0 0 0)
(0 0 0)
(0 0 0)
(0 0 0)
(0 0 0)
(0 0 0)
(0 0 0)
(0 0 0)
(0 0 0)
(0 0 0)
(0 0 0)
(0 0 0)
(0 0 0)
(0 0 0)
(0 0 0)
(0 0 0)
(0 0 0)
(0 0 0)
(0 0 0)
(0 0 0)
(0 0 0)
(0 0 0)
(0 0 0)
(0 0 0)
(0 0 0)
(0 0 0)
(0 0 0)
(0 0 0)
(0 0 0)
(0 0 0)
(0 0 0)
(0 0 0)
(0 0 0)
(0 0 0)
(0 0 0)
(0 0 0)
(0 0 0)
(0 0 0)
(0 0 0)
(0 0 0)
(0 0 0)
(0 0 0)
(0 0 0)
(0 0 0)
(0 0 0)
(0 0 0)
(0 0 0)
(0 0 0)
(0 0 0)
(0 0 0)
(0 0 0)
(0 0 0)
(0 0 0)
(0 0 0)
(0 0 0)
(0 0 0)
(0 0 0)
(0 0 0)
(0 0 0)
(0 0 0)
(0 0 0)
(0 0 0)
(0 0 0)
(0 0 0)
(0 0 0)
(0 0 0)
(0 0 0)
(0 0 0)
(0 0 0)
(0 0 0)
(0 0 0)
(0 0 0)
(0 0 0)
(0 0 0)
(0 0 0)
(0 0 0)
(0 0 0)
(0 0 0)
(0 0 0)
(0 0 0)
(0 0 0)
(0 0 0)
(0 0 0)
(0 0 0)
(0 0 0)
(0 0 0)
(0 0 0)
(0 0 0)
(0 0 0)
(0 0 0)
(0 0 0)
(0 0 0)
(0 0 0)
(0 0 0)
(0 0 0)
(0 0 0)
(0 0 0)
(0 0 0)
(0 0 0)
(0 0 0)
(0 0 0)
(0 0 0)
(0 0 0)
(0 0 0)
(0 0 0)
(0 0 0)
(0 0 0)
(0 0 0)
(0 0 0)
(0 0 0)
(0 0 0)
(0 0 0)
(0 0 0)
(0 0 0)
(0 0 0)
(0 0 0)
(0 0 0)
(0 0 0)
(0 0 0)
(0 0 0)
(0 0 0)
(0 0 0)
(0 0 0)
(0 0 0)
(0 0 0)
(0 0 0)
(0 0 0)
(0 0 0)
(0 0 0)
(0 0 0)
(0 0 0)
(0 0 0)
(0 0 0)
(0 0 0)
(0 0 0)
(0 0 0)
(0 0 0)
(0 0 0)
(0 0 0)
(0 0 0)
(0 0 0)
(0 0 0)
(0 0 0)
(0 0 0)
(0 0 0)
(0 0 0)
(0 0 0)
(0 0 0)
(0 0 0)
(0 0 0)
(0 0 0)
(0 0 0)
(0 0 0)
(0 0 0)
(0 0 0)
(0 0 0)
(0 0 0)
(0 0 0)
(0 0 0)
(0 0 0)
(0 0 0)
(0 0 0)
(0 0 0)
(0 0 0)
(0 0 0)
(0 0 0)
(0 0 0)
(0 0 0)
(0 0 0)
(0 0 0)
(0 0 0)
(0 0 0)
(0 0 0)
(0 0 0)
(0 0 0)
(0 0 0)
(0 0 0)
(0 0 0)
(0 0 0)
(0 0 0)
(0 0 0)
(0 0 0)
(0 0 0)
(0 0 0)
(0 0 0)
(0 0 0)
(0 0 0)
(0 0 0)
(0 0 0)
(0 0 0)
(0 0 0)
(0 0 0)
(0 0 0)
(0 0 0)
(0 0 0)
(0 0 0)
(0 0 0)
(0 0 0)
(0 0 0)
(0 0 0)
(0 0 0)
(0 0 0)
(0 0 0)
(0 0 0)
(0 0 0)
(0 0 0)
(0 0 0)
(0 0 0)
(0 0 0)
(0 0 0)
(0 0 0)
(0 0 0)
(0 0 0)
(0 0 0)
(0 0 0)
(0 0 0)
(0 0 0)
(0 0 0)
(0 0 0)
(0 0 0)
(0 0 0)
(0 0 0)
(0 0 0)
(0 0 0)
(0 0 0)
(0 0 0)
(0 0 0)
(0 0 0)
(0 0 0)
(0 0 0)
(0 0 0)
(0 0 0)
(0 0 0)
(0 0 0)
(0 0 0)
(0 0 0)
(0 0 0)
(0 0 0)
(0 0 0)
(0 0 0)
(0 0 0)
(0 0 0)
(0 0 0)
(0 0 0)
(0 0 0)
(0 0 0)
(0 0 0)
(0 0 0)
(0 0 0)
(0 0 0)
(0 0 0)
(0 0 0)
(0 0 0)
(0 0 0)
(0 0 0)
(0 0 0)
(0 0 0)
(0 0 0)
(0 0 0)
(0 0 0)
(0 0 0)
(0 0 0)
(0 0 0)
(0 0 0)
(0 0 0)
(0 0 0)
(0 0 0)
(0 0 0)
(0 0 0)
(0 0 0)
(0 0 0)
(0 0 0)
(0 0 0)
(0 0 0)
(0 0 0)
(0 0 0)
(0 0 0)
(0 0 0)
(0 0 0)
(0 0 0)
(0 0 0)
(0 0 0)
(0 0 0)
(0 0 0)
(0 0 0)
(0 0 0)
(0 0 0)
(0 0 0)
(0 0 0)
(0 0 0)
(0 0 0)
(0 0 0)
(0 0 0)
(0 0 0)
(0 0 0)
(0 0 0)
(0 0 0)
(0 0 0)
(0 0 0)
(0 0 0)
(0 0 0)
(0 0 0)
(0 0 0)
(0 0 0)
(0 0 0)
(0 0 0)
(0 0 0)
(0 0 0)
(0 0 0)
(0 0 0)
(0 0 0)
(0 0 0)
(0 0 0)
(0 0 0)
(0 0 0)
(0 0 0)
(0 0 0)
(0 0 0)
(0 0 0)
(0 0 0)
(0 0 0)
(0 0 0)
(0 0 0)
(0 0 0)
(0 0 0)
(0 0 0)
(0 0 0)
(0 0 0)
(0 0 0)
(0 0 0)
(0 0 0)
(0 0 0)
(0 0 0)
(0 0 0)
(0 0 0)
(0 0 0)
(0 0 0)
(0 0 0)
(0 0 0)
(0 0 0)
(0 0 0)
(0 0 0)
(0 0 0)
(0 0 0)
(0 0 0)
(0 0 0)
(0 0 0)
(0 0 0)
(0 0 0)
(0 0 0)
(0 0 0)
(0 0 0)
(0 0 0)
(0 0 0)
(0 0 0)
(0 0 0)
(0 0 0)
(0 0 0)
(0 0 0)
(0 0 0)
(0 0 0)
(0 0 0)
(0 0 0)
(0 0 0)
(0 0 0)
(0 0 0)
(0 0 0)
(0 0 0)
(0 0 0)
(0 0 0)
(0 0 0)
(0 0 0)
(0 0 0)
(0 0 0)
(0 0 0)
(0 0 0)
(0 0 0)
(0 0 0)
(0 0 0)
(0 0 0)
(0 0 0)
(0 0 0)
(0 0 0)
(0 0 0)
(0 0 0)
(0 0 0)
(0 0 0)
(0 0 0)
(0 0 0)
(0 0 0)
(0 0 0)
(0 0 0)
(0 0 0)
(0 0 0)
(0 0 0)
(0 0 0)
(0 0 0)
(0 0 0)
(0 0 0)
(0 0 0)
(0 0 0)
(0 0 0)
(0 0 0)
(0 0 0)
(0 0 0)
(0 0 0)
(0 0 0)
(0 0 0)
(0 0 0)
(0 0 0)
(0 0 0)
(0 0 0)
(0 0 0)
(0 0 0)
(0 0 0)
(0 0 0)
(0 0 0)
(0 0 0)
(0 0 0)
(0 0 0)
(0 0 0)
(0 0 0)
(0 0 0)
(0 0 0)
(0 0 0)
(0 0 0)
(0 0 0)
(0 0 0)
(0 0 0)
(0 0 0)
(0 0 0)
(0 0 0)
(0 0 0)
(0 0 0)
(0 0 0)
(0 0 0)
(0 0 0)
(0 0 0)
(0 0 0)
(0 0 0)
(0 0 0)
(0 0 0)
(0 0 0)
(0 0 0)
(0 0 0)
(0 0 0)
(0 0 0)
(0 0 0)
(0 0 0)
(0 0 0)
(0 0 0)
(0 0 0)
(0 0 0)
(0 0 0)
(0 0 0)
(0 0 0)
(0 0 0)
(0 0 0)
(0 0 0)
(0 0 0)
(0 0 0)
(0 0 0)
(0 0 0)
(0 0 0)
(0 0 0)
(0 0 0)
(0 0 0)
(0 0 0)
(0 0 0)
(0 0 0)
(0 0 0)
(0 0 0)
(0 0 0)
(0 0 0)
(0 0 0)
(0 0 0)
(0 0 0)
(0 0 0)
(0 0 0)
(0 0 0)
(0 0 0)
(0 0 0)
(0 0 0)
(0 0 0)
(0 0 0)
(0 0 0)
(0 0 0)
(0 0 0)
(0 0 0)
(0 0 0)
(0 0 0)
(0 0 0)
(0 0 0)
(0 0 0)
(0 0 0)
(0 0 0)
(0 0 0)
(0 0 0)
(0 0 0)
(0 0 0)
(0 0 0)
(0 0 0)
(0 0 0)
(0 0 0)
(0 0 0)
(0 0 0)
(0 0 0)
(0 0 0)
(0 0 0)
(0 0 0)
(0 0 0)
(0 0 0)
(0 0 0)
(0 0 0)
(0 0 0)
(0 0 0)
(0 0 0)
(0 0 0)
(0 0 0)
(0 0 0)
(0 0 0)
(0 0 0)
(0 0 0)
(0 0 0)
(0 0 0)
(0 0 0)
(0 0 0)
(0 0 0)
(0 0 0)
(0 0 0)
(0 0 0)
(0 0 0)
(0 0 0)
(0 0 0)
(0 0 0)
(0 0 0)
(0 0 0)
(0 0 0)
(0 0 0)
(0 0 0)
(0 0 0)
(0 0 0)
(0 0 0)
(0 0 0)
(0 0 0)
(0 0 0)
(0 0 0)
(0 0 0)
(0 0 0)
(0 0 0)
(0 0 0)
(0 0 0)
(0 0 0)
(0 0 0)
(0 0 0)
(0 0 0)
(0 0 0)
(0 0 0)
(0 0 0)
(0 0 0)
(0 0 0)
(0 0 0)
(0 0 0)
(0 0 0)
(0 0 0)
(0 0 0)
(0 0 0)
(0 0 0)
(0 0 0)
(0 0 0)
(0 0 0)
(0 0 0)
(0 0 0)
(0 0 0)
(0 0 0)
(0 0 0)
(0 0 0)
(0 0 0)
(0 0 0)
(0 0 0)
(0 0 0)
(0 0 0)
(0 0 0)
(0 0 0)
(0 0 0)
(0 0 0)
(0 0 0)
(0 0 0)
(0 0 0)
(0 0 0)
(0 0 0)
(0 0 0)
(0 0 0)
(0 0 0)
(0 0 0)
(0 0 0)
(0 0 0)
(0 0 0)
(0 0 0)
(0 0 0)
(0 0 0)
(0 0 0)
(0 0 0)
(0 0 0)
(0 0 0)
(0 0 0)
(0 0 0)
(0 0 0)
(0 0 0)
(0 0 0)
(0 0 0)
(0 0 0)
(0 0 0)
(0 0 0)
(0 0 0)
(0 0 0)
(0 0 0)
(0 0 0)
(0 0 0)
(0 0 0)
(0 0 0)
(0 0 0)
(0 0 0)
(0 0 0)
(0 0 0)
(0 0 0)
(0 0 0)
(0 0 0)
(0 0 0)
(0 0 0)
(0 0 0)
(0 0 0)
(0 0 0)
(0 0 0)
(0 0 0)
(0 0 0)
(0 0 0)
(0 0 0)
(0 0 0)
(0 0 0)
(0 0 0)
(0 0 0)
(0 0 0)
(0 0 0)
(0 0 0)
(0 0 0)
(0 0 0)
(0 0 0)
(0 0 0)
(0 0 0)
(0 0 0)
(0 0 0)
(0 0 0)
(0 0 0)
(0 0 0)
(0 0 0)
(0 0 0)
(0 0 0)
(0 0 0)
(0 0 0)
(0 0 0)
(0 0 0)
(0 0 0)
(0 0 0)
(0 0 0)
(0 0 0)
(0 0 0)
(0 0 0)
(0 0 0)
(0 0 0)
(0 0 0)
(0 0 0)
(0 0 0)
(0 0 0)
(0 0 0)
(0 0 0)
(0 0 0)
(0 0 0)
(0 0 0)
(0 0 0)
(0 0 0)
(0 0 0)
(0 0 0)
(0 0 0)
(0 0 0)
(0 0 0)
(0 0 0)
(0 0 0)
(0 0 0)
(0 0 0)
(0 0 0)
(0 0 0)
(0 0 0)
(0 0 0)
(0 0 0)
(0 0 0)
(0 0 0)
(0 0 0)
(0 0 0)