/*--------------------------------*- C++ -*----------------------------------*\
| =========                 |                                                 |
| \\      /  F ield         | OpenFOAM: The Open Source CFD Toolbox           |
|  \\    /   O peration     | Version:  v2106                                 |
|   \\  /    A nd           | Website:  www.openfoam.com                      |
|    \\/     M anipulation  |                                                 |
\*---------------------------------------------------------------------------*/
FoamFile
{
    version     2.0;
    format      ascii;
    arch        "LSB;label=32;scalar=64";
    class       volVectorField;
    location    "0";
    object      U;
}
// * * * * * * * * * * * * * * * * * * * * * * * * * * * * * * * * * * * * * //

dimensions      [0 1 -1 0 0 0 0];

internalField   nonuniform List<vector> 
11644
(
(1.0002 -0.000205641 0)
(1.00009 -0.000544765 0)
(1.00003 -0.000801375 0)
(1.00002 -0.00105834 0)
(1.00002 -0.00132344 0)
(1.00001 -0.00159309 0)
(1.00001 -0.00186118 0)
(1.00002 -0.00211985 0)
(1.00002 -0.00236176 0)
(1.00002 -0.00257018 0)
(1.00001 -0.00273691 0)
(1.00002 -0.00283988 0)
(1.00008 -0.00285961 0)
(1.00026 -0.00282725 0)
(1.00011 -0.00259009 0)
(1.0001 -0.00234365 0)
(0.999883 -0.00192516 0)
(0.999465 -0.00105424 0)
(0.999416 0.000126115 0)
(0.999664 0.00107425 1.74403e-31)
(0.999764 0.00184882 -1.74434e-31)
(0.999858 0.00258827 0)
(1.00001 0.00323347 0)
(1.00013 0.00373113 0)
(1.00002 0.00402745 0)
(1.00005 0.00418708 0)
(1.00021 0.00420902 0)
(0.999965 0.0041159 0)
(0.999978 0.00391638 0)
(1.00001 0.0036434 0)
(0.999994 0.00332846 0)
(1 0.00298028 0)
(1 0.00262193 0)
(1.00001 0.00226011 0)
(1.00001 0.00190677 0)
(1.00001 0.00156615 0)
(1.00002 0.00124193 0)
(1.00003 0.000936676 0)
(1.00011 0.000635238 0)
(1.00023 0.000239033 0)
(1.00091 -0.000419338 0)
(1.00083 -0.00127135 0)
(1.00078 -0.00212421 0)
(1.00077 -0.00295682 0)
(1.00077 -0.0037791 0)
(1.00078 -0.00459631 0)
(1.00077 -0.00540009 0)
(1.00074 -0.00617237 0)
(1.00069 -0.00688391 0)
(1.00059 -0.00750542 0)
(1.00048 -0.007974 0)
(1.00029 -0.00825421 0)
(0.999972 -0.00824506 0)
(0.999414 -0.00784142 0)
(0.999279 -0.00711873 0)
(0.998788 -0.0058565 0)
(0.998008 -0.00391834 1.16431e-23)
(0.997436 -0.00159926 -1.16377e-23)
(0.997332 0.000943024 0)
(0.997522 0.00366913 4.76455e-23)
(0.997712 0.00625406 -4.7661e-23)
(0.997837 0.00850397 -4.56911e-23)
(0.998063 0.0104313 5.66905e-23)
(0.998542 0.0119732 -1.09949e-23)
(0.999269 0.0130051 0)
(0.999719 0.013436 0)
(0.999916 0.0134377 0)
(1.00058 0.0129167 0)
(1.00077 0.0121964 0)
(1.00089 0.0112652 0)
(1.00101 0.0101955 0)
(1.00103 0.00907288 0)
(1.00104 0.00792149 0)
(1.00101 0.00678073 0)
(1.00098 0.00566605 0)
(1.00094 0.00458895 0)
(1.00091 0.00354839 0)
(1.00091 0.0025255 0)
(1.00097 0.00149823 0)
(1.00106 0.000490242 0)
(1.00235 -0.000665605 0)
(1.00229 -0.00202566 0)
(1.00226 -0.00342311 0)
(1.00227 -0.00481886 0)
(1.00228 -0.00620942 0)
(1.00228 -0.00758796 0)
(1.00225 -0.00894087 0)
(1.00216 -0.0102427 0)
(1.00197 -0.0114569 0)
(1.0017 -0.0125096 0)
(1.00123 -0.0133366 0)
(1.00059 -0.0138174 0)
(0.999844 -0.0138148 0)
(0.999075 -0.0132592 -4.22805e-23)
(0.997547 -0.0117756 4.22681e-23)
(0.996007 -0.00939903 0)
(0.994419 -0.0061786 0)
(0.993088 -0.00234115 0)
(0.992386 0.00217783 0)
(0.992348 0.00731193 0)
(0.99296 0.0123484 0)
(0.99403 0.0167335 3.78067e-22)
(0.99529 0.020147 -3.781e-22)
(0.996766 0.0225213 -1.70924e-22)
(0.998152 0.0239249 1.70924e-22)
(0.999787 0.0243947 -3.72496e-23)
(1.00135 0.0238982 3.724e-23)
(1.00183 0.0229154 0)
(1.00256 0.0213556 0)
(1.00299 0.0195012 0)
(1.00318 0.0175085 0)
(1.00326 0.0154282 0)
(1.00323 0.0133715 0)
(1.00313 0.0113615 0)
(1.00301 0.00942751 0)
(1.00288 0.00757163 0)
(1.00277 0.00578544 0)
(1.00271 0.0040566 0)
(1.0027 0.00238 0)
(1.00275 0.000779064 0)
(1.00454 -0.000927844 0)
(1.0045 -0.00281505 0)
(1.00449 -0.00472747 0)
(1.00451 -0.00667381 0)
(1.00454 -0.00863849 0)
(1.00454 -0.0106146 0)
(1.00447 -0.0125766 0)
(1.00429 -0.0144938 0)
(1.00395 -0.0163022 0)
(1.00334 -0.0179459 0)
(1.00248 -0.0192735 0)
(1.00128 -0.0201237 3.75999e-23)
(0.999544 -0.0202949 -3.758e-23)
(0.996851 -0.0195216 0)
(0.994496 -0.0176485 -3.61549e-22)
(0.991546 -0.0144252 3.61439e-22)
(0.988445 -0.00979312 7.99711e-22)
(0.985744 -0.00403102 -8.00182e-22)
(0.983877 0.00307188 0)
(0.983487 0.0110079 0)
(0.984618 0.0189842 0)
(0.986948 0.0260104 0)
(0.989815 0.0315759 7.54195e-22)
(0.993252 0.0352035 -7.54665e-22)
(0.996771 0.0370305 -3.25257e-22)
(0.999855 0.0372791 3.25182e-22)
(1.00199 0.0362839 0)
(1.00444 0.0339021 3.11681e-23)
(1.00564 0.0312121 -3.11529e-23)
(1.00639 0.0281321 0)
(1.00676 0.0249401 0)
(1.0068 0.0217829 0)
(1.00667 0.0186987 0)
(1.00642 0.0157589 0)
(1.00613 0.0129752 0)
(1.00584 0.0103433 0)
(1.00558 0.00785582 0)
(1.0054 0.00549437 0)
(1.0053 0.00323984 0)
(1.00529 0.00106455 0)
(1.00745 -0.00120696 0)
(1.00742 -0.00361995 0)
(1.00745 -0.00607411 0)
(1.00751 -0.00856905 0)
(1.00758 -0.0111247 0)
(1.00761 -0.0137358 0)
(1.00754 -0.0163883 0)
(1.0073 -0.0190493 0)
(1.00677 -0.0216677 0)
(1.0059 -0.0241042 0)
(1.00451 -0.026206 1.37011e-22)
(1.00227 -0.0277977 -1.36882e-22)
(0.999312 -0.0285358 0)
(0.996045 -0.0281104 6.83837e-22)
(0.990882 -0.0262786 -6.83786e-22)
(0.985466 -0.0225071 -7.94519e-22)
(0.980408 -0.0167567 7.94717e-22)
(0.975309 -0.00873658 0)
(0.971323 0.00166834 -1.83144e-21)
(0.969979 0.0138365 3.67194e-21)
(0.971911 0.0262278 -1.84106e-21)
(0.976713 0.0373035 0)
(0.982908 0.0458578 0)
(0.990104 0.0508248 -7.31577e-22)
(0.996024 0.0526712 7.31802e-22)
(1.00166 0.0522413 5.94373e-22)
(1.00665 0.0493727 -5.94339e-22)
(1.00871 0.0460219 0)
(1.01066 0.0415162 1.08139e-22)
(1.01156 0.0368399 -1.14189e-22)
(1.01188 0.0321964 6.14612e-24)
(1.01182 0.0277538 0)
(1.01143 0.0235874 0)
(1.01089 0.0196955 0)
(1.0103 0.0160853 0)
(1.00974 0.0127442 0)
(1.00926 0.00963933 0)
(1.00889 0.00673544 0)
(1.00865 0.00397815 0)
(1.00857 0.00131309 0)
(1.01106 -0.00145675 0)
(1.01107 -0.00439228 0)
(1.01116 -0.00738259 0)
(1.01131 -0.0104436 0)
(1.01148 -0.0136256 0)
(1.01162 -0.016935 0)
(1.01164 -0.0203815 0)
(1.01143 -0.0239473 0)
(1.01087 -0.0275664 0)
(1.00971 -0.0310955 -1.20659e-22)
(1.00757 -0.0343772 1.20498e-22)
(1.00448 -0.0370981 2.80903e-22)
(1.00025 -0.0390421 -2.80696e-22)
(0.993571 -0.0403077 0)
(0.98713 -0.0391795 -7.51066e-22)
(0.97891 -0.0356016 1.58106e-21)
(0.968886 -0.0290171 -8.3041e-22)
(0.95971 -0.0183903 0)
(0.952339 -0.00336472 2.04574e-21)
(0.94937 0.0141515 -4.11336e-21)
(0.952024 0.0326014 2.069e-21)
(0.959565 0.0491665 0)
(0.970526 0.0623795 0)
(0.983549 0.0697858 0)
(0.995212 0.0714811 -6.69218e-22)
(1.00461 0.0700178 6.695e-22)
(1.0108 0.0659973 0)
(1.01621 0.0586937 2.23472e-22)
(1.01841 0.0520505 -2.50495e-23)
(1.01919 0.0451774 -1.08976e-22)
(1.01899 0.0387753 -9.90615e-23)
(1.01839 0.032946 1.01217e-23)
(1.01751 0.0276527 0)
(1.01648 0.0228738 0)
(1.01543 0.0185487 0)
(1.01447 0.0146269 0)
(1.01366 0.011033 0)
(1.01303 0.00770685 0)
(1.01261 0.00454515 0)
(1.01243 0.00151377 0)
(1.01534 -0.00169842 0)
(1.01541 -0.0051459 0)
(1.01561 -0.00863177 0)
(1.01592 -0.0122796 0)
(1.01628 -0.0160857 0)
(1.01665 -0.0201301 0)
(1.01692 -0.0244427 0)
(1.01696 -0.0290617 0)
(1.01646 -0.0338514 0)
(1.01502 -0.0387163 0)
(1.0125 -0.043508 0)
(1.00869 -0.0482043 0)
(1.00328 -0.0526674 -5.75031e-22)
(0.997509 -0.056077 5.75255e-22)
(0.985504 -0.0587396 0)
(0.971851 -0.0574708 -4.34085e-22)
(0.963069 -0.0453397 8.58695e-22)
(0.948938 -0.0338265 0)
(0.93589 -0.0153721 0)
(0.928469 0.00863437 2.3363e-21)
(0.930223 0.0351114 2.31393e-21)
(0.940148 0.0586104 0)
(0.9556 0.0761176 0)
(0.973517 0.085939 0)
(0.996556 0.0966609 0)
(1.01137 0.0917971 0)
(1.02345 0.0815583 -4.6189e-22)
(1.02708 0.0729887 6.73756e-23)
(1.02962 0.0623528 2.2235e-22)
(1.02976 0.0528541 1.93482e-23)
(1.02844 0.0443269 1.52081e-22)
(1.02666 0.0369506 0)
(1.02482 0.0306005 0)
(1.02303 0.0250785 0)
(1.02134 0.0201972 0)
(1.01984 0.0158337 0)
(1.01859 0.0118955 0)
(1.01763 0.00825768 0)
(1.01699 0.00487821 0)
(1.0167 0.00158106 0)
(1.02025 -0.00191513 0)
(1.0204 -0.00576873 0)
(1.02077 -0.00977296 0)
(1.02133 -0.0139281 0)
(1.02202 -0.0183563 0)
(1.02278 -0.0231275 0)
(1.02353 -0.0283558 0)
(1.024 -0.0340472 0)
(1.02357 -0.0400845 0)
(1.02226 -0.0463547 -1.87302e-22)
(1.01998 -0.0529774 1.87044e-22)
(1.01656 -0.0603062 0)
(1.01123 -0.067411 0)
(1.00132 -0.0720417 0)
(0.991571 -0.0758092 0)
(0.975404 -0.0798155 -7.95667e-22)
(0.952377 -0.07796 0)
(0.927644 -0.0661279 0)
(0.901558 -0.0419053 1.32692e-21)
(0.883766 -0.00415895 -1.39031e-21)
(0.883766 0.0410904 0)
(0.902085 0.081457 -1.28347e-21)
(0.932478 0.108187 0)
(0.965298 0.119579 0)
(0.994173 0.120441 8.95562e-23)
(1.01666 0.111398 0)
(1.03004 0.0993972 0)
(1.04391 0.0848724 0)
(1.04507 0.0716688 0)
(1.04359 0.0591369 1.17771e-22)
(1.04038 0.0482852 -1.70935e-22)
(1.03675 0.039317 5.32455e-23)
(1.03326 0.0320098 0)
(1.03033 0.0259869 0)
(1.0278 0.020792 0)
(1.0256 0.0162256 0)
(1.02382 0.0121487 0)
(1.02247 0.00843795 0)
(1.02157 0.00495969 0)
(1.02115 0.00166666 0)
(1.02569 -0.00208914 0)
(1.02595 -0.00623635 0)
(1.02656 -0.0105674 0)
(1.02746 -0.0151344 0)
(1.02864 -0.0201009 0)
(1.03003 -0.0255375 0)
(1.03152 -0.0315949 0)
(1.03249 -0.0382582 -3.51135e-23)
(1.0324 -0.0453427 -3.6414e-23)
(1.03181 -0.052947 2.18415e-22)
(1.03063 -0.0616592 -1.46904e-22)
(1.02866 -0.0721374 0)
(1.02491 -0.084355 -8.79764e-23)
(1.01377 -0.0944022 0)
(1.003 -0.105241 0)
(0.98479 -0.1185 0)
(0.955841 -0.120869 0)
(0.912635 -0.117738 -1.18804e-21)
(0.863197 -0.0918884 0)
(0.820821 -0.0346477 1.7141e-21)
(0.812099 0.0447662 0)
(0.843848 0.115222 0)
(0.898834 0.155707 2.06553e-23)
(0.957106 0.167007 0)
(1.00164 0.157548 0)
(1.0375 0.141382 0)
(1.0521 0.119589 0)
(1.06712 0.0965066 5.18462e-23)
(1.06537 0.0780369 -8.17058e-23)
(1.06083 0.0625214 8.16512e-23)
(1.05472 0.0498974 3.44257e-23)
(1.04847 0.039684 -3.43645e-23)
(1.04266 0.0316046 4.07906e-24)
(1.03802 0.0253186 -4.0724e-24)
(1.03443 0.0201268 0)
(1.03144 0.0156349 0)
(1.02906 0.0116548 0)
(1.02729 0.00809501 0)
(1.02611 0.00473372 0)
(1.02556 0.00156944 0)
(1.03146 -0.00206667 0)
(1.03188 -0.00648837 0)
(1.03278 -0.0109653 0)
(1.03416 -0.0158321 0)
(1.03598 -0.0210988 0)
(1.03821 -0.0269833 0)
(1.04063 -0.033597 0)
(1.0422 -0.0408818 0)
(1.04287 -0.0486466 -5.15417e-23)
(1.04371 -0.0573884 -4.756e-23)
(1.04474 -0.0679127 9.88976e-23)
(1.04581 -0.0810068 0)
(1.04641 -0.0972502 1.82819e-23)
(1.03876 -0.114093 -1.27095e-22)
(1.03103 -0.134885 3.16427e-22)
(1.00913 -0.160565 3.96967e-22)
(0.975798 -0.18369 -3.07916e-22)
(0.914809 -0.207875 5.21616e-22)
(0.815805 -0.202479 7.5224e-22)
(0.699997 -0.120057 8.71214e-23)
(0.654631 0.04722 6.30823e-22)
(0.733121 0.202632 -5.13945e-22)
(0.864461 0.26286 0)
(0.968823 0.249604 3.8372e-22)
(1.03808 0.212484 1.90673e-22)
(1.07837 0.170275 2.1504e-22)
(1.08779 0.1334 0)
(1.0973 0.0993396 -1.93564e-23)
(1.08981 0.0780453 0)
(1.08081 0.0613371 0)
(1.0708 0.0479132 0)
(1.06121 0.0373137 0)
(1.05255 0.0290751 0)
(1.04566 0.0229314 0)
(1.04082 0.0181424 0)
(1.03698 0.0140229 0)
(1.03397 0.0104342 0)
(1.03176 0.00716111 0)
(1.03035 0.00425085 0)
(1.02966 0.00132899 0)
(1.0373 -0.00215156 0)
(1.03791 -0.00636964 0)
(1.03919 -0.0108871 0)
(1.04112 -0.0157022 0)
(1.04369 -0.0209966 0)
(1.04692 -0.0269759 0)
(1.0503 -0.0337373 1.02354e-23)
(1.05254 -0.0410552 -1.02095e-23)
(1.05441 -0.0489495 0)
(1.05736 -0.0581669 2.34724e-23)
(1.06163 -0.0695525 -2.34463e-23)
(1.06723 -0.0839753 0)
(1.07442 -0.101524 0)
(1.07377 -0.124498 0)
(1.0767 -0.153738 4.50832e-23)
(1.06972 -0.196432 1.82431e-23)
(1.04819 -0.253935 0)
(0.992054 -0.345823 -3.04414e-24)
(0.828534 -0.448873 -1.16957e-22)
(0.460811 -0.42199 -5.05719e-21)
(0.188824 0.0683921 1.7851e-21)
(0.525032 0.523186 -4.23463e-21)
(0.902489 0.504834 8.02188e-23)
(1.06921 0.369157 -1.96688e-24)
(1.12632 0.258684 0)
(1.14415 0.178735 1.27357e-22)
(1.13645 0.133502 -2.12501e-22)
(1.1316 0.0894437 1.87526e-23)
(1.11651 0.0694882 -1.27714e-23)
(1.10143 0.053421 -1.06355e-23)
(1.08695 0.041092 -1.90128e-23)
(1.07377 0.0315472 0)
(1.06209 0.0241541 0)
(1.05267 0.0187546 0)
(1.04642 0.0148303 0)
(1.04185 0.0115377 0)
(1.03832 0.00865549 0)
(1.03571 0.00602877 0)
(1.03402 0.00353388 0)
(1.03321 0.00124695 0)
(1.04299 -0.00205789 0)
(1.04376 -0.0059506 0)
(1.04542 -0.0101429 0)
(1.04788 -0.0145706 0)
(1.05126 -0.0195508 0)
(1.05553 -0.0252148 0)
(1.05976 -0.0315862 -8.70186e-25)
(1.06268 -0.0383067 -1.72211e-24)
(1.06599 -0.04567 1.15547e-24)
(1.07131 -0.0544288 1.62109e-24)
(1.07898 -0.0650828 4.10847e-24)
(1.08937 -0.0784519 5.61911e-24)
(1.10375 -0.0949701 -1.75157e-23)
(1.11133 -0.118091 3.03741e-23)
(1.13157 -0.146721 -6.24619e-23)
(1.14904 -0.192773 0)
(1.17426 -0.263493 0)
(1.21402 -0.395918 9.13445e-23)
(0.897102 -0.478154 -7.04265e-21)
(1.14806 0.603199 1.89322e-21)
(1.31615 0.389329 -3.51731e-23)
(1.26024 0.235146 -1.19925e-22)
(1.22248 0.147263 -2.91454e-23)
(1.18902 0.106085 1.42176e-22)
(1.16352 0.0638648 2.27044e-23)
(1.13993 0.0493373 -6.33861e-24)
(1.11905 0.0376314 -4.81124e-24)
(1.10066 0.0290787 -7.58871e-24)
(1.08425 0.0222274 -2.68118e-24)
(1.06999 0.0169223 -9.0611e-25)
(1.05832 0.0130507 -3.59873e-25)
(1.05063 0.0103872 0)
(1.04545 0.00819095 0)
(1.04153 0.00617373 0)
(1.03875 0.00438191 0)
(1.03688 0.00255369 0)
(1.03604 0.000852633 0)
(1.04803 -0.00138983 0)
(1.04899 -0.00501275 0)
(1.05096 -0.00856512 0)
(1.05402 -0.0125145 0)
(1.05819 -0.0168246 0)
(1.06343 -0.0217231 0)
(1.06828 -0.0271243 0)
(1.07178 -0.0327545 0)
(1.07654 -0.039103 0)
(1.084 -0.0466938 0)
(1.09453 -0.0556925 0)
(1.10848 -0.0664612 6.81363e-23)
(1.12701 -0.0783532 -5.5053e-23)
(1.14137 -0.0961269 1.23304e-23)
(1.17302 -0.113205 8.13529e-23)
(1.20941 -0.141557 6.24884e-23)
(1.27126 -0.178334 0)
(1.3626 -0.216341 1.62804e-22)
(0.0147784 0.011813 1.01594e-19)
(0.0585612 0.0020316 -2.81211e-20)
(1.48752 0.189855 -4.4699e-23)
(1.35827 0.126884 3.80743e-23)
(1.27934 0.075136 1.35854e-22)
(1.22814 0.0535316 2.10768e-22)
(1.183 0.0244124 -4.2192e-23)
(1.15399 0.0198249 6.29643e-23)
(1.1293 0.015493 0)
(1.10878 0.0127627 0)
(1.09067 0.0101219 8.26223e-24)
(1.07495 0.00808133 -1.0993e-23)
(1.06172 0.00641269 2.74229e-24)
(1.05317 0.00539905 0)
(1.04766 0.00448931 0)
(1.04356 0.00351524 0)
(1.04065 0.0024798 0)
(1.03889 0.00157389 0)
(1.03798 0.000422782 0)
(1.05209 -0.00151978 0)
(1.05339 -0.00400743 0)
(1.05574 -0.00671559 0)
(1.05925 -0.00966983 0)
(1.06396 -0.0128847 0)
(1.06984 -0.016541 0)
(1.07513 -0.0205777 -2.71766e-24)
(1.07932 -0.0249486 3.43768e-24)
(1.08545 -0.0300713 1.00043e-23)
(1.09466 -0.0362942 -1.07108e-23)
(1.10693 -0.0433708 9.52416e-23)
(1.12216 -0.0511752 -2.47273e-22)
(1.14103 -0.0591643 9.39414e-23)
(1.15653 -0.0692072 2.32697e-22)
(1.187 -0.0726379 -7.82334e-22)
(1.22488 -0.0756438 -5.65778e-22)
(1.28553 -0.0706529 4.40721e-22)
(1.23528 -0.0281432 2.12513e-22)
(0.11545 0.0212968 0)
(0.232898 0.0311488 7.31545e-22)
(1.46821 0.00240843 3.68973e-22)
(1.38276 -0.000108628 -1.2349e-22)
(1.29645 -0.0136652 -8.79174e-22)
(1.24039 -0.0125825 4.41243e-22)
(1.18522 -0.0211192 0)
(1.15449 -0.0137341 0)
(1.12977 -0.00938524 7.67409e-23)
(1.10925 -0.00525161 -1.32566e-22)
(1.09142 -0.00292775 5.58144e-23)
(1.0759 -0.00121272 0)
(1.06247 -0.000264738 0)
(1.05369 0.000563246 0)
(1.04842 0.000920322 0)
(1.04458 0.00102074 0)
(1.04176 0.000865283 0)
(1.03989 0.000577986 0)
(1.03901 0.000281747 0)
(1.05571 -0.000928367 0)
(1.05671 -0.00253378 0)
(1.05912 -0.00424983 0)
(1.06282 -0.00596439 0)
(1.06791 -0.00786292 0)
(1.07424 -0.0100198 0)
(1.08014 -0.0125279 0)
(1.08523 -0.0155586 0)
(1.09266 -0.0194293 -1.15828e-23)
(1.10314 -0.0243779 -3.89309e-23)
(1.11627 -0.0300267 5.04213e-23)
(1.13177 -0.0364167 0)
(1.14863 -0.0435757 8.23518e-23)
(1.16006 -0.0487255 2.30962e-22)
(1.17832 -0.0467041 0)
(1.19793 -0.0302229 0)
(1.22696 0.0102836 1.2599e-21)
(1.04798 0.129644 -5.29485e-22)
(0.0275205 0.289334 0)
(-0.239737 0.452539 -2.03793e-23)
(-0.0421699 0.581688 9.9769e-29)
(0.245503 0.433958 1.61602e-22)
(0.646289 0.0306489 1.18553e-21)
(1.45772 -0.130307 -6.27511e-22)
(1.36697 -0.120829 -8.89093e-22)
(1.27716 -0.102805 1.73001e-22)
(1.22374 -0.0787118 4.34193e-22)
(1.16711 -0.0629637 1.79826e-22)
(1.14037 -0.0451243 0)
(1.11912 -0.032045 0)
(1.10139 -0.0215341 -5.60139e-23)
(1.08598 -0.0145019 5.59176e-23)
(1.07217 -0.00919808 7.27387e-24)
(1.06004 -0.00585899 -7.25935e-24)
(1.05221 -0.00350114 0)
(1.04754 -0.00200772 0)
(1.04411 -0.00101905 0)
(1.04162 -0.000442279 0)
(1.04004 -0.000226701 0)
(1.03929 -5.4298e-05 0)
(1.0568 0.000121437 6.42446e-24)
(1.05824 -0.000446557 0)
(1.0607 -0.00101659 0)
(1.06449 -0.00155738 0)
(1.06981 -0.00207222 0)
(1.07652 -0.00260198 0)
(1.0832 -0.00343422 0)
(1.0893 -0.00511139 0)
(1.09799 -0.00767155 6.76165e-24)
(1.10974 -0.0114097 -3.976e-23)
(1.12383 -0.0160329 3.2968e-23)
(1.14036 -0.022233 -1.5575e-22)
(1.15583 -0.0295828 1.55703e-22)
(1.16402 -0.0376366 0)
(1.17099 -0.0442729 1.36755e-23)
(1.15899 -0.0453664 0)
(1.11792 -0.011351 -6.47525e-22)
(0.664169 0.139875 -7.35262e-22)
(-0.242579 0.367373 0)
(-0.31952 0.348054 1.97741e-21)
(0.175008 0.172247 0)
(0.674647 -0.0289448 2.44524e-21)
(1.24163 -0.319387 -7.63578e-21)
(1.40754 -0.322857 -2.63149e-21)
(1.3039 -0.242066 -1.74779e-21)
(1.22121 -0.182585 1.02196e-21)
(1.17944 -0.132119 -8.73984e-22)
(1.13091 -0.0952651 4.5876e-22)
(1.11296 -0.0673853 -4.58654e-22)
(1.09861 -0.04772 -1.29281e-22)
(1.08631 -0.0323219 1.77181e-22)
(1.07525 -0.0217711 -4.79833e-23)
(1.06469 -0.0139104 0)
(1.05517 -0.00897846 0)
(1.04904 -0.00590655 0)
(1.04537 -0.00390872 0)
(1.0427 -0.00246472 0)
(1.04078 -0.00149314 0)
(1.03952 -0.000744552 0)
(1.03899 -0.000237375 0)
(1.05633 0.000371938 0)
(1.05784 0.00127521 0)
(1.06046 0.0022282 0)
(1.0643 0.00308934 0)
(1.06957 0.00404537 0)
(1.07635 0.00518299 0)
(1.08383 0.00629172 0)
(1.0914 0.00626841 0)
(1.1012 0.00528702 9.03448e-25)
(1.11426 0.00325543 -9.01743e-25)
(1.13012 0.000405932 0)
(1.14923 -0.00502931 6.21607e-23)
(1.16914 -0.0124733 -6.21287e-23)
(1.18999 -0.0292212 0)
(1.18945 -0.0488825 2.9321e-23)
(1.18774 -0.0862341 4.01148e-23)
(1.09155 -0.130299 0)
(0.392493 -0.0856383 -2.8383e-20)
(-0.163224 -0.142535 0)
(-0.0627827 -0.388019 0)
(0.410584 -0.56987 0)
(0.934323 -0.703568 4.44959e-21)
(1.24516 -0.657461 0)
(1.22396 -0.466077 -1.77096e-21)
(1.15443 -0.318848 3.22515e-22)
(1.12932 -0.231094 -1.31821e-22)
(1.08866 -0.152695 0)
(1.08225 -0.106625 -3.17877e-22)
(1.0762 -0.0765795 3.17764e-22)
(1.07155 -0.0532204 0)
(1.06652 -0.0359672 -3.36164e-23)
(1.06125 -0.0236504 3.35531e-23)
(1.05512 -0.0147494 0)
(1.04928 -0.00921158 0)
(1.0454 -0.00602779 0)
(1.04294 -0.00404672 0)
(1.04104 -0.00263676 0)
(1.0396 -0.0016876 0)
(1.03868 -0.000895167 0)
(1.03823 -0.000318579 0)
(1.05472 0.000805415 0)
(1.05603 0.00267526 0)
(1.0584 0.00478404 0)
(1.06201 0.00708648 0)
(1.06696 0.00964792 0)
(1.07348 0.0125298 0)
(1.08146 0.015826 0)
(1.09063 0.0183042 0)
(1.10181 0.0198487 0)
(1.11582 0.020556 0)
(1.1335 0.0213277 0)
(1.15575 0.0198148 0)
(1.18334 0.0174209 1.34912e-22)
(1.21669 0.00833452 4.32918e-22)
(1.2357 -0.0239913 -7.34686e-22)
(1.28083 -0.0740683 -4.90076e-23)
(1.21174 -0.172776 -5.01573e-23)
(0.536249 -0.34377 0)
(0.150835 -0.593936 0)
(0.271344 -0.796645 -3.81086e-21)
(0.537339 -0.907907 0)
(0.813636 -0.84741 4.13043e-21)
(0.945088 -0.652617 3.16817e-21)
(0.992578 -0.469307 -9.57291e-22)
(1.00238 -0.316765 5.40539e-22)
(1.0221 -0.222775 6.23629e-23)
(1.01741 -0.136433 0)
(1.03022 -0.0940406 1.4791e-22)
(1.03854 -0.0667979 -1.47799e-22)
(1.04372 -0.0458642 0)
(1.04602 -0.0307081 0)
(1.0464 -0.0196907 0)
(1.0451 -0.0116678 0)
(1.0434 -0.00684126 0)
(1.04205 -0.0043473 0)
(1.04081 -0.0029154 0)
(1.03957 -0.00191437 0)
(1.03849 -0.00121354 0)
(1.03772 -0.000687434 0)
(1.0373 -0.000207585 0)
(1.05175 0.00126434 0)
(1.05277 0.00397193 0)
(1.05477 0.00694196 0)
(1.05788 0.0102937 0)
(1.06218 0.0142077 0)
(1.06797 0.0187209 0)
(1.07574 0.0241251 0)
(1.08562 0.0295025 0)
(1.09767 0.0348736 0)
(1.11209 0.0399499 0)
(1.13017 0.0465216 0)
(1.15356 0.0531704 0)
(1.18421 0.0612445 3.59842e-23)
(1.22636 0.0719838 -3.39944e-24)
(1.26957 0.0514205 -1.34256e-22)
(1.35384 0.0389638 -3.23997e-22)
(1.39594 -0.0243758 0)
(0.98092 -0.25453 1.68314e-21)
(0.490998 -0.63271 0)
(0.393491 -0.825307 0)
(0.493111 -0.799749 0)
(0.607244 -0.669864 0)
(0.705018 -0.522641 -1.40805e-21)
(0.795894 -0.378291 1.37164e-22)
(0.863611 -0.243216 -1.14532e-22)
(0.923674 -0.161972 -6.48382e-23)
(0.958715 -0.084281 -3.35218e-23)
(0.987123 -0.0565667 1.75916e-23)
(1.00944 -0.038797 0)
(1.02202 -0.0259634 0)
(1.03023 -0.0166689 0)
(1.0347 -0.00985631 0)
(1.03737 -0.00495678 0)
(1.03917 -0.00238882 0)
(1.0399 -0.00139071 0)
(1.03946 -0.000887606 0)
(1.03861 -0.000543963 0)
(1.0378 -0.000297339 0)
(1.03717 -0.000154902 0)
(1.03691 -3.53806e-05 0)
(1.04764 0.00158604 0)
(1.04834 0.00491586 0)
(1.04984 0.00855058 0)
(1.05224 0.0126645 0)
(1.05557 0.0175482 0)
(1.06014 0.0233206 0)
(1.06685 0.0303819 0)
(1.07615 0.0381626 0)
(1.08737 0.0471355 0)
(1.10031 0.0572572 0)
(1.11605 0.0702109 0)
(1.136 0.0861945 -3.53075e-24)
(1.16222 0.107176 3.52829e-24)
(1.19911 0.134302 -1.83956e-23)
(1.25059 0.145105 0)
(1.32765 0.185554 8.54249e-22)
(1.43094 0.220087 0)
(1.34748 0.197299 -1.57171e-21)
(0.985178 -0.0343096 2.44772e-21)
(0.645123 -0.337285 -5.15061e-21)
(0.443255 -0.541181 0)
(0.384173 -0.547786 0)
(0.471025 -0.401356 0)
(0.631302 -0.226735 -1.35676e-22)
(0.763065 -0.103885 -2.00683e-22)
(0.852572 -0.0591331 -1.89366e-22)
(0.923184 -0.00205888 0)
(0.966253 -0.00026843 -3.73474e-23)
(0.996016 0.00254476 3.73231e-23)
(1.01273 0.00200142 0)
(1.02353 0.00284803 0)
(1.03009 0.00302922 0)
(1.03478 0.00323403 0)
(1.03827 0.0026627 0)
(1.03975 0.00191058 0)
(1.03946 0.00130133 0)
(1.03861 0.000864867 0)
(1.03784 0.000534387 0)
(1.03724 0.000268899 0)
(1.03696 3.9532e-05 0)
(1.0429 0.00170072 0)
(1.04326 0.0053467 0)
(1.04414 0.0093317 0)
(1.04562 0.0138766 0)
(1.04767 0.0192628 0)
(1.05062 0.0256768 0)
(1.0556 0.0335607 0)
(1.06314 0.0427746 0)
(1.07199 0.0540195 0)
(1.08121 0.0678873 0)
(1.09185 0.0855601 0)
(1.10433 0.108613 4.02284e-25)
(1.12036 0.138428 -1.02648e-24)
(1.14361 0.178215 6.24296e-25)
(1.18241 0.212348 -9.26991e-23)
(1.22624 0.278039 0)
(1.28875 0.360089 -7.48645e-22)
(1.32277 0.49103 1.21409e-21)
(1.20933 0.569248 0)
(0.950348 0.49 0)
(0.683331 0.339407 0)
(0.475937 0.17994 -1.69759e-21)
(0.418907 0.0361997 0)
(0.480648 -0.032912 2.86951e-23)
(0.66818 0.0490102 -1.12393e-22)
(0.834006 0.0812534 1.72229e-22)
(0.930982 0.0969052 3.6382e-23)
(0.980102 0.0616484 -3.44932e-23)
(1.00651 0.0454556 -1.88275e-24)
(1.02053 0.029649 0)
(1.02874 0.0210718 0)
(1.03375 0.0143162 0)
(1.03756 0.0100803 0)
(1.04058 0.00678132 0)
(1.04157 0.00447197 0)
(1.04075 0.0028269 0)
(1.03951 0.00173436 0)
(1.03848 0.000973906 0)
(1.03774 0.000463018 0)
(1.03724 8.25689e-05 0)
(1.03801 0.00171687 0)
(1.03798 0.00532256 0)
(1.0382 0.0092555 0)
(1.03869 0.0136674 0)
(1.03943 0.0188462 0)
(1.04064 0.0250173 0)
(1.04349 0.0327003 0)
(1.04833 0.0422319 0)
(1.05346 0.0544515 0)
(1.0575 0.0701462 0)
(1.06124 0.0902314 0)
(1.06425 0.116738 0)
(1.068 0.150628 0)
(1.07429 0.19489 0)
(1.0776 0.25606 0)
(1.10499 0.31324 -2.78543e-23)
(1.11641 0.404125 0)
(1.10167 0.519833 -3.98956e-22)
(1.05142 0.641767 0)
(0.94242 0.714416 6.75989e-22)
(0.810805 0.712319 -7.27643e-22)
(0.709413 0.635968 -5.19038e-22)
(0.671457 0.499067 -1.32081e-22)
(0.665831 0.348867 0)
(0.688207 0.22652 3.89065e-23)
(0.880727 0.221523 0)
(0.984515 0.156109 -2.43791e-21)
(1.02888 0.108839 0)
(1.04006 0.0729181 0)
(1.04373 0.0480705 0)
(1.04412 0.032185 0)
(1.04405 0.0210052 0)
(1.04452 0.0137423 0)
(1.04545 0.00867166 0)
(1.0449 0.00534936 0)
(1.04297 0.00317555 0)
(1.04101 0.0017938 0)
(1.03949 0.00090291 0)
(1.03842 0.000377765 0)
(1.03763 8.04353e-05 0)
(1.0333 0.00166945 0)
(1.03298 0.00478637 0)
(1.03271 0.00811988 0)
(1.03246 0.0117444 0)
(1.03207 0.0160031 0)
(1.03164 0.0211048 0)
(1.03206 0.0276568 0)
(1.03347 0.0363444 0)
(1.03401 0.0480282 0)
(1.03232 0.0633107 0)
(1.02858 0.0830498 0)
(1.0221 0.108992 0)
(1.01308 0.142265 0)
(1.00297 0.185758 0)
(0.991874 0.23951 0)
(0.976574 0.304675 0)
(0.958682 0.383797 0)
(0.927431 0.473435 0)
(0.885616 0.564515 0)
(0.838377 0.64571 0)
(0.798874 0.677583 0)
(0.805781 0.658467 0)
(0.845365 0.611804 0)
(0.891469 0.522676 0)
(0.890541 0.397802 0)
(0.986567 0.280173 -2.00704e-21)
(1.07961 0.18137 0)
(1.10048 0.121181 0)
(1.08771 0.0780299 0)
(1.07597 0.0510767 0)
(1.0654 0.0329019 0)
(1.05834 0.0206805 0)
(1.05406 0.0124782 0)
(1.05177 0.00704539 0)
(1.04889 0.00379288 0)
(1.04546 0.00188417 0)
(1.04253 0.000785647 0)
(1.04033 0.000213038 0)
(1.03879 2.26307e-05 0)
(1.03781 -3.35721e-06 0)
(1.02913 0.0011816 0)
(1.02899 0.00342368 0)
(1.02858 0.00571177 0)
(1.02784 0.0081667 0)
(1.02656 0.0110087 0)
(1.02468 0.0143845 0)
(1.02263 0.0188943 0)
(1.02046 0.025425 0)
(1.01653 0.0347151 0)
(1.00958 0.0471037 0)
(0.998811 0.0633329 0)
(0.983695 0.0850253 0)
(0.962683 0.113432 0)
(0.94129 0.150773 0)
(0.916005 0.199854 0)
(0.878211 0.264763 0)
(0.838777 0.346888 0)
(0.793886 0.436562 0)
(0.760944 0.519887 0)
(0.759408 0.59055 -2.29942e-35)
(0.788405 0.615728 -3.19313e-21)
(0.840252 0.60234 3.45404e-21)
(0.915177 0.547157 0)
(0.996087 0.465485 0)
(1.04862 0.349976 0)
(1.14976 0.225172 0)
(1.19736 0.128128 0)
(1.17066 0.0856404 0)
(1.13257 0.0533038 0)
(1.10562 0.0345472 0)
(1.08527 0.0206306 0)
(1.07199 0.0115362 0)
(1.06319 0.0051578 0)
(1.05732 0.0014272 0)
(1.05189 -0.000294417 0)
(1.04701 -0.000987679 0)
(1.0432 -0.00112667 0)
(1.04045 -0.000942047 0)
(1.03865 -0.000562382 0)
(1.03765 -0.000164466 0)
(1.02694 0.000289907 0)
(1.02664 0.00138167 0)
(1.02613 0.00238417 0)
(1.02514 0.00345936 0)
(1.02345 0.0045633 0)
(1.02074 0.00575025 0)
(1.01684 0.00741738 0)
(1.01171 0.010399 0)
(1.00419 0.0152822 0)
(0.993123 0.0220671 0)
(0.976701 0.0312895 0)
(0.953753 0.0442424 0)
(0.923624 0.064068 0)
(0.886032 0.0917972 0)
(0.835792 0.13768 0)
(0.773899 0.195699 0)
(0.721668 0.258474 0)
(0.677834 0.321322 0)
(0.667943 0.370187 0)
(0.696696 0.421798 0)
(0.771566 0.41239 0)
(0.881254 0.403074 0)
(1.01639 0.316453 0)
(1.13984 0.244327 0)
(1.22761 0.139379 0)
(1.30212 0.0535393 0)
(1.26877 0.0177867 0)
(1.20517 0.0143223 0)
(1.15642 0.00535336 0)
(1.12158 0.00233738 0)
(1.09694 -0.00256368 0)
(1.0799 -0.0048674 0)
(1.06797 -0.00680003 0)
(1.05925 -0.00678104 0)
(1.0522 -0.00589202 0)
(1.04662 -0.00476239 0)
(1.04249 -0.00358223 0)
(1.03958 -0.00247088 0)
(1.03775 -0.00142441 0)
(1.03682 -0.000434978 0)
(1.02684 -6.67623e-05 0)
(1.02633 -0.000304564 0)
(1.02577 -0.000661413 0)
(1.02487 -0.00115423 0)
(1.02335 -0.0019631 0)
(1.02068 -0.00320581 0)
(1.01621 -0.00479006 0)
(1.00971 -0.00636607 0)
(1.00057 -0.00758922 0)
(0.987642 -0.00911603 0)
(0.968359 -0.0110318 0)
(0.939668 -0.0119115 -5.61875e-23)
(0.897454 -0.0115693 -1.17413e-21)
(0.840816 0.000344237 0)
(0.774686 0.0231346 0)
(0.715316 0.041696 0)
(0.675892 0.0464313 0)
(0.648126 0.0444145 0)
(0.643951 0.0169823 0)
(0.709614 0.0166193 0)
(0.842879 -0.0443581 -3.22782e-21)
(0.992146 -0.047221 9.53391e-21)
(1.14736 -0.117406 0)
(1.25612 -0.12615 0)
(1.30376 -0.160654 0)
(1.31092 -0.133287 0)
(1.25001 -0.0941127 0)
(1.19205 -0.0634675 0)
(1.15009 -0.0474643 0)
(1.11823 -0.0351253 0)
(1.09535 -0.0288865 0)
(1.07834 -0.0233296 0)
(1.0658 -0.0194977 0)
(1.05636 -0.0153706 0)
(1.04924 -0.0117787 0)
(1.04395 -0.0087201 0)
(1.04015 -0.00618398 0)
(1.03751 -0.00407522 0)
(1.03589 -0.00230986 0)
(1.0351 -0.000686007 0)
(1.02739 -0.000295781 0)
(1.02727 -0.00128729 0)
(1.02717 -0.00262524 0)
(1.02687 -0.00444925 0)
(1.02622 -0.00694032 0)
(1.02458 -0.0103872 0)
(1.0211 -0.0149306 0)
(1.01561 -0.0208514 0)
(1.0081 -0.0283759 0)
(0.997702 -0.0390603 0)
(0.981422 -0.05429 0)
(0.95249 -0.0737161 -2.08728e-22)
(0.905327 -0.0988469 -3.93321e-22)
(0.840509 -0.119789 0)
(0.781135 -0.144555 0)
(0.744749 -0.190091 0)
(0.724201 -0.24383 0)
(0.712812 -0.296428 0)
(0.71678 -0.355735 0)
(0.77427 -0.406475 -6.78142e-35)
(0.880413 -0.436983 6.78167e-35)
(1.00504 -0.436612 0)
(1.12009 -0.422255 0)
(1.1996 -0.361136 0)
(1.23509 -0.303617 0)
(1.22503 -0.222167 0)
(1.17803 -0.162613 0)
(1.14505 -0.115513 0)
(1.11952 -0.0853617 0)
(1.09775 -0.0635426 0)
(1.08124 -0.0486912 0)
(1.06784 -0.0375628 0)
(1.05734 -0.029275 0)
(1.04911 -0.0223417 0)
(1.0432 -0.0166685 0)
(1.03908 -0.0121116 0)
(1.03621 -0.00847607 0)
(1.03428 -0.00551481 0)
(1.03314 -0.00305516 0)
(1.03267 -0.000948204 0)
(1.02884 -0.000579914 0)
(1.02926 -0.00207561 0)
(1.02983 -0.0039549 0)
(1.03051 -0.00646203 0)
(1.03122 -0.00985088 0)
(1.03142 -0.0145474 0)
(1.03027 -0.0209218 0)
(1.02789 -0.0296256 0)
(1.02527 -0.0415756 0)
(1.02221 -0.0587793 0)
(1.01628 -0.0838398 0)
(0.999161 -0.118831 0)
(0.959653 -0.165812 0)
(0.904879 -0.219299 0)
(0.866412 -0.286111 0)
(0.844672 -0.362232 0)
(0.81299 -0.425792 0)
(0.791103 -0.478616 0)
(0.788203 -0.520432 0)
(0.806752 -0.551009 0)
(0.874388 -0.558554 0)
(0.959863 -0.525675 0)
(1.04005 -0.478744 0)
(1.09289 -0.40404 0)
(1.12324 -0.326804 0)
(1.1141 -0.247878 0)
(1.09902 -0.185807 0)
(1.08776 -0.138674 0)
(1.07866 -0.103381 0)
(1.06851 -0.0773321 0)
(1.0601 -0.0582877 0)
(1.0521 -0.0442337 0)
(1.04511 -0.0336961 0)
(1.03922 -0.0254403 0)
(1.03525 -0.0188917 0)
(1.03277 -0.0137874 0)
(1.03114 -0.0097538 0)
(1.03012 -0.00649666 0)
(1.02967 -0.00365077 0)
(1.02963 -0.00127851 0)
(1.03099 -0.000736179 0)
(1.03187 -0.00234114 0)
(1.03315 -0.00424683 0)
(1.0349 -0.00674856 0)
(1.03719 -0.0101421 0)
(1.03961 -0.014877 0)
(1.04158 -0.0215353 0)
(1.04355 -0.0308409 0)
(1.04771 -0.0439703 0)
(1.05467 -0.0626202 0)
(1.0632 -0.0898908 0)
(1.0639 -0.128726 0)
(1.04049 -0.184123 0)
(1.00091 -0.25153 0)
(0.973371 -0.326983 0)
(0.938419 -0.398419 0)
(0.886279 -0.456959 0)
(0.84681 -0.504346 0)
(0.827528 -0.539464 0)
(0.823969 -0.554698 0)
(0.852089 -0.561107 0)
(0.901763 -0.523812 0)
(0.949839 -0.468821 0)