/*--------------------------------*- C++ -*----------------------------------*\
| =========                 |                                                 |
| \\      /  F ield         | OpenFOAM: The Open Source CFD Toolbox           |
|  \\    /   O peration     | Version:  v2106                                 |
|   \\  /    A nd           | Website:  www.openfoam.com                      |
|    \\/     M anipulation  |                                                 |
\*---------------------------------------------------------------------------*/
FoamFile
{
    version     2.0;
    format      ascii;
    arch        "LSB;label=32;scalar=64";
    class       pointVectorField;
    location    "0";
    object      pointDisplacement;
}
// * * * * * * * * * * * * * * * * * * * * * * * * * * * * * * * * * * * * * //

dimensions      [0 1 0 0 0 0 0];

internalField   nonuniform List<vector> 
24440
(
(0 0 0)
(0 0 0)
(0 0 0)
(0 0 0)
(0 0 0)
(0 0 0)
(0 0 0)
(0 0 0)
(0 0 0)
(0 0 0)
(0 0 0)
(0 0 0)
(0 0 0)
(0 0 0)
(0 0 0)
(0 0 0)
(0 0 0)
(0 0 0)
(0 0 0)
(0 0 0)
(0 0 0)
(0 0 0)
(0 0 0)
(0 0 0)
(0 0 0)
(0 0 0)
(0 0 0)
(0 0 0)
(0 0 0)
(0 0 0)
(0 0 0)
(0 0 0)
(0 0 0)
(0 0 0)
(0 0 0)
(0 0 0)
(0 0 0)
(0 0 0)
(0 0 0)
(0 0 0)
(0 0 0)
(0 0 0)
(0 0 0)
(0 0 0)
(0 0 0)
(0 0 0)
(0 0 0)
(0 0 0)
(0 0 0)
(0 0 0)
(0 0 0)
(0 0 0)
(0 0 0)
(0 0 0)
(0 0 0)
(0 0 0)
(0 0 0)
(0 0 0)
(0 0 0)
(0 0 0)
(0 0 0)
(0 0 0)
(0 0 0)
(0 0 0)
(0 0 0)
(0 0 0)
(0 0 0)
(0 0 0)
(0 0 0)
(0 0 0)
(0 0 0)
(0 0 0)
(0 0 0)
(0 0 0)
(0 0 0)
(0 0 0)
(0 0 0)
(0 0 0)
(0 0 0)
(0 0 0)
(0 0 0)
(0 0 0)
(0 0 0)
(0 0 0)
(0 0 0)
(0 0 0)
(0 0 0)
(0 0 0)
(0 0 0)
(0 0 0)
(0 0 0)
(0 0 0)
(0 0 0)
(0 0 0)
(0 0 0)
(0 0 0)
(0 0 0)
(0 0 0)
(0 -2.06116e-06 0)
(0 -1.29978e-05 0)
(0 -3.57412e-05 0)
(0 -5.50754e-05 0)
(0 -6.24954e-05 0)
(0 -5.50754e-05 0)
(0 -3.57412e-05 0)
(0 -1.29978e-05 0)
(0 -2.06116e-06 0)
(0 0 0)
(0 0 0)
(0 0 0)
(0 0 0)
(0 0 0)
(0 0 0)
(0 0 0)
(0 0 0)
(0 0 0)
(0 0 0)
(0 0 0)
(0 0 0)
(0 0 0)
(0 0 0)
(0 0 0)
(0 0 0)
(0 0 0)
(0 0 0)
(0 0 0)
(0 0 0)
(0 0 0)
(0 0 0)
(0 0 0)
(0 0 0)
(0 0 0)
(0 0 0)
(0 0 0)
(0 0 0)
(0 0 0)
(0 -3.45189e-06 0)
(0 -4.56627e-05 0)
(0 -0.000134382 0)
(0 -0.00024208 0)
(0 -0.000345305 0)
(0 -0.000417267 0)
(0 -0.000484163 0)
(0 -0.000507701 0)
(0 -0.000484163 0)
(0 -0.000417267 0)
(0 -0.000345305 0)
(0 -0.00024208 0)
(0 -0.000134382 0)
(0 -4.56627e-05 0)
(0 -3.45189e-06 0)
(0 0 0)
(0 0 0)
(0 0 0)
(0 0 0)
(0 0 0)
(0 0 0)
(0 0 0)
(0 0 0)
(0 0 0)
(0 0 0)
(0 0 0)
(0 0 0)
(0 0 0)
(0 0 0)
(0 0 0)
(0 0 0)
(0 0 0)
(0 0 0)
(0 0 0)
(0 0 0)
(0 0 0)
(0 0 0)
(0 0 0)
(0 0 0)
(0 -1.4493e-06 0)
(0 -6.00508e-05 0)
(0 -0.000204792 0)
(0 -0.000403848 0)
(0 -0.000608874 0)
(0 -0.000837607 0)
(0 -0.00103571 0)
(0 -0.0011584 0)
(0 -0.00127572 0)
(0 -0.00131626 0)
(0 -0.00127572 0)
(0 -0.0011584 0)
(0 -0.00103571 0)
(0 -0.000837607 0)
(0 -0.000608874 0)
(0 -0.000403848 0)
(0 -0.000204792 0)
(0 -6.00508e-05 0)
(0 -1.4493e-06 0)
(0 0 0)
(0 0 0)
(0 0 0)
(0 0 0)
(0 0 0)
(0 0 0)
(0 0 0)
(0 0 0)
(0 0 0)
(0 0 0)
(0 0 0)
(0 0 0)
(0 0 0)
(0 0 0)
(0 0 0)
(0 0 0)
(0 0 0)
(0 0 0)
(0 0 0)
(0 0 0)
(0 0 0)
(0 -1.37038e-05 0)
(0 -0.000142512 0)
(0 -0.000378734 0)
(0 -0.000664494 0)
(0 -0.00101929 0)
(0 -0.00137714 0)
(0 -0.00168715 0)
(0 -0.00197756 0)
(0 -0.00218363 0)
(0 -0.00230675 0)
(0 -0.00236327 0)
(0 -0.00230675 0)
(0 -0.00218363 0)
(0 -0.00197756 0)
(0 -0.00168715 0)
(0 -0.00137714 0)
(0 -0.00101929 0)
(0 -0.000664494 0)
(0 -0.000378734 0)
(0 -0.000142512 0)
(0 -1.45078e-05 0)
(0 0 0)
(0 0 0)
(0 0 0)
(0 0 0)
(0 0 0)
(0 0 0)
(0 0 0)
(0 0 0)
(0 0 0)
(0 0 0)
(0 0 0)
(0 0 0)
(0 0 0)
(0 0 0)
(0 0 0)
(0 0 0)
(0 0 0)
(0 0 0)
(0 0 0)
(0 -2.69524e-05 0)
(0 -0.00018899 0)
(0 -0.000471695 0)
(0 -0.000865958 0)
(0 -0.00133453 0)
(0 -0.00182144 0)
(0 -0.00226827 0)
(0 -0.00269188 0)
(0 -0.00285105 0)
(0 -0.00302318 0)
(0 -0.00316716 0)
(0 -0.00328061 0)
(0 -0.00336173 0)
(0 -0.00341782 0)
(0 -0.00346964 0)
(0 -0.003487 0)
(0 -0.00346964 0)
(0 -0.00341782 0)
(0 -0.00336173 0)
(0 -0.00328061 0)
(0 -0.00316716 0)
(0 -0.00302318 0)
(0 -0.00285105 0)
(0 -0.00269188 0)
(0 -0.00226827 0)
(0 -0.00182144 0)
(0 -0.00133453 0)
(0 -0.000865958 0)
(0 -0.000461905 0)
(0 -0.000170772 0)
(0 -2.15367e-05 0)
(0 0 0)
(0 0 0)
(0 0 0)
(0 0 0)
(0 0 0)
(0 0 0)
(0 0 0)
(0 0 0)
(0 0 0)
(0 0 0)
(0 0 0)
(0 0 0)
(0 0 0)
(0 0 0)
(0 0 0)
(0 0 0)
(0 0 0)
(0 -1.58529e-05 0)
(0 -0.00018142 0)
(0 -0.000505469 0)
(0 -0.000951144 0)
(0 -0.00147318 0)
(0 -0.00208739 0)
(0 -0.00238108 0)
(0 -0.00264139 0)
(0 -0.00292951 0)
(0 -0.00319956 0)
(0 -0.00344664 0)
(0 -0.00365655 0)
(0 -0.00318674 0)
(0 -0.00338131 0)
(0 -0.00353486 0)
(0 -0.00368974 0)
(0 -0.00381124 0)
(0 -0.00389782 0)
(0 -0.00394973 0)
(0 -0.00400474 0)
(0 -0.00402314 0)
(0 -0.00400474 0)
(0 -0.00394973 0)
(0 -0.00389782 0)
(0 -0.00381124 0)
(0 -0.00368974 0)
(0 -0.00353486 0)
(0 -0.00338131 0)
(0 -0.00318674 0)
(0 -0.00365655 0)
(0 -0.00344664 0)
(0 -0.00319956 0)
(0 -0.00292951 0)
(0 -0.00264139 0)
(0 -0.00238108 0)
(0 -0.00208739 0)
(0 -0.00147318 0)
(0 -0.000951144 0)
(0 -0.000487031 0)
(0 -0.000173527 0)
(0 -1.43968e-05 0)
(0 0 0)
(0 0 0)
(0 0 0)
(0 0 0)
(0 0 0)
(0 0 0)
(0 0 0)
(0 0 0)
(0 0 0)
(0 0 0)
(0 0 0)
(0 0 0)
(0 0 0)
(0 0 0)
(0 0 0)
(0 0 0)
(0 -0.000100305 0)
(0 -0.000409909 0)
(0 -0.00087633 0)
(0 -0.00146221 0)
(0 -0.00211474 0)
(0 -0.00277778 0)
(0 -0.00244496 0)
(0 -0.00276433 0)
(0 -0.00307164 0)
(0 -0.003361 0)
(0 -0.0036181 0)
(0 -0.00387882 0)
(0 -0.00410922 0)
(0 -0.00429956 0)
(0 -0.00386329 0)
(0 -0.00403743 0)
(0 -0.00447905 0)
(0 -0.00460828 0)
(0 -0.00417597 0)
(0 -0.00430273 0)
(0 -0.00473682 0)
(0 -0.00482729 0)
(0 -0.00439265 0)
(0 -0.00443822 0)
(0 -0.00487972 0)
(0 -0.00492134 0)
(0 -0.00449495 0)
(0 -0.00451388 0)
(0 -0.00494014 0)
(0 -0.00492134 0)
(0 -0.00449495 0)
(0 -0.00443822 0)
(0 -0.00487972 0)
(0 -0.00482729 0)
(0 -0.00439265 0)
(0 -0.00430273 0)
(0 -0.00473682 0)
(0 -0.00460828 0)
(0 -0.00417597 0)
(0 -0.00403743 0)
(0 -0.00447905 0)
(0 -0.00429956 0)
(0 -0.00386329 0)
(0 -0.00410922 0)
(0 -0.00387882 0)
(0 -0.0036181 0)
(0 -0.003361 0)
(0 -0.00307164 0)
(0 -0.00276433 0)
(0 -0.00244496 0)
(0 -0.00277778 0)
(0 -0.00211474 0)
(0 -0.0014446 0)
(0 -0.000869412 0)
(0 -0.000409472 0)
(0 -0.000109047 0)
(0 0 0)
(0 0 0)
(0 0 0)
(0 0 0)
(0 0 0)
(0 0 0)
(0 0 0)
(0 0 0)
(0 0 0)
(0 0 0)
(0 0 0)
(0 0 0)
(0 0 0)
(0 0 0)
(0 0 0)
(0 -2.18813e-05 0)
(0 -0.000224802 0)
(0 -0.000647988 0)
(0 -0.00121407 0)
(0 -0.00188704 0)
(0 -0.00265806 0)
(0 -0.00340073 0)
(0 -0.00311171 0)
(0 -0.00344815 0)
(0 -0.00309615 0)
(0 -0.00344243 0)
(0 -0.0037644 0)
(0 -0.00408164 0)
(0 -0.00374719 0)
(0 -0.0040255 0)
(0 -0.00436768 0)
(0 -0.0044981 0)
(0 -0.00461951 0)
(0 -0.00445444 0)
(0 -0.00426044 0)
(0 -0.00449686 0)
(0 -0.00466641 0)
(0 -0.00477115 0)
(0 -0.00460154 0)
(0 -0.00485618 0)
(0 -0.00501701 0)
(0 -0.00509143 0)
(0 -0.00493174 0)
(0 -0.00509824 0)
(0 -0.00525558 0)
(0 -0.00529479 0)
(0 -0.0051467 0)
(0 -0.00523576 0)
(0 -0.00537994 0)
(0 -0.00540047 0)
(0 -0.00525962 0)
(0 -0.00528526 0)
(0 -0.00542306 0)
(0 -0.0054189 0)
(0 -0.00528084 0)
(0 -0.00523576 0)
(0 -0.00537994 0)
(0 -0.00536048 0)
(0 -0.0052153 0)
(0 -0.00509824 0)
(0 -0.00525558 0)
(0 -0.00521054 0)
(0 -0.00505358 0)
(0 -0.00485618 0)
(0 -0.00501701 0)
(0 -0.00495131 0)
(0 -0.00477087 0)
(0 -0.00449686 0)
(0 -0.00466641 0)
(0 -0.00455215 0)
(0 -0.00438305 0)
(0 -0.0040255 0)
(0 -0.00436768 0)
(0 -0.00408164 0)
(0 -0.00374719 0)
(0 -0.00344243 0)
(0 -0.0037644 0)
(0 -0.00344815 0)
(0 -0.00309615 0)
(0 -0.00311171 0)
(0 -0.00338541 0)
(0 -0.00265623 0)
(0 -0.00191746 0)
(0 -0.00120387 0)
(0 -0.000641679 0)
(0 -0.000236069 0)
(0 -2.50224e-05 0)
(0 0 0)
(0 0 0)
(0 0 0)
(0 0 0)
(0 0 0)
(0 0 0)
(0 0 0)
(0 0 0)
(0 0 0)
(0 0 0)
(0 0 0)
(0 0 0)
(0 0 0)
(0 0 0)
(0 -7.15906e-05 0)
(0 -0.000362324 0)
(0 -0.000851299 0)
(0 -0.00149584 0)
(0 -0.00224071 0)
(0 -0.00305999 0)
(0 -0.00382462 0)
(0 -0.00363596 0)
(0 -0.00399578 0)
(0 -0.0037509 0)
(0 -0.00407783 0)
(0 -0.00432949 0)
(0 -0.00463087 0)
(0 -0.00437563 0)
(0 -0.00463943 0)
(0 -0.00477608 0)
(0 -0.00489361 0)
(0 -0.00477592 0)
(0 -0.00510798 0)
(0 -0.00516451 0)
(0 -0.00521013 0)
(0 -0.00515411 0)
(0 -0.0054073 0)
(0 -0.00545252 0)
(0 -0.00548187 0)
(0 -0.00543758 0)
(0 -0.00558449 0)
(0 -0.00561744 0)
(0 -0.0056324 0)
(0 -0.0055992 0)
(0 -0.00566214 0)
(0 -0.00568631 0)
(0 -0.00568976 0)
(0 -0.00566629 0)
(0 -0.005682 0)
(0 -0.00570147 0)
(0 -0.00570114 0)
(0 -0.00568153 0)
(0 -0.00566214 0)
(0 -0.00568631 0)
(0 -0.00568154 0)
(0 -0.00565649 0)
(0 -0.00558449 0)
(0 -0.00561744 0)
(0 -0.0056049 0)
(0 -0.00556679 0)
(0 -0.0054073 0)
(0 -0.00545252 0)
(0 -0.00542697 0)
(0 -0.00537435 0)
(0 -0.00510798 0)
(0 -0.00516451 0)
(0 -0.00521624 0)
(0 -0.0051178 0)
(0 -0.00500772 0)
(0 -0.00463943 0)
(0 -0.00477608 0)
(0 -0.00489478 0)
(0 -0.00463087 0)
(0 -0.00437563 0)
(0 -0.00407783 0)
(0 -0.0043196 0)
(0 -0.00399321 0)
(0 -0.0037509 0)
(0 -0.00364031 0)
(0 -0.00383595 0)
(0 -0.0030523 0)
(0 -0.00226303 0)
(0 -0.00151153 0)
(0 -0.000861161 0)
(0 -0.000367494 0)
(0 -7.33566e-05 0)
(0 0 0)
(0 0 0)
(0 0 0)
(0 0 0)
(0 0 0)
(0 0 0)
(0 0 0)
(0 0 0)
(0 0 0)
(0 0 0)
(0 0 0)
(0 0 0)
(0 0 0)
(0 0 0)
(0 -0.000110391 0)
(0 -0.000450107 0)
(0 -0.000990512 0)
(0 -0.00168597 0)
(0 -0.00247791 0)
(0 -0.0032998 0)
(0 -0.00408282 0)
(0 -0.00398581 0)
(0 -0.00434278 0)
(0 -0.00417706 0)
(0 -0.00450022 0)
(0 -0.00466799 0)
(0 -0.00495507 0)
(0 -0.00481641 0)
(0 -0.00507775 0)
(0 -0.0051423 0)
(0 -0.00525477 0)
(0 -0.00519171 0)
(0 -0.00546252 0)
(0 -0.00549234 0)
(0 -0.00552599 0)
(0 -0.00549711 0)
(0 -0.00567007 0)
(0 -0.00568447 0)
(0 -0.00569649 0)
(0 -0.00568379 0)
(0 -0.00571977 0)
(0 -0.00571977 0)
(0 -0.00571977 0)
(0 -0.00571977 0)
(0 -0.00571977 0)
(0 -0.00571977 0)
(0 -0.00571977 0)
(0 -0.00571977 0)
(0 -0.00571977 0)
(0 -0.00571977 0)
(0 -0.00571977 0)
(0 -0.00571977 0)
(0 -0.00571977 0)
(0 -0.00571977 0)
(0 -0.00571977 0)
(0 -0.00571977 0)
(0 -0.00571977 0)
(0 -0.00571977 0)
(0 -0.00571977 0)
(0 -0.00571977 0)
(0 -0.00567007 0)
(0 -0.00568447 0)
(0 -0.00566861 0)
(0 -0.00565358 0)
(0 -0.00546252 0)
(0 -0.00549234 0)
(0 -0.00551782 0)
(0 -0.00544003 0)
(0 -0.00538429 0)
(0 -0.0050748 0)
(0 -0.0051498 0)
(0 -0.00520707 0)
(0 -0.0049482 0)
(0 -0.0048207 0)
(0 -0.00452587 0)
(0 -0.00466219 0)
(0 -0.00433817 0)
(0 -0.00419552 0)
(0 -0.00398242 0)
(0 -0.00408485 0)
(0 -0.00329844 0)
(0 -0.00247398 0)
(0 -0.00168056 0)
(0 -0.000984871 0)
(0 -0.00044544 0)
(0 -0.000107741 0)
(0 0 0)
(0 0 0)
(0 0 0)
(0 0 0)
(0 0 0)
(0 0 0)
(0 0 0)
(0 0 0)
(0 0 0)
(0 0 0)
(0 0 0)
(0 0 0)
(0 0 0)
(0 0 0)
(0 -0.000117039 0)
(0 -0.000464495 0)
(0 -0.00101319 0)
(0 -0.00171703 0)
(0 -0.00251686 0)
(0 -0.00334548 0)
(0 -0.00413329 0)
(0 -0.00413474 0)
(0 -0.00449208 0)
(0 -0.00443912 0)
(0 -0.00476192 0)
(0 -0.00481494 0)
(0 -0.00509653 0)
(0 -0.00504467 0)
(0 -0.00529079 0)
(0 -0.00531457 0)
(0 -0.00541325 0)
(0 -0.0053918 0)
(0 -0.00561453 0)
(0 -0.00562371 0)
(0 -0.00564806 0)
(0 -0.00563959 0)
(0 -0.00571977 0)
(0 -0.00571977 0)
(0 -0.00571977 0)
(0 -0.00571977 0)
(0 -0.00571977 0)
(0 -0.00571977 0)
(0 -0.00571977 0)
(0 -0.00571977 0)
(0 -0.00571977 0)
(0 -0.00571977 0)
(0 -0.00571977 0)
(0 -0.00571977 0)
(0 -0.00571977 0)
(0 -0.00571977 0)
(0 -0.00571977 0)
(0 -0.00571977 0)
(0 -0.00571977 0)
(0 -0.00571954 0)
(0 -0.00571871 0)
(0 -0.00561453 0)
(0 -0.00562371 0)
(0 -0.00562976 0)
(0 -0.00557257 0)
(0 -0.00555238 0)
(0 -0.00529046 0)
(0 -0.00531491 0)
(0 -0.00533092 0)
(0 -0.00509653 0)
(0 -0.005052 0)
(0 -0.0047676 0)
(0 -0.00480281 0)
(0 -0.00447815 0)
(0 -0.00444299 0)
(0 -0.00411931 0)
(0 -0.00412404 0)
(0 -0.00333519 0)
(0 -0.00250641 0)
(0 -0.00170732 0)
(0 -0.00100508 0)
(0 -0.000458674 0)
(0 -0.000114023 0)
(0 0 0)
(0 0 0)
(0 0 0)
(0 0 0)
(0 0 0)
(0 0 0)
(0 0 0)
(0 0 0)
(0 0 0)
(0 0 0)
(0 0 0)
(0 0 0)
(0 0 0)
(0 0 0)
(0 -9.5648e-05 0)
(0 -0.000418021 0)
(0 -0.00094045 0)
(0 -0.00161837 0)
(0 -0.00239439 0)
(0 -0.00320326 0)
(0 -0.00397764 0)
(0 -0.0040894 0)
(0 -0.00444615 0)
(0 -0.0044909 0)
(0 -0.00481408 0)
(0 -0.00476928 0)
(0 -0.00505219 0)
(0 -0.00509599 0)
(0 -0.0053307 0)
(0 -0.00531814 0)
(0 -0.00541679 0)
(0 -0.00542875 0)
(0 -0.00563979 0)
(0 -0.00563681 0)
(0 -0.00565964 0)
(0 -0.00566235 0)
(0 -0.00571977 0)
(0 -0.00571977 0)
(0 -0.00571977 0)
(0 -0.00571977 0)
(0 -0.00571977 0)
(0 -0.00571977 0)
(0 -0.00571977 0)
(0 -0.00571977 0)
(0 -0.00571977 0)
(0 -0.00571977 0)
(0 -0.00571977 0)
(0 -0.00571977 0)
(0 -0.00571977 0)
(0 -0.00571977 0)
(0 -0.00571977 0)
(0 -0.00571977 0)
(0 -0.00563979 0)
(0 -0.00563437 0)
(0 -0.0056314 0)
(0 -0.00557434 0)
(0 -0.00558083 0)
(0 -0.00532574 0)
(0 -0.00531774 0)
(0 -0.00529348 0)
(0 -0.00505565 0)
(0 -0.00508975 0)
(0 -0.00480668 0)
(0 -0.0047718 0)
(0 -0.00444766 0)
(0 -0.00448249 0)
(0 -0.0040899 0)
(0 -0.00398775 0)
(0 -0.00321069 0)
(0 -0.00239924 0)
(0 -0.00162104 0)
(0 -0.000941512 0)
(0 -0.000418124 0)
(0 -9.54392e-05 0)
(0 0 0)
(0 0 0)
(0 0 0)
(0 0 0)
(0 0 0)
(0 0 0)
(0 0 0)
(0 0 0)
(0 0 0)
(0 0 0)
(0 0 0)
(0 0 0)
(0 0 0)
(0 0 0)
(0 -4.83773e-05 0)
(0 -0.000303867 0)
(0 -0.000755807 0)
(0 -0.00136361 0)
(0 -0.00212003 0)
(0 -0.00289352 0)
(0 -0.00364798 0)
(0 -0.00384806 0)
(0 -0.00420572 0)
(0 -0.00433179 0)
(0 -0.00467545 0)
(0 -0.0045339 0)
(0 -0.0048264 0)
(0 -0.00496697 0)
(0 -0.00521455 0)
(0 -0.00515522 0)
(0 -0.00526283 0)
(0 -0.00532045 0)
(0 -0.00556207 0)
(0 -0.00554519 0)
(0 -0.00557588 0)
(0 -0.0055939 0)
(0 -0.00571285 0)
(0 -0.00570699 0)
(0 -0.00571399 0)
(0 -0.00571762 0)
(0 -0.00571977 0)
(0 -0.00571977 0)
(0 -0.00571977 0)
(0 -0.00571977 0)
(0 -0.00571977 0)
(0 -0.00571977 0)
(0 -0.00571977 0)
(0 -0.00571977 0)
(0 -0.00571285 0)
(0 -0.00570613 0)
(0 -0.00569683 0)
(0 -0.00570514 0)
(0 -0.00556207 0)
(0 -0.00554519 0)
(0 -0.00552224 0)
(0 -0.0054495 0)
(0 -0.00549442 0)
(0 -0.00521455 0)
(0 -0.00515522 0)
(0 -0.00508784 0)
(0 -0.0048264 0)
(0 -0.00496697 0)
(0 -0.00466674 0)
(0 -0.0045339 0)
(0 -0.00420572 0)
(0 -0.00434315 0)
(0 -0.00384806 0)
(0 -0.00364798 0)
(0 -0.00289352 0)
(0 -0.00209271 0)
(0 -0.00137702 0)
(0 -0.000764598 0)
(0 -0.000308679 0)
(0 -5.00031e-05 0)
(0 0 0)
(0 0 0)
(0 0 0)
(0 0 0)
(0 0 0)
(0 0 0)
(0 0 0)
(0 0 0)
(0 0 0)
(0 0 0)
(0 0 0)
(0 0 0)
(0 0 0)
(0 0 0)
(0 -5.98598e-06 0)
(0 -0.000177692 0)
(0 -0.000541093 0)
(0 -0.00106401 0)
(0 -0.00169864 0)
(0 -0.00238928 0)
(0 -0.003114 0)
(0 -0.00338879 0)
(0 -0.00375729 0)
(0 -0.00399891 0)
(0 -0.00434026 0)
(0 -0.0040799 0)
(0 -0.00440299 0)
(0 -0.00463711 0)
(0 -0.00490986 0)
(0 -0.0048005 0)
(0 -0.00492097 0)
(0 -0.00502941 0)
(0 -0.00532213 0)
(0 -0.00527343 0)
(0 -0.00531772 0)
(0 -0.00535817 0)
(0 -0.00558083 0)
(0 -0.0055488 0)
(0 -0.00557218 0)
(0 -0.00560297 0)
(0 -0.00569651 0)
(0 -0.00567859 0)
(0 -0.00568646 0)
(0 -0.00570282 0)
(0 -0.00571977 0)
(0 -0.00571659 0)
(0 -0.00571783 0)
(0 -0.00571977 0)
(0 -0.00571977 0)
(0 -0.00571977 0)
(0 -0.00571977 0)
(0 -0.00571977 0)
(0 -0.00571977 0)
(0 -0.00571977 0)
(0 -0.00571659 0)
(0 -0.00571484 0)
(0 -0.00571957 0)
(0 -0.00571972 0)
(0 -0.00569651 0)
(0 -0.00567859 0)
(0 -0.00566888 0)
(0 -0.00568838 0)
(0 -0.00558083 0)
(0 -0.0055488 0)
(0 -0.00552274 0)
(0 -0.00555594 0)
(0 -0.00532605 0)
(0 -0.00528134 0)
(0 -0.00522761 0)
(0 -0.00513877 0)
(0 -0.00523536 0)
(0 -0.00489638 0)
(0 -0.00479493 0)
(0 -0.00467643 0)
(0 -0.00439694 0)
(0 -0.00463711 0)
(0 -0.00434026 0)
(0 -0.0040799 0)
(0 -0.00375729 0)
(0 -0.00399891 0)
(0 -0.00338879 0)
(0 -0.003114 0)
(0 -0.00238928 0)
(0 -0.00169864 0)
(0 -0.00106401 0)
(0 -0.000541093 0)
(0 -0.000165751 0)
(0 -7.19024e-06 0)
(0 0 0)
(0 0 0)
(0 0 0)
(0 0 0)
(0 0 0)
(0 0 0)
(0 0 0)
(0 0 0)
(0 0 0)
(0 0 0)
(0 0 0)
(0 0 0)
(0 0 0)
(0 0 0)
(0 0 0)
(0 -5.46175e-05 0)
(0 -0.000287814 0)
(0 -0.000677161 0)
(0 -0.00118205 0)
(0 -0.00181287 0)
(0 -0.00246511 0)
(0 -0.00277279 0)
(0 -0.00313587 0)
(0 -0.00344634 0)
(0 -0.00378293 0)
(0 -0.00346272 0)
(0 -0.00376833 0)
(0 -0.0040993 0)
(0 -0.00438575 0)
(0 -0.00404731 0)
(0 -0.00428087 0)
(0 -0.00447478 0)
(0 -0.00463779 0)
(0 -0.00451631 0)
(0 -0.00485454 0)
(0 -0.00468507 0)
(0 -0.00478982 0)
(0 -0.00495038 0)
(0 -0.00519032 0)
(0 -0.00504502 0)
(0 -0.00510313 0)
(0 -0.00525374 0)
(0 -0.00540293 0)
(0 -0.00527417 0)
(0 -0.00531199 0)
(0 -0.00543861 0)
(0 -0.0055132 0)
(0 -0.00539438 0)
(0 -0.00541535 0)
(0 -0.00552781 0)
(0 -0.00554736 0)
(0 -0.00543763 0)
(0 -0.00543195 0)
(0 -0.00554287 0)
(0 -0.0055132 0)
(0 -0.00539438 0)
(0 -0.00536463 0)
(0 -0.00549029 0)
(0 -0.00540293 0)
(0 -0.00527417 0)
(0 -0.00522689 0)
(0 -0.00535795 0)
(0 -0.00519032 0)
(0 -0.00504502 0)
(0 -0.00496988 0)
(0 -0.00511678 0)
(0 -0.00485454 0)
(0 -0.00468507 0)
(0 -0.0045867 0)
(0 -0.00474984 0)
(0 -0.00438575 0)
(0 -0.00404731 0)
(0 -0.00376833 0)
(0 -0.0040993 0)
(0 -0.00378293 0)
(0 -0.00346272 0)
(0 -0.00313587 0)
(0 -0.00344634 0)
(0 -0.00277279 0)
(0 -0.00246511 0)
(0 -0.00181287 0)
(0 -0.00118205 0)
(0 -0.000677161 0)
(0 -0.000287814 0)
(0 -5.46175e-05 0)
(0 0 0)
(0 0 0)
(0 0 0)
(0 0 0)
(0 0 0)
(0 0 0)
(0 0 0)
(0 0 0)
(0 0 0)
(0 0 0)
(0 0 0)
(0 0 0)
(0 0 0)
(0 0 0)
(0 0 0)
(0 0 0)
(0 0 0)
(0 -8.23062e-05 0)
(0 -0.000339863 0)
(0 -0.00072857 0)
(0 -0.00121064 0)
(0 -0.00173867 0)
(0 -0.00225991 0)
(0 -0.00266441 0)
(0 -0.00309453 0)
(0 -0.00278593 0)
(0 -0.00295388 0)
(0 -0.003385 0)
(0 -0.00364121 0)
(0 -0.00322512 0)
(0 -0.00347319 0)
(0 -0.00390268 0)
(0 -0.00413365 0)
(0 -0.00391992 0)
(0 -0.00400242 0)
(0 -0.00423666 0)
(0 -0.0044995 0)
(0 -0.00428936 0)
(0 -0.00436734 0)
(0 -0.00457808 0)
(0 -0.00475716 0)
(0 -0.0045458 0)
(0 -0.00458065 0)
(0 -0.00479783 0)
(0 -0.00491166 0)
(0 -0.0047087 0)
(0 -0.0047324 0)
(0 -0.00493517 0)
(0 -0.00496281 0)
(0 -0.00476113 0)
(0 -0.00475137 0)
(0 -0.00495395 0)
(0 -0.00491166 0)
(0 -0.0047087 0)
(0 -0.0046755 0)
(0 -0.00487867 0)
(0 -0.00475716 0)
(0 -0.0045458 0)
(0 -0.00449566 0)
(0 -0.00470696 0)
(0 -0.0044995 0)
(0 -0.00428936 0)
(0 -0.0042024 0)
(0 -0.00441165 0)
(0 -0.00413365 0)
(0 -0.00391992 0)
(0 -0.00367291 0)
(0 -0.00347319 0)
(0 -0.00390268 0)
(0 -0.00364121 0)
(0 -0.00322512 0)
(0 -0.00295388 0)
(0 -0.003385 0)
(0 -0.00309453 0)
(0 -0.00266441 0)
(0 -0.00225991 0)
(0 -0.00173867 0)
(0 -0.00278593 0)
(0 -0.00121064 0)
(0 -0.00072857 0)
(0 -0.000339863 0)
(0 -8.23062e-05 0)
(0 0 0)
(0 0 0)
(0 0 0)
(0 0 0)
(0 0 0)
(0 0 0)
(0 0 0)
(0 0 0)
(0 0 0)
(0 0 0)
(0 0 0)
(0 0 0)
(0 0 0)
(0 0 0)
(0 0 0)
(0 0 0)
(0 0 0)
(0 0 0)
(0 -1.04375e-06 0)
(0 -9.35027e-05 0)
(0 -0.00031685 0)
(0 -0.000620913 0)
(0 -0.0010163 0)
(0 -0.00143798 0)
(0 -0.00184568 0)
(0 -0.00208369 0)
(0 -0.00252547 0)
(0 -0.00277593 0)
(0 -0.00228432 0)
(0 -0.00251067 0)
(0 -0.00298231 0)
(0 -0.00320859 0)
(0 -0.00296544 0)
(0 -0.00306496 0)
(0 -0.00331206 0)
(0 -0.00357879 0)
(0 -0.00332221 0)
(0 -0.00339301 0)
(0 -0.00365202 0)
(0 -0.00381792 0)
(0 -0.00356099 0)
(0 -0.00361819 0)
(0 -0.00387679 0)
(0 -0.00400014 0)
(0 -0.00373825 0)
(0 -0.00376066 0)
(0 -0.00402313 0)
(0 -0.00405343 0)
(0 -0.00379097 0)
(0 -0.00377864 0)
(0 -0.00404157 0)
(0 -0.00400014 0)
(0 -0.00373825 0)
(0 -0.00370696 0)
(0 -0.00396802 0)
(0 -0.00381792 0)
(0 -0.00356099 0)
(0 -0.00349549 0)
(0 -0.00377333 0)
(0 -0.00357879 0)
(0 -0.00332221 0)
(0 -0.00324372 0)
(0 -0.00349752 0)
(0 -0.00320859 0)
(0 -0.00296544 0)
(0 -0.00271788 0)
(0 -0.00251067 0)
(0 -0.00298231 0)
(0 -0.00277593 0)
(0 -0.00228432 0)
(0 -0.00208369 0)
(0 -0.00252547 0)
(0 -0.00184568 0)
(0 -0.00143798 0)
(0 -0.0010163 0)
(0 -0.000620913 0)
(0 -0.00031685 0)
(0 -9.35027e-05 0)
(0 -1.04375e-06 0)
(0 0 0)
(0 0 0)
(0 0 0)
(0 0 0)
(0 0 0)
(0 0 0)
(0 0 0)
(0 0 0)
(0 0 0)
(0 0 0)
(0 0 0)
(0 0 0)
(0 0 0)
(0 0 0)
(0 0 0)
(0 0 0)
(0 0 0)
(0 0 0)
(0 0 0)
(0 0 0)
(0 -4.91044e-05 0)
(0 -0.000204518 0)
(0 -0.000414314 0)
(0 -0.000697627 0)
(0 -0.00103155 0)
(0 -0.00121636 0)
(0 -0.0016208 0)
(0 -0.00183305 0)
(0 -0.00139748 0)
(0 -0.00157034 0)
(0 -0.00203389 0)
(0 -0.00221891 0)
(0 -0.00197227 0)
(0 -0.00205224 0)
(0 -0.00230425 0)
(0 -0.00252646 0)
(0 -0.00226098 0)
(0 -0.00229907 0)
(0 -0.00256078 0)
(0 -0.002754 0)
(0 -0.00248152 0)
(0 -0.00252924 0)
(0 -0.00280445 0)
(0 -0.00291076 0)
(0 -0.00262994 0)
(0 -0.00264882 0)
(0 -0.00293068 0)
(0 -0.00295969 0)
(0 -0.00267699 0)
(0 -0.00266398 0)
(0 -0.00294666 0)
(0 -0.00291076 0)
(0 -0.00262994 0)
(0 -0.00260363 0)
(0 -0.002883 0)
(0 -0.002754 0)
(0 -0.00248152 0)
(0 -0.00242707 0)
(0 -0.00269639 0)
(0 -0.00252646 0)
(0 -0.00226098 0)
(0 -0.00219697 0)
(0 -0.00245841 0)
(0 -0.00221891 0)
(0 -0.00197227 0)
(0 -0.00173075 0)
(0 -0.00157034 0)
(0 -0.00203389 0)
(0 -0.00183305 0)
(0 -0.00139748 0)
(0 -0.00121636 0)
(0 -0.0016208 0)
(0 -0.00103155 0)
(0 -0.000697627 0)
(0 -0.000414314 0)
(0 -0.000204518 0)
(0 -4.91044e-05 0)
(0 0 0)
(0 0 0)
(0 0 0)
(0 0 0)
(0 0 0)
(0 0 0)
(0 0 0)
(0 0 0)
(0 0 0)
(0 0 0)
(0 0 0)
(0 0 0)
(0 0 0)
(0 0 0)
(0 0 0)
(0 0 0)
(0 0 0)
(0 0 0)
(0 0 0)
(0 0 0)
(0 0 0)
(0 0 0)
(0 0 0)
(0 -4.18162e-06 0)
(0 -7.09303e-05 0)
(0 -0.000197956 0)
(0 -0.00041527 0)
(0 -0.000528327 0)
(0 -0.000846887 0)
(0 -0.000995236 0)
(0 -0.000643128 0)
(0 -0.000755789 0)
(0 -0.00113844 0)
(0 -0.00127255 0)
(0 -0.00106048 0)
(0 -0.0011169 0)
(0 -0.00133508 0)
(0 -0.00148567 0)
(0 -0.00125736 0)
(0 -0.00131029 0)
(0 -0.00154383 0)
(0 -0.00169039 0)
(0 -0.00144405 0)
(0 -0.00147933 0)
(0 -0.00172896 0)
(0 -0.00181065 0)
(0 -0.00155417 0)
(0 -0.00156826 0)
(0 -0.00182601 0)
(0 -0.00185054 0)
(0 -0.00159126 0)
(0 -0.00157959 0)
(0 -0.00183836 0)
(0 -0.00181065 0)
(0 -0.00155417 0)
(0 -0.00153457 0)
(0 -0.00178926 0)
(0 -0.00169039 0)
(0 -0.00144405 0)
(0 -0.00140394 0)
(0 -0.0016465 0)
(0 -0.00148567 0)
(0 -0.00125736 0)
(0 -0.00120082 0)
(0 -0.00142342 0)
(0 -0.00127255 0)
(0 -0.00106048 0)
(0 -0.000862678 0)
(0 -0.000755789 0)
(0 -0.00113844 0)
(0 -0.000995236 0)
(0 -0.000643128 0)
(0 -0.000528327 0)
(0 -0.000846887 0)
(0 -0.00041527 0)
(0 -0.000197956 0)
(0 -7.09303e-05 0)
(0 -4.18162e-06 0)
(0 0 0)
(0 0 0)
(0 0 0)
(0 0 0)
(0 0 0)
(0 0 0)
(0 0 0)
(0 0 0)
(0 0 0)
(0 0 0)
(0 0 0)
(0 0 0)
(0 0 0)
(0 0 0)
(0 0 0)
(0 0 0)
(0 0 0)
(0 0 0)
(0 0 0)
(0 0 0)
(0 0 0)
(0 0 0)
(0 0 0)
(0 0 0)
(0 0 0)
(0 0 0)
(0 -7.58005e-07 0)
(0 -5.69485e-05 0)
(0 -9.9194e-05 0)
(0 -0.000275055 0)
(0 -0.00035637 0)
(0 -0.00014791 0)
(0 -0.000200006 0)
(0 -0.000438407 0)
(0 -0.00051787 0)
(0 -0.00035648 0)
(0 -0.000392973 0)
(0 -0.000537437 0)
(0 -0.000659882 0)
(0 -0.000496617 0)
(0 -0.000528077 0)
(0 -0.000696718 0)
(0 -0.000790915 0)
(0 -0.000609025 0)
(0 -0.000630701 0)
(0 -0.000816012 0)
(0 -0.000869565 0)
(0 -0.000677091 0)
(0 -0.000685887 0)
(0 -0.000879696 0)
(0 -0.000897313 0)
(0 -0.000701503 0)
(0 -0.000692972 0)
(0 -0.00088785 0)
(0 -0.000869565 0)
(0 -0.000677091 0)
(0 -0.000664885 0)
(0 -0.000855495 0)
(0 -0.000790915 0)
(0 -0.000609025 0)
(0 -0.000584543 0)
(0 -0.000762508 0)
(0 -0.000659882 0)
(0 -0.000496617 0)
(0 -0.000463394 0)
(0 -0.000620828 0)
(0 -0.00051787 0)
(0 -0.00035648 0)
(0 -0.000239718 0)
(0 -0.000200006 0)
(0 -0.000438407 0)
(0 -0.00035637 0)
(0 -0.00014791 0)
(0 -9.9194e-05 0)
(0 -0.000275055 0)
(0 -5.69485e-05 0)
(0 -7.58005e-07 0)
(0 0 0)
(0 0 0)
(0 0 0)
(0 0 0)
(0 0 0)
(0 0 0)
(0 0 0)
(0 0 0)
(0 0 0)
(0 0 0)
(0 0 0)
(0 0 0)
(0 0 0)
(0 0 0)
(0 0 0)
(0 0 0)
(0 0 0)
(0 0 0)
(0 0 0)
(0 0 0)
(0 0 0)
(0 0 0)
(0 0 0)
(0 0 0)
(0 0 0)
(0 0 0)
(0 0 0)
(0 0 0)
(0 0 0)
(0 0 0)
(0 0 0)
(0 -2.78386e-05 0)
(0 -1.00689e-05 0)
(0 0 0)
(0 -4.3776e-05 0)
(0 -7.31334e-05 0)
(0 -2.23897e-06 0)
(0 -9.78644e-06 0)
(0 -0.000105391 0)
(0 -0.000138078 0)
(0 -2.0636e-05 0)
(0 -3.28585e-05 0)
(0 -0.000168963 0)
(0 -0.00019611 0)
(0 -4.47695e-05 0)
(0 -5.49711e-05 0)
(0 -0.000217918 0)
(0 -0.000233155 0)
(0 -6.23848e-05 0)
(0 -6.62775e-05 0)
(0 -0.000240985 0)
(0 -0.00024725 0)
(0 -6.96031e-05 0)
(0 -6.62775e-05 0)
(0 -0.000240985 0)
(0 -0.000233155 0)
(0 -6.23848e-05 0)
(0 -5.49711e-05 0)
(0 -0.000217918 0)
(0 -0.00019611 0)
(0 -4.47695e-05 0)
(0 -3.28585e-05 0)
(0 -0.000168963 0)
(0 -0.000138078 0)
(0 -2.0636e-05 0)
(0 -9.78644e-06 0)
(0 -0.000105391 0)
(0 -7.31334e-05 0)
(0 -2.23897e-06 0)
(0 0 0)
(0 -4.3776e-05 0)
(0 -2.78386e-05 0)
(0 0 0)
(0 0 0)
(0 0 0)
(0 -1.00689e-05 0)
(0 0 0)
(0 0 0)
(0 0 0)
(0 0 0)
(0 0 0)
(0 0 0)
(0 0 0)
(0 0 0)
(0 0 0)
(0 0 0)
(0 0 0)
(0 0 0)
(0 0 0)
(0 0 0)
(0 0 0)
(0 0 0)
(0 0 0)
(0 0 0)
(0 0 0)
(0 0 0)
(0 0 0)
(0 0 0)
(0 0 0)
(0 0 0)
(0 0 0)
(0 0 0)
(0 0 0)
(0 0 0)
(0 0 0)
(0 0 0)
(0 0 0)
(0 0 0)
(0 0 0)
(0 0 0)
(0 0 0)
(0 0 0)
(0 0 0)
(0 0 0)
(0 0 0)
(0 0 0)
(0 -2.01214e-07 0)
(0 0 0)
(0 0 0)
(0 -7.74339e-07 0)
(0 -4.60719e-07 0)
(0 0 0)
(0 -2.01214e-07 0)
(0 -4.60719e-07 0)
(0 0 0)
(0 0 0)
(0 0 0)
(0 0 0)
(0 0 0)
(0 0 0)
(0 0 0)
(0 0 0)
(0 0 0)
(0 0 0)
(0 0 0)
(0 0 0)
(0 0 0)
(0 0 0)
(0 0 0)
(0 0 0)
(0 0 0)
(0 0 0)
(0 0 0)
(0 0 0)
(0 0 0)
(0 0 0)
(0 0 0)
(0 0 0)
(0 0 0)
(0 0 0)
(0 0 0)
(0 0 0)
(0 0 0)
(0 0 0)
(0 0 0)
(0 0 0)
(0 0 0)
(0 0 0)
(0 0 0)
(0 0 0)
(0 0 0)
(0 0 0)
(0 0 0)
(0 0 0)
(0 0 0)
(0 0 0)
(0 0 0)
(0 0 0)
(0 0 0)
(0 0 0)
(0 0 0)
(0 0 0)
(0 0 0)
(0 0 0)
(0 0 0)
(0 0 0)
(0 0 0)
(0 0 0)
(0 0 0)
(0 0 0)
(0 0 0)
(0 0 0)
(0 0 0)
(0 0 0)
(0 0 0)
(0 0 0)
(0 0 0)
(0 0 0)
(0 0 0)
(0 0 0)
(0 0 0)
(0 0 0)
(0 0 0)
(0 0 0)
(0 0 0)
(0 0 0)
(0 0 0)
(0 0 0)
(0 0 0)
(0 0 0)
(0 0 0)
(0 0 0)
(0 0 0)
(0 0 0)
(0 0 0)
(0 0 0)
(0 0 0)
(0 0 0)
(0 0 0)
(0 0 0)
(0 0 0)
(0 0 0)
(0 0 0)
(0 0 0)
(0 0 0)
(0 0 0)
(0 0 0)
(0 0 0)
(0 0 0)
(0 0 0)
(0 0 0)
(0 0 0)
(0 0 0)
(0 0 0)
(0 0 0)
(0 0 0)
(0 0 0)
(0 0 0)
(0 0 0)
(0 0 0)
(0 0 0)
(0 0 0)
(0 0 0)
(0 0 0)
(0 0 0)
(0 0 0)
(0 0 0)
(0 0 0)
(0 0 0)
(0 0 0)
(0 0 0)
(0 0 0)
(0 0 0)
(0 0 0)
(0 0 0)
(0 0 0)
(0 0 0)
(0 0 0)
(0 0 0)
(0 0 0)
(0 0 0)
(0 0 0)
(0 0 0)
(0 0 0)
(0 0 0)
(0 0 0)
(0 0 0)
(0 0 0)
(0 0 0)
(0 0 0)
(0 0 0)
(0 0 0)
(0 0 0)
(0 0 0)
(0 0 0)
(0 0 0)
(0 0 0)
(0 0 0)
(0 0 0)
(0 0 0)
(0 0 0)
(0 0 0)
(0 0 0)
(0 0 0)
(0 0 0)
(0 0 0)
(0 0 0)
(0 0 0)
(0 0 0)
(0 0 0)
(0 0 0)
(0 0 0)
(0 0 0)
(0 0 0)
(0 0 0)
(0 0 0)
(0 0 0)
(0 0 0)
(0 0 0)
(0 0 0)
(0 0 0)
(0 0 0)
(0 0 0)
(0 0 0)
(0 0 0)
(0 0 0)
(0 0 0)
(0 0 0)
(0 0 0)
(0 0 0)
(0 0 0)
(0 0 0)
(0 0 0)
(0 0 0)
(0 0 0)
(0 0 0)
(0 0 0)
(0 0 0)
(0 0 0)
(0 0 0)
(0 0 0)
(0 0 0)
(0 0 0)
(0 0 0)
(0 0 0)
(0 0 0)
(0 0 0)
(0 0 0)
(0 0 0)
(0 0 0)
(0 0 0)
(0 0 0)
(0 0 0)
(0 0 0)
(0 0 0)
(0 0 0)
(0 0 0)
(0 0 0)
(0 0 0)
(0 0 0)
(0 0 0)
(0 0 0)
(0 0 0)
(0 0 0)
(0 0 0)
(0 0 0)
(0 0 0)
(0 0 0)
(0 0 0)
(0 0 0)
(0 0 0)
(0 0 0)
(0 0 0)
(0 0 0)
(0 0 0)
(0 0 0)
(0 0 0)
(0 0 0)
(0 0 0)
(0 0 0)
(0 0 0)
(0 0 0)
(0 0 0)
(0 0 0)
(0 0 0)
(0 0 0)
(0 0 0)
(0 0 0)
(0 0 0)
(0 0 0)
(0 0 0)
(0 0 0)
(0 0 0)
(0 0 0)
(0 0 0)
(0 0 0)
(0 0 0)
(0 0 0)
(0 0 0)
(0 0 0)
(0 0 0)
(0 0 0)
(0 0 0)
(0 0 0)
(0 0 0)
(0 0 0)
(0 0 0)
(0 0 0)
(0 0 0)
(0 0 0)
(0 0 0)
(0 0 0)
(0 0 0)
(0 0 0)
(0 0 0)
(0 0 0)
(0 0 0)
(0 0 0)
(0 0 0)
(0 0 0)
(0 0 0)
(0 0 0)
(0 0 0)
(0 0 0)
(0 0 0)
(0 0 0)
(0 0 0)
(0 0 0)
(0 0 0)
(0 0 0)
(0 0 0)
(0 0 0)
(0 0 0)
(0 0 0)
(0 0 0)
(0 0 0)
(0 0 0)
(0 0 0)
(0 0 0)
(0 0 0)
(0 0 0)
(0 0 0)
(0 0 0)
(0 0 0)
(0 0 0)
(0 0 0)
(0 0 0)
(0 0 0)
(0 0 0)
(0 0 0)
(0 0 0)
(0 0 0)
(0 0 0)
(0 0 0)
(0 0 0)
(0 0 0)
(0 0 0)
(0 0 0)
(0 0 0)
(0 0 0)
(0 0 0)
(0 0 0)
(0 0 0)
(0 0 0)
(0 0 0)
(0 0 0)
(0 0 0)
(0 0 0)
(0 0 0)
(0 0 0)
(0 0 0)
(0 0 0)
(0 0 0)
(0 0 0)
(0 0 0)
(0 0 0)
(0 0 0)
(0 0 0)
(0 0 0)
(0 0 0)
(0 0 0)
(0 0 0)
(0 0 0)
(0 0 0)
(0 0 0)
(0 0 0)
(0 0 0)
(0 0 0)
(0 0 0)
(0 0 0)
(0 0 0)
(0 0 0)
(0 0 0)
(0 0 0)
(0 0 0)
(0 0 0)
(0 0 0)
(0 0 0)
(0 0 0)
(0 0 0)
(0 0 0)
(0 0 0)
(0 0 0)
(0 0 0)
(0 0 0)
(0 0 0)
(0 0 0)
(0 0 0)
(0 0 0)
(0 0 0)
(0 0 0)
(0 0 0)
(0 0 0)
(0 0 0)
(0 0 0)
(0 0 0)
(0 0 0)
(0 0 0)
(0 0 0)
(0 0 0)
(0 0 0)
(0 0 0)
(0 0 0)
(0 0 0)
(0 0 0)
(0 0 0)
(0 0 0)
(0 0 0)
(0 0 0)
(0 0 0)
(0 0 0)
(0 0 0)
(0 0 0)
(0 0 0)
(0 0 0)
(0 0 0)
(0 0 0)
(0 0 0)
(0 0 0)
(0 0 0)
(0 0 0)
(0 0 0)
(0 0 0)
(0 0 0)
(0 0 0)
(0 0 0)
(0 0 0)
(0 0 0)
(0 0 0)
(0 0 0)
(0 0 0)
(0 0 0)
(0 0 0)
(0 0 0)
(0 0 0)
(0 0 0)
(0 0 0)
(0 0 0)
(0 0 0)
(0 0 0)
(0 0 0)
(0 0 0)
(0 0 0)
(0 0 0)
(0 0 0)
(0 0 0)
(0 0 0)
(0 0 0)
(0 0 0)
(0 0 0)
(0 0 0)
(0 0 0)
(0 0 0)
(0 0 0)
(0 0 0)
(0 0 0)
(0 0 0)
(0 0 0)
(0 0 0)
(0 0 0)
(0 0 0)
(0 0 0)
(0 0 0)
(0 0 0)
(0 0 0)
(0 0 0)
(0 0 0)
(0 0 0)
(0 0 0)
(0 0 0)
(0 0 0)
(0 0 0)
(0 0 0)
(0 0 0)
(0 0 0)
(0 0 0)
(0 0 0)
(0 0 0)
(0 0 0)
(0 0 0)
(0 0 0)
(0 0 0)
(0 0 0)
(0 0 0)
(0 0 0)
(0 0 0)
(0 0 0)
(0 0 0)
(0 0 0)
(0 0 0)
(0 0 0)
(0 0 0)
(0 0 0)
(0 0 0)
(0 0 0)
(0 0 0)
(0 0 0)
(0 0 0)
(0 0 0)
(0 0 0)
(0 0 0)
(0 0 0)
(0 0 0)
(0 0 0)
(0 0 0)
(0 0 0)
(0 0 0)
(0 0 0)
(0 0 0)
(0 0 0)
(0 0 0)
(0 0 0)
(0 0 0)
(0 0 0)
(0 0 0)
(0 0 0)
(0 0 0)
(0 0 0)
(0 0 0)
(0 0 0)
(0 0 0)
(0 0 0)
(0 0 0)
(0 0 0)
(0 0 0)
(0 0 0)
(0 0 0)
(0 0 0)
(0 0 0)
(0 0 0)
(0 0 0)
(0 0 0)
(0 0 0)
(0 0 0)
(0 0 0)
(0 0 0)
(0 0 0)
(0 0 0)
(0 0 0)
(0 0 0)
(0 0 0)
(0 0 0)
(0 0 0)
(0 0 0)
(0 0 0)
(0 0 0)
(0 0 0)
(0 0 0)
(0 0 0)
(0 0 0)
(0 0 0)
(0 0 0)
(0 0 0)
(0 0 0)
(0 0 0)
(0 0 0)
(0 0 0)
(0 0 0)
(0 0 0)
(0 0 0)
(0 0 0)
(0 0 0)
(0 0 0)
(0 0 0)
(0 0 0)
(0 0 0)
(0 0 0)
(0 0 0)
(0 0 0)
(0 0 0)
(0 0 0)
(0 0 0)
(0 0 0)
(0 0 0)
(0 0 0)
(0 0 0)
(0 0 0)
(0 0 0)
(0 0 0)
(0 0 0)
(0 0 0)
(0 0 0)
(0 0 0)
(0 0 0)
(0 0 0)
(0 0 0)
(0 0 0)
(0 0 0)
(0 0 0)
(0 0 0)
(0 0 0)
(0 0 0)
(0 0 0)
(0 0 0)
(0 0 0)
(0 0 0)
(0 0 0)
(0 0 0)
(0 0 0)
(0 0 0)
(0 0 0)
(0 0 0)
(0 0 0)
(0 0 0)
(0 0 0)
(0 0 0)
(0 0 0)
(0 0 0)
(0 0 0)
(0 0 0)
(0 0 0)
(0 0 0)
(0 0 0)
(0 0 0)
(0 0 0)
(0 0 0)
(0 0 0)
(0 0 0)
(0 0 0)
(0 0 0)
(0 0 0)
(0 0 0)
(0 0 0)
(0 0 0)
(0 0 0)
(0 0 0)
(0 0 0)
(0 0 0)
(0 0 0)
(0 0 0)
(0 0 0)
(0 0 0)
(0 0 0)
(0 0 0)
(0 0 0)
(0 0 0)
(0 0 0)
(0 0 0)
(0 0 0)
(0 0 0)
(0 0 0)
(0 0 0)
(0 0 0)
(0 0 0)
(0 0 0)
(0 0 0)
(0 0 0)
(0 0 0)
(0 0 0)
(0 0 0)
(0 0 0)
(0 0 0)
(0 0 0)
(0 0 0)
(0 0 0)
(0 0 0)
(0 0 0)
(0 0 0)
(0 0 0)
(0 0 0)
(0 0 0)
(0 0 0)
(0 0 0)
(0 0 0)
(0 0 0)
(0 0 0)
(0 0 0)
(0 0 0)
(0 0 0)
(0 0 0)
(0 0 0)
(0 0 0)
(0 0 0)
(0 0 0)
(0 0 0)
(0 0 0)
(0 0 0)
(0 0 0)
(0 0 0)
(0 0 0)
(0 0 0)
(0 0 0)
(0 0 0)
(0 0 0)
(0 0 0)
(0 0 0)
(0 0 0)
(0 0 0)
(0 0 0)
(0 0 0)
(0 0 0)
(0 0 0)
(0 0 0)
(0 0 0)
(0 0 0)
(0 0 0)
(0 0 0)
(0 0 0)
(0 0 0)
(0 0 0)
(0 0 0)
(0 0 0)
(0 0 0)
(0 0 0)
(0 0 0)
(0 0 0)
(0 0 0)
(0 0 0)
(0 0 0)
(0 0 0)
(0 0 0)
(0 0 0)
(0 0 0)
(0 0 0)
(0 0 0)
(0 0 0)
(0 0 0)
(0 0 0)
(0 0 0)
(0 0 0)
(0 0 0)
(0 0 0)
(0 0 0)
(0 0 0)
(0 0 0)
(0 0 0)
(0 0 0)
(0 0 0)