/*--------------------------------*- C++ -*----------------------------------*\
| =========                 |                                                 |
| \\      /  F ield         | OpenFOAM: The Open Source CFD Toolbox           |
|  \\    /   O peration     | Version:  v2106                                 |
|   \\  /    A nd           | Website:  www.openfoam.com                      |
|    \\/     M anipulation  |                                                 |
\*---------------------------------------------------------------------------*/
FoamFile
{
    version     2.0;
    format      ascii;
    arch        "LSB;label=32;scalar=64";
    class       volVectorField;
    location    "0";
    object      U;
}
// * * * * * * * * * * * * * * * * * * * * * * * * * * * * * * * * * * * * * //

dimensions      [0 1 -1 0 0 0 0];

internalField   nonuniform List<vector> 
11644
(
(0.994767 -0.000249229 1.17647e-23)
(0.99465 -0.00066485 3.24435e-23)
(0.994576 -0.000987017 1.74067e-23)
(0.994557 -0.0013181 0)
(0.994554 -0.00167447 0)
(0.994551 -0.0020553 0)
(0.994548 -0.00245578 0)
(0.994545 -0.00286965 0)
(0.994541 -0.00328749 0)
(0.994539 -0.00369625 0)
(0.994537 -0.00407367 0)
(0.994499 -0.00441365 0)
(0.994519 -0.00466674 0)
(0.994701 -0.00481463 0)
(0.994578 -0.00486143 0)
(0.994584 -0.00476801 0)
(0.994574 -0.0045189 0)
(0.994429 -0.00409272 0)
(0.994452 -0.00357598 0)
(0.994562 -0.00303687 3.38125e-30)
(0.994466 -0.00244346 -3.37827e-30)
(0.994094 -0.00155055 0)
(0.993872 -0.000310294 0)
(0.994123 0.000793668 0)
(0.994452 0.00141606 0)
(0.994531 0.00181439 0)
(0.994691 0.00220777 0)
(0.994567 0.00239266 0)
(0.994512 0.00249773 0)
(0.994525 0.00249619 0)
(0.994536 0.00241073 0)
(0.99454 0.00226026 0)
(0.994539 0.00206222 0)
(0.994539 0.00183163 0)
(0.99454 0.00158169 0)
(0.994543 0.00132492 0)
(0.99455 0.00106433 0)
(0.994567 0.00080921 0)
(0.994628 0.000554728 0)
(0.994732 0.000212337 2.28105e-24)
(0.995619 -0.000501335 1.51116e-23)
(0.995547 -0.00152263 1.39982e-23)
(0.995501 -0.002578 7.51801e-24)
(0.995512 -0.00364347 0)
(0.995559 -0.00474178 0)
(0.995623 -0.00589188 0)
(0.995689 -0.00710104 0)
(0.995746 -0.00835932 0)
(0.995781 -0.00964657 0)
(0.995785 -0.0109248 0)
(0.995706 -0.0121565 0)
(0.995623 -0.0132348 0)
(0.995411 -0.0141236 0)
(0.994846 -0.0147707 0)
(0.994573 -0.0149192 0)
(0.993981 -0.0146503 -3.4753e-24)
(0.993318 -0.0138464 -7.30564e-24)
(0.993051 -0.0126952 -3.93006e-23)
(0.992763 -0.0111491 -4.99475e-23)
(0.992308 -0.00899084 -1.3869e-23)
(0.991791 -0.00619364 1.08956e-22)
(0.991535 -0.00315997 -5.52825e-23)
(0.991739 -0.000435222 4.7899e-23)
(0.992267 0.00187487 9.21599e-24)
(0.992876 0.0039233 1.61047e-24)
(0.993412 0.00556281 0)
(0.993619 0.00664535 0)
(0.994181 0.00735517 0)
(0.994583 0.00763347 0)
(0.994818 0.00758081 0)
(0.994977 0.00727995 0)
(0.995109 0.0067834 0)
(0.995196 0.00615211 0)
(0.995249 0.00543021 0)
(0.995277 0.00465142 0)
(0.995289 0.00384067 0)
(0.995296 0.00301463 0)
(0.995318 0.00217213 0)
(0.995379 0.0013086 0)
(0.99546 0.000435082 0)
(0.997303 -0.000762493 0)
(0.997287 -0.00235529 0)
(0.997328 -0.00402053 0)
(0.997432 -0.00575954 0)
(0.99759 -0.007573 1.38042e-23)
(0.997778 -0.0094814 0)
(0.997978 -0.0114941 0)
(0.998161 -0.013605 0)
(0.998291 -0.015788 0)
(0.998306 -0.0180075 0)
(0.998214 -0.020142 0)
(0.997799 -0.0221603 0)
(0.997086 -0.0238456 1.9635e-24)
(0.996392 -0.0249579 6.08272e-23)
(0.994808 -0.0255498 2.80649e-22)
(0.993314 -0.0252864 -8.09754e-22)
(0.99198 -0.0242295 -1.41135e-23)
(0.990321 -0.0220857 2.76897e-22)
(0.988608 -0.0186684 -3.94736e-22)
(0.987086 -0.0141303 1.10175e-21)
(0.986256 -0.00904153 -7.27198e-22)
(0.986316 -0.00397315 2.19651e-22)
(0.987207 0.000538491 -5.14293e-22)
(0.988466 0.00444214 7.10851e-22)
(0.989836 0.00785022 1.80707e-22)
(0.991223 0.0105023 -3.06125e-22)
(0.992862 0.0123535 -6.77355e-23)
(0.993791 0.0132989 -3.3303e-24)
(0.994622 0.0136033 0)
(0.995375 0.0133395 0)
(0.995956 0.0126507 0)
(0.996318 0.0116798 0)
(0.996557 0.0105071 0)
(0.996696 0.00920896 0)
(0.996766 0.00783806 0)
(0.996795 0.00642816 0)
(0.996808 0.00500052 0)
(0.996829 0.00355739 0)
(0.996878 0.00210286 0)
(0.99694 0.00068819 0)
(0.999781 -0.0010392 0)
(0.999819 -0.00313389 0)
(0.999958 -0.00534049 0)
(1.0002 -0.0076419 0)
(1.00053 -0.0100722 0)
(1.00092 -0.0126627 0)
(1.00134 -0.0154284 0)
(1.00173 -0.0183712 0)
(1.00203 -0.0214774 0)
(1.00216 -0.0246692 0)
(1.00189 -0.0279342 -1.03284e-24)
(1.00128 -0.03104 3.45011e-23)
(1.00009 -0.0338002 1.77421e-22)
(0.997845 -0.0360949 -6.68698e-22)
(0.995695 -0.0370446 2.07917e-23)
(0.992548 -0.0368735 6.56794e-22)
(0.988776 -0.0350157 -1.31009e-22)
(0.984794 -0.0312096 -7.36213e-22)
(0.981291 -0.02543 9.32719e-22)
(0.978605 -0.0185023 -5.92161e-23)
(0.97733 -0.0110223 -1.01186e-22)
(0.977699 -0.00343439 -6.82895e-22)
(0.979674 0.00353923 6.21721e-22)
(0.982213 0.00943568 -4.05205e-22)
(0.985023 0.014251 -2.07046e-22)
(0.988015 0.0177727 9.09333e-23)
(0.990481 0.0199734 6.30894e-22)
(0.993355 0.0209488 -2.0597e-22)
(0.995348 0.0209228 3.24688e-23)
(0.996701 0.0201569 1.42267e-24)
(0.997641 0.0188405 0)
(0.998337 0.0171393 0)
(0.998748 0.0152413 0)
(0.99898 0.013226 0)
(0.999089 0.0111618 0)
(0.999125 0.00908574 0)
(0.999127 0.00702076 0)
(0.999131 0.00497229 0)
(0.999157 0.00295564 0)
(0.999212 0.000970381 0)
(1.00291 -0.00122284 0)
(1.00302 -0.00376857 0)
(1.00329 -0.00639616 0)
(1.00372 -0.00916145 0)
(1.00429 -0.0121215 0)
(1.00496 -0.0153064 0)
(1.00568 -0.0187538 0)
(1.00639 -0.0224887 0)
(1.00698 -0.0265107 0)
(1.00726 -0.0308407 -1.15896e-24)
(1.00718 -0.0353896 -3.00835e-23)
(1.00649 -0.0400239 -6.27585e-24)
(1.00474 -0.0443751 2.21059e-22)
(1.00245 -0.0476056 -4.61163e-22)
(0.997351 -0.0499644 6.66509e-22)
(0.991791 -0.049891 -5.11777e-22)
(0.985302 -0.0475388 4.14198e-22)
(0.977123 -0.042027 8.89129e-22)
(0.970569 -0.0335029 -2.0033e-21)
(0.96579 -0.0227202 -2.28243e-21)
(0.963952 -0.0108815 2.53389e-21)
(0.965322 0.000611214 -4.67358e-22)
(0.969172 0.0106804 1.49371e-21)
(0.973923 0.0186052 -2.6521e-22)
(0.978942 0.0245517 2.66548e-22)
(0.984317 0.0285431 -6.92446e-22)
(0.989653 0.0304657 4.12063e-22)
(0.993224 0.0309425 2.03816e-23)
(0.996447 0.0301266 -2.59241e-22)
(0.998955 0.0283494 8.49414e-23)
(1.00052 0.0259972 -2.20569e-23)
(1.00142 0.0233007 0)
(1.00198 0.0204216 0)
(1.00225 0.0175244 0)
(1.00234 0.0146573 0)
(1.00233 0.0118539 0)
(1.00228 0.00912303 0)
(1.00224 0.00645864 0)
(1.00223 0.00383124 0)
(1.00226 0.00127712 0)
(1.00653 -0.00144107 0)
(1.00672 -0.004285 0)
(1.00715 -0.007241 0)
(1.00781 -0.0103587 0)
(1.00868 -0.0137016 0)
(1.00973 -0.0173496 0)
(1.01088 -0.0213661 0)
(1.01207 -0.0258088 0)
(1.01314 -0.0307526 1.308e-23)
(1.01405 -0.0362809 3.33514e-24)
(1.01463 -0.0423782 -7.26141e-23)
(1.01426 -0.0488668 -3.05808e-22)
(1.01222 -0.0552941 6.92779e-22)
(1.00705 -0.0619941 -6.27577e-22)
(1.00052 -0.0651198 4.89474e-22)
(0.990034 -0.0655388 -2.95183e-22)
(0.977559 -0.0631705 -1.21112e-21)
(0.964377 -0.0555882 1.65244e-21)
(0.953265 -0.0422647 -2.24025e-21)
(0.946029 -0.0259882 4.22522e-21)
(0.943596 -0.00832134 -8.869e-22)
(0.946626 0.0088815 3.01301e-22)
(0.953777 0.0237345 -3.35397e-21)
(0.963015 0.0342812 1.48928e-21)
(0.972893 0.0404963 4.74737e-22)
(0.981349 0.0440775 -8.02114e-22)
(0.98793 0.0452469 9.56158e-22)
(0.994814 0.0435376 -9.09106e-22)
(0.999202 0.041034 5.51738e-22)
(1.00248 0.0378428 -1.07098e-22)
(1.00481 0.0340789 -4.86081e-23)
(1.00602 0.0300517 1.22883e-23)
(1.00652 0.0259985 0)
(1.0067 0.0220379 0)
(1.00666 0.018253 0)
(1.00651 0.0146426 0)
(1.00633 0.011193 0)
(1.00618 0.00788856 0)
(1.00608 0.00468239 0)
(1.00608 0.00153447 0)
(1.01048 -0.00146283 0)
(1.01076 -0.00455473 0)
(1.01138 -0.00774221 0)
(1.01232 -0.0111065 0)
(1.01356 -0.0147351 0)
(1.01507 -0.0187257 0)
(1.01679 -0.0231671 0)
(1.01864 -0.0281871 -5.19258e-24)
(1.02071 -0.0340338 2.99012e-23)
(1.02285 -0.040915 4.13554e-24)
(1.02442 -0.0489202 -1.34294e-22)
(1.02458 -0.0579534 -1.39195e-22)
(1.02228 -0.067908 6.38974e-22)
(1.01824 -0.0756892 5.64921e-22)
(1.00622 -0.0850636 -1.71985e-21)
(0.991071 -0.0885446 1.20632e-21)
(0.9764 -0.0795606 2.09406e-22)
(0.958287 -0.0719778 3.54304e-21)
(0.940488 -0.0565271 2.94212e-22)
(0.927768 -0.0339924 -2.12087e-22)
(0.923066 -0.00777821 -8.96513e-22)
(0.927467 0.0168917 -1.17531e-23)
(0.937819 0.0365117 1.46797e-21)
(0.951582 0.0499984 2.34862e-21)
(0.967226 0.0654177 -1.16705e-21)
(0.981255 0.0665183 2.20029e-21)
(0.992934 0.0632497 -9.51219e-22)
(0.999021 0.0591402 -1.03553e-22)
(1.00427 0.0537422 -5.77732e-22)
(1.00804 0.0481864 1.83636e-22)
(1.01073 0.0426362 1.8058e-22)
(1.01221 0.0370745 -3.55328e-23)
(1.01267 0.031672 -8.32936e-24)
(1.01251 0.0265278 0)
(1.01214 0.0217405 0)
(1.0117 0.0172979 0)
(1.01127 0.0131539 0)
(1.01092 0.00922345 0)
(1.01068 0.00548864 0)
(1.0106 0.00181768 0)
(1.01459 -0.00160027 0)
(1.01497 -0.00469445 0)
(1.01579 -0.00792492 0)
(1.01704 -0.0113533 0)
(1.01871 -0.0150961 0)
(1.02078 -0.0192413 0)
(1.02319 -0.0239273 0)
(1.02608 -0.0293945 -7.76019e-24)
(1.02982 -0.0360953 1.49663e-23)
(1.03366 -0.0443978 -6.55111e-23)
(1.03681 -0.0543531 1.70713e-22)
(1.03841 -0.0657677 -3.5345e-22)
(1.0378 -0.0779369 -2.20828e-22)
(1.02779 -0.0906699 -5.1917e-22)
(1.01831 -0.0982766 6.26297e-22)
(1.00271 -0.106484 7.02296e-22)
(0.974801 -0.111308 -8.61549e-22)
(0.943271 -0.10427 -4.2529e-22)
(0.910445 -0.0845578 -4.44095e-21)
(0.885753 -0.0491745 1.42882e-22)
(0.876942 -0.00453604 -7.58065e-22)
(0.887373 0.0374427 3.21665e-21)
(0.909571 0.0678771 -2.39723e-21)
(0.936393 0.0842076 -2.03482e-21)
(0.960149 0.0906016 -2.46223e-22)
(0.981132 0.0875136 7.78887e-22)
(0.995046 0.0808411 -4.46369e-22)
(1.00839 0.0756841 -2.09407e-22)
(1.01345 0.0668278 -1.2368e-22)
(1.01663 0.0584249 -1.14705e-22)
(1.01886 0.050761 2.13087e-22)
(1.02007 0.0436416 1.06293e-23)
(1.02043 0.0368909 -7.68515e-23)
(1.01978 0.0305985 0)
(1.01882 0.0248341 0)
(1.01787 0.0196154 0)
(1.01704 0.0148311 0)
(1.01637 0.0103926 0)
(1.01593 0.00609885 0)
(1.01575 0.00205019 0)
(1.0187 -0.00147446 0)
(1.01917 -0.00456084 0)
(1.0202 -0.00775826 0)
(1.02178 -0.0111283 0)
(1.02391 -0.0147981 0)
(1.02659 -0.0188923 0)
(1.02984 -0.0235891 5.63961e-24)
(1.03431 -0.0293145 6.42674e-24)
(1.0402 -0.0366776 -3.57787e-23)
(1.04618 -0.0459627 7.96251e-23)
(1.05167 -0.0572714 -2.72338e-23)
(1.05597 -0.0710092 -7.3506e-23)
(1.05782 -0.089232 1.36141e-22)
(1.04746 -0.10545 -4.07504e-22)
(1.03805 -0.120722 3.22978e-22)
(1.01834 -0.139771 2.78673e-22)
(0.985828 -0.150349 1.28916e-21)
(0.93732 -0.155689 -3.05255e-22)
(0.878132 -0.135269 -1.36325e-21)
(0.826492 -0.0830596 -1.271e-22)
(0.805578 -0.00489758 5.30843e-22)
(0.825959 0.0680664 1.13043e-22)
(0.87139 0.114709 -2.95438e-21)
(0.920231 0.133008 2.06084e-21)
(0.960359 0.131409 1.15169e-21)
(0.990924 0.12373 9.43884e-22)
(1.0072 0.108206 3.13488e-22)
(1.02354 0.0940444 -4.79073e-22)
(1.02715 0.0794174 5.37532e-22)
(1.02866 0.0674826 -4.86056e-23)
(1.02958 0.0573376 1.33689e-23)
(1.02983 0.0486446 4.84015e-24)
(1.02961 0.0408112 -6.44472e-24)
(1.02845 0.0335546 2.48488e-24)
(1.0266 0.0269826 0)
(1.0249 0.021112 0)
(1.02348 0.0158177 0)
(1.0224 0.0109767 0)
(1.02168 0.00650985 0)
(1.02135 0.00207431 0)
(1.02262 -0.00138019 0)
(1.0232 -0.00427987 0)
(1.02441 -0.00719523 0)
(1.02631 -0.0103592 0)
(1.02889 -0.013776 0)
(1.03221 -0.0176077 0)
(1.03651 -0.0220518 -3.69847e-24)
(1.04297 -0.0276931 3.28566e-23)
(1.05117 -0.0351244 -1.02073e-23)
(1.05972 -0.0445349 1.23463e-23)
(1.06834 -0.0561018 -2.19209e-22)
(1.07682 -0.0707146 1.55713e-22)
(1.08434 -0.0912471 5.28162e-23)
(1.0796 -0.11384 -1.04207e-22)
(1.07428 -0.139048 -8.57164e-23)
(1.05246 -0.17504 -8.37449e-23)
(1.01673 -0.206818 -2.81022e-22)
(0.951683 -0.242148 3.82785e-22)
(0.842926 -0.249399 -9.84151e-23)
(0.712923 -0.176708 1.96559e-21)
(0.649102 -0.0134628 7.06918e-23)
(0.708159 0.145313 -1.32814e-21)
(0.824212 0.216006 -1.53002e-23)
(0.918402 0.216791 9.93587e-22)
(0.982351 0.19354 -1.23384e-22)
(1.02121 0.163379 -1.14999e-21)
(1.03414 0.133497 -9.25018e-23)
(1.04702 0.109133 -2.9233e-23)
(1.04635 0.0890292 2.56176e-23)
(1.04449 0.0735164 5.09276e-23)
(1.04293 0.0612826 -3.23304e-23)
(1.04134 0.0512155 9.34462e-23)
(1.03995 0.0426088 -8.17778e-23)
(1.03809 0.034851 2.75143e-23)
(1.03522 0.0278541 0)
(1.03256 0.0216966 0)
(1.03039 0.0162488 0)
(1.02875 0.011268 0)
(1.02767 0.00663098 0)
(1.02716 0.00227409 0)
(1.02623 -0.00140141 0)
(1.02689 -0.00386548 0)
(1.02831 -0.00653732 0)
(1.03047 -0.00925196 0)
(1.03344 -0.0121879 0)
(1.03732 -0.0154398 0)
(1.04285 -0.0192982 -8.38944e-25)
(1.05135 -0.0243381 9.36333e-24)
(1.06167 -0.030819 -1.65076e-23)
(1.07292 -0.0389232 -2.11071e-23)
(1.08526 -0.0491791 -7.35693e-25)
(1.09907 -0.0624308 4.11055e-23)
(1.11342 -0.0794376 -3.83942e-23)
(1.11941 -0.10768 1.83656e-22)
(1.1277 -0.141613 3.7762e-22)
(1.12685 -0.193276 7.74174e-24)
(1.10855 -0.264105 5.7367e-23)
(1.05324 -0.375191 6.21945e-23)
(0.880498 -0.504223 -7.61165e-22)
(0.48955 -0.501501 -4.13879e-20)
(0.186512 -0.0204282 -1.42248e-20)
(0.486768 0.437544 -1.83295e-20)
(0.835355 0.445406 1.3942e-21)
(0.992133 0.340457 2.25812e-23)
(1.05164 0.254564 2.74369e-23)
(1.07493 0.191435 -1.2244e-22)
(1.07436 0.150017 -1.42701e-22)
(1.0778 0.112983 1.6082e-22)
(1.07055 0.0915857 -1.48459e-22)
(1.06387 0.0747558 -1.82888e-23)
(1.0585 0.0612934 4.84502e-23)
(1.05414 0.0503871 -1.0177e-23)
(1.0509 0.0415028 -5.77548e-24)
(1.04807 0.0338285 8.09165e-24)
(1.04415 0.0269 0)
(1.04035 0.0208117 0)
(1.03732 0.0154855 0)
(1.03507 0.0107274 0)
(1.03358 0.00626174 0)
(1.03287 0.00199556 0)
(1.02941 -0.000936349 0)
(1.03011 -0.00319999 0)
(1.03162 -0.00539084 0)
(1.03397 -0.00765403 0)
(1.03727 -0.010049 0)
(1.04162 -0.0125626 0)
(1.04831 -0.0155027 -1.25587e-23)
(1.05839 -0.0192468 -1.98918e-23)
(1.07031 -0.0237131 -2.73656e-23)
(1.08367 -0.0289124 -3.12218e-23)
(1.09939 -0.035439 -3.43387e-23)
(1.11838 -0.0438646 -1.19937e-22)
(1.14122 -0.0547919 2.39022e-22)
(1.15565 -0.0810522 1.13334e-22)
(1.18784 -0.110358 1.13485e-23)
(1.21637 -0.164416 1.80434e-22)
(1.25591 -0.247573 8.67403e-23)
(1.31582 -0.404573 1.79013e-21)
(1.03019 -0.564778 -1.19082e-19)
(0.984406 0.508626 1.67592e-20)
(1.19293 0.384147 3.94114e-23)
(1.16122 0.258271 1.53916e-22)
(1.14238 0.184528 5.64261e-23)
(1.12264 0.147574 -8.81454e-24)
(1.11142 0.105257 4.3583e-23)
(1.09726 0.0858384 1.40971e-23)
(1.0851 0.0696178 4.80741e-24)
(1.07514 0.0562428 -2.04947e-23)
(1.06745 0.0456403 -1.1676e-23)
(1.06187 0.037225 -1.82154e-23)
(1.0577 0.0301927 -1.61091e-23)
(1.05274 0.023947 0)
(1.04778 0.0184581 0)
(1.04387 0.0136992 0)
(1.04101 0.00949353 0)
(1.03914 0.00564602 0)
(1.03822 0.00196477 0)
(1.03207 -0.000870631 0)
(1.03282 -0.00260412 0)
(1.03437 -0.00423926 0)
(1.03684 -0.00599241 0)
(1.04028 -0.00770753 0)
(1.04487 -0.00935791 0)
(1.05221 -0.0110667 5.47373e-24)
(1.06305 -0.012929 -1.25892e-23)
(1.07553 -0.0144947 -1.90452e-23)
(1.08982 -0.0156369 -3.63449e-24)
(1.1068 -0.0166668 2.92202e-23)
(1.12833 -0.0176688 5.08194e-23)
(1.15565 -0.0178252 -2.59108e-22)
(1.18235 -0.0349292 -6.9533e-23)
(1.22955 -0.0462273 -1.95711e-21)
(1.28282 -0.0775889 9.00542e-23)
(1.36707 -0.118899 4.24586e-23)
(1.50808 -0.165128 2.84969e-21)
(0.0230064 -0.0164007 4.30115e-19)
(0.0319707 -0.0242543 -1.10051e-19)
(1.32002 0.247639 -1.85037e-22)
(1.24664 0.197337 4.23508e-23)
(1.19913 0.149761 -2.51353e-22)
(1.16617 0.123285 -2.05058e-22)
(1.14293 0.0875531 4.37329e-24)
(1.12269 0.0716554 3.26394e-23)
(1.10538 0.0577322 -1.35908e-23)
(1.09114 0.0461216 9.77487e-24)
(1.08012 0.0369652 -9.31311e-24)
(1.07203 0.0297814 4.37871e-24)
(1.06628 0.0239753 -4.28478e-24)
(1.06033 0.019006 0)
(1.05433 0.0146607 0)
(1.04963 0.0108949 0)
(1.04614 0.00748545 0)
(1.04383 0.00435671 0)
(1.04263 0.00124684 0)
(1.03421 -0.000821654 1.66177e-25)
(1.03501 -0.00203592 0)
(1.03666 -0.00337542 0)
(1.03912 -0.00450458 0)
(1.04246 -0.0054824 0)
(1.04693 -0.0062388 0)
(1.05417 -0.00666715 3.40897e-24)
(1.06453 -0.00634829 4.4972e-23)
(1.07601 -0.00485102 -4.50109e-23)
(1.08935 -0.00180866 -5.23408e-23)
(1.10571 0.0032034 -7.25464e-23)
(1.12617 0.0106565 -4.2505e-22)
(1.15294 0.0229085 7.24088e-22)
(1.18529 0.0202679 1.17876e-22)
(1.23371 0.0302793 -6.58305e-22)
(1.29507 0.0286447 -2.98348e-22)
(1.3813 0.031488 -1.2211e-21)
(1.4687 0.0529875 7.5773e-23)
(0.250949 -0.00605615 -8.96131e-21)
(0.0503226 -0.0273984 5.56359e-21)
(1.2261 0.102994 1.1254e-22)
(1.27403 0.123951 6.69629e-22)
(1.22924 0.105367 -8.02414e-22)
(1.19622 0.0892324 4.30762e-22)
(1.16717 0.0619895 3.91396e-22)
(1.14317 0.0505521 -4.81844e-22)
(1.12242 0.0403098 6.55983e-23)
(1.10489 0.0317411 -6.98206e-23)
(1.09098 0.0249183 -2.07831e-23)
(1.08045 0.0195736 1.38605e-23)
(1.07296 0.0154997 -4.64624e-24)
(1.06597 0.0122552 0)
(1.05925 0.00950521 0)
(1.054 0.00711375 0)
(1.05013 0.0049442 0)
(1.04752 0.00294638 0)
(1.04625 0.00120977 0)
(1.03606 -0.000347294 -3.35047e-26)
(1.0367 -0.00133543 0)
(1.03819 -0.00218389 0)
(1.04046 -0.00289286 0)
(1.04358 -0.00342981 0)
(1.04771 -0.00363038 0)
(1.05396 -0.00302598 1.99401e-24)
(1.06255 -0.000897755 -4.8208e-23)
(1.07182 0.00323533 2.16832e-23)
(1.08251 0.00992539 -9.48884e-23)
(1.09525 0.0200595 6.25716e-22)
(1.11028 0.0341196 -1.02802e-21)
(1.12991 0.0546668 2.8896e-22)
(1.16108 0.0700638 1.41961e-21)
(1.19992 0.0982427 -1.98863e-21)
(1.25683 0.127649 -8.86868e-22)
(1.33731 0.166249 -9.18267e-23)
(1.43126 0.216527 -4.41465e-22)
(0.659647 0.060788 2.37736e-22)
(0.230128 -0.28064 4.59965e-22)
(-0.0940143 -0.385623 -1.17587e-22)
(-0.210584 -0.184292 2.34853e-22)
(-0.0181309 -0.0989698 -8.32005e-22)
(1.03989 0.0231938 2.0153e-22)
(1.26943 0.0781191 -2.19757e-22)
(1.24341 0.0683419 -2.01937e-22)
(1.21381 0.0547542 3.42261e-22)
(1.18323 0.0324786 -3.18658e-22)
(1.15728 0.0251087 3.19281e-22)
(1.13434 0.0189884 -4.05772e-23)
(1.11479 0.0141537 -3.92409e-23)
(1.09883 0.0103276 -1.43569e-23)
(1.08643 0.00743046 -1.84665e-23)
(1.07739 0.00547748 -1.20419e-24)
(1.06926 0.00431116 0)
(1.06207 0.00346669 0)
(1.05653 0.00265372 0)
(1.05259 0.00184795 0)
(1.05016 0.00101346 0)
(1.04898 0.000158579 0)
(1.03748 -0.000186489 8.05109e-23)
(1.0381 -0.000839513 0)
(1.03942 -0.00129509 0)
(1.04149 -0.00178423 0)
(1.0443 -0.0020308 0)
(1.04782 -0.00196135 0)
(1.05216 -0.000963313 -2.66386e-25)
(1.058 0.00194485 6.62612e-24)
(1.06398 0.0073913 2.5688e-23)
(1.07011 0.0158593 -1.18892e-22)
(1.07689 0.0277635 3.57435e-22)
(1.0839 0.0443169 -4.41297e-23)
(1.09149 0.070217 -1.01441e-22)
(1.11318 0.09793 -5.33673e-22)
(1.13468 0.141439 -1.51621e-21)
(1.16299 0.208839 -9.35791e-22)
(1.22097 0.289151 4.12553e-21)
(1.30186 0.433355 6.863e-21)
(1.05929 0.523065 -2.32878e-21)
(0.473288 0.329373 7.45372e-20)
(-0.105772 0.247436 -1.19448e-21)
(-0.346773 0.187735 -1.62957e-21)
(0.0807243 0.122096 2.65352e-22)
(0.95087 0.0759379 3.63484e-22)
(1.28289 0.0647112 -7.73113e-22)
(1.26335 0.0325614 -1.29445e-21)
(1.22774 0.0171922 -4.65075e-22)
(1.19154 -0.00216137 -2.13189e-22)
(1.16371 -0.00368184 2.3827e-22)
(1.13966 -0.00506372 -3.18354e-22)
(1.11915 -0.00554245 7.43599e-23)
(1.10218 -0.00579505 -8.24308e-23)
(1.08903 -0.00584719 8.49137e-24)
(1.07871 -0.00538701 -3.79111e-25)
(1.06971 -0.00418255 0)
(1.06245 -0.00302483 0)
(1.05695 -0.00220111 0)
(1.05303 -0.00155971 0)
(1.05042 -0.000966965 0)
(1.04894 -0.000341031 -5.34453e-24)
(1.03847 -0.000479266 1.34655e-23)
(1.03921 -0.000777024 0)
(1.04056 -0.00118075 0)
(1.04243 -0.00152662 0)
(1.04475 -0.0016849 0)
(1.04737 -0.00164201 0)
(1.04974 -0.000830256 0)
(1.05203 0.00197422 -5.44327e-24)
(1.05425 0.00676612 5.61277e-23)
(1.05592 0.0139128 7.85001e-23)
(1.05613 0.0242452 -1.25897e-22)
(1.0544 0.0385643 -5.10949e-23)
(1.0505 0.0594883 8.41023e-22)
(1.04046 0.097089 -8.87896e-22)
(1.04982 0.146979 1.34725e-21)
(1.04002 0.212836 -2.13103e-22)
(1.03929 0.324024 8.34288e-22)
(1.00237 0.49453 -1.70479e-20)
(0.929007 0.716042 -7.85501e-22)
(0.571972 0.857803 -9.31032e-21)
(0.0150436 0.841144 4.78411e-21)
(-0.132977 0.642596 -4.23874e-21)
(0.354647 0.362616 2.24314e-21)
(1.04172 0.110837 -5.97267e-21)
(1.35129 0.00292753 8.37356e-22)
(1.29003 -0.0249649 3.25687e-22)
(1.22948 -0.0456499 6.10756e-22)
(1.19129 -0.0425782 -6.60508e-22)
(1.16143 -0.0357315 -1.55746e-23)
(1.13735 -0.0308838 -2.56677e-23)
(1.11705 -0.0260999 -6.57083e-23)
(1.10049 -0.0223312 -1.59062e-23)
(1.0872 -0.0190907 1.16778e-23)
(1.07598 -0.0156677 0)
(1.06692 -0.0120411 0)
(1.06012 -0.00898086 0)
(1.05502 -0.00650548 0)
(1.05136 -0.00435436 0)
(1.04896 -0.00236697 0)
(1.04771 -0.000694121 -1.14008e-23)
(1.0394 -0.00021391 2.75911e-25)
(1.03996 -0.000680562 0)
(1.04107 -0.0011063 0)
(1.04271 -0.00142863 0)
(1.04475 -0.00170103 0)
(1.04676 -0.0019585 0)
(1.04761 -0.00195707 0)
(1.04725 -0.000919027 0)
(1.04645 0.00150298 -1.16343e-23)
(1.04512 0.00499599 2.16659e-23)
(1.04113 0.0100706 4.85301e-23)
(1.03233 0.0171551 -8.49091e-23)
(1.01697 0.0280252 -2.80816e-22)
(0.990675 0.0447439 2.10859e-22)
(0.97465 0.0950633 -2.15216e-23)
(0.926072 0.148534 1.89996e-22)
(0.870853 0.24035 -1.14436e-21)
(0.765484 0.350448 9.42675e-22)
(0.604536 0.551893 -4.65013e-21)
(0.359267 0.787016 5.65316e-21)
(0.168981 0.810632 4.62468e-21)
(0.283478 0.559053 -5.27638e-21)
(0.754999 0.216794 -3.48201e-21)
(1.31635 -0.0458694 -1.1319e-20)
(1.38367 -0.131855 -3.43819e-22)
(1.29387 -0.114174 2.74083e-22)
(1.21573 -0.108372 -3.06089e-22)
(1.17691 -0.0865519 5.53155e-22)
(1.14838 -0.0690386 -5.73104e-23)
(1.12604 -0.0562593 -4.97021e-23)
(1.10788 -0.0455714 6.82164e-24)
(1.09306 -0.037343 4.17889e-24)
(1.08029 -0.0303429 0)
(1.06931 -0.0239498 0)
(1.06112 -0.0182374 0)
(1.05539 -0.0135629 0)
(1.05115 -0.00973476 2.17906e-23)
(1.04809 -0.00648438 3.0135e-23)
(1.0461 -0.00364751 1.79698e-23)
(1.04507 -0.00113396 0)
(1.03957 -5.94304e-06 0)
(1.04023 -0.000397241 0)
(1.0413 -0.00079886 0)
(1.04293 -0.00125453 0)
(1.04499 -0.00179983 0)
(1.04695 -0.00254113 0)
(1.04739 -0.00359107 0)
(1.0462 -0.00467996 0)
(1.04453 -0.00570987 1.77673e-26)
(1.04221 -0.00732413 -7.87466e-26)
(1.03716 -0.00968215 -7.37475e-24)
(1.02643 -0.0138105 -3.57923e-23)
(1.00595 -0.0170097 -3.05249e-23)
(0.96946 -0.0295495 -3.3318e-22)
(0.929237 0.00328349 3.00083e-21)
(0.850336 0.0275311 4.70996e-23)
(0.776697 0.0874934 7.76315e-22)
(0.553604 0.190536 1.57833e-22)
(0.306174 0.341122 3.45435e-23)
(0.236007 0.402645 -9.41003e-21)
(0.401943 0.288636 -4.39143e-21)
(0.741452 0.0255531 -1.15459e-20)
(1.16787 -0.246736 -4.42978e-22)
(1.41878 -0.345373 8.83926e-22)
(1.31675 -0.273585 -7.43087e-22)
(1.24525 -0.207937 -1.6212e-21)
(1.173 -0.161263 6.04479e-22)
(1.14311 -0.124397 -5.8535e-23)
(1.12207 -0.0969115 1.40101e-22)
(1.1053 -0.0764674 -2.06491e-23)
(1.09159 -0.0601677 -3.09781e-24)
(1.07975 -0.0477343 -1.29151e-27)
(1.06893 -0.0376193 0)
(1.05957 -0.0292093 0)
(1.05307 -0.0221597 0)
(1.04885 -0.0164644 0)
(1.04578 -0.011818 0)
(1.04354 -0.00792359 0)
(1.04208 -0.00451507 0)
(1.04139 -0.00143939 -3.23639e-24)
(1.03954 6.56844e-05 0)
(1.04039 2.33296e-05 0)
(1.04167 -0.000156827 0)
(1.04351 -0.000596158 0)
(1.0459 -0.00130646 0)
(1.04834 -0.00243388 0)
(1.04944 -0.00430249 0)
(1.04894 -0.00718935 0)
(1.04861 -0.0113376 0)
(1.04845 -0.0177774 0)
(1.04682 -0.027449 -5.6989e-25)
(1.04141 -0.0431431 -3.67802e-23)
(1.02709 -0.0620862 1.0807e-22)
(0.994552 -0.0993973 -1.50599e-22)
(0.931914 -0.104138 8.00167e-21)
(0.834108 -0.126663 -2.24025e-22)
(0.663722 -0.0613625 3.07153e-21)
(0.458617 -0.0149822 9.48267e-22)
(0.349634 -0.127992 -2.41071e-22)
(0.425514 -0.332723 5.82104e-21)
(0.686674 -0.536055 4.03417e-21)
(0.998818 -0.660284 1.5288e-20)
(1.23798 -0.643769 -4.39715e-21)
(1.27731 -0.49662 -1.84294e-21)
(1.17551 -0.341976 -2.2942e-21)
(1.15439 -0.261227 8.43925e-22)
(1.10675 -0.188122 -8.106e-24)
(1.0939 -0.144601 3.75774e-23)
(1.08444 -0.111733 -3.18835e-23)
(1.07669 -0.0865197 5.43255e-24)
(1.06958 -0.0667922 0)
(1.06244 -0.0518847 0)
(1.055 -0.0401733 0)
(1.04818 -0.0308996 0)
(1.04378 -0.0234487 0)
(1.04129 -0.0174612 0)
(1.03952 -0.0125313 0)
(1.03823 -0.00841435 0)
(1.03743 -0.00481222 0)
(1.03712 -0.00154025 0)
(1.03931 0.000161889 0)
(1.0403 0.000501219 0)
(1.04187 0.000704521 0)
(1.04412 0.000621716 0)
(1.04708 0.000159022 0)
(1.05047 -0.000855244 0)
(1.05313 -0.00288341 0)
(1.05483 -0.00664423 0)
(1.05776 -0.0126054 0)
(1.06251 -0.0217461 0)
(1.06835 -0.0354437 0)
(1.07458 -0.0573448 1.24608e-24)
(1.07779 -0.087184 -2.15869e-23)
(1.06626 -0.136687 -4.30871e-24)
(1.00455 -0.187941 2.63017e-21)
(0.836144 -0.250975 -3.88493e-21)
(0.606323 -0.24867 1.7928e-21)
(0.610779 -0.348997 9.21901e-22)
(0.633248 -0.51184 1.25869e-21)
(0.702561 -0.67913 -1.6364e-21)
(0.832875 -0.768111 -2.36568e-21)
(0.961445 -0.747683 2.29024e-21)
(1.02935 -0.627832 2.89372e-21)
(1.03513 -0.471562 -4.9059e-22)
(1.0487 -0.341572 -1.67239e-22)
(1.05619 -0.264352 3.1513e-22)
(1.0342 -0.190129 -2.5826e-22)
(1.03899 -0.143725 -2.6204e-23)
(1.04198 -0.111009 1.38505e-24)
(1.04414 -0.0850093 0)
(1.04451 -0.0649165 0)
(1.04309 -0.0496184 0)
(1.03998 -0.0377473 0)
(1.03642 -0.0286846 0)
(1.03439 -0.0217854 0)
(1.03364 -0.0163399 0)
(1.03316 -0.0118199 0)
(1.0328 -0.00800677 0)
(1.03264 -0.00464234 0)
(1.0327 -0.00151287 0)
(1.0387 0.000335142 0)
(1.03969 0.00113771 0)
(1.04146 0.00188663 0)
(1.04411 0.00246718 0)
(1.04772 0.00274444 0)
(1.05225 0.00256883 0)
(1.05701 0.00148066 0)
(1.06185 -0.00150331 0)
(1.0689 -0.0068983 0)
(1.07946 -0.0153057 0)
(1.09416 -0.027791 9.12792e-23)
(1.11387 -0.0472479 0)
(1.13989 -0.0768744 0)
(1.16113 -0.116784 3.98834e-22)
(1.14775 -0.210864 -2.8847e-22)
(0.943566 -0.313277 4.20327e-21)
(0.783028 -0.467888 1.01287e-22)
(0.776474 -0.593382 -6.38723e-22)
(0.772499 -0.651218 2.54043e-22)
(0.771274 -0.652218 -1.31614e-20)
(0.800263 -0.608212 -2.09715e-21)
(0.835298 -0.524202 2.4138e-21)
(0.870792 -0.43959 -3.66823e-22)
(0.909866 -0.375652 -1.15527e-22)
(0.946634 -0.318731 -4.32183e-23)
(0.940967 -0.21896 -5.85294e-22)
(0.966559 -0.165187 8.86701e-22)
(0.986573 -0.124011 0)
(1.00178 -0.0950134 0)
(1.01277 -0.0717435 -8.54971e-24)
(1.02018 -0.0540107 0)
(1.02431 -0.0404267 0)
(1.02574 -0.0299865 0)
(1.02586 -0.022394 0)
(1.02639 -0.0170449 0)
(1.0272 -0.0129404 0)
(1.02772 -0.00951535 0)
(1.028 -0.00657371 -3.58635e-24)
(1.02821 -0.00390006 -2.57289e-24)
(1.02842 -0.00134968 0)
(1.03734 0.000664782 0)
(1.03821 0.0020219 0)
(1.04004 0.00343325 0)
(1.04289 0.00484414 0)
(1.04692 0.0062245 0)
(1.05227 0.00750571 0)
(1.05878 0.00843436 0)
(1.06649 0.00809982 0)
(1.07702 0.00602707 0)
(1.09191 0.00213916 0)
(1.11293 -0.00389572 7.22259e-22)
(1.14215 -0.0122314 0)
(1.18431 -0.02741 0)
(1.23877 -0.0430754 1.34083e-21)
(1.27917 -0.0867574 -2.20139e-20)
(1.19599 -0.196926 -6.30593e-22)
(1.06064 -0.35335 0)
(0.940511 -0.4824 -1.08815e-21)
(0.827882 -0.578805 -2.89216e-21)
(0.727299 -0.593952 1.34067e-21)
(0.666568 -0.581714 2.83103e-21)
(0.659829 -0.509643 -2.43132e-21)
(0.704003 -0.414458 5.54336e-23)
(0.771184 -0.312009 0)
(0.820182 -0.217463 -1.05865e-22)
(0.870114 -0.155 2.11463e-21)
(0.912811 -0.115798 5.71888e-23)
(0.944491 -0.0848872 0)
(0.9696 -0.0631591 0)
(0.987947 -0.0463982 -1.54764e-22)
(1.00094 -0.0339626 0)
(1.00954 -0.0245897 0)
(1.01489 -0.0175758 0)
(1.01839 -0.0128977 0)
(1.0211 -0.00994394 0)
(1.02303 -0.00771408 6.4882e-24)
(1.02419 -0.00578778 -8.43132e-24)
(1.02479 -0.00405975 0)
(1.02509 -0.00242567 0)
(1.02524 -0.000802058 -1.98133e-23)
(1.03496 0.000938438 0)
(1.03579 0.00290779 0)
(1.03752 0.00499674 0)
(1.04024 0.00731747 0)
(1.04412 0.00996986 0)
(1.04944 0.0130005 0)
(1.0565 0.0164277 -3.19031e-24)
(1.06559 0.0197347 0)
(1.07764 0.0226619 0)
(1.09384 0.0256491 0)
(1.11604 0.0291267 0)
(1.14688 0.0355656 0)
(1.19009 0.0429104 0)
(1.25396 0.0583968 1.38967e-22)
(1.33264 0.076708 -3.93142e-23)
(1.32346 0.0681694 5.85429e-23)
(1.22233 -0.00501461 0)
(1.08928 -0.0813137 0)
(0.935976 -0.172822 -1.9081e-20)
(0.784683 -0.18538 -1.97272e-19)
(0.659477 -0.222203 -1.68887e-20)
(0.595429 -0.22048 2.42479e-21)
(0.59892 -0.200933 0)
(0.644472 -0.16303 0)
(0.714102 -0.11077 0)
(0.800914 -0.0659399 -1.85815e-23)
(0.873783 -0.0408897 1.75032e-21)
(0.915746 -0.0247536 7.30185e-23)
(0.949814 -0.0163454 0)
(0.973929 -0.0109358 0)
(0.990572 -0.00721538 0)
(1.00191 -0.00447263 0)
(1.00973 -0.00267232 2.84723e-23)
(1.01532 -0.00195613 1.16679e-23)
(1.01917 -0.00187147 5.87817e-25)
(1.02146 -0.00178681 0)
(1.02273 -0.00154076 0)
(1.02342 -0.00114937 0)
(1.02375 -0.000703709 0)
(1.02392 -0.000144106 0)
(1.03194 0.00104808 0)
(1.03261 0.0035464 0)
(1.03396 0.00623595 0)
(1.03611 0.00940827 0)
(1.03922 0.0131899 0)
(1.0436 0.0177649 0)
(1.04984 0.0233414 0)
(1.0584 0.0298422 0)
(1.06954 0.037443 -3.17984e-24)
(1.08361 0.0469821 0)
(1.10167 0.0595654 0)
(1.12593 0.0782551 0)
(1.15714 0.104738 3.68724e-22)
(1.20354 0.144461 1.69395e-21)
(1.27125 0.205517 0)
(1.30142 0.273853 0)
(1.2574 0.305345 0)
(1.15301 0.32459 0)
(1.00932 0.293558 3.85988e-20)
(0.856474 0.296322 9.74971e-20)
(0.716255 0.245886 1.20253e-22)
(0.642181 0.200912 -1.75001e-22)
(0.631428 0.146106 0)
(0.651178 0.0988588 0)
(0.694587 0.0622297 0)
(0.772914 0.0560366 0)
(0.850915 0.0610709 -1.51322e-20)
(0.910404 0.0512159 -2.80737e-21)
(0.950769 0.0399714 0)
(0.976026 0.0291608 -8.15965e-25)
(0.992511 0.0213898 -1.65636e-24)
(1.00361 0.0159074 -2.91386e-24)
(1.01147 0.0117288 0)
(1.01719 0.00831851 0)
(1.02079 0.00555803 0)
(1.02252 0.00353182 0)
(1.02329 0.00214248 0)
(1.02366 0.00123442 0)
(1.02387 0.000591529 0)
(1.02408 0.00017203 0)
(1.02863 0.00129949 0)
(1.02883 0.00402337 0)
(1.02952 0.00709967 0)
(1.0308 0.0107387 0)
(1.03276 0.0151032 0)
(1.03565 0.0204912 0)
(1.04017 0.0272132 0)
(1.04674 0.0354573 0)
(1.05492 0.0458335 0)
(1.06423 0.0593347 0)
(1.07485 0.0774542 -1.09034e-22)
(1.08777 0.102215 3.59694e-23)
(1.10173 0.136973 5.17736e-23)
(1.11846 0.184058 -1.49969e-21)
(1.14788 0.25217 0)
(1.1744 0.343868 0)
(1.15618 0.42869 0)
(1.09529 0.501426 0)
(0.995701 0.528203 1.1051e-20)
(0.885103 0.544746 -3.04117e-20)
(0.782977 0.514548 -4.66456e-21)
(0.738969 0.466986 2.20314e-20)
(0.7363 0.398175 0)
(0.753804 0.328093 0)