/*--------------------------------*- C++ -*----------------------------------*\
| =========                 |                                                 |
| \\      /  F ield         | OpenFOAM: The Open Source CFD Toolbox           |
|  \\    /   O peration     | Version:  v2106                                 |
|   \\  /    A nd           | Website:  www.openfoam.com                      |
|    \\/     M anipulation  |                                                 |
\*---------------------------------------------------------------------------*/
FoamFile
{
    version     2.0;
    format      ascii;
    arch        "LSB;label=32;scalar=64";
    class       volScalarField;
    location    "0";
    object      p;
}
// * * * * * * * * * * * * * * * * * * * * * * * * * * * * * * * * * * * * * //

dimensions      [0 2 -2 0 0 0 0];

internalField   nonuniform List<scalar> 
11644
(
0.0322404
0.0326628
0.0335561
0.0349452
0.0368388
0.0392569
0.0422263
0.0457737
0.0499196
0.0546742
0.0600287
0.0659352
0.0723242
0.0790902
0.0860478
0.092996
0.099699
0.105905
0.111356
0.115744
0.118872
0.120723
0.121399
0.120963
0.119461
0.117064
0.114054
0.110624
0.106972
0.103288
0.099706
0.0963287
0.0932325
0.0904694
0.0880726
0.0860624
0.0844498
0.083245
0.0824594
0.0820866
0.0315186
0.0319328
0.0327878
0.0341113
0.0359307
0.0382754
0.0411765
0.0446669
0.0487771
0.0535309
0.0589306
0.064965
0.0715789
0.0786245
0.0859724
0.093406
0.100638
0.107319
0.113066
0.117615
0.120854
0.122735
0.12325
0.122507
0.12066
0.117944
0.114568
0.110815
0.106905
0.103004
0.0992559
0.0957655
0.0925975
0.0897945
0.087383
0.0853762
0.0837813
0.0826002
0.08183
0.0814572
0.0298873
0.0303002
0.0311216
0.0323683
0.0340776
0.0362923
0.0390585
0.0424267
0.0464507
0.0511781
0.0566576
0.0629088
0.0699047
0.0775935
0.0858008
0.0942542
0.102561
0.110223
0.116802
0.122028
0.125664
0.127531
0.127575
0.126097
0.123414
0.119834
0.11568
0.111218
0.106715
0.102371
0.0983069
0.0945994
0.0912967
0.0884195
0.0859749
0.0839604
0.0823704
0.0811923
0.0804084
0.0800107
0.0274401
0.0278221
0.0285775
0.0297158
0.0312743
0.0333026
0.0358624
0.0390269
0.0428804
0.0475235
0.053052
0.059561
0.067158
0.0757897
0.0853478
0.0953978
0.105418
0.114988
0.123292
0.129721
0.133808
0.135336
0.134432
0.131611
0.127541
0.122538
0.117095
0.111603
0.106264
0.101267
0.0967418
0.0927398
0.0892589
0.0862858
0.0837964
0.0817674
0.0801726
0.0789864
0.0781899
0.0777838
0.0242889
0.0246106
0.0252496
0.0262215
0.0275598
0.029317
0.0315661
0.0344014
0.0379446
0.0423466
0.0478086
0.0546033
0.0629322
0.0729335
0.0844443
0.0969654
0.109691
0.122407
0.133403
0.14153
0.146131
0.146857
0.144241
0.138961
0.132558
0.125374
0.118162
0.1113
0.105011
0.0993361
0.0943126
0.0899919
0.0863362
0.0832787
0.0807625
0.0787358
0.0771546
0.0759849
0.0752041
0.0748101
0.0205682
0.0207984
0.0212686
0.0219945
0.0230121
0.0243765
0.0261633
0.0284807
0.031478
0.0354123
0.0406672
0.0476226
0.0566673
0.0679832
0.0819295
0.0981068
0.115041
0.132691
0.148122
0.159314
0.164545
0.163457
0.157449
0.148106
0.137902
0.127378
0.117635
0.10925
0.102028
0.0958738
0.090581
0.0860721
0.0823214
0.0792602
0.0767883
0.074825
0.0733101
0.0722009
0.0714713
0.0711034
0.0163958
0.016525
0.0167806
0.017184
0.0177706
0.0185902
0.0197177
0.021264
0.0234249
0.026602
0.0312458
0.0378064
0.0467227
0.0592655
0.0759754
0.0968199
0.114811
0.137423
0.159264
0.176356
0.184663
0.183273
0.174069
0.160498
0.142037
0.127176
0.114354
0.10429
0.0964303
0.0901109
0.0849311
0.0806049
0.0769995
0.0740952
0.0717974
0.0700044
0.0686436
0.0676627
0.0670261
0.0667166
0.0119694
0.0119609
0.0119598
0.0119743
0.0120266
0.0121505
0.01241
0.0129011
0.0138905
0.0157904
0.0189559
0.0239487
0.0318403
0.0442579
0.060843
0.083011
0.114103
0.149785
0.185629
0.21381
0.225551
0.218703
0.198249
0.17291
0.148263
0.127018
0.111897
0.0952464
0.0873839
0.081473
0.0768907
0.0732085
0.0701545
0.0676807
0.0657632
0.0642984
0.0632057
0.0624337
0.061934
0.061685
0.00748439
0.00734975
0.0070632
0.00663092
0.00605752
0.00535547
0.00454992
0.00371094
0.0030919
0.00295779
0.00361912
0.005562
0.00946183
0.0237012
0.0383345
0.0632161
0.0978556
0.148096
0.207921
0.261097
0.284937
0.269121
0.228264
0.18404
0.14608
0.115864
0.0986583
0.0802885
0.0740352
0.0696396
0.0663232
0.0637579
0.0616976
0.0600144
0.0587355
0.0577853
0.0570903
0.0565966
0.0562877
0.056132
0.00321835
0.00293211
0.00234767
0.00144941
0.000212112
-0.00139383
-0.00341124
-0.00581794
-0.00849885
-0.0114418
-0.0144749
-0.0172888
-0.0198836
-0.0104653
-0.00366429
0.018689
0.0551222
0.118665
0.219769
0.338999
0.397587
0.348064
0.250189
0.171945
0.118198
0.0843188
0.0723025
0.057848
0.0559168
0.0544058
0.0532549
0.0524428
0.0518151
0.0512699
0.0508759
0.0506169
0.0504528
0.0503474
0.0502795
0.050255
-0.000571302
-0.00100623
-0.00187432
-0.00322497
-0.00510516
-0.00760167
-0.0108433
-0.0149168
-0.0199168
-0.0261051
-0.0337333
-0.0430848
-0.054505
-0.0562394
-0.0659301
-0.0657799
-0.0543598
-0.0200512
0.102308
0.376775
0.588728
0.383209
0.160841
0.0699582
0.0399941
0.0298907
0.0333499
0.0298053
0.0335325
0.0361233
0.0381761
0.0397641
0.04096
0.0418391
0.0425368
0.0431149
0.0435592
0.0438902
0.0440988
0.0441887
-0.00370118
-0.0042046
-0.00530252
-0.00701512
-0.00944096
-0.0126955
-0.0169821
-0.0225361
-0.0296838
-0.0389465
-0.0510423
-0.0671703
-0.0888239
-0.100831
-0.137929
-0.170724
-0.229006
-0.341933
-0.616014
-0.391597
-0.157029
-0.0718203
-0.0348109
-0.012151
-0.000817148
0.00915073
0.016677
0.0223807
0.0266196
0.0298239
0.0322697
0.0341501
0.0356151
0.0367072
0.0374944
0.0380244
0.0382901
-0.00579413
-0.00644967
-0.00770855
-0.00965959
-0.0124175
-0.0161291
-0.0210491
-0.0275316
-0.03607
-0.0473859
-0.0625027
-0.0829715
-0.110729
-0.136512
-0.190727
-0.25438
-0.364292
-0.571409
-0.81796
-0.393652
-0.268572
-0.147292
-0.0867829
-0.051388
-0.0285332
-0.0129
-0.00112686
0.00766517
0.0142764
0.0193534
0.023287
0.0263057
0.0285999
0.0303081
0.0315384
0.0323561
0.0327659
-0.00690564
-0.00755466
-0.00885109
-0.0108649
-0.0136777
-0.0174639
-0.0224463
-0.0290353
-0.037783
-0.0494476
-0.065009
-0.0859069
-0.113521
-0.145679
-0.201994
-0.275246
-0.39123
-0.567171
-0.661829
-0.269154
-0.232153
-0.164057
-0.11156
-0.0763254
-0.0473312
-0.0290136
-0.0149012
-0.00419241
0.00406698
0.0105196
0.0156084
0.0195521
0.0225092
0.0247
0.0262484
0.027252
0.0278466
-0.00707689
-0.00757296
-0.008747
-0.0105761
-0.0131434
-0.0165825
-0.0210081
-0.0268198
-0.0345054
-0.0444895
-0.0575062
-0.0744263
-0.0963771
-0.12688
-0.171199
-0.237343
-0.343393
-0.527385
-0.728207
-0.722453
-0.501995
-0.304528
-0.207551
-0.202367
-0.16829
-0.122305
-0.0878828
-0.056768
-0.0380746
-0.0232295
-0.0119794
-0.00292906
0.00418021
0.0098964
0.0143407
0.0176776
0.0201723
0.0219366
0.0230493
0.023452
-0.0060871
-0.00657997
-0.00752727
-0.00897715
-0.0109926
-0.0136584
-0.0170211
-0.0212395
-0.0266913
-0.0333572
-0.0414369
-0.0513833
-0.0631956
-0.0876332
-0.109434
-0.140956
-0.211237
-0.332912
-0.5475
-0.648339
-0.490894
-0.342808
-0.279796
-0.25443
-0.188152
-0.129704
-0.0922567
-0.0584614
-0.0402139
-0.0259527
-0.0148942
-0.00605432
0.00100132
0.00665676
0.0110555
0.0144386
0.016964
0.0187303
0.0198153
0.0202423
-0.00404296
-0.00444796
-0.0051005
-0.00607175
-0.00739305
-0.00909521
-0.0111396
-0.013385
-0.0158336
-0.0184866
-0.020965
-0.0232897
-0.0249763
-0.0239765
-0.0345152
-0.0311874
-0.0456566
-0.0652263
-0.169941
-0.372537
-0.497054
-0.509687
-0.446819
-0.321525
-0.190133
-0.127031
-0.0756601
-0.0528059
-0.036151
-0.0233269
-0.0134445
-0.00554765
0.000811788
0.00590258
0.00985462
0.0129116
0.0152
0.0168154
0.017862
0.0184042
-0.0012498
-0.00131909
-0.00168005
-0.0022111
-0.00286076
-0.00356671
-0.00420943
-0.00448951
-0.0041302
-0.00314033
-0.00112167
0.00282916
0.0102588
0.0185143
0.0258231
0.05341
0.0721055
0.0774461
-0.0509784
-0.331054
-0.539424
-0.568425
-0.447842
-0.282172
-0.161403
-0.10713
-0.0594556
-0.0406491
-0.0267666
-0.0163433
-0.00838772
-0.00202204
0.00312861
0.00726797
0.0105035
0.0130258
0.0149318
0.0163096
0.0172342
0.0177134
0.00201719
0.00202851
0.00197175
0.0018921
0.00186006
0.00200989
0.00250495
0.00358101
0.00551537
0.0085102
0.0131016
0.0200269
0.0315286
0.0459432
0.0569368
0.0858313
0.10977
0.0811622
-0.043365
-0.242624
-0.378348
-0.367009
-0.270064
-0.176197
-0.102795
-0.0698134
-0.0347166
-0.022144
-0.012829
-0.00589807
-0.00056574
0.00379952
0.00737016
0.0102804
0.0126132
0.014469
0.0158896
0.01692
0.0176001
0.0179483
0.00526318
0.00528831
0.00544936
0.00573514
0.00617115
0.00685894
0.00791717
0.00940667
0.0116194
0.0148345
0.0194995
0.0258396
0.0347889
0.0467918
0.0557773
0.0671573
0.0693086
0.0318884
-0.0544891
-0.145141
-0.191146
-0.178892
-0.135618
-0.0933136
-0.0499629
-0.0299832
-0.00696327
-0.000950354
0.00346955
0.00654459
0.00899463
0.0110707
0.012833
0.014355
0.0156681
0.0167664
0.0176388
0.0182779
0.0186839
0.0188837
0.00844863
0.00852589
0.0087636
0.00918562
0.00980149
0.0106503
0.0117828
0.0131756
0.0149018
0.0170582
0.0198029
0.0235438
0.0259795
0.029876
0.0297639
0.0137794
-0.00752188
-0.0563306
-0.120118
-0.16467
-0.166414
-0.133036
-0.0870226
-0.0463196
-0.0133208
0.00198718
0.0171307
0.0182619
0.0188373
0.0185245
0.0184345
0.0184041
0.0184773
0.018674
0.0189888
0.0193516
0.0196969
0.0199869
0.0201738
0.0202501
0.0114874
0.0116127
0.0118796
0.0123064
0.0128943
0.0136437
0.0145717
0.0156412
0.0167383
0.0176776
0.018179
0.0181391
0.0139626
0.00776316
-0.0107807
-0.0407145
-0.114988
-0.1953
-0.263036
-0.286017
-0.243997
-0.159211
-0.0777153
-0.0213173
0.00955551
0.0325851
0.0336132
0.0324923
0.0304779
0.028017
0.0259825
0.02436
0.0232114
0.022461
0.0220152
0.0217656
0.021653
0.0216332
0.021655
0.0216897
0.0142974
0.0144309
0.0147039
0.0151116
0.0156437
0.0162819
0.0169865
0.0176983
0.0182742
0.0184049
0.0175276
0.0150473
0.00812074
-0.00567117
-0.0292176
-0.0846034
-0.166359
-0.253901
-0.336671
-0.346007
-0.274326
-0.173854
-0.0799633
-0.0132121
0.0269639
0.0402224
0.0455475
0.0418284
0.0381241
0.0343846
0.0311475
0.0285786
0.0267371
0.025423
0.0244954
0.0238305
0.0234023
0.0231495
0.0230284
0.023034
0.0167859
0.0169153
0.0171994
0.0176179
0.0181528
0.0187732
0.0194046
0.0199511
0.0202772
0.020128
0.018976
0.0160771
0.00993466
-0.00254524
-0.0243965
-0.0605825
-0.115543
-0.170326
-0.215999
-0.225186
-0.187598
-0.131144
-0.0694606
-0.0158468
0.0208241
0.0413413
0.0498406
0.0468692
0.042329
0.0379817
0.0342566
0.0313378
0.0291692
0.0275588
0.0263541
0.0254979
0.0249144
0.0245375
0.0243213
0.0242396
0.0188636
0.0190188
0.0193479
0.0198036
0.0203717
0.0210204
0.0216895
0.0223079
0.0227581
0.0228894
0.0223149
0.0204862
0.0165896
0.0095157
-0.00281999
-0.0231161
-0.0564166
-0.0928585
-0.12379
-0.138813
-0.134397
-0.110956
-0.0704227
-0.0256908
0.00980447
0.0311334
0.0418595
0.0435885
0.0413808
0.0381377
0.0349629
0.0323608
0.0303169
0.0287096
0.0274951
0.0266133
0.0259814
0.0255503
0.0252785
0.0251374
0.0206068
0.0208225
0.0211486
0.0215989
0.0221768
0.022875
0.0236691
0.0245299
0.025377
0.0260785
0.0263478
0.0258616
0.0238464
0.0199785
0.0122266
-0.00122034
-0.0228335
-0.051253
-0.0812239
-0.104122
-0.113217
-0.105451
-0.0791469
-0.0454897
-0.0151821
0.00848969
0.0237686
0.0320985
0.0343768
0.0340912
0.0328052
0.0313328
0.0299614
0.028779
0.0278308
0.0270901
0.0265231
0.0261142
0.0258435
0.0257028
0.022027
0.02222
0.022525
0.0229819
0.0236005
0.0243863
0.0253484
0.0264907
0.0277662
0.0290214
0.0300606
0.0303981
0.0291186
0.0249621
0.0170546
0.00352552
-0.0179799
-0.0480858
-0.0846741
-0.116089
-0.130933
-0.129816
-0.110708
-0.0800324
-0.0476312
-0.0189041
0.00384592
0.0183689
0.0251763
0.0280907
0.0290175
0.0289613
0.0286112
0.028091
0.0275752
0.0270963
0.0266829
0.0263732
0.0261576
0.0260251
0.0230739
0.0231446
0.0234589
0.023962
0.0246487
0.0255211
0.0265948
0.0278959
0.0293868
0.0309672
0.0323418
0.0334185
0.0325227
0.0282309
0.0172353
-0.00214659
-0.0302777
-0.0662569
-0.110726
-0.151607
-0.179441
-0.178586
-0.156061
-0.119887
-0.0761798
-0.038285
-0.00880669
0.00841625
0.0180448
0.0229763
0.0255113
0.026664
0.0271419
0.0271967
0.0270668
0.026846
0.0266149
0.0264122
0.0262517
0.0261526
0.0238846
0.0239432
0.0242118
0.0246725
0.0253367
0.0261982
0.0272583
0.0285321
0.0300234
0.0316352
0.0330456
0.0346287
0.0332951
0.027724
0.0157983
-0.00511208
-0.0352102
-0.0730735
-0.12004
-0.162419
-0.200021
-0.194757
-0.164537
-0.126272
-0.0801743
-0.0429204
-0.0140353
0.00391366
0.0146217
0.0203364
0.0236367
0.025248
0.0261165
0.026469
0.0265677
0.0265334
0.0264418
0.0263433
0.0262604
0.0262071
0.0244208
0.0245601
0.0248085
0.0251958
0.0257591
0.0265053
0.0274336
0.0285516
0.0298522
0.031334
0.0326166
0.0336225
0.0313229
0.0240117
0.011271
-0.00790303
-0.0341762
-0.0674352
-0.1044
-0.136618
-0.159673
-0.153727
-0.127605
-0.0964957
-0.0624205
-0.0338719
-0.0100435
0.00544379
0.0150122
0.0203335
0.0233533
0.024938
0.0257972
0.02621
0.026384
0.026419
0.0263813
0.0263242
0.0262732
0.0262514
0.0245221
0.0246787
0.0249184
0.0252637
0.025735
0.0263446
0.0270956
0.0279886
0.0289777
0.029994
0.0307724
0.0304465
0.0270424
0.0190052
0.00494087
-0.0146689
-0.0387687
-0.0659356
-0.0897824
-0.104884
-0.110312
-0.102681
-0.0847141
-0.0608678
-0.0366387
-0.0147444
0.00211991
0.0124073
0.018593
0.0221646
0.0242529
0.0254067
0.0260453
0.0263597
0.0264887
0.0264984
0.0264501
0.0263778
0.026315
0.0262726
0.0242837
0.0243692
0.0245508
0.0248279
0.0251927
0.0256371
0.0261409
0.0266789
0.0271228
0.0272371
0.026712
0.0244933
0.01904
0.00934886
-0.0051059
-0.0237
-0.0450222
-0.0664705
-0.0831693
-0.0883437
-0.0829464
-0.0714627
-0.0540355
-0.0333388
-0.0138702
0.00207462
0.0126752
0.019045
0.0226443
0.024582
0.0256799
0.0262334
0.0265108
0.0266102
0.0266124
0.0265536
0.0264846
0.0264095
0.0263483
0.0262746
0.0239039
0.0239417
0.0240538
0.0242248
0.0244347
0.0246497
0.0248114
0.024846
0.0245796
0.0236511
0.0214931
0.0170027
0.00859592
-0.00393006
-0.0199049
-0.0384156
-0.0573816
-0.0746997
-0.0865975
-0.08784
-0.0806957
-0.0635711
-0.0421311
-0.0205498
-0.00199459
0.0109237
0.0188718
0.0234903
0.0258513
0.0269028
0.0272815
0.0272335
0.0270632
0.0268559
0.0266699
0.026502
0.0263703
0.0262666
0.026194
0.0261513
0.0234969
0.0235406
0.0236078
0.0236774
0.0237164
0.0236874
0.0235046
0.0230475
0.0221033
0.020322
0.0169276
0.0107654
-0.000155846
-0.0163158
-0.0369651
-0.0601016
-0.0815496
-0.0981774
-0.109477
-0.109415
-0.0979483
-0.0747531
-0.0469245
-0.0223906
-0.00207308
0.0119708
0.0211271
0.0261873
0.0284406
0.0288891
0.028575
0.0280458
0.0274908
0.0270061
0.0266349
0.0263333
0.0261072
0.0259539
0.0258705
0.0259139
0.0230531
0.0231345
0.0231486
0.0231296
0.0230369
0.0228368
0.0224291
0.0216798
0.0203332
0.0180372
0.0139912
0.00732519
-0.00418325
-0.0213777
-0.0446577
-0.0709701
-0.0983231
-0.117119
-0.13196
-0.133487
-0.114076
-0.0857746
-0.0535734
-0.0276385
-0.00548196
0.0102514
0.0212247
0.0270288
0.0294355
0.0297117
0.0287919
0.0281331
0.0274701
0.0268742
0.0264203
0.0260651
0.0258122
0.0256655
0.0256058
0.0256281
0.0225771
0.0226177
0.0226119
0.0225632
0.0224273
0.0221747
0.0217247
0.0209547
0.0196041
0.0173239
0.0133457
0.00673208
-0.00372583
-0.0184883
-0.0377665
-0.0611546
-0.0867966
-0.106379
-0.123742
-0.126824
-0.107588
-0.0822805
-0.0529117
-0.0279892
-0.00697866
0.00824818
0.0184888
0.0245017
0.0277182
0.0286113
0.02811
0.0275298
0.0269287
0.0264168
0.0260065
0.0256906
0.0254655
0.0253237
0.025234
0.0251805
0.0221794
0.0221735
0.0221685
0.022141
0.0220472
0.0218503
0.021488
0.0208745
0.0198276
0.0180862
0.01508
0.0100841
0.00202298
-0.00961189
-0.0243457
-0.0414593
-0.060666
-0.0774848
-0.0902958
-0.0948048
-0.0862878
-0.0709021
-0.0506041
-0.0299111
-0.0118362
0.0023835
0.0132044
0.0205088
0.0246426
0.0263125
0.0265096
0.0262363
0.0258659
0.025523
0.0252296
0.0249951
0.0248148
0.024681
0.0245757
0.0244924
0.0219408
0.0219478
0.02195
0.0219416
0.021895
0.0217871
0.0215733
0.0212027
0.020576
0.0195613
0.0178504
0.0149103
0.00986786
0.00183481
-0.00934876
-0.0225373
-0.0368925
-0.0510111
-0.0619168
-0.0679935
-0.0693863
-0.0636976
-0.0503088
-0.0341987
-0.0186171
-0.00498423
0.00642815
0.0147542
0.0198999
0.0226412
0.0238038
0.0241759
0.0242437
0.024166
0.0240396
0.0239194
0.0238188
0.0237408
0.0236862
0.023645
0.0217217
0.0217481
0.0217623
0.0217739
0.021779
0.0217801
0.0217464
0.0216628
0.0214741
0.0211159
0.0203911
0.0189685
0.0161162
0.0110199
0.00278495
-0.00832377
-0.0216717
-0.0360396
-0.0487532
-0.05838
-0.0625706
-0.0613117
-0.0521271
-0.0394288
-0.026168
-0.0134656
-0.00222651
0.00679763
0.0134526
0.017826
0.020273
0.0215809
0.0222409
0.0225323
0.0226524
0.0226928
0.0226965
0.0226953
0.0227055
0.0227332
0.021372
0.0213601
0.021396
0.0214601
0.0215526
0.0216828
0.0218496
0.0220667
0.022312
0.0224975
0.0224294
0.0217
0.0198441
0.0159688
0.00853085
-0.00241071
-0.0168348
-0.0332625
-0.0500378
-0.0632335
-0.0693799
-0.0701312
-0.0629033
-0.0519781
-0.0395299
-0.0261175
-0.0129594
-0.00173499
0.0071425
0.0133049
0.0169693
0.0190781
0.0202689
0.0209522
0.0213572
0.0215832
0.0216998
0.0217565
0.0217885
0.0218301
0.0209787
0.0209265
0.0209554
0.0210461
0.0212032
0.0214307
0.0217371
0.022158
0.0226733
0.0231923
0.0236969
0.0232038
0.0210784
0.0167379
0.00871264
-0.0025612
-0.0176601
-0.0354851
-0.0559615
-0.07428
-0.086771
-0.087248
-0.0789648
-0.0680765
-0.0538996
-0.0378942
-0.0214658
-0.00755652
0.00312073
0.0103137
0.0145181
0.0171287
0.018688
0.0196501
0.0202799
0.0206579
0.0208787
0.0209944
0.0210445
0.021032
0.0205449
0.0205431
0.0205745
0.0206576
0.0208123
0.0210508
0.0213732
0.0217951
0.0223212
0.0228088
0.02322
0.0226207
0.0203688
0.0159797
0.00798248
-0.00319354
-0.0184996
-0.0358889
-0.057729
-0.0764877
-0.0944395
-0.094453
-0.0825131
-0.0712327
-0.0547816
-0.0377041
-0.0211585
-0.00776806
0.00218665
0.0090289
0.0133526
0.0160117
0.0177145
0.0187619
0.0194428
0.0198725
0.0201307
0.0202745
0.0203417
0.020292
0.0199466
0.0199911
0.0200549
0.020141
0.0202666
0.0204403
0.0206692
0.0209562
0.0212927
0.0214824
0.0212441
0.0199395
0.0170378
0.0122873
0.00469543
-0.00593087
-0.0196077
-0.0354472
-0.0527229
-0.0672327
-0.0783789
-0.0770771
-0.0678962
-0.056516
-0.0414224
-0.0270629
-0.0142253
-0.00384033
0.00428345
0.00997708
0.013709
0.0159928
0.0174086
0.0182893
0.0188515
0.0192072
0.0194225
0.0195367
0.0195912
0.0195941
0.0191748
0.0192193
0.0192588
0.0193046
0.0193616
0.0194314
0.0195059
0.0195496
0.0195414
0.0192701
0.0182335
0.0160623
0.012038
0.0059672
-0.00211844
-0.0120749
-0.023762
-0.0363223
-0.0476564
-0.0547191
-0.0571644
-0.0538883
-0.0463424
-0.036434
-0.0249338
-0.0142408
-0.00484941
0.00294745
0.00887734
0.0127641
0.0151965
0.0166636
0.0175981
0.0181817
0.0185543
0.0187846
0.0189203
0.018993
0.0190349
0.0190676
0.0183166
0.0182997
0.018277
0.018254
0.0182222
0.0181601
0.0180365
0.0177597
0.0172115
0.0161971
0.0142089
0.0109362
0.005986
-0.00077083
-0.00918795
-0.0186378
-0.0286669
-0.0383359
-0.0456085
-0.0476196
-0.0452484
-0.0394856
-0.0311589
-0.0214268
-0.0115449
-0.00275506
0.00446301
0.0098576
0.0135136
0.0156709
0.0168969
0.0175788
0.0180184
0.0182948
0.0184718
0.0185806
0.0186513
0.0186927
0.0187146
0.0187176
0.01744
0.0173767
0.0173171
0.0172412
0.0171243
0.0169213
0.0165723
0.0159575
0.0148672
0.0130181
0.00992629
0.00528243
-0.000879603
-0.00849603
-0.0174116
-0.0268831
-0.0360872
-0.0441087
-0.0487311
-0.0476038
-0.0440306
-0.0360429
-0.0254706
-0.0141811
-0.00347996
0.00508214
0.0113388
0.015105
0.0171499
0.0180273
0.0183573
0.018445
0.0184481
0.0184197
0.0183933
0.0183703
0.0183612
0.0183569
0.0183519
0.0183416
0.0166516
0.016612
0.016552
0.0164404
0.0162372
0.0158931
0.0153351
0.0144454
0.0129733
0.0105074
0.00643788
0.000394291
-0.00772469
-0.0176439
-0.0284163
-0.0389239
-0.0483261
-0.0556154
-0.0597205
-0.0576699
-0.0499513
-0.0382485
-0.0246231
-0.0116505
-0.000292539
0.00833212
0.0143459
0.0175412
0.0191586
0.0196018
0.0193231
0.0189876
0.018634
0.0183507
0.0181435
0.0179981
0.0179037
0.0178492
0.0178279
0.0178669
0.0159957
0.0160302
0.0159638
0.0158122
0.0155407
0.0151116
0.0144279
0.0134019
0.0117251
0.00903048
0.004713
-0.00177252
-0.0107644
-0.0222257
-0.0347196
-0.0467433
-0.0577192
-0.0652732
-0.0703635
-0.0679331
-0.0548356
-0.040152
-0.0243316
-0.0107601
0.000435058
0.00881127
0.0146005
0.0177639
0.0195394
0.0199132
0.0194326
0.0189082
0.0183773
0.0180064
0.0177188
0.0175228
0.0174001
0.0173459
0.0173383
0.0173809
0.0153843
0.0154238
0.0153653
0.0152291
0.0149751
0.0145714
0.0139295
0.0129517
0.0113609
0.0088574
0.00487599
-0.000875965
-0.00841281
-0.018418
-0.0300532
-0.0418387
-0.0535309
-0.061269
-0.0665242
-0.0646558
-0.0521979
-0.0388142
-0.0239019
-0.0112301
-0.00076318
0.00720905
0.012818
0.0160408
0.0178345
0.0184624
0.018395
0.0181067
0.017724
0.0174189
0.0171856
0.0170213
0.016916
0.0168597
0.0168303
0.0168226
0.0148519
0.0148306
0.0147847
0.0146985
0.0145301
0.0142489
0.0137966
0.0130813
0.011927
0.0100554
0.00713456
0.00273869
-0.00298876
-0.0101551
-0.0187941
-0.0281293
-0.0375734
-0.0448234
-0.0497176
-0.0499759
-0.0444424
-0.0357751
-0.0251893
-0.0148327
-0.00565092
0.00190382
0.00766356
0.0116385
0.0143109
0.0157988
0.0164493
0.0166168
0.0165379
0.0164361
0.0163436
0.0162741
0.0162211
0.0161805
0.0161425
0.0161066
0.0145008
0.0144734
0.0144452
0.0144005
0.0143143
0.0141678
0.0139262
0.0135442
0.0129257
0.0118925
0.0101944
0.00747776
0.00348606
-0.00153287
-0.00767494
-0.0146211
-0.0218677
-0.028527
-0.0339266
-0.037118
-0.0372305
-0.0337241
-0.0275018
-0.0198609
-0.0121206
-0.00497703
0.00117454
0.00611224
0.00981633
0.0122529
0.0137217
0.0144724
0.0148398
0.0150397
0.0151441
0.0152053
0.0152459
0.0152738
0.0152882
0.01528
0.0142592
0.014269
0.0142654
0.0142549
0.0142364
0.0142101
0.014158
0.0140713
0.0139152
0.0136062
0.012919
0.0116355
0.00929812
0.00582185
0.00094517
-0.0052065
-0.0124737
-0.0198823
-0.0267372
-0.0318981
-0.0339895
-0.0342536
-0.0311369
-0.0253733
-0.0184519
-0.0114621
-0.00497204
0.000571661
0.00498825
0.00832407
0.0106667
0.0121337
0.0130259
0.0135616
0.0138724
0.0140652
0.0141916
0.014285
0.0143584
0.0144149
0.0139355
0.0139412
0.0139641
0.0140017
0.0140611
0.0141522
0.0142753
0.0144412
0.0146347
0.0148244
0.014887
0.0145509
0.0132385
0.0106417
0.00621365
9.70376e-06
-0.00799624
-0.0168898
-0.0255017
-0.0325133
-0.0372081
-0.0400258
-0.0385417
-0.0337708
-0.0271325
-0.0197605
-0.0123636
-0.0055676
0.000175838
0.00468531
0.00798983
0.0101443
0.0114899
0.0123009
0.0128011
0.0131166
0.0133113
0.0134331
0.0135171
0.0135915
0.0135302
0.013492
0.013513
0.0135731
0.0136844
0.0138584
0.0141074
0.0144433
0.0148794
0.015357
0.0158392
0.0157375
0.0146531
0.0126749
0.00882972
0.00302089
-0.00484653
-0.0149244
-0.0258488
-0.0359408
-0.0446587
-0.0490239
-0.0476376
-0.0429239
-0.0360681
-0.0277242
-0.0190451
-0.0106051
-0.00327755
0.00225345
0.0062026
0.0087646
0.0103747
0.0113441
0.0119991
0.012419
0.0126797
0.0128229
0.0128979
0.0129186
0.0131034
0.0130803
0.013088
0.0131359
0.0132419
0.0134188
0.0136804
0.0140266
0.0144753
0.0149002
0.0154601
0.0153309
0.0142609
0.0125251
0.00906171
0.00367008
-0.0036469
-0.0135105
-0.0250802
-0.0365138
-0.0469022
-0.0519457
-0.0503125
-0.0450367
-0.0375255
-0.0287846
-0.0195629
-0.0108243
-0.00357108
0.00172276
0.00555944
0.00809821
0.00972897
0.0107777
0.0114704
0.0118912
0.0121762
0.012337
0.0124061
0.0123606
0.0125837
0.012598
0.0126283
0.0126735
0.0127472
0.0128575
0.0130196
0.0132202
0.0134563
0.0135541
0.013479
0.0129002
0.0115235
0.00929043
0.00557814
0.00029886
-0.00641065
-0.0146425
-0.024086
-0.0331739
-0.03994
-0.0428234
-0.0407673
-0.0357794
-0.0289428
-0.0212022
-0.0133939
-0.00648217
-0.00106528
0.00312678
0.00628615
0.00838632
0.00973362
0.0105952
0.011138
0.0114786
0.0116953
0.0118115
0.0118627
0.0118481
0.0119367
0.0119616
0.0119753
0.0119785
0.0119771
0.0119693
0.0119507
0.0118946
0.0117558
0.0113497
0.0104673
0.00889521
0.00653303
0.00332723
-0.000886179
-0.00607349
-0.0119746
-0.018006
-0.0236578
-0.0282688
-0.0302281
-0.0296683
-0.0265251
-0.0219823
-0.0164689
-0.0106711
-0.00524704
-0.000609984
0.00307927
0.0060419
0.00810197
0.00938156
0.0102074
0.0107122
0.0110232
0.0112143
0.0113276
0.0113867
0.0114207
0.0114489
0.0112171
0.0111991
0.0111507
0.011078
0.0109787
0.0108329
0.0106058
0.0102317
0.00963272
0.00861961
0.00697273
0.00457182
0.00135127
-0.00267784
-0.00737264
-0.0124974
-0.0177007
-0.0222479
-0.0247645
-0.0253569
-0.0244397
-0.0211114
-0.0165513
-0.0117662
-0.00670189
-0.00202284
0.00187274
0.00499479
0.00734015
0.00898343
0.00997327
0.0105125
0.0108208
0.0109848
0.0110879
0.0111492
0.011184
0.011201
0.0112118
0.0112234
0.0104903
0.0104188
0.0103256
0.0102036
0.0100361
0.00978015
0.00937795
0.00871922
0.00767001
0.00604885
0.0036817
0.000505997
-0.00356621
-0.00848004
-0.0139687
-0.019425
-0.0244446
-0.0278731
-0.0284009
-0.0260297
-0.0228161
-0.0182378
-0.0125764
-0.00658205
-0.000949216
0.00372116
0.0071403
0.00940187
0.010745
0.0113119
0.0114436
0.0114087
0.0113281
0.011228
0.0111571
0.0111072
0.0110756
0.011054
0.0110386
0.011018
0.00984881
0.009784
0.00969815
0.00956487
0.00935063
0.00900791
0.00847119
0.00761224
0.00622441
0.00404726
0.000905311
-0.00334075
-0.00875521
-0.0149592
-0.0214494
-0.0274954
-0.0323478
-0.0353776
-0.0351892
-0.03075
-0.0246351
-0.0177939
-0.0100954
-0.0027168
0.00315018
0.00755841
0.0104624
0.0120176
0.0127143
0.0126481
0.0122703
0.0118794
0.0115291
0.0112449
0.0110292
0.010881
0.0107841
0.0107217
0.010688
0.0106947
0.00936509
0.00936881
0.00929999
0.00915679
0.00890211
0.00849857
0.00787621
0.00689905
0.00542487
0.00299821
-0.000510843
-0.00534243
-0.0116177
-0.0187281
-0.0259683
-0.0327424
-0.0376052
-0.041068
-0.0405228
-0.0346434
-0.0261184
-0.0173086
-0.00805684
8.36793e-05
0.00559403
0.00948272
0.0117268
0.0127234
0.0130837
0.0128517
0.0123163
0.0117881
0.011307
0.0109399
0.0106654
0.0104742
0.0103546
0.0102965
0.0102802
0.010318
0.00896976
0.00901171
0.00895657
0.00882278
0.00858427
0.00820194
0.00761606
0.00669148
0.00530962
0.00311806
-1.64156e-05
-0.00421833
-0.00977311
-0.0163236
-0.0231232
-0.029696
-0.0345167
-0.0377752
-0.0377072
-0.0326505
-0.0252509
-0.0166715
-0.00821634
-0.0010131
0.00418714
0.00789009
0.0101151
0.0112942
0.0117933
0.0117231
0.0114294
0.0110808
0.0107091
0.0104184
0.0101995
0.0100476
0.00995202
0.00991
0.00989863
0.0099055
0.00861514
0.00861932
0.00858005
0.00849686
0.00834264
0.00808817
0.00768316
0.00702883
0.00600975
0.00448815
0.0022246
-0.000773288
-0.00454627
-0.00920086
-0.0142993
-0.0194639
-0.0237429
-0.0269262
-0.0281559
-0.0261239
-0.0222736
-0.0168394
-0.0111671
-0.00592697
-0.00129752
0.00247477
0.00526182
0.00726246
0.00853303
0.00928033
0.00965524
0.0097417
0.00969895
0.00962233
0.00955177
0.00949932
0.00945957
0.00943105
0.00940478
0.00938391
0.00837907
0.00835468
0.00833686
0.00831025
0.00825388
0.00815109
0.00797722
0.00768079
0.00716674
0.00637256
0.00512085
0.00331914
0.00103165
-0.00186052
-0.0052382
-0.00900204
-0.0126472
-0.015996
-0.0187387
-0.0197718
-0.0194614
-0.0178044
-0.0151988
-0.0115772
-0.00763448
-0.00392281
-0.000632124
0.00217049
0.00440393
0.00608095
0.00719585
0.00785738
0.00823397
0.00844982
0.00858259
0.00867068
0.00872831
0.00876362
0.00877677
0.00876711
0.00827643
0.00827996
0.00828485
0.0082939
0.00830122
0.00831359
0.00832418
0.00832311
0.00825696
0.0080603
0.0076414
0.00683398
0.0055819
0.00370394
0.00114208
-0.00226277
-0.00603578
-0.00994553
-0.0135238
-0.0163878
-0.0184876
-0.0198803
-0.0196314
-0.017232
-0.0136956
-0.00972721
-0.00580031
-0.00226574
0.000697669
0.00299346
0.00470643
0.00590162
0.00669097
0.00719863
0.00752728
0.00774465
0.00789369
0.00800233
0.00807902
0.00812312
0.00814731
0.00816677
0.00819363
0.00823511
0.00829946
0.00840144
0.00854314
0.00873082
0.00896173
0.0092016
0.00941044
0.00936642
0.00878937
0.00750545
0.00536619
0.00215296
-0.00188625
-0.00658161
-0.0112587
-0.015931
-0.0202636
-0.0240104
-0.0251193
-0.0236621
-0.0203834
-0.0160318
-0.0112888
-0.00672645
-0.00277304
0.000333405
0.00268074
0.00436671
0.00550687
0.00623944
0.00670203
0.00700124
0.00719819
0.00733698
0.00743833
0.0075147
0.00789904
0.00788808
0.00791663
0.00797795
0.00808297
0.00824384
0.00846834
0.00877082
0.00916835
0.00965078
0.0101354
0.0105598
0.0106013
0.0100094
0.00855872
0.00591476
0.00189742
-0.0037388
-0.0101443
-0.0167973
-0.0232176
-0.0286798
-0.0304462
-0.0295439
-0.0260872
-0.021396
-0.0160005
-0.0105468
-0.00561751
-0.00162136
0.0013082
0.00338833
0.00476298
0.00562961
0.00618347
0.00654038
0.00676641
0.00690389
0.00698423
0.00702549
0.00760913
0.00758186
0.00758976
0.00763213
0.00772772
0.00787631
0.00810743
0.00843082
0.0088336
0.0093587
0.00983593
0.0103672
0.010611
0.0102831
0.00915672
0.0068803
0.00315824
-0.0024554
-0.00930908
-0.0166005
-0.023656
-0.0293839
-0.0310964
-0.0301931
-0.0268166
-0.0221057
-0.0166336
-0.0110623
-0.00599323
-0.00194827
0.000902384
0.00301164
0.00440804
0.00530531
0.00587793
0.00625918
0.00650261
0.00663996
0.00670036
0.00668
0.007276
0.00727453
0.00728311
0.00730788
0.00736312
0.00745313
0.00759325
0.00778501
0.00800542
0.00824574
0.00837115
0.0083792
0.00806199
0.00717786
0.00563272
0.00318758
-0.000209524
-0.00475219
-0.0100875
-0.0155717
-0.0204928
-0.0239647
-0.0246774
-0.0233037
-0.0202406
-0.0162549
-0.0117859
-0.00740045
-0.00352903
-0.000490829
0.00174672
0.00343158
0.00455895
0.00527978
0.00576167
0.00607117
0.00626295
0.00637148
0.00641737
0.0063884
0.00684649
0.00685956
0.00686796
0.00686591
0.00685799
0.00684307
0.00681748
0.0067653
0.00662999
0.0063546
0.00578728
0.00487657
0.00357213
0.00181608
-0.000341329
-0.00298257
-0.00597722
-0.00898655
-0.0117592
-0.0142163
-0.0159854
-0.0166592
-0.0155557
-0.0134247
-0.0108559
-0.00781623
-0.00478525
-0.00200393
0.00031232
0.00212302
0.00353632
0.0045255
0.00515871
0.00556683
0.00582276
0.00597669
0.00606381
0.0061087
0.00612966
0.0061432
0.00635876
0.0063496
0.00631368
0.00624717
0.00614809
0.00600153
0.0057815
0.00545076
0.00492528
0.00412117
0.00293193
0.00129521
-0.000779593
-0.00323018
-0.00595668
-0.00884615
-0.0115561
-0.013492
-0.0141106
-0.0137544
-0.0128215
-0.0113269
-0.00902606
-0.00630273
-0.00368908