/*--------------------------------*- C++ -*----------------------------------*\
| =========                 |                                                 |
| \\      /  F ield         | OpenFOAM: The Open Source CFD Toolbox           |
|  \\    /   O peration     | Version:  v2106                                 |
|   \\  /    A nd           | Website:  www.openfoam.com                      |
|    \\/     M anipulation  |                                                 |
\*---------------------------------------------------------------------------*/
FoamFile
{
    version     2.0;
    format      ascii;
    arch        "LSB;label=32;scalar=64";
    class       pointVectorField;
    location    "0";
    object      pointDisplacement;
}
// * * * * * * * * * * * * * * * * * * * * * * * * * * * * * * * * * * * * * //

dimensions      [0 1 0 0 0 0 0];

internalField   nonuniform List<vector> 
24440
(
(0 0 0)
(0 0 0)
(0 0 0)
(0 0 0)
(0 0 0)
(0 0 0)
(0 0 0)
(0 0 0)
(0 0 0)
(0 0 0)
(0 0 0)
(0 0 0)
(0 0 0)
(0 0 0)
(0 0 0)
(0 0 0)
(0 0 0)
(0 0 0)
(0 0 0)
(0 0 0)
(0 0 0)
(0 0 0)
(0 0 0)
(0 0 0)
(0 0 0)
(0 0 0)
(0 0 0)
(0 0 0)
(0 0 0)
(0 0 0)
(0 0 0)
(0 0 0)
(0 0 0)
(0 0 0)
(0 0 0)
(0 0 0)
(0 0 0)
(0 0 0)
(0 0 0)
(0 0 0)
(0 0 0)
(0 0 0)
(0 0 0)
(0 0 0)
(0 0 0)
(0 0 0)
(0 0 0)
(0 0 0)
(0 0 0)
(0 0 0)
(0 0 0)
(0 0 0)
(0 0 0)
(0 0 0)
(0 0 0)
(0 0 0)
(0 0 0)
(0 0 0)
(0 0 0)
(0 0 0)
(0 0 0)
(0 0 0)
(0 0 0)
(0 0 0)
(0 0 0)
(0 0 0)
(0 0 0)
(0 0 0)
(0 0 0)
(0 0 0)
(0 0 0)
(0 0 0)
(0 0 0)
(0 0 0)
(0 0 0)
(0 0 0)
(0 0 0)
(0 0 0)
(0 0 0)
(0 0 0)
(0 0 0)
(0 0 0)
(0 0 0)
(0 0 0)
(0 0 0)
(0 0 0)
(0 0 0)
(0 0 0)
(0 0 0)
(0 0 0)
(0 0 0)
(0 0 0)
(0 0 0)
(0 0 0)
(0 0 0)
(0 0 0)
(0 0 0)
(0 0 0)
(0 4.80878e-07 0)
(0 3.03245e-06 0)
(0 8.33858e-06 0)
(0 1.28493e-05 0)
(0 1.45804e-05 0)
(0 1.28493e-05 0)
(0 8.33858e-06 0)
(0 3.03245e-06 0)
(0 4.80878e-07 0)
(0 0 0)
(0 0 0)
(0 0 0)
(0 0 0)
(0 0 0)
(0 0 0)
(0 0 0)
(0 0 0)
(0 0 0)
(0 0 0)
(0 0 0)
(0 0 0)
(0 0 0)
(0 0 0)
(0 0 0)
(0 0 0)
(0 0 0)
(0 0 0)
(0 0 0)
(0 0 0)
(0 0 0)
(0 0 0)
(0 0 0)
(0 0 0)
(0 0 0)
(0 0 0)
(0 0 0)
(0 0 0)
(0 0 0)
(0 8.05341e-07 0)
(0 1.06533e-05 0)
(0 3.13519e-05 0)
(0 5.64784e-05 0)
(0 8.05612e-05 0)
(0 9.73502e-05 0)
(0 0.000112957 0)
(0 0.000118449 0)
(0 0.000112957 0)
(0 9.73502e-05 0)
(0 8.05612e-05 0)
(0 5.64784e-05 0)
(0 3.13519e-05 0)
(0 1.06533e-05 0)
(0 8.05341e-07 0)
(0 0 0)
(0 0 0)
(0 0 0)
(0 0 0)
(0 0 0)
(0 0 0)
(0 0 0)
(0 0 0)
(0 0 0)
(0 0 0)
(0 0 0)
(0 0 0)
(0 0 0)
(0 0 0)
(0 0 0)
(0 0 0)
(0 0 0)
(0 0 0)
(0 0 0)
(0 0 0)
(0 0 0)
(0 0 0)
(0 0 0)
(0 0 0)
(0 3.38128e-07 0)
(0 1.40101e-05 0)
(0 4.77789e-05 0)
(0 9.42194e-05 0)
(0 0.000142053 0)
(0 0.000195417 0)
(0 0.000241636 0)
(0 0.00027026 0)
(0 0.00029763 0)
(0 0.000307089 0)
(0 0.00029763 0)
(0 0.00027026 0)
(0 0.000241636 0)
(0 0.000195417 0)
(0 0.000142053 0)
(0 9.42194e-05 0)
(0 4.77789e-05 0)
(0 1.40101e-05 0)
(0 3.38128e-07 0)
(0 0 0)
(0 0 0)
(0 0 0)
(0 0 0)
(0 0 0)
(0 0 0)
(0 0 0)
(0 0 0)
(0 0 0)
(0 0 0)
(0 0 0)
(0 0 0)
(0 0 0)
(0 0 0)
(0 0 0)
(0 0 0)
(0 0 0)
(0 0 0)
(0 0 0)
(0 0 0)
(0 0 0)
(0 3.19717e-06 0)
(0 3.32488e-05 0)
(0 8.83603e-05 0)
(0 0.000155029 0)
(0 0.000237806 0)
(0 0.000321294 0)
(0 0.00039362 0)
(0 0.000461373 0)
(0 0.000509451 0)
(0 0.000538176 0)
(0 0.000551362 0)
(0 0.000538176 0)
(0 0.000509451 0)
(0 0.000461373 0)
(0 0.00039362 0)
(0 0.000321294 0)
(0 0.000237806 0)
(0 0.000155029 0)
(0 8.83603e-05 0)
(0 3.32488e-05 0)
(0 3.38474e-06 0)
(0 0 0)
(0 0 0)
(0 0 0)
(0 0 0)
(0 0 0)
(0 0 0)
(0 0 0)
(0 0 0)
(0 0 0)
(0 0 0)
(0 0 0)
(0 0 0)
(0 0 0)
(0 0 0)
(0 0 0)
(0 0 0)
(0 0 0)
(0 0 0)
(0 0 0)
(0 6.28811e-06 0)
(0 4.40922e-05 0)
(0 0.000110049 0)
(0 0.000202032 0)
(0 0.000311352 0)
(0 0.000424951 0)
(0 0.000529198 0)
(0 0.000628027 0)
(0 0.000665163 0)
(0 0.000705322 0)
(0 0.000738914 0)
(0 0.00076538 0)
(0 0.000784306 0)
(0 0.000797394 0)
(0 0.000809484 0)
(0 0.000813532 0)
(0 0.000809484 0)
(0 0.000797394 0)
(0 0.000784306 0)
(0 0.00076538 0)
(0 0.000738914 0)
(0 0.000705322 0)
(0 0.000665163 0)
(0 0.000628027 0)
(0 0.000529198 0)
(0 0.000424951 0)
(0 0.000311352 0)
(0 0.000202032 0)
(0 0.000107764 0)
(0 3.98418e-05 0)
(0 5.02461e-06 0)
(0 0 0)
(0 0 0)
(0 0 0)
(0 0 0)
(0 0 0)
(0 0 0)
(0 0 0)
(0 0 0)
(0 0 0)
(0 0 0)
(0 0 0)
(0 0 0)
(0 0 0)
(0 0 0)
(0 0 0)
(0 0 0)
(0 0 0)
(0 3.69856e-06 0)
(0 4.23261e-05 0)
(0 0.000117928 0)
(0 0.000221906 0)
(0 0.0003437 0)
(0 0.000486998 0)
(0 0.000555516 0)
(0 0.000616249 0)
(0 0.000683467 0)
(0 0.000746472 0)
(0 0.000804117 0)
(0 0.000853089 0)
(0 0.00074348 0)
(0 0.000788874 0)
(0 0.000824699 0)
(0 0.000860833 0)
(0 0.000889179 0)
(0 0.00090938 0)
(0 0.00092149 0)
(0 0.000934324 0)
(0 0.000938616 0)
(0 0.000934324 0)
(0 0.00092149 0)
(0 0.00090938 0)
(0 0.000889179 0)
(0 0.000860833 0)
(0 0.000824699 0)
(0 0.000788874 0)
(0 0.00074348 0)
(0 0.000853089 0)
(0 0.000804117 0)
(0 0.000746472 0)
(0 0.000683467 0)
(0 0.000616249 0)
(0 0.000555516 0)
(0 0.000486998 0)
(0 0.0003437 0)
(0 0.000221906 0)
(0 0.000113626 0)
(0 4.04846e-05 0)
(0 3.35883e-06 0)
(0 0 0)
(0 0 0)
(0 0 0)
(0 0 0)
(0 0 0)
(0 0 0)
(0 0 0)
(0 0 0)
(0 0 0)
(0 0 0)
(0 0 0)
(0 0 0)
(0 0 0)
(0 0 0)
(0 0 0)
(0 0 0)
(0 2.34015e-05 0)
(0 9.56337e-05 0)
(0 0.000204452 0)
(0 0.000341139 0)
(0 0.000493378 0)
(0 0.000648069 0)
(0 0.000570419 0)
(0 0.000644929 0)
(0 0.000716627 0)
(0 0.000784137 0)
(0 0.000844118 0)
(0 0.000904946 0)
(0 0.000958699 0)
(0 0.00100311 0)
(0 0.000901323 0)
(0 0.000941951 0)
(0 0.00104498 0)
(0 0.00107513 0)
(0 0.000974273 0)
(0 0.00100385 0)
(0 0.00110512 0)
(0 0.00112623 0)
(0 0.00102482 0)
(0 0.00103546 0)
(0 0.00113846 0)
(0 0.00114817 0)
(0 0.00104869 0)
(0 0.00105311 0)
(0 0.00115256 0)
(0 0.00114817 0)
(0 0.00104869 0)
(0 0.00103546 0)
(0 0.00113846 0)
(0 0.00112623 0)
(0 0.00102482 0)
(0 0.00100385 0)
(0 0.00110512 0)
(0 0.00107513 0)
(0 0.000974273 0)
(0 0.000941951 0)
(0 0.00104498 0)
(0 0.00100311 0)
(0 0.000901323 0)
(0 0.000958699 0)
(0 0.000904946 0)
(0 0.000844118 0)
(0 0.000784137 0)
(0 0.000716627 0)
(0 0.000644929 0)
(0 0.000570419 0)
(0 0.000648069 0)
(0 0.000493378 0)
(0 0.000337033 0)
(0 0.000202838 0)
(0 9.55315e-05 0)
(0 2.54412e-05 0)
(0 0 0)
(0 0 0)
(0 0 0)
(0 0 0)
(0 0 0)
(0 0 0)
(0 0 0)
(0 0 0)
(0 0 0)
(0 0 0)
(0 0 0)
(0 0 0)
(0 0 0)
(0 0 0)
(0 0 0)
(0 5.10501e-06 0)
(0 5.24473e-05 0)
(0 0.000151179 0)
(0 0.000283248 0)
(0 0.000440255 0)
(0 0.000620138 0)
(0 0.000793406 0)
(0 0.000725976 0)
(0 0.000804469 0)
(0 0.000722346 0)
(0 0.000803135 0)
(0 0.000878251 0)
(0 0.000952266 0)
(0 0.000874235 0)
(0 0.000939168 0)
(0 0.001019 0)
(0 0.00104943 0)
(0 0.00107775 0)
(0 0.00103924 0)
(0 0.000993979 0)
(0 0.00104914 0)
(0 0.00108869 0)
(0 0.00111313 0)
(0 0.00107356 0)
(0 0.00113297 0)
(0 0.00117049 0)
(0 0.00118785 0)
(0 0.0011506 0)
(0 0.00118944 0)
(0 0.00122615 0)
(0 0.0012353 0)
(0 0.00120075 0)
(0 0.00122153 0)
(0 0.00125516 0)
(0 0.00125995 0)
(0 0.00122709 0)
(0 0.00123307 0)
(0 0.00126522 0)
(0 0.00126425 0)
(0 0.00123204 0)
(0 0.00122153 0)
(0 0.00125516 0)
(0 0.00125062 0)
(0 0.00121675 0)
(0 0.00118944 0)
(0 0.00122615 0)
(0 0.00121564 0)
(0 0.00117902 0)
(0 0.00113297 0)
(0 0.00117049 0)
(0 0.00115516 0)
(0 0.00111307 0)
(0 0.00104914 0)
(0 0.00108869 0)
(0 0.00106204 0)
(0 0.00102258 0)
(0 0.000939168 0)
(0 0.001019 0)
(0 0.000952266 0)
(0 0.000874235 0)
(0 0.000803135 0)
(0 0.000878251 0)
(0 0.000804469 0)
(0 0.000722346 0)
(0 0.000725976 0)
(0 0.000789832 0)
(0 0.000619709 0)
(0 0.000447351 0)
(0 0.000280869 0)
(0 0.000149707 0)
(0 5.5076e-05 0)
(0 5.83784e-06 0)
(0 0 0)
(0 0 0)
(0 0 0)
(0 0 0)
(0 0 0)
(0 0 0)
(0 0 0)
(0 0 0)
(0 0 0)
(0 0 0)
(0 0 0)
(0 0 0)
(0 0 0)
(0 0 0)
(0 1.67024e-05 0)
(0 8.45318e-05 0)
(0 0.000198612 0)
(0 0.000348987 0)
(0 0.000522768 0)
(0 0.00071391 0)
(0 0.000892301 0)
(0 0.000848286 0)
(0 0.000932234 0)
(0 0.000875101 0)
(0 0.000951376 0)
(0 0.00101009 0)
(0 0.0010804 0)
(0 0.00102085 0)
(0 0.0010824 0)
(0 0.00111428 0)
(0 0.0011417 0)
(0 0.00111424 0)
(0 0.00119171 0)
(0 0.0012049 0)
(0 0.00121555 0)
(0 0.00120248 0)
(0 0.00126155 0)
(0 0.0012721 0)
(0 0.00127895 0)
(0 0.00126861 0)
(0 0.00130289 0)
(0 0.00131057 0)
(0 0.00131406 0)
(0 0.00130632 0)
(0 0.001321 0)
(0 0.00132664 0)
(0 0.00132745 0)
(0 0.00132197 0)
(0 0.00132564 0)
(0 0.00133018 0)
(0 0.0013301 0)
(0 0.00132553 0)
(0 0.001321 0)
(0 0.00132664 0)
(0 0.00132553 0)
(0 0.00131968 0)
(0 0.00130289 0)
(0 0.00131057 0)
(0 0.00130765 0)
(0 0.00129876 0)
(0 0.00126155 0)
(0 0.0012721 0)
(0 0.00126614 0)
(0 0.00125386 0)
(0 0.00119171 0)
(0 0.0012049 0)
(0 0.00121697 0)
(0 0.00119401 0)
(0 0.00116832 0)
(0 0.0010824 0)
(0 0.00111428 0)
(0 0.00114197 0)
(0 0.0010804 0)
(0 0.00102085 0)
(0 0.000951376 0)
(0 0.00100778 0)
(0 0.000931633 0)
(0 0.000875101 0)
(0 0.000849301 0)
(0 0.000894945 0)
(0 0.000712115 0)
(0 0.000527976 0)
(0 0.000352647 0)
(0 0.000200913 0)
(0 8.5738e-05 0)
(0 1.71144e-05 0)
(0 0 0)
(0 0 0)
(0 0 0)
(0 0 0)
(0 0 0)
(0 0 0)
(0 0 0)
(0 0 0)
(0 0 0)
(0 0 0)
(0 0 0)
(0 0 0)
(0 0 0)
(0 0 0)
(0 2.57547e-05 0)
(0 0.000105012 0)
(0 0.000231091 0)
(0 0.000393345 0)
(0 0.000578108 0)
(0 0.000769858 0)
(0 0.000952541 0)
(0 0.000929907 0)
(0 0.00101319 0)
(0 0.000974526 0)
(0 0.00104992 0)
(0 0.00108906 0)
(0 0.00115604 0)
(0 0.00112369 0)
(0 0.00118466 0)
(0 0.00119972 0)
(0 0.00122596 0)
(0 0.00121125 0)
(0 0.00127443 0)
(0 0.00128139 0)
(0 0.00128924 0)
(0 0.0012825 0)
(0 0.00132285 0)
(0 0.00132621 0)
(0 0.00132902 0)
(0 0.00132605 0)
(0 0.00133445 0)
(0 0.00133445 0)
(0 0.00133445 0)
(0 0.00133445 0)
(0 0.00133445 0)
(0 0.00133445 0)
(0 0.00133445 0)
(0 0.00133445 0)
(0 0.00133445 0)
(0 0.00133445 0)
(0 0.00133445 0)
(0 0.00133445 0)
(0 0.00133445 0)
(0 0.00133445 0)
(0 0.00133445 0)
(0 0.00133445 0)
(0 0.00133445 0)
(0 0.00133445 0)
(0 0.00133445 0)
(0 0.00133445 0)
(0 0.00132285 0)
(0 0.00132621 0)
(0 0.00132251 0)
(0 0.00131901 0)
(0 0.00127443 0)
(0 0.00128139 0)
(0 0.00128733 0)
(0 0.00126918 0)
(0 0.00125618 0)
(0 0.00118397 0)
(0 0.00120147 0)
(0 0.00121483 0)
(0 0.00115444 0)
(0 0.00112469 0)
(0 0.00105591 0)
(0 0.00108771 0)
(0 0.00101211 0)
(0 0.000978834 0)
(0 0.000929117 0)
(0 0.000953015 0)
(0 0.000769541 0)
(0 0.00057719 0)
(0 0.000392083 0)
(0 0.000229775 0)
(0 0.000103923 0)
(0 2.51364e-05 0)
(0 0 0)
(0 0 0)
(0 0 0)
(0 0 0)
(0 0 0)
(0 0 0)
(0 0 0)
(0 0 0)
(0 0 0)
(0 0 0)
(0 0 0)
(0 0 0)
(0 0 0)
(0 0 0)
(0 2.73057e-05 0)
(0 0.000108369 0)
(0 0.000236382 0)
(0 0.00040059 0)
(0 0.000587194 0)
(0 0.000780516 0)
(0 0.000964314 0)
(0 0.000964653 0)
(0 0.00104802 0)
(0 0.00103567 0)
(0 0.00111098 0)
(0 0.00112335 0)
(0 0.00118904 0)
(0 0.00117694 0)
(0 0.00123436 0)
(0 0.00123991 0)
(0 0.00126293 0)
(0 0.00125793 0)
(0 0.0013099 0)
(0 0.00131204 0)
(0 0.00131772 0)
(0 0.00131574 0)
(0 0.00133445 0)
(0 0.00133445 0)
(0 0.00133445 0)
(0 0.00133445 0)
(0 0.00133445 0)
(0 0.00133445 0)
(0 0.00133445 0)
(0 0.00133445 0)
(0 0.00133445 0)
(0 0.00133445 0)
(0 0.00133445 0)
(0 0.00133445 0)
(0 0.00133445 0)
(0 0.00133445 0)
(0 0.00133445 0)
(0 0.00133445 0)
(0 0.00133445 0)
(0 0.00133439 0)
(0 0.0013342 0)
(0 0.0013099 0)
(0 0.00131204 0)
(0 0.00131345 0)
(0 0.0013001 0)
(0 0.0012954 0)
(0 0.00123429 0)
(0 0.00123999 0)
(0 0.00124373 0)
(0 0.00118904 0)
(0 0.00117865 0)
(0 0.0011123 0)
(0 0.00112052 0)
(0 0.00104477 0)
(0 0.00103657 0)
(0 0.000961054 0)
(0 0.000962158 0)
(0 0.000778116 0)
(0 0.000584757 0)
(0 0.000398326 0)
(0 0.000234489 0)
(0 0.000107011 0)
(0 2.66021e-05 0)
(0 0 0)
(0 0 0)
(0 0 0)
(0 0 0)
(0 0 0)
(0 0 0)
(0 0 0)
(0 0 0)
(0 0 0)
(0 0 0)
(0 0 0)
(0 0 0)
(0 0 0)
(0 0 0)
(0 2.23151e-05 0)
(0 9.75261e-05 0)
(0 0.000219411 0)
(0 0.000377573 0)
(0 0.000558622 0)
(0 0.000747335 0)
(0 0.000928001 0)
(0 0.000954076 0)
(0 0.00103731 0)
(0 0.00104775 0)
(0 0.00112315 0)
(0 0.00111269 0)
(0 0.0011787 0)
(0 0.00118892 0)
(0 0.00124368 0)
(0 0.00124075 0)
(0 0.00126376 0)
(0 0.00126655 0)
(0 0.00131579 0)
(0 0.00131509 0)
(0 0.00132042 0)
(0 0.00132105 0)
(0 0.00133445 0)
(0 0.00133445 0)
(0 0.00133445 0)
(0 0.00133445 0)
(0 0.00133445 0)
(0 0.00133445 0)
(0 0.00133445 0)
(0 0.00133445 0)
(0 0.00133445 0)
(0 0.00133445 0)
(0 0.00133445 0)
(0 0.00133445 0)
(0 0.00133445 0)
(0 0.00133445 0)
(0 0.00133445 0)
(0 0.00133445 0)
(0 0.00131579 0)
(0 0.00131452 0)
(0 0.00131383 0)
(0 0.00130052 0)
(0 0.00130203 0)
(0 0.00124252 0)
(0 0.00124065 0)
(0 0.00123499 0)
(0 0.00117951 0)
(0 0.00118746 0)
(0 0.00112142 0)
(0 0.00111328 0)
(0 0.00103766 0)
(0 0.00104579 0)
(0 0.000954192 0)
(0 0.00093036 0)
(0 0.000749068 0)
(0 0.000559754 0)
(0 0.000378196 0)
(0 0.000219659 0)
(0 9.75503e-05 0)
(0 2.22664e-05 0)
(0 0 0)
(0 0 0)
(0 0 0)
(0 0 0)
(0 0 0)
(0 0 0)
(0 0 0)
(0 0 0)
(0 0 0)
(0 0 0)
(0 0 0)
(0 0 0)
(0 0 0)
(0 0 0)
(0 1.12866e-05 0)
(0 7.08935e-05 0)
(0 0.000176333 0)
(0 0.000318137 0)
(0 0.000494613 0)
(0 0.00067507 0)
(0 0.000851091 0)
(0 0.00089777 0)
(0 0.000981213 0)
(0 0.00101063 0)
(0 0.0010908 0)
(0 0.00105778 0)
(0 0.00112602 0)
(0 0.00115882 0)
(0 0.00121658 0)
(0 0.00120274 0)
(0 0.00122784 0)
(0 0.00124128 0)
(0 0.00129766 0)
(0 0.00129372 0)
(0 0.00130088 0)
(0 0.00130508 0)
(0 0.00133283 0)
(0 0.00133147 0)
(0 0.0013331 0)
(0 0.00133395 0)
(0 0.00133445 0)
(0 0.00133445 0)
(0 0.00133445 0)
(0 0.00133445 0)
(0 0.00133445 0)
(0 0.00133445 0)
(0 0.00133445 0)
(0 0.00133445 0)
(0 0.00133283 0)
(0 0.00133126 0)
(0 0.0013291 0)
(0 0.00133103 0)
(0 0.00129766 0)
(0 0.00129372 0)
(0 0.00128836 0)
(0 0.00127139 0)
(0 0.00128187 0)
(0 0.00121658 0)
(0 0.00120274 0)
(0 0.00118702 0)
(0 0.00112602 0)
(0 0.00115882 0)
(0 0.00108877 0)
(0 0.00105778 0)
(0 0.000981213 0)
(0 0.00101328 0)
(0 0.00089777 0)
(0 0.000851091 0)
(0 0.00067507 0)
(0 0.000488239 0)
(0 0.000321264 0)
(0 0.000178384 0)
(0 7.20161e-05 0)
(0 1.1666e-05 0)
(0 0 0)
(0 0 0)
(0 0 0)
(0 0 0)
(0 0 0)
(0 0 0)
(0 0 0)
(0 0 0)
(0 0 0)
(0 0 0)
(0 0 0)
(0 0 0)
(0 0 0)
(0 0 0)
(0 1.39656e-06 0)
(0 4.14564e-05 0)
(0 0.000126239 0)
(0 0.000248239 0)
(0 0.000396299 0)
(0 0.000557429 0)
(0 0.00072651 0)
(0 0.00079062 0)
(0 0.000876592 0)
(0 0.000932964 0)
(0 0.0010126 0)
(0 0.000951859 0)
(0 0.00102724 0)
(0 0.00108186 0)
(0 0.00114549 0)
(0 0.00111998 0)
(0 0.00114808 0)
(0 0.00117338 0)
(0 0.00124168 0)
(0 0.00123031 0)
(0 0.00124065 0)
(0 0.00125009 0)
(0 0.00130203 0)
(0 0.00129456 0)
(0 0.00130001 0)
(0 0.0013072 0)
(0 0.00132902 0)
(0 0.00132484 0)
(0 0.00132668 0)
(0 0.00133049 0)
(0 0.00133445 0)
(0 0.00133371 0)
(0 0.001334 0)
(0 0.00133445 0)
(0 0.00133445 0)
(0 0.00133445 0)
(0 0.00133445 0)
(0 0.00133445 0)
(0 0.00133445 0)
(0 0.00133445 0)
(0 0.00133371 0)
(0 0.0013333 0)
(0 0.0013344 0)
(0 0.00133444 0)
(0 0.00132902 0)
(0 0.00132484 0)
(0 0.00132257 0)
(0 0.00132712 0)
(0 0.00130203 0)
(0 0.00129456 0)
(0 0.00128848 0)
(0 0.00129623 0)
(0 0.00124259 0)
(0 0.00123216 0)
(0 0.00121963 0)
(0 0.0011989 0)
(0 0.00122143 0)
(0 0.00114235 0)
(0 0.00111868 0)
(0 0.00109103 0)
(0 0.00102583 0)
(0 0.00108186 0)
(0 0.0010126 0)
(0 0.000951859 0)
(0 0.000876592 0)
(0 0.000932964 0)
(0 0.00079062 0)
(0 0.00072651 0)
(0 0.000557429 0)
(0 0.000396299 0)
(0 0.000248239 0)
(0 0.000126239 0)
(0 3.86706e-05 0)
(0 1.67752e-06 0)
(0 0 0)
(0 0 0)
(0 0 0)
(0 0 0)
(0 0 0)
(0 0 0)
(0 0 0)
(0 0 0)
(0 0 0)
(0 0 0)
(0 0 0)
(0 0 0)
(0 0 0)
(0 0 0)
(0 0 0)
(0 1.27425e-05 0)
(0 6.71483e-05 0)
(0 0.000157985 0)
(0 0.000275777 0)
(0 0.000422952 0)
(0 0.000575121 0)
(0 0.000646905 0)
(0 0.000731612 0)
(0 0.000804047 0)
(0 0.000882576 0)
(0 0.000807869 0)
(0 0.000879168 0)
(0 0.000956386 0)
(0 0.00102322 0)
(0 0.000944256 0)
(0 0.000998745 0)
(0 0.00104399 0)
(0 0.00108202 0)
(0 0.00105367 0)
(0 0.00113259 0)
(0 0.00109305 0)
(0 0.00111749 0)
(0 0.00115495 0)
(0 0.00121092 0)
(0 0.00117703 0)
(0 0.00119058 0)
(0 0.00122572 0)
(0 0.00126053 0)
(0 0.00123049 0)
(0 0.00123931 0)
(0 0.00126885 0)
(0 0.00128625 0)
(0 0.00125853 0)
(0 0.00126342 0)
(0 0.00128966 0)
(0 0.00129422 0)
(0 0.00126862 0)
(0 0.0012673 0)
(0 0.00129318 0)
(0 0.00128625 0)
(0 0.00125853 0)
(0 0.00125159 0)
(0 0.00128091 0)
(0 0.00126053 0)
(0 0.00123049 0)
(0 0.00121946 0)
(0 0.00125003 0)
(0 0.00121092 0)
(0 0.00117703 0)
(0 0.0011595 0)
(0 0.00119377 0)
(0 0.00113259 0)
(0 0.00109305 0)
(0 0.0010701 0)
(0 0.00110816 0)
(0 0.00102322 0)
(0 0.000944256 0)
(0 0.000879168 0)
(0 0.000956386 0)
(0 0.000882576 0)
(0 0.000807869 0)
(0 0.000731612 0)
(0 0.000804047 0)
(0 0.000646905 0)
(0 0.000575121 0)
(0 0.000422952 0)
(0 0.000275777 0)
(0 0.000157985 0)
(0 6.71483e-05 0)
(0 1.27425e-05 0)
(0 0 0)
(0 0 0)
(0 0 0)
(0 0 0)
(0 0 0)
(0 0 0)
(0 0 0)
(0 0 0)
(0 0 0)
(0 0 0)
(0 0 0)
(0 0 0)
(0 0 0)
(0 0 0)
(0 0 0)
(0 0 0)
(0 0 0)
(0 1.92024e-05 0)
(0 7.92915e-05 0)
(0 0.000169979 0)
(0 0.000282448 0)
(0 0.000405639 0)
(0 0.000527247 0)
(0 0.000621618 0)
(0 0.000721967 0)
(0 0.000649969 0)
(0 0.000689153 0)
(0 0.000789736 0)
(0 0.000849511 0)
(0 0.000752434 0)
(0 0.000810311 0)
(0 0.000910514 0)
(0 0.000964398 0)
(0 0.000914536 0)
(0 0.000933781 0)
(0 0.000988431 0)
(0 0.00104975 0)
(0 0.00100073 0)
(0 0.00101892 0)
(0 0.00106809 0)
(0 0.00110987 0)
(0 0.00106056 0)
(0 0.00106869 0)
(0 0.00111935 0)
(0 0.00114591 0)
(0 0.00109856 0)
(0 0.00110409 0)
(0 0.0011514 0)
(0 0.00115785 0)
(0 0.00111079 0)
(0 0.00110852 0)
(0 0.00115578 0)
(0 0.00114591 0)
(0 0.00109856 0)
(0 0.00109082 0)
(0 0.00113821 0)
(0 0.00110987 0)
(0 0.00106056 0)
(0 0.00104886 0)
(0 0.00109816 0)
(0 0.00104975 0)
(0 0.00100073 0)
(0 0.000980438 0)
(0 0.00102926 0)
(0 0.000964398 0)
(0 0.000914536 0)
(0 0.000856907 0)
(0 0.000810311 0)
(0 0.000910514 0)
(0 0.000849511 0)
(0 0.000752434 0)
(0 0.000689153 0)
(0 0.000789736 0)
(0 0.000721967 0)
(0 0.000621618 0)
(0 0.000527247 0)
(0 0.000405639 0)
(0 0.000649969 0)
(0 0.000282448 0)
(0 0.000169979 0)
(0 7.92915e-05 0)
(0 1.92024e-05 0)
(0 0 0)
(0 0 0)
(0 0 0)
(0 0 0)
(0 0 0)
(0 0 0)
(0 0 0)
(0 0 0)
(0 0 0)
(0 0 0)
(0 0 0)
(0 0 0)
(0 0 0)
(0 0 0)
(0 0 0)
(0 0 0)
(0 0 0)
(0 0 0)
(0 2.43511e-07 0)
(0 2.18146e-05 0)
(0 7.39225e-05 0)
(0 0.000144862 0)
(0 0.000237107 0)
(0 0.000335487 0)
(0 0.000430606 0)
(0 0.000486134 0)
(0 0.000589203 0)
(0 0.000647637 0)
(0 0.000532941 0)
(0 0.000585751 0)
(0 0.000695786 0)
(0 0.000748578 0)
(0 0.000691849 0)
(0 0.00071507 0)
(0 0.000772719 0)
(0 0.000834949 0)
(0 0.000775087 0)
(0 0.000791604 0)
(0 0.000852032 0)
(0 0.000890738 0)
(0 0.000830794 0)
(0 0.00084414 0)
(0 0.000904472 0)
(0 0.00093325 0)
(0 0.00087215 0)
(0 0.000877379 0)
(0 0.000938615 0)
(0 0.000945682 0)
(0 0.000884451 0)
(0 0.000881573 0)
(0 0.000942915 0)
(0 0.00093325 0)
(0 0.00087215 0)
(0 0.000864851 0)
(0 0.000925758 0)
(0 0.000890738 0)
(0 0.000830794 0)
(0 0.000815513 0)
(0 0.000880336 0)
(0 0.000834949 0)
(0 0.000775087 0)
(0 0.000756775 0)
(0 0.000815988 0)
(0 0.000748578 0)
(0 0.000691849 0)
(0 0.000634094 0)
(0 0.000585751 0)
(0 0.000695786 0)
(0 0.000647637 0)
(0 0.000532941 0)
(0 0.000486134 0)
(0 0.000589203 0)
(0 0.000430606 0)
(0 0.000335487 0)
(0 0.000237107 0)
(0 0.000144862 0)
(0 7.39225e-05 0)
(0 2.18146e-05 0)
(0 2.43511e-07 0)
(0 0 0)
(0 0 0)
(0 0 0)
(0 0 0)
(0 0 0)
(0 0 0)
(0 0 0)
(0 0 0)
(0 0 0)
(0 0 0)
(0 0 0)
(0 0 0)
(0 0 0)
(0 0 0)
(0 0 0)
(0 0 0)
(0 0 0)
(0 0 0)
(0 0 0)
(0 0 0)
(0 1.14563e-05 0)
(0 4.7715e-05 0)
(0 9.66613e-05 0)
(0 0.000162759 0)
(0 0.000240664 0)
(0 0.000283783 0)
(0 0.000378139 0)
(0 0.000427659 0)
(0 0.000326038 0)
(0 0.000366367 0)
(0 0.000474515 0)
(0 0.000517681 0)
(0 0.00046014 0)
(0 0.000478797 0)
(0 0.000537592 0)
(0 0.000589434 0)
(0 0.000527496 0)
(0 0.000536383 0)
(0 0.000597442 0)
(0 0.000642521 0)
(0 0.00057895 0)
(0 0.000590084 0)
(0 0.000654291 0)
(0 0.000679094 0)
(0 0.000613577 0)
(0 0.000617982 0)
(0 0.00068374 0)
(0 0.00069051 0)
(0 0.000624554 0)
(0 0.000621519 0)
(0 0.00068747 0)
(0 0.000679094 0)
(0 0.000613577 0)
(0 0.000607439 0)
(0 0.000672617 0)
(0 0.000642521 0)
(0 0.00057895 0)
(0 0.000566245 0)
(0 0.000629081 0)
(0 0.000589434 0)
(0 0.000527496 0)
(0 0.000512564 0)
(0 0.000573558 0)
(0 0.000517681 0)
(0 0.00046014 0)
(0 0.000403791 0)
(0 0.000366367 0)
(0 0.000474515 0)
(0 0.000427659 0)
(0 0.000326038 0)
(0 0.000283783 0)
(0 0.000378139 0)
(0 0.000240664 0)
(0 0.000162759 0)
(0 9.66613e-05 0)
(0 4.7715e-05 0)
(0 1.14563e-05 0)
(0 0 0)
(0 0 0)
(0 0 0)
(0 0 0)
(0 0 0)
(0 0 0)
(0 0 0)
(0 0 0)
(0 0 0)
(0 0 0)
(0 0 0)
(0 0 0)
(0 0 0)
(0 0 0)
(0 0 0)
(0 0 0)
(0 0 0)
(0 0 0)
(0 0 0)
(0 0 0)
(0 0 0)
(0 0 0)
(0 0 0)
(0 9.75592e-07 0)
(0 1.65484e-05 0)
(0 4.61841e-05 0)
(0 9.68843e-05 0)
(0 0.000123261 0)
(0 0.000197582 0)
(0 0.000232193 0)
(0 0.000150045 0)
(0 0.000176329 0)
(0 0.000265602 0)
(0 0.000296893 0)
(0 0.000247415 0)
(0 0.000260577 0)
(0 0.000311479 0)
(0 0.000346613 0)
(0 0.000293349 0)
(0 0.000305698 0)
(0 0.000360182 0)
(0 0.000394376 0)
(0 0.000336903 0)
(0 0.000345135 0)
(0 0.000403374 0)
(0 0.000422432 0)
(0 0.000362595 0)
(0 0.000365883 0)
(0 0.000426016 0)
(0 0.00043174 0)
(0 0.000371248 0)
(0 0.000368525 0)
(0 0.000428897 0)
(0 0.000422432 0)
(0 0.000362595 0)
(0 0.000358021 0)
(0 0.000417443 0)
(0 0.000394376 0)
(0 0.000336903 0)
(0 0.000327546 0)
(0 0.000384136 0)
(0 0.000346613 0)
(0 0.000293349 0)
(0 0.000280156 0)
(0 0.00033209 0)
(0 0.000296893 0)
(0 0.000247415 0)
(0 0.000201267 0)
(0 0.000176329 0)
(0 0.000265602 0)
(0 0.000232193 0)
(0 0.000150045 0)
(0 0.000123261 0)
(0 0.000197582 0)
(0 9.68843e-05 0)
(0 4.61841e-05 0)
(0 1.65484e-05 0)
(0 9.75592e-07 0)
(0 0 0)
(0 0 0)
(0 0 0)
(0 0 0)
(0 0 0)
(0 0 0)
(0 0 0)
(0 0 0)
(0 0 0)
(0 0 0)
(0 0 0)
(0 0 0)
(0 0 0)
(0 0 0)
(0 0 0)
(0 0 0)
(0 0 0)
(0 0 0)
(0 0 0)
(0 0 0)
(0 0 0)
(0 0 0)
(0 0 0)
(0 0 0)
(0 0 0)
(0 0 0)
(0 1.76846e-07 0)
(0 1.32863e-05 0)
(0 2.31424e-05 0)
(0 6.41715e-05 0)
(0 8.31428e-05 0)
(0 3.4508e-05 0)
(0 4.66623e-05 0)
(0 0.000102282 0)
(0 0.000120821 0)
(0 8.31685e-05 0)
(0 9.16825e-05 0)
(0 0.000125387 0)
(0 0.000153953 0)
(0 0.000115863 0)
(0 0.000123203 0)
(0 0.000162547 0)
(0 0.000184524 0)
(0 0.000142088 0)
(0 0.000147145 0)
(0 0.000190379 0)
(0 0.000202873 0)
(0 0.000157968 0)
(0 0.00016002 0)
(0 0.000205237 0)
(0 0.000209347 0)
(0 0.000163664 0)
(0 0.000161673 0)
(0 0.000207139 0)
(0 0.000202873 0)
(0 0.000157968 0)
(0 0.000155121 0)
(0 0.000199591 0)
(0 0.000184524 0)
(0 0.000142088 0)
(0 0.000136377 0)
(0 0.000177896 0)
(0 0.000153953 0)
(0 0.000115863 0)
(0 0.000108112 0)
(0 0.000144842 0)
(0 0.000120821 0)
(0 8.31685e-05 0)
(0 5.59273e-05 0)
(0 4.66623e-05 0)
(0 0.000102282 0)
(0 8.31428e-05 0)
(0 3.4508e-05 0)
(0 2.31424e-05 0)
(0 6.41715e-05 0)
(0 1.32863e-05 0)
(0 1.76846e-07 0)
(0 0 0)
(0 0 0)
(0 0 0)
(0 0 0)
(0 0 0)
(0 0 0)
(0 0 0)
(0 0 0)
(0 0 0)
(0 0 0)
(0 0 0)
(0 0 0)
(0 0 0)
(0 0 0)
(0 0 0)
(0 0 0)
(0 0 0)
(0 0 0)
(0 0 0)
(0 0 0)
(0 0 0)
(0 0 0)
(0 0 0)
(0 0 0)
(0 0 0)
(0 0 0)
(0 0 0)
(0 0 0)
(0 0 0)
(0 0 0)
(0 0 0)
(0 6.49486e-06 0)
(0 2.34912e-06 0)
(0 0 0)
(0 1.02131e-05 0)
(0 1.70624e-05 0)
(0 5.22362e-07 0)
(0 2.28322e-06 0)
(0 2.45882e-05 0)
(0 3.22141e-05 0)
(0 4.81447e-06 0)
(0 7.66603e-06 0)
(0 3.94199e-05 0)
(0 4.57534e-05 0)
(0 1.04449e-05 0)
(0 1.2825e-05 0)
(0 5.08413e-05 0)
(0 5.4396e-05 0)
(0 1.45546e-05 0)
(0 1.54628e-05 0)
(0 5.62229e-05 0)
(0 5.76846e-05 0)
(0 1.62387e-05 0)
(0 1.54628e-05 0)
(0 5.62229e-05 0)
(0 5.4396e-05 0)
(0 1.45546e-05 0)
(0 1.2825e-05 0)
(0 5.08413e-05 0)
(0 4.57534e-05 0)
(0 1.04449e-05 0)
(0 7.66603e-06 0)
(0 3.94199e-05 0)
(0 3.22141e-05 0)
(0 4.81447e-06 0)
(0 2.28322e-06 0)
(0 2.45882e-05 0)
(0 1.70624e-05 0)
(0 5.22362e-07 0)
(0 0 0)
(0 1.02131e-05 0)
(0 6.49486e-06 0)
(0 0 0)
(0 0 0)
(0 0 0)
(0 2.34912e-06 0)
(0 0 0)
(0 0 0)
(0 0 0)
(0 0 0)
(0 0 0)
(0 0 0)
(0 0 0)
(0 0 0)
(0 0 0)
(0 0 0)
(0 0 0)
(0 0 0)
(0 0 0)
(0 0 0)
(0 0 0)
(0 0 0)
(0 0 0)
(0 0 0)
(0 0 0)
(0 0 0)
(0 0 0)
(0 0 0)
(0 0 0)
(0 0 0)
(0 0 0)
(0 0 0)
(0 0 0)
(0 0 0)
(0 0 0)
(0 0 0)
(0 0 0)
(0 0 0)
(0 0 0)
(0 0 0)
(0 0 0)
(0 0 0)
(0 0 0)
(0 0 0)
(0 0 0)
(0 0 0)
(0 4.69442e-08 0)
(0 0 0)
(0 0 0)
(0 1.80657e-07 0)
(0 1.07488e-07 0)
(0 0 0)
(0 4.69442e-08 0)
(0 1.07488e-07 0)
(0 0 0)
(0 0 0)
(0 0 0)
(0 0 0)
(0 0 0)
(0 0 0)
(0 0 0)
(0 0 0)
(0 0 0)
(0 0 0)
(0 0 0)
(0 0 0)
(0 0 0)
(0 0 0)
(0 0 0)
(0 0 0)
(0 0 0)
(0 0 0)
(0 0 0)
(0 0 0)
(0 0 0)
(0 0 0)
(0 0 0)
(0 0 0)
(0 0 0)
(0 0 0)
(0 0 0)
(0 0 0)
(0 0 0)
(0 0 0)
(0 0 0)
(0 0 0)
(0 0 0)
(0 0 0)
(0 0 0)
(0 0 0)
(0 0 0)
(0 0 0)
(0 0 0)
(0 0 0)
(0 0 0)
(0 0 0)
(0 0 0)
(0 0 0)
(0 0 0)
(0 0 0)
(0 0 0)
(0 0 0)
(0 0 0)
(0 0 0)
(0 0 0)
(0 0 0)
(0 0 0)
(0 0 0)
(0 0 0)
(0 0 0)
(0 0 0)
(0 0 0)
(0 0 0)
(0 0 0)
(0 0 0)
(0 0 0)
(0 0 0)
(0 0 0)
(0 0 0)
(0 0 0)
(0 0 0)
(0 0 0)
(0 0 0)
(0 0 0)
(0 0 0)
(0 0 0)
(0 0 0)
(0 0 0)
(0 0 0)
(0 0 0)
(0 0 0)
(0 0 0)
(0 0 0)
(0 0 0)
(0 0 0)
(0 0 0)
(0 0 0)
(0 0 0)
(0 0 0)
(0 0 0)
(0 0 0)
(0 0 0)
(0 0 0)
(0 0 0)
(0 0 0)
(0 0 0)
(0 0 0)
(0 0 0)
(0 0 0)
(0 0 0)
(0 0 0)
(0 0 0)
(0 0 0)
(0 0 0)
(0 0 0)
(0 0 0)
(0 0 0)
(0 0 0)
(0 0 0)
(0 0 0)
(0 0 0)
(0 0 0)
(0 0 0)
(0 0 0)
(0 0 0)
(0 0 0)
(0 0 0)
(0 0 0)
(0 0 0)
(0 0 0)
(0 0 0)
(0 0 0)
(0 0 0)
(0 0 0)
(0 0 0)
(0 0 0)
(0 0 0)
(0 0 0)
(0 0 0)
(0 0 0)
(0 0 0)
(0 0 0)
(0 0 0)
(0 0 0)
(0 0 0)
(0 0 0)
(0 0 0)
(0 0 0)
(0 0 0)
(0 0 0)
(0 0 0)
(0 0 0)
(0 0 0)
(0 0 0)
(0 0 0)
(0 0 0)
(0 0 0)
(0 0 0)
(0 0 0)
(0 0 0)
(0 0 0)
(0 0 0)
(0 0 0)
(0 0 0)
(0 0 0)
(0 0 0)
(0 0 0)
(0 0 0)
(0 0 0)
(0 0 0)
(0 0 0)
(0 0 0)
(0 0 0)
(0 0 0)
(0 0 0)
(0 0 0)
(0 0 0)
(0 0 0)
(0 0 0)
(0 0 0)
(0 0 0)
(0 0 0)
(0 0 0)
(0 0 0)
(0 0 0)
(0 0 0)
(0 0 0)
(0 0 0)
(0 0 0)
(0 0 0)
(0 0 0)
(0 0 0)
(0 0 0)
(0 0 0)
(0 0 0)
(0 0 0)
(0 0 0)
(0 0 0)
(0 0 0)
(0 0 0)
(0 0 0)
(0 0 0)
(0 0 0)
(0 0 0)
(0 0 0)
(0 0 0)
(0 0 0)
(0 0 0)
(0 0 0)
(0 0 0)
(0 0 0)
(0 0 0)
(0 0 0)
(0 0 0)
(0 0 0)
(0 0 0)
(0 0 0)
(0 0 0)
(0 0 0)
(0 0 0)
(0 0 0)
(0 0 0)
(0 0 0)
(0 0 0)
(0 0 0)
(0 0 0)
(0 0 0)
(0 0 0)
(0 0 0)
(0 0 0)
(0 0 0)
(0 0 0)
(0 0 0)
(0 0 0)
(0 0 0)
(0 0 0)
(0 0 0)
(0 0 0)
(0 0 0)
(0 0 0)
(0 0 0)
(0 0 0)
(0 0 0)
(0 0 0)
(0 0 0)
(0 0 0)
(0 0 0)
(0 0 0)
(0 0 0)
(0 0 0)
(0 0 0)
(0 0 0)
(0 0 0)
(0 0 0)
(0 0 0)
(0 0 0)
(0 0 0)
(0 0 0)
(0 0 0)
(0 0 0)
(0 0 0)
(0 0 0)
(0 0 0)
(0 0 0)
(0 0 0)
(0 0 0)
(0 0 0)
(0 0 0)
(0 0 0)
(0 0 0)
(0 0 0)
(0 0 0)
(0 0 0)
(0 0 0)
(0 0 0)
(0 0 0)
(0 0 0)
(0 0 0)
(0 0 0)
(0 0 0)
(0 0 0)
(0 0 0)
(0 0 0)
(0 0 0)
(0 0 0)
(0 0 0)
(0 0 0)
(0 0 0)
(0 0 0)
(0 0 0)
(0 0 0)
(0 0 0)
(0 0 0)
(0 0 0)
(0 0 0)
(0 0 0)
(0 0 0)
(0 0 0)
(0 0 0)
(0 0 0)
(0 0 0)
(0 0 0)
(0 0 0)
(0 0 0)
(0 0 0)
(0 0 0)
(0 0 0)
(0 0 0)
(0 0 0)
(0 0 0)
(0 0 0)
(0 0 0)
(0 0 0)
(0 0 0)
(0 0 0)
(0 0 0)
(0 0 0)
(0 0 0)
(0 0 0)
(0 0 0)
(0 0 0)
(0 0 0)
(0 0 0)
(0 0 0)
(0 0 0)
(0 0 0)
(0 0 0)
(0 0 0)
(0 0 0)
(0 0 0)
(0 0 0)
(0 0 0)
(0 0 0)
(0 0 0)
(0 0 0)
(0 0 0)
(0 0 0)
(0 0 0)
(0 0 0)
(0 0 0)
(0 0 0)
(0 0 0)
(0 0 0)
(0 0 0)
(0 0 0)
(0 0 0)
(0 0 0)
(0 0 0)
(0 0 0)
(0 0 0)
(0 0 0)
(0 0 0)
(0 0 0)
(0 0 0)
(0 0 0)
(0 0 0)
(0 0 0)
(0 0 0)
(0 0 0)
(0 0 0)
(0 0 0)
(0 0 0)
(0 0 0)
(0 0 0)
(0 0 0)
(0 0 0)
(0 0 0)
(0 0 0)
(0 0 0)
(0 0 0)
(0 0 0)
(0 0 0)
(0 0 0)
(0 0 0)
(0 0 0)
(0 0 0)
(0 0 0)
(0 0 0)
(0 0 0)
(0 0 0)
(0 0 0)
(0 0 0)
(0 0 0)
(0 0 0)
(0 0 0)
(0 0 0)
(0 0 0)
(0 0 0)
(0 0 0)
(0 0 0)
(0 0 0)
(0 0 0)
(0 0 0)
(0 0 0)
(0 0 0)
(0 0 0)
(0 0 0)
(0 0 0)
(0 0 0)
(0 0 0)
(0 0 0)
(0 0 0)
(0 0 0)
(0 0 0)
(0 0 0)
(0 0 0)
(0 0 0)
(0 0 0)
(0 0 0)
(0 0 0)
(0 0 0)
(0 0 0)
(0 0 0)
(0 0 0)
(0 0 0)
(0 0 0)
(0 0 0)
(0 0 0)
(0 0 0)
(0 0 0)
(0 0 0)
(0 0 0)
(0 0 0)
(0 0 0)
(0 0 0)
(0 0 0)
(0 0 0)
(0 0 0)
(0 0 0)
(0 0 0)
(0 0 0)
(0 0 0)
(0 0 0)
(0 0 0)
(0 0 0)
(0 0 0)
(0 0 0)
(0 0 0)
(0 0 0)
(0 0 0)
(0 0 0)
(0 0 0)
(0 0 0)
(0 0 0)
(0 0 0)
(0 0 0)
(0 0 0)
(0 0 0)
(0 0 0)
(0 0 0)
(0 0 0)
(0 0 0)
(0 0 0)
(0 0 0)
(0 0 0)
(0 0 0)
(0 0 0)
(0 0 0)
(0 0 0)
(0 0 0)
(0 0 0)
(0 0 0)
(0 0 0)
(0 0 0)
(0 0 0)
(0 0 0)
(0 0 0)
(0 0 0)
(0 0 0)
(0 0 0)
(0 0 0)
(0 0 0)
(0 0 0)
(0 0 0)
(0 0 0)
(0 0 0)
(0 0 0)
(0 0 0)
(0 0 0)
(0 0 0)
(0 0 0)
(0 0 0)
(0 0 0)
(0 0 0)
(0 0 0)
(0 0 0)
(0 0 0)
(0 0 0)
(0 0 0)
(0 0 0)
(0 0 0)
(0 0 0)
(0 0 0)
(0 0 0)
(0 0 0)
(0 0 0)
(0 0 0)
(0 0 0)
(0 0 0)
(0 0 0)
(0 0 0)
(0 0 0)
(0 0 0)
(0 0 0)
(0 0 0)
(0 0 0)
(0 0 0)
(0 0 0)
(0 0 0)
(0 0 0)
(0 0 0)
(0 0 0)
(0 0 0)
(0 0 0)
(0 0 0)
(0 0 0)
(0 0 0)
(0 0 0)
(0 0 0)
(0 0 0)
(0 0 0)
(0 0 0)
(0 0 0)
(0 0 0)
(0 0 0)
(0 0 0)
(0 0 0)
(0 0 0)
(0 0 0)
(0 0 0)
(0 0 0)
(0 0 0)
(0 0 0)
(0 0 0)
(0 0 0)
(0 0 0)
(0 0 0)
(0 0 0)
(0 0 0)
(0 0 0)
(0 0 0)
(0 0 0)
(0 0 0)
(0 0 0)
(0 0 0)
(0 0 0)
(0 0 0)
(0 0 0)
(0 0 0)
(0 0 0)
(0 0 0)
(0 0 0)
(0 0 0)
(0 0 0)
(0 0 0)
(0 0 0)
(0 0 0)
(0 0 0)
(0 0 0)
(0 0 0)
(0 0 0)
(0 0 0)
(0 0 0)
(0 0 0)
(0 0 0)
(0 0 0)
(0 0 0)
(0 0 0)
(0 0 0)
(0 0 0)
(0 0 0)
(0 0 0)
(0 0 0)
(0 0 0)
(0 0 0)
(0 0 0)
(0 0 0)
(0 0 0)
(0 0 0)
(0 0 0)
(0 0 0)
(0 0 0)
(0 0 0)
(0 0 0)
(0 0 0)
(0 0 0)
(0 0 0)
(0 0 0)
(0 0 0)
(0 0 0)
(0 0 0)
(0 0 0)
(0 0 0)
(0 0 0)
(0 0 0)
(0 0 0)
(0 0 0)
(0 0 0)
(0 0 0)
(0 0 0)
(0 0 0)
(0 0 0)
(0 0 0)
(0 0 0)
(0 0 0)
(0 0 0)
(0 0 0)
(0 0 0)
(0 0 0)
(0 0 0)
(0 0 0)
(0 0 0)
(0 0 0)
(0 0 0)
(0 0 0)
(0 0 0)
(0 0 0)
(0 0 0)
(0 0 0)
(0 0 0)
(0 0 0)
(0 0 0)
(0 0 0)
(0 0 0)
(0 0 0)
(0 0 0)
(0 0 0)
(0 0 0)
(0 0 0)
(0 0 0)
(0 0 0)
(0 0 0)
(0 0 0)
(0 0 0)
(0 0 0)
(0 0 0)
(0 0 0)
(0 0 0)
(0 0 0)
(0 0 0)
(0 0 0)
(0 0 0)
(0 0 0)
(0 0 0)
(0 0 0)
(0 0 0)
(0 0 0)
(0 0 0)
(0 0 0)
(0 0 0)
(0 0 0)
(0 0 0)
(0 0 0)
(0 0 0)
(0 0 0)
(0 0 0)
(0 0 0)
(0 0 0)
(0 0 0)
(0 0 0)
(0 0 0)
(0 0 0)
(0 0 0)
(0 0 0)
(0 0 0)
(0 0 0)
(0 0 0)
(0 0 0)
(0 0 0)
(0 0 0)
(0 0 0)
(0 0 0)
(0 0 0)
(0 0 0)
(0 0 0)
(0 0 0)
(0 0 0)
(0 0 0)
(0 0 0)
(0 0 0)
(0 0 0)
(0 0 0)
(0 0 0)
(0 0 0)
(0 0 0)
(0 0 0)
(0 0 0)
(0 0 0)
(0 0 0)
(0 0 0)
(0 0 0)
(0 0 0)
(0 0 0)
(0 0 0)
(0 0 0)
(0 0 0)
(0 0 0)
(0 0 0)
(0 0 0)
(0 0 0)
(0 0 0)
(0 0 0)
(0 0 0)
(0 0 0)
(0 0 0)
(0 0 0)
(0 0 0)
(0 0 0)
(0 0 0)
(0 0 0)
(0 0 0)
(0 0 0)
(0 0 0)
(0 0 0)
(0 0 0)
(0 0 0)
(0 0 0)
(0 0 0)
(0 0 0)
(0 0 0)
(0 0 0)
(0 0 0)
(0 0 0)
(0 0 0)
(0 0 0)
(0 0 0)
(0 0 0)
(0 0 0)
(0 0 0)
(0 0 0)
(0 0 0)
(0 0 0)
(0 0 0)
(0 0 0)
(0 0 0)
(0 0 0)
(0 0 0)
(0 0 0)
(0 0 0)
(0 0 0)
(0 0 0)
(0 0 0)
(0 0 0)
(0 0 0)
(0 0 0)
(0 0 0)
(0 0 0)
(0 0 0)
(0 0 0)
(0 0 0)
(0 0 0)
(0 0 0)
(0 0 0)
(0 0 0)
(0 0 0)
(0 0 0)
(0 0 0)
(0 0 0)
(0 0 0)
(0 0 0)
(0 0 0)
(0 0 0)
(0 0 0)
(0 0 0)
(0 0 0)
(0 0 0)
(0 0 0)
(0 0 0)
(0 0 0)
(0 0 0)
(0 0 0)
(0 0 0)
(0 0 0)
(0 0 0)
(0 0 0)
(0 0 0)
(0 0 0)
(0 0 0)
(0 0 0)
(0 0 0)
(0 0 0)
(0 0 0)
(0 0 0)
(0 0 0)
(0 0 0)
(0 0 0)
(0 0 0)
(0 0 0)