/*--------------------------------*- C++ -*----------------------------------*\
| =========                 |                                                 |
| \\      /  F ield         | OpenFOAM: The Open Source CFD Toolbox           |
|  \\    /   O peration     | Version:  v2106                                 |
|   \\  /    A nd           | Website:  www.openfoam.com                      |
|    \\/     M anipulation  |                                                 |
\*---------------------------------------------------------------------------*/
FoamFile
{
    version     2.0;
    format      ascii;
    arch        "LSB;label=32;scalar=64";
    class       volVectorField;
    location    "0";
    object      U;
}
// * * * * * * * * * * * * * * * * * * * * * * * * * * * * * * * * * * * * * //

dimensions      [0 1 -1 0 0 0 0];

internalField   nonuniform List<vector> 
11644
(
(0.994419 -0.000213569 9.0588e-24)
(0.994315 -0.000557852 2.49815e-23)
(0.994253 -0.00081307 1.34032e-23)
(0.994236 -0.00106985 0)
(0.994229 -0.00133211 0)
(0.994225 -0.00159137 0)
(0.994224 -0.00184364 0)
(0.994223 -0.00207585 0)
(0.994222 -0.00227483 0)
(0.994215 -0.00242643 0)
(0.994209 -0.00251121 0)
(0.994194 -0.00251197 0)
(0.994231 -0.00240462 0)
(0.994351 -0.00220804 0)
(0.994186 -0.00181496 0)
(0.994118 -0.00138788 0)
(0.993847 -0.000773838 0)
(0.993592 0.000253083 0)
(0.993712 0.00148764 0)
(0.994065 0.00251437 3.4127e-30)
(0.994295 0.00319281 -3.41699e-30)
(0.994251 0.00367712 0)
(0.994142 0.00411324 0)
(0.994201 0.00451831 0)
(0.994242 0.00477755 0)
(0.994269 0.00487184 0)
(0.994403 0.00482495 0)
(0.994219 0.00467419 0)
(0.994186 0.00442144 0)
(0.994218 0.00408085 0)
(0.994229 0.00369855 0)
(0.994229 0.00328925 0)
(0.994234 0.00286904 0)
(0.994236 0.00245441 0)
(0.994239 0.00205331 0)
(0.994241 0.00167237 0)
(0.994244 0.00131591 0)
(0.994264 0.000984494 0)
(0.994337 0.000661427 0)
(0.994453 0.000247649 1.75641e-24)
(0.995151 -0.000438435 1.1636e-23)
(0.995069 -0.0013179 1.07786e-23)
(0.995007 -0.00218886 5.78886e-24)
(0.994985 -0.003038 0)
(0.994978 -0.00387184 0)
(0.994966 -0.00469223 0)
(0.994938 -0.00548194 0)
(0.994885 -0.00621627 0)
(0.994797 -0.00686153 0)
(0.994667 -0.00737334 0)
(0.994499 -0.00769362 0)
(0.994259 -0.00776324 0)
(0.993868 -0.00750787 0)
(0.993299 -0.00683106 0)
(0.993091 -0.00576615 0)
(0.992577 -0.00417434 3.45567e-25)
(0.992012 -0.00217207 1.22152e-23)
(0.99146 9.06301e-05 5.03361e-23)
(0.991148 0.00273577 -4.15223e-23)
(0.991317 0.0057088 2.09596e-22)
(0.991855 0.00859339 -3.12277e-22)
(0.992465 0.0109433 1.21381e-22)
(0.99289 0.0125908 -2.83535e-23)
(0.993141 0.0136878 -1.19996e-23)
(0.99369 0.0144366 1.67241e-24)
(0.994251 0.0147133 0)
(0.994536 0.0145818 0)
(0.995098 0.0139634 0)
(0.995323 0.0130893 0)
(0.995414 0.0120225 0)
(0.995476 0.0108119 0)
(0.995474 0.00954711 0)
(0.995436 0.00827484 0)
(0.995378 0.00703011 0)
(0.995311 0.00583327 0)
(0.995247 0.00469346 0)
(0.995199 0.00360442 0)
(0.995186 0.0025489 0)
(0.995229 0.00150563 0)
(0.995298 0.00049543 0)
(0.996641 -0.000692429 0)
(0.996578 -0.00212077 0)
(0.99653 -0.00358843 0)
(0.996511 -0.00504849 0)
(0.996501 -0.00649689 1.06292e-23)
(0.996477 -0.00793172 0)
(0.996412 -0.00933396 0)
(0.996279 -0.0106716 0)
(0.996049 -0.0118917 0)
(0.995692 -0.012922 0)
(0.995123 -0.0136773 0)
(0.994381 -0.0140184 0)
(0.99355 -0.0138018 1.02304e-25)
(0.992635 -0.0129444 -1.27166e-23)
(0.990984 -0.0112137 1.1476e-23)
(0.989627 -0.00869042 1.90747e-22)
(0.988291 -0.00537899 -1.47138e-22)
(0.987046 -0.00154218 -1.00591e-22)
(0.98609 0.00284014 5.75799e-23)
(0.985883 0.00774198 2.60588e-22)
(0.986571 0.0127364 -7.81974e-23)
(0.98805 0.0173693 -4.20546e-22)
(0.989882 0.0210398 2.31731e-22)
(0.991695 0.0233898 -1.98105e-22)
(0.99306 0.0245065 2.03444e-22)
(0.994495 0.0248115 -1.76748e-23)
(0.996028 0.0243029 1.83113e-23)
(0.996732 0.0232632 1.75786e-25)
(0.997437 0.0216641 0)
(0.997851 0.0197253 0)
(0.997959 0.017651 0)
(0.997946 0.0154945 0)
(0.99782 0.0133644 0)
(0.997641 0.0112994 0)
(0.997443 0.00932649 0)
(0.997255 0.0074526 0)
(0.997096 0.0056714 0)
(0.996991 0.00396107 0)
(0.996948 0.00232238 0)
(0.996962 0.00075284 0)
(0.998931 -0.000982632 0)
(0.998878 -0.0029855 0)
(0.998855 -0.00502689 0)
(0.998859 -0.00710371 0)
(0.998868 -0.00920371 0)
(0.998848 -0.0113243 0)
(0.998759 -0.0134471 0)
(0.998552 -0.0155364 0)
(0.998166 -0.0175297 0)
(0.99751 -0.0193435 0)
(0.996605 -0.0207996 9.94068e-25)
(0.995272 -0.0217297 1.39678e-23)
(0.993294 -0.0219481 -9.53101e-24)
(0.99043 -0.021207 1.25456e-22)
(0.988019 -0.0192085 -2.43091e-22)
(0.985 -0.0159071 1.26155e-22)
(0.982184 -0.0112902 -3.1981e-22)
(0.979622 -0.00550977 -9.98577e-23)
(0.97764 0.00131907 8.89547e-22)
(0.977139 0.00871479 -1.84858e-22)
(0.978192 0.0160705 -3.97785e-22)
(0.980671 0.0229584 5.45484e-22)
(0.984129 0.0288629 -8.11147e-22)
(0.988222 0.0329593 1.92621e-23)
(0.992096 0.035132 2.53689e-22)
(0.995222 0.0355265 1.72321e-22)
(0.997364 0.0347438 -3.74882e-23)
(0.999572 0.0326643 -6.25639e-23)
(1.00077 0.0300813 1.96126e-23)
(1.0014 0.0271428 -6.08312e-25)
(1.00167 0.0240308 0)
(1.00157 0.0209627 0)
(1.0013 0.0179611 0)
(1.00092 0.0151064 0)
(1.00052 0.0124139 0)
(1.00014 0.00988575 0)
(0.999814 0.0075068 0)
(0.999575 0.00525133 0)
(0.99944 0.00308097 0)
(0.999403 0.00102156 0)
(1.00201 -0.00128528 0)
(1.00198 -0.0038649 0)
(1.002 -0.00652689 0)
(1.00206 -0.00923109 0)
(1.00214 -0.0120155 0)
(1.00218 -0.0148857 0)
(1.00214 -0.0178386 0)
(1.00192 -0.0208467 0)
(1.00143 -0.0238605 0)
(1.0006 -0.0267385 1.31746e-24)
(0.999093 -0.0293239 3.47378e-22)
(0.996662 -0.0313861 -2.19096e-22)
(0.993538 -0.0325187 -2.46955e-22)
(0.990085 -0.0323691 -2.39646e-22)
(0.984729 -0.030841 -6.3015e-22)
(0.97935 -0.0272006 9.58156e-23)
(0.974229 -0.0215767 1.30228e-21)
(0.96941 -0.0139029 -2.75303e-21)
(0.965553 -0.00404537 5.214e-21)
(0.964005 0.00726529 -1.46665e-21)
(0.965463 0.0190199 1.76666e-21)
(0.969838 0.0297941 -5.34361e-21)
(0.976153 0.0384107 2.42016e-21)
(0.984189 0.0442011 -9.59743e-22)
(0.990714 0.0469886 1.59072e-24)
(0.996405 0.0474966 1.75291e-22)
(1.0015 0.0455705 4.37474e-22)
(1.00388 0.0426311 -1.83148e-22)
(1.00568 0.0385999 5.43941e-22)
(1.00644 0.0342397 -2.65984e-22)
(1.00656 0.0299339 1.1183e-24)
(1.00634 0.0257982 0)
(1.0058 0.0219393 0)
(1.00513 0.0183327 0)
(1.00444 0.0149893 0)
(1.0038 0.0118883 0)
(1.00326 0.00899616 0)
(1.00285 0.00628529 0)
(1.00258 0.00370934 0)
(1.00248 0.0012034 0)
(1.00586 -0.00154145 0)
(1.00587 -0.00471816 0)
(1.00599 -0.00794302 0)
(1.00618 -0.0112936 0)
(1.00641 -0.0148024 0)
(1.00662 -0.018498 0)
(1.00674 -0.0223965 0)
(1.00666 -0.0265028 0)
(1.00625 -0.0307432 1.37538e-23)
(1.00515 -0.0350064 1.621e-22)
(1.00302 -0.0390931 -2.82393e-22)
(0.999997 -0.0426625 2.82669e-22)
(0.995772 -0.0456419 3.83047e-22)
(0.988962 -0.0479526 -2.22931e-21)
(0.982435 -0.0472531 1.86588e-21)
(0.973869 -0.0441436 -2.64798e-22)
(0.963904 -0.0384472 -1.56293e-22)
(0.954401 -0.028287 -8.17656e-22)
(0.947076 -0.0136246 2.07324e-21)
(0.943749 0.00348805 -3.87944e-21)
(0.945698 0.021119 3.4165e-21)
(0.952444 0.0374543 -2.48166e-21)
(0.963144 0.0509069 2.00278e-21)
(0.975906 0.058726 -2.85693e-22)
(0.988327 0.0615832 4.11055e-22)
(0.998807 0.0617417 -1.52018e-21)
(1.00546 0.0591132 1.78135e-21)
(1.01073 0.0530596 -1.58438e-22)
(1.01294 0.0470974 -4.00051e-22)
(1.01346 0.0410065 -2.42309e-23)
(1.01301 0.0352191 1.01685e-22)
(1.01222 0.0299664 1.56755e-24)
(1.01126 0.0252217 0)
(1.01016 0.0209343 0)
(1.00907 0.0170386 0)
(1.00809 0.0134838 0)
(1.00726 0.0102148 0)
(1.00663 0.00715039 0)
(1.00622 0.00423257 0)
(1.00605 0.0014247 0)
(1.0104 -0.00183507 0)
(1.0105 -0.00549887 0)
(1.01077 -0.0092696 0)
(1.01118 -0.0132261 0)
(1.01169 -0.0174178 0)
(1.01223 -0.0219357 0)
(1.01272 -0.0268373 0)
(1.01303 -0.0321448 4.31553e-24)
(1.01273 -0.0377614 -1.4906e-22)
(1.01148 -0.0435897 2.30947e-22)
(1.00928 -0.0495394 -1.30578e-22)
(1.00578 -0.0557033 5.14513e-22)
(1.00074 -0.061754 -4.04322e-22)
(0.994957 -0.0664306 8.37178e-22)
(0.983177 -0.0704773 -9.93024e-22)
(0.969024 -0.0699923 -2.8839e-22)
(0.95908 -0.0573986 1.71931e-21)
(0.944344 -0.0471721 7.2636e-22)
(0.931155 -0.0289558 9.9904e-22)
(0.923239 -0.00489861 2.92623e-21)
(0.924187 0.0213739 3.90844e-21)
(0.933269 0.0447967 -1.42714e-21)
(0.948133 0.0622133 7.23419e-22)
(0.965185 0.0717969 1.76576e-21)
(0.988601 0.0837712 -4.73378e-22)
(1.00364 0.0809335 4.06526e-22)
(1.01563 0.0724133 -4.58098e-22)
(1.01993 0.0652419 8.81664e-24)
(1.02251 0.0559634 2.33961e-22)
(1.02271 0.0474454 -2.17892e-22)
(1.02133 0.0398636 3.21488e-23)
(1.01945 0.0333029 -4.66835e-23)
(1.01758 0.0276805 -8.53066e-25)
(1.01588 0.0228146 0)
(1.01427 0.0184867 0)
(1.01285 0.0145786 0)
(1.01168 0.0110039 0)
(1.01079 0.00768219 0)
(1.01021 0.00452313 0)
(1.00996 0.00145181 0)
(1.01554 -0.00201358 0)
(1.01576 -0.00605691 0)
(1.01625 -0.0103249 0)
(1.01699 -0.0147611 0)
(1.01794 -0.019573 0)
(1.01903 -0.0248395 0)
(1.02017 -0.0306876 0)
(1.02105 -0.037126 -4.49145e-24)
(1.02097 -0.0440881 6.44576e-23)
(1.02019 -0.0515479 2.52108e-22)
(1.01863 -0.0597596 -2.85583e-22)
(1.0159 -0.0688252 1.31555e-22)
(1.01113 -0.0784731 -5.66994e-22)
(1.0008 -0.0839164 1.05489e-22)
(0.991124 -0.0891965 -9.12319e-22)
(0.97398 -0.0952059 -5.56254e-23)
(0.949944 -0.0943084 8.16921e-22)
(0.924219 -0.0829833 -2.63367e-21)
(0.897688 -0.0591431 1.5475e-21)
(0.879156 -0.0210868 -7.44448e-22)
(0.878222 0.0243425 1.55659e-21)
(0.895536 0.0650531 -2.89556e-21)
(0.925208 0.0918166 -1.23126e-21)
(0.956661 0.103647 -2.42708e-21)
(0.985704 0.105384 -7.02359e-22)
(1.00734 0.0977033 -1.15041e-22)
(1.02047 0.0876376 -1.86762e-22)
(1.03444 0.0750703 -1.11262e-22)
(1.03545 0.0636744 1.82581e-22)
(1.03432 0.0529392 -2.1271e-22)
(1.03152 0.0435219 5.46474e-23)
(1.02814 0.0355969 -1.32757e-22)
(1.02479 0.0291171 2.27e-23)
(1.0221 0.0237659 0)
(1.01985 0.0191654 0)
(1.01792 0.0150768 0)
(1.01635 0.0113644 0)
(1.01518 0.00794871 0)
(1.01441 0.00471544 0)
(1.01406 0.00161779 0)
(1.02108 -0.00205544 0)
(1.02145 -0.00641721 0)
(1.02223 -0.0108041 0)
(1.02342 -0.0156022 0)
(1.02498 -0.0208469 0)
(1.02686 -0.0266929 0)
(1.02894 -0.0332748 1.32932e-23)
(1.03049 -0.0406169 -1.65752e-23)
(1.03113 -0.0486558 -8.37438e-23)
(1.03159 -0.057752 9.68471e-24)
(1.03158 -0.0685629 1.2824e-23)
(1.03062 -0.0812992 1.85944e-22)
(1.02744 -0.0967471 1.95739e-23)
(1.01536 -0.108453 -8.55818e-22)
(1.00375 -0.120881 7.6232e-23)
(0.984206 -0.136287 1.00367e-22)
(0.954541 -0.139255 3.89554e-23)
(0.909799 -0.135821 1.49117e-21)
(0.859515 -0.110132 2.40672e-21)
(0.81617 -0.0528521 3.1279e-22)
(0.806166 0.0269344 -3.3253e-22)
(0.836869 0.0976505 -1.53363e-21)
(0.890493 0.13799 -4.42389e-22)
(0.948546 0.149992 -5.53576e-22)
(0.990578 0.141192 -1.29718e-22)
(1.02469 0.125742 3.09898e-22)
(1.03923 0.105606 -9.16447e-22)
(1.05321 0.0863578 2.68301e-23)
(1.05188 0.0690072 -2.00294e-23)
(1.04829 0.0560675 -4.21125e-23)
(1.04333 0.0453903 -9.71389e-24)
(1.03801 0.0365559 1.13096e-24)
(1.03281 0.0294215 1.38454e-23)
(1.02865 0.0237658 6.3188e-24)
(1.0256 0.0190924 0)
(1.02309 0.014992 0)
(1.02109 0.0112981 0)
(1.01961 0.00787522 0)
(1.01864 0.00463595 0)
(1.01821 0.00146968 0)
(1.02676 -0.0022086 0)
(1.02731 -0.00642091 0)
(1.02847 -0.0109667 0)
(1.03022 -0.015812 0)
(1.03254 -0.0211322 0)
(1.03541 -0.0271695 0)
(1.03857 -0.0340728 2.10255e-24)
(1.04101 -0.0418209 -4.7125e-23)
(1.04308 -0.0506191 6.44124e-23)
(1.0457 -0.0611647 1.32258e-22)
(1.04846 -0.0740501 -4.01666e-23)
(1.05088 -0.0902838 -2.50323e-22)
(1.05232 -0.111502 2.14136e-22)
(1.04273 -0.129601 -4.45006e-22)
(1.03427 -0.151787 -7.94293e-23)
(1.00997 -0.178948 5.07229e-22)
(0.974399 -0.201561 -4.0442e-23)
(0.911535 -0.22483 -1.2658e-22)
(0.812138 -0.218404 3.24224e-22)
(0.696679 -0.136672 -5.54517e-22)
(0.649754 0.0293534 8.38473e-22)
(0.725629 0.18445 -1.42146e-22)
(0.855649 0.24533 -6.29002e-22)
(0.958512 0.232207 6.08132e-23)
(1.0256 0.195256 -5.51802e-24)
(1.06292 0.155038 -6.66437e-22)
(1.07139 0.117778 -2.56227e-23)
(1.07843 0.088706 -5.61499e-24)
(1.07139 0.0691029 -7.4614e-23)
(1.064 0.0553472 1.18372e-23)
(1.05612 0.044389 7.71117e-23)
(1.04845 0.0354503 1.75465e-23)
(1.04127 0.0282721 -1.12324e-23)
(1.0353 0.0226569 -3.27343e-24)
(1.03125 0.0181584 0)
(1.02813 0.0142535 0)
(1.0257 0.0107461 0)
(1.02392 0.0074935 0)
(1.02277 0.00445954 0)
(1.02223 0.00149092 0)
(1.03225 -0.00190459 0)
(1.033 -0.00598111 0)
(1.03456 -0.0102226 0)
(1.0369 -0.0147587 0)
(1.04008 -0.0198821 0)
(1.04409 -0.0257519 0)
(1.04839 -0.0324736 -5.66476e-24)
(1.05205 -0.040061 -6.52353e-24)
(1.05634 -0.0491092 3.38186e-23)
(1.06203 -0.0604539 5.75849e-23)
(1.06878 -0.0745 -1.05646e-22)
(1.07613 -0.0918744 1.70733e-23)
(1.08433 -0.114256 -8.51835e-24)
(1.08178 -0.140057 1.02587e-22)
(1.08145 -0.1722 7.17124e-24)
(1.07103 -0.215231 -1.33949e-22)
(1.04464 -0.270984 -1.13701e-22)
(0.985122 -0.3586 4.82236e-23)
(0.823604 -0.457138 -1.77365e-21)
(0.46218 -0.432146 -5.61034e-20)
(0.187146 0.0505547 -1.71426e-20)
(0.515819 0.505814 -2.72966e-20)
(0.892867 0.490016 1.02776e-21)
(1.05959 0.3531 -5.08968e-23)
(1.11386 0.242038 -4.23373e-23)
(1.12599 0.161487 2.61257e-25)
(1.11536 0.119179 2.79267e-22)
(1.10637 0.0777548 1.1719e-22)
(1.09238 0.0615439 -1.13876e-22)
(1.07989 0.0490949 2.09966e-23)
(1.06857 0.0394233 -4.6948e-23)
(1.05849 0.0317541 3.45641e-23)
(1.04944 0.0254774 -1.87376e-23)
(1.04172 0.0204213 9.33876e-24)
(1.03652 0.0164088 0)
(1.03285 0.0129778 0)
(1.03004 0.00985022 0)
(1.02799 0.0069626 0)
(1.02665 0.00410948 0)
(1.02603 0.00144608 0)
(1.03731 -0.00178885 0)
(1.03826 -0.00525532 0)
(1.04018 -0.00883179 0)
(1.04314 -0.0127802 0)
(1.04718 -0.017232 0)
(1.05233 -0.0223786 0)
(1.05773 -0.0282853 -6.19891e-24)
(1.06301 -0.0351304 -4.99431e-24)
(1.07 -0.0436039 -4.92795e-24)
(1.07924 -0.0544685 -1.12383e-23)
(1.09072 -0.0682357 4.64662e-24)
(1.104 -0.0850713 2.43978e-23)
(1.1192 -0.10508 -4.25109e-24)
(1.12487 -0.134387 5.28696e-24)
(1.13966 -0.166795 -9.69438e-23)
(1.14988 -0.21536 2.45658e-23)
(1.1648 -0.284458 -1.007e-22)
(1.19414 -0.408561 8.1785e-22)
(0.860826 -0.453368 -7.14094e-20)
(1.15983 0.611919 3.54399e-20)
(1.31235 0.372859 2.70492e-23)
(1.24733 0.213813 -4.53844e-23)
(1.20034 0.127225 9.42486e-23)
(1.1619 0.0918973 -3.77241e-23)
(1.13294 0.0543276 8.19594e-23)
(1.11067 0.0441545 -3.14478e-24)
(1.09297 0.0363619 -4.06461e-23)
(1.0787 0.0303274 5.08417e-25)
(1.06677 0.0254031 -2.41359e-23)
(1.05636 0.0210391 -9.97435e-24)
(1.04736 0.0172029 -5.23289e-24)
(1.04115 0.0140008 0)
(1.037 0.0111774 0)
(1.03385 0.00849593 0)
(1.03159 0.00594684 0)
(1.03016 0.00354935 0)
(1.02949 0.00102551 0)
(1.04129 -0.00117109 0)
(1.04254 -0.00390939 0)
(1.04491 -0.00672019 0)
(1.04846 -0.00977553 0)
(1.05323 -0.013142 0)
(1.05936 -0.0170389 0)
(1.06585 -0.0215599 1.29934e-25)
(1.07298 -0.0270421 4.10217e-24)
(1.08281 -0.0341217 -1.16826e-23)
(1.09554 -0.0432528 -9.68129e-24)
(1.11145 -0.0548654 4.99599e-23)
(1.13023 -0.0690269 8.33147e-24)
(1.15202 -0.0853306 -4.54623e-23)
(1.16349 -0.11173 -6.25703e-23)
(1.19132 -0.136115 2.0547e-22)
(1.21711 -0.172934 -5.0339e-23)
(1.26181 -0.21536 -1.99618e-23)
(1.32231 -0.252335 1.54492e-21)
(0.00722591 0.0228934 2.86209e-19)
(0.0824196 0.0103497 -2.32208e-19)
(1.49348 0.158646 -4.85286e-22)
(1.34247 0.0974907 -7.88684e-24)
(1.25066 0.0524038 3.77269e-22)
(1.19435 0.0395053 7.66792e-22)
(1.14604 0.0193245 3.69128e-23)
(1.11968 0.0197129 1.14685e-22)
(1.09975 0.0190137 -1.8156e-23)
(1.08443 0.0182224 -4.07607e-23)
(1.07184 0.0170767 1.54448e-23)
(1.06105 0.0154124 2.70088e-23)
(1.05161 0.0133217 2.86695e-24)
(1.04489 0.0112207 0)
(1.0405 0.00917052 0)
(1.03718 0.00712106 0)
(1.03478 0.00505814 0)
(1.03324 0.00307639 0)
(1.03249 0.00111198 0)
(1.04468 -0.00103122 -1.37476e-25)
(1.04586 -0.00245136 0)
(1.0484 -0.0040993 0)
(1.05224 -0.00586532 0)
(1.05751 -0.00780797 0)
(1.06432 -0.0100324 0)
(1.07197 -0.0127295 -3.44654e-24)
(1.08105 -0.0163105 -6.79333e-24)
(1.09347 -0.0212472 3.19909e-23)
(1.10915 -0.027628 5.99593e-23)
(1.12826 -0.0355871 -6.85623e-23)
(1.15097 -0.0454211 -2.12624e-22)
(1.17694 -0.0564494 5.69123e-24)
(1.19361 -0.0783462 1.20628e-22)
(1.22538 -0.0948536 2.94178e-22)
(1.25324 -0.11856 -9.90029e-23)
(1.29479 -0.135494 1.1523e-21)
(1.14781 -0.0985267 -5.37025e-23)
(-0.000506033 0.0207088 -1.09612e-21)
(0.358036 -0.021099 1.60491e-20)
(1.46323 -0.057196 1.29501e-23)
(1.35048 -0.0413224 -1.40099e-21)
(1.25267 -0.0364725 5.7364e-22)
(1.19604 -0.0223719 -8.00133e-23)
(1.14264 -0.0187796 -8.83648e-23)
(1.11743 -0.00635109 -2.55876e-22)
(1.09847 0.00090836 7.65906e-23)
(1.08404 0.0057135 3.05182e-23)
(1.07259 0.00838694 -1.01865e-22)
(1.06292 0.00951401 1.52725e-24)
(1.05412 0.00939079 1.85511e-24)
(1.04756 0.00840064 0)
(1.04322 0.0071213 0)
(1.03992 0.00569565 0)
(1.03751 0.00419833 0)
(1.03588 0.00250598 0)
(1.0351 0.000928698 0)
(1.04666 8.07966e-05 3.71405e-26)
(1.04793 -0.000439657 0)
(1.05034 -0.000945603 0)
(1.0542 -0.00136449 0)
(1.05967 -0.00172969 0)
(1.06687 -0.00201207 0)
(1.07565 -0.00250516 4.36664e-24)
(1.08626 -0.00374604 -1.55733e-24)
(1.10049 -0.00584485 4.48876e-24)
(1.11801 -0.00866551 2.20127e-23)
(1.13891 -0.012109 -2.99264e-23)
(1.16412 -0.0167483 -2.07934e-22)
(1.19216 -0.022283 1.89004e-22)
(1.21263 -0.0400546 -7.96641e-22)
(1.24599 -0.0525388 -1.28423e-21)
(1.27281 -0.0719832 5.4717e-22)
(1.29832 -0.0841685 -3.01519e-22)
(0.947221 -0.0369749 -4.6049e-22)
(-0.0229364 0.00608069 -6.32471e-22)
(-0.212493 0.0729612 -2.7842e-21)
(-0.128238 0.280992 -3.45938e-23)
(0.253723 0.181322 1.39468e-21)
(0.815773 -0.145449 -1.68255e-21)
(1.40877 -0.226516 -1.39996e-21)
(1.29661 -0.165646 7.62035e-22)
(1.20886 -0.113519 1.76823e-23)
(1.16558 -0.0746516 -2.87617e-21)
(1.11933 -0.0467757 6.84851e-22)
(1.10211 -0.0270638 -6.46599e-22)
(1.08873 -0.0139387 1.52633e-22)
(1.07811 -0.00463497 -1.42952e-22)
(1.06929 0.00117319 7.06501e-23)
(1.0617 0.00457401 3.0044e-23)
(1.05475 0.00602305 -1.55226e-24)
(1.04919 0.00593841 0)
(1.04507 0.00513301 0)
(1.04187 0.0040897 0)
(1.03955 0.00294269 0)
(1.03806 0.00177233 0)
(1.03742 0.000408189 0)
(1.04634 0.000388044 -3.44589e-24)
(1.04771 0.00129888 0)
(1.05024 0.00227596 0)
(1.05404 0.00330549 0)
(1.05936 0.00456785 0)
(1.06646 0.00627033 0)
(1.07587 0.00820158 -2.60711e-25)
(1.08752 0.00964881 1.8812e-24)
(1.1023 0.010837 -3.06553e-23)
(1.12036 0.0121748 7.13639e-23)
(1.1418 0.013941 -4.17265e-24)
(1.16749 0.0153173 5.01379e-22)
(1.19726 0.017279 -5.67748e-22)
(1.22426 0.00419781 6.90696e-22)
(1.26228 -0.00367613 -1.67255e-22)
(1.30783 -0.0201797 1.46583e-21)
(1.32566 -0.0558259 -3.83575e-22)
(0.802944 -0.0914297 -1.64596e-20)
(0.0963104 -0.262557 -5.08496e-22)
(-0.354086 -0.354851 -7.13981e-21)
(-0.0870484 -0.410268 1.24493e-21)
(0.53371 -0.468254 8.38115e-22)
(1.11976 -0.573232 -2.49172e-21)
(1.23071 -0.398238 4.04044e-22)
(1.17748 -0.256076 2.71932e-21)
(1.12714 -0.158138 2.16301e-21)
(1.11157 -0.0994036 4.60908e-22)
(1.08273 -0.0569015 5.93012e-22)
(1.07754 -0.0335676 -1.10587e-21)
(1.072 -0.0194749 3.85366e-23)
(1.06725 -0.00952917 -6.00216e-23)
(1.06291 -0.00246821 1.83477e-24)
(1.05831 0.00181964 -2.63741e-23)
(1.054 0.00389276 6.13607e-27)
(1.05022 0.00424012 0)
(1.04661 0.00375993 0)
(1.04364 0.00305622 0)
(1.04141 0.00217519 0)
(1.03992 0.00134822 0)
(1.03914 0.000468452 4.79335e-23)
(1.04486 0.000790939 -1.25982e-23)
(1.046 0.00260097 0)
(1.04821 0.00475952 0)
(1.05163 0.00717039 0)
(1.0564 0.00999481 0)
(1.06283 0.0135048 0)
(1.07192 0.0177828 0)
(1.08396 0.0222998 3.43107e-24)
(1.09834 0.0271274 -1.33847e-23)
(1.1153 0.0329774 1.91651e-23)
(1.13567 0.0404482 -1.04889e-22)
(1.1602 0.0489971 1.02885e-22)
(1.19023 0.0609378 2.875e-22)
(1.22944 0.0719565 -3.61136e-22)
(1.26911 0.0621841 6.31532e-22)
(1.33267 0.0635628 1.51449e-21)
(1.3926 0.0261745 -1.02453e-21)
(1.04721 -0.0907506 7.63296e-21)
(0.414975 -0.371871 1.72266e-21)
(-0.0971485 -0.680821 2.17446e-21)
(0.0046986 -0.89546 -2.05583e-21)
(0.517831 -0.839994 2.98197e-21)
(0.857294 -0.615756 -6.90005e-21)
(0.95364 -0.407918 -1.24928e-20)
(0.998975 -0.237862 -4.56524e-22)
(1.02807 -0.145745 1.01688e-21)
(1.03211 -0.0713501 -7.5646e-23)
(1.04671 -0.0409279 1.65109e-22)
(1.05258 -0.0247448 -2.7907e-22)
(1.05517 -0.0141021 1.57468e-22)
(1.05592 -0.0067989 2.22294e-23)
(1.05511 -0.00191515 -9.51307e-24)
(1.05378 0.00136744 -2.37951e-23)
(1.05264 0.00313778 0)
(1.05054 0.00332186 0)
(1.04766 0.00294028 0)
(1.04506 0.00245232 0)
(1.04297 0.00185026 0)
(1.04148 0.00118734 0)
(1.04072 0.000614974 1.80957e-23)
(1.04204 0.00115066 -4.01358e-24)
(1.04295 0.0037167 0)
(1.04473 0.00659873 0)
(1.04746 0.0099267 0)
(1.05125 0.0139069 0)
(1.0564 0.0188167 0)
(1.0642 0.0249134 0)
(1.07526 0.0320602 0)
(1.08824 0.0404464 4.58109e-24)
(1.10269 0.0507321 -7.98338e-25)
(1.11975 0.0641214 -4.40138e-24)
(1.14074 0.080621 -2.05926e-22)
(1.16659 0.10324 3.93174e-22)
(1.20238 0.132888 -1.21628e-22)
(1.24801 0.141351 -2.74311e-22)
(1.31539 0.175513 -7.05202e-22)
(1.41237 0.194219 -1.22625e-22)
(1.33616 0.166406 -2.4859e-21)
(0.837835 -0.0817565 3.65924e-21)
(0.358776 -0.436772 9.76552e-21)
(0.142666 -0.698505 -6.90287e-22)
(0.238155 -0.680162 4.93282e-21)
(0.518756 -0.450408 1.12397e-21)
(0.754344 -0.251562 -2.40602e-20)
(0.872388 -0.135142 -3.48683e-22)
(0.943465 -0.0752792 -1.39116e-22)
(0.993668 -0.0120432 8.65205e-23)
(1.02232 -0.0074238 -3.4229e-22)
(1.03775 -0.00257453 3.65474e-23)
(1.04573 -0.000185133 6.77628e-23)
(1.04913 0.00137499 -1.23267e-23)
(1.05032 0.0024521 -5.55344e-24)
(1.05108 0.00320786 0)
(1.05165 0.00324376 0)
(1.05057 0.00276676 0)
(1.04806 0.00223856 0)
(1.04559 0.00177923 1.67788e-23)
(1.04366 0.00130775 2.32039e-23)
(1.04242 0.000767364 1.38367e-23)
(1.04176 0.000153641 0)
(1.03841 0.00138779 0)
(1.03895 0.00435055 0)
(1.04015 0.00765591 0)
(1.04202 0.0114539 0)
(1.04457 0.0160278 0)
(1.04811 0.0216479 0)
(1.05397 0.0286813 0)
(1.06287 0.0373179 0)
(1.07302 0.0481355 4.03046e-26)
(1.08351 0.0619313 5.0181e-24)
(1.095 0.0801196 -6.85782e-24)
(1.10862 0.103182 5.97868e-23)
(1.12487 0.133853 -1.72034e-22)
(1.14756 0.175392 5.99101e-22)
(1.18838 0.207295 1.51455e-21)
(1.23203 0.269726 -7.49122e-23)
(1.30094 0.342799 -2.70979e-21)
(1.37827 0.454202 -2.34011e-21)
(1.18724 0.434987 4.55849e-23)
(0.786131 0.250232 3.01546e-20)
(0.401054 0.0126631 -3.04351e-21)
(0.189247 -0.157862 4.04707e-21)
(0.278907 -0.195324 -1.05159e-21)
(0.568659 -0.10039 -6.11228e-22)
(0.804366 0.027913 8.21046e-22)
(0.905167 0.0411418 6.72755e-22)
(0.991164 0.0581075 2.86755e-23)
(1.02401 0.0344991 -3.94141e-23)
(1.04015 0.0248793 1.7658e-25)
(1.04731 0.0162517 -1.0781e-24)
(1.05 0.0108635 -4.49203e-24)
(1.05089 0.00738754 -6.47672e-26)
(1.05162 0.00515047 0)
(1.05231 0.00341493 0)
(1.05118 0.00216514 0)
(1.04855 0.00137779 0)
(1.04597 0.000841188 0)
(1.044 0.000429267 0)
(1.04267 0.000158966 0)
(1.04183 -5.73636e-05 -2.49202e-24)
(1.03436 0.00144077 0)
(1.03453 0.00446962 0)
(1.03508 0.00777906 0)
(1.036 0.011574 0)
(1.03726 0.0161461 0)
(1.03908 0.0217005 0)
(1.04269 0.0287288 0)
(1.04862 0.0377693 0)
(1.05472 0.049552 0)
(1.05982 0.0648456 0)
(1.06417 0.0850608 -2.66218e-24)
(1.06778 0.111143 1.62998e-23)
(1.07186 0.14466 3.09972e-23)
(1.07652 0.19046 2.40198e-23)
(1.10344 0.236307 5.16671e-21)
(1.119 0.304922 -4.32054e-22)
(1.13791 0.384365 4.27147e-21)
(1.16928 0.53649 1.51073e-21)
(1.13104 0.720129 -4.05198e-21)
(0.943767 0.791053 2.25649e-21)
(0.686311 0.701258 8.67123e-22)
(0.477794 0.488261 3.8453e-21)
(0.433523 0.249175 -1.41499e-21)
(0.494286 0.11433 -5.82539e-22)
(0.734453 0.182187 1.43261e-20)
(0.94097 0.162182 5.48386e-22)
(1.03657 0.110739 -1.97176e-22)
(1.05689 0.0689003 1.74398e-22)
(1.06196 0.0456219 -8.29915e-23)
(1.06116 0.0279164 -3.98287e-24)
(1.05882 0.0169247 0)
(1.05646 0.00983623 0)
(1.05521 0.00527588 0)
(1.05461 0.00231223 0)
(1.05249 0.000694831 0)
(1.04928 -0.000120086 0)
(1.04637 -0.000517957 0)
(1.04414 -0.000630328 0)
(1.04258 -0.000466181 0)
(1.04159 -0.000170989 0)
(1.03025 0.00136428 0)
(1.03014 0.00408646 0)
(1.03016 0.0069741 0)
(1.03027 0.0102223 0)
(1.03035 0.0140798 0)
(1.0305 0.0187384 0)
(1.0316 0.0247896 0)
(1.03391 0.0331252 0)
(1.03533 0.0444051 0)
(1.03464 0.0591158 0)
(1.03159 0.078332 0)
(1.0254 0.103403 1.22116e-24)
(1.01679 0.134829 1.15565e-23)
(1.00435 0.180704 1.53718e-23)
(1.01271 0.229516 1.98287e-21)
(1.01401 0.293354 -2.02272e-21)
(1.00109 0.373838 1.55704e-21)
(0.952101 0.46214 8.41551e-23)
(0.931293 0.571958 3.95589e-23)
(0.882358 0.668615 4.07189e-21)
(0.798388 0.703517 1.24851e-21)
(0.722022 0.654364 -3.34582e-22)
(0.677001 0.547546 -1.75595e-21)
(0.636157 0.426 -4.05983e-22)
(0.750566 0.305133 4.16625e-22)
(1.04367 0.222895 -2.70525e-21)
(1.11868 0.119739 -2.80874e-22)
(1.11141 0.0760978 1.07252e-23)
(1.09637 0.0473007 -2.38523e-24)
(1.08346 0.0276407 0)
(1.07321 0.0152541 0)
(1.06569 0.00712827 0)
(1.06095 0.00191452 0)
(1.05777 -0.0010539 0)
(1.05392 -0.00220358 0)
(1.04977 -0.00246173 0)
(1.04633 -0.00227734 0)
(1.04376 -0.0017842 0)
(1.04199 -0.00109173 0)
(1.04095 -0.000325113 0)
(1.02659 0.00104453 0)
(1.02644 0.00303411 0)
(1.02625 0.00509245 0)
(1.02588 0.00733028 0)
(1.02515 0.00991312 0)
(1.02391 0.0129938 0)
(1.02251 0.0170923 0)
(1.02108 0.0232931 0)
(1.01805 0.0321755 0)
(1.01223 0.0439351 0)
(1.00267 0.0593282 -2.79577e-23)
(0.988166 0.0796915 0)
(0.967854 0.105405 0)
(0.941393 0.142527 1.078e-21)
(0.907165 0.19118 -1.71407e-21)
(0.89956 0.261 3.2619e-21)
(0.891874 0.333172 -5.3388e-23)
(0.842228 0.40464 1.90007e-22)
(0.786703 0.493404 -4.99652e-22)
(0.750025 0.594538 7.77259e-21)
(0.731012 0.67128 5.51469e-22)
(0.745499 0.689002 -1.23563e-21)
(0.781639 0.649966 -1.36029e-22)
(0.837455 0.530781 2.88483e-22)
(0.965651 0.334169 -6.43055e-23)
(1.23947 0.142066 -9.85048e-22)
(1.20418 0.0715754 -8.04561e-22)
(1.16338 0.0460651 0)
(1.12885 0.0244025 0)
(1.10476 0.0114891 1.20789e-22)
(1.08708 0.00298432 0)
(1.07462 -0.00256827 0)
(1.06618 -0.00581904 0)
(1.05999 -0.00699391 0)
(1.05426 -0.00660157 0)
(1.0492 -0.00566287 0)
(1.0453 -0.00450722 0)
(1.04249 -0.00322627 -2.76149e-24)
(1.04066 -0.00190015 -1.98112e-24)
(1.03972 -0.000593314 0)
(1.02442 0.00043081 0)
(1.02432 0.00144429 0)
(1.02407 0.00242425 0)
(1.0235 0.00342725 0)
(1.02237 0.00446206 0)
(1.02037 0.00557154 0)
(1.01724 0.00703664 0)
(1.01293 0.00974328 0)
(1.00659 0.0141942 0)
(0.997093 0.0203757 0)
(0.982833 0.0287272 -8.51494e-23)
(0.961733 0.0401641 0)
(0.932334 0.0559118 0)
(0.896242 0.080083 7.32022e-22)
(0.839896 0.111546 4.25421e-22)
(0.761183 0.168065 -1.86021e-21)
(0.691381 0.260267 0)
(0.621908 0.351309 2.47712e-22)
(0.591136 0.421436 5.42295e-21)
(0.631596 0.455674 7.51305e-22)
(0.744483 0.439026 1.5136e-21)
(0.887224 0.40622 1.90674e-20)
(1.03591 0.289464 -2.0373e-21)
(1.17722 0.161302 0)
(1.30665 0.0412746 -1.4098e-22)
(1.3226 -0.0115168 -1.3847e-20)
(1.2474 -0.017097 7.85217e-22)
(1.18611 -0.0147399 0)
(1.1438 -0.0175827 0)
(1.1145 -0.0173686 8.34842e-22)
(1.09332 -0.0178217 0)
(1.07822 -0.0176221 0)
(1.06736 -0.0165978 0)
(1.05906 -0.0145386 0)
(1.05225 -0.0118655 0)
(1.04689 -0.00931899 4.99591e-24)
(1.04291 -0.00697525 -6.49211e-24)
(1.04012 -0.00483349 0)
(1.03835 -0.00283243 0)
(1.03753 -0.000942406 -1.52562e-23)
(1.02397 -5.16125e-05 0)
(1.02381 -2.03356e-05 0)
(1.02358 -0.000145393 0)
(1.0231 -0.000422465 0)
(1.02216 -0.00101126 0)
(1.02026 -0.00199387 0)
(1.01669 -0.0033676 -2.45653e-24)
(1.01126 -0.00475533 0)
(1.00362 -0.00600376 0)
(0.992785 -0.00740259 0)
(0.976562 -0.0093186 0)
(0.951869 -0.011945 0)
(0.914746 -0.0137466 0)
(0.865176 -0.00967012 4.06983e-21)
(0.784894 0.00379694 -6.78779e-23)
(0.686692 0.0288495 -3.5881e-22)
(0.61619 0.0372493 0)
(0.58428 0.026291 0)
(0.593018 -0.000893656 1.76934e-21)
(0.672593 -0.0408115 3.38574e-20)
(0.822099 -0.090711 1.02727e-19)
(0.989903 -0.105783 -1.6e-20)
(1.15156 -0.168296 0)
(1.27506 -0.196989 0)
(1.34039 -0.203409 0)
(1.30627 -0.157656 2.99746e-24)
(1.22424 -0.110138 3.3977e-22)
(1.16977 -0.0810627 -2.98749e-23)
(1.13409 -0.0626704 0)
(1.10756 -0.04899 0)
(1.08809 -0.0401357 0)
(1.07356 -0.0332103 0)
(1.06247 -0.0273095 2.19236e-23)
(1.05385 -0.0218539 8.98431e-24)
(1.04732 -0.0169034 4.52619e-25)
(1.04255 -0.0127358 0)
(1.03911 -0.00920967 0)
(1.03671 -0.00620442 0)
(1.03519 -0.00357632 0)
(1.03442 -0.00111514 0)
(1.02448 -0.000222572 0)
(1.02447 -0.000945711 0)
(1.02453 -0.00194707 0)
(1.02456 -0.00332466 0)
(1.0244 -0.00531035 0)
(1.02346 -0.00812347 0)
(1.02084 -0.0120014 0)
(1.01638 -0.0170915 0)
(1.01031 -0.0239053 -7.975e-24)
(1.0019 -0.0333257 0)
(0.988838 -0.04673 0)
(0.967322 -0.0661058 0)
(0.927246 -0.0896043 -3.20864e-21)
(0.862155 -0.115279 -1.46909e-20)
(0.787398 -0.128017 0)
(0.721443 -0.159736 0)
(0.692433 -0.232128 0)
(0.677921 -0.306625 0)
(0.686673 -0.381323 6.4679e-21)
(0.748061 -0.439344 8.93002e-21)
(0.879165 -0.481687 -4.47116e-20)
(1.01651 -0.474782 1.78622e-20)
(1.1392 -0.465641 0)
(1.21795 -0.407457 0)
(1.23766 -0.329785 0)
(1.19874 -0.239187 0)
(1.15254 -0.170955 1.38355e-21)
(1.12387 -0.126833 3.9005e-22)
(1.10306 -0.0948976 0)
(1.08577 -0.072348 -6.28293e-25)
(1.0723 -0.0562812 4.83245e-25)
(1.06133 -0.0442064 2.60843e-24)
(1.05227 -0.0347031 0)
(1.04503 -0.0269175 0)
(1.03988 -0.0204254 0)
(1.03642 -0.0151396 0)
(1.03401 -0.010797 0)
(1.03238 -0.00714749 0)
(1.0314 -0.00404956 0)
(1.03097 -0.00122003 0)
(1.02542 -0.000372659 0)
(1.02591 -0.00143828 0)
(1.02658 -0.00286688 0)
(1.02746 -0.0048244 0)
(1.0285 -0.00757189 0)
(1.02922 -0.0114474 0)
(1.02871 -0.0168928 0)
(1.02711 -0.0244013 0)
(1.02551 -0.0349721 0)
(1.02389 -0.0501238 0)
(1.02049 -0.0719015 1.27709e-23)
(1.01086 -0.103814 -4.68998e-22)
(0.977923 -0.146483 -6.95837e-21)
(0.911652 -0.200213 2.26387e-22)
(0.84972 -0.251631 0)
(0.821969 -0.31982 0)
(0.80822 -0.40172 0)
(0.785341 -0.467283 0)
(0.781918 -0.525943 1.9528e-20)
(0.804694 -0.565904 -3.04026e-20)
(0.879936 -0.58068 2.20361e-21)
(0.96368 -0.554042 -1.8098e-20)
(1.03865 -0.503821 0)
(1.07935 -0.421472 0)
(1.09172 -0.329532 0)
(1.07774 -0.246769 0)
(1.07007 -0.186534 -1.67591e-21)
(1.06626 -0.141575 -1.43986e-21)
(1.06165 -0.106814 -1.14357e-22)