/*--------------------------------*- C++ -*----------------------------------*\
| =========                 |                                                 |
| \\      /  F ield         | OpenFOAM: The Open Source CFD Toolbox           |
|  \\    /   O peration     | Version:  v2106                                 |
|   \\  /    A nd           | Website:  www.openfoam.com                      |
|    \\/     M anipulation  |                                                 |
\*---------------------------------------------------------------------------*/
FoamFile
{
    version     2.0;
    format      ascii;
    arch        "LSB;label=32;scalar=64";
    class       volVectorField;
    location    "0";
    object      U;
}
// * * * * * * * * * * * * * * * * * * * * * * * * * * * * * * * * * * * * * //

dimensions      [0 1 -1 0 0 0 0];

internalField   nonuniform List<vector> 
11644
(
(0.995371 -0.000213102 1.80979e-23)
(0.995266 -0.000556368 4.99087e-23)
(0.995205 -0.000810747 2.67772e-23)
(0.995188 -0.0010664 0)
(0.99518 -0.00132702 0)
(0.995177 -0.00158405 0)
(0.995176 -0.00183414 0)
(0.995175 -0.0020642 0)
(0.995174 -0.002261 0)
(0.995168 -0.00241052 0)
(0.99516 -0.00249376 0)
(0.995147 -0.00249295 0)
(0.995186 -0.00238474 0)
(0.99531 -0.00218901 0)
(0.995144 -0.0017939 0)
(0.995069 -0.00136777 0)
(0.994787 -0.000748044 0)
(0.994529 0.000299712 0)
(0.99467 0.00154925 0)
(0.99504 0.00256462 3.41308e-30)
(0.995262 0.00322553 -3.41708e-30)
(0.9952 0.00370399 0)
(0.995087 0.00414482 0)
(0.995155 0.00455504 0)
(0.995198 0.00481429 0)
(0.995225 0.00490612 0)
(0.995358 0.00485424 0)
(0.995169 0.00469872 0)
(0.99514 0.00444087 0)
(0.995171 0.0040964 0)
(0.99518 0.0037114 0)
(0.99518 0.00329937 0)
(0.995185 0.00287706 0)
(0.995188 0.0024607 0)
(0.995191 0.00205824 0)
(0.995192 0.00167606 0)
(0.995196 0.0013187 0)
(0.995215 0.000986496 0)
(0.995289 0.000663003 0)
(0.995405 0.000248123 3.509e-24)
(0.996102 -0.000437189 2.32466e-23)
(0.996019 -0.00131485 2.15338e-23)
(0.995956 -0.00218318 1.15651e-23)
(0.995933 -0.00302953 0)
(0.995925 -0.00385982 0)
(0.995912 -0.00467544 0)
(0.995883 -0.00545916 0)
(0.995828 -0.00618646 0)
(0.995738 -0.00682429 0)
(0.995607 -0.00732811 0)
(0.995439 -0.00763973 0)
(0.995196 -0.00770229 0)
(0.994805 -0.00743785 0)
(0.994232 -0.00675209 0)
(0.994025 -0.00567843 0)
(0.993516 -0.00407225 -9.66876e-25)
(0.992948 -0.00205512 1.73591e-23)
(0.992398 0.000219052 6.73238e-23)
(0.992102 0.00288319 -3.37925e-23)
(0.992288 0.00588404 1.70654e-22)
(0.992835 0.00878256 -3.11575e-22)
(0.993439 0.0111185 1.44709e-22)
(0.993846 0.0127412 -3.87369e-23)
(0.994085 0.0138256 -1.67122e-23)
(0.994644 0.0145705 2.69479e-24)
(0.995208 0.0148355 0)
(0.995491 0.0146896 0)
(0.996058 0.014053 0)
(0.996277 0.0131644 0)
(0.996367 0.0120844 0)
(0.996431 0.010861 0)
(0.996429 0.00958648 0)
(0.99639 0.00830605 0)
(0.996332 0.00705463 0)
(0.996265 0.00585219 0)
(0.9962 0.00470807 0)
(0.996152 0.00361546 0)
(0.996139 0.00255656 0)
(0.996182 0.00150967 0)
(0.996253 0.000496838 0)
(0.997591 -0.000692161 0)
(0.997527 -0.00211744 0)
(0.997477 -0.00358111 0)
(0.997455 -0.00503638 0)
(0.997443 -0.00647849 2.12354e-23)
(0.997414 -0.00790586 0)
(0.997344 -0.00929836 0)
(0.997205 -0.010624 0)
(0.996969 -0.0118299 0)
(0.996606 -0.0128437 0)
(0.99603 -0.0135817 0)
(0.995287 -0.0139032 0)
(0.994454 -0.0136681 -2.17231e-25)
(0.993545 -0.012792 -1.97039e-24)
(0.991901 -0.0110385 -5.00362e-23)
(0.990537 -0.0084907 1.81093e-22)
(0.989208 -0.00515646 -5.14432e-23)
(0.987971 -0.0013028 -2.45971e-23)
(0.98702 0.00311037 -3.20608e-23)
(0.986827 0.00805188 4.72487e-22)
(0.987541 0.0130771 -4.26996e-22)
(0.989044 0.0177224 -3.00152e-22)
(0.990879 0.0213741 2.75011e-22)
(0.992681 0.0236865 -1.92519e-22)
(0.994032 0.0247676 1.0275e-22)
(0.99547 0.0250421 4.20994e-23)
(0.99701 0.0244996 6.22486e-24)
(0.997705 0.0234289 4.93133e-25)
(0.998411 0.0217986 0)
(0.998822 0.0198335 0)
(0.998925 0.0177387 0)
(0.998911 0.0155633 0)
(0.998783 0.0134183 0)
(0.998602 0.0113413 0)
(0.998403 0.00935873 0)
(0.998215 0.00747672 0)
(0.998056 0.00568845 0)
(0.99795 0.00397234 0)
(0.997907 0.00232873 0)
(0.997922 0.000754584 0)
(0.999881 -0.000981217 0)
(0.999826 -0.00298259 0)
(0.9998 -0.00502078 0)
(0.999798 -0.00709197 0)
(0.999802 -0.00918482 0)
(0.999774 -0.0112958 0)
(0.999674 -0.0134056 0)
(0.999454 -0.0154784 0)
(0.999055 -0.0174513 0)
(0.998382 -0.0192409 0)
(0.997465 -0.0206678 1.06627e-24)
(0.996122 -0.0215669 4.33748e-24)
(0.994142 -0.0217469 1.03972e-22)
(0.991271 -0.0209679 1.45823e-22)
(0.988856 -0.0189398 -2.36819e-22)
(0.985862 -0.0156041 -2.01675e-22)
(0.983059 -0.0109491 -2.92606e-22)
(0.980513 -0.00513087 3.23501e-22)
(0.978542 0.00173181 7.39238e-22)
(0.97806 0.00916421 -3.6555e-22)
(0.979149 0.0165532 -4.08845e-22)
(0.981672 0.0234585 8.43431e-22)
(0.985154 0.0293603 -1.21495e-21)
(0.989252 0.0334206 8.0884e-23)
(0.993123 0.0355366 5.61891e-22)
(0.996239 0.0358686 1.05292e-22)
(0.998368 0.0350337 -3.8681e-23)
(1.00058 0.0328986 -1.60055e-22)
(1.00177 0.0302709 1.06111e-23)
(1.0024 0.0272925 -6.13714e-25)
(1.00267 0.0241463 0)
(1.00256 0.0210526 0)
(1.00228 0.0180298 0)
(1.0019 0.0151582 0)
(1.00149 0.012452 0)
(1.00111 0.0099128 0)
(1.00079 0.00752554 0)
(1.00054 0.0052634 0)
(1.00041 0.00308899 0)
(1.00037 0.00102458 0)
(1.00296 -0.00128587 0)
(1.00293 -0.00386484 0)
(1.00294 -0.00652229 0)
(1.003 -0.00922258 0)
(1.00307 -0.0120007 0)
(1.0031 -0.0148617 0)
(1.00303 -0.0178013 0)
(1.0028 -0.0207908 0)
(1.00229 -0.0237803 0)
(1.00143 -0.0266243 -2.99086e-24)
(0.999903 -0.0291652 3.41238e-22)
(0.997449 -0.0311752 -1.02507e-22)
(0.9943 -0.032259 -2.64236e-22)
(0.990836 -0.03206 -3.8935e-22)
(0.985498 -0.0304783 -9.49367e-22)
(0.980113 -0.026796 4.80404e-22)
(0.975018 -0.0211085 1.49165e-21)
(0.97025 -0.0133742 -2.777e-21)
(0.966417 -0.00347432 5.07321e-21)
(0.96491 0.0078676 -2.03257e-21)
(0.966427 0.019641 2.64824e-21)
(0.970867 0.030428 -5.16761e-21)
(0.977228 0.0390392 2.13112e-21)
(0.985307 0.0448011 -1.00862e-21)
(0.991841 0.0475227 -4.82765e-22)
(0.99752 0.0479429 4.37894e-22)
(1.00261 0.0459264 5.62428e-22)
(1.00496 0.0429202 -2.03272e-22)
(1.00673 0.0388252 4.63529e-22)
(1.00748 0.0344111 -2.52249e-22)
(1.00759 0.0300617 1.11562e-24)
(1.00736 0.025893 0)
(1.00681 0.0220098 0)
(1.00613 0.0183843 0)
(1.00544 0.0150267 0)
(1.00479 0.0119151 0)
(1.00424 0.00901485 0)
(1.00383 0.00629858 0)
(1.00356 0.00371588 0)
(1.00346 0.00120651 0)
(1.00681 -0.00154449 0)
(1.00683 -0.00472152 0)
(1.00694 -0.00795039 0)
(1.00712 -0.0112999 0)
(1.00733 -0.0148051 0)
(1.00752 -0.0184933 0)
(1.00762 -0.0223795 0)
(1.00751 -0.0264673 0)
(1.00707 -0.0306796 1.37573e-23)
(1.00594 -0.0349034 1.19848e-22)
(1.00376 -0.0389418 -3.28794e-22)
(1.00067 -0.0424545 3.28461e-22)
(0.996406 -0.0453576 4.45093e-22)
(0.989573 -0.0475768 -2.21833e-21)
(0.983042 -0.0468217 2.10505e-21)
(0.974531 -0.043655 -1.21488e-22)
(0.964602 -0.0378622 -5.3911e-22)
(0.955161 -0.0276198 -1.08402e-21)
(0.947897 -0.0129348 2.58903e-21)
(0.94464 0.00419407 -3.67072e-21)
(0.946671 0.0218568 2.6503e-21)
(0.953491 0.0381899 -1.84566e-21)
(0.964248 0.0516158 1.61339e-21)
(0.977078 0.0594012 -2.90422e-22)
(0.989527 0.062199 6.79671e-22)
(1.00003 0.0622644 -1.67676e-21)
(1.00666 0.0595399 1.73253e-21)
(1.01192 0.0533713 -4.58652e-23)
(1.01409 0.0473312 -5.25357e-22)
(1.01457 0.0411774 -5.36286e-23)
(1.01409 0.0353401 1.11327e-22)
(1.01328 0.0300487 5.67752e-24)
(1.0123 0.0252777 0)
(1.01119 0.0209714 0)
(1.01009 0.0170619 0)
(1.00909 0.0134973 0)
(1.00826 0.010221 0)
(1.00762 0.00715198 0)
(1.00721 0.00423501 0)
(1.00703 0.00142336 0)
(1.01136 -0.0018339 0)
(1.01146 -0.00550994 0)
(1.01173 -0.00928359 0)
(1.01213 -0.013247 0)
(1.01262 -0.0174431 0)
(1.01314 -0.0219619 0)
(1.0136 -0.0268589 0)
(1.01387 -0.0321538 4.98142e-24)
(1.01352 -0.0377468 -1.47201e-22)
(1.01221 -0.0435391 2.35289e-22)
(1.00993 -0.0494312 -9.01083e-23)
(1.00635 -0.055511 3.79472e-22)
(1.00126 -0.061465 -4.01891e-22)
(0.995426 -0.0660655 8.59366e-22)
(0.983664 -0.0699774 -1.07451e-21)
(0.969533 -0.0694095 -1.78709e-22)
(0.959701 -0.056782 1.8656e-21)
(0.945002 -0.0464662 5.49861e-22)
(0.931888 -0.0281928 9.92791e-22)
(0.924066 -0.00410352 2.47472e-21)
(0.925128 0.022174 3.50005e-21)
(0.934294 0.0455792 -8.98479e-22)
(0.949235 0.0629657 3.1895e-22)
(0.966365 0.0725081 2.1401e-21)
(0.989904 0.084446 -7.32603e-22)
(1.00497 0.0814985 5.94749e-22)
(1.017 0.0728384 -5.09769e-22)
(1.02125 0.0655768 8.18935e-23)
(1.02379 0.0561942 1.34811e-22)
(1.02392 0.0475915 -6.57701e-23)
(1.02248 0.039953 -8.8042e-24)
(1.02055 0.0333562 -4.14575e-23)
(1.01866 0.0277082 -1.20705e-24)
(1.01693 0.0228261 0)
(1.0153 0.0184889 0)
(1.01387 0.014576 0)
(1.01269 0.0110007 0)
(1.01179 0.00767885 0)
(1.0112 0.00451953 0)
(1.01094 0.00145469 0)
(1.01653 -0.00202896 0)
(1.01674 -0.00607804 0)
(1.01723 -0.0103615 0)
(1.01796 -0.0148106 0)
(1.01888 -0.0196339 0)
(1.01995 -0.0249106 0)
(1.02106 -0.0307662 0)
(1.02189 -0.037204 8.03602e-24)
(1.02174 -0.044153 4.49554e-23)
(1.02086 -0.0515767 2.41896e-22)
(1.0192 -0.0597236 -3.30044e-22)
(1.01637 -0.0687062 2.28508e-22)
(1.0115 -0.0782619 -8.40238e-22)
(1.0012 -0.0835515 -1.90572e-22)
(0.991513 -0.0887452 -4.96842e-22)
(0.974312 -0.0946805 -1.6996e-22)
(0.950339 -0.0936677 7.82046e-22)
(0.924724 -0.0822792 -3.63406e-21)
(0.898313 -0.0583441 9.98948e-22)
(0.879892 -0.020228 6.00113e-22)
(0.879107 0.0252324 1.51247e-21)
(0.896554 0.0659356 -9.88693e-22)
(0.926371 0.0926527 -1.42154e-21)
(0.957944 0.10442 -3.16519e-21)
(0.9871 0.106067 -2.50317e-22)
(1.00877 0.0982877 -5.26959e-22)
(1.02192 0.0881329 1.50028e-24)
(1.03591 0.0753933 3.15848e-23)
(1.03688 0.0638869 4.5797e-23)
(1.03567 0.0530523 -2.15912e-22)
(1.03278 0.0435659 1.05026e-22)
(1.02932 0.0355983 -1.43511e-22)
(1.0259 0.0290974 2.00228e-24)
(1.02318 0.0237373 0)
(1.0209 0.0191343 0)
(1.01895 0.015047 0)
(1.01736 0.0113376 0)
(1.01618 0.00792804 0)
(1.0154 0.00470205 0)
(1.01504 0.00160727 0)
(1.0221 -0.0020568 0)
(1.02246 -0.00644616 0)
(1.02324 -0.0108571 0)
(1.02441 -0.0156768 0)
(1.02595 -0.0209461 0)
(1.02781 -0.0268158 0)
(1.02986 -0.0334201 1.37992e-23)
(1.03135 -0.0407768 -2.16467e-23)
(1.03189 -0.0488125 -7.41413e-23)
(1.03222 -0.0578743 2.1018e-23)
(1.03209 -0.0686246 -1.64417e-24)
(1.03101 -0.0812836 2.10187e-22)
(1.02773 -0.0965951 1.05022e-23)
(1.01564 -0.108172 -8.67846e-22)
(1.00397 -0.120545 -2.72617e-22)
(0.984454 -0.135871 3.08747e-22)
(0.954817 -0.138685 -3.9314e-22)
(0.910189 -0.135136 1.84082e-21)
(0.860015 -0.109365 2.3713e-21)
(0.816789 -0.0519635 -1.48823e-22)
(0.806985 0.0279121 -6.09557e-22)
(0.837901 0.0986431 -8.36034e-22)
(0.891718 0.138926 -4.5672e-22)
(0.949993 0.150813 -2.05731e-22)
(0.992101 0.141882 -1.73906e-22)
(1.02639 0.126282 1.37642e-22)
(1.04091 0.106046 -7.84208e-22)
(1.05491 0.0866174 8.30819e-24)
(1.05349 0.0691772 -1.31965e-22)
(1.04979 0.0561313 3.0534e-23)
(1.04471 0.0453752 4.83409e-23)
(1.03927 0.0364913 -3.74688e-23)
(1.03396 0.0293367 2.07925e-23)
(1.02973 0.0236789 3.95983e-24)
(1.02665 0.0190132 0)
(1.02412 0.0149249 0)
(1.0221 0.0112438 0)
(1.0206 0.00783613 0)
(1.01963 0.00461291 0)
(1.01918 0.00147054 0)
(1.02782 -0.00222417 0)
(1.02836 -0.00646107 0)
(1.02952 -0.0110281 0)
(1.03126 -0.0159082 0)
(1.03357 -0.0212641 0)
(1.03642 -0.0273408 0)
(1.03955 -0.0342824 6.81625e-24)
(1.04191 -0.0420598 -6.13592e-23)
(1.04384 -0.0508626 5.15194e-23)
(1.04631 -0.0613824 1.41222e-22)
(1.04893 -0.0742289 2.21619e-23)
(1.0512 -0.0904128 -3.39036e-22)
(1.05251 -0.111505 2.63942e-22)
(1.04289 -0.129518 -4.72546e-22)
(1.03438 -0.151616 -1.36655e-22)
(1.0101 -0.178634 4.67021e-22)
(0.974576 -0.201162 -5.31716e-23)
(0.911733 -0.224296 7.11982e-23)
(0.812395 -0.217692 3.69004e-22)
(0.697066 -0.135744 -4.07279e-22)
(0.650399 0.0304942 5.92196e-22)
(0.726673 0.185678 9.11649e-23)
(0.857047 0.246459 -7.47653e-22)
(0.960174 0.233124 1.094e-22)
(1.02744 0.195935 1.09763e-22)
(1.06487 0.155485 -1.25687e-21)
(1.07331 0.118075 -1.16013e-22)
(1.08035 0.0888109 1.87052e-23)
(1.0732 0.0691438 -7.18542e-23)
(1.06566 0.0553151 3.59895e-23)
(1.05761 0.0442957 2.92555e-23)
(1.04979 0.0353084 -2.51039e-24)
(1.04245 0.0281129 1.24323e-23)
(1.03639 0.0225067 -6.22493e-25)
(1.03229 0.0180301 0)
(1.02915 0.0141495 0)
(1.0267 0.0106676 0)
(1.0249 0.00743588 0)
(1.02374 0.00442496 0)
(1.02319 0.00146825 0)
(1.03336 -0.00192567 0)
(1.03411 -0.00602866 0)
(1.03566 -0.0103123 0)
(1.038 -0.0148854 0)
(1.04118 -0.0200494 0)
(1.04518 -0.0259658 0)
(1.04944 -0.0327358 -6.57328e-24)
(1.05299 -0.0403604 -4.80836e-24)
(1.05711 -0.0494222 2.79778e-23)
(1.06264 -0.0607629 4.63482e-23)
(1.06924 -0.0748039 -9.78615e-23)
(1.07643 -0.0921811 -2.09207e-24)
(1.08451 -0.114545 3.17521e-23)
(1.08184 -0.140226 3.45637e-23)
(1.08146 -0.17231 1.08809e-23)
(1.07098 -0.215237 -9.20543e-23)
(1.04458 -0.270848 -1.12832e-22)
(0.985037 -0.358287 6.73719e-23)
(0.82351 -0.456555 -1.79554e-21)
(0.462102 -0.431168 -5.76068e-20)
(0.187342 0.0521092 -1.79575e-20)
(0.516888 0.507685 -2.89164e-20)
(0.894692 0.49149 1.06466e-21)
(1.06174 0.354043 -2.97628e-23)
(1.11609 0.242546 -4.35719e-23)
(1.12821 0.161661 5.24259e-23)
(1.11753 0.119276 3.11152e-22)
(1.10846 0.0776441 9.44559e-23)
(1.09434 0.0614008 -9.28272e-23)
(1.08169 0.0489168 1.88107e-23)
(1.07017 0.039208 -5.63924e-23)
(1.05989 0.0315111 3.82918e-23)
(1.05065 0.025233 -1.99179e-23)
(1.04278 0.0201992 9.36999e-24)
(1.03753 0.0162221 0)
(1.03383 0.0128292 0)
(1.031 0.00973809 0)
(1.02894 0.00688423 0)
(1.02759 0.00406236 0)
(1.02696 0.00144011 0)
(1.03846 -0.0017926 0)
(1.03941 -0.00529827 0)
(1.04133 -0.00891112 0)
(1.04429 -0.0128997 0)
(1.04834 -0.0174035 0)
(1.05349 -0.0226085 0)
(1.05885 -0.028573 -9.21183e-24)
(1.06399 -0.0354635 -8.49697e-24)
(1.0708 -0.0439709 -8.41355e-24)
(1.07988 -0.0548672 -7.43987e-24)
(1.0912 -0.0686728 2.09475e-24)
(1.10431 -0.0855622 3.35936e-23)
(1.11936 -0.105615 1.83312e-24)
(1.12494 -0.134869 2.30244e-23)
(1.13961 -0.167258 -1.57994e-22)
(1.14973 -0.215703 -9.53943e-24)
(1.16456 -0.284682 -8.24815e-23)
(1.19373 -0.408591 8.24697e-22)
(0.859826 -0.452565 -7.05012e-20)
(1.16309 0.613769 3.7122e-20)
(1.31531 0.373446 2.80107e-23)
(1.25001 0.21392 -3.25775e-23)
(1.20284 0.127058 6.26423e-23)
(1.16428 0.0916142 -6.61988e-23)
(1.13513 0.0539258 1.17795e-22)
(1.11271 0.0437663 -1.8825e-23)
(1.09481 0.035969 -5.29258e-23)
(1.08032 0.0299508 -2.65371e-24)
(1.06818 0.0250487 -2.75094e-23)
(1.05756 0.0207109 -1.22076e-23)
(1.04838 0.016914 -6.60661e-24)
(1.04209 0.0137637 0)
(1.03792 0.010995 0)
(1.03476 0.00836125 0)
(1.03249 0.00585777 0)
(1.03105 0.00349547 0)
(1.03039 0.00100838 0)
(1.0425 -0.00119399 0)
(1.04374 -0.00396057 0)
(1.04612 -0.00680279 0)
(1.04967 -0.00989967 0)
(1.05446 -0.0133131 0)
(1.0606 -0.0172685 0)
(1.06704 -0.0218493 -8.30705e-25)
(1.07401 -0.0273878 6.87115e-24)
(1.08365 -0.0345256 -1.12895e-23)
(1.09621 -0.0437353 -2.50817e-23)
(1.11197 -0.0554489 7.60991e-23)
(1.13061 -0.0697536 -5.37365e-23)
(1.15223 -0.0862209 1.5242e-24)
(1.16356 -0.112596 -1.59002e-23)
(1.19118 -0.137035 4.01432e-22)
(1.21679 -0.173723 -7.54118e-23)
(1.26137 -0.216013 -1.76067e-23)
(1.32139 -0.252776 1.5606e-21)
(0.00722092 0.023293 3.15113e-19)
(0.0828343 0.0107047 -2.31971e-19)
(1.49703 0.158139 -4.84168e-22)
(1.34537 0.0968688 -9.28737e-25)
(1.25326 0.0517031 5.57104e-22)
(1.19677 0.0387414 1.0605e-21)
(1.1482 0.0185442 1.20367e-22)
(1.12165 0.019017 6.96957e-23)
(1.10151 0.0183824 -3.88803e-24)
(1.08599 0.0176807 -5.06448e-23)
(1.07318 0.0166136 1.60136e-23)
(1.06218 0.0150133 2.63854e-23)
(1.05254 0.012986 2.09822e-24)
(1.04575 0.0109542 0)
(1.04134 0.00896681 0)
(1.03802 0.00696671 0)
(1.03562 0.00494295 0)
(1.03408 0.00300821 0)
(1.03334 0.00107301 0)
(1.04591 -0.00104401 4.34676e-26)
(1.0471 -0.00249597 0)
(1.04966 -0.00417378 0)
(1.05351 -0.00597413 0)
(1.05879 -0.00795729 0)
(1.06562 -0.010237 0)
(1.0732 -0.0129949 -9.66718e-25)
(1.08211 -0.0166488 -5.90006e-24)
(1.09435 -0.0216755 2.09048e-23)
(1.1099 -0.0281908 3.97554e-23)
(1.12888 -0.0363161 -8.98611e-23)
(1.15146 -0.0463974 -2.39399e-22)
(1.17728 -0.0577579 5.47791e-23)
(1.19369 -0.0797244 -4.5984e-23)
(1.22517 -0.0963612 3.51429e-22)
(1.25267 -0.119924 -7.50639e-24)
(1.29399 -0.136517 9.76818e-22)
(1.14422 -0.0982994 -1.53966e-23)
(-0.000714501 0.0227508 5.34587e-24)
(0.361241 -0.0208389 1.653e-20)
(1.46694 -0.058572 2.33069e-22)
(1.35331 -0.0426484 -1.58703e-21)
(1.25515 -0.0378135 6.2231e-22)
(1.19826 -0.0236476 2.96455e-23)
(1.14446 -0.0199426 -2.36673e-22)
(1.11909 -0.00737181 -2.09774e-22)
(1.09998 6.62642e-05 1.21687e-23)
(1.08541 0.00504802 2.8191e-23)
(1.07378 0.00784918 -7.55204e-23)
(1.06392 0.00907518 -2.17021e-24)
(1.05493 0.00904296 2.46676e-24)
(1.0483 0.00813371 0)
(1.04397 0.00692727 0)
(1.04068 0.00556119 0)
(1.03828 0.00411082 0)
(1.03665 0.00245672 0)
(1.03587 0.000933746 0)
(1.04791 7.15013e-05 4.73066e-26)
(1.04917 -0.000473134 0)
(1.05159 -0.000996751 0)
(1.05548 -0.00143992 0)
(1.06098 -0.0018361 0)
(1.0682 -0.00216742 0)
(1.07693 -0.00273081 1.82424e-24)
(1.08739 -0.00406727 -4.55034e-24)
(1.10148 -0.00628702 8.86243e-24)
(1.11892 -0.00930035 -6.76763e-24)
(1.13973 -0.012989 -1.60976e-23)
(1.16487 -0.01797 3.41502e-23)
(1.19283 -0.0239835 -2.52071e-23)
(1.21304 -0.0420231 -6.49384e-22)
(1.24601 -0.0549108 -1.03035e-21)
(1.27212 -0.0744386 9.17647e-22)
(1.29648 -0.0862211 -2.11208e-22)
(0.937999 -0.0360081 -5.25754e-22)
(-0.0346332 0.0156777 -3.55037e-22)
(-0.215599 0.090297 -3.03411e-21)
(-0.121575 0.297948 -6.38796e-23)
(0.262105 0.188893 1.01318e-21)
(0.824398 -0.144839 -1.36856e-21)
(1.41304 -0.227922 -1.2521e-21)
(1.29951 -0.167651 1.14277e-21)
(1.21119 -0.115677 -1.49763e-22)
(1.16748 -0.0765325 -2.57846e-21)
(1.12071 -0.0483152 7.48385e-22)
(1.10332 -0.0283021 -6.03738e-22)
(1.08985 -0.014896 9.71819e-23)
(1.07916 -0.00535394 -1.7969e-22)
(1.07023 0.000625584 8.63725e-23)
(1.06251 0.00416271 2.96865e-23)
(1.05541 0.00571461 9.58131e-25)
(1.0498 0.00570992 0)
(1.04571 0.00496906 0)
(1.04255 0.00397779 0)
(1.04025 0.00287662 0)
(1.03878 0.00173572 0)
(1.03816 0.000395172 0)
(1.04756 0.000388277 -9.06825e-24)
(1.04896 0.0012956 0)
(1.0515 0.0022571 0)
(1.05533 0.0032693 0)
(1.06068 0.00451021 0)
(1.06783 0.00617839 0)
(1.07724 0.00805356 -1.66167e-25)
(1.08878 0.00939348 1.28115e-23)
(1.1035 0.0104315 -1.6113e-23)
(1.12153 0.0115409 -7.02645e-24)
(1.14299 0.0130171 1.20019e-22)
(1.16878 0.0139936 4.31128e-22)
(1.19863 0.0154737 -5.39136e-22)
(1.22543 0.00180869 4.48025e-22)
(1.26322 -0.00696189 -2.58002e-22)
(1.30804 -0.0248393 1.2964e-21)
(1.32331 -0.0614624 -5.3483e-22)
(0.78294 -0.095017 -1.64761e-20)
(0.0732258 -0.261042 1.82007e-22)
(-0.36202 -0.348222 -8.41056e-21)
(-0.0719855 -0.40175 6.7634e-22)
(0.551474 -0.462204 1.6076e-21)
(1.13636 -0.576192 -2.17578e-21)
(1.23612 -0.401171 -2.07217e-22)
(1.18055 -0.259443 2.60934e-21)
(1.1291 -0.16139 1.98734e-21)
(1.11296 -0.10201 8.30069e-23)
(1.08347 -0.0589245 5.42915e-22)
(1.07825 -0.0349695 -1.32581e-21)
(1.07269 -0.0204614 -1.32747e-22)
(1.06793 -0.010204 2.18983e-23)
(1.06356 -0.00292911 -2.13582e-23)
(1.05891 0.00151461 -2.87734e-23)
(1.05451 0.00368174 1.27775e-25)
(1.05073 0.00408515 0)
(1.04716 0.00364318 0)
(1.04423 0.00296916 0)
(1.04204 0.00211195 0)
(1.04058 0.00131043 0)
(1.03981 0.000439431 5.08622e-23)
(1.04608 0.000788429 -1.01008e-23)
(1.04723 0.00260915 0)
(1.04947 0.00477601 0)
(1.05293 0.00719025 0)
(1.05775 0.0100143 0)
(1.06424 0.0135193 0)
(1.07337 0.0177746 0)
(1.0854 0.0222084 6.9351e-24)
(1.09979 0.0268989 -1.23786e-23)
(1.11683 0.0325294 1.15518e-23)
(1.13735 0.0397411 -1.43423e-22)
(1.16211 0.0479497 2.0395e-22)
(1.19252 0.0593961 1.33211e-22)
(1.23217 0.0695424 -3.29056e-22)
(1.27181 0.0585767 7.84205e-22)
(1.33595 0.0580537 2.12431e-21)
(1.39401 0.0172868 -3.68274e-22)
(1.02784 -0.10552 9.48441e-21)
(0.392987 -0.39233 1.23749e-21)
(-0.113001 -0.700801 8.1437e-21)
(0.0128156 -0.907003 -5.03771e-21)
(0.544852 -0.846987 3.22099e-22)
(0.873119 -0.622561 -6.97805e-21)
(0.958307 -0.414532 -2.25832e-20)
(1.00077 -0.243572 -4.69067e-22)
(1.02893 -0.150114 4.55107e-22)
(1.03205 -0.0746083 -1.07928e-22)
(1.04659 -0.0429681 4.34088e-22)
(1.05259 -0.0261061 -4.30467e-22)
(1.0553 -0.0149973 1.57466e-22)
(1.05619 -0.00733435 4.27443e-23)
(1.05547 -0.0022074 -1.35997e-23)
(1.05417 0.00122867 -3.03015e-23)
(1.05303 0.00308922 0)
(1.05098 0.00330289 0)
(1.04818 0.00292629 0)
(1.04563 0.00244245 0)
(1.04357 0.00184155 0)
(1.0421 0.00118162 0)
(1.04134 0.000621629 3.02741e-23)
(1.04323 0.00116206 -5.61985e-24)
(1.04415 0.00374751 0)
(1.04596 0.00665307 0)
(1.04873 0.0100085 0)
(1.05258 0.0140169 0)
(1.05781 0.0189592 0)
(1.06569 0.025084 0)
(1.07683 0.0322131 0)
(1.08992 0.0405375 5.22803e-24)
(1.10454 0.0506853 -2.30912e-25)
(1.12189 0.0638939 5.97539e-24)
(1.14326 0.0801777 -2.21153e-22)
(1.16969 0.102534 3.62082e-22)
(1.20633 0.131624 1.35243e-23)
(1.25266 0.138968 -2.33401e-22)
(1.32195 0.172087 -2.88937e-22)
(1.42103 0.187814 -5.92385e-22)
(1.33566 0.149241 -2.81974e-21)
(0.819803 -0.109935 5.33299e-21)
(0.338832 -0.468305 7.68945e-21)
(0.138702 -0.726639 -1.0735e-21)
(0.253001 -0.696628 3.27007e-21)
(0.534245 -0.45651 5.21075e-22)
(0.758952 -0.259379 -1.71765e-20)
(0.871787 -0.14265 -4.42555e-22)
(0.942231 -0.0802223 -4.78605e-23)
(0.991947 -0.0147213 1.11117e-22)
(1.02107 -0.00893067 -3.68999e-22)
(1.03699 -0.00348434 4.16544e-23)
(1.04535 -0.000688108 2.78084e-23)
(1.04904 0.00116469 6.37047e-24)
(1.05042 0.00242343 -8.8171e-24)
(1.05131 0.00329949 0)
(1.05197 0.00338022 0)
(1.051 0.0028973 0)
(1.04858 0.00234338 0)
(1.04617 0.00186417 3.35211e-23)
(1.04428 0.00137285 4.63575e-23)
(1.04306 0.000805353 2.76434e-23)
(1.04242 0.000169071 0)
(1.03955 0.00140624 0)
(1.0401 0.00440755 0)
(1.04134 0.00775764 0)
(1.04324 0.0116052 0)
(1.04585 0.0162343 0)
(1.04947 0.0219236 0)
(1.05543 0.0290354 0)
(1.06447 0.0377228 0)
(1.07481 0.0485731 1.23709e-26)
(1.08555 0.0623593 6.46094e-24)
(1.09739 0.0805207 -4.81195e-24)
(1.11152 0.103549 6.42046e-23)
(1.12838 0.134282 -1.76791e-22)
(1.15205 0.175779 5.75755e-22)
(1.1938 0.2072 3.36242e-21)
(1.23939 0.269983 -4.28336e-23)
(1.31352 0.34329 -3.16068e-21)
(1.39297 0.452763 -3.37979e-21)
(1.18745 0.420802 1.0187e-21)
(0.776242 0.220739 2.94407e-20)
(0.391253 -0.02301 -3.65829e-21)
(0.184927 -0.186905 2.28495e-21)
(0.281128 -0.211738 -6.38639e-22)
(0.574115 -0.107856 -6.88261e-22)
(0.80027 0.0207292 1.01548e-21)
(0.900515 0.0371623 9.01654e-22)
(0.987554 0.0574653 8.08788e-23)
(1.02166 0.0342041 -1.14784e-23)
(1.03877 0.0249233 1.09666e-23)
(1.04658 0.0164553 5.74116e-24)
(1.0497 0.0111687 -5.27902e-24)
(1.05087 0.00773082 -7.61562e-26)
(1.05181 0.00551893 0)
(1.05265 0.00375375 0)
(1.05166 0.00244911 0)
(1.04911 0.00160132 0)
(1.04659 0.00101568 0)
(1.04466 0.000553667 0)
(1.04336 0.000230285 0)
(1.04253 -4.02961e-05 -4.97862e-24)
(1.03547 0.00146459 0)
(1.03564 0.00454891 0)
(1.0362 0.00792378 0)
(1.03716 0.0117922 0)
(1.03845 0.0164495 0)
(1.04034 0.0221063 0)
(1.04406 0.0292545 0)
(1.05016 0.0383967 0)
(1.05648 0.0502852 0)
(1.06185 0.0656882 0)
(1.06654 0.0860597 -2.82029e-24)
(1.07065 0.112305 8.42603e-24)
(1.07531 0.146112 4.34626e-23)
(1.08076 0.192168 2.24673e-24)
(1.10837 0.238078 1.09925e-20)
(1.1242 0.307646 -4.70923e-22)
(1.14569 0.389344 6.99728e-21)
(1.18681 0.546236 1.26389e-21)
(1.14666 0.73073 -4.22206e-21)
(0.949928 0.795412 4.74459e-22)
(0.683328 0.69661 1.42858e-21)
(0.468934 0.476792 3.16492e-21)
(0.425312 0.235496 -1.5114e-21)
(0.491146 0.103686 -4.9936e-22)
(0.726472 0.179166 1.48915e-20)
(0.932868 0.162202 4.53568e-22)
(1.03203 0.113165 -2.04798e-22)
(1.05423 0.0705179 1.67299e-22)
(1.0605 0.0470194 -8.31874e-23)
(1.06043 0.0290198 -4.13458e-24)
(1.05854 0.0178289 0)
(1.0565 0.010584 0)
(1.05547 0.00592054 0)
(1.05505 0.00283494 0)
(1.05308 0.00110507 0)
(1.04994 0.000189436 0)
(1.04707 -0.000288607 0)
(1.04488 -0.000476529 0)
(1.04333 -0.000378821 0)
(1.04235 -0.000146191 0)
(1.0313 0.0013968 0)
(1.03118 0.00418958 0)
(1.0312 0.00715476 0)
(1.03131 0.0104932 0)
(1.03141 0.0144588 0)
(1.0316 0.0192455 0)
(1.0328 0.0254537 0)
(1.03529 0.0339502 0)
(1.03692 0.0454182 0)
(1.03645 0.0603465 0)
(1.03368 0.0798805 0)
(1.02788 0.105306 8.49473e-25)
(1.01985 0.137151 9.82142e-24)
(1.00799 0.183509 1.66814e-23)
(1.01697 0.232515 3.907e-21)
(1.01825 0.296388 -1.99834e-21)
(1.00418 0.377545 3.10716e-21)
(0.959989 0.470606 -1.32799e-22)
(0.943591 0.586309 2.92261e-22)
(0.894028 0.685039 3.80748e-21)
(0.805951 0.717109 1.9204e-21)
(0.724174 0.661665 -2.77159e-22)
(0.674898 0.548483 -2.6674e-21)
(0.628648 0.424877 -2.97259e-22)
(0.734505 0.309568 3.21185e-22)
(1.03461 0.228963 -2.96991e-21)
(1.11544 0.125185 -5.34569e-22)
(1.10991 0.0797158 1.55871e-23)
(1.09571 0.0499941 -1.69465e-24)
(1.08326 0.0295912 0)
(1.07331 0.016709 0)
(1.06599 0.00824127 0)
(1.06144 0.00278475 0)
(1.05843 -0.000399875 0)
(1.05468 -0.00171708 0)
(1.05058 -0.00210919 0)
(1.04715 -0.00202705 0)
(1.04459 -0.0016208 0)
(1.04283 -0.000999514 0)
(1.04178 -0.000296326 0)
(1.02753 0.0010864 0)
(1.02737 0.00315072 0)
(1.02716 0.00528867 0)
(1.02678 0.00761711 0)
(1.02603 0.0103108 0)
(1.02479 0.0135262 0)
(1.02346 0.0178034 0)
(1.02216 0.0242305 0)
(1.01927 0.0334019 0)
(1.01357 0.045509 0)
(1.00417 0.0613837 -1.44339e-23)
(0.989901 0.0823787 0)
(0.970067 0.108676 0)
(0.94412 0.146787 1.24722e-21)
(0.910837 0.196417 -2.35464e-21)
(0.904342 0.265672 6.49303e-21)
(0.896111 0.335695 -7.93603e-23)
(0.847977 0.404454 1.35589e-24)
(0.795094 0.493057 -1.24195e-21)
(0.758847 0.596368 6.37771e-21)
(0.737229 0.676845 -1.54656e-22)
(0.747683 0.699321 1.09265e-21)
(0.778491 0.66541 -8.19064e-23)
(0.827179 0.548992 4.19898e-22)
(0.949947 0.349827 -6.67165e-23)
(1.23653 0.153349 -1.40276e-21)
(1.20457 0.0783737 -9.97624e-22)
(1.16438 0.0507535 0)
(1.12976 0.0277163 0)
(1.10561 0.0138634 1.11202e-22)
(1.08788 0.00472107 0)
(1.07544 -0.00127834 0)
(1.06707 -0.00486388 0)
(1.06096 -0.00630902 0)
(1.05526 -0.00610853 0)
(1.05019 -0.00531348 0)
(1.04627 -0.00426432 0)
(1.04345 -0.00306625 -5.51697e-24)
(1.04159 -0.00180714 -3.95794e-24)
(1.04064 -0.000561378 0)
(1.02524 0.000464171 0)
(1.02513 0.00153956 0)
(1.02486 0.0025862 0)
(1.02426 0.00366497 0)
(1.02309 0.00479669 0)
(1.02104 0.00602818 0)
(1.01789 0.00766287 0)
(1.01361 0.0106188 0)
(1.00727 0.015418 0)
(0.997743 0.0220421 0)
(0.983448 0.0310091 -8.81521e-23)
(0.962321 0.0433733 0)
(0.93316 0.060089 0)
(0.897567 0.0854352 9.13692e-22)
(0.843015 0.118613 -1.16017e-21)
(0.768035 0.176154 -1.47845e-21)
(0.699109 0.270632 0)
(0.627251 0.365024 2.64905e-22)
(0.593495 0.439641 3.066e-21)
(0.630502 0.479307 2.27817e-21)
(0.739772 0.465818 1.81542e-21)
(0.880013 0.434582 1.73822e-20)
(1.02754 0.316883 -2.01095e-21)
(1.17026 0.184819 0)
(1.30507 0.057752 -5.76137e-22)
(1.32758 -0.00242041 -1.41729e-20)
(1.2525 -0.011611 8.12074e-22)
(1.18972 -0.0107346 0)
(1.14636 -0.0147504 0)
(1.11648 -0.0152739 8.67807e-22)
(1.09493 -0.0162851 0)
(1.07964 -0.016492 0)
(1.06869 -0.0157831 0)
(1.06037 -0.013963 0)
(1.0535 -0.0114506 0)
(1.04806 -0.00902484 9.98097e-24)
(1.04402 -0.00677184 -1.29701e-23)
(1.04118 -0.00470157 0)
(1.03939 -0.00275572 0)
(1.03855 -0.000917275 -3.04793e-23)
(1.02472 -4.47587e-05 0)
(1.02454 2.28299e-05 0)
(1.02429 -6.25973e-05 0)
(1.02376 -0.000288728 0)
(1.02274 -0.000810195 0)
(1.02074 -0.00170542 0)
(1.01707 -0.0029549 -4.90773e-24)
(1.01153 -0.00414254 0)
(1.00373 -0.00508482 0)
(0.992625 -0.00605041 0)
(0.97606 -0.00735506 0)
(0.950892 -0.00895158 0)
(0.913494 -0.00947441 0)
(0.864635 -0.00374559 3.85189e-21)
(0.785095 0.0119152 -5.20407e-23)
(0.68769 0.0398936 -3.60928e-22)
(0.616101 0.0538204 0)
(0.582006 0.0473518 0)
(0.589353 0.0233014 1.88948e-21)
(0.668892 -0.0147036 3.38946e-20)
(0.818489 -0.0652936 1.05848e-19)
(0.987143 -0.0818061 -1.67231e-20)
(1.1509 -0.149668 0)
(1.27786 -0.184401 0)
(1.3485 -0.197162 0)
(1.31696 -0.154489 -2.65288e-24)
(1.23193 -0.10785 3.01223e-22)
(1.17474 -0.0790856 -3.82048e-23)
(1.13762 -0.0611652 0)
(1.11028 -0.0477815 0)
(1.09027 -0.0392453 0)
(1.07542 -0.0325554 0)
(1.06414 -0.0268429 4.37996e-23)
(1.05539 -0.0215159 1.79491e-23)
(1.04873 -0.0166477 9.04255e-25)
(1.04385 -0.0125465 0)
(1.04033 -0.00907364 0)
(1.03786 -0.00611553 0)
(1.03629 -0.00352651 0)
(1.03551 -0.00110143 0)
(1.02523 -0.000228963 0)
(1.02519 -0.000950847 0)
(1.0252 -0.00194896 0)
(1.02517 -0.00331526 0)
(1.02491 -0.00528369 0)
(1.02384 -0.00807086 0)
(1.02105 -0.011905 0)
(1.01637 -0.0169043 0)
(1.00997 -0.0235693 -4.99246e-24)
(1.00107 -0.0327302 0)
(0.987292 -0.045787 0)
(0.964758 -0.0644869 0)
(0.923626 -0.0869783 -3.25247e-21)
(0.858381 -0.111111 -1.51701e-20)
(0.783752 -0.121345 0)
(0.717141 -0.150778 0)
(0.687375 -0.221018 0)
(0.672801 -0.294832 0)
(0.681686 -0.370299 6.84606e-21)
(0.744991 -0.429789 8.84577e-21)
(0.879252 -0.47454 -4.93187e-20)
(1.02014 -0.46918 2.01233e-20)
(1.1465 -0.464313 0)
(1.22836 -0.408878 0)
(1.24969 -0.33342 0)
(1.2097 -0.24185 0)
(1.15964 -0.171937 1.41013e-21)
(1.12864 -0.127052 2.10445e-22)
(1.1067 -0.094857 0)
(1.08865 -0.0722173 -1.25522e-24)
(1.07467 -0.0561854 3.13024e-25)
(1.06335 -0.0441428 3.73379e-24)
(1.05405 -0.0346666 0)
(1.04664 -0.0268826 0)
(1.04135 -0.020382 0)
(1.03776 -0.0150933 0)
(1.03527 -0.0107515 0)
(1.03357 -0.00710855 0)
(1.03254 -0.00402358 0)
(1.03208 -0.00120441 0)
(1.0262 -0.000377459 0)
(1.02666 -0.00147323 0)
(1.02728 -0.00293581 0)
(1.02809 -0.0049311 0)
(1.02903 -0.00772368 0)
(1.0296 -0.0116521 0)
(1.0289 -0.0171576 0)
(1.02704 -0.0247162 0)
(1.02505 -0.0353586 0)
(1.02283 -0.0505647 0)
(1.01854 -0.0724742 1.02787e-23)
(1.00753 -0.104463 -4.73914e-22)
(0.972604 -0.147146 -7.44839e-21)
(0.905061 -0.20018 -1.88375e-22)
(0.84343 -0.249846 0)
(0.81662 -0.317368 0)
(0.804519 -0.400106 0)
(0.783147 -0.466936 0)
(0.780192 -0.527737 2.00688e-20)
(0.804556 -0.569712 -3.18562e-20)
(0.883426 -0.586757 1.76199e-21)
(0.970501 -0.561474 -1.6359e-20)
(1.04812 -0.512773 0)
(1.0899 -0.429866 0)
(1.10149 -0.336571 0)
(1.08477 -0.251257 0)
(1.07466 -0.189041 -1.31151e-21)
(1.06999 -0.14304 -1.83213e-21)