/*--------------------------------*- C++ -*----------------------------------*\
| =========                 |                                                 |
| \\      /  F ield         | OpenFOAM: The Open Source CFD Toolbox           |
|  \\    /   O peration     | Version:  v2106                                 |
|   \\  /    A nd           | Website:  www.openfoam.com                      |
|    \\/     M anipulation  |                                                 |
\*---------------------------------------------------------------------------*/
FoamFile
{
    version     2.0;
    format      ascii;
    arch        "LSB;label=32;scalar=64";
    class       pointVectorField;
    location    "0";
    object      pointDisplacement;
}
// * * * * * * * * * * * * * * * * * * * * * * * * * * * * * * * * * * * * * //

dimensions      [0 1 0 0 0 0 0];

internalField   nonuniform List<vector> 
24440
(
(0 0 0)
(0 0 0)
(0 0 0)
(0 0 0)
(0 0 0)
(0 0 0)
(0 0 0)
(0 0 0)
(0 0 0)
(0 0 0)
(0 0 0)
(0 0 0)
(0 0 0)
(0 0 0)
(0 0 0)
(0 0 0)
(0 0 0)
(0 0 0)
(0 0 0)
(0 0 0)
(0 0 0)
(0 0 0)
(0 0 0)
(0 0 0)
(0 0 0)
(0 0 0)
(0 0 0)
(0 0 0)
(0 0 0)
(0 0 0)
(0 0 0)
(0 0 0)
(0 0 0)
(0 0 0)
(0 0 0)
(0 0 0)
(0 0 0)
(0 0 0)
(0 0 0)
(0 0 0)
(0 0 0)
(0 0 0)
(0 0 0)
(0 0 0)
(0 0 0)
(0 0 0)
(0 0 0)
(0 0 0)
(0 0 0)
(0 0 0)
(0 0 0)
(0 0 0)
(0 0 0)
(0 0 0)
(0 0 0)
(0 0 0)
(0 0 0)
(0 0 0)
(0 0 0)
(0 0 0)
(0 0 0)
(0 0 0)
(0 0 0)
(0 0 0)
(0 0 0)
(0 0 0)
(0 0 0)
(0 0 0)
(0 0 0)
(0 0 0)
(0 0 0)
(0 0 0)
(0 0 0)
(0 0 0)
(0 0 0)
(0 0 0)
(0 0 0)
(0 0 0)
(0 0 0)
(0 0 0)
(0 0 0)
(0 0 0)
(0 0 0)
(0 0 0)
(0 0 0)
(0 0 0)
(0 0 0)
(0 0 0)
(0 0 0)
(0 0 0)
(0 0 0)
(0 0 0)
(0 0 0)
(0 0 0)
(0 0 0)
(0 0 0)
(0 0 0)
(0 0 0)
(0 -5.9757e-06 0)
(0 -3.76831e-05 0)
(0 -0.000103621 0)
(0 -0.000159674 0)
(0 -0.000181186 0)
(0 -0.000159674 0)
(0 -0.000103621 0)
(0 -3.76831e-05 0)
(0 -5.9757e-06 0)
(0 0 0)
(0 0 0)
(0 0 0)
(0 0 0)
(0 0 0)
(0 0 0)
(0 0 0)
(0 0 0)
(0 0 0)
(0 0 0)
(0 0 0)
(0 0 0)
(0 0 0)
(0 0 0)
(0 0 0)
(0 0 0)
(0 0 0)
(0 0 0)
(0 0 0)
(0 0 0)
(0 0 0)
(0 0 0)
(0 0 0)
(0 0 0)
(0 0 0)
(0 0 0)
(0 0 0)
(0 0 0)
(0 0 0)
(0 -1.00077e-05 0)
(0 -0.000132385 0)
(0 -0.000389599 0)
(0 -0.000701837 0)
(0 -0.0010011 0)
(0 -0.00120974 0)
(0 -0.00140368 0)
(0 -0.00147192 0)
(0 -0.00140368 0)
(0 -0.00120974 0)
(0 -0.0010011 0)
(0 -0.000701837 0)
(0 -0.000389599 0)
(0 -0.000132385 0)
(0 -1.00077e-05 0)
(0 0 0)
(0 0 0)
(0 0 0)
(0 0 0)
(0 0 0)
(0 0 0)
(0 0 0)
(0 0 0)
(0 0 0)
(0 0 0)
(0 0 0)
(0 0 0)
(0 0 0)
(0 0 0)
(0 0 0)
(0 0 0)
(0 0 0)
(0 0 0)
(0 0 0)
(0 0 0)
(0 0 0)
(0 0 0)
(0 0 0)
(0 0 0)
(0 -4.2018e-06 0)
(0 -0.000174099 0)
(0 -0.000593731 0)
(0 -0.00117083 0)
(0 -0.00176524 0)
(0 -0.00242838 0)
(0 -0.00300272 0)
(0 -0.00335842 0)
(0 -0.00369854 0)
(0 -0.00381609 0)
(0 -0.00369854 0)
(0 -0.00335842 0)
(0 -0.00300272 0)
(0 -0.00242838 0)
(0 -0.00176524 0)
(0 -0.00117083 0)
(0 -0.000593731 0)
(0 -0.000174099 0)
(0 -4.2018e-06 0)
(0 0 0)
(0 0 0)
(0 0 0)
(0 0 0)
(0 0 0)
(0 0 0)
(0 0 0)
(0 0 0)
(0 0 0)
(0 0 0)
(0 0 0)
(0 0 0)
(0 0 0)
(0 0 0)
(0 0 0)
(0 0 0)
(0 0 0)
(0 0 0)
(0 0 0)
(0 0 0)
(0 0 0)
(0 -3.973e-05 0)
(0 -0.00041317 0)
(0 -0.00109802 0)
(0 -0.00192649 0)
(0 -0.00295513 0)
(0 -0.0039926 0)
(0 -0.00489137 0)
(0 -0.00573331 0)
(0 -0.00633076 0)
(0 -0.00668772 0)
(0 -0.00685157 0)
(0 -0.00668772 0)
(0 -0.00633076 0)
(0 -0.00573331 0)
(0 -0.00489137 0)
(0 -0.0039926 0)
(0 -0.00295513 0)
(0 -0.00192649 0)
(0 -0.00109802 0)
(0 -0.00041317 0)
(0 -4.2061e-05 0)
(0 0 0)
(0 0 0)
(0 0 0)
(0 0 0)
(0 0 0)
(0 0 0)
(0 0 0)
(0 0 0)
(0 0 0)
(0 0 0)
(0 0 0)
(0 0 0)
(0 0 0)
(0 0 0)
(0 0 0)
(0 0 0)
(0 0 0)
(0 0 0)
(0 0 0)
(0 -7.81401e-05 0)
(0 -0.000547918 0)
(0 -0.00136753 0)
(0 -0.00251058 0)
(0 -0.00386905 0)
(0 -0.00528071 0)
(0 -0.00657615 0)
(0 -0.00780426 0)
(0 -0.00826573 0)
(0 -0.00876478 0)
(0 -0.00918221 0)
(0 -0.0095111 0)
(0 -0.00974629 0)
(0 -0.00990892 0)
(0 -0.0100592 0)
(0 -0.0101095 0)
(0 -0.0100592 0)
(0 -0.00990892 0)
(0 -0.00974629 0)
(0 -0.0095111 0)
(0 -0.00918221 0)
(0 -0.00876478 0)
(0 -0.00826573 0)
(0 -0.00780426 0)
(0 -0.00657615 0)
(0 -0.00528071 0)
(0 -0.00386905 0)
(0 -0.00251058 0)
(0 -0.00133915 0)
(0 -0.000495099 0)
(0 -6.2439e-05 0)
(0 0 0)
(0 0 0)
(0 0 0)
(0 0 0)
(0 0 0)
(0 0 0)
(0 0 0)
(0 0 0)
(0 0 0)
(0 0 0)
(0 0 0)
(0 0 0)
(0 0 0)
(0 0 0)
(0 0 0)
(0 0 0)
(0 0 0)
(0 -4.59607e-05 0)
(0 -0.000525972 0)
(0 -0.00146545 0)
(0 -0.00275755 0)
(0 -0.00427103 0)
(0 -0.00605175 0)
(0 -0.0069032 0)
(0 -0.0076579 0)
(0 -0.0084932 0)
(0 -0.00927614 0)
(0 -0.00999247 0)
(0 -0.010601 0)
(0 -0.00923895 0)
(0 -0.00980304 0)
(0 -0.0102482 0)
(0 -0.0106973 0)
(0 -0.0110495 0)
(0 -0.0113005 0)
(0 -0.011451 0)
(0 -0.0116105 0)
(0 -0.0116638 0)
(0 -0.0116105 0)
(0 -0.011451 0)
(0 -0.0113005 0)
(0 -0.0110495 0)
(0 -0.0106973 0)
(0 -0.0102482 0)
(0 -0.00980304 0)
(0 -0.00923895 0)
(0 -0.010601 0)
(0 -0.00999247 0)
(0 -0.00927614 0)
(0 -0.0084932 0)
(0 -0.0076579 0)
(0 -0.0069032 0)
(0 -0.00605175 0)
(0 -0.00427103 0)
(0 -0.00275755 0)
(0 -0.00141199 0)
(0 -0.000503088 0)
(0 -4.1739e-05 0)
(0 0 0)
(0 0 0)
(0 0 0)
(0 0 0)
(0 0 0)
(0 0 0)
(0 0 0)
(0 0 0)
(0 0 0)
(0 0 0)
(0 0 0)
(0 0 0)
(0 0 0)
(0 0 0)
(0 0 0)
(0 0 0)
(0 -0.000290802 0)
(0 -0.0011884 0)
(0 -0.00254065 0)
(0 -0.00423921 0)
(0 -0.00613103 0)
(0 -0.00805332 0)
(0 -0.00708839 0)
(0 -0.0080143 0)
(0 -0.00890527 0)
(0 -0.00974419 0)
(0 -0.0104895 0)
(0 -0.0112454 0)
(0 -0.0119134 0)
(0 -0.0124653 0)
(0 -0.0112004 0)
(0 -0.0117053 0)
(0 -0.0129856 0)
(0 -0.0133603 0)
(0 -0.0121069 0)
(0 -0.0124744 0)
(0 -0.0137329 0)
(0 -0.0139952 0)
(0 -0.0127351 0)
(0 -0.0128672 0)
(0 -0.0141472 0)
(0 -0.0142679 0)
(0 -0.0130317 0)
(0 -0.0130866 0)
(0 -0.0143224 0)
(0 -0.0142679 0)
(0 -0.0130317 0)
(0 -0.0128672 0)
(0 -0.0141472 0)
(0 -0.0139952 0)
(0 -0.0127351 0)
(0 -0.0124744 0)
(0 -0.0137329 0)
(0 -0.0133603 0)
(0 -0.0121069 0)
(0 -0.0117053 0)
(0 -0.0129856 0)
(0 -0.0124653 0)
(0 -0.0112004 0)
(0 -0.0119134 0)
(0 -0.0112454 0)
(0 -0.0104895 0)
(0 -0.00974419 0)
(0 -0.00890527 0)
(0 -0.0080143 0)
(0 -0.00708839 0)
(0 -0.00805332 0)
(0 -0.00613103 0)
(0 -0.00418818 0)
(0 -0.00252059 0)
(0 -0.00118714 0)
(0 -0.000316148 0)
(0 0 0)
(0 0 0)
(0 0 0)
(0 0 0)
(0 0 0)
(0 0 0)
(0 0 0)
(0 0 0)
(0 0 0)
(0 0 0)
(0 0 0)
(0 0 0)
(0 0 0)
(0 0 0)
(0 0 0)
(0 -6.34381e-05 0)
(0 -0.000651744 0)
(0 -0.00187864 0)
(0 -0.00351982 0)
(0 -0.00547089 0)
(0 -0.00770622 0)
(0 -0.00985937 0)
(0 -0.00902143 0)
(0 -0.00999685 0)
(0 -0.00897633 0)
(0 -0.00998027 0)
(0 -0.0109137 0)
(0 -0.0118335 0)
(0 -0.0108638 0)
(0 -0.0116707 0)
(0 -0.0126627 0)
(0 -0.0130409 0)
(0 -0.0133928 0)
(0 -0.0129143 0)
(0 -0.0123518 0)
(0 -0.0130372 0)
(0 -0.0135288 0)
(0 -0.0138325 0)
(0 -0.0133407 0)
(0 -0.014079 0)
(0 -0.0145453 0)
(0 -0.014761 0)
(0 -0.014298 0)
(0 -0.0147808 0)
(0 -0.0152369 0)
(0 -0.0153506 0)
(0 -0.0149213 0)
(0 -0.0151795 0)
(0 -0.0155975 0)
(0 -0.015657 0)
(0 -0.0152486 0)
(0 -0.015323 0)
(0 -0.0157225 0)
(0 -0.0157104 0)
(0 -0.0153102 0)
(0 -0.0151795 0)
(0 -0.0155975 0)
(0 -0.0155411 0)
(0 -0.0151202 0)
(0 -0.0147808 0)
(0 -0.0152369 0)
(0 -0.0151063 0)
(0 -0.0146513 0)
(0 -0.014079 0)
(0 -0.0145453 0)
(0 -0.0143548 0)
(0 -0.0138317 0)
(0 -0.0130372 0)
(0 -0.0135288 0)
(0 -0.0131976 0)
(0 -0.0127073 0)
(0 -0.0116707 0)
(0 -0.0126627 0)
(0 -0.0118335 0)
(0 -0.0108638 0)
(0 -0.00998027 0)
(0 -0.0109137 0)
(0 -0.00999685 0)
(0 -0.00897633 0)
(0 -0.00902143 0)
(0 -0.00981496 0)
(0 -0.0077009 0)
(0 -0.00555907 0)
(0 -0.00349026 0)
(0 -0.00186035 0)
(0 -0.000684409 0)
(0 -7.25447e-05 0)
(0 0 0)
(0 0 0)
(0 0 0)
(0 0 0)
(0 0 0)
(0 0 0)
(0 0 0)
(0 0 0)
(0 0 0)
(0 0 0)
(0 0 0)
(0 0 0)
(0 0 0)
(0 0 0)
(0 -0.000207555 0)
(0 -0.00105045 0)
(0 -0.00246808 0)
(0 -0.00433674 0)
(0 -0.00649625 0)
(0 -0.00887149 0)
(0 -0.0110883 0)
(0 -0.0105413 0)
(0 -0.0115845 0)
(0 -0.0108746 0)
(0 -0.0118224 0)
(0 -0.012552 0)
(0 -0.0134258 0)
(0 -0.0126858 0)
(0 -0.0134506 0)
(0 -0.0138468 0)
(0 -0.0141875 0)
(0 -0.0138463 0)
(0 -0.014809 0)
(0 -0.0149729 0)
(0 -0.0151052 0)
(0 -0.0149427 0)
(0 -0.0156768 0)
(0 -0.0158079 0)
(0 -0.015893 0)
(0 -0.0157646 0)
(0 -0.0161905 0)
(0 -0.016286 0)
(0 -0.0163294 0)
(0 -0.0162331 0)
(0 -0.0164156 0)
(0 -0.0164857 0)
(0 -0.0164957 0)
(0 -0.0164277 0)
(0 -0.0164732 0)
(0 -0.0165297 0)
(0 -0.0165287 0)
(0 -0.0164718 0)
(0 -0.0164156 0)
(0 -0.0164857 0)
(0 -0.0164719 0)
(0 -0.0163992 0)
(0 -0.0161905 0)
(0 -0.016286 0)
(0 -0.0162497 0)
(0 -0.0161392 0)
(0 -0.0156768 0)
(0 -0.0158079 0)
(0 -0.0157338 0)
(0 -0.0155813 0)
(0 -0.014809 0)
(0 -0.0149729 0)
(0 -0.0151229 0)
(0 -0.0148375 0)
(0 -0.0145183 0)
(0 -0.0134506 0)
(0 -0.0138468 0)
(0 -0.0141909 0)
(0 -0.0134258 0)
(0 -0.0126858 0)
(0 -0.0118224 0)
(0 -0.0125233 0)
(0 -0.0115771 0)
(0 -0.0108746 0)
(0 -0.010554 0)
(0 -0.0111212 0)
(0 -0.00884919 0)
(0 -0.00656096 0)
(0 -0.00438221 0)
(0 -0.00249667 0)
(0 -0.00106544 0)
(0 -0.000212675 0)
(0 0 0)
(0 0 0)
(0 0 0)
(0 0 0)
(0 0 0)
(0 0 0)
(0 0 0)
(0 0 0)
(0 0 0)
(0 0 0)
(0 0 0)
(0 0 0)
(0 0 0)
(0 0 0)
(0 -0.000320044 0)
(0 -0.00130494 0)
(0 -0.00287168 0)
(0 -0.00488795 0)
(0 -0.00718394 0)
(0 -0.00956674 0)
(0 -0.0118369 0)
(0 -0.0115556 0)
(0 -0.0125906 0)
(0 -0.0121101 0)
(0 -0.013047 0)
(0 -0.0135334 0)
(0 -0.0143657 0)
(0 -0.0139637 0)
(0 -0.0147214 0)
(0 -0.0149085 0)
(0 -0.0152346 0)
(0 -0.0150518 0)
(0 -0.0158369 0)
(0 -0.0159233 0)
(0 -0.0160209 0)
(0 -0.0159372 0)
(0 -0.0164386 0)
(0 -0.0164803 0)
(0 -0.0165152 0)
(0 -0.0164784 0)
(0 -0.0165827 0)
(0 -0.0165827 0)
(0 -0.0165827 0)
(0 -0.0165827 0)
(0 -0.0165827 0)
(0 -0.0165827 0)
(0 -0.0165827 0)
(0 -0.0165827 0)
(0 -0.0165827 0)
(0 -0.0165827 0)
(0 -0.0165827 0)
(0 -0.0165827 0)
(0 -0.0165827 0)
(0 -0.0165827 0)
(0 -0.0165827 0)
(0 -0.0165827 0)
(0 -0.0165827 0)
(0 -0.0165827 0)
(0 -0.0165827 0)
(0 -0.0165827 0)
(0 -0.0164386 0)
(0 -0.0164803 0)
(0 -0.0164344 0)
(0 -0.0163908 0)
(0 -0.0158369 0)
(0 -0.0159233 0)
(0 -0.0159972 0)
(0 -0.0157717 0)
(0 -0.0156101 0)
(0 -0.0147128 0)
(0 -0.0149303 0)
(0 -0.0150963 0)
(0 -0.0143458 0)
(0 -0.0139761 0)
(0 -0.0131214 0)
(0 -0.0135166 0)
(0 -0.0125772 0)
(0 -0.0121636 0)
(0 -0.0115458 0)
(0 -0.0118428 0)
(0 -0.00956281 0)
(0 -0.00717252 0)
(0 -0.00487228 0)
(0 -0.00285533 0)
(0 -0.00129142 0)
(0 -0.00031236 0)
(0 0 0)
(0 0 0)
(0 0 0)
(0 0 0)
(0 0 0)
(0 0 0)
(0 0 0)
(0 0 0)
(0 0 0)
(0 0 0)
(0 0 0)
(0 0 0)
(0 0 0)
(0 0 0)
(0 -0.000339318 0)
(0 -0.00134666 0)
(0 -0.00293744 0)
(0 -0.00497798 0)
(0 -0.00729684 0)
(0 -0.00969919 0)
(0 -0.0119832 0)
(0 -0.0119874 0)
(0 -0.0130234 0)
(0 -0.0128698 0)
(0 -0.0138057 0)
(0 -0.0139594 0)
(0 -0.0147758 0)
(0 -0.0146255 0)
(0 -0.015339 0)
(0 -0.0154079 0)
(0 -0.015694 0)
(0 -0.0156319 0)
(0 -0.0162776 0)
(0 -0.0163042 0)
(0 -0.0163748 0)
(0 -0.0163502 0)
(0 -0.0165827 0)
(0 -0.0165827 0)
(0 -0.0165827 0)
(0 -0.0165827 0)
(0 -0.0165827 0)
(0 -0.0165827 0)
(0 -0.0165827 0)
(0 -0.0165827 0)
(0 -0.0165827 0)
(0 -0.0165827 0)
(0 -0.0165827 0)
(0 -0.0165827 0)
(0 -0.0165827 0)
(0 -0.0165827 0)
(0 -0.0165827 0)
(0 -0.0165827 0)
(0 -0.0165827 0)
(0 -0.016582 0)
(0 -0.0165796 0)
(0 -0.0162776 0)
(0 -0.0163042 0)
(0 -0.0163217 0)
(0 -0.0161559 0)
(0 -0.0160974 0)
(0 -0.0153381 0)
(0 -0.0154089 0)
(0 -0.0154553 0)
(0 -0.0147758 0)
(0 -0.0146467 0)
(0 -0.0138222 0)
(0 -0.0139243 0)
(0 -0.012983 0)
(0 -0.0128811 0)
(0 -0.0119427 0)
(0 -0.0119564 0)
(0 -0.00966936 0)
(0 -0.00726656 0)
(0 -0.00494986 0)
(0 -0.00291391 0)
(0 -0.00132978 0)
(0 -0.000330574 0)
(0 0 0)
(0 0 0)
(0 0 0)
(0 0 0)
(0 0 0)
(0 0 0)
(0 0 0)
(0 0 0)
(0 0 0)
(0 0 0)
(0 0 0)
(0 0 0)
(0 0 0)
(0 0 0)
(0 -0.000277302 0)
(0 -0.00121192 0)
(0 -0.00272654 0)
(0 -0.00469197 0)
(0 -0.00694179 0)
(0 -0.00928686 0)
(0 -0.0115319 0)
(0 -0.011856 0)
(0 -0.0128902 0)
(0 -0.01302 0)
(0 -0.0139569 0)
(0 -0.013827 0)
(0 -0.0146473 0)
(0 -0.0147743 0)
(0 -0.0154547 0)
(0 -0.0154183 0)
(0 -0.0157043 0)
(0 -0.015739 0)
(0 -0.0163508 0)
(0 -0.0163422 0)
(0 -0.0164084 0)
(0 -0.0164162 0)
(0 -0.0165827 0)
(0 -0.0165827 0)
(0 -0.0165827 0)
(0 -0.0165827 0)
(0 -0.0165827 0)
(0 -0.0165827 0)
(0 -0.0165827 0)
(0 -0.0165827 0)
(0 -0.0165827 0)
(0 -0.0165827 0)
(0 -0.0165827 0)
(0 -0.0165827 0)
(0 -0.0165827 0)
(0 -0.0165827 0)
(0 -0.0165827 0)
(0 -0.0165827 0)
(0 -0.0163508 0)
(0 -0.0163351 0)
(0 -0.0163265 0)
(0 -0.0161611 0)
(0 -0.0161799 0)
(0 -0.0154403 0)
(0 -0.0154171 0)
(0 -0.0153468 0)
(0 -0.0146573 0)
(0 -0.0147562 0)
(0 -0.0139355 0)
(0 -0.0138344 0)
(0 -0.0128946 0)
(0 -0.0129956 0)
(0 -0.0118574 0)
(0 -0.0115612 0)
(0 -0.0093084 0)
(0 -0.00695586 0)
(0 -0.00469971 0)
(0 -0.00272962 0)
(0 -0.00121222 0)
(0 -0.000276696 0)
(0 0 0)
(0 0 0)
(0 0 0)
(0 0 0)
(0 0 0)
(0 0 0)
(0 0 0)
(0 0 0)
(0 0 0)
(0 0 0)
(0 0 0)
(0 0 0)
(0 0 0)
(0 0 0)
(0 -0.000140255 0)
(0 -0.000880968 0)
(0 -0.00219123 0)
(0 -0.00395337 0)
(0 -0.00614638 0)
(0 -0.00838885 0)
(0 -0.0105762 0)
(0 -0.0111563 0)
(0 -0.0121932 0)
(0 -0.0125587 0)
(0 -0.013555 0)
(0 -0.0131446 0)
(0 -0.0139926 0)
(0 -0.0144002 0)
(0 -0.015118 0)
(0 -0.014946 0)
(0 -0.0152579 0)
(0 -0.015425 0)
(0 -0.0161255 0)
(0 -0.0160765 0)
(0 -0.0161655 0)
(0 -0.0162178 0)
(0 -0.0165626 0)
(0 -0.0165456 0)
(0 -0.0165659 0)
(0 -0.0165765 0)
(0 -0.0165827 0)
(0 -0.0165827 0)
(0 -0.0165827 0)
(0 -0.0165827 0)
(0 -0.0165827 0)
(0 -0.0165827 0)
(0 -0.0165827 0)
(0 -0.0165827 0)
(0 -0.0165626 0)
(0 -0.0165431 0)
(0 -0.0165162 0)
(0 -0.0165403 0)
(0 -0.0161255 0)
(0 -0.0160765 0)
(0 -0.01601 0)
(0 -0.0157991 0)
(0 -0.0159294 0)
(0 -0.015118 0)
(0 -0.014946 0)
(0 -0.0147506 0)
(0 -0.0139926 0)
(0 -0.0144002 0)
(0 -0.0135298 0)
(0 -0.0131446 0)
(0 -0.0121932 0)
(0 -0.0125916 0)
(0 -0.0111563 0)
(0 -0.0105762 0)
(0 -0.00838885 0)
(0 -0.00606717 0)
(0 -0.00399223 0)
(0 -0.00221671 0)
(0 -0.000894918 0)
(0 -0.000144969 0)
(0 0 0)
(0 0 0)
(0 0 0)
(0 0 0)
(0 0 0)
(0 0 0)
(0 0 0)
(0 0 0)
(0 0 0)
(0 0 0)
(0 0 0)
(0 0 0)
(0 0 0)
(0 0 0)
(0 -1.73545e-05 0)
(0 -0.000515164 0)
(0 -0.00156873 0)
(0 -0.00308477 0)
(0 -0.00492467 0)
(0 -0.00692697 0)
(0 -0.00902807 0)
(0 -0.00982475 0)
(0 -0.0108931 0)
(0 -0.0115936 0)
(0 -0.0125832 0)
(0 -0.0118284 0)
(0 -0.0127651 0)
(0 -0.0134439 0)
(0 -0.0142346 0)
(0 -0.0139175 0)
(0 -0.0142668 0)
(0 -0.0145812 0)
(0 -0.0154299 0)
(0 -0.0152887 0)
(0 -0.0154171 0)
(0 -0.0155344 0)
(0 -0.0161799 0)
(0 -0.016087 0)
(0 -0.0161548 0)
(0 -0.0162441 0)
(0 -0.0165153 0)
(0 -0.0164633 0)
(0 -0.0164861 0)
(0 -0.0165336 0)
(0 -0.0165827 0)
(0 -0.0165735 0)
(0 -0.0165771 0)
(0 -0.0165827 0)
(0 -0.0165827 0)
(0 -0.0165827 0)
(0 -0.0165827 0)
(0 -0.0165827 0)
(0 -0.0165827 0)
(0 -0.0165827 0)
(0 -0.0165735 0)
(0 -0.0165684 0)
(0 -0.0165821 0)
(0 -0.0165826 0)
(0 -0.0165153 0)
(0 -0.0164633 0)
(0 -0.0164351 0)
(0 -0.0164917 0)
(0 -0.0161799 0)
(0 -0.016087 0)
(0 -0.0160115 0)
(0 -0.0161077 0)
(0 -0.0154412 0)
(0 -0.0153116 0)
(0 -0.0151558 0)
(0 -0.0148983 0)
(0 -0.0151783 0)
(0 -0.0141955 0)
(0 -0.0139014 0)
(0 -0.0135579 0)
(0 -0.0127476 0)
(0 -0.0134439 0)
(0 -0.0125832 0)
(0 -0.0118284 0)
(0 -0.0108931 0)
(0 -0.0115936 0)
(0 -0.00982475 0)
(0 -0.00902807 0)
(0 -0.00692697 0)
(0 -0.00492467 0)
(0 -0.00308477 0)
(0 -0.00156873 0)
(0 -0.000480545 0)
(0 -2.08459e-05 0)
(0 0 0)
(0 0 0)
(0 0 0)
(0 0 0)
(0 0 0)
(0 0 0)
(0 0 0)
(0 0 0)
(0 0 0)
(0 0 0)
(0 0 0)
(0 0 0)
(0 0 0)
(0 0 0)
(0 0 0)
(0 -0.000158347 0)
(0 -0.000834427 0)
(0 -0.00196322 0)
(0 -0.00342698 0)
(0 -0.00525587 0)
(0 -0.00714682 0)
(0 -0.00803886 0)
(0 -0.00909147 0)
(0 -0.0099916 0)
(0 -0.0109674 0)
(0 -0.0100391 0)
(0 -0.0109251 0)
(0 -0.0118847 0)
(0 -0.0127151 0)
(0 -0.0117339 0)
(0 -0.012411 0)
(0 -0.0129732 0)
(0 -0.0134458 0)
(0 -0.0130936 0)
(0 -0.0140742 0)
(0 -0.0135829 0)
(0 -0.0138866 0)
(0 -0.0143521 0)
(0 -0.0150477 0)
(0 -0.0146265 0)
(0 -0.0147949 0)
(0 -0.0152316 0)
(0 -0.0156641 0)
(0 -0.0152908 0)
(0 -0.0154005 0)
(0 -0.0157676 0)
(0 -0.0159838 0)
(0 -0.0156393 0)
(0 -0.0157001 0)
(0 -0.0160262 0)
(0 -0.0160828 0)
(0 -0.0157647 0)
(0 -0.0157483 0)
(0 -0.0160698 0)
(0 -0.0159838 0)
(0 -0.0156393 0)
(0 -0.0155531 0)
(0 -0.0159174 0)
(0 -0.0156641 0)
(0 -0.0152908 0)
(0 -0.0151538 0)
(0 -0.0155337 0)
(0 -0.0150477 0)
(0 -0.0146265 0)
(0 -0.0144086 0)
(0 -0.0148345 0)
(0 -0.0140742 0)
(0 -0.0135829 0)
(0 -0.0132977 0)
(0 -0.0137707 0)
(0 -0.0127151 0)
(0 -0.0117339 0)
(0 -0.0109251 0)
(0 -0.0118847 0)
(0 -0.0109674 0)
(0 -0.0100391 0)
(0 -0.00909147 0)
(0 -0.0099916 0)
(0 -0.00803886 0)
(0 -0.00714682 0)
(0 -0.00525587 0)
(0 -0.00342698 0)
(0 -0.00196322 0)
(0 -0.000834427 0)
(0 -0.000158347 0)
(0 0 0)
(0 0 0)
(0 0 0)
(0 0 0)
(0 0 0)
(0 0 0)
(0 0 0)
(0 0 0)
(0 0 0)
(0 0 0)
(0 0 0)
(0 0 0)
(0 0 0)
(0 0 0)
(0 0 0)
(0 0 0)
(0 0 0)
(0 -0.000238621 0)
(0 -0.000985326 0)
(0 -0.00211226 0)
(0 -0.00350988 0)
(0 -0.00504073 0)
(0 -0.00655191 0)
(0 -0.00772462 0)
(0 -0.00897162 0)
(0 -0.00807693 0)
(0 -0.00856386 0)
(0 -0.00981376 0)
(0 -0.0105566 0)
(0 -0.00935022 0)
(0 -0.0100694 0)
(0 -0.0113146 0)
(0 -0.0119842 0)
(0 -0.0113646 0)
(0 -0.0116038 0)
(0 -0.0122829 0)
(0 -0.0130449 0)
(0 -0.0124357 0)
(0 -0.0126617 0)
(0 -0.0132727 0)
(0 -0.0137919 0)
(0 -0.0131791 0)
(0 -0.0132802 0)
(0 -0.0139098 0)
(0 -0.0142398 0)
(0 -0.0136514 0)
(0 -0.0137201 0)
(0 -0.014308 0)
(0 -0.0143881 0)
(0 -0.0138034 0)
(0 -0.0137751 0)
(0 -0.0143624 0)
(0 -0.0142398 0)
(0 -0.0136514 0)
(0 -0.0135552 0)
(0 -0.0141442 0)
(0 -0.0137919 0)
(0 -0.0131791 0)
(0 -0.0130338 0)
(0 -0.0136464 0)
(0 -0.0130449 0)
(0 -0.0124357 0)
(0 -0.0121835 0)
(0 -0.0127902 0)
(0 -0.0119842 0)
(0 -0.0113646 0)
(0 -0.0106485 0)
(0 -0.0100694 0)
(0 -0.0113146 0)
(0 -0.0105566 0)
(0 -0.00935022 0)
(0 -0.00856386 0)
(0 -0.00981376 0)
(0 -0.00897162 0)
(0 -0.00772462 0)
(0 -0.00655191 0)
(0 -0.00504073 0)
(0 -0.00807693 0)
(0 -0.00350988 0)
(0 -0.00211226 0)
(0 -0.000985326 0)
(0 -0.000238621 0)
(0 0 0)
(0 0 0)
(0 0 0)
(0 0 0)
(0 0 0)
(0 0 0)
(0 0 0)
(0 0 0)
(0 0 0)
(0 0 0)
(0 0 0)
(0 0 0)
(0 0 0)
(0 0 0)
(0 0 0)
(0 0 0)
(0 0 0)
(0 0 0)
(0 -3.02602e-06 0)
(0 -0.000271082 0)
(0 -0.000918609 0)
(0 -0.00180014 0)
(0 -0.00294645 0)
(0 -0.00416897 0)
(0 -0.00535099 0)
(0 -0.00604101 0)
(0 -0.00732181 0)
(0 -0.00804796 0)
(0 -0.00662267 0)
(0 -0.00727891 0)
(0 -0.00864628 0)
(0 -0.00930231 0)
(0 -0.00859736 0)
(0 -0.00888591 0)
(0 -0.00960229 0)
(0 -0.0103756 0)
(0 -0.00963172 0)
(0 -0.00983698 0)
(0 -0.0105879 0)
(0 -0.0110689 0)
(0 -0.010324 0)
(0 -0.0104898 0)
(0 -0.0112395 0)
(0 -0.0115972 0)
(0 -0.0108379 0)
(0 -0.0109029 0)
(0 -0.0116638 0)
(0 -0.0117517 0)
(0 -0.0109908 0)
(0 -0.010955 0)
(0 -0.0117173 0)
(0 -0.0115972 0)
(0 -0.0108379 0)
(0 -0.0107472 0)
(0 -0.0115041 0)
(0 -0.0110689 0)
(0 -0.010324 0)
(0 -0.0101341 0)
(0 -0.0109396 0)
(0 -0.0103756 0)
(0 -0.00963172 0)
(0 -0.00940417 0)
(0 -0.01014 0)
(0 -0.00930231 0)
(0 -0.00859736 0)
(0 -0.00787966 0)
(0 -0.00727891 0)
(0 -0.00864628 0)
(0 -0.00804796 0)
(0 -0.00662267 0)
(0 -0.00604101 0)
(0 -0.00732181 0)
(0 -0.00535099 0)
(0 -0.00416897 0)
(0 -0.00294645 0)
(0 -0.00180014 0)
(0 -0.000918609 0)
(0 -0.000271082 0)
(0 -3.02602e-06 0)
(0 0 0)
(0 0 0)
(0 0 0)
(0 0 0)
(0 0 0)
(0 0 0)
(0 0 0)
(0 0 0)
(0 0 0)
(0 0 0)
(0 0 0)
(0 0 0)
(0 0 0)
(0 0 0)
(0 0 0)
(0 0 0)
(0 0 0)
(0 0 0)
(0 0 0)
(0 0 0)
(0 -0.000142363 0)
(0 -0.000592937 0)
(0 -0.00120117 0)
(0 -0.00202255 0)
(0 -0.00299065 0)
(0 -0.00352647 0)
(0 -0.00469899 0)
(0 -0.00531436 0)
(0 -0.00405155 0)
(0 -0.00455271 0)
(0 -0.00589662 0)
(0 -0.00643304 0)
(0 -0.00571799 0)
(0 -0.00594983 0)
(0 -0.00668046 0)
(0 -0.00732468 0)
(0 -0.006555 0)
(0 -0.00666544 0)
(0 -0.0074242 0)
(0 -0.00798437 0)
(0 -0.0071944 0)
(0 -0.00733276 0)
(0 -0.00813063 0)
(0 -0.00843885 0)
(0 -0.0076247 0)
(0 -0.00767944 0)
(0 -0.00849659 0)
(0 -0.00858072 0)
(0 -0.00776111 0)
(0 -0.00772339 0)
(0 -0.00854294 0)
(0 -0.00843885 0)
(0 -0.0076247 0)
(0 -0.00754842 0)
(0 -0.00835837 0)
(0 -0.00798437 0)
(0 -0.0071944 0)
(0 -0.00703652 0)
(0 -0.00781736 0)
(0 -0.00732468 0)
(0 -0.006555 0)
(0 -0.00636944 0)
(0 -0.00712739 0)
(0 -0.00643304 0)
(0 -0.00571799 0)
(0 -0.00501777 0)
(0 -0.00455271 0)
(0 -0.00589662 0)
(0 -0.00531436 0)
(0 -0.00405155 0)
(0 -0.00352647 0)
(0 -0.00469899 0)
(0 -0.00299065 0)
(0 -0.00202255 0)
(0 -0.00120117 0)
(0 -0.000592937 0)
(0 -0.000142363 0)
(0 0 0)
(0 0 0)
(0 0 0)
(0 0 0)
(0 0 0)
(0 0 0)
(0 0 0)
(0 0 0)
(0 0 0)
(0 0 0)
(0 0 0)
(0 0 0)
(0 0 0)
(0 0 0)
(0 0 0)
(0 0 0)
(0 0 0)
(0 0 0)
(0 0 0)
(0 0 0)
(0 0 0)
(0 0 0)
(0 0 0)
(0 -1.21233e-05 0)
(0 -0.00020564 0)
(0 -0.000573913 0)
(0 -0.00120395 0)
(0 -0.00153172 0)
(0 -0.00245529 0)
(0 -0.00288538 0)
(0 -0.00186455 0)
(0 -0.00219117 0)
(0 -0.00330054 0)
(0 -0.00368938 0)
(0 -0.00307454 0)
(0 -0.0032381 0)
(0 -0.00387064 0)
(0 -0.00430723 0)
(0 -0.00364534 0)
(0 -0.00379879 0)
(0 -0.00447585 0)
(0 -0.00490076 0)
(0 -0.00418658 0)
(0 -0.00428887 0)
(0 -0.00501258 0)
(0 -0.00524941 0)
(0 -0.00450584 0)
(0 -0.00454669 0)
(0 -0.00529395 0)
(0 -0.00536508 0)
(0 -0.00461337 0)
(0 -0.00457953 0)
(0 -0.00532974 0)
(0 -0.00524941 0)
(0 -0.00450584 0)
(0 -0.004449 0)
(0 -0.00518742 0)
(0 -0.00490076 0)
(0 -0.00418658 0)
(0 -0.00407029 0)
(0 -0.00477352 0)
(0 -0.00430723 0)
(0 -0.00364534 0)
(0 -0.00348139 0)
(0 -0.00412677 0)
(0 -0.00368938 0)
(0 -0.00307454 0)
(0 -0.00250107 0)
(0 -0.00219117 0)
(0 -0.00330054 0)
(0 -0.00288538 0)
(0 -0.00186455 0)
(0 -0.00153172 0)
(0 -0.00245529 0)
(0 -0.00120395 0)
(0 -0.000573913 0)
(0 -0.00020564 0)
(0 -1.21233e-05 0)
(0 0 0)
(0 0 0)
(0 0 0)
(0 0 0)
(0 0 0)
(0 0 0)
(0 0 0)
(0 0 0)
(0 0 0)
(0 0 0)
(0 0 0)
(0 0 0)
(0 0 0)
(0 0 0)
(0 0 0)
(0 0 0)
(0 0 0)
(0 0 0)
(0 0 0)
(0 0 0)
(0 0 0)
(0 0 0)
(0 0 0)
(0 0 0)
(0 0 0)
(0 0 0)
(0 -2.1976e-06 0)
(0 -0.000165104 0)
(0 -0.000287582 0)
(0 -0.000797435 0)
(0 -0.00103318 0)
(0 -0.000428818 0)
(0 -0.000579855 0)
(0 -0.00127103 0)
(0 -0.0015014 0)
(0 -0.0010335 0)
(0 -0.0011393 0)
(0 -0.00155813 0)
(0 -0.00191312 0)
(0 -0.00143979 0)
(0 -0.001531 0)
(0 -0.00201992 0)
(0 -0.00229301 0)
(0 -0.00176568 0)
(0 -0.00182852 0)
(0 -0.00236577 0)
(0 -0.00252103 0)
(0 -0.00196302 0)
(0 -0.00198852 0)
(0 -0.0025504 0)
(0 -0.00260148 0)
(0 -0.00203379 0)
(0 -0.00200906 0)
(0 -0.00257405 0)
(0 -0.00252103 0)
(0 -0.00196302 0)
(0 -0.00192763 0)
(0 -0.00248024 0)
(0 -0.00229301 0)
(0 -0.00176568 0)
(0 -0.0016947 0)
(0 -0.00221065 0)
(0 -0.00191312 0)
(0 -0.00143979 0)
(0 -0.00134347 0)
(0 -0.0017999 0)
(0 -0.0015014 0)
(0 -0.0010335 0)
(0 -0.000694988 0)
(0 -0.000579855 0)
(0 -0.00127103 0)
(0 -0.00103318 0)
(0 -0.000428818 0)
(0 -0.000287582 0)
(0 -0.000797435 0)
(0 -0.000165104 0)
(0 -2.1976e-06 0)
(0 0 0)
(0 0 0)
(0 0 0)
(0 0 0)
(0 0 0)
(0 0 0)
(0 0 0)
(0 0 0)
(0 0 0)
(0 0 0)
(0 0 0)
(0 0 0)
(0 0 0)
(0 0 0)
(0 0 0)
(0 0 0)
(0 0 0)
(0 0 0)
(0 0 0)
(0 0 0)
(0 0 0)
(0 0 0)
(0 0 0)
(0 0 0)
(0 0 0)
(0 0 0)
(0 0 0)
(0 0 0)
(0 0 0)
(0 0 0)
(0 0 0)
(0 -8.07093e-05 0)
(0 -2.91916e-05 0)
(0 0 0)
(0 -0.000126915 0)
(0 -0.000212028 0)
(0 -6.4912e-06 0)
(0 -2.83727e-05 0)
(0 -0.000305549 0)
(0 -0.000400313 0)
(0 -5.98277e-05 0)
(0 -9.5263e-05 0)
(0 -0.000489856 0)
(0 -0.000568561 0)
(0 -0.000129795 0)
(0 -0.000159372 0)
(0 -0.000631786 0)
(0 -0.00067596 0)
(0 -0.000180865 0)
(0 -0.000192151 0)
(0 -0.000698661 0)
(0 -0.000716825 0)
(0 -0.000201793 0)
(0 -0.000192151 0)
(0 -0.000698661 0)
(0 -0.00067596 0)
(0 -0.000180865 0)
(0 -0.000159372 0)
(0 -0.000631786 0)
(0 -0.000568561 0)
(0 -0.000129795 0)
(0 -9.5263e-05 0)
(0 -0.000489856 0)
(0 -0.000400313 0)
(0 -5.98277e-05 0)
(0 -2.83727e-05 0)
(0 -0.000305549 0)
(0 -0.000212028 0)
(0 -6.4912e-06 0)
(0 0 0)
(0 -0.000126915 0)
(0 -8.07093e-05 0)
(0 0 0)
(0 0 0)
(0 0 0)
(0 -2.91916e-05 0)
(0 0 0)
(0 0 0)
(0 0 0)
(0 0 0)
(0 0 0)
(0 0 0)
(0 0 0)
(0 0 0)
(0 0 0)
(0 0 0)
(0 0 0)
(0 0 0)
(0 0 0)
(0 0 0)
(0 0 0)
(0 0 0)
(0 0 0)
(0 0 0)
(0 0 0)
(0 0 0)
(0 0 0)
(0 0 0)
(0 0 0)
(0 0 0)
(0 0 0)
(0 0 0)
(0 0 0)
(0 0 0)
(0 0 0)
(0 0 0)
(0 0 0)
(0 0 0)
(0 0 0)
(0 0 0)
(0 0 0)
(0 0 0)
(0 0 0)
(0 0 0)
(0 0 0)
(0 0 0)
(0 -5.83359e-07 0)
(0 0 0)
(0 0 0)
(0 -2.24496e-06 0)
(0 -1.33571e-06 0)
(0 0 0)
(0 -5.83359e-07 0)
(0 -1.33571e-06 0)
(0 0 0)
(0 0 0)
(0 0 0)
(0 0 0)
(0 0 0)
(0 0 0)
(0 0 0)
(0 0 0)
(0 0 0)
(0 0 0)
(0 0 0)
(0 0 0)
(0 0 0)
(0 0 0)
(0 0 0)
(0 0 0)
(0 0 0)
(0 0 0)
(0 0 0)
(0 0 0)
(0 0 0)
(0 0 0)
(0 0 0)
(0 0 0)
(0 0 0)
(0 0 0)
(0 0 0)
(0 0 0)
(0 0 0)
(0 0 0)
(0 0 0)
(0 0 0)
(0 0 0)
(0 0 0)
(0 0 0)
(0 0 0)
(0 0 0)
(0 0 0)
(0 0 0)
(0 0 0)
(0 0 0)
(0 0 0)
(0 0 0)
(0 0 0)
(0 0 0)
(0 0 0)
(0 0 0)
(0 0 0)
(0 0 0)
(0 0 0)
(0 0 0)
(0 0 0)
(0 0 0)
(0 0 0)
(0 0 0)
(0 0 0)
(0 0 0)
(0 0 0)
(0 0 0)
(0 0 0)
(0 0 0)
(0 0 0)
(0 0 0)
(0 0 0)
(0 0 0)
(0 0 0)
(0 0 0)
(0 0 0)
(0 0 0)
(0 0 0)
(0 0 0)
(0 0 0)
(0 0 0)
(0 0 0)
(0 0 0)
(0 0 0)
(0 0 0)
(0 0 0)
(0 0 0)
(0 0 0)
(0 0 0)
(0 0 0)
(0 0 0)
(0 0 0)
(0 0 0)
(0 0 0)
(0 0 0)
(0 0 0)
(0 0 0)
(0 0 0)
(0 0 0)
(0 0 0)
(0 0 0)
(0 0 0)
(0 0 0)
(0 0 0)
(0 0 0)
(0 0 0)
(0 0 0)
(0 0 0)
(0 0 0)
(0 0 0)
(0 0 0)
(0 0 0)
(0 0 0)
(0 0 0)
(0 0 0)
(0 0 0)
(0 0 0)
(0 0 0)
(0 0 0)
(0 0 0)
(0 0 0)
(0 0 0)
(0 0 0)
(0 0 0)
(0 0 0)
(0 0 0)
(0 0 0)
(0 0 0)
(0 0 0)
(0 0 0)
(0 0 0)
(0 0 0)
(0 0 0)
(0 0 0)
(0 0 0)
(0 0 0)
(0 0 0)
(0 0 0)
(0 0 0)
(0 0 0)
(0 0 0)
(0 0 0)
(0 0 0)
(0 0 0)
(0 0 0)
(0 0 0)
(0 0 0)
(0 0 0)
(0 0 0)
(0 0 0)
(0 0 0)
(0 0 0)
(0 0 0)
(0 0 0)
(0 0 0)
(0 0 0)
(0 0 0)
(0 0 0)
(0 0 0)
(0 0 0)
(0 0 0)
(0 0 0)
(0 0 0)
(0 0 0)
(0 0 0)
(0 0 0)
(0 0 0)
(0 0 0)
(0 0 0)
(0 0 0)
(0 0 0)
(0 0 0)
(0 0 0)
(0 0 0)
(0 0 0)
(0 0 0)
(0 0 0)
(0 0 0)
(0 0 0)
(0 0 0)
(0 0 0)
(0 0 0)
(0 0 0)
(0 0 0)
(0 0 0)
(0 0 0)
(0 0 0)
(0 0 0)
(0 0 0)
(0 0 0)
(0 0 0)
(0 0 0)
(0 0 0)
(0 0 0)
(0 0 0)
(0 0 0)
(0 0 0)
(0 0 0)
(0 0 0)
(0 0 0)
(0 0 0)
(0 0 0)
(0 0 0)
(0 0 0)
(0 0 0)
(0 0 0)
(0 0 0)
(0 0 0)
(0 0 0)
(0 0 0)
(0 0 0)
(0 0 0)
(0 0 0)
(0 0 0)
(0 0 0)
(0 0 0)
(0 0 0)
(0 0 0)
(0 0 0)
(0 0 0)
(0 0 0)
(0 0 0)
(0 0 0)
(0 0 0)
(0 0 0)
(0 0 0)
(0 0 0)
(0 0 0)
(0 0 0)
(0 0 0)
(0 0 0)
(0 0 0)
(0 0 0)
(0 0 0)
(0 0 0)
(0 0 0)
(0 0 0)
(0 0 0)
(0 0 0)
(0 0 0)
(0 0 0)
(0 0 0)
(0 0 0)
(0 0 0)
(0 0 0)
(0 0 0)
(0 0 0)
(0 0 0)
(0 0 0)
(0 0 0)
(0 0 0)
(0 0 0)
(0 0 0)
(0 0 0)
(0 0 0)
(0 0 0)
(0 0 0)
(0 0 0)
(0 0 0)
(0 0 0)
(0 0 0)
(0 0 0)
(0 0 0)
(0 0 0)
(0 0 0)
(0 0 0)
(0 0 0)
(0 0 0)
(0 0 0)
(0 0 0)
(0 0 0)
(0 0 0)
(0 0 0)
(0 0 0)
(0 0 0)
(0 0 0)
(0 0 0)
(0 0 0)
(0 0 0)
(0 0 0)
(0 0 0)
(0 0 0)
(0 0 0)
(0 0 0)
(0 0 0)
(0 0 0)
(0 0 0)
(0 0 0)
(0 0 0)
(0 0 0)
(0 0 0)
(0 0 0)
(0 0 0)
(0 0 0)
(0 0 0)
(0 0 0)
(0 0 0)
(0 0 0)
(0 0 0)
(0 0 0)
(0 0 0)
(0 0 0)
(0 0 0)
(0 0 0)
(0 0 0)
(0 0 0)
(0 0 0)
(0 0 0)
(0 0 0)
(0 0 0)
(0 0 0)
(0 0 0)
(0 0 0)
(0 0 0)
(0 0 0)
(0 0 0)
(0 0 0)
(0 0 0)
(0 0 0)
(0 0 0)
(0 0 0)
(0 0 0)
(0 0 0)
(0 0 0)
(0 0 0)
(0 0 0)
(0 0 0)
(0 0 0)
(0 0 0)
(0 0 0)
(0 0 0)
(0 0 0)
(0 0 0)
(0 0 0)
(0 0 0)
(0 0 0)
(0 0 0)
(0 0 0)
(0 0 0)
(0 0 0)
(0 0 0)
(0 0 0)
(0 0 0)
(0 0 0)
(0 0 0)
(0 0 0)
(0 0 0)
(0 0 0)
(0 0 0)
(0 0 0)
(0 0 0)
(0 0 0)
(0 0 0)
(0 0 0)
(0 0 0)
(0 0 0)
(0 0 0)
(0 0 0)
(0 0 0)
(0 0 0)
(0 0 0)
(0 0 0)
(0 0 0)
(0 0 0)
(0 0 0)
(0 0 0)
(0 0 0)
(0 0 0)
(0 0 0)
(0 0 0)
(0 0 0)
(0 0 0)
(0 0 0)
(0 0 0)
(0 0 0)
(0 0 0)
(0 0 0)
(0 0 0)
(0 0 0)
(0 0 0)
(0 0 0)
(0 0 0)
(0 0 0)
(0 0 0)
(0 0 0)
(0 0 0)
(0 0 0)
(0 0 0)
(0 0 0)
(0 0 0)
(0 0 0)
(0 0 0)
(0 0 0)
(0 0 0)
(0 0 0)
(0 0 0)
(0 0 0)
(0 0 0)
(0 0 0)
(0 0 0)
(0 0 0)
(0 0 0)
(0 0 0)
(0 0 0)
(0 0 0)
(0 0 0)
(0 0 0)
(0 0 0)
(0 0 0)
(0 0 0)
(0 0 0)
(0 0 0)
(0 0 0)
(0 0 0)
(0 0 0)
(0 0 0)
(0 0 0)
(0 0 0)
(0 0 0)
(0 0 0)
(0 0 0)
(0 0 0)
(0 0 0)
(0 0 0)
(0 0 0)
(0 0 0)
(0 0 0)
(0 0 0)
(0 0 0)
(0 0 0)
(0 0 0)
(0 0 0)
(0 0 0)
(0 0 0)
(0 0 0)
(0 0 0)
(0 0 0)
(0 0 0)
(0 0 0)
(0 0 0)
(0 0 0)
(0 0 0)
(0 0 0)
(0 0 0)
(0 0 0)
(0 0 0)
(0 0 0)
(0 0 0)
(0 0 0)
(0 0 0)
(0 0 0)
(0 0 0)
(0 0 0)
(0 0 0)
(0 0 0)
(0 0 0)
(0 0 0)
(0 0 0)
(0 0 0)
(0 0 0)
(0 0 0)
(0 0 0)
(0 0 0)
(0 0 0)
(0 0 0)
(0 0 0)
(0 0 0)
(0 0 0)
(0 0 0)
(0 0 0)
(0 0 0)
(0 0 0)
(0 0 0)
(0 0 0)
(0 0 0)
(0 0 0)
(0 0 0)
(0 0 0)
(0 0 0)
(0 0 0)
(0 0 0)
(0 0 0)
(0 0 0)
(0 0 0)
(0 0 0)
(0 0 0)
(0 0 0)
(0 0 0)
(0 0 0)
(0 0 0)
(0 0 0)
(0 0 0)
(0 0 0)
(0 0 0)
(0 0 0)
(0 0 0)
(0 0 0)
(0 0 0)
(0 0 0)
(0 0 0)
(0 0 0)
(0 0 0)
(0 0 0)
(0 0 0)
(0 0 0)
(0 0 0)
(0 0 0)
(0 0 0)
(0 0 0)
(0 0 0)
(0 0 0)
(0 0 0)
(0 0 0)
(0 0 0)
(0 0 0)
(0 0 0)
(0 0 0)
(0 0 0)
(0 0 0)
(0 0 0)
(0 0 0)
(0 0 0)
(0 0 0)
(0 0 0)
(0 0 0)
(0 0 0)
(0 0 0)
(0 0 0)
(0 0 0)
(0 0 0)
(0 0 0)
(0 0 0)
(0 0 0)
(0 0 0)
(0 0 0)
(0 0 0)
(0 0 0)
(0 0 0)
(0 0 0)
(0 0 0)
(0 0 0)
(0 0 0)
(0 0 0)
(0 0 0)
(0 0 0)
(0 0 0)
(0 0 0)
(0 0 0)
(0 0 0)
(0 0 0)
(0 0 0)
(0 0 0)
(0 0 0)
(0 0 0)
(0 0 0)
(0 0 0)
(0 0 0)
(0 0 0)
(0 0 0)
(0 0 0)
(0 0 0)
(0 0 0)
(0 0 0)
(0 0 0)
(0 0 0)
(0 0 0)
(0 0 0)
(0 0 0)
(0 0 0)
(0 0 0)
(0 0 0)
(0 0 0)
(0 0 0)
(0 0 0)
(0 0 0)
(0 0 0)
(0 0 0)
(0 0 0)
(0 0 0)
(0 0 0)
(0 0 0)
(0 0 0)
(0 0 0)
(0 0 0)
(0 0 0)
(0 0 0)
(0 0 0)
(0 0 0)
(0 0 0)
(0 0 0)
(0 0 0)
(0 0 0)
(0 0 0)
(0 0 0)
(0 0 0)
(0 0 0)
(0 0 0)
(0 0 0)
(0 0 0)
(0 0 0)
(0 0 0)
(0 0 0)
(0 0 0)
(0 0 0)
(0 0 0)
(0 0 0)
(0 0 0)
(0 0 0)
(0 0 0)
(0 0 0)
(0 0 0)
(0 0 0)
(0 0 0)
(0 0 0)
(0 0 0)
(0 0 0)
(0 0 0)
(0 0 0)
(0 0 0)
(0 0 0)
(0 0 0)
(0 0 0)
(0 0 0)
(0 0 0)
(0 0 0)
(0 0 0)
(0 0 0)
(0 0 0)
(0 0 0)
(0 0 0)
(0 0 0)
(0 0 0)
(0 0 0)
(0 0 0)
(0 0 0)
(0 0 0)
(0 0 0)
(0 0 0)
(0 0 0)
(0 0 0)
(0 0 0)
(0 0 0)
(0 0 0)
(0 0 0)
(0 0 0)
(0 0 0)
(0 0 0)
(0 0 0)
(0 0 0)
(0 0 0)
(0 0 0)
(0 0 0)
(0 0 0)
(0 0 0)
(0 0 0)
(0 0 0)
(0 0 0)
(0 0 0)
(0 0 0)
(0 0 0)
(0 0 0)
(0 0 0)
(0 0 0)
(0 0 0)
(0 0 0)
(0 0 0)
(0 0 0)
(0 0 0)
(0 0 0)
(0 0 0)
(0 0 0)
(0 0 0)
(0 0 0)
(0 0 0)
(0 0 0)
(0 0 0)
(0 0 0)
(0 0 0)
(0 0 0)
(0 0 0)
(0 0 0)
(0 0 0)
(0 0 0)
(0 0 0)
(0 0 0)
(0 0 0)
(0 0 0)
(0 0 0)
(0 0 0)
(0 0 0)
(0 0 0)
(0 0 0)
(0 0 0)
(0 0 0)
(0 0 0)
(0 0 0)
(0 0 0)
(0 0 0)
(0 0 0)
(0 0 0)
(0 0 0)
(0 0 0)
(0 0 0)
(0 0 0)
(0 0 0)
(0 0 0)
(0 0 0)
(0 0 0)
(0 0 0)
(0 0 0)
(0 0 0)
(0 0 0)
(0 0 0)
(0 0 0)
(0 0 0)
(0 0 0)
(0 0 0)
(0 0 0)
(0 0 0)
(0 0 0)
(0 0 0)
(0 0 0)
(0 0 0)
(0 0 0)
(0 0 0)
(0 0 0)
(0 0 0)
(0 0 0)
(0 0 0)
(0 0 0)
(0 0 0)
(0 0 0)
(0 0 0)
(0 0 0)
(0 0 0)
(0 0 0)
(0 0 0)
(0 0 0)
(0 0 0)
(0 0 0)
(0 0 0)
(0 0 0)
(0 0 0)
(0 0 0)
(0 0 0)
(0 0 0)
(0 0 0)
(0 0 0)
(0 0 0)
(0 0 0)
(0 0 0)
(0 0 0)
(0 0 0)
(0 0 0)
(0 0 0)
(0 0 0)
(0 0 0)
(0 0 0)
(0 0 0)
(0 0 0)
(0 0 0)
(0 0 0)
(0 0 0)
(0 0 0)
(0 0 0)
(0 0 0)
(0 0 0)
(0 0 0)
(0 0 0)
(0 0 0)
(0 0 0)
(0 0 0)
(0 0 0)
(0 0 0)
(0 0 0)
(0 0 0)
(0 0 0)
(0 0 0)
(0 0 0)
(0 0 0)
(0 0 0)