/*--------------------------------*- C++ -*----------------------------------*\
| =========                 |                                                 |
| \\      /  F ield         | OpenFOAM: The Open Source CFD Toolbox           |
|  \\    /   O peration     | Version:  v2106                                 |
|   \\  /    A nd           | Website:  www.openfoam.com                      |
|    \\/     M anipulation  |                                                 |
\*---------------------------------------------------------------------------*/
FoamFile
{
    version     2.0;
    format      ascii;
    arch        "LSB;label=32;scalar=64";
    class       volScalarField;
    location    "0";
    object      p;
}
// * * * * * * * * * * * * * * * * * * * * * * * * * * * * * * * * * * * * * //

dimensions      [0 2 -2 0 0 0 0];

internalField   nonuniform List<scalar> 
11644
(
0.0803907
0.080763
0.0815441
0.0827397
0.0843387
0.086332
0.0887072
0.091443
0.0945046
0.0978387
0.101365
0.104983
0.108555
0.111885
0.114785
0.117034
0.118345
0.118652
0.117914
0.115897
0.112548
0.108009
0.102512
0.0962726
0.0894968
0.0824556
0.0753984
0.0685185
0.0619935
0.0559351
0.0504262
0.045519
0.0412269
0.0375467
0.0344618
0.0319471
0.029976
0.0285292
0.0275976
0.0271569
0.0797472
0.0801191
0.0808872
0.0820631
0.0836493
0.0856434
0.0880379
0.0908175
0.0939559
0.0974089
0.10111
0.104954
0.108795
0.112457
0.115704
0.118272
0.119947
0.120554
0.119951
0.11798
0.114607
0.109855
0.103936
0.0971703
0.0898905
0.0823825
0.0749175
0.0677328
0.0609814
0.0547968
0.04924
0.0443334
0.0400782
0.0364558
0.0334393
0.0309969
0.0290982
0.0277155
0.0268225
0.0263906
0.0783115
0.0787024
0.0794789
0.0806491
0.082229
0.0842295
0.086657
0.0895126
0.0927879
0.0964602
0.100481
0.104765
0.109182
0.113534
0.117564
0.121002
0.123551
0.124877
0.124686
0.122749
0.119113
0.113822
0.107076
0.0991986
0.0907471
0.0821888
0.0738534
0.0660104
0.0588426
0.0524288
0.0467943
0.0419159
0.0377534
0.0342595
0.0313827
0.0290743
0.0272904
0.0259886
0.0251322
0.0247022
0.0761135
0.0765118
0.077295
0.0784655
0.0800422
0.08205
0.084514
0.087459
0.0909075
0.09487
0.0993368
0.104257
0.109508
0.114901
0.120206
0.125079
0.129037
0.1317
0.132453
0.130832
0.126754
0.120347
0.112013
0.102281
0.0920532
0.0817991
0.072038
0.0632036
0.0554152
0.0487096
0.0430143
0.0382261
0.0342395
0.0309565
0.0282938
0.0261794
0.0245529
0.0233632
0.022573
0.0221749
0.0731902
0.0735754
0.07434
0.0754863
0.0770386
0.0790316
0.0815091
0.0845237
0.0881317
0.0923923
0.0973373
0.102936
0.109142
0.115896
0.122979
0.130026
0.136321
0.141415
0.143913
0.143136
0.138538
0.130409
0.119375
0.106535
0.0937015
0.0809351
0.0691522
0.0589223
0.0503721
0.0433794
0.0377303
0.0331673
0.0294872
0.0265352
0.024188
0.0223502
0.0209475
0.019927
0.0192535
0.0189138
0.0695621
0.06992
0.0706308
0.0717086
0.0731827
0.0750968
0.0775136
0.0805137
0.0841922
0.0886204
0.0938284
0.0998976
0.107002
0.115299
0.124871
0.135138
0.145317
0.154608
0.160547
0.161602
0.156342
0.14518
0.129725
0.112016
0.094993
0.0784868
0.0641933
0.0525786
0.043297
0.036132
0.0307041
0.0265913
0.0234402
0.0210017
0.0191157
0.0176701
0.0165862
0.0158089
0.0153046
0.015057
0.0652789
0.0655837
0.0661998
0.0671495
0.0684619
0.0701914
0.072412
0.0752268
0.0787353
0.0829659
0.0880168
0.0941954
0.101876
0.111709
0.124309
0.139006
0.149325
0.164491
0.17636
0.182188
0.178718
0.16578
0.145919
0.123488
0.0936437
0.0724467
0.0554339
0.0426757
0.0334481
0.0266296
0.0217788
0.0184202
0.0160937
0.0144179
0.0131857
0.0122802
0.0116271
0.0111741
0.0108852
0.0107399
0.0604065
0.0606394
0.0611189
0.0618559
0.0628984
0.0642965
0.0661264
0.0684862
0.0714202
0.0749504
0.079324
0.0850133
0.0926098
0.102265
0.115915
0.13394
0.157918
0.182876
0.206825
0.221347
0.218747
0.197819
0.164409
0.128301
0.0934239
0.067964
0.0489145
0.0278799
0.0196878
0.0143242
0.0108619
0.00875292
0.00758815
0.0069558
0.0065884
0.00637754
0.00625921
0.00619631
0.00616399
0.00615296
0.0550248
0.0551794
0.0554738
0.0559361
0.0565916
0.0574833
0.0586791
0.0602365
0.062151
0.0644918
0.0675176
0.0716451
0.0776402
0.0896421
0.10384
0.124558
0.151529
0.192892
0.2367
0.273522
0.279515
0.245971
0.189794
0.129352
0.0847963
0.0458855
0.0266298
0.00568338
0.00136452
-0.00099606
-0.00202827
-0.00217613
-0.00175819
-0.0010737
-0.00038503
0.000230914
0.000737699
0.0011225
0.00137779
0.00150505
0.0493442
0.0493724
0.0494338
0.0495342
0.0496767
0.0498982
0.0502292
0.0506649
0.0511616
0.0518015
0.0527318
0.0539937
0.0557728
0.0660803
0.0748473
0.0950289
0.126091
0.178894
0.261669
0.357276
0.392477
0.319664
0.199296
0.103723
0.0385679
-0.000983271
-0.011167
-0.0236483
-0.0214397
-0.0190879
-0.0165042
-0.0139125
-0.0114649
-0.00922954
-0.00733506
-0.00580804
-0.00462701
-0.00377069
-0.0032137
-0.00295566
0.0435178
0.0434254
0.0432208
0.042888
0.0424336
0.0418523
0.0411388
0.0402333
0.0389963
0.0373617
0.0352921
0.0325728
0.0284915
0.031552
0.0299737
0.0353234
0.0478749
0.0770709
0.175327
0.407212
0.583273
0.341781
0.0787643
-0.0345766
-0.0693905
-0.0750423
-0.0638166
-0.0582176
-0.0474098
-0.0386447
-0.0314456
-0.0255943
-0.0208372
-0.0169243
-0.0137854
-0.0113557
-0.00951601
-0.0081891
-0.00733595
-0.00690016
0.0377971
0.0375399
0.0370355
0.0362703
0.0352037
0.0337699
0.0319392
0.0295881
0.0264886
0.0223584
0.0167966
0.00936874
-0.000888551
-0.00509916
-0.0233045
-0.0415174
-0.0776756
-0.158664
-0.37852
-0.632041
-0.344606
-0.22565
-0.163855
-0.121001
-0.0933646
-0.0724298
-0.0567257
-0.0449219
-0.0358997
-0.0289145
-0.0234498
-0.0192022
-0.0159693
-0.0135483
-0.0118194
-0.0107098
-0.0101866
0.0324052
0.0320076
0.0312026
0.0300142
0.0283714
0.0261597
0.0232811
0.0195708
0.0147789
0.0085269
0.000146154
-0.0111036
-0.0262506
-0.0363045
-0.0663167
-0.100784
-0.164806
-0.286241
-0.400105
-0.822727
-0.551503
-0.340477
-0.22993
-0.165995
-0.117622
-0.0900531
-0.0695172
-0.0544713
-0.0431686
-0.0345939
-0.0280528
-0.0230544
-0.0192648
-0.0164376
-0.0144408
-0.0131429
-0.0125096
0.0275006
0.026928
0.025954
0.0244667
0.0223827
0.0195696
0.0158454
0.0110777
0.00506371
-0.00257272
-0.0124615
-0.0254665
-0.0422737
-0.0563517
-0.0856018
-0.120123
-0.175809
-0.26237
-0.311811
-0.622797
-0.522454
-0.363121
-0.248177
-0.181371
-0.124719
-0.0957372
-0.0740634
-0.0580772
-0.0460618
-0.0369819
-0.0301319
-0.024906
-0.0209208
-0.0179463
-0.0158168
-0.0144333
-0.013687
0.0231019
0.022645
0.0215729
0.0199057
0.0175442
0.0143697
0.0101397
0.00478422
-0.00179516
-0.00994457
-0.0201213
-0.0329337
-0.048594
-0.0626185
-0.0860601
-0.111376
-0.142409
-0.172214
-0.24164
-0.40465
-0.623802
-0.705136
-0.656921
-0.49461
-0.333599
-0.224442
-0.166467
-0.113209
-0.0885523
-0.0695756
-0.0550527
-0.0441198
-0.0357178
-0.0294205
-0.0245534
-0.0207573
-0.0179261
-0.0158865
-0.0145703
-0.0139813
0.0196136
0.0193018
0.018266
0.0165416
0.0140897
0.010837
0.00656966
0.00114903
-0.00539816
-0.0133397
-0.0229352
-0.0346262
-0.0485835
-0.0620556
-0.0818288
-0.103852
-0.114388
-0.0959715
-0.155726
-0.427044
-0.760011
-0.809597
-0.608181
-0.380317
-0.254971
-0.167684
-0.127996
-0.0858926
-0.0693692
-0.0560962
-0.0456607
-0.0374301
-0.0309388
-0.0259947
-0.0220824
-0.018923
-0.0165335
-0.014815
-0.013698
-0.0132428
0.0174581
0.0169953
0.0160135
0.0144373
0.012165
0.00913761
0.00525405
0.000311911
-0.0057527
-0.0130534
-0.0218078
-0.032548
-0.0456
-0.0634176
-0.0819148
-0.111868
-0.143376
-0.173518
-0.197711
-0.335722
-0.472488
-0.434015
-0.298722
-0.196283
-0.1178
-0.0917052
-0.0573017
-0.0505707
-0.0431829
-0.0367672
-0.0314658
-0.0269648
-0.0232741
-0.0202768
-0.017692
-0.0155291
-0.0138149
-0.0125524
-0.011721
-0.0112626
0.0165517
0.0160264
0.01508
0.0136841
0.0117428
0.00917383
0.00588207
0.00169301
-0.00352784
-0.00990773
-0.0177245
-0.0277746
-0.0406058
-0.058379
-0.0814256
-0.123492
-0.183177
-0.290119
-0.357509
-0.38514
-0.343203
-0.211626
-0.0976815
-0.0452812
-0.0155928
-0.0171515
-0.0130442
-0.0148565
-0.01639
-0.0165332
-0.0159667
-0.0150035
-0.0139977
-0.0129023
-0.011693
-0.0106324
-0.00974114
-0.00903906
-0.00855168
-0.00820553
0.0165946
0.0161754
0.0153943
0.014255
0.0127049
0.010683
0.00810098
0.00480346
0.000653519
-0.00450071
-0.0109405
-0.0194222
-0.0308573
-0.0469988
-0.0697048
-0.107521
-0.167868
-0.284812
-0.413248
-0.46622
-0.400249
-0.220114
-0.0423002
0.038597
0.0518533
0.0358618
0.0222412
0.0140023
0.00604118
0.0011263
-0.00188797
-0.00368161
-0.00465599
-0.00507451
-0.00514211
-0.00505989
-0.00488643
-0.00468263
-0.00450922
-0.00443395
0.0173607
0.0170893
0.0165626
0.0157696
0.0146832
0.0132711
0.0114978
0.00925929
0.00645615
0.0029499
-0.00145181
-0.00727224
-0.0150637
-0.0261001
-0.0455363
-0.0698826
-0.110328
-0.17471
-0.268554
-0.33606
-0.314721
-0.186716
-0.0372878
0.048225
0.0747122
0.0608069
0.043318
0.0316618
0.0210023
0.0139356
0.0089625
0.0055191
0.00323532
0.00176288
0.000808413
0.000235245
-0.000106833
-0.000295273
-0.000402204
-0.000479414
0.0186376
0.0185046
0.0182332
0.0177943
0.0171844
0.0164088
0.0154766
0.0143844
0.0131118
0.0115422
0.0095221
0.00660984
0.00237639
-0.00378428
-0.0180672
-0.0338848
-0.0612174
-0.0909168
-0.128066
-0.161752
-0.163559
-0.118264
-0.0457466
0.0169036
0.0496213
0.0542677
0.04365
0.0348242
0.0263169
0.0201036
0.0151616
0.0114838
0.00885677
0.00701675
0.00571253
0.00478773
0.00414659
0.00369648
0.0033987
0.00326098
0.0201739
0.0201596
0.020069
0.0199124
0.019728
0.0195487
0.0194248
0.0194128
0.0195235
0.0196735
0.0197165
0.0193877
0.0177586
0.0143927
0.00737658
-0.00749029
-0.0251858
-0.051709
-0.084277
-0.116775
-0.1355
-0.133415
-0.0957326
-0.0418037
-0.00317457
0.0174914
0.0313977
0.0275954
0.024271
0.0206091
0.017328
0.0146311
0.0125135
0.0108692
0.00957575
0.00858366
0.00784412
0.00730772
0.00696022
0.00680078
0.0216664
0.02168
0.0217127
0.0218074
0.0220056
0.0223422
0.0228689
0.0236835
0.0247778
0.0261975
0.0277712
0.029406
0.0299808
0.0285478
0.0245512
0.0111765
-0.0129836
-0.0552264
-0.113544
-0.177045
-0.227326
-0.229758
-0.179931
-0.12453
-0.0665323
-0.00585267
0.00941272
0.0164534
0.0196438
0.0187267
0.0178053
0.0164522
0.0150668
0.0137894
0.012688
0.0118041
0.0111104
0.0105978
0.0102708
0.0101104
0.0229996
0.0229961
0.0231523
0.0234559
0.0239421
0.0246328
0.0255715
0.0268642
0.0285352
0.0307696
0.0333958
0.0362446
0.0384671
0.038914
0.0327672
0.0148707
-0.019763
-0.0761868
-0.149547
-0.223742
-0.285748
-0.274005
-0.210264
-0.142023
-0.0809112
-0.0289982
-0.00438708
0.00942649
0.0158556
0.017866
0.0184935
0.0180489
0.0172114
0.016274
0.0154035
0.0146476
0.014024
0.0135536
0.0132463
0.0131056
0.0242443
0.0242991
0.0245267
0.0249197
0.0255225
0.026383
0.0275351
0.029051
0.0310296
0.0336332
0.036853
0.0403406
0.0436576
0.0425577
0.0318845
0.0104664
-0.0228494
-0.0713728
-0.130575
-0.188249
-0.23142
-0.222681
-0.175127
-0.120889
-0.069565
-0.0295302
-0.00465106
0.00936496
0.0158052
0.0188175
0.0199555
0.0199012
0.0193878
0.0186742
0.0179357
0.0172428
0.0166503
0.0162006
0.0159012
0.01577
0.0252116
0.0253521
0.0256118
0.026035
0.026666
0.0275539
0.0287488
0.0302906
0.0322358
0.0346669
0.0376387
0.0406843
0.0423616
0.0386115
0.026501
0.00584467
-0.0249938
-0.0639205
-0.102448
-0.131807
-0.145758
-0.135467
-0.107093
-0.0709781
-0.0360801
-0.00911795
0.00694202
0.0157082
0.0198293
0.0219357
0.0224537
0.022238
0.0217099
0.0210393
0.0203147
0.0196189
0.0190128
0.0185325
0.0181935
0.018028
0.0257451
0.0258825
0.0261635
0.0265934
0.0271853
0.0279722
0.0289874
0.0302372
0.0317052
0.0332822
0.0347609
0.0356471
0.0340828
0.0274463
0.0141092
-0.00728075
-0.0361433
-0.067272
-0.0925515
-0.102671
-0.0975957
-0.0821248
-0.0585643
-0.0304912
-0.00548619
0.0112252
0.0195705
0.0234657
0.0252712
0.025802
0.0255113
0.0248056
0.0239987
0.0231587
0.022347
0.0216178
0.0209986
0.0205037
0.0201411
0.0199154
0.0260201
0.0261386
0.0263672
0.02671
0.0271673
0.0277264
0.0283605
0.029031
0.029648
0.0299689
0.0294631
0.02742
0.0217951
0.009608
-0.00825313
-0.030979
-0.0571757
-0.0822077
-0.0993949
-0.101765
-0.0918222
-0.0690202
-0.040033
-0.0135654
0.00688921
0.0181861
0.0245421
0.028206
0.0294307
0.0292632
0.0283734
0.0272031
0.0260066
0.0249116
0.023961
0.0231728
0.022544
0.0220685
0.0217411
0.0215158
0.0261409
0.0262563
0.0264312
0.0266592
0.0269333
0.0272228
0.027443
0.027503
0.0272403
0.0264645
0.02436
0.0198129
0.0108742
-0.00600601
-0.0308378
-0.0607178
-0.0929917
-0.118585
-0.134147
-0.133974
-0.116062
-0.0846419
-0.0488876
-0.0191103
0.00348267
0.0178885
0.0269055
0.0312295
0.0323137
0.0316883
0.0304634
0.0289999
0.0275496
0.0262822
0.0252233
0.0243617
0.0236829
0.0231816
0.0228576
0.022751
0.0261259
0.0262221
0.0263392
0.0264707
0.026594
0.02666
0.0266034
0.026347
0.0255427
0.0239449
0.0208116
0.0149752
0.00411669
-0.0143231
-0.0428815
-0.0785654
-0.119315
-0.149235
-0.173012
-0.17282
-0.145333
-0.106384
-0.0632802
-0.0291684
-0.00196195
0.0172812
0.0284563
0.0333053
0.0344375
0.0327418
0.0314608
0.0299131
0.0284345
0.0271487
0.0260766
0.025198
0.0245098
0.0240196
0.0237271
0.0236884
0.0260547
0.0261082
0.026167
0.0262287
0.0262651
0.0262271
0.0260477
0.0256093
0.0246294
0.0227756
0.0193527
0.013266
0.00233377
-0.0148483
-0.0402444
-0.0715866
-0.108427
-0.139254
-0.163816
-0.167485
-0.140132
-0.103616
-0.0628707
-0.0296218
-0.00360776
0.0148303
0.026189
0.0324137
0.0341963
0.0329734
0.0316295
0.0300627
0.0286958
0.0275134
0.0265356
0.025746
0.0251484
0.0247397
0.0244922
0.024379
0.0259876
0.0260108
0.026063
0.026116
0.0261364
0.0260802
0.0258778
0.025444
0.0245837
0.0230207
0.0202092
0.0153291
0.00687361
-0.0062504
-0.0252672
-0.0477569
-0.0740348
-0.0985779
-0.116897
-0.12227
-0.107699
-0.0855272
-0.0571659
-0.0295841
-0.00696664
0.00998129
0.0218583
0.0290342
0.0319349
0.0318346
0.0308564
0.0295737
0.0284373
0.0274413
0.0266134
0.025949
0.0254447
0.02508
0.0248286
0.0246633
0.025964
0.0260068
0.0260562
0.0261096
0.0261397
0.0261186
0.025993
0.0256999
0.0251482
0.0242026
0.0225131
0.0196734
0.0146836
0.00600088
-0.00746028
-0.0243606
-0.0428072
-0.0617233
-0.0747085
-0.0817366
-0.0819624
-0.0732113
-0.0556457
-0.0342822
-0.0146417
0.00209546
0.0150622
0.0233214
0.0274659
0.0288376
0.0287837
0.0282115
0.0275031
0.0267879
0.0261553
0.0256261
0.0252031
0.0248822
0.024664
0.0245452
0.0258843
0.0259384
0.0259817
0.0260327
0.026087
0.0261422
0.026174
0.0261438
0.0259985
0.0256549
0.0248319
0.0234011
0.0206773
0.0154078
0.0065027
-0.00692378
-0.0233925
-0.0414012
-0.0567478
-0.0680102
-0.0729175
-0.0702339
-0.0581269
-0.0414756
-0.0246883
-0.00886724
0.00429076
0.0141227
0.0205382
0.0239613
0.0253777
0.0258831
0.0258331
0.0255669
0.02524
0.0249179
0.0246365
0.0244232
0.0242891
0.0242385
0.0256427
0.0256283
0.0256879
0.0257827
0.0259194
0.026097
0.0263204
0.0265929
0.0268746
0.0270823
0.0269453
0.0260924
0.0239279
0.0196769
0.0123973
0.000309699
-0.0168735
-0.0371912
-0.0583628
-0.0753196
-0.081795
-0.0814904
-0.0719588
-0.0579564
-0.0419798
-0.0247952
-0.00909559
0.00381493
0.0133088
0.0188787
0.0218354
0.0233001
0.0239443
0.024207
0.0242576
0.0241931
0.0240826
0.0239719
0.0238877
0.0238646
0.0253367
0.025288
0.0253366
0.0254613
0.0256639
0.0259403
0.0263047
0.0267916
0.0273512
0.0279229
0.0284459
0.0281117
0.0259415
0.0208857
0.0116213
-0.00186725
-0.02045
-0.0428406
-0.0690999
-0.0921677
-0.106145
-0.105962
-0.0950933
-0.0807559
-0.0612401
-0.0393063
-0.0188228
-0.00276645
0.00848148
0.0151945
0.0191118
0.021216
0.0223747
0.0230301
0.0233824
0.0235333
0.0235732
0.0235523
0.0235091
0.0234481
0.0250051
0.0250102
0.0250598
0.0251732
0.0253704
0.0256581
0.0260365
0.0265245
0.0271228
0.0276901
0.028381
0.028012
0.0254649
0.0201774
0.0105084
-0.00360902
-0.0227617
-0.0457326
-0.0736883
-0.098963
-0.117626
-0.116825
-0.10354
-0.0869098
-0.0634485
-0.0405147
-0.0201197
-0.00435246
0.00648
0.0133939
0.0175212
0.0199643
0.0213981
0.0221973
0.0226597
0.0229074
0.0230325
0.0230687
0.0230701
0.0229946
0.0244836
0.0245486
0.0246271
0.0247369
0.0249003
0.0251291
0.0254297
0.0258076
0.0262639
0.0266492
0.0268306
0.0257425
0.0225971
0.0170113
0.00805466
-0.00496922
-0.0224269
-0.0430313
-0.0658224
-0.0849261
-0.0992508
-0.0967805
-0.0841106
-0.0681224
-0.0474653
-0.0290237
-0.0134264
-0.00102273
0.00805664
0.0139851
0.0175996
0.01974
0.0210164
0.0217406
0.0221606
0.02239
0.0225084
0.0225493
0.0225553
0.0225305
0.0237325
0.0237903
0.0238624
0.0239559
0.0240751
0.0242251
0.0244054
0.024594
0.0247547
0.0247636
0.0241262
0.0221637
0.0180341
0.011185
0.00163447
-0.0105554
-0.0252603
-0.0416292
-0.0562896
-0.0657556
-0.0683555
-0.0648689
-0.0557
-0.0424113
-0.0277258
-0.0144031
-0.00316216
0.006032
0.0124695
0.0164499
0.0188462
0.0202859
0.0211462
0.0216533
0.0219501
0.0221051
0.0221708
0.0221849
0.0221801
0.0221907
0.0228987
0.0228955
0.022904
0.0229317
0.02297
0.0230009
0.0229967
0.0228863
0.022536
0.0217705
0.020092
0.0169455
0.0116305
0.00383805
-0.00619763
-0.0177256
-0.030197
-0.0427057
-0.0519634
-0.0547767
-0.0518684
-0.0455009
-0.0361906
-0.0242024
-0.0124338
-0.00174076
0.00707068
0.0133972
0.0172353
0.0192471
0.0204048
0.021102
0.02152
0.0217693
0.0219075
0.0219741
0.022004
0.0220133
0.0220103
0.0219932
0.0220571
0.0220112
0.0219793
0.0219427
0.0218772
0.021743
0.0214771
0.0209857
0.0200511
0.0183444
0.0153494
0.0103979
0.00345911
-0.00536924
-0.0159498
-0.0273313
-0.0386012
-0.0488553
-0.0555283
-0.0554594
-0.0512639
-0.0417621
-0.0288897
-0.0152373
-0.00267076
0.00748412
0.0146446
0.018607
0.0205598
0.0214598
0.0218659
0.0219604
0.02195
0.0219042
0.0218545
0.0218105
0.0217784
0.0217552
0.0217365
0.02172
0.0212656
0.0212401
0.0212037
0.0211236
0.0209586
0.0206593
0.0201485
0.0193031
0.017893
0.0155237
0.0114807
0.00491557
-0.00434167
-0.0160655
-0.0294352
-0.0425217
-0.0542491
-0.0637462
-0.0695094
-0.0686215
-0.0600885
-0.0457127
-0.0290391
-0.0131598
0.00039451
0.0105785
0.0175098
0.0210915
0.0227753
0.0232256
0.0230018
0.0225964
0.0222102
0.0219035
0.0216674
0.0214973
0.0213798
0.0213084
0.0212805
0.0213254
0.0205607
0.0206025
0.0205504
0.0204198
0.0201718
0.0197727
0.0191255
0.0180719
0.0164798
0.0137317
0.00935273
0.00233421
-0.00802258
-0.0216583
-0.0374751
-0.0529514
-0.0674559
-0.0773682
-0.0846929
-0.08336
-0.068887
-0.0505217
-0.0303946
-0.0137654
9.61363e-05
0.0104201
0.0175988
0.0215855
0.0235413
0.0238311
0.0232681
0.0226783
0.0220963
0.0216821
0.0213513
0.02113
0.0209834
0.0209078
0.0208912
0.0209323
0.0198897
0.0199313
0.0198719
0.0197382
0.019491
0.0190974
0.0184666
0.0174586
0.0159018
0.0133013
0.00914845
0.00284247
-0.00611636
-0.0179071
-0.0322388
-0.0474965
-0.0623431
-0.072982
-0.0811831
-0.0805491
-0.0661506
-0.0489839
-0.0299915
-0.0140405
-0.000767452
0.00925404
0.0160939
0.0199886
0.0220105
0.0227132
0.0224162
0.0220039
0.0215527
0.0211984
0.0209273
0.0207338
0.0206067
0.0205346
0.020496
0.0204766
0.0192868
0.0192665
0.0192238
0.0191369
0.0189655
0.0186738
0.0182005
0.0174469
0.0162352
0.0142689
0.0110799
0.00628632
-0.000399495
-0.00890779
-0.01925
-0.0310643
-0.0432128
-0.0527763
-0.0595883
-0.0607577
-0.0535882
-0.0429332
-0.0294845
-0.0162136
-0.00458556
0.00469535
0.011511
0.0160456
0.0188406
0.0202382
0.020708
0.0207116
0.0205074
0.0203297
0.0201794
0.0200663
0.0199832
0.0199226
0.0198695
0.0198165
0.0188847
0.0188546
0.0188248
0.0187716
0.0186697
0.0184964
0.0182106
0.01777
0.0170713
0.015958
0.014093
0.0110449
0.00635978
0.000243362
-0.00706103
-0.0156344
-0.0246117
-0.0329509
-0.0392665
-0.0426931
-0.0429985
-0.038436
-0.0303347
-0.0204544
-0.0108678
-0.00233552
0.00483487
0.010456
0.0144347
0.0168627
0.0181643
0.0187193
0.0189448
0.0190359
0.0190552
0.0190529
0.0190446
0.019036
0.0190289
0.0190185
0.0185982
0.0186087
0.0185919
0.0185606
0.0185127
0.0184477
0.0183471
0.0181817
0.017937
0.0175332
0.0168073
0.0153704
0.0126911
0.00840712
0.00246205
-0.00513884
-0.0139105
-0.02293
-0.0308817
-0.0364084
-0.038593
-0.0382351
-0.0336276
-0.0259891
-0.0176618
-0.00941019
-0.00195614
0.00425947
0.00912805
0.012695
0.0149969
0.0163559
0.0171523
0.0175907
0.0178238
0.0179573
0.0180392
0.0180982
0.0181524
0.0182018
0.0182114
0.018203
0.0182129
0.0182327
0.0182685
0.0183292
0.0184222
0.0185277
0.0186708
0.0187944
0.0187758
0.0183235
0.0169993
0.014036
0.00866173
0.000946923
-0.00891886
-0.0197109
-0.030249
-0.0385498
-0.0431582
-0.0450777
-0.0421194
-0.0357604
-0.0276665
-0.0190611
-0.0105065
-0.00280886
0.00360999
0.00861292
0.0120907
0.0142579
0.0155539
0.01631
0.0167695
0.0170459
0.0172062
0.0172983
0.0173591
0.017423
0.0177583
0.0177072
0.0177141
0.0177629
0.0178601
0.0180122
0.0182594
0.0185786
0.0190082
0.0194923
0.0199856
0.0198155
0.0185133
0.0159758
0.0110887
0.00372809
-0.00624343
-0.0182123
-0.0315072
-0.0433807
-0.0541978
-0.0571402
-0.054188
-0.0482262
-0.0391277
-0.0291898
-0.0186426
-0.00858168
-0.000233845
0.00594183
0.0101262
0.0127297
0.0143118
0.0153018
0.0159379
0.0163326
0.016568
0.0166883
0.0167462
0.0167472
0.0173226
0.0172936
0.0172985
0.0173443
0.0174468
0.0176176
0.0178746
0.0182337
0.0187006
0.0192087
0.0197196
0.0195274
0.0182045
0.0157455
0.0110712
0.0041767
-0.00523505
-0.0171928
-0.0314673
-0.0455453
-0.0579174
-0.0614701
-0.0581478
-0.0517105
-0.0419368
-0.0309661
-0.0195171
-0.00911342
-0.0008974
0.00518165
0.00933033
0.0119023
0.0135745
0.0146405
0.0153227
0.0157374
0.0160073
0.0161558
0.016217
0.0161673
0.0167877
0.0168111
0.0168412
0.0168859
0.0169595
0.017074
0.017241
0.0174695
0.0177453
0.0179192
0.0178785
0.0172539
0.0157234
0.0129233
0.00823481
0.00152925
-0.0071439
-0.0175098
-0.0293058
-0.0404
-0.0488264
-0.0508612
-0.0473502
-0.0410039
-0.0318152
-0.0220984
-0.0126397
-0.00454038
0.00170745
0.00654619
0.0098953
0.0120876
0.0134946
0.0143671
0.0149176
0.0152567
0.0154698
0.0155832
0.0156333
0.0156177
0.01609
0.0161179
0.0161375
0.0161518
0.0161643
0.0161782
0.0161897
0.0161797
0.0161183
0.0157895
0.0149646
0.0133949
0.0108471
0.00713651
0.00204762
-0.00432999
-0.0117849
-0.0196059
-0.0270388
-0.0329045
-0.0352122
-0.0342122
-0.0303112
-0.0245775
-0.0175099
-0.0103527
-0.00376817
0.00164626
0.00600611
0.00934267
0.0115536
0.0129927
0.0138787
0.0144163
0.0147512
0.0149541
0.0150719
0.0151275
0.0151572
0.0151893
0.0153211
0.015296
0.0152537
0.0151974
0.0151238
0.0150149
0.0148353
0.0145167
0.0139835
0.0130492
0.0114159
0.00888514
0.00533748
0.00080063
-0.00469678
-0.0108252
-0.0172354
-0.0230284
-0.0269279
-0.0284817
-0.027673
-0.023879
-0.0186836
-0.0127741
-0.00666559
-0.00105008
0.00371893
0.00748875
0.0104007
0.0123217
0.0134286
0.0140552
0.0144042
0.0146241
0.0147638
0.0148478
0.0148989
0.0149279
0.0149441
0.0149556
0.0145623
0.0144919
0.0144106
0.0143073
0.0141623
0.0139346
0.0135631
0.0129373
0.0118989
0.0102319
0.00768861
0.00421992
-0.000246076
-0.00572241
-0.0119348
-0.0183873
-0.0245657
-0.0291702
-0.030945
-0.0294068
-0.0264752
-0.0210627
-0.0142428
-0.00697431
-4.42028e-05
0.00556445
0.0097816
0.0125782
0.0141285
0.0147215
0.0149322
0.0149344
0.0148884
0.0148424
0.014805
0.0147766
0.014762
0.0147537
0.0147468
0.0147274
0.0138814
0.0138285
0.01376
0.013643
0.0134455
0.0131148
0.0125811
0.0117224
0.0103008
0.00801201
0.00456184
-0.000192804
-0.00628899
-0.0134261
-0.020979
-0.0282886
-0.0345251
-0.038688
-0.0396182
-0.0358608
-0.0291886
-0.0211786
-0.0119539
-0.00304819
0.00435755
0.00989023
0.0135888
0.0155288
0.0163535
0.0163187
0.0159266
0.0155175
0.0151458
0.0148679
0.014663
0.0145243
0.0144314
0.014375
0.0143489
0.0143729
0.0133237
0.0133479
0.0132896
0.0131528
0.0129082
0.0125102
0.0118749
0.0108817
0.00931036
0.00675183
0.00289728
-0.00252896
-0.00978097
-0.0182969
-0.0270112
-0.0352065
-0.0418084
-0.0462296
-0.0471637
-0.0419513
-0.0319251
-0.0209649
-0.00980601
-0.000139951
0.00684857
0.0118242
0.0148846
0.0162052
0.0169058
0.0167894
0.0161344
0.0155531
0.0150164
0.0146177
0.0143273
0.0141308
0.0140112
0.0139559
0.0139442
0.0139845
0.0128397
0.0128865
0.0128354
0.0127078
0.0124713
0.0120891
0.0114852
0.0105259
0.00907818
0.00673393
0.0032464
-0.00147168
-0.00779844
-0.0155572
-0.0238364
-0.0318266
-0.0385422
-0.0431087
-0.0444
-0.0398951
-0.0307162
-0.0199497
-0.00941887
-0.000742104
0.00577875
0.0105059
0.0134621
0.0149674
0.0156976
0.0157197
0.0153163
0.0149227
0.0144798
0.0141489
0.0139062
0.0137447
0.0136455
0.0135963
0.0135786
0.0135828
0.0123932
0.0123939
0.012361
0.0122852
0.012136
0.0118813
0.0114664
0.0107823
0.00970561
0.00804449
0.00551773
0.0021189
-0.0021744
-0.00767223
-0.0139195
-0.0202951
-0.026011
-0.030144
-0.0321441
-0.030509
-0.0258526
-0.0188592
-0.0115864
-0.00504949
0.000817311
0.00550287
0.00890936
0.0111843
0.0125501
0.0132938
0.013587
0.0136098
0.013486
0.0133621
0.0132646
0.0131926
0.0131418
0.0131059
0.0130743
0.0130444
0.0120911
0.0120653
0.0120526
0.0120294
0.0119738
0.0118626
0.0116734
0.011352
0.0107948
0.00991147
0.0084626
0.00626939
0.00352602
8.08457e-05
-0.00406389
-0.00859698
-0.0132257
-0.0171244
-0.0203845
-0.0221874
-0.0213768
-0.0187006
-0.0149477
-0.0103175
-0.00536447
-0.000953973
0.00287263
0.00598261
0.00834445
0.010062
0.0111365
0.0117118
0.0120096
0.012176
0.0122653
0.0123211
0.012357
0.0123778
0.0123845
0.0123763
0.0119244
0.0119325
0.0119348
0.0119374
0.0119366
0.0119343
0.0119193
0.0118923
0.0117991
0.0115691
0.0110792
0.0100628
0.0084132
0.00610655
0.00295228
-0.00107773
-0.00572314
-0.0104498
-0.0147496
-0.0181195
-0.019848
-0.0205223
-0.0194808
-0.0160999
-0.0117124
-0.00718912
-0.0028024
0.00107344
0.00425149
0.00670314
0.00847407
0.00965756
0.0104055
0.010877
0.0111662
0.0113489
0.0114721
0.0115646
0.0116361
0.0116853
0.0116907
0.0117084
0.0117335
0.0117759
0.0118374
0.0119335
0.01207
0.0122618
0.0124873
0.0127468
0.0129915
0.0129669
0.0122344
0.0106795
0.00793238
0.00396087
-0.00112334
-0.00702914
-0.012813
-0.0179831
-0.0222416
-0.0256087
-0.0261004
-0.0237451
-0.0195793
-0.0145261
-0.00915976
-0.00412244
0.000187508
0.00358784
0.0061507
0.00795542
0.00912552
0.0098551
0.0103043
0.0105836
0.0107606
0.0108783
0.0109643
0.0110367
0.0113453
0.0113208
0.0113474
0.0114116
0.011524
0.0116996
0.0119497
0.0122957
0.0127605
0.0133165
0.013895
0.0143559
0.0142642
0.0135181
0.0115869
0.00817267
0.00329551
-0.00375646
-0.0115838
-0.0193828
-0.0265384
-0.032158
-0.033322
-0.0312528
-0.0271636
-0.0214918
-0.015151
-0.00880278
-0.00317284
0.0013118
0.00457096
0.0068354
0.00824776
0.00914688
0.00971151
0.0100679
0.0102843
0.0104064
0.010472
0.0104985
0.0109853
0.0109539
0.010965
0.0110144
0.0111224
0.0113047
0.0115768
0.0119454
0.0124854
0.0130521
0.0136266
0.0141509
0.01426
0.0138286
0.0124096
0.00953777
0.00500888
-0.00208679
-0.0106299
-0.0194076
-0.0274943
-0.0335215
-0.0347744
-0.0325948
-0.0285279
-0.0226145
-0.0160866
-0.00956075
-0.00374049
0.000765091
0.0040321
0.00632289
0.0077716
0.00871355
0.00929741
0.00968497
0.00992595
0.0100569
0.0101086
0.0100703
0.0105761
0.0105803
0.0105996
0.0106394
0.0107145
0.0108343
0.0110168
0.0112641
0.0115793
0.0118802
0.012086
0.012127
0.0117769
0.010813
0.00902027
0.00604825
0.00181075
-0.00377166
-0.0104037
-0.0173052
-0.0230575
-0.0269954
-0.0272523
-0.0250489
-0.0212288
-0.0160369
-0.0106324
-0.00547113
-0.00108527
0.00230646
0.00484941
0.00664093
0.00783127
0.00859744
0.00907433
0.00938811
0.00957703
0.0096771
0.009718
0.0096872
0.0100436
0.0100646
0.0100803
0.0100914
0.0101028
0.0101158
0.0101325
0.0101332
0.0100787
0.00988041
0.00939502
0.00850477
0.00721008
0.00536303
0.002929
-0.000130978
-0.00377361
-0.00757117
-0.0112971
-0.0146864
-0.0170117
-0.0175207
-0.0161478
-0.0136764
-0.0104768
-0.00674435
-0.00307442
0.00020878
0.0028799
0.00498966
0.00658192
0.00764903
0.00837297
0.00880326
0.00906167
0.00921657
0.00930115
0.00934091
0.00935962
0.00937312
0.00942681
0.00941518
0.00938356
0.00933069
0.00925343
0.00913731
0.00895851
0.00867714
0.00821394
0.00746212
0.00629691
0.00464972
0.00252786
-5.76116e-05
-0.00306388
-0.00626336
-0.00944512
-0.0121204
-0.0133661
-0.0134572
-0.0128867
-0.0111336
-0.00856932
-0.00550833
-0.00244896
0.000536742
0.00303303
0.0050129
0.00650907
0.00762987
0.00838023
0.00880113
0.00902649
0.0091276
0.00917538
0.00919766
0.00920347
0.00920009
0.0091962
0.00920509
0.00881539
0.0087593
0.00867994
0.00857238
0.00842484
0.00820377
0.0078603
0.00732467
0.00649524
0.00525109
0.00350696
0.00119517
-0.00178369
-0.0053357
-0.00919873
-0.0129343
-0.0159326
-0.0175756
-0.017047
-0.0145143
-0.0116122
-0.00820086
-0.00477309
-0.00105252
0.0024332
0.00538637
0.00747156
0.00880073
0.00952909
0.00979878
0.00977953
0.00967033
0.00952094
0.00938844
0.00928653
0.00921453
0.00916771
0.00913633
0.00911398
0.00908856
0.00827168
0.00821635
0.008138
0.00802096
0.0078394
0.00755444
0.00710733
0.00638478
0.00523925
0.00352891
0.00112151
-0.0021451
-0.00627726
-0.0109903
-0.0158103
-0.0200872
-0.0230846
-0.0239772
-0.0222941
-0.0177043
-0.0123787
-0.00690316
-0.00160552
0.0031226
0.00680444
0.00937397
0.0108723
0.0115209
0.0115282
0.0111168
0.0106078
0.0101234
0.00973
0.00943819
0.00922442
0.00907017
0.00896627
0.00890029
0.00886327
0.00885408
0.00783242
0.00782908
0.00777464
0.00766261
0.00746204
0.00713838
0.00662728
0.00580793
0.00449589
0.00249299
-0.000307437
-0.00422606
-0.00911931
-0.0145005
-0.0197727
-0.0242358
-0.0273805
-0.0280093
-0.0257539
-0.0200504
-0.0130819
-0.00597066
0.000889916
0.00633927
0.00989639
0.0118514
0.0126824
0.0126866
0.0121355
0.0113928
0.0107161
0.0100699
0.0095682
0.00918717
0.00891289
0.00872254
0.00859939
0.00853298
0.00851037
0.008535
0.00747619
0.00750781
0.00746858
0.00736775
0.00717348
0.0068623
0.00637264
0.00560689
0.00438616
0.00255857
3.81389e-05
-0.00341492
-0.00777516
-0.0125757
-0.0173309
-0.0213349
-0.0244987
-0.0252121
-0.023497
-0.0185539
-0.0122912
-0.00578281
0.000388427
0.00525961
0.00852314
0.0104435
0.0113446
0.0114807
0.0111006
0.0105593
0.0100101
0.00948426
0.0090676
0.00873532
0.00849928
0.00834177
0.00824505
0.00820069
0.00818711
0.00820593
0.00716475
0.00717595
0.00714808
0.00708557
0.00696128
0.00675169
0.00640597
0.00587307
0.00504235
0.0037912
0.00207312
-0.000174802
-0.00306744
-0.0063949
-0.00985117
-0.0129559
-0.0153202
-0.016573
-0.0163402
-0.0140715
-0.010534
-0.00653792
-0.0027448
0.000542741
0.00322564
0.00535285
0.0068062
0.00774383
0.00825802
0.00846989
0.00847931
0.00835576
0.00820951