/*--------------------------------*- C++ -*----------------------------------*\
| =========                 |                                                 |
| \\      /  F ield         | OpenFOAM: The Open Source CFD Toolbox           |
|  \\    /   O peration     | Version:  v2106                                 |
|   \\  /    A nd           | Website:  www.openfoam.com                      |
|    \\/     M anipulation  |                                                 |
\*---------------------------------------------------------------------------*/
FoamFile
{
    version     2.0;
    format      ascii;
    arch        "LSB;label=32;scalar=64";
    class       volScalarField;
    location    "0";
    object      p;
}
// * * * * * * * * * * * * * * * * * * * * * * * * * * * * * * * * * * * * * //

dimensions      [0 2 -2 0 0 0 0];

internalField   nonuniform List<scalar> 
11644
(
0.0422344
0.0426513
0.0435311
0.0448906
0.0467318
0.0490642
0.0519009
0.05525
0.0591092
0.0634611
0.0682703
0.0734675
0.0789507
0.0845849
0.0901842
0.095571
0.100513
0.104773
0.108147
0.110437
0.111543
0.111493
0.11038
0.108297
0.105296
0.101593
0.0974831
0.0931566
0.0887857
0.0845383
0.0805253
0.0768278
0.0735039
0.0705849
0.0680873
0.0660158
0.0643694
0.0631474
0.0623521
0.0619725
0.041505
0.041916
0.042766
0.044078
0.0458687
0.048154
0.0509512
0.0542762
0.0581371
0.0625289
0.0674282
0.0727819
0.0785013
0.084447
0.090449
0.0962617
0.101633
0.10627
0.10994
0.112435
0.113609
0.113419
0.112002
0.109585
0.106271
0.102247
0.097778
0.0931267
0.0884956
0.0840469
0.0798968
0.0761169
0.0727487
0.069815
0.0673225
0.0652699
0.0636512
0.0624586
0.0616823
0.061306
0.039908
0.0403245
0.0411525
0.0424073
0.0441192
0.0463191
0.0490365
0.0523024
0.0561473
0.0605954
0.0656544
0.0713149
0.0775195
0.0841419
0.090976
0.0977409
0.104096
0.109694
0.114135
0.117056
0.118303
0.117834
0.115769
0.112458
0.108231
0.10337
0.098149
0.0928605
0.087733
0.0829243
0.0785299
0.0746074
0.0711735
0.0682257
0.0657528
0.0637376
0.0621608
0.0610007
0.0602348
0.0598516
0.0374965
0.0378934
0.0386794
0.0398595
0.0414646
0.0435374
0.0461255
0.0492831
0.0530721
0.0575598
0.0628186
0.0689004
0.0757923
0.0834142
0.0916013
0.099938
0.10796
0.115291
0.121082
0.12479
0.126155
0.1251
0.121904
0.117054
0.111238
0.104884
0.0984091
0.0921324
0.0862741
0.0809721
0.0762786
0.0721941
0.0687033
0.0657691
0.0633481
0.0613986
0.0598831
0.0587674
0.0580257
0.0576498
0.0343525
0.0347059
0.0354069
0.0364656
0.0379131
0.0397966
0.0421793
0.0451417
0.0487847
0.0532317
0.0586229
0.0651041
0.0728152
0.081799
0.0919201
0.102673
0.113216
0.123421
0.131479
0.136537
0.138069
0.135871
0.130667
0.123262
0.114969
0.10634
0.0980465
0.09045
0.083713
0.0778677
0.072891
0.0687095
0.0652358
0.0623849
0.0600771
0.0582447
0.0568329
0.0557984
0.0551142
0.0547711
0.0305772
0.0308584
0.0314279
0.0323021
0.033513
0.0351107
0.0371682
0.0397864
0.0431023
0.0473005
0.0526222
0.0593777
0.0678728
0.0783205
0.0909879
0.105395
0.119926
0.134558
0.146569
0.154206
0.155965
0.151616
0.142668
0.130792
0.11857
0.106696
0.0959395
0.0868396
0.0793121
0.0731156
0.0680427
0.0639362
0.0606376
0.0580008
0.0559134
0.0542857
0.0530489
0.0521556
0.051569
0.0512774
0.026283
0.0264765
0.0268702
0.0274831
0.028353
0.0295311
0.0310925
0.033145
0.0358531
0.0394807
0.0443889
0.0509674
0.0596457
0.0713646
0.0868319
0.10578
0.121374
0.140635
0.15871
0.171865
0.176443
0.171415
0.158905
0.142434
0.12055
0.104044
0.0903887
0.0799392
0.072101
0.0660527
0.0613506
0.0576675
0.0548011
0.052584
0.0508772
0.0495764
0.0486047
0.0479102
0.0474633
0.047239
0.0216109
0.0217006
0.0218763
0.0221619
0.022582
0.0231856
0.024039
0.0252506
0.0269999
0.0295929
0.0333931
0.0389021
0.0468019
0.0584306
0.0742173
0.0942938
0.122179
0.153994
0.185401
0.208979
0.216319
0.205161
0.180968
0.152486
0.12526
0.101985
0.0859747
0.0684306
0.0611961
0.0561011
0.052462
0.04975
0.0476991
0.0461702
0.0450369
0.0442023
0.0435999
0.04318
0.0429134
0.0427876
0.0167713
0.0167199
0.0166401
0.0165279
0.0164019
0.0162877
0.016231
0.0163097
0.0166816
0.017611
0.0193691
0.0223298
0.0271276
0.0407266
0.0545927
0.0776108
0.108922
0.154714
0.208735
0.256427
0.275361
0.254912
0.20951
0.160979
0.119879
0.0870331
0.069531
0.0507768
0.0460357
0.0431242
0.0413449
0.0402106
0.0394267
0.0388984
0.0385528
0.0383323
0.0381942
0.0381135
0.0380622
0.0380323
0.0119281
0.011765
0.0114095
0.0108626
0.0101241
0.00918049
0.00804193
0.00671958
0.00527528
0.00380479
0.00243594
0.00134252
0.000437827
0.0101871
0.0172489
0.0381488
0.0710798
0.128303
0.220761
0.332203
0.386747
0.333798
0.229941
0.145095
0.0863819
0.0500655
0.0389819
0.0266846
0.0268921
0.0275308
0.0284665
0.0294409
0.0303148
0.0310585
0.0316795
0.0321911
0.0325918
0.0328836
0.0330766
0.0331745
0.00739972
0.00708539
0.00644081
0.00545953
0.00409177
0.00229045
-2.25863e-05
-0.00292415
-0.00649175
-0.0109205
-0.0164222
-0.0231055
-0.0313473
-0.0319188
-0.0383537
-0.0378864
-0.0287233
-0.00257378
0.10242
0.358756
0.575981
0.377405
0.140553
0.0351235
-0.00113654
-0.0108857
-0.00413665
-0.00231348
0.00475829
0.0103628
0.0147613
0.0182329
0.0209709
0.0231002
0.0247697
0.0260698
0.027056
0.0277545
0.0282013
0.0284029
0.00345562
0.0029914
0.00209232
0.000683807
-0.00127984
-0.00389093
-0.00732967
-0.0117832
-0.0174911
-0.0249056
-0.0346676
-0.0476075
-0.0648283
-0.0729898
-0.103089
-0.130489
-0.183393
-0.296173
-0.590478
-0.430516
-0.216476
-0.129127
-0.08348
-0.0512331
-0.0323183
-0.0171538
-0.00628364
0.00169633
0.00766666
0.0121852
0.0156285
0.0182942
0.0203344
0.0218504
0.022924
0.0236089
0.0239595
0.000203994
-0.000314189
-0.00141366
-0.0031401
-0.00558086
-0.00885508
-0.0131732
-0.018853
-0.02628
-0.0360604
-0.049071
-0.0666723
-0.0903115
-0.109536
-0.153636
-0.203721
-0.292734
-0.465993
-0.665486
-0.542747
-0.380252
-0.223739
-0.137354
-0.088255
-0.053413
-0.0334608
-0.0192321
-0.00877301
-0.0010135
0.00483279
0.00928735
0.012722
0.0153418
0.0172691
0.0186397
0.019532
0.0199818
-0.00205377
-0.00266562
-0.00391049
-0.00581908
-0.00852429
-0.0121713
-0.0169465
-0.0232468
-0.0315469
-0.0424925
-0.0570153
-0.0765012
-0.102115
-0.127536
-0.175029
-0.230217
-0.312228
-0.422424
-0.462231
-0.464647
-0.378825
-0.236582
-0.146017
-0.0989262
-0.0602366
-0.0406286
-0.0260848
-0.0150996
-0.00677119
-0.000347267
0.00462314
0.00846404
0.0113935
0.013557
0.0151044
0.0161164
0.0165636
-0.00326454
-0.00390936
-0.00517304
-0.00712209
-0.00984711
-0.013499
-0.0182465
-0.024429
-0.0325765
-0.0433126
-0.0572922
-0.0757099
-0.0997104
-0.126513
-0.171236
-0.226942
-0.306458
-0.413437
-0.457683
-0.516439
-0.521253
-0.451401
-0.416577
-0.287993
-0.174716
-0.112302
-0.0831922
-0.053273
-0.0385821
-0.0265511
-0.0169216
-0.00921166
-0.00302272
0.00191216
0.00577781
0.00871165
0.0108763
0.012404
0.0133899
0.0139684
-0.00362329
-0.00409166
-0.00522093
-0.00699423
-0.00946039
-0.0127285
-0.0169157
-0.0223233
-0.0293166
-0.0383231
-0.0498896
-0.0648932
-0.0843558
-0.109575
-0.147652
-0.203362
-0.284403
-0.430822
-0.637777
-0.761927
-0.738016
-0.463882
-0.169111
-0.052048
-0.0628865
-0.0576559
-0.0526221
-0.0372623
-0.0296006
-0.021832
-0.0147169
-0.00854035
-0.00329209
0.00111667
0.00466757
0.00737072
0.00940666
0.0108656
0.0118001
0.0121404
-0.0027619
-0.00320818
-0.00410332
-0.0054898
-0.0074194
-0.00995032
-0.0131497
-0.0171501
-0.0221681
-0.0284144
-0.0362735
-0.0464546
-0.0596524
-0.0763557
-0.107722
-0.146739
-0.213255
-0.320905
-0.511138
-0.691308
-0.670584
-0.381666
-0.0374335
0.0719388
0.0093025
-0.0165412
-0.0228722
-0.0217649
-0.0189362
-0.0145803
-0.00996641
-0.00555815
-0.00152451
0.00205496
0.0049809
0.00728625
0.00907862
0.0103593
0.0111345
0.0113878
-0.000751881
-0.00112622
-0.00174531
-0.00268675
-0.00395586
-0.00558037
-0.00756304
-0.00979109
-0.0123776
-0.0154519
-0.0191679
-0.0238352
-0.0300964
-0.0369774
-0.0595455
-0.0768173
-0.117621
-0.166031
-0.247501
-0.341059
-0.351513
-0.22579
-0.0507251
0.0124736
-0.0120251
-0.0159046
-0.0153739
-0.013719
-0.0111333
-0.00793481
-0.00466734
-0.00145015
0.00156207
0.00420982
0.0064019
0.00818354
0.00956505
0.0105363
0.011162
0.0114984
0.00194724
0.00176029
0.00144402
0.000966181
0.000365812
-0.000336622
-0.00110152
-0.00172427
-0.00215848
-0.00236068
-0.00223552
-0.00182281
-0.00117713
-0.000635175
-0.0100744
-0.0148323
-0.0373905
-0.0696049
-0.122739
-0.195982
-0.25401
-0.245023
-0.187541
-0.132798
-0.0736254
-0.0389428
-0.0194539
-0.0124378
-0.00701585
-0.00297261
0.000121991
0.00276381
0.00502368
0.00691006
0.00847546
0.00975772
0.0107575
0.011496
0.0120208
0.0123354
0.00502967
0.00499923
0.00492039
0.00484502
0.00482418
0.00494005
0.0052346
0.00582495
0.00695347
0.00890463
0.0119338
0.0160318
0.0228452
0.0278021
0.0265749
0.0290208
0.0162466
-0.0187074
-0.104922
-0.235942
-0.345594
-0.375697
-0.324729
-0.219951
-0.103189
-0.0516905
-0.0223747
-0.0106726
-0.00326508
0.00144086
0.00452942
0.0068059
0.00853816
0.00990685
0.0110086
0.0118972
0.0125994
0.0131309
0.0135051
0.0137055
0.00809155
0.00815783
0.00828138
0.00852397
0.00894784
0.00965804
0.0107477
0.0123118
0.0145619
0.0178555
0.0225109
0.0290232
0.0382552
0.0469351
0.0484015
0.0545847
0.0426779
-0.00431919
-0.107932
-0.250739
-0.351857
-0.359126
-0.285233
-0.177802
-0.0812132
-0.0427522
-0.0144228
-0.00338273
0.00309032
0.006993
0.009492
0.0111955
0.0123981
0.0132762
0.0139258
0.0144309
0.0148255
0.0151182
0.0153167
0.0154189
0.0108553
0.0110063
0.0113005
0.0117738
0.0124885
0.0135344
0.0150291
0.0171143
0.0199445
0.0237468
0.0287405
0.0349804
0.0438292
0.0529437
0.0541602
0.0506238
0.0277641
-0.0215508
-0.0937901
-0.165897
-0.198872
-0.181415
-0.133893
-0.083679
-0.0459481
-0.0117389
-7.82611e-07
0.00745157
0.0117203
0.0140753
0.0153612
0.0161047
0.0165483
0.0168235
0.0169904
0.0171002
0.0171744
0.0172184
0.0172411
0.0172698
0.0133319
0.013528
0.0139056
0.0144842
0.0153077
0.0164359
0.0179461
0.0199443
0.022548
0.025862
0.0300105
0.0343992
0.0402122
0.0475014
0.0395636
0.0184942
-0.0211101
-0.0692503
-0.100297
-0.109491
-0.102839
-0.0797981
-0.0519187
-0.0275829
-0.00874069
0.00417228
0.0133822
0.0181596
0.0205015
0.0213
0.0212918
0.0209629
0.0205363
0.0201533
0.0198398
0.0196006
0.0194211
0.019283
0.0191701
0.0190974
0.0155542
0.0157516
0.0161194
0.0166823
0.0174513
0.0184575
0.01972
0.0212428
0.0230905
0.0251188
0.0272698
0.0286924
0.0280825
0.0248447
0.00757029
-0.0270173
-0.0684576
-0.111919
-0.137597
-0.135878
-0.116394
-0.0802999
-0.0431695
-0.0147737
0.00523889
0.0175051
0.0241428
0.0273133
0.0279829
0.0274325
0.0263833
0.0251673
0.0239987
0.0230237
0.0222709
0.0217199
0.0213266
0.0210603
0.0208884
0.0207569
0.0174887
0.0176464
0.0179645
0.0184484
0.0190847
0.019873
0.0207956
0.0217626
0.0227523
0.0233149
0.0231216
0.0212071
0.0146217
0.00154108
-0.0254218
-0.0661029
-0.116544
-0.173512
-0.213204
-0.214598
-0.177302
-0.122921
-0.0668694
-0.0220716
0.00788945
0.0248367
0.0319215
0.0339222
0.0335438
0.0320099
0.0301527
0.0282871
0.0266611
0.0253022
0.0242449
0.0234347
0.0228378
0.022424
0.022179
0.0221025
0.0191646
0.019276
0.0195289
0.0199121
0.0204089
0.0209884
0.0216056
0.0221557
0.0224239
0.0219847
0.0200372
0.016127
0.00694567
-0.00940826
-0.0406007
-0.0840948
-0.140207
-0.196807
-0.24242
-0.245537
-0.19934
-0.140426
-0.0797579
-0.0317335
0.0018586
0.0237161
0.0349427
0.0380867
0.0369216
0.0348087
0.0324152
0.0302181
0.0283782
0.0268831
0.0256947
0.0247682
0.0240667
0.0235867
0.0233
0.0232571
0.0205899
0.0206847
0.0209078
0.0212345
0.0216493
0.0221046
0.0225294
0.0228177
0.0227893
0.0220585
0.0200421
0.015842
0.00766424
-0.00719781
-0.0338556
-0.0706767
-0.113799
-0.156261
-0.192063
-0.197705
-0.166105
-0.122871
-0.074394
-0.0332192
-0.00273882
0.0190151
0.0323428
0.0381082
0.0379319
0.0357482
0.0332561
0.0311071
0.0293159
0.0278472
0.0266641
0.0257477
0.0250761
0.0246264
0.0243564
0.0242347
0.0217338
0.0218619
0.022108
0.0224396
0.0228349
0.0232539
0.0236341
0.0238902
0.0239049
0.0234767
0.0222436
0.0194743
0.0143362
0.00525168
-0.0122483
-0.0391338
-0.0692198
-0.0998647
-0.122771
-0.132324
-0.125637
-0.103913
-0.0727057
-0.0381755
-0.00891748
0.0132083
0.0270768
0.0337302
0.0354035
0.0342636
0.0325338
0.0308958
0.0293951
0.0281063
0.0270596
0.0262475
0.0256384
0.0252063
0.0249225
0.024762
0.0226819
0.022862
0.0230927
0.0234057
0.0237873
0.024224
0.0246829
0.0251008
0.0254164
0.0254825
0.0250667
0.023725
0.0207682
0.0154633
0.00611368
-0.0107566
-0.0335172
-0.0590151
-0.0805714
-0.0951138
-0.101383
-0.0935562
-0.0725329
-0.0456525
-0.0201289
0.000975495
0.015976
0.0250572
0.0293733
0.0302586
0.0300494
0.0293455
0.028422
0.0275306
0.0267593
0.0261224
0.0256141
0.0252375
0.0249913
0.0248699
0.0233989
0.0235307
0.0237461
0.0240541
0.0244547
0.024953
0.0255438
0.0262013
0.0268834
0.027445
0.0276576
0.0268549
0.024775
0.0202083
0.0127845
0.00065788
-0.0189473
-0.0435635
-0.0686484
-0.0891358
-0.0980826
-0.0963604
-0.0832283
-0.0621205
-0.0394377
-0.0178092
0.000437959
0.013926
0.0215883
0.0250679
0.0265175
0.0268715
0.0267496
0.0264346
0.0260544
0.02567
0.0253291
0.0250591
0.024876
0.0247911
0.0238309
0.0238499
0.024062
0.0244047
0.0248719
0.025453
0.0261634
0.0270136
0.0279614
0.0288776
0.0295263
0.0295155
0.0279919
0.023485
0.0142365
-0.000806273
-0.0231429
-0.0510615
-0.0835262
-0.11128
-0.125698
-0.126249
-0.113774
-0.0924185
-0.0644522
-0.0360996
-0.012532
0.0042862
0.0147732
0.0203679
0.0230901
0.0244155
0.0250532
0.0252808
0.025275
0.0251526
0.0249888
0.0248307
0.0247014
0.0246067
0.0241237
0.0241372
0.0243052
0.024617
0.0250788
0.0256771
0.0264151
0.0273295
0.0283624
0.0294765
0.0304511
0.0309228
0.029251
0.0237814
0.0130265
-0.004577
-0.0290149
-0.0592435
-0.0978706
-0.13118
-0.156848
-0.155097
-0.136595
-0.111633
-0.0776546
-0.0454945
-0.0196697
-0.0012097
0.0102565
0.016941
0.0206462
0.0226625
0.0237633
0.0242771
0.0244987
0.0245607
0.0245398
0.0244834
0.0244163
0.0243251
0.0242334
0.0243273
0.0244898
0.0247516
0.0251447
0.0256749
0.0263434
0.0271565
0.028105
0.0292116
0.0300377
0.0300063
0.0272628
0.0208022
0.00976344
-0.00702692
-0.0302794
-0.0593838
-0.0935983
-0.124636
-0.147515
-0.144277
-0.123426
-0.0984032
-0.0673132
-0.0401619
-0.0181364
-0.00166304
0.00923977
0.0157504
0.0195809
0.0217353
0.0229313
0.0235552
0.0238746
0.0240185
0.0240609
0.0240486
0.0240187
0.0239799
0.0239877
0.0241092
0.0242928
0.0245477
0.0248897
0.025329
0.0258754
0.0265189
0.0272232
0.0279686
0.0282601
0.0271821
0.0234477
0.0158347
0.00388059
-0.0124655
-0.0333893
-0.0577798
-0.0817979
-0.0999714
-0.109805
-0.104796
-0.0893941
-0.0687359
-0.0460394
-0.0262069
-0.00886193
0.00396757
0.0122176
0.0171309
0.0200515
0.0217444
0.0227145
0.0232664
0.0235669
0.0237029
0.0237387
0.023725
0.0237023
0.0237032
0.023464
0.0235447
0.0236748
0.0238733
0.0241366
0.024457
0.0248235
0.0251951
0.0254517
0.0254402
0.0247703
0.0224316
0.0175632
0.00880355
-0.00401826
-0.0198795
-0.0384075
-0.0576725
-0.0731408
-0.0804401
-0.0786014
-0.0712691
-0.0588289
-0.0418893
-0.0249458
-0.00942979
0.00341466
0.011897
0.0167737
0.0196237
0.021294
0.0223195
0.0229375
0.0232975
0.0234854
0.023567
0.0235901
0.0235807
0.0235657
0.0235315
0.0228305
0.0228378
0.0229024
0.023013
0.0231544
0.0232908
0.0233743
0.0233281
0.02297
0.0219691
0.0198914
0.0156111
0.00857578
-0.00140642
-0.0139518
-0.0285866
-0.0440446
-0.0592281
-0.0699382
-0.0719272
-0.067125
-0.0563042
-0.0414451
-0.0243207
-0.00872646
0.0038246
0.0122918
0.017447
0.0203524
0.0219571
0.0227929
0.0231695
0.0233489
0.0234192
0.0234296
0.0234123
0.0233898
0.0233635
0.0233346
0.0232986
0.0221703
0.0221646
0.022195
0.0222276
0.0222295
0.0221543
0.0219185
0.0214171
0.0204606
0.0186005
0.0152046
0.00912939
-0.000430845
-0.0132693
-0.028682
-0.0448823
-0.0597989
-0.0727113
-0.0807172
-0.0806747
-0.0739843
-0.0581639
-0.0387198
-0.0196411
-0.00340889
0.008539
0.0165071
0.0210843
0.023237
0.0240268
0.0241452
0.0239688
0.0237139
0.0234707
0.023281
0.0231262
0.0230103
0.0229324
0.022889
0.0229102
0.0215343
0.0215785
0.0215781
0.0215295
0.021397
0.0211628
0.0206884
0.0198583
0.0184701
0.016086
0.0118778
0.00472053
-0.00653117
-0.0220632
-0.0414733
-0.0614329
-0.0800135
-0.0934683
-0.103307
-0.103143
-0.0894413
-0.0677002
-0.0429668
-0.0219246
-0.00439559
0.00863876
0.017672
0.0226652
0.0248037
0.0252962
0.0247718
0.0242897
0.023781
0.0233465
0.0230161
0.0227675
0.0225907
0.0224886
0.0224561
0.0225084
0.020879
0.0209394
0.0209113
0.0208217
0.0206349
0.0203142
0.0197565
0.0188164
0.0172364
0.0146587
0.0103195
0.00317738
-0.00761505
-0.0224363
-0.0412965
-0.0624586
-0.0829075
-0.0980651
-0.111976
-0.113564
-0.0926205
-0.0700677
-0.0437976
-0.0228063
-0.00509588
0.00777179
0.0165333
0.0215652
0.0241337
0.0248626
0.0244318
0.0239399
0.023398
0.0229623
0.022627
0.0223802
0.0222136
0.0221237
0.0220868
0.022088
0.0202315
0.0202326
0.0202058
0.0201349
0.0199767
0.0196886
0.0191987
0.0183968
0.017048
0.0148217
0.0110808
0.00507466
-0.00382003
-0.0155642
-0.0301755
-0.0472875
-0.0655537
-0.0802102
-0.0917613
-0.0938485
-0.0811859
-0.0639226
-0.0434801
-0.0245537
-0.00849497
0.00384769
0.0125817
0.0182575
0.0215627
0.0229937
0.023181
0.0229433
0.022569
0.0222625
0.0220146
0.0218271
0.0216906
0.0215951
0.0215218
0.0214609
0.0197636
0.0197373
0.0197133
0.019665
0.0195583
0.0193582
0.0190153
0.0184511
0.0175401
0.0160699
0.0136189
0.00959562
0.00314651
-0.00582405
-0.0166017
-0.0291428
-0.0424204
-0.0545279
-0.0633522
-0.0676032
-0.0656585
-0.0571692
-0.0438212
-0.0287471
-0.015009
-0.00324537
0.00624044
0.013328
0.017744
0.0200218
0.0209963
0.0212356
0.0212109
0.0211174
0.0210014
0.0208975
0.0208127
0.0207452
0.0206916
0.0206451
0.0194374
0.0194517
0.0194372
0.0194032
0.0193384
0.0192319
0.0190559
0.0187658
0.0182995
0.0175523
0.016288
0.0141172
0.0104011
0.0043725
-0.00386428
-0.0141351
-0.0254527
-0.0367957
-0.0464109
-0.0526575
-0.0555574
-0.0531477
-0.0441388
-0.0326792
-0.0209661
-0.0100553
-0.000605649
0.00692304
0.0123136
0.0158157
0.0178577
0.0188816
0.019396
0.0196152
0.0196937
0.0197176
0.0197205
0.0197245
0.019738
0.0197513
0.0190396
0.019043
0.0190522
0.0190598
0.0190685
0.0190842
0.0190993
0.0191089
0.0190689
0.0189328
0.0184878
0.0174422
0.015382
0.0114241
0.00462875
-0.00497017
-0.016777
-0.0297305
-0.0417097
-0.0506996
-0.0546239
-0.055052
-0.0493554
-0.0400099
-0.0298359
-0.0192404
-0.00930666
-0.000781511
0.0061269
0.0112718
0.0145466
0.0164315
0.0175041
0.0180867
0.0184243
0.018604
0.0186971
0.0187481
0.0187873
0.0188487
0.0185525
0.0184978
0.018509
0.0185584
0.0186493
0.0187868
0.018981
0.019244
0.0195652
0.0199021
0.0201736
0.0196678
0.0179081
0.0142978
0.00759658
-0.00199808
-0.0145067
-0.0290034
-0.0444226
-0.0578433
-0.0662174
-0.0678478
-0.0628945
-0.0544845
-0.0439013
-0.0318155
-0.019292
-0.00793758
0.00116425
0.00773755
0.0118986
0.0143977
0.0158578
0.0167635
0.0173348
0.0176733
0.0178656
0.0179622
0.0180101
0.0180307
0.0180768
0.0180282
0.0180314
0.0180856
0.0182046
0.0183903
0.0186603
0.0190173
0.0194971
0.0200311
0.0204466
0.0200204
0.0182279
0.0146668
0.00819393
-0.00123484
-0.0137375
-0.0287362
-0.0470854
-0.0635161
-0.0793453
-0.0807215
-0.0737691
-0.0650042
-0.0523754
-0.0383891
-0.023761
-0.0109418
-0.00110539
0.00576139
0.0102532
0.0129584
0.0146888
0.0157763
0.0164657
0.0168815
0.0171481
0.0172918
0.0173536
0.017308
0.0175383
0.017553
0.0175822
0.0176373
0.0177371
0.0178922
0.0181125
0.0184045
0.0187771
0.0190481
0.0190734
0.018305
0.0162715
0.0126454
0.00647509
-0.00244121
-0.0144866
-0.0287614
-0.0456754
-0.0606516
-0.0740202
-0.0754539
-0.068958
-0.0595686
-0.0459003
-0.0323472
-0.0193135
-0.00845226
-0.000268241
0.00583082
0.00997462
0.0125398
0.0141646
0.0151553
0.0157898
0.016185
0.0164316
0.0165652
0.0166234
0.0165948
0.0168183
0.0168625
0.0169083
0.0169558
0.0170131
0.0170885
0.0171847
0.0172909
0.0173859
0.0172387
0.0164835
0.0148893
0.0119011
0.00721698
0.000601271
-0.00804712
-0.0185405
-0.0303307
-0.0421525
-0.0515811
-0.0569675
-0.0559404
-0.0501544
-0.041638
-0.0308818
-0.0204145
-0.0108834
-0.00301793
0.00334917
0.0080444
0.0111016
0.0130065
0.0141894
0.0149065
0.0153606
0.0156435
0.0158112
0.0158981
0.0159425
0.0159773
0.0159842
0.0159934
0.0159836
0.0159679
0.015946
0.0159097
0.0158317
0.0156573
0.0152992
0.0145604
0.013045
0.0104317
0.00630534
0.000646399
-0.00641503
-0.0146348
-0.0236075
-0.0325629
-0.0397518
-0.043536
-0.0428964
-0.0390265
-0.0328978
-0.0251447
-0.0168829
-0.00894482
-0.00209366
0.00364715
0.00815772
0.0110802
0.0128106
0.0138658
0.0145142
0.0149324
0.0151969
0.0153643
0.0154674
0.0155282
0.0155645
0.0155843
0.0151183
0.015063
0.0150009
0.0149264
0.0148266
0.0146659
0.0143913
0.0138817
0.0129877
0.011461
0.00897291
0.00532299
0.000487348
-0.0056132
-0.0128871
-0.0208622
-0.0287902
-0.035781
-0.0397684
-0.03983
-0.0377202
-0.0321007
-0.024466
-0.0158155
-0.00733162
1.14591e-05
0.00570683
0.00977016
0.0122205
0.0135703
0.0143359
0.0147277
0.0149535
0.0150815
0.0151604
0.0152121
0.0152504
0.0152734
0.0152806
0.0152654
0.0142951
0.014228
0.0141643
0.0140651
0.0138989
0.01361
0.0131356
0.0123362
0.0109878
0.00873525
0.00520058
0.000198769
-0.00622401
-0.0138624
-0.0221912
-0.0306159
-0.0382572
-0.0441624
-0.0466352
-0.0444074
-0.0396323
-0.031633
-0.0216208
-0.0112778
-0.00191541
0.00536832
0.0104882
0.0134954
0.0150014
0.0155328
0.0155483
0.0154074
0.0152403
0.0150901
0.0149818
0.0149069
0.0148609
0.014834
0.0148215
0.0148325
0.0136078
0.0136122
0.0135502
0.0134155
0.0131714
0.0127669
0.0121304
0.0111276
0.00950715
0.00686215
0.00261309
-0.00350477
-0.0116714
-0.0214661
-0.0316723
-0.0413337
-0.0498464
-0.0555423
-0.0580998
-0.0546503
-0.0444459
-0.0326862
-0.0200165
-0.00845572
0.000903223
0.00781903
0.0124476
0.0149563
0.0162868
0.0165318
0.0160943
0.0156286
0.0151891
0.0148597
0.0146207
0.0144562
0.0143546
0.0143076
0.0143053
0.0143567
0.0129957
0.0130466
0.012984
0.012841
0.0125697
0.0121371
0.011455
0.010382
0.00872463
0.00611192
0.00197921
-0.00392133
-0.0117909
-0.0217432
-0.0325855
-0.0430068
-0.052598
-0.0588184
-0.061811
-0.0582443
-0.0453633
-0.0323299
-0.0189637
-0.00754534
0.00131137
0.00788576
0.0121331
0.0144405
0.015684
0.0159637
0.0156094
0.0151928
0.0147645
0.0144274
0.0141808
0.0140143
0.0139134
0.01387
0.0138646
0.0138929
0.0123985
0.0124073
0.012359
0.0122529
0.0120488
0.0117092
0.0111644
0.0102921
0.00889863
0.00670037
0.00340294
-0.00124603
-0.00723391
-0.0149936
-0.0239902
-0.0331662
-0.0418073
-0.0479042
-0.0510072
-0.0488345
-0.0410882
-0.0310094
-0.0202633
-0.0106449
-0.00254636
0.00386006
0.00842617
0.0113179
0.0130466
0.0138899
0.0141439
0.0141073
0.0139124
0.0137276
0.013587
0.0134884
0.0134226
0.0133794
0.0133465
0.0133186
0.0119544
0.0119174
0.0118819
0.0118191
0.0117024
0.0115001
0.0111717
0.0106293
0.00976669
0.00835115
0.00614088
0.00283996
-0.0013699
-0.00657705
-0.0127101
-0.0193774
-0.0258488
-0.0313456
-0.035269
-0.0365988
-0.0349011
-0.0298437
-0.0231715
-0.0160012
-0.00904159
-0.00285787
0.00220764
0.00611924
0.0089502
0.0108007
0.0118455
0.0123287
0.0125146
0.0125878
0.0126232
0.0126368
0.0126421
0.0126384
0.0126238
0.0125971
0.0116958
0.0116936
0.0116738
0.0116414
0.011585
0.011497
0.0113496
0.0111286
0.0107571
0.010121
0.00900584
0.00717091
0.00443544
0.000822109
-0.00368221
-0.00905201
-0.0148956
-0.0205784
-0.025615
-0.0292237
-0.0302935
-0.0294506
-0.0261964
-0.0208776
-0.0147737
-0.00888509
-0.00355156
0.000977898
0.00455963
0.00721019
0.00901475
0.0101273
0.0107807
0.0111782
0.0114132
0.0115536
0.0116523
0.0117281
0.0117853
0.01181
0.01143
0.0114454
0.0114557
0.0114652
0.0114757
0.0114958
0.0115195
0.0115519
0.0115546
0.0115044
0.0112309
0.0105803
0.00909545
0.0064555
0.00252419
-0.00274801
-0.00922605
-0.015988
-0.0223112
-0.0273376
-0.0303418
-0.0324009
-0.031342
-0.027275
-0.0216145
-0.0155467
-0.00966355
-0.00429356
0.000131365
0.00366617
0.00631487
0.0080992
0.00922957
0.00992228
0.0103404
0.0105961
0.0107553
0.0108663
0.0109513
0.0110306
0.0110474
0.0110258
0.0110409
0.0110825
0.0111591
0.011278
0.0114561
0.0116983
0.0120146
0.0123636
0.012698
0.0126345
0.0117642
0.00996438
0.00666954
0.00176256
-0.00485681
-0.0130438
-0.0214852
-0.0290458
-0.0358098
-0.0402372
-0.0401666
-0.0363752
-0.0309067
-0.0241909
-0.0170644
-0.0101731
-0.00408096
0.000718516
0.00419382
0.006561
0.008039
0.00895737
0.00952892
0.00988743
0.0101035
0.0102308
0.0103053
0.0103579
0.0106427
0.0105988
0.010599
0.0106412
0.0107398
0.0109026
0.0111443
0.0114748
0.0119638
0.0124337
0.0129509
0.0131265
0.0125589
0.0113725
0.00881588
0.00450268
-0.00163604
-0.0105367
-0.0208469
-0.0309407
-0.0402884
-0.0468635
-0.0468857
-0.0422483
-0.0366804
-0.0292266
-0.0210842
-0.0131454
-0.0061222
-0.000811911
0.00297518
0.00558201
0.0072269
0.0082721
0.00893288
0.00936465
0.00963301
0.00978822
0.00985588
0.00982571
0.0102268
0.0102167
0.0102258
0.0102607
0.0103403
0.0104702
0.0106662
0.0109333
0.011281
0.0115721
0.0117972
0.0116981
0.011033
0.00969477
0.00709882
0.00291202
-0.00283393
-0.0107626
-0.0201253
-0.0299051
-0.0378107
-0.0430216
-0.0427643
-0.0385755
-0.0327842
-0.0254494
-0.0177989
-0.0105881
-0.0046573
-0.000187699
0.00317
0.00547604
0.00697424
0.00792662
0.00853696
0.00893772
0.00918478
0.009319
0.00937634
0.0093389
0.00969366
0.00972116
0.00974684
0.0097702
0.00979765
0.00983414
0.00988705
0.00993991
0.00995505
0.00979641
0.00932602
0.0083781
0.00682825
0.00449512
0.00122203
-0.00306058
-0.0083107
-0.0141036
-0.0204203
-0.0264221
-0.030176
-0.0316681
-0.0299573
-0.0263241
-0.02144
-0.0157866
-0.010162
-0.00510071
-0.00106204
0.00215733
0.00458907
0.00619813
0.00727742
0.00794401
0.00835798
0.00861639
0.00876659
0.00884593
0.0088851
0.00890155
0.00905631
0.00906334
0.00904615
0.00900689
0.00894533
0.00885263
0.00870689
0.00846849
0.00807331
0.00735364
0.00612313
0.00424881
0.00172307
-0.00146303
-0.0052624
-0.00953236
-0.0141228
-0.0183505
-0.0213984
-0.0232046
-0.0235225
-0.021807
-0.0186048
-0.0149049
-0.0106921
-0.00651864
-0.00275562
0.000445967
0.00301102
0.00507792
0.00647418
0.00732555
0.00786705
0.00817905
0.00837607
0.00849639
0.00856481
0.00860369
0.00862801
0.00865415
0.00838447
0.00833658
0.00825714
0.00815076
0.00800745
0.00779635
0.00746403
0.00693901
0.00611353
0.00484174
0.00298424
0.00049643
-0.00270743
-0.00661051
-0.0110138
-0.0154594
-0.0196902
-0.0227404
-0.0234481
-0.0222163
-0.0203921
-0.0170837
-0.013097
-0.00869422
-0.00424068
-0.000295469
0.00281495
0.00508362
0.00665067
0.00761454
0.00808326
0.00833518
0.00844849
0.0084869
0.0085074
0.00852316
0.00853182
0.00853208
0.00852835
0.0085141
0.00775748
0.00767798
0.00759126
0.00746952
0.00728518
0.00699114
0.00651848
0.00576503
0.00455301
0.00273734
0.000165754
-0.0032535
-0.00756983
-0.0126138
-0.0179787
-0.0229772
-0.0270166
-0.029092
-0.0285374
-0.0249698
-0.0204755
-0.015456
-0.00997025
-0.00443509
0.000449835
0.00426156
0.00693003
0.0084718
0.009235
0.00938538
0.00922643
0.00901028
0.00880233
0.00863166
0.00850553
0.00841878
0.00836511
0.0083283
0.00830528
0.00829425
0.007269
0.00724302
0.00717106
0.00703668
0.00680712
0.00643942
0.00586191
0.00495263
0.00349804
0.0012296
-0.00201414
-0.00644863
-0.0120374
-0.0182973
-0.0245789
-0.0301937
-0.0341703
-0.0361699
-0.0348528
-0.0292695
-0.0220159
-0.0145672
-0.00697067
-0.00019774
0.00457668
0.00779282
0.00964833
0.0104357
0.0105847
0.0102142
0.0097252
0.0092272
0.00880881
0.00849137
0.00826389
0.00810702
0.00801179
0.00796273
0.00794926
0.00798323
0.00688916
0.00692368
0.0068667
0.00672677
0.0064743
0.00608314
0.00547212
0.00452639
0.00304876
0.000753718
-0.00247863
-0.00686329
-0.0125349
-0.0189227
-0.0254154
-0.0312748
-0.035476
-0.0374957
-0.036148
-0.0300018
-0.0223035
-0.0139908
-0.00591853
0.00076619
0.00529154
0.00827571
0.00976957
0.0103416
0.010311
0.00986333
0.00940734
0.00891874
0.00846958
0.00813878
0.00790349
0.00775189
0.00766189
0.00762456
0.00762375
0.00765814
0.00653339
0.00655395
0.00650873
0.00640325
0.00621013
0.00589449
0.0053946
0.00461041
0.003411
0.00162356
-0.000891575
-0.00422681
-0.00856719
-0.0136511
-0.0189796
-0.0239586
-0.0277555
-0.0299126
-0.029684
-0.0260358
-0.0207
-0.0143963
-0.0082644
-0.00305291
0.00107354
0.00413805
0.0061466
0.00738432
0.00799132
0.00817972
0.00816773
0.00800006
0.00779571
0.00761676
0.00748115
0.00739369
0.00734123
0.00731556
0.00730299
0.00729794
0.00626668
0.00624354
0.00621247
0.00616035
0.00606262
0.00589421
0.00561131
0.00515387
0.00442084
0.00332568
0.00171449
-0.000395519
-0.00303961
-0.00623845
-0.00978305
-0.0133488
-0.0164791
-0.019017
-0.0205911
-0.020313
-0.0185239
-0.0157045
-0.01237
-0.0087936
-0.00520757
-0.00208024
0.000539886
0.00263875
0.00423785
0.00540055
0.00611514
0.00648997
0.00667258
0.00675802
0.00680381
0.00683129
0.00684861
0.00685418
0.00684576
0.00682608
0.00616082
0.00614941
0.00613986
0.00612777
0.00610346
0.00606013
0.00598355
0.00584812
0.00558318
0.00512402
0.00436238
0.00323597
0.00171693
-0.000288355
-0.00279966
-0.00578533
-0.00885187
-0.0118749
-0.0143795
-0.0160562
-0.0169463
-0.0171469
-0.0161984
-0.0138597
-0.0107485
-0.00749027
-0.00437917
-0.00163902
0.000659779
0.00246652
0.00378716
0.00468491
0.00526087
0.0056339
0.00587336
0.00603292
0.00614253
0.00621874
0.00626593
0.00628218
0.00609871
0.00611867
0.00613878
0.0061634
0.00619448
0.00624322
0.00630937
0.00639132
0.00647103
0.00649639
0.006414
0.00604601
0.00521867
0.00382564
0.00173955
-0.00116862
-0.00454252
-0.00803268
-0.0112548
-0.0145577
-0.0175066
-0.0200583
-0.0208053
-0.0194627
-0.0166556
-0.0129859
-0.00913801
-0.00553827
-0.00245917
-5.20381e-05
0.00179347
0.00313019
0.00404536
0.00466246
0.00505094
0.00530395
0.00547308
0.00559308
0.00568086
0.00574685
0.00594247
0.0059498
0.00597669
0.00602405
0.00610155
0.00621956
0.0063852
0.00661273
0.0069271
0.00729201
0.00765572
0.00790604
0.00781789
0.00715353
0.0057099
0.00329016
-0.000260595
-0.00467107
-0.00960679
-0.014913
-0.0201146
-0.024664
-0.026612
-0.0260246
-0.0232026
-0.0191916
-0.0145375
-0.00983746
-0.00563741
-0.00226047
0.000249428
0.00204268
0.00324736
0.00403024
0.00452008
0.0048357
0.00503761
0.00516656
0.00525237
0.00531073
0.0057087
0.00568236
0.00569225
0.0057387
0.00583332
0.00598198
0.00619943
0.00650382
0.00691544
0.00743281