/*--------------------------------*- C++ -*----------------------------------*\
| =========                 |                                                 |
| \\      /  F ield         | OpenFOAM: The Open Source CFD Toolbox           |
|  \\    /   O peration     | Version:  v2106                                 |
|   \\  /    A nd           | Website:  www.openfoam.com                      |
|    \\/     M anipulation  |                                                 |
\*---------------------------------------------------------------------------*/
FoamFile
{
    version     2.0;
    format      ascii;
    arch        "LSB;label=32;scalar=64";
    class       volScalarField;
    location    "0";
    object      p;
}
// * * * * * * * * * * * * * * * * * * * * * * * * * * * * * * * * * * * * * //

dimensions      [0 2 -2 0 0 0 0];

internalField   nonuniform List<scalar> 
11644
(
0.0315797
0.0320149
0.0329425
0.0343887
0.0363539
0.038856
0.0419214
0.0455761
0.0498396
0.0547188
0.0602061
0.0662521
0.0727765
0.0796707
0.0867401
0.0937978
0.100562
0.106718
0.11202
0.116249
0.11918
0.120704
0.120934
0.120121
0.118268
0.1155
0.112174
0.108507
0.104679
0.100886
0.097246
0.0938495
0.0907647
0.0880313
0.0856747
0.0837073
0.0821331
0.0809608
0.0802001
0.0798413
0.0308688
0.0312981
0.0321833
0.033554
0.035439
0.0378657
0.0408608
0.0444562
0.0486818
0.0535607
0.0590931
0.0652605
0.0720156
0.0791916
0.0866746
0.0941941
0.101427
0.108072
0.113802
0.118286
0.121264
0.122703
0.122718
0.121548
0.119353
0.116311
0.112643
0.108658
0.104587
0.100584
0.0967862
0.0932862
0.0901358
0.0873695
0.0850046
0.0830466
0.0815
0.0803606
0.0796206
0.0792627
0.0291532
0.0295949
0.0304618
0.0317672
0.0335518
0.0358572
0.0387282
0.0422121
0.0463622
0.0512248
0.0568467
0.0632549
0.070414
0.0782697
0.0865978
0.0951327
0.103529
0.111334
0.117947
0.122955
0.126164
0.127556
0.127116
0.125114
0.121943
0.117998
0.11358
0.108925
0.104299
0.099889
0.0957995
0.0921026
0.0888355
0.0860077
0.0836209
0.0816651
0.0801292
0.0789942
0.0782377
0.0778512
0.0265445
0.0269613
0.027779
0.0290028
0.0306652
0.0328144
0.0355097
0.0388218
0.0428322
0.0476412
0.0533495
0.0600422
0.0678125
0.0765595
0.0862554
0.0964886
0.106713
0.116477
0.124701
0.130825
0.134451
0.135462
0.134021
0.130629
0.125978
0.120539
0.114795
0.109117
0.103685
0.0986702
0.0941754
0.0902186
0.086799
0.0838981
0.0814822
0.0795216
0.0779833
0.0768387
0.0760686
0.0756737
0.0231492
0.0235129
0.0242301
0.0253134
0.0267953
0.0287218
0.0311604
0.0342022
0.0379631
0.0425909
0.0482606
0.0552219
0.0636763
0.073855
0.0855886
0.0983816
0.111322
0.124142
0.134929
0.142739
0.146873
0.147023
0.143838
0.138028
0.130935
0.123294
0.115788
0.108711
0.102325
0.0966294
0.0916612
0.0874396
0.083889
0.0809325
0.0785077
0.0765581
0.0750377
0.0739121
0.0731618
0.0727845
0.0190914
0.0193655
0.0199272
0.0207914
0.0219927
0.0235809
0.0256287
0.0282364
0.03154
0.0357647
0.0412558
0.0484013
0.0576499
0.0690425
0.0831894
0.0997707
0.116951
0.134377
0.149558
0.160515
0.16539
0.163652
0.156965
0.146957
0.13608
0.125172
0.115116
0.106596
0.099289
0.0931254
0.0878791
0.0834899
0.0798894
0.076963
0.0746025
0.0727285
0.0712841
0.0702298
0.0695356
0.0691865
0.0144687
0.0146495
0.0150077
0.0155702
0.0163687
0.0174592
0.0189151
0.0208397
0.0234005
0.0269546
0.0319349
0.038813
0.0479371
0.060743
0.0776616
0.0983903
0.116383
0.139097
0.16086
0.177874
0.186022
0.184212
0.174304
0.159807
0.140258
0.124804
0.111694
0.10146
0.0935747
0.0873176
0.0822338
0.0780311
0.0745862
0.0718474
0.0696878
0.0680053
0.0667299
0.0658077
0.065212
0.0649159
0.00947038
0.00951631
0.00962353
0.00980075
0.01008
0.0104999
0.0111286
0.012064
0.0135321
0.0159342
0.0196124
0.0250834
0.0335305
0.0457454
0.0626572
0.0845929
0.115244
0.151324
0.187611
0.216289
0.228232
0.220919
0.199569
0.172898
0.14738
0.124768
0.108922
0.0920864
0.0841384
0.0784465
0.0740958
0.0706253
0.0677591
0.0654761
0.0637254
0.0623919
0.0614022
0.0607058
0.0602534
0.0600356
0.00429051
0.00419641
0.00401145
0.00373311
0.00338161
0.00297062
0.00254857
0.0021726
0.00208101
0.00257179
0.00391298
0.00647206
0.0109359
0.0250874
0.0396564
0.0645633
0.0989699
0.148709
0.209504
0.263994
0.289136
0.273565
0.231264
0.184874
0.14482
0.11297
0.0949508
0.0761761
0.0702144
0.0661966
0.0632719
0.0610696
0.0592924
0.0578533
0.0567813
0.055991
0.0554122
0.0550067
0.0547474
0.054613
-0.000807551
-0.00103534
-0.00154116
-0.00230778
-0.00336578
-0.00472415
-0.00639703
-0.00838055
-0.0105428
-0.0128352
-0.0151407
-0.0172977
-0.0193216
-0.00953129
-0.00254682
0.0191213
0.0547864
0.117028
0.21814
0.341072
0.405406
0.357922
0.256734
0.173501
0.115548
0.0792868
0.0666251
0.052863
0.0514041
0.0505196
0.0499615
0.0496325
0.0493994
0.0491686
0.0490249
0.0489542
0.0489194
0.0488925
0.0488821
0.0488715
-0.00541493
-0.00584466
-0.00667782
-0.00796199
-0.00973805
-0.012068
-0.0150806
-0.0188497
-0.0234224
-0.0290807
-0.0360455
-0.0446465
-0.0550206
-0.0562164
-0.0654124
-0.0661753
-0.0573089
-0.0287746
0.0867045
0.364827
0.602421
0.407732
0.172745
0.0690481
0.0324715
0.0207011
0.0250116
0.0234842
0.0284075
0.0321189
0.0348811
0.0370122
0.0386522
0.0398599
0.0408216
0.0415938
0.042181
0.0426071
0.0428687
0.0429935
-0.00936816
-0.00991112
-0.011023
-0.0127675
-0.0152006
-0.0184348
-0.0226835
-0.0281553
-0.0350855
-0.0440577
-0.0557254
-0.0712619
-0.0917479
-0.102001
-0.137853
-0.169773
-0.230209
-0.354666
-0.669919
-0.386404
-0.173023
-0.090267
-0.0500973
-0.0226029
-0.00823359
0.00413742
0.0130065
0.0195075
0.0243107
0.0278977
0.0305903
0.0326881
0.0343212
0.0355206
0.0363823
0.0369447
0.0372444
-0.012335
-0.0129736
-0.0143204
-0.016384
-0.0193047
-0.0232023
-0.0283176
-0.0350119
-0.0436856
-0.0550789
-0.0701301
-0.0904996
-0.117628
-0.140673
-0.192156
-0.25093
-0.354864
-0.556648
-0.801346
-0.459994
-0.32107
-0.179839
-0.104355
-0.0616911
-0.0331888
-0.0158866
-0.00328381
0.00603987
0.0129479
0.0181613
0.0221382
0.0252118
0.0275765
0.0293192
0.0305708
0.0314142
0.0317936
-0.0139698
-0.0147421
-0.0162003
-0.0184367
-0.0215635
-0.0257532
-0.031185
-0.0383008
-0.047658
-0.0599472
-0.0761681
-0.0978689
-0.126474
-0.155997
-0.210424
-0.275627
-0.374543
-0.512972
-0.575101
-0.386979
-0.312356
-0.193313
-0.118568
-0.078225
-0.0457614
-0.0277082
-0.0141101
-0.00372809
0.00420799
0.0103814
0.0152217
0.0189777
0.0218232
0.0239231
0.0254274
0.026415
0.0269747
-0.0144423
-0.0151082
-0.0164988
-0.0186696
-0.0216891
-0.0257385
-0.0309037
-0.0375859
-0.0463939
-0.057926
-0.072895
-0.0924244
-0.117746
-0.148052
-0.196775
-0.260215
-0.354023
-0.489966
-0.584191
-0.637337
-0.615029
-0.436035
-0.313937
-0.21719
-0.145239
-0.0990331
-0.072637
-0.0457747
-0.0309044
-0.0188076
-0.00904496
-0.00122786
0.00510629
0.0102657
0.0143516
0.0174315
0.0197163
0.0213365
0.0223933
0.0229705
-0.0137726
-0.0142442
-0.0154353
-0.0172755
-0.0198374
-0.0232439
-0.0275347
-0.0330263
-0.0401077
-0.0491397
-0.0606134
-0.0753317
-0.0939956
-0.121179
-0.158807
-0.214339
-0.299901
-0.45222
-0.698851
-0.848953
-0.803523
-0.446223
-0.13028
-0.0495526
-0.0749192
-0.0682928
-0.0571202
-0.0384963
-0.0280626
-0.0184706
-0.0102759
-0.00332756
0.0025285
0.00751191
0.0114874
0.0145201
0.0168427
0.0185046
0.0195208
0.0197604
-0.0116192
-0.0120794
-0.0129854
-0.0143612
-0.0162364
-0.0186385
-0.0215926
-0.02514
-0.0295743
-0.0350671
-0.0418312
-0.0502731
-0.0611844
-0.0728908
-0.103536
-0.134612
-0.196956
-0.286677
-0.446488
-0.60587
-0.577684
-0.320166
-0.0723813
-0.0288755
-0.0576745
-0.0546059
-0.0417753
-0.0317852
-0.0234674
-0.0154992
-0.00866828
-0.00268116
0.00249914
0.00688515
0.010356
0.0130913
0.0151688
0.0166027
0.0174662
0.0178457
-0.00830394
-0.00869623
-0.00922574
-0.0100103
-0.0110252
-0.0122926
-0.0138272
-0.0153597
-0.0170084
-0.0188875
-0.0208432
-0.0229466
-0.0254286
-0.0273805
-0.043587
-0.0519282
-0.0820842
-0.121893
-0.190556
-0.273089
-0.315809
-0.261828
-0.17599
-0.142279
-0.0988562
-0.0660009
-0.0406059
-0.0286173
-0.019342
-0.0116684
-0.00546357
-0.000166307
0.00422976
0.00782066
0.010669
0.0129366
0.0146429
0.0158552
0.0166744
0.0171506
-0.00435407
-0.00446372
-0.00464634
-0.00488745
-0.00513275
-0.00535209
-0.00552661
-0.00543747
-0.00492206
-0.00376511
-0.00168947
0.00140614
0.00619072
0.0107188
0.00805178
0.0132082
0.000961542
-0.02222
-0.100367
-0.23623
-0.355012
-0.383889
-0.334215
-0.239728
-0.127323
-0.074954
-0.039543
-0.0248176
-0.0144015
-0.00680592
-0.0010957
0.00344377
0.00702704
0.00988615
0.0121471
0.0139531
0.0153363
0.0163668
0.0170805
0.0174721
-0.000165472
-9.62204e-05
-1.1783e-05
0.000162731
0.000489254
0.00106235
0.00198296
0.00335665
0.00548956
0.00868273
0.0134267
0.019622
0.0297923
0.0381239
0.0413
0.0531348
0.0462791
0.00685685
-0.0982992
-0.267204
-0.396169
-0.414918
-0.338932
-0.217653
-0.105573
-0.0614001
-0.0283863
-0.014971
-0.00622508
1.50995e-05
0.00454935
0.00803204
0.010766
0.012939
0.0146174
0.0159444
0.0169603
0.0177066
0.0182027
0.0184603
0.00373563
0.00389431
0.00418969
0.00465493
0.00536066
0.00641679
0.00794883
0.0100987
0.0131128
0.0172621
0.0229894
0.0302492
0.0411739
0.0507901
0.0560411
0.065794
0.052496
0.00178792
-0.0932628
-0.209057
-0.277346
-0.264886
-0.196761
-0.12034
-0.0587494
-0.0342036
-0.00900754
-0.000493747
0.00513087
0.00889169
0.0116457
0.0137243
0.0153913
0.016713
0.0177181
0.0185009
0.0190879
0.0194991
0.0197598
0.0199052
0.00721669
0.00742339
0.00782733
0.00844197
0.00932024
0.0105349
0.0121785
0.0143901
0.0173187
0.021144
0.0260037
0.0318187
0.0389958
0.0482415
0.041375
0.0378864
0.0227333
-0.0233857
-0.0813346
-0.117066
-0.125314
-0.105524
-0.0731176
-0.0463456
-0.0258194
0.000298622
0.00875135
0.0140137
0.0170238
0.0185065
0.0193959
0.0199295
0.0203152
0.0206333
0.0209159
0.0211693
0.0213666
0.0215003
0.0215647
0.021579
0.0103697
0.0105666
0.0109734
0.0115958
0.0124484
0.013567
0.0149856
0.0167497
0.0189142
0.0215379
0.0244652
0.0277583
0.0294366
0.0318421
0.0217046
-0.0191189
-0.0622624
-0.109194
-0.140184
-0.140588
-0.120369
-0.0860698
-0.0470442
-0.0184743
0.00223263
0.0159769
0.02216
0.0259617
0.0270422
0.0268561
0.0262336
0.02545
0.0247117
0.0241419
0.0237758
0.0235515
0.0234145
0.0233419
0.0232903
0.0232146
0.0132457
0.013422
0.0137683
0.0142955
0.0150044
0.0158987
0.0169697
0.0181927
0.0194676
0.0206071
0.0211416
0.0207847
0.0164654
0.00753368
-0.015574
-0.0643929
-0.11612
-0.174689
-0.223544
-0.2293
-0.183666
-0.125478
-0.0657749
-0.021477
0.00911976
0.0254169
0.0321427
0.0345699
0.0343315
0.0329352
0.0312159
0.0295173
0.0280797
0.0269351
0.02611
0.0254897
0.025054
0.0247785
0.0246221
0.0245672
0.0158124
0.0159469
0.0162359
0.0166727
0.0172557
0.0179534
0.0187159
0.019505
0.0200818
0.0201271
0.0188743
0.015678
0.00765807
-0.00824429
-0.038395
-0.0846772
-0.145851
-0.212912
-0.268857
-0.273856
-0.217159
-0.151322
-0.0837946
-0.0303681
0.00657742
0.0290074
0.0393141
0.0413722
0.039494
0.0370066
0.0344302
0.0321683
0.0303729
0.0289528
0.0278488
0.026997
0.0263848
0.0259716
0.0257323
0.0257147
0.0180146
0.0181164
0.0184003
0.0188176
0.0193539
0.0199626
0.0205661
0.0211085
0.0213599
0.0210619
0.019453
0.0158143
0.00826525
-0.00575471
-0.0334702
-0.074559
-0.125202
-0.17748
-0.221707
-0.229471
-0.189079
-0.13724
-0.0795509
-0.0309707
0.00479007
0.027667
0.0403953
0.0441743
0.0423128
0.039102
0.0361546
0.0336937
0.0317466
0.0302216
0.0290189
0.0281183
0.0274694
0.0270406
0.0267837
0.0266946
0.0198785
0.0200381
0.0203477
0.0207783
0.0213063
0.0219028
0.0224986
0.0230085
0.0233548
0.0233086
0.0225239
0.0202795
0.0157221
0.00696457
-0.00961373
-0.0379727
-0.0709398
-0.106512
-0.135693
-0.147401
-0.135664
-0.110196
-0.0709112
-0.0318641
-0.000143157
0.0217116
0.0347366
0.0405033
0.0405546
0.0383434
0.0359709
0.0338555
0.0320788
0.0306415
0.0295146
0.0286802
0.0280788
0.0276712
0.0274186
0.0272645
0.021448
0.0216899
0.0220012
0.022427
0.0229563
0.023582
0.0242704
0.0249736
0.025631
0.0261423
0.0262828
0.025453
0.0231913
0.0183023
0.00901411
-0.00752545
-0.0311148
-0.0576166
-0.0796367
-0.094942
-0.10075
-0.0925346
-0.0693607
-0.0402677
-0.0137533
0.00790126
0.0231189
0.0314977
0.0342822
0.034266
0.0334208
0.0322649
0.0311159
0.0300845
0.0292467
0.0285849
0.0280778
0.0277088
0.0274702
0.0273526
0.0226645
0.0228651
0.0231698
0.023603
0.024176
0.024891
0.025743
0.0267271
0.0277665
0.0287577
0.0293981
0.0292586
0.0276874
0.0237503
0.0162801
0.00324544
-0.019352
-0.0455886
-0.0733482
-0.0953312
-0.102063
-0.100966
-0.0849323
-0.061181
-0.0349714
-0.0118136
0.00679796
0.0193787
0.0256724
0.0282634
0.0293383
0.0294523
0.0292324
0.0288594
0.0284657
0.0280758
0.027742
0.0274748
0.0272943
0.0272149
0.0235706
0.023622
0.0239212
0.0243885
0.0250313
0.0258358
0.0268138
0.0279912
0.0292907
0.0305597
0.031418
0.0320019
0.0303266
0.0256959
0.0162662
0.00105171
-0.0237689
-0.0537995
-0.0915129
-0.121933
-0.136002
-0.135185
-0.118571
-0.0954019
-0.063434
-0.0345107
-0.00980763
0.00778453
0.0177581
0.0228084
0.0254522
0.0267062
0.0273406
0.0275388
0.0275749
0.0274869
0.0273605
0.0272331
0.0271272
0.0270358
0.0243193
0.0243516
0.024592
0.0250153
0.0256366
0.0264386
0.0274202
0.0286181
0.0299827
0.0314836
0.032746
0.0336168
0.0318648
0.0260498
0.0144067
-0.00385868
-0.0302887
-0.0630359
-0.105815
-0.142999
-0.17011
-0.168687
-0.147636
-0.119884
-0.0817103
-0.0467922
-0.0183132
0.000586426
0.0125707
0.0192599
0.0228526
0.0248372
0.0259856
0.0265499
0.0268248
0.0269278
0.0269381
0.0268999
0.0268468
0.026764
0.0247936
0.0249125
0.0251365
0.0254993
0.0260279
0.0267331
0.0276051
0.0286903
0.0299144
0.0313875
0.0326913
0.0333826
0.0311478
0.0244536
0.0121537
-0.00685269
-0.0325358
-0.0638458
-0.103323
-0.135598
-0.165599
-0.161237
-0.137408
-0.108804
-0.0723074
-0.041987
-0.0169896
0.000426341
0.0117466
0.0182256
0.0220311
0.0241347
0.025362
0.0259645
0.0263102
0.0264598
0.0265151
0.0265097
0.0264924
0.0264672
0.0247763
0.0249384
0.0251599
0.0254843
0.0259313
0.0265228
0.0272569
0.0281592
0.0291582
0.0302858
0.0311107
0.0308208
0.0277504
0.0204396
0.00795518
-0.0101402
-0.0334654
-0.0604731
-0.0885923
-0.108473
-0.121139
-0.1147
-0.0963381
-0.0729123
-0.0469358
-0.0248819
-0.00597715
0.00694355
0.0150725
0.0198257
0.0227052
0.0243601
0.0253347
0.0258553
0.0261544
0.0262758
0.0263171
0.0263094
0.0262985
0.0262919
0.0243856
0.0244719
0.0246426
0.0249055
0.0252552
0.0256991
0.0262239
0.0268284
0.0273915
0.0277793
0.0275914
0.0257614
0.0212879
0.012819
0.000227073
-0.015889
-0.0353364
-0.0566457
-0.0747263
-0.0818464
-0.0799255
-0.0719101
-0.0579186
-0.0392059
-0.0212762
-0.00576296
0.00675323
0.0149187
0.0197794
0.0225927
0.0242523
0.0251986
0.0257588
0.026077
0.0262451
0.0262998
0.0263048
0.0262796
0.0262471
0.0262053
0.0238925
0.0238959
0.0239871
0.0241451
0.0243452
0.0245655
0.0247498
0.024861
0.0247121
0.0240145
0.0224449
0.0187474
0.0120358
0.00207054
-0.0112625
-0.0266161
-0.042571
-0.0586528
-0.0704543
-0.0719387
-0.0670281
-0.0557592
-0.0406034
-0.0228641
-0.00650407
0.00643726
0.0158354
0.0212067
0.0239664
0.025325
0.0260472
0.0262773
0.0263629
0.0263576
0.0263167
0.026249
0.0261885
0.026133
0.0260807
0.0260297
0.0234198
0.0234245
0.023461
0.0235082
0.0235247
0.0234787
0.0232787
0.0228438
0.0219692
0.0202621
0.0171231
0.0113154
0.00158441
-0.0112684
-0.0276392
-0.0452457
-0.0614748
-0.0749668
-0.0847693
-0.0849701
-0.0788036
-0.0621904
-0.0400937
-0.0198556
-0.00165411
0.0113852
0.0201042
0.0246528
0.0267854
0.027509
0.0275256
0.0272334
0.0268718
0.0265261
0.0262514
0.0260298
0.0258622
0.0257503
0.0256839
0.0256929
0.0229306
0.0229878
0.0229924
0.022957
0.0228337
0.0226026
0.0221335
0.0213112
0.0198943
0.0174587
0.013251
0.00612311
-0.00554987
-0.0219005
-0.0426572
-0.0642132
-0.0842737
-0.0986803
-0.109666
-0.110593
-0.0960486
-0.0724898
-0.0445928
-0.0216451
-0.0021943
0.0115285
0.0208997
0.0258763
0.0282721
0.0287891
0.0282315
0.0276304
0.0269673
0.0264322
0.0260206
0.0257007
0.0254722
0.0253424
0.0252923
0.02534
0.0223803
0.0224407
0.0224317
0.0223667
0.022192
0.0219144
0.0213754
0.020475
0.0189161
0.0163499
0.0118941
0.00456681
-0.00684012
-0.022663
-0.0435389
-0.0663184
-0.0900857
-0.106609
-0.120416
-0.121352
-0.0997934
-0.0746874
-0.0461605
-0.0231214
-0.00390924
0.00988085
0.0195507
0.0250875
0.0278893
0.0285686
0.0278539
0.0272328
0.0265537
0.0260431
0.0256403
0.0253389
0.0251279
0.0250026
0.0249395
0.0249373
0.0219058
0.0219166
0.0218962
0.0218476
0.021714
0.0214748
0.0210287
0.0202798
0.0189649
0.0168247
0.0131631
0.00722908
-0.00217005
-0.0149057
-0.0310527
-0.0497287
-0.0698423
-0.0855758
-0.0993645
-0.102738
-0.0869104
-0.0687124
-0.0452528
-0.0249557
-0.0073151
0.00626541
0.0160922
0.0222727
0.0255861
0.026695
0.0265516
0.0261209
0.0256281
0.0252637
0.0249579
0.0247305
0.0245689
0.0244565
0.0243761
0.0243009
0.0216267
0.0216238
0.0216218
0.0216055
0.0215316
0.0213834
0.0210942
0.0205909
0.0197424
0.0183406
0.0159494
0.0120516
0.00575999
-0.00302334
-0.0142174
-0.0276699
-0.0423266
-0.0557179
-0.0661369
-0.0706487
-0.0679264
-0.0594299
-0.043833
-0.0271768
-0.0119195
0.000684918
0.0105465
0.017378
0.0214943
0.0234789
0.0241837
0.0242357
0.0241112
0.02395
0.0237923
0.0236682
0.0235789
0.0235145
0.0234652
0.0234081
0.0214472
0.0214716
0.0214949
0.0215068
0.021493
0.0214508
0.0213371
0.0211285
0.020769
0.0201425
0.0189429
0.0168562
0.0130913
0.00710725
-0.00136208
-0.011782
-0.0236431
-0.0357888
-0.0454434
-0.0518592
-0.0544692
-0.0520558
-0.0424152
-0.0298247
-0.0174422
-0.00642371
0.00303346
0.0104398
0.0157256
0.0190285
0.0208432
0.0216756
0.0221072
0.0222835
0.0223454
0.0223641
0.0223653
0.0223682
0.0223839
0.0224235
0.0211631
0.0211864
0.0212222
0.021269
0.0213313
0.021419
0.0215168
0.0216223
0.0217128
0.0217273
0.0214406
0.0205154
0.0182492
0.013873
0.00600985
-0.00423424
-0.0169129
-0.030273
-0.0432429
-0.0524018
-0.054587
-0.0550409
-0.048672
-0.0389264
-0.0280815
-0.0173452
-0.00683754
0.002029
0.00905969
0.0141318
0.0172159
0.018995
0.0200483
0.0206438
0.020993
0.021194
0.0213089
0.021378
0.021434
0.0215111
0.0207725
0.0207303
0.0207652
0.0208509
0.0209981
0.0212095
0.0214906
0.0218547
0.0223325
0.0227621
0.0231152
0.0226952
0.0208219
0.0171687
0.00966437
-0.000924157
-0.0150518
-0.0306724
-0.0479673
-0.0618903
-0.0696716
-0.0704456
-0.0644209
-0.0557459
-0.0440353
-0.0314427
-0.0181439
-0.00634866
0.00313024
0.00999566
0.0142384
0.0167987
0.0183352
0.0192953
0.0198986
0.020284
0.0205164
0.0206462
0.0207143
0.0207332
0.0203643
0.0203164
0.0203451
0.0204364
0.0206063
0.0208562
0.0212098
0.0216776
0.0222625
0.0228183
0.0234758
0.0230023
0.0210577
0.0176307
0.0106733
0.000478563
-0.013528
-0.0300173
-0.0499481
-0.0678566
-0.0839168
-0.0857371
-0.078106
-0.0684695
-0.0544036
-0.0390609
-0.023312
-0.00970888
0.000694515
0.0079308
0.012602
0.0154837
0.0172043
0.018335
0.0190733
0.0195388
0.0198303
0.0199775
0.0200467
0.0199982
0.0198586
0.0198765
0.0199255
0.0200108
0.0201486
0.020345
0.0206254
0.0209892
0.0214733
0.0219097
0.0220979
0.0213555
0.0190882
0.0150535
0.00827873
-0.00146803
-0.0142835
-0.0294151
-0.0479927
-0.0638895
-0.0806242
-0.0808773
-0.072145
-0.0622606
-0.0476721
-0.0330311
-0.018511
-0.00695593
0.00198782
0.00833508
0.0125726
0.0151647
0.0167978
0.0178206
0.0184715
0.0188672
0.0191181
0.0192481
0.0193097
0.0192899
0.0191384
0.0192004
0.0192424
0.0192882
0.0193535
0.0194479
0.0195812
0.019742
0.0199304
0.0199559
0.0194584
0.0180396
0.0150505
0.0101115
0.00291868
-0.00643679
-0.018023
-0.0307373
-0.0440756
-0.0536497
-0.0599862
-0.0582062
-0.0510906
-0.0419642
-0.030059
-0.0188984
-0.00859805
-0.000367243
0.00631534
0.0109588
0.0139731
0.0158447
0.0170038
0.0177171
0.0181612
0.0184286
0.0185909
0.0186763
0.0187247
0.0187479
0.0182579
0.0182572
0.0182426
0.0182211
0.0181962
0.018163
0.0181074
0.0179697
0.0176961
0.017102
0.0157218
0.0133356
0.00954383
0.00412488
-0.0030901
-0.0116889
-0.0214863
-0.0313804
-0.0394976
-0.043163
-0.0426006
-0.0382711
-0.0316718
-0.0231901
-0.0139963
-0.00573855
0.0014044
0.00696153
0.0113446
0.0141641
0.0159108
0.0169325
0.0175568
0.0179282
0.0181586
0.0182928
0.0183734
0.0184077
0.0184182
0.0184306
0.017371
0.0172871
0.0172157
0.0171344
0.0170262
0.0168544
0.0165777
0.0160853
0.015255
0.0138747
0.0115537
0.00801655
0.00321751
-0.00278312
-0.0101104
-0.0181172
-0.0264432
-0.0340802
-0.0387242
-0.038792
-0.0374322
-0.0316802
-0.0235263
-0.0143477
-0.00518701
0.00242057
0.00857918
0.0128189
0.0156416
0.0170107
0.017678
0.0179653
0.0180934
0.018156
0.018186
0.0181951
0.0181986
0.0181937
0.0181784
0.018154
0.0166147
0.0165387
0.0164552
0.016334
0.0161344
0.0158083
0.0152925
0.0144696
0.0131044
0.0108755
0.00731421
0.00224159
-0.00441286
-0.0123784
-0.0211264
-0.0297431
-0.0377717
-0.0440006
-0.0474371
-0.0455092
-0.0413182
-0.0330054
-0.0219696
-0.0107089
-0.000329379
0.00761265
0.0134938
0.0168231
0.0186287
0.01909
0.0189644
0.0186952
0.0184193
0.0181979
0.0180306
0.0179061
0.0178244
0.0177758
0.017748
0.0177448
0.0159977
0.0160048
0.0159276
0.0157749
0.0154977
0.0150566
0.0143615
0.0133071
0.0115852
0.00888306
0.00450159
-0.00183776
-0.0103676
-0.020679
-0.031772
-0.0421978
-0.0514518
-0.0577455
-0.0613244
-0.0578237
-0.0468623
-0.0343214
-0.020119
-0.00727708
0.00327364
0.0109688
0.016139
0.0185908
0.019925
0.0200622
0.0194745
0.0189171
0.0183967
0.0179767
0.0176719
0.0174582
0.0173173
0.0172456
0.0172275
0.0172761
0.0153918
0.015445
0.0153893
0.0152467
0.0149714
0.0145278
0.0138307
0.0127562
0.0110367
0.00833956
0.00407945
-0.00208762
-0.0104517
-0.0211561
-0.0329728
-0.044331
-0.0550007
-0.0616569
-0.0651834
-0.0615111
-0.0476881
-0.0333008
-0.0184724
-0.00598036
0.00383976
0.010897
0.0155137
0.0178614
0.0191729
0.0194107
0.0189596
0.0184566
0.017911
0.0175009
0.0171972
0.0169941
0.0168593
0.0167899
0.016765
0.0167912
0.0148583
0.0148663
0.0148175
0.0147202
0.0145247
0.0141999
0.0136685
0.0128221
0.0114802
0.00932149
0.00599745
0.00106178
-0.00538858
-0.0134686
-0.0231012
-0.0327858
-0.0423444
-0.0489176
-0.0529262
-0.0516559
-0.0426178
-0.0315411
-0.0196644
-0.00927575
-0.000527132
0.00636752
0.0113436
0.0144987
0.0164277
0.0172586
0.017369
0.0172049
0.0169002
0.0166649
0.0164948
0.0163806
0.0163042
0.0162553
0.0162182
0.016183
0.0145191
0.0144963
0.0144725
0.0144273
0.0143343
0.0141653
0.0138705
0.0133817
0.0125699
0.0112141
0.0090735
0.00589476
0.00159562
-0.00368106
-0.010269
-0.0174146
-0.0246531
-0.0306348
-0.0349957
-0.0368201
-0.0348904
-0.029448
-0.0221059
-0.0141706
-0.00649671
0.000132808
0.00555847
0.0095694
0.0122851
0.0139222
0.0148085
0.0151824
0.0152958
0.0153482
0.0153732
0.0153925
0.0154124
0.015427
0.0154245
0.0153891
0.0143302
0.0143353
0.0143492
0.0143528
0.0143403
0.0143055
0.0142204
0.0140608
0.0137643
0.013201
0.0121043
0.0103228
0.00750821
0.00386377
-0.0010401
-0.00687815
-0.013261
-0.0193015
-0.0246395
-0.0283849
-0.0288767
-0.0277932
-0.0240283
-0.018116
-0.0115672
-0.0054435
-3.23177e-06
0.00436366
0.00767426
0.0101203
0.0118188
0.012828
0.0134245
0.0138151
0.0140452
0.0141991
0.0143093
0.0143955
0.01446
0.0145093
0.0140945
0.0141265
0.0141586
0.0141955
0.0142468
0.0143244
0.0144222
0.0145385
0.0146574
0.0147149
0.0145447
0.0138614
0.0119948
0.00912074
0.00471599
-0.00101735
-0.00793427
-0.0152706
-0.0219942
-0.0270844
-0.0295574
-0.0314713
-0.0298113
-0.0252353
-0.0194823
-0.0132795
-0.00723854
-0.00181696
0.00273785
0.0062733
0.00890382
0.0106608
0.0117728
0.0124757
0.0129073
0.0131907
0.013373
0.0135009
0.0135998
0.013701
0.0137222
0.013713
0.0137464
0.013814
0.0139319
0.0141086
0.0143647
0.0146922
0.0151242
0.0155921
0.0161465
0.0162217
0.0151679
0.0131993
0.00944954
0.0039039
-0.00337853
-0.0126152
-0.0220222
-0.0299327
-0.0366634
-0.040955
-0.0402593
-0.0361604
-0.0303718
-0.0232719
-0.0157132
-0.00849191
-0.0021053
0.00286279
0.00650938
0.00898216
0.0105242
0.0114891
0.0121041
0.0125069
0.0127656
0.0129222
0.0130165
0.0130687
0.0133125
0.0132693
0.0132873
0.0133553
0.013497
0.0137124
0.0140403
0.0144616
0.015034
0.0156249
0.0163738
0.0166865
0.016161
0.0149728
0.0121157
0.007243
0.000343018
-0.0093378
-0.0205144
-0.0315692
-0.0417252
-0.0484466
-0.0484049
-0.0434451
-0.0371688
-0.0288515
-0.0200904
-0.0115275
-0.00415432
0.00138452
0.005404
0.00811198
0.00976974
0.0108631
0.0115784
0.0120409
0.0123296
0.0124883
0.0125615
0.0125251
0.0128652
0.0128566
0.0128817
0.0129391
0.013047
0.0132133
0.0134682
0.0137993
0.0142665
0.0146378
0.0149701
0.0149082
0.0141548
0.0127377
0.00993856
0.00544554
-0.000747023
-0.00917273
-0.0194831
-0.0301054
-0.0386549
-0.0446608
-0.0436102
-0.0382645
-0.0322109
-0.0243395
-0.0162338
-0.00857647
-0.00235518
0.002313
0.00579704
0.00814077
0.00964354
0.0106176
0.0112312
0.0116245
0.0118642
0.0119931
0.0120439
0.0120058
0.0122851
0.0123198
0.0123395
0.0123559
0.0123834
0.0124292
0.0125067
0.0126079
0.0127188
0.0126499
0.0123091
0.0114318
0.0098037
0.00738645
0.00392402
-0.00067316
-0.0062757
-0.0127447
-0.0195029
-0.0259713
-0.0298141
-0.0313321
-0.0290859
-0.0247262
-0.0194561
-0.0133938
-0.00755503
-0.00234762
0.00179638
0.00511648
0.00753548
0.00908637
0.0101004
0.0107304
0.0111095
0.011345
0.0114878
0.0115621
0.0115999
0.0116077
0.0115619
0.0115642
0.0115309
0.0114732
0.011401
0.0113049
0.0111684
0.0109542
0.0106179
0.0100053
0.00890906
0.00728856
0.004964
0.00185095
-0.00202273
-0.00653191
-0.0114685
-0.0162098
-0.0196097
-0.0216732
-0.022335
-0.0203099
-0.0169384
-0.0128132
-0.00820768
-0.00357305
0.00043328
0.00375197
0.00630502
0.00828017
0.00960013
0.0103813
0.0108698
0.0111198
0.0112572
0.0113371
0.0113732
0.0113809
0.0113789
0.0113936
0.0108103
0.0107352
0.0106466
0.0105326
0.0103843
0.010171
0.00984724
0.00933941
0.00855209
0.00736284
0.00561827
0.00329281
0.000250861
-0.0035677
-0.00795456
-0.0125587
-0.0170098
-0.0204534
-0.0215865
-0.0204779
-0.0190613
-0.0156404
-0.0115291
-0.00681869
-0.00201846
0.00233483
0.00570127
0.00813817
0.00985009
0.0108642
0.0113169
0.0114773
0.0115046
0.011466
0.0114205
0.0113745
0.0113319
0.0112918
0.0112603
0.0112381
0.0101835
0.0100926
0.00998888
0.00984839
0.0096405
0.00932558
0.00884063
0.00806863
0.00684012
0.00496272
0.00234626
-0.00115497
-0.00560799
-0.0107531
-0.0161216
-0.0212835
-0.025351
-0.0279807
-0.0278795
-0.0241908
-0.0198317
-0.0146724
-0.00865
-0.0023622
0.00292077
0.00712265
0.0100204
0.0117611
0.0126664
0.0127255
0.0124582
0.0121267
0.0118028
0.0115495
0.0113573
0.0112097
0.0111058
0.011043
0.0110069
0.0109809
0.00971695
0.00969607
0.00960624
0.00945015
0.00919227
0.00879274
0.00819602
0.00724791
0.00573939
0.0033575
-1.63521e-05
-0.00461697
-0.0104734
-0.0170683
-0.0237143
-0.0298273
-0.0341623
-0.0368326
-0.0356752
-0.0293098
-0.0215815
-0.0135152
-0.0051834
0.00228389
0.00757134
0.0112425
0.0133034
0.0141977
0.0142518
0.0136001
0.0129407
0.012289
0.0117533
0.0113535
0.0110528
0.0108371
0.0106929
0.010616
0.0105847
0.010606
0.00928867
0.00931946
0.00926708
0.0091383
0.00889124
0.00849149
0.00786825
0.006913
0.00543649
0.00309378
-0.000222386
-0.00482545
-0.0107925
-0.0176823
-0.0245595
-0.0309545
-0.0353016
-0.0380334
-0.0367872
-0.0300228
-0.0217481
-0.0124596
-0.00357383
0.00374908
0.00853829
0.0116899
0.0132113
0.0137663
0.0136482
0.0130731
0.0124905
0.0118562
0.0113249
0.0109142
0.010611
0.0104027
0.0102699
0.010204
0.0101834
0.010224
0.00892045
0.0089399
0.0088994
0.0088046
0.00862688
0.00833746
0.00786901
0.00712654
0.00597411
0.00420464
0.00161383
-0.00180492
-0.00618356
-0.0114599
-0.0168938
-0.0222051
-0.0261543
-0.0287316
-0.0291109
-0.0249609
-0.0195886
-0.0128657
-0.00616254
-0.000452854
0.00385031
0.00706328
0.00903785
0.0102561
0.0108862
0.0110671
0.0109914
0.0107439
0.010453
0.0102138
0.0100377
0.00992752
0.0098556
0.00981741
0.00979453
0.00978822
0.0087023
0.00869281
0.00867069
0.00863039
0.00855561
0.00842168
0.00819139
0.0078002
0.00713616
0.00613702
0.00460601
0.00256348
-1.59276e-05
-0.00331154
-0.00689466
-0.0107611
-0.0140361
-0.0169012
-0.0186823
-0.0182892
-0.0165259
-0.0135724
-0.0100583
-0.00615886
-0.00248055
0.000768147
0.00339163
0.00547272
0.00701843
0.00807047
0.00866813
0.00895827
0.00907617
0.00912883
0.00916179
0.00919323
0.00921761
0.00923501
0.00923678
0.00921078
0.00859813
0.00860502
0.00862392
0.00864728
0.00866361
0.00867314
0.00865687
0.00858942
0.00840661
0.00803631
0.00735034
0.00625294
0.00475045
0.00260103
-1.944e-05
-0.00331621
-0.00655084
-0.00975309
-0.0121669
-0.0138686
-0.0144989
-0.0145956
-0.0134324
-0.0108233
-0.00771039
-0.00438493
-0.0013409
0.00127169
0.00336948
0.00496648
0.00614674
0.00695942
0.00748489
0.00783917
0.0080776
0.00823987
0.00835542
0.00844005
0.00849786
0.00852532
0.00848127
0.00852103
0.00856542
0.0086232
0.00869547
0.00879396
0.00892418
0.00908823
0.00925807
0.00937886
0.00935532
0.00900269
0.00816927
0.00666808
0.00452504
0.0014672
-0.00207956
-0.00584842
-0.00911708
-0.0124664
-0.0154129
-0.018109
-0.0186351
-0.0170688
-0.0143071
-0.0106719
-0.00691194
-0.00332131
-0.000288313
0.00207541
0.00389356
0.00522191
0.00613093
0.00673734
0.00713568
0.00739915
0.00757859
0.00770798
0.00780809
0.00789118
0.00823786
0.00826269
0.00830549
0.00837808
0.00849139
0.00865565
0.00888682
0.0092066
0.00962561
0.0101473
0.0106775
0.0111553
0.0111873
0.0104944
0.00901194
0.00641761
0.00262674
-0.00242394
-0.00772393
-0.013254
-0.0187932
-0.0236211
-0.0255633
-0.0249261
-0.0220927
-0.0179215
-0.013202
-0.00837348
-0.00405533
-0.000556941
0.00203194
0.00391561
0.00519386
0.0059993
0.00652084
0.00686669
0.00709885
0.00725194
0.00735688
0.00741417
0.00789545
0.00786759
0.00789793
0.00797056
0.00810211
0.00830044
0.00858843
0.00897929
0.00951206
0.0102175
0.0109903
0.0119292
0.0125898
0.0126126
0.0118097
0.00978362
0.00628
0.000733278
-0.0061182
-0.0135319
-0.0206833
-0.0270499
-0.0299007
-0.0296448
-0.0263967
-0.0219496
-0.0165741
-0.0110237
-0.00593522
-0.00180345
0.00116497
0.0033144
0.00471909
0.0056199
0.00620073
0.00657882
0.00682037
0.006953
0.00701616
0.00701632
0.00755002
0.00752382
0.00754035
0.00758819
0.0076896
0.0078507
0.00808957
0.00842206
0.00884004
0.00937669
0.00990051
0.0104765
0.0108865
0.0108105
0.00999843
0.0081448
0.00500438
0.000148403
-0.00605828
-0.0126442
-0.0187309
-0.0240624
-0.0259292
-0.0252706
-0.0223539
-0.0184162
-0.0137191
-0.00887729
-0.00448496