/*--------------------------------*- C++ -*----------------------------------*\
| =========                 |                                                 |
| \\      /  F ield         | OpenFOAM: The Open Source CFD Toolbox           |
|  \\    /   O peration     | Version:  v2106                                 |
|   \\  /    A nd           | Website:  www.openfoam.com                      |
|    \\/     M anipulation  |                                                 |
\*---------------------------------------------------------------------------*/
FoamFile
{
    version     2.0;
    format      ascii;
    arch        "LSB;label=32;scalar=64";
    class       volVectorField;
    location    "0";
    object      U;
}
// * * * * * * * * * * * * * * * * * * * * * * * * * * * * * * * * * * * * * //

dimensions      [0 1 -1 0 0 0 0];

internalField   nonuniform List<vector> 
11644
(
(0.998211 -0.000247675 8.62575e-23)
(0.998093 -0.000658036 2.37873e-22)
(0.998018 -0.000974045 1.27625e-22)
(0.997998 -0.00129873 0)
(0.997994 -0.00164655 0)
(0.997992 -0.00201641 0)
(0.99799 -0.00240565 0)
(0.997986 -0.00280825 0)
(0.997984 -0.00321377 0)
(0.997979 -0.00361242 0)
(0.997984 -0.00397835 0)
(0.997946 -0.00430735 0)
(0.997953 -0.0045556 0)
(0.998145 -0.00469547 0)
(0.998018 -0.00473193 0)
(0.998045 -0.00463196 0)
(0.998089 -0.0043794 0)
(0.997909 -0.0039211 0)
(0.997838 -0.00332444 0)
(0.997923 -0.00270322 3.28916e-30)
(0.997893 -0.00211048 -3.28347e-30)
(0.997534 -0.00127535 0)
(0.997324 -3.53611e-05 0)
(0.997623 0.00106813 0)
(0.997963 0.00164853 0)
(0.998021 0.00199053 0)
(0.998168 0.00234806 0)
(0.998035 0.00248887 0)
(0.997968 0.00256267 0)
(0.997972 0.00253622 0)
(0.997989 0.00243022 0)
(0.997988 0.002266 0)
(0.997988 0.00205788 0)
(0.997987 0.0018218 0)
(0.997987 0.00156939 0)
(0.99799 0.00131164 0)
(0.997995 0.00105261 0)
(0.998009 0.000799697 0)
(0.99807 0.000548232 0)
(0.998174 0.000209467 1.67244e-23)
(0.99906 -0.000500065 1.10797e-22)
(0.998982 -0.001524 1.02634e-22)
(0.998932 -0.00257532 5.51213e-23)
(0.998937 -0.00363594 0)
(0.998981 -0.00472591 0)
(0.999038 -0.00586659 0)
(0.999096 -0.00706265 0)
(0.999146 -0.00830475 0)
(0.999172 -0.0095747 0)
(0.999173 -0.0108314 0)
(0.999084 -0.0120461 0)
(0.998993 -0.0131111 0)
(0.998791 -0.0139807 0)
(0.998209 -0.0146256 0)
(0.997971 -0.0147629 0)
(0.997391 -0.0144687 4.30072e-25)
(0.996639 -0.0135832 -1.06955e-23)
(0.996293 -0.012291 -3.78122e-23)
(0.996094 -0.01068 1.11027e-23)
(0.995837 -0.00859739 -6.24639e-23)
(0.995424 -0.00591843 1.53877e-22)
(0.995122 -0.0029397 -1.00646e-22)
(0.99521 -0.00021076 3.6434e-23)
(0.995722 0.00214686 1.36107e-23)
(0.996412 0.00421171 -2.67266e-24)
(0.996964 0.00579981 0)
(0.997158 0.00680845 0)
(0.997701 0.00746697 0)
(0.998083 0.00769649 0)
(0.998306 0.00759972 0)
(0.998449 0.00726848 0)
(0.998575 0.00674991 0)
(0.998652 0.0061071 0)
(0.998698 0.00538066 0)
(0.99872 0.00460333 0)
(0.998727 0.00379948 0)
(0.998732 0.00298063 0)
(0.998751 0.00214668 0)
(0.998812 0.00129041 0)
(0.998893 0.00042834 0)
(1.00076 -0.000777189 0)
(1.00074 -0.0023824 0)
(1.00076 -0.00406836 0)
(1.00086 -0.00581997 0)
(1.001 -0.00764458 1.01211e-22)
(1.00118 -0.00956205 0)
(1.00136 -0.0115826 0)
(1.00153 -0.0137031 0)
(1.00164 -0.0158961 0)
(1.00163 -0.0181332 0)
(1.00152 -0.0202869 0)
(1.00111 -0.022324 0)
(1.00039 -0.0240429 1.47528e-24)
(0.999756 -0.0251782 2.97956e-23)
(0.998145 -0.0258015 2.63829e-22)
(0.996589 -0.0255174 9.28477e-23)
(0.995238 -0.0243976 -6.28283e-22)
(0.993706 -0.0223089 7.72378e-22)
(0.992181 -0.0190526 -1.52862e-21)
(0.990767 -0.014612 1.16836e-21)
(0.989913 -0.00947173 -6.21331e-22)
(0.989858 -0.00427809 2.30988e-22)
(0.990634 0.0003261 -1.19842e-22)
(0.991896 0.00426242 1.8854e-22)
(0.993339 0.00769356 4.60434e-22)
(0.994789 0.0103733 -2.94082e-22)
(0.996398 0.0122227 -1.60513e-23)
(0.99731 0.0131338 -1.73868e-24)
(0.998129 0.0134188 0)
(0.998862 0.0131484 0)
(0.999424 0.0124643 0)
(0.999768 0.0115054 0)
(1 0.0103477 0)
(1.00013 0.00906968 0)
(1.0002 0.00771984 0)
(1.00022 0.00633098 0)
(1.00023 0.00492326 0)
(1.00025 0.00350138 0)
(1.0003 0.00207295 0)
(1.00036 0.000679326 0)
(1.00329 -0.00104695 0)
(1.00332 -0.0031919 0)
(1.00345 -0.00543157 0)
(1.00368 -0.00777687 0)
(1.004 -0.0102558 0)
(1.00437 -0.0128977 0)
(1.00476 -0.0157177 0)
(1.00513 -0.0187204 0)
(1.0054 -0.0218953 0)
(1.00551 -0.0251641 0)
(1.00524 -0.0285106 -6.39398e-25)
(1.00461 -0.0317269 3.60625e-23)
(1.00342 -0.0345913 5.86105e-23)
(1.00111 -0.0370384 -3.19827e-22)
(0.99894 -0.0380938 -4.8206e-22)
(0.995765 -0.0380297 6.7873e-22)
(0.992104 -0.0363641 -1.89939e-23)
(0.988336 -0.0327943 -6.20655e-22)
(0.984956 -0.0271531 -5.9632e-22)
(0.982233 -0.0201662 1.49789e-21)
(0.980856 -0.0124799 3.36057e-22)
(0.981133 -0.0046523 -8.62831e-22)
(0.983061 0.00246949 2.0547e-22)
(0.985609 0.00841241 -4.87628e-22)
(0.988485 0.0133134 -5.34294e-22)
(0.99147 0.0169114 7.53875e-22)
(0.993963 0.0191654 4.22911e-22)
(0.996804 0.0202419 -6.4027e-23)
(0.998749 0.0202985 -2.40335e-24)
(1.00008 0.0196037 -1.84104e-26)
(1.00103 0.0183625 0)
(1.00172 0.0167385 0)
(1.00213 0.0149128 0)
(1.00237 0.0129592 0)
(1.00248 0.0109499 0)
(1.00252 0.0089214 0)
(1.00252 0.00690084 0)
(1.00253 0.00489297 0)
(1.00255 0.00290911 0)
(1.00261 0.000958179 0)
(1.00649 -0.00127018 0)
(1.0066 -0.00385834 0)
(1.00687 -0.00654802 0)
(1.00729 -0.00938363 0)
(1.00785 -0.0124206 0)
(1.00851 -0.0156965 0)
(1.00923 -0.0192497 0)
(1.00993 -0.0231057 0)
(1.0105 -0.0272665 0)
(1.01077 -0.0317518 -2.28605e-23)
(1.01067 -0.0364868 4.55321e-23)
(1.00996 -0.0413125 -6.17272e-22)
(1.00819 -0.0459033 5.46475e-22)
(1.00599 -0.0493381 -3.00404e-21)
(1.00089 -0.0520643 9.89119e-22)
(0.995383 -0.0523627 1.23733e-21)
(0.989049 -0.0503969 -3.41609e-23)
(0.981025 -0.0451976 -1.79001e-22)
(0.974396 -0.0367256 4.17629e-21)
(0.96934 -0.0258456 -1.80264e-22)
(0.967233 -0.0138152 2.67687e-21)
(0.968498 -0.00200329 -7.54418e-21)
(0.972385 0.00830813 8.18369e-22)
(0.977173 0.0164231 -3.98288e-22)
(0.98215 0.0225455 -7.20182e-22)
(0.987534 0.026716 -1.22504e-21)
(0.992833 0.0288714 3.68763e-21)
(0.996418 0.0295381 -8.85579e-22)
(0.999649 0.0289234 7.03583e-22)
(1.00214 0.0273527 -6.41883e-23)
(1.0037 0.0251859 9.29024e-25)
(1.00464 0.0226462 0)
(1.00523 0.0199024 0)
(1.00553 0.0171205 0)
(1.00565 0.0143488 0)
(1.00566 0.0116236 0)
(1.00562 0.0089572 0)
(1.00558 0.00634653 0)
(1.00558 0.00377319 0)
(1.00562 0.00125261 0)
(1.01021 -0.001454 0)
(1.0104 -0.00437713 0)
(1.01085 -0.0074181 0)
(1.01152 -0.0106181 0)
(1.01241 -0.014068 0)
(1.01347 -0.0178383 0)
(1.01464 -0.0220025 0)
(1.01584 -0.0266209 0)
(1.01693 -0.0317704 3.53807e-24)
(1.01784 -0.0375366 -8.68089e-23)
(1.01842 -0.0439102 1.09391e-22)
(1.01806 -0.0507389 -1.05105e-21)
(1.01606 -0.0575144 5.4757e-22)
(1.0109 -0.0647492 -4.95234e-22)
(1.00451 -0.0683726 6.30228e-22)
(0.994275 -0.0693982 -8.90092e-23)
(0.981969 -0.0675024 -1.22475e-22)
(0.968503 -0.0601012 -3.05482e-22)
(0.957113 -0.0468772 -4.40611e-22)
(0.949452 -0.0305626 -2.20946e-21)
(0.946663 -0.012655 3.38825e-21)
(0.949517 0.0047241 7.47109e-22)
(0.956652 0.0197633 -1.12735e-21)
(0.965768 0.0306056 9.68985e-22)
(0.975595 0.0372684 -5.82904e-22)
(0.98398 0.0411688 -7.8473e-22)
(0.99058 0.0426358 5.83025e-22)
(0.997494 0.0413939 -2.13589e-22)
(1.00196 0.0392944 3.40072e-22)
(1.00534 0.0364228 -3.5488e-23)
(1.00772 0.0329481 2.57818e-22)
(1.00899 0.0291714 -2.67622e-23)
(1.00958 0.0253155 0)
(1.00983 0.0215184 0)
(1.00984 0.0178646 0)
(1.00974 0.0143609 0)
(1.00959 0.0109962 0)
(1.00946 0.00776319 0)
(1.00938 0.004608 0)
(1.00938 0.00152338 0)
(1.01426 -0.00150384 0)
(1.01456 -0.00464467 0)
(1.01521 -0.00787818 0)
(1.01619 -0.0113359 0)
(1.01748 -0.0150767 0)
(1.01905 -0.0192113 0)
(1.02084 -0.0238327 0)
(1.02276 -0.0290696 -7.61057e-25)
(1.02488 -0.0351631 1.23616e-23)
(1.02708 -0.0423465 -3.09423e-22)
(1.02875 -0.0507179 -6.69827e-23)
(1.02906 -0.0601933 5.60401e-22)
(1.02687 -0.0707348 -1.24892e-22)
(1.02304 -0.0790989 3.07653e-23)
(1.01104 -0.0892103 -8.05754e-22)
(0.995899 -0.0934122 7.97591e-22)
(0.98098 -0.0846619 4.30872e-21)
(0.962549 -0.0773435 4.13137e-21)
(0.944313 -0.0619918 1.15113e-21)
(0.931067 -0.0394879 5.18471e-21)
(0.925879 -0.0131489 4.36843e-21)
(0.930059 0.011778 -1.91209e-21)
(0.940387 0.0315448 2.72873e-21)
(0.954006 0.045371 5.94233e-21)
(0.969116 0.0609771 -7.26903e-22)
(0.983008 0.0625618 5.21269e-22)
(0.994732 0.0599131 8.26228e-22)
(1.00098 0.0563358 2.34431e-22)
(1.00642 0.0515151 -1.20545e-21)
(1.0104 0.0464795 -6.61504e-23)
(1.01328 0.0413228 3.0669e-22)
(1.01491 0.0360676 -7.00014e-23)
(1.01548 0.0309253 -8.89778e-24)
(1.01544 0.025983 0)
(1.01517 0.0213565 0)
(1.01481 0.0170325 0)
(1.01444 0.0129779 0)
(1.01413 0.00911184 0)
(1.01393 0.00542871 0)
(1.01386 0.0017866 0)
(1.01847 -0.00160606 0)
(1.01888 -0.00474185 0)
(1.01975 -0.00803723 0)
(1.02107 -0.0115341 0)
(1.02284 -0.0153633 0)
(1.02502 -0.0196373 0)
(1.02757 -0.024494 0)
(1.03059 -0.030164 2.11286e-23)
(1.03447 -0.0371287 7.31275e-23)
(1.03853 -0.0457938 2.38432e-22)
(1.04194 -0.0562678 -8.84296e-22)
(1.04381 -0.0683678 1.50851e-22)
(1.04332 -0.0813113 -2.34631e-21)
(1.03334 -0.0945058 -1.44606e-21)
(1.0237 -0.10308 1.75507e-21)
(1.00791 -0.111895 -8.85598e-22)
(0.979794 -0.117113 -3.2725e-21)
(0.947775 -0.110537 -7.44423e-22)
(0.914426 -0.091019 -2.63759e-21)
(0.889141 -0.0557879 -3.86759e-21)
(0.879645 -0.011107 -1.09014e-21)
(0.889723 0.0311588 -4.21342e-21)
(0.911676 0.061778 -7.04329e-21)
(0.938203 0.0784611 -3.28467e-21)
(0.961513 0.0852509 -4.70281e-21)
(0.982274 0.0828282 3.61943e-21)
(0.996147 0.0769792 -1.09158e-21)
(1.00947 0.072428 -2.19303e-22)
(1.01479 0.0644112 -3.85523e-23)
(1.01832 0.0566436 -6.91213e-22)
(1.02091 0.0495073 2.86118e-22)
(1.02241 0.0427546 -2.70807e-22)
(1.02297 0.0362667 9.71512e-23)
(1.02251 0.0301759 0)
(1.0217 0.0245556 0)
(1.02088 0.0194369 0)
(1.02015 0.0147193 0)
(1.01955 0.0103172 0)
(1.01916 0.00607007 0)
(1.019 0.00203437 0)
(1.02263 -0.00147386 0)
(1.02314 -0.00453009 0)
(1.02425 -0.00773185 0)
(1.02593 -0.0111108 0)
(1.02821 -0.0148403 0)
(1.03107 -0.0190212 0)
(1.03454 -0.0238474 1.93315e-24)
(1.03923 -0.0297411 8.61815e-23)
(1.04545 -0.0373924 -6.43414e-23)
(1.0519 -0.047147 -1.44452e-22)
(1.05791 -0.0591302 -7.67853e-23)
(1.06268 -0.0737502 6.63879e-22)
(1.06484 -0.0926806 -5.3038e-22)
(1.05439 -0.109738 8.21947e-22)
(1.04475 -0.125963 4.50045e-22)
(1.02482 -0.145608 -3.75372e-22)
(0.991396 -0.156572 -1.66759e-22)
(0.942213 -0.162241 3.86122e-21)
(0.882498 -0.142343 1.30612e-21)
(0.830105 -0.0902884 -1.22147e-21)
(0.808277 -0.0120211 -5.02544e-21)
(0.828117 0.061257 -3.58191e-21)
(0.873012 0.108055 -1.35633e-22)
(0.921552 0.126823 1.69082e-21)
(0.961125 0.125486 -5.13051e-22)
(0.991461 0.118549 6.90399e-22)
(1.00757 0.103788 1.93526e-22)
(1.02359 0.09055 -4.45592e-22)
(1.02756 0.0769237 4.62734e-22)
(1.02954 0.0658133 1.39256e-22)
(1.03104 0.0563716 -4.17386e-22)
(1.03177 0.04813 1.4364e-22)
(1.03193 0.0405474 2.64486e-23)
(1.03101 0.033439 2.84675e-23)
(1.02939 0.0269638 0)
(1.02787 0.0211536 0)
(1.02659 0.015882 0)
(1.0256 0.0110548 0)
(1.02494 0.00653481 0)
(1.02464 0.00213107 0)
(1.02653 -0.00133242 0)
(1.02715 -0.00415167 0)
(1.02846 -0.0069738 0)
(1.0305 -0.0100923 0)
(1.03328 -0.0134867 0)
(1.03685 -0.0173327 0)
(1.04144 -0.0218179 1.74974e-23)
(1.04828 -0.0275768 -7.61858e-23)
(1.05713 -0.0353214 5.78862e-23)
(1.06647 -0.0452919 -3.48109e-23)
(1.07592 -0.0576827 1.46879e-22)
(1.0851 -0.0732727 -1.5842e-22)
(1.09302 -0.0946329 5.19712e-23)
(1.08786 -0.118213 -7.55309e-23)
(1.08228 -0.144426 -1.13914e-22)
(1.05988 -0.180801 4.67276e-22)
(1.02326 -0.213214 6.48823e-22)
(0.957396 -0.249004 3.50735e-22)
(0.847798 -0.25671 7.34358e-22)
(0.716813 -0.184424 5.72793e-22)
(0.651478 -0.0209 -6.29755e-22)
(0.709631 0.13869 -1.96302e-21)
(0.825536 0.21003 -1.32451e-21)
(0.919538 0.210912 7.84557e-22)
(0.982888 0.18775 -2.02293e-22)
(1.02095 0.157984 -5.97396e-21)
(1.0336 0.128859 5.64972e-22)
(1.04583 0.105344 -1.09391e-22)
(1.04562 0.0867819 1.88241e-22)
(1.04443 0.0722899 -1.95026e-22)
(1.04369 0.0608099 2.27618e-22)
(1.04287 0.0512695 6.78333e-23)
(1.04208 0.042917 -1.92962e-22)
(1.04059 0.0352155 1.27554e-23)
(1.038 0.0282068 0)
(1.03555 0.0220006 0)
(1.03355 0.0164799 0)
(1.03204 0.0114143 0)
(1.03105 0.00674277 0)
(1.03058 0.00222684 0)
(1.03 -0.00126751 0)
(1.03073 -0.0035974 0)
(1.03227 -0.0061121 0)
(1.03461 -0.00870123 0)
(1.03781 -0.0114976 0)
(1.04198 -0.0146384 0)
(1.04787 -0.0184016 1.56141e-23)
(1.05701 -0.0234897 -5.15677e-25)
(1.06839 -0.0303028 1.43654e-23)
(1.0808 -0.0390321 -3.38397e-23)
(1.09431 -0.0501625 3.4169e-23)
(1.10915 -0.0645892 1.00406e-22)
(1.12407 -0.0826896 -9.3803e-23)
(1.12922 -0.111989 2.03066e-22)
(1.1372 -0.146902 2.10775e-22)
(1.13502 -0.199228 -2.68628e-22)
(1.11556 -0.270388 -1.80389e-23)
(1.05947 -0.381762 -2.97791e-23)
(0.886399 -0.511311 -6.46409e-22)
(0.49419 -0.510207 -3.16203e-20)
(0.187128 -0.028772 -2.87269e-20)
(0.485971 0.432647 -1.18052e-20)
(0.836378 0.441876 1.34802e-21)
(0.993792 0.336065 -1.27501e-22)
(1.05235 0.249319 1.31696e-23)
(1.07402 0.185968 1.18289e-22)
(1.07264 0.145888 1.01559e-22)
(1.07529 0.109838 9.23878e-23)
(1.06858 0.0900171 8.77966e-24)
(1.06268 0.0740654 -1.29535e-22)
(1.05845 0.0614336 6.62374e-23)
(1.05521 0.0511233 -2.88367e-23)
(1.05291 0.0425049 6.02696e-24)
(1.05066 0.034809 1.47505e-23)
(1.04708 0.0277517 0)
(1.04354 0.0215126 0)
(1.0407 0.0160299 0)
(1.03858 0.0110864 0)
(1.03718 0.00645296 0)
(1.0365 0.00212719 0)
(1.03294 -0.000905735 0)
(1.03368 -0.00279748 0)
(1.03532 -0.00475008 0)
(1.03783 -0.00671272 0)
(1.04136 -0.00883861 0)
(1.04603 -0.0110887 0)
(1.05322 -0.0137956 -1.01899e-23)
(1.0643 -0.0174957 -1.21279e-23)
(1.07769 -0.0222512 -1.59703e-23)
(1.09263 -0.0280505 -5.72775e-23)
(1.10982 -0.0353649 -4.17436e-23)
(1.13011 -0.0449952 -5.30275e-23)
(1.15371 -0.0572673 1.74389e-22)
(1.16746 -0.0848791 4.17783e-23)
(1.19905 -0.115578 1.66744e-23)
(1.22586 -0.17058 2.56094e-22)
(1.26335 -0.254197 -1.9559e-22)
(1.32125 -0.41044 1.83769e-21)
(1.03008 -0.562978 -1.21203e-19)
(0.993025 0.513855 3.98021e-21)
(1.19772 0.380208 -1.39707e-22)
(1.16292 0.252443 2.16411e-22)
(1.14089 0.179089 -9.20832e-23)
(1.11938 0.142733 -1.23239e-22)
(1.10733 0.103193 -2.4958e-23)
(1.09362 0.0848089 4.62114e-23)
(1.08256 0.0696218 2.85622e-24)
(1.07415 0.057152 5.74096e-24)
(1.06798 0.047121 -5.91598e-24)
(1.06375 0.0389446 -4.73044e-24)
(1.0605 0.0318337 -1.09472e-23)
(1.05597 0.025319 0)
(1.05128 0.0195496 0)
(1.04757 0.0145284 0)
(1.04487 0.0100943 0)
(1.04307 0.0059767 0)
(1.04219 0.00205719 0)
(1.03522 -0.000592782 0)
(1.03603 -0.00205499 0)
(1.03763 -0.0032929 0)
(1.04023 -0.00466283 0)
(1.0439 -0.00598273 0)
(1.04882 -0.00720638 0)
(1.05679 -0.00850819 6.88354e-24)
(1.06899 -0.0101788 -8.59826e-24)
(1.08334 -0.0118559 -1.99893e-23)
(1.09956 -0.0134178 -3.60946e-24)
(1.1184 -0.0150108 6.59418e-23)
(1.14173 -0.0170157 1.26202e-22)
(1.17019 -0.0186509 -3.44172e-22)
(1.19624 -0.0377537 -3.27514e-22)
(1.243 -0.051262 -1.6479e-21)
(1.29433 -0.0847339 1.6053e-22)
(1.37528 -0.127738 1.78155e-22)
(1.51065 -0.174612 2.81386e-21)
(0.0204105 -0.0130854 3.93747e-19)
(0.0380935 -0.0215365 -1.19581e-19)
(1.32959 0.238572 -1.64779e-22)
(1.24771 0.188046 4.81608e-23)
(1.19506 0.143126 -4.7371e-22)
(1.16033 0.119071 -5.88698e-22)
(1.13612 0.0867988 2.37247e-22)
(1.11711 0.0720095 -2.83309e-22)
(1.10147 0.0590335 6.21094e-25)
(1.08918 0.0480926 4.74864e-23)
(1.0801 0.039323 -1.487e-23)
(1.0738 0.0322593 4.91133e-24)
(1.06939 0.0262867 2.42119e-24)
(1.064 0.0209193 0)
(1.05826 0.0161368 0)
(1.0537 0.0119697 0)
(1.05034 0.0081945 0)
(1.04816 0.00474373 0)
(1.04709 0.00133178 0)
(1.03682 -0.000564486 -5.307e-25)
(1.03762 -0.00132186 0)
(1.03934 -0.00216749 0)
(1.04192 -0.00283953 0)
(1.04541 -0.00329715 0)
(1.05013 -0.00347819 0)
(1.05813 -0.00328273 -2.44153e-23)
(1.07019 -0.00256336 1.48707e-23)
(1.08384 -0.000875625 2.11644e-22)
(1.09941 0.00213444 -3.46035e-22)
(1.11786 0.00694781 4.39019e-22)
(1.14043 0.0137127 -5.61829e-22)
(1.16908 0.0245877 1.80956e-22)
(1.2017 0.0193532 1.48462e-21)
(1.25102 0.0265094 1.67975e-21)
(1.31102 0.0208993 -9.2628e-22)
(1.39416 0.0190363 -3.30396e-22)
(1.47332 0.0352022 -2.48118e-22)
(0.216856 -0.0227419 -1.34448e-20)
(0.0844961 -0.0302254 4.00067e-21)
(1.24093 0.0831067 5.9358e-22)
(1.26891 0.108505 -1.35093e-21)
(1.21866 0.0981407 1.18917e-21)
(1.18559 0.0871703 8.08867e-22)
(1.15759 0.064468 -2.43881e-22)
(1.13587 0.0536086 -5.76161e-22)
(1.11741 0.0437441 -6.02229e-22)
(1.10225 0.0352321 -6.1485e-23)
(1.09062 0.0283401 6.636e-23)
(1.08226 0.0228356 1.142e-23)
(1.07651 0.0184021 1.19693e-23)
(1.0703 0.0146334 0)
(1.06381 0.0113452 0)
(1.05869 0.00849382 0)
(1.0549 0.00590821 0)
(1.05236 0.00354913 0)
(1.05109 0.00139539 0)
(1.03798 -0.0002534 1.60755e-25)
(1.03865 -0.000699988 0)
(1.04015 -0.00105602 0)
(1.04243 -0.00117224 0)
(1.04558 -0.00102648 0)
(1.04986 -0.000445238 0)
(1.05692 0.000998578 8.24694e-24)
(1.06741 0.00378389 -2.26679e-23)
(1.07902 0.00853093 -9.9646e-23)
(1.09203 0.0157134 2.24059e-23)
(1.10726 0.0262662 4.25977e-22)
(1.12508 0.0404954 -3.94736e-22)
(1.14774 0.0607836 -4.87644e-22)
(1.18084 0.0734238 7.36664e-22)
(1.22269 0.0991286 -1.69974e-21)
(1.28116 0.12224 2.16605e-22)
(1.36176 0.152042 -5.61274e-22)
(1.45072 0.187051 -3.47251e-22)
(0.619004 0.00262419 -3.88597e-22)
(0.23447 -0.364584 -1.52588e-21)
(-0.05543 -0.49291 -1.33961e-22)
(-0.229271 -0.319858 -1.39931e-21)
(-0.0125058 -0.184649 -7.4304e-22)
(1.04829 -0.0219573 1.75438e-21)
(1.24584 0.0591604 -1.63603e-23)
(1.22213 0.0661766 3.78212e-22)
(1.1981 0.0585252 -9.59846e-22)
(1.17243 0.0405224 -1.3393e-21)
(1.1497 0.0321973 9.98983e-22)
(1.12951 0.0252199 5.41017e-23)
(1.11239 0.0195038 -1.23003e-23)
(1.0988 0.014954 -3.29218e-23)
(1.08865 0.0114187 -1.0344e-23)
(1.08151 0.00884581 -4.64677e-24)
(1.07429 0.00696814 0)
(1.06729 0.00549186 0)
(1.0618 0.00418193 0)
(1.05786 0.00295774 0)
(1.05538 0.00177104 0)
(1.05425 0.000545895 0)
(1.0388 4.66755e-05 1.08634e-22)
(1.0393 -0.000173275 0)
(1.0405 -8.70193e-05 0)
(1.04243 4.26092e-05 0)
(1.0451 0.000521962 0)
(1.04858 0.00143982 0)
(1.05377 0.00331844 -1.40149e-24)
(1.06158 0.00718152 -1.46946e-23)
(1.06986 0.0137705 -1.17609e-22)
(1.07846 0.0234282 -6.43401e-23)
(1.0878 0.0371539 7.83712e-22)
(1.09776 0.0556729 3.17114e-22)
(1.1091 0.0831332 -7.18513e-22)
(1.13416 0.109952 2.43196e-22)
(1.16213 0.152225 4.97581e-22)
(1.19946 0.21538 9.4539e-22)
(1.26549 0.285176 1.06394e-21)
(1.36488 0.407528 -1.55122e-20)
(1.07975 0.428618 -2.26701e-22)
(0.536356 0.196697 6.16934e-20)
(0.000626846 0.0648991 5.60036e-22)
(-0.374564 -0.0305213 -1.44812e-20)
(-0.0628873 -0.0394435 3.39157e-21)
(0.877327 0.0343633 -3.46247e-21)
(1.22981 0.0666822 5.63892e-22)
(1.23265 0.048139 -6.37878e-22)
(1.20985 0.0323496 1.35125e-21)
(1.18247 0.0129243 -2.3889e-21)
(1.15841 0.00828697 -8.67791e-22)
(1.13673 0.00434802 -9.59223e-22)
(1.11837 0.00173333 2.20905e-22)
(1.10338 -8.2496e-05 -2.34503e-23)
(1.09224 -0.0013092 2.06307e-23)
(1.08382 -0.00184843 6.99938e-25)
(1.07562 -0.00151519 0)
(1.06834 -0.00104341 0)
(1.06273 -0.000750244 0)
(1.05872 -0.000581991 0)
(1.05608 -0.000474651 0)
(1.05451 -0.000313665 -2.60852e-23)
(1.03879 -0.000150977 3.27667e-23)
(1.03948 -6.10043e-05 0)
(1.04064 -1.10341e-05 0)
(1.04228 0.000138364 0)
(1.04435 0.000594072 0)
(1.04683 0.00141317 0)
(1.04989 0.00318358 0)
(1.05404 0.0072245 -9.19896e-24)
(1.05812 0.0138558 -5.11868e-23)
(1.06144 0.0234882 2.52602e-22)
(1.06368 0.0369894 -1.38822e-22)
(1.06436 0.0552802 5.87145e-22)
(1.06394 0.0808064 4.34961e-22)
(1.06041 0.123914 -9.43833e-22)
(1.07738 0.173455 3.79752e-23)
(1.07947 0.241476 4.1122e-21)
(1.09685 0.347468 1.55578e-21)
(1.08967 0.517925 -9.5537e-22)
(1.05831 0.74918 -5.91516e-21)
(0.716573 0.808196 -8.72588e-21)
(0.151724 0.755101 2.62054e-20)
(-0.178365 0.598005 8.48604e-21)
(0.114054 0.330087 -8.61686e-21)
(0.84494 0.146511 -8.20846e-20)
(1.29964 0.0642458 -1.16393e-21)
(1.26659 0.0178898 3.98612e-21)
(1.22373 -0.0147313 7.80682e-22)
(1.18906 -0.0206808 -1.28865e-21)
(1.16127 -0.0197423 5.74223e-22)
(1.13837 -0.0192172 -1.5905e-22)
(1.11923 -0.0175807 -9.28454e-23)
(1.10388 -0.0161273 3.41715e-23)
(1.09218 -0.0146349 1.96735e-23)
(1.08248 -0.0125765 0)
(1.07384 -0.00985802 0)
(1.06678 -0.00744752 0)
(1.06141 -0.00547376 0)
(1.05751 -0.00373778 0)
(1.0549 -0.00206538 0)
(1.05349 -0.000588636 1.32364e-23)
(1.03901 -0.000106546 -5.93297e-24)
(1.03949 -0.000185237 0)
(1.04046 -0.000273135 0)
(1.04182 -0.000212826 0)
(1.04345 -2.10401e-05 0)
(1.04505 0.000359194 0)
(1.0461 0.00130652 0)
(1.04674 0.00387745 0)
(1.04685 0.00860587 -1.67418e-23)
(1.04606 0.0152955 -1.32741e-23)
(1.04254 0.0246626 9.53276e-23)
(1.03462 0.037547 -1.72507e-22)
(1.02149 0.0555214 -6.42637e-23)
(1.00046 0.0852603 4.54996e-22)
(0.9944 0.138332 1.25348e-22)
(0.960301 0.199055 5.40636e-22)
(0.918868 0.297446 -2.10715e-21)
(0.834882 0.422295 2.05589e-21)
(0.761343 0.598887 1.43918e-21)
(0.555741 0.830184 1.03197e-20)
(0.249758 0.900518 3.04096e-21)
(0.169726 0.722818 3.75197e-21)
(0.498542 0.422842 1.13281e-20)
(1.11767 0.117669 -4.31661e-21)
(1.38157 -0.0377766 -5.21034e-22)
(1.29991 -0.0553424 -5.32248e-22)
(1.22643 -0.0738935 1.65139e-22)
(1.18639 -0.062946 -2.8505e-23)
(1.1561 -0.052584 -2.84108e-22)
(1.1328 -0.0449368 3.20457e-23)
(1.11419 -0.0378148 -5.50587e-23)
(1.09955 -0.0322245 1.46114e-23)
(1.08755 -0.0271266 0)
(1.07728 -0.0219822 0)
(1.06897 -0.0169547 0)
(1.06268 -0.0127437 0)
(1.05796 -0.00921747 1.59767e-22)
(1.05455 -0.00616847 2.20947e-22)
(1.05234 -0.00346583 1.31753e-22)
(1.05117 -0.00107115 0)
(1.03905 -6.2504e-06 0)
(1.0395 -0.000314283 0)
(1.04034 -0.000592115 0)
(1.04159 -0.000817653 0)
(1.04309 -0.00107718 0)
(1.04434 -0.00140801 0)
(1.04429 -0.00175 0)
(1.04308 -0.00151854 0)
(1.04106 -0.000406601 -1.0013e-26)
(1.03783 0.00117495 -5.32361e-24)
(1.03117 0.00341036 1.11919e-23)
(1.01841 0.00599884 2.67286e-23)
(0.995746 0.0115603 -2.35095e-22)
(0.960273 0.0154805 2.0185e-22)
(0.932067 0.0607995 1.74854e-20)
(0.865984 0.103545 -1.08293e-21)
(0.809765 0.172181 7.54956e-22)
(0.642095 0.261391 3.75728e-21)
(0.443646 0.452372 4.72024e-21)
(0.331506 0.618458 4.68548e-23)
(0.358091 0.615621 -2.65293e-21)
(0.559694 0.396322 1.38857e-20)
(0.965559 0.0608766 -1.19118e-20)
(1.37923 -0.168854 -2.35584e-21)
(1.38395 -0.201974 3.72781e-22)
(1.28524 -0.159691 -1.20407e-21)
(1.20202 -0.136572 2.62018e-22)
(1.16441 -0.107389 1.75256e-22)
(1.13803 -0.0854904 -1.10074e-22)
(1.11788 -0.0692049 -1.90271e-23)
(1.10201 -0.0558486 2.63701e-24)
(1.08912 -0.0455465 3.92364e-26)
(1.078 -0.0367001 0)
(1.06852 -0.0289425 0)
(1.06144 -0.0221202 0)
(1.05646 -0.0165399 0)
(1.05276 -0.0119272 0)
(1.05009 -0.00802346 0)
(1.04837 -0.00458951 0)
(1.04751 -0.00145895 -2.37289e-23)
(1.03917 -5.20725e-06 0)
(1.03978 -0.00024386 0)
(1.04074 -0.000571491 0)
(1.04209 -0.00107751 0)
(1.04379 -0.00180225 0)
(1.04529 -0.00288011 0)
(1.04538 -0.00449824 0)
(1.04398 -0.00664059 0)
(1.04213 -0.00938734 0)
(1.0394 -0.01364 0)
(1.03374 -0.019786 -6.06554e-24)
(1.02231 -0.0302117 -4.43086e-23)
(0.999549 -0.0409307 2.45568e-22)
(0.958378 -0.0655377 -2.57481e-22)
(0.90382 -0.0454466 5.55876e-20)
(0.820856 -0.0381074 8.34043e-22)
(0.721906 0.0282622 2.16356e-20)
(0.481341 0.10961 -7.78318e-22)
(0.318208 0.102764 4.16774e-21)
(0.353511 0.00632053 1.77475e-21)
(0.589469 -0.164457 -2.74608e-21)
(0.918373 -0.356221 1.17402e-20)
(1.24468 -0.476907 -4.44483e-21)
(1.38941 -0.448655 -1.0285e-21)
(1.26579 -0.324461 -8.58809e-22)
(1.21091 -0.24264 8.51229e-22)
(1.14547 -0.179372 -1.05211e-22)
(1.1221 -0.139484 1.33347e-22)
(1.10588 -0.108723 -5.81133e-23)
(1.0932 -0.0855257 4.55833e-24)
(1.08273 -0.0672118 0)
(1.0735 -0.0532601 0)
(1.06491 -0.041934 0)
(1.05737 -0.0326702 0)
(1.05214 -0.0249102 0)
(1.0488 -0.0186019 0)
(1.04637 -0.0133856 0)
(1.0446 -0.00900228 0)
(1.04349 -0.00515342 0)
(1.04301 -0.00165065 0)
(1.03926 3.8822e-05 0)
(1.04009 9.13835e-06 0)
(1.04132 -0.00018523 0)
(1.04305 -0.000692422 0)
(1.04529 -0.00158556 0)
(1.04761 -0.00307101 0)
(1.04888 -0.00552772 0)
(1.04898 -0.00941379 0)
(1.0496 -0.0151413 0)
(1.05077 -0.0239189 0)
(1.05096 -0.0367645 0)
(1.04843 -0.0577577 1.68661e-24)
(1.03753 -0.0840547 2.66017e-23)
(1.00662 -0.131758 -5.86146e-23)
(0.933924 -0.156435 1.8595e-20)
(0.784687 -0.184955 -8.24784e-21)
(0.616735 -0.131007 1.5632e-20)
(0.559405 -0.190467 3.43688e-22)
(0.543599 -0.369666 -5.4582e-22)
(0.625903 -0.586075 3.80374e-21)
(0.810261 -0.740041 -4.01277e-21)
(1.00916 -0.784956 2.77112e-21)
(1.14446 -0.698389 -2.73764e-21)
(1.16278 -0.520583 -1.46728e-21)
(1.11765 -0.354526 2.18863e-21)
(1.11088 -0.270754 4.00324e-22)
(1.07385 -0.196172 -2.2966e-21)
(1.06864 -0.150263 3.41387e-23)
(1.06479 -0.116633 -1.03431e-24)
(1.06195 -0.0903897 0)
(1.05865 -0.0700627 0)
(1.05474 -0.0545321 0)
(1.04994 -0.0422993 0)
(1.04515 -0.0326581 0)
(1.04211 -0.0249101 0)
(1.04055 -0.0186694 0)
(1.03949 -0.0134728 0)
(1.03873 -0.00907471 0)
(1.03833 -0.00521806 0)
(1.03825 -0.00166932 0)
(1.03911 0.000113993 0)
(1.04008 0.000409635 0)
(1.04164 0.000573522 0)
(1.04387 0.000456783 0)
(1.04687 -9.16437e-05 0)
(1.05044 -0.001292 0)
(1.05371 -0.00364293 0)
(1.05665 -0.00794965 0)
(1.06132 -0.0147326 0)
(1.06851 -0.0250413 0)
(1.07793 -0.0401169 1.47697e-23)
(1.08924 -0.0641737 0)
(1.10063 -0.0986873 0)
(1.0937 -0.148205 5.73594e-21)
(1.02917 -0.247858 -1.85994e-21)
(0.821267 -0.305224 3.08306e-20)
(0.718511 -0.413618 -5.70823e-23)
(0.759254 -0.529544 1.11642e-21)
(0.78059 -0.611843 -2.44056e-21)
(0.807871 -0.652839 1.0689e-20)
(0.863966 -0.64342 -6.54603e-21)
(0.91757 -0.582936 2.65339e-21)
(0.945035 -0.494224 9.25111e-22)
(0.961619 -0.41144 1.40397e-21)
(0.995187 -0.342117 4.89063e-23)
(0.987668 -0.244504 -7.21376e-22)
(1.00214 -0.185628 1.35882e-21)
(1.01344 -0.141403 0)
(1.02239 -0.109261 0)
(1.02911 -0.0836542 2.09846e-23)
(1.03326 -0.0640771 0)
(1.03509 -0.0489839 0)
(1.03468 -0.0372767 0)
(1.03329 -0.0283821 0)
(1.03271 -0.0216726 0)
(1.03288 -0.0163946 0)
(1.03303 -0.0119894 0)
(1.03311 -0.00821172 -2.62948e-23)
(1.03325 -0.00482143 -1.88642e-23)
(1.03348 -0.00163334 0)
(1.03855 0.000347623 0)
(1.03948 0.00109819 0)
(1.04123 0.00182489 0)
(1.0439 0.00239 0)
(1.04762 0.00268259 0)
(1.05243 0.00253788 0)
(1.05791 0.00154078 0)
(1.06412 -0.00124984 0)
(1.07303 -0.00633222 0)
(1.08601 -0.0142299 0)
(1.10436 -0.0258417 5.9442e-22)
(1.12903 -0.0432087 0)
(1.16364 -0.0714131 0)
(1.19539 -0.107624 2.68512e-22)
(1.18204 -0.18867 -2.93229e-20)
(1.05223 -0.334362 -3.80583e-22)
(0.957792 -0.49594 0)
(0.878246 -0.602974 2.99836e-22)
(0.806895 -0.662011 9.133e-21)
(0.754138 -0.666748 -1.34366e-20)
(0.744005 -0.628826 -6.37197e-21)
(0.761448 -0.536739 8.66829e-21)
(0.804357 -0.436224 -4.89646e-22)
(0.855941 -0.342921 0)
(0.886069 -0.262316 1.5123e-21)
(0.910407 -0.197032 2.67826e-21)
(0.938732 -0.15025 -2.70069e-22)
(0.965001 -0.113375 0)
(0.985074 -0.0862387 0)
(0.999911 -0.0648456 -7.41797e-23)
(1.01054 -0.0487074 0)
(1.0175 -0.0363348 0)
(1.02138 -0.0269004 0)
(1.02356 -0.0201329 0)
(1.02545 -0.0154344 0)
(1.02705 -0.0118248 4.75709e-23)
(1.0281 -0.00878484 -6.18176e-23)
(1.02868 -0.00613347 0)
(1.02903 -0.00366334 0)
(1.02928 -0.00127324 -1.45269e-22)
(1.03714 0.000661731 0)
(1.03802 0.00198021 0)
(1.03983 0.00336193 0)
(1.04267 0.00478568 0)
(1.0467 0.00627294 0)
(1.05214 0.00776598 0)
(1.05907 0.00910873 -2.3391e-23)
(1.06771 0.00956841 0)
(1.07948 0.00874354 0)
(1.09586 0.00685023 0)
(1.11902 0.00353306 0)
(1.15109 0.000184152 0)
(1.19736 -0.00771239 0)
(1.25861 -0.0135972 -4.99689e-22)
(1.30508 -0.0407562 1.51397e-23)
(1.24359 -0.112078 -4.16982e-23)
(1.13236 -0.23424 0)
(1.01156 -0.337003 0)
(0.887867 -0.429076 -1.29215e-20)
(0.775966 -0.443776 -1.12245e-19)
(0.688158 -0.449926 -9.0266e-21)
(0.646585 -0.406476 2.30333e-21)
(0.661194 -0.343277 0)
(0.713526 -0.267373 0)
(0.770622 -0.186151 0)
(0.833995 -0.12761 5.61435e-24)
(0.891565 -0.0914672 1.07242e-22)
(0.926526 -0.0654548 -1.40091e-23)
(0.956525 -0.0473979 0)
(0.978489 -0.0342813 0)
(0.99429 -0.0247866 0)
(1.00515 -0.0176992 0)
(1.01245 -0.0125431 2.08756e-22)
(1.01754 -0.00926269 8.55482e-23)
(1.02124 -0.0072952 4.30982e-24)
(1.02371 -0.00578728 0)
(1.02522 -0.00441674 0)
(1.02606 -0.00311515 0)
(1.02647 -0.00186237 0)
(1.02665 -0.000546712 0)
(1.03489 0.000809631 0)
(1.03573 0.00273254 0)
(1.03737 0.00476897 0)
(1.03993 0.00713352 0)
(1.04361 0.00991904 0)
(1.04872 0.0132131 0)
(1.05569 0.0171203 0)
(1.06496 0.0213608 0)
(1.07728 0.0257738 -1.22229e-23)
(1.09358 0.0312785 0)
(1.11559 0.0381592 0)
(1.14593 0.0499515 0)
(1.18757 0.0656885 -1.43369e-22)
(1.24966 0.0931778 8.0652e-22)
(1.32309 0.127208 0)
(1.32139 0.146014 0)
(1.25148 0.114135 0)
(1.13172 0.0852133 0)
(0.983251 0.0202705 5.35959e-20)
(0.834307 0.0170541 1.14648e-19)
(0.701217 -0.021728 1.24661e-20)
(0.626933 -0.0369448 -4.36452e-21)
(0.617799 -0.0525819 0)
(0.647037 -0.0565234 0)
(0.699545 -0.0468143 0)
(0.77843 -0.0253759 0)
(0.853144 -0.00289425 -1.03848e-20)
(0.905114 0.00392554 -2.26545e-21)
(0.942994 0.00629949 0)
(0.969787 0.00548928 -5.98258e-24)
(0.98831 0.00466036 -7.44687e-24)
(1.001 0.00402368 -1.45432e-24)
(1.00992 0.00333276 0)
(1.01633 0.0023328 0)
(1.02061 0.00123817 0)
(1.02308 0.000446836 0)
(1.02445 1.85726e-05 0)
(1.02522 -0.000111723 0)
(1.02564 -0.000121719 0)
(1.02596 3.43197e-05 0)
(1.03223 0.000982201 0)
(1.03271 0.00330784 0)
(1.03382 0.00590417 0)
(1.0357 0.00904166 0)
(1.03846 0.0128272 0)
(1.04241 0.0175016 0)
(1.04815 0.0233163 0)
(1.05618 0.0303748 0)
(1.06658 0.0389587 0)
(1.07941 0.0502916 0)
(1.0953 0.0653222 7.24302e-23)
(1.11614 0.0872309 9.5141e-24)
(1.14187 0.11842 3.99277e-22)
(1.17743 0.164787 -9.15399e-22)
(1.23093 0.232535 0)
(1.25698 0.315744 0)
(1.22835 0.368949 0)
(1.14524 0.415219 0)
(1.02024 0.408135 6.44888e-20)
(0.885496 0.417029 -1.08931e-19)
(0.76142 0.375801 -2.91301e-21)
(0.697052 0.331527 1.25826e-20)
(0.688989 0.266315 0)
(0.705343 0.206611 0)
(0.728986 0.148304 0)
(0.7801 0.112664 0)
(0.846281 0.102656 -4.81366e-21)