/*--------------------------------*- C++ -*----------------------------------*\
| =========                 |                                                 |
| \\      /  F ield         | OpenFOAM: The Open Source CFD Toolbox           |
|  \\    /   O peration     | Version:  v2106                                 |
|   \\  /    A nd           | Website:  www.openfoam.com                      |
|    \\/     M anipulation  |                                                 |
\*---------------------------------------------------------------------------*/
FoamFile
{
    version     2.0;
    format      ascii;
    arch        "LSB;label=32;scalar=64";
    class       volScalarField;
    location    "0";
    object      p;
}
// * * * * * * * * * * * * * * * * * * * * * * * * * * * * * * * * * * * * * //

dimensions      [0 2 -2 0 0 0 0];

internalField   nonuniform List<scalar> 
11644
(
-0.0839724
-0.0838494
-0.0834954
-0.0828767
-0.0820543
-0.0810233
-0.0797517
-0.0781875
-0.0762689
-0.0739506
-0.0710783
-0.067597
-0.0635136
-0.0585579
-0.0529265
-0.0464162
-0.0389671
-0.0310816
-0.0233959
-0.0156664
-0.00799513
-0.000839099
0.00580599
0.0123384
0.0184099
0.0239437
0.0294062
0.0348711
0.0401331
0.0453117
0.0502082
0.0547216
0.05885
0.0624979
0.0656363
0.068249
0.070323
0.0718774
0.0729017
0.0733925
-0.0838285
-0.0836852
-0.0834007
-0.0829423
-0.0822747
-0.0813825
-0.080262
-0.0788723
-0.0771632
-0.07504
-0.0724449
-0.0693225
-0.0654097
-0.0607972
-0.0550357
-0.0483344
-0.0405645
-0.0320542
-0.0237473
-0.0161817
-0.00922513
-0.00239645
0.00477467
0.0119976
0.0188045
0.0249607
0.0308287
0.0364644
0.0418927
0.0470057
0.0518324
0.0562782
0.0602822
0.0638249
0.0668756
0.0694208
0.0714754
0.0730157
0.0740265
0.0745105
-0.0846759
-0.084401
-0.0839941
-0.0834888
-0.0828353
-0.0820122
-0.0809975
-0.0797747
-0.0782712
-0.0764273
-0.0741516
-0.0711163
-0.067244
-0.0623092
-0.0564899
-0.0493795
-0.0411788
-0.0322939
-0.0240024
-0.0166018
-0.0102153
-0.00344825
0.00393662
0.0115706
0.0188374
0.0258779
0.0326197
0.0389354
0.0448276
0.0501773
0.0549026
0.0591738
0.0629608
0.0662679
0.0691265
0.0715134
0.0734242
0.074842
0.0757648
0.0762111
-0.0863088
-0.0860214
-0.0855103
-0.084837
-0.0840273
-0.0830833
-0.0820029
-0.0807807
-0.0794013
-0.0777406
-0.0754964
-0.0726475
-0.0690672
-0.0649337
-0.0589899
-0.0516349
-0.0437026
-0.034653
-0.0261973
-0.0182142
-0.0107325
-0.00350414
0.00405564
0.0122283
0.0198675
0.0278795
0.0355826
0.0424653
0.0486779
0.0543046
0.0591558
0.0632027
0.0667139
0.0697772
0.0723844
0.0745458
0.076244
0.0775023
0.0783363
0.078732
-0.0887873
-0.0884615
-0.0878861
-0.0870794
-0.0860417
-0.0848407
-0.0835164
-0.0820814
-0.0805334
-0.0787964
-0.077015
-0.0750944
-0.0724766
-0.0679387
-0.061605
-0.0541473
-0.0469315
-0.0375033
-0.0295402
-0.0215524
-0.0127193
-0.00446853
0.0046227
0.0152432
0.0224176
0.0316939
0.0409973
0.0484635
0.0546246
0.0596514
0.0641117
0.068079
0.0714183
0.0742278
0.0765654
0.0784667
0.0799546
0.0810464
0.0818065
0.0822165
-0.0920412
-0.0917676
-0.0911723
-0.0902192
-0.0889783
-0.0874885
-0.0857983
-0.0839644
-0.0820709
-0.0804093
-0.0790595
-0.0772135
-0.0739418
-0.0711634
-0.0657057
-0.056019
-0.0491711
-0.0446819
-0.0377981
-0.0280136
-0.0161578
-0.00574571
0.00430017
0.0140354
0.0236937
0.0366908
0.0469118
0.0552923
0.0617694
0.0666359
0.0702912
0.0736928
0.0767974
0.0793633
0.0814363
0.0830876
0.0843904
0.0853857
0.0860294
0.0863466
-0.0961311
-0.0958776
-0.0952712
-0.0943387
-0.0930348
-0.0913448
-0.0893173
-0.0870606
-0.0848726
-0.0828178
-0.0802563
-0.0769878
-0.0742826
-0.0699505
-0.0652005
-0.0634906
-0.0565496
-0.0546287
-0.0480714
-0.0358928
-0.0198626
-0.00451854
0.00907104
0.016782
0.0334608
0.0441741
0.0544559
0.0615416
0.067936
0.0735653
0.0775578
0.080388
0.0828264
0.0850277
0.086818
0.0882343
0.0893056
0.0900533
0.0905629
0.0907602
-0.101293
-0.100946
-0.100384
-0.0995076
-0.0982558
-0.0966264
-0.0945496
-0.0920595
-0.0893646
-0.0857556
-0.0809729
-0.0760198
-0.0701078
-0.0714428
-0.0672337
-0.0748623
-0.0819831
-0.0721263
-0.062316
-0.0435894
-0.0188418
0.00401483
0.0253524
0.0383671
0.0546317
0.0500532
0.0537332
0.0664101
0.0720335
0.0787879
0.083948
0.0873414
0.0893581
0.0910493
0.0924285
0.093486
0.094288
0.0948783
0.0952436
0.0955339
-0.106891
-0.106841
-0.106469
-0.105796
-0.104834
-0.103474
-0.10152
-0.0990145
-0.0957171
-0.0904446
-0.0838446
-0.0779168
-0.0735983
-0.0753157
-0.0817115
-0.0838687
-0.0898045
-0.107729
-0.0945976
-0.0710856
-0.0273252
0.018491
0.0449694
0.0685176
0.0603847
0.065971
0.0650144
0.0716607
0.077275
0.0834126
0.0890946
0.0933777
0.0956379
0.0970511
0.0981513
0.0988851
0.0993695
0.0997001
0.0998488
0.0997669
-0.11313
-0.11296
-0.112854
-0.112676
-0.112283
-0.11152
-0.110149
-0.108139
-0.105051
-0.100259
-0.0941461
-0.0883167
-0.0847387
-0.0819533
-0.0839098
-0.0989996
-0.119717
-0.154763
-0.177334
-0.140121
-0.0337931
0.0764864
0.121788
0.114859
0.093953
0.0806645
0.0718762
0.0802152
0.0838336
0.0896958
0.0953177
0.0993671
0.101702
0.102869
0.103614
0.103949
0.104056
0.103994
0.103999
0.104072
-0.118683
-0.11902
-0.119408
-0.119759
-0.120027
-0.120198
-0.120232
-0.120009
-0.118672
-0.11658
-0.113325
-0.107527
-0.0974175
-0.0895476
-0.0880517
-0.107557
-0.156059
-0.258632
-0.39848
-0.419158
-0.0410099
0.350604
0.353621
0.224188
0.126902
0.0841417
0.0807239
0.0871188
0.0949743
0.102212
0.105581
0.107587
0.108897
0.108946
0.108832
0.108644
0.10835
0.108048
0.10768
0.107485
-0.123002
-0.123548
-0.124462
-0.125783
-0.127316
-0.129
-0.131251
-0.134173
-0.136327
-0.138077
-0.138872
-0.137142
-0.124073
-0.109452
-0.0945548
-0.0811135
-0.117783
-0.307966
-0.982466
0.994531
0.306613
0.110141
0.0745328
0.0914184
0.106627
0.118537
0.121721
0.121325
0.120146
0.118525
0.116117
0.114318
0.113051
0.111764
0.110666
0.109912
0.109422
-0.125652
-0.126029
-0.127431
-0.129693
-0.132935
-0.136764
-0.141797
-0.148553
-0.155786
-0.163647
-0.171153
-0.180229
-0.180124
-0.150258
-0.122583
-0.0514842
0.0400782
0.0961082
-0.028429
0.116001
-0.0478834
-0.0103553
0.0900566
0.132181
0.163988
0.161913
0.152637
0.145127
0.137713
0.13082
0.124639
0.120048
0.116664
0.113791
0.111786
0.11067
0.110281
-0.123793
-0.12549
-0.127632
-0.13097
-0.135776
-0.141905
-0.149696
-0.160053
-0.173097
-0.189953
-0.20987
-0.237077
-0.268533
-0.252417
-0.259309
-0.162903
0.0926025
0.74722
1.2352
-1.16961
-0.60387
0.0183894
0.25374
0.265756
0.264864
0.228344
0.197319
0.17575
0.158183
0.144481
0.133798
0.125821
0.119781
0.115069
0.111884
0.109814
0.108424
-0.12048
-0.121139
-0.12376
-0.128181
-0.134283
-0.142227
-0.15199
-0.165145
-0.183634
-0.21085
-0.247721
-0.30158
-0.380304
-0.422103
-0.571783
-0.634871
-0.603555
-0.0440741
1.46158
0.824215
0.121312
-0.803289
-1.27943
0.202394
0.723866
0.6844
0.511493
0.39351
0.30871
0.24771
0.206426
0.176155
0.155195
0.140542
0.129739
0.121339
0.114967
0.110413
0.107637
0.106958
-0.114625
-0.11539
-0.117921
-0.122053
-0.12798
-0.13601
-0.145879
-0.160322
-0.182356
-0.216702
-0.269732
-0.353743
-0.485369
-0.605954
-0.943053
-1.51233
-2.20613
-3.53573
-3.44775
-1.76494
0.31134
2.28529
3.74198
3.25715
1.99664
1.227
0.789684
0.511147
0.372637
0.281328
0.22225
0.183026
0.157153
0.140526
0.128949
0.119613
0.112779
0.108
0.105098
0.104162
-0.103993
-0.106555
-0.109007
-0.112149
-0.116452
-0.122569
-0.130759
-0.14314
-0.164359
-0.198842
-0.255573
-0.348459
-0.502394
-0.718399
-1.08718
-1.78401
-2.90847
-4.79319
-5.29401
-3.04299
0.264132
3.60134
5.46306
4.44764
2.40387
1.44892
0.756739
0.533184
0.373209
0.272971
0.210383
0.171062
0.145954
0.130983
0.1205
0.112637
0.106945
0.102792
0.09973
0.0968695
-0.0915794
-0.093195
-0.0945456
-0.0961972
-0.0981675
-0.101299
-0.106139
-0.112979
-0.125504
-0.147597
-0.184376
-0.2449
-0.350706
-0.498686
-0.815334
-1.24975
-2.02468
-2.83666
-2.66294
-1.37955
0.19168
1.81034
2.95882
2.82634
1.63631
1.05704
0.53702
0.378521
0.267593
0.202188
0.160847
0.135115
0.119278
0.109842
0.102778
0.0978826
0.094426
0.0917274
0.0896574
0.087608
-0.0783123
-0.077636
-0.0771258
-0.0767543
-0.0759631
-0.0749017
-0.0736899
-0.0712888
-0.0682337
-0.0651774
-0.0628868
-0.0613547
-0.0664145
-0.0941625
-0.22973
-0.231779
-0.392571
-0.191747
0.203987
0.353959
0.100153
-0.138933
0.0136066
0.31476
0.241107
0.249975
0.116527
0.0840658
0.0782966
0.0777053
0.0770501
0.0776714
0.0784147
0.0789144
0.0782433
0.0778473
0.0774087
0.0768801
0.0767209
0.0770241
-0.0652427
-0.063742
-0.0618588
-0.0592843
-0.0553076
-0.0492366
-0.0402625
-0.0267563
-0.006244
0.0235281
0.0668683
0.128007
0.228014
0.32816
0.360255
0.654006
0.958567
1.52705
1.74089
1.09831
-0.148836
-1.34087
-1.8023
-1.45751
-0.901654
-0.501077
-0.322201
-0.216643
-0.116258
-0.0550985
-0.0133726
0.0152179
0.034219
0.0461998
0.0536261
0.058516
0.0614658
0.0632501
0.0646101
0.06592
-0.0553853
-0.0540677
-0.0515468
-0.0473565
-0.040741
-0.030647
-0.0157779
0.0059059
0.0381603
0.0857614
0.155373
0.254214
0.412543
0.595764
0.724547
1.13248
1.56861
2.07577
2.05541
1.13006
-0.302399
-1.63671
-2.28113
-2.06483
-1.42015
-0.922897
-0.590941
-0.401592
-0.243825
-0.145539
-0.0771126
-0.0302603
0.00103741
0.0215763
0.0353778
0.0445735
0.0503413
0.0538878
0.0560085
0.0571986
-0.0496861
-0.0485133
-0.0457862
-0.0410305
-0.0335689
-0.0223509
-0.00603493
0.0175194
0.0516055
0.101899
0.174164
0.277175
0.434757
0.653059
0.844419
1.0687
1.43253
1.6202
1.38995
0.665918
-0.327242
-1.19057
-1.61057
-1.55797
-1.24836
-0.832446
-0.644977
-0.428073
-0.269775
-0.167885
-0.0960388
-0.0461815
-0.0124324
0.0106253
0.0264811
0.0372374
0.0442099
0.0485474
0.0509487
0.0519026
-0.0463701
-0.0452957
-0.0428594
-0.038662
-0.0323276
-0.0230434
-0.00971364
0.00917786
0.0360818
0.0755071
0.131724
0.211139
0.326763
0.505884
0.596464
0.571812
0.501256
0.37128
0.275706
0.164381
0.0135821
-0.118244
-0.247587
-0.400915
-0.507662
-0.560778
-0.487297
-0.317132
-0.205227
-0.127807
-0.0723175
-0.0331968
-0.0062534
0.0126627
0.0259397
0.0350738
0.0412158
0.0452528
0.0475454
0.0484257
-0.0438205
-0.0429457
-0.0412939
-0.0386306
-0.0348413
-0.0295048
-0.0221549
-0.0121379
0.00143266
0.0203599
0.0466542
0.0793085
0.113923
0.158509
0.0940386
-0.104438
-0.295186
-0.456093
-0.425036
-0.139348
0.294049
0.55053
0.552309
0.356919
0.136807
-0.0791228
-0.152732
-0.113952
-0.0798527
-0.0475127
-0.0206321
-0.00129387
0.0128767
0.0230712
0.0306635
0.0360685
0.0398756
0.0425297
0.0440733
0.0448387
-0.0415519
-0.0410549
-0.0404201
-0.0396632
-0.0388994
-0.0382394
-0.038081
-0.0387261
-0.0408881
-0.0463964
-0.0571774
-0.0797471
-0.133413
-0.226523
-0.408864
-0.645309
-0.885965
-1.03003
-0.910346
-0.399887
0.371096
0.862816
0.996467
0.853409
0.626975
0.388843
0.208586
0.120034
0.0704243
0.0506768
0.0421341
0.0378039
0.0366937
0.0365538
0.0372757
0.038253
0.0392841
0.0402452
0.0409077
0.0414068
-0.0394777
-0.039309
-0.0395594
-0.0404588
-0.0423382
-0.0457666
-0.0517913
-0.0615418
-0.0774137
-0.102809
-0.14419
-0.204025
-0.309725
-0.451748
-0.680913
-0.930711
-1.161
-1.24408
-1.06248
-0.503328
0.349699
0.926942
1.1482
1.08536
0.8707
0.638773
0.42605
0.292418
0.193616
0.135392
0.0963613
0.0723296
0.0574993
0.0484592
0.0431192
0.0401717
0.0386689
0.0381221
0.0380542
0.0383215
-0.0370189
-0.036841
-0.0376351
-0.0395116
-0.0430046
-0.04897
-0.058495
-0.0729217
-0.0953943
-0.128307
-0.179538
-0.252473
-0.355361
-0.479359
-0.662097
-0.869099
-1.07062
-1.1041
-0.941878
-0.468805
0.273216
0.76719
0.980052
0.993016
0.816975
0.639398
0.465712
0.344507
0.244493
0.171708
0.121596
0.0895984
0.0677282
0.0537981
0.0448065
0.0393618
0.0362504
0.0346567
0.0340769
0.0344046
-0.0329605
-0.0328506
-0.0337848
-0.0358708
-0.0396333
-0.0457342
-0.0550887
-0.0688893
-0.0892817
-0.118155
-0.160342
-0.220568
-0.289962
-0.358911
-0.466414
-0.57847
-0.685546
-0.69099
-0.573468
-0.296317
0.189314
0.474896
0.626078
0.643082
0.556164
0.453948
0.354217
0.284699
0.213822
0.15242
0.110419
0.0816681
0.0618577
0.0484843
0.0396956
0.0341369
0.0308445
0.0291199
0.0284991
0.0287495
-0.0270706
-0.0271263
-0.027812
-0.029278
-0.0318081
-0.0358267
-0.0418236
-0.0503484
-0.062467
-0.0787171
-0.100794
-0.129819
-0.149827
-0.149588
-0.154887
-0.161632
-0.176285
-0.161953
-0.129935
-0.0667937
0.106769
0.159389
0.191067
0.198449
0.18023
0.158993
0.14742
0.143494
0.121349
0.0909827
0.0691537
0.0530059
0.041596
0.0335948
0.0282956
0.024844
0.0228262
0.021778
0.0213696
0.0213841
-0.0197425
-0.0200563
-0.0201442
-0.0203608
-0.0207599
-0.021438
-0.022375
-0.0234905
-0.0243006
-0.024185
-0.0215742
-0.0104241
0.023936
0.0935042
0.178392
0.254949
0.299483
0.2968
0.233207
0.11039
-0.0111995
-0.154059
-0.238264
-0.268868
-0.237598
-0.177146
-0.099163
-0.0325005
0.000354644
0.0109031
0.0135335
0.0139043
0.0138137
0.0133402
0.0131398
0.0129928
0.0129856
0.0130568
0.0131042
0.0128947
-0.0117617
-0.0120348
-0.0117124
-0.0108424
-0.00919426
-0.00650883
-0.00231433
0.004423
0.0150381
0.0320773
0.0596495
0.106964
0.187708
0.305529
0.444905
0.570935
0.640717
0.609187
0.455309
0.190574
-0.154807
-0.431824
-0.591497
-0.645329
-0.577735
-0.454216
-0.313989
-0.199985
-0.119349
-0.0711839
-0.0436089
-0.0261124
-0.0147347
-0.00739153
-0.0025419
0.000651473
0.00272023
0.00394489
0.00455948
0.00435334
-0.00516545
-0.00534328
-0.00446223
-0.00256109
0.000856052
0.00632306
0.0145353
0.0274289
0.0468133
0.0770643
0.12336
0.194085
0.299027
0.438063
0.594899
0.733614
0.809549
0.749797
0.542504
0.22412
-0.248136
-0.568936
-0.759223
-0.823501
-0.742991
-0.609237
-0.453624
-0.314818
-0.207615
-0.135636
-0.088553
-0.0580939
-0.0377705
-0.0245705
-0.0156113
-0.00976964
-0.00593147
-0.00370481
-0.0025643
-0.00257452
-0.00145027
-0.00143175
-0.000161757
0.00244025
0.00704873
0.0142321
0.0250162
0.0413274
0.0652891
0.101914
0.155036
0.230545
0.333718
0.461896
0.599331
0.71882
0.776275
0.702029
0.508995
0.198087
-0.23331
-0.541403
-0.726598
-0.800318
-0.738077
-0.613886
-0.4689
-0.33982
-0.23831
-0.163863
-0.110739
-0.0751101
-0.0508426
-0.034503
-0.0232882
-0.0158974
-0.0110537
-0.00828082
-0.00684609
-0.00671148
-0.000488815
-0.000337215
0.00098985
0.00365882
0.00831253
0.0155392
0.026141
0.0417536
0.0643729
0.0969307
0.144234
0.204556
0.27883
0.370437
0.46489
0.548082
0.589338
0.529312
0.373556
0.152171
-0.173098
-0.400194
-0.544128
-0.59995
-0.553383
-0.465643
-0.368006
-0.278661
-0.207041
-0.149791
-0.104485
-0.073146
-0.0507947
-0.0353034
-0.0245341
-0.0172396
-0.0123862
-0.00959838
-0.00812081
-0.00794584
-0.00223327
-0.00191098
-0.000732463
0.00141549
0.00497099
0.010333
0.0179385
0.0287557
0.0435757
0.0636962
0.0919848
0.121814
0.15371
0.193984
0.237083
0.276625
0.304596
0.275246
0.198816
0.106992
-0.0722519
-0.171849
-0.246803
-0.278973
-0.252971
-0.220459
-0.182973
-0.150435
-0.12338
-0.0970714
-0.0708541
-0.0518622
-0.0374307
-0.0268702
-0.0192042
-0.0138638
-0.010197
-0.00795209
-0.00671388
-0.0063816
-0.00605149
-0.00561195
-0.00484555
-0.00367802
-0.00202687
0.000230845
0.00302441
0.00649974
0.0102579
0.01352
0.0147871
0.0070064
-0.0117235
-0.0297092
-0.0446384
-0.0480649
-0.0355639
-0.0239416
-0.00932975
0.0323653
0.0361816
0.0609964
0.0680528
0.0677677
0.0740146
0.0595409
0.0386323
0.0124373
-0.00936447
-0.0194563
-0.0197069
-0.0175347
-0.0143424
-0.0112459
-0.00856815
-0.00647561
-0.00490303
-0.00383289
-0.00316761
-0.00267913
-0.0105783
-0.0101962
-0.0101097
-0.0102036
-0.0107404
-0.0118701
-0.0142387
-0.0185814
-0.0266635
-0.0407883
-0.0660542
-0.10859
-0.171398
-0.245339
-0.315689
-0.357997
-0.357862
-0.310754
-0.222646
-0.0766978
0.0945817
0.236084
0.321808
0.359207
0.354852
0.309253
0.242306
0.167909
0.105493
0.0618084
0.0353499
0.0201295
0.0113607
0.00662716
0.00399287
0.00259648
0.00195621
0.00184734
0.00194591
0.0023531
-0.0148916
-0.014609
-0.0150747
-0.0162346
-0.0186533
-0.0225591
-0.0292768
-0.0399847
-0.0576685
-0.0851747
-0.130753
-0.198011
-0.288195
-0.390646
-0.491889
-0.56021
-0.577018
-0.51283
-0.383751
-0.172552
0.124967
0.338527
0.479146
0.548469
0.541895
0.478165
0.383859
0.281201
0.191719
0.124832
0.0790161
0.0511613
0.0331156
0.0219866
0.0150874
0.0108862
0.00838521
0.00716835
0.00669113
0.00695898
-0.0175759
-0.0173502
-0.0181534
-0.0199372
-0.0234176
-0.0291081
-0.038429
-0.0527596
-0.0752914
-0.108966
-0.161638
-0.236291
-0.334643
-0.44516
-0.550631
-0.624362
-0.640327
-0.569312
-0.43064
-0.217336
0.138784
0.36029
0.516561
0.599274
0.598419
0.531911
0.432885
0.326124
0.230706
0.156555
0.103484
0.069448
0.0463055
0.0314387
0.0217998
0.0157617
0.012067
0.010153
0.00927175
0.00947441
-0.0175552
-0.0173634
-0.0181868
-0.0201297
-0.0237844
-0.0297662
-0.0392219
-0.0532914
-0.0751284
-0.106999
-0.154483
-0.218126
-0.299397
-0.392281
-0.483426
-0.546404
-0.565162
-0.501661
-0.380257
-0.18719
0.102336
0.302601
0.445353
0.521164
0.517813
0.46525
0.381575
0.293883
0.213753
0.150764
0.102655
0.0695795
0.0469653
0.0321389
0.0223103
0.0161325
0.0122569
0.0102472
0.00935357
0.00949955
-0.0150766
-0.0149167
-0.0155827
-0.0171327
-0.0200492
-0.0247137
-0.0318977
-0.0423022
-0.0579572
-0.0796774
-0.110704
-0.14905
-0.197126
-0.251834
-0.307058
-0.349017
-0.363601
-0.322147
-0.243049
-0.123142
0.0754193
0.201157
0.293391
0.34425
0.339228
0.301703
0.2496
0.194012
0.14525
0.106148
0.074168
0.0513173
0.0353229
0.0245099
0.0170874
0.0122837
0.00931453
0.00775273
0.00706498
0.00715323
-0.0108597
-0.0108426
-0.0111284
-0.0118108
-0.0131099
-0.0151101
-0.0180828
-0.0220678
-0.0274696
-0.0338182
-0.0404853
-0.0452697
-0.0514144
-0.0585116
-0.0712341
-0.0849524
-0.0953175
-0.0806418
-0.0587638
-0.0309169
0.0443019
0.0650861
0.0860305
0.100824
0.0930933
0.0760238
0.0615057
0.0491504
0.0406134
0.0345096
0.0271511
0.0202672
0.0145862
0.0103874
0.00730934
0.00521107
0.00387457
0.00312297
0.00275793
0.0027618
-0.00541886
-0.00555239
-0.00533602
-0.00491434
-0.00419064
-0.00298505
-0.00100583
0.00254787
0.00873623
0.0196925
0.0390161
0.0678248
0.102213
0.139718
0.166957
0.17852
0.171641
0.154747
0.116683
0.0510167
-0.0193479
-0.0925268
-0.137158
-0.163184
-0.17484
-0.170549
-0.145735
-0.110848
-0.07562
-0.0460524
-0.0269774
-0.0164056
-0.010379
-0.00697984
-0.00500201
-0.00381471
-0.00312537
-0.00274207
-0.00254048
-0.00256795
0.000292221
0.000207116
0.000839085
0.00216067
0.00458577
0.00859209
0.0150317
0.0251986
0.0412072
0.0664342
0.10711
0.16217
0.228098
0.300598
0.359152
0.389942
0.383309
0.338075
0.245976
0.102672
-0.0892303
-0.239718
-0.332296
-0.385668
-0.394857
-0.368093
-0.309838
-0.238076
-0.170731
-0.115602
-0.0750018
-0.0494441
-0.0333835
-0.0231306
-0.0165857
-0.0124557
-0.00991992
-0.0085373
-0.00779864
-0.00787578
0.00446291
0.00440483
0.00535628
0.00737381
0.0109869
0.0168497
0.0261114
0.0401912
0.0626288
0.0968001
0.148109
0.216782
0.298773
0.387443
0.463512
0.502956
0.49768
0.434845
0.313832
0.133983
-0.132576
-0.315712
-0.432506
-0.501107
-0.505477
-0.467938
-0.393146
-0.307393
-0.225889
-0.157184
-0.105252
-0.0711705
-0.0485035
-0.0339723
-0.0245456
-0.0186374
-0.0149721
-0.012986
-0.0120028
-0.0120234
0.00606441
0.00594725
0.00693137
0.0090859
0.0130405
0.0194753
0.0294358
0.0445596
0.067948
0.102932
0.154506
0.221734
0.299616
0.385059
0.457073
0.497964
0.497352
0.432004
0.309018
0.132938
-0.127662
-0.308905
-0.430472
-0.499792
-0.500758
-0.463076
-0.39135
-0.306791
-0.22734
-0.160484
-0.109423
-0.0753445
-0.0520737
-0.0370901
-0.0270476
-0.0206493
-0.0166929
-0.0145518
-0.0135652
-0.0136657
0.00518774
0.00504487
0.00576452
0.00739537
0.0106424
0.0159625
0.024228
0.0367713
0.0556886
0.0833154
0.123635
0.173986
0.232231
0.297984
0.354435
0.390012
0.392398
0.341263
0.24736
0.107652
-0.101152
-0.241152
-0.332223
-0.386534
-0.386893
-0.35373
-0.298455
-0.234706
-0.176888
-0.127704
-0.0887073
-0.0622366
-0.0439105
-0.0315334
-0.023255
-0.0179271
-0.0146691
-0.0129442
-0.0121966
-0.0124016
0.0021603
0.00198634
0.00232897
0.00322396
0.00504504
0.00801068
0.0126185
0.0193317
0.0293663
0.0433329
0.0625981
0.0870792
0.11614
0.149772
0.180432
0.202119
0.207846
0.182073
0.137008
0.0708472
-0.0484332
-0.11887
-0.163844
-0.192299
-0.187531
-0.16938
-0.140851
-0.112213
-0.0864885
-0.0650227
-0.0478714
-0.0351141
-0.025675
-0.019191
-0.0147347
-0.0118387
-0.010052
-0.00913728
-0.00880437
-0.00900956
-0.00233777
-0.0024926
-0.00260589
-0.00269399
-0.00274645
-0.00283655
-0.00302986
-0.00356184
-0.00487757
-0.00819754
-0.0147948
-0.0227245
-0.0307776
-0.0371396
-0.0390228
-0.0349652
-0.0261468
-0.0194373
-0.00807484
0.0109424
0.0115832
0.0246457
0.0334662
0.0381765
0.0452696
0.0459202
0.0423969
0.03224
0.0225541
0.0125092
0.00448423
0.000156492
-0.00187346
-0.00290453
-0.00335127
-0.00363406
-0.00383489
-0.0040553
-0.00426434
-0.00437844
-0.00711733
-0.00721269
-0.00790763
-0.00909514
-0.0110674
-0.0141894
-0.0190878
-0.0267304
-0.0389574
-0.0580709
-0.0877697
-0.125922
-0.169418
-0.213447
-0.246966
-0.261831
-0.25402
-0.220227
-0.158921
-0.0619456
0.0496258
0.146411
0.212325
0.24799
0.25699
0.241965
0.209366
0.164984
0.123483
0.085215
0.0546051
0.0346648
0.0217405
0.0134761
0.00828223
0.00499792
0.00291037
0.00166784
0.00100695
0.000942578
-0.0114288
-0.0114831
-0.0124388
-0.0142906
-0.017568
-0.0228614
-0.0311303
-0.0439925
-0.0640179
-0.094383
-0.139065
-0.195619
-0.260375
-0.329737
-0.386428
-0.416816
-0.41468
-0.363734
-0.266589
-0.116732
0.073369
0.22715
0.33224
0.389935
0.401043
0.375418
0.323864
0.256687
0.193132
0.135937
0.0906612
0.0598756
0.0392569
0.0260502
0.0174613
0.0120241
0.00860521
0.00666548
0.0056743
0.00557377
-0.0139551
-0.0139544
-0.0149517
-0.0169652
-0.020721
-0.0268602
-0.0364963
-0.0513895
-0.074062
-0.107865
-0.157534
-0.220326
-0.291789
-0.36746
-0.431788
-0.467466
-0.468316
-0.412129
-0.304921
-0.139139
0.0831295
0.254186
0.372627
0.437672
0.446122
0.417795
0.360417
0.28662
0.217148
0.154858
0.105038
0.0703421
0.0470526
0.0317109
0.0216702
0.0152485
0.0113118
0.0090867
0.00797898
0.00798174
-0.0137614
-0.0135545
-0.014328
-0.0160983
-0.019485
-0.0250761
-0.0338289
-0.0471
-0.0675682
-0.0973442
-0.140257
-0.194373
-0.257622
-0.325051
-0.383485
-0.417117
-0.418195
-0.369111
-0.273385
-0.124894
0.0689193
0.2251
0.33113
0.388791
0.395429
0.367754
0.315616
0.250473
0.19041
0.13737
0.0941856
0.0638077
0.0425073
0.0286711
0.0196101
0.0138284
0.0103345
0.00845113
0.00760977
0.00776511
-0.0111417
-0.0108115
-0.0111666
-0.0122144
-0.01444
-0.018141
-0.0240402
-0.0326986
-0.0461211
-0.065097
-0.0921354
-0.125745
-0.165888
-0.209899
-0.250077
-0.274419
-0.278612
-0.247489
-0.185834
-0.086185
0.0488468
0.15256
0.22211
0.259712
0.262238
0.24143
0.205373
0.161799
0.122448
0.0884058
0.0609622
0.041352
0.027442
0.0185275
0.0124815
0.00871049
0.00648645
0.0054677
0.00508141
0.00532925
-0.00706106
-0.00674689
-0.00661193
-0.0066801
-0.00713134
-0.00798111
-0.0094214
-0.0115043
-0.0146127
-0.018405
-0.0236074
-0.0297911
-0.0387231
-0.0497783
-0.0623942
-0.0718062
-0.075606
-0.0689234
-0.0539505
-0.025391
0.0186137
0.0438321
0.0593647
0.0680635
0.0655803
0.0580515
0.0468768
0.0353994
0.0261625
0.0185726
0.0130377
0.00908756
0.00585013
0.00370445
0.00218489
0.00135822
0.000904222
0.00081364
0.00089304
0.00118689
-0.00226202
-0.00204121
-0.00139431
-0.000383288
0.00109281
0.00328317
0.00661376
0.0117114
0.0195642
0.0317711
0.0494949
0.0707601
0.093044
0.116178
0.132785
0.140429
0.137211
0.117486
0.0794175
0.0280425
-0.0244325
-0.0799671
-0.118877
-0.138601
-0.145223
-0.139139
-0.123796
-0.101769
-0.0783182
-0.0567785
-0.0388039
-0.0260763
-0.0180185
-0.0127954
-0.00941551
-0.00711509
-0.00557182
-0.00454825
-0.00390224
-0.00361533
0.00259431
0.0027974
0.00376508
0.00552022
0.00846219
0.0130754
0.0202369
0.0312322
0.0479267
0.0728085
0.108175
0.151169
0.198983
0.249227
0.289393
0.310726
0.306703
0.267603
0.187685
0.0686162
-0.0611297
-0.187596
-0.271623
-0.30885
-0.317168
-0.297255
-0.258837
-0.20908
-0.159985
-0.11644
-0.0806112
-0.0551307
-0.0381354
-0.0268191
-0.0193671
-0.014514
-0.0113982
-0.00948262
-0.00838367
-0.008213
0.00604971
0.00621191
0.00732469
0.00949265
0.0132137
0.0191489
0.0283585
0.0424566
0.0642354
0.0956073
0.139847
0.194274
0.255843
0.320371
0.372535
0.402827
0.396883
0.350264
0.247646
0.0899151
-0.0813519
-0.245645
-0.34975
-0.397012
-0.406257
-0.378639
-0.327141
-0.262922
-0.201731
-0.147992
-0.103433
-0.0713788
-0.0491491
-0.0346473
-0.0251692
-0.0190026
-0.015155
-0.0129125
-0.0117455
-0.011566
0.00707446
0.00705777
0.0080204
0.0100452
0.013736
0.0196363
0.0289078
0.0429975
0.0645238
0.0957398
0.139291
0.192325
0.252882
0.317522
0.370389
0.402195
0.397879
0.350821
0.250451
0.0898429
-0.0813242
-0.241494
-0.345531
-0.394998
-0.403228
-0.374706
-0.323316
-0.259847
-0.199192
-0.145542
-0.101888
-0.0707247
-0.0488967
-0.0348382
-0.0255267
-0.0194429
-0.0156553
-0.0135757
-0.0125702
-0.0125809
0.00577999
0.00554731
0.00604232
0.00735783
0.0100364
0.0144928
0.021635
0.0325243
0.0492199
0.0730422
0.106387
0.147153
0.194651
0.245852
0.289238
0.316201
0.313851
0.277955
0.200471
0.0748021
-0.0642804
-0.190354
-0.268786
-0.305993
-0.312306
-0.288237
-0.247761
-0.198512
-0.151571
-0.111147
-0.0781873
-0.0546603
-0.0382156
-0.0272831
-0.0200645
-0.0155322
-0.0127115
-0.0112671
-0.0107188
-0.0109292
0.00268268
0.00232031
0.00233195
0.00271505
0.00384575
0.0059094
0.00931186
0.0145193
0.0226429
0.0340725
0.050138
0.0706573
0.0947761
0.120758
0.143688
0.158749
0.158029
0.141635
0.10601
0.0444734
-0.0301805
-0.0944444
-0.133262
-0.149961
-0.1531
-0.138537
-0.117468
-0.0932389
-0.0710465
-0.0525022
-0.0376283
-0.0269906
-0.0192767
-0.0141567
-0.0108459
-0.0087754
-0.00762618
-0.00718326
-0.00713227
-0.00745905
-0.00147801
-0.00186012
-0.00232336
-0.00291353
-0.00358807
-0.00443411
-0.00555685
-0.0072621
-0.00977314
-0.0137515
-0.0187167
-0.0245275
-0.030576
-0.035605
-0.0377555
-0.0369607
-0.0343028
-0.0271183
-0.0146012
-0.00121476
0.00551217
0.0171628
0.0301973
0.0376739
0.0396328
0.0405865
0.0373074
0.0315364
0.0244027
0.01697
0.0109397
0.00628014
0.00344043
0.00150099
0.000202861
-0.000784326
-0.00158275
-0.00220419
-0.00265152
-0.00298627
-0.00575084
-0.00606548
-0.00704152
-0.00862153
-0.0110098
-0.0146052
-0.019909
-0.0279535
-0.0401341
-0.0580498
-0.0822187
-0.112375
-0.146112
-0.179604
-0.206036
-0.220059
-0.216181
-0.190429
-0.133621
-0.0498005
0.0331719
0.115865
0.175873
0.207458
0.213939
0.202618
0.176848
0.144411
0.110742
0.0800305
0.0556786
0.0372715
0.0247422
0.0162972
0.0107541
0.00703218
0.00454224
0.00295185
0.00201389
0.00172956
-0.00949078
-0.00979156
-0.0109383
-0.0129906
-0.0164121
-0.0217517
-0.0299215
-0.0422653
-0.0606976
-0.0875866
-0.123412
-0.169108
-0.221303
-0.274947
-0.319006
-0.344788
-0.339756
-0.300287
-0.215191
-0.0842228
0.0496427
0.181748
0.272146
0.32008
0.329807
0.309907
0.269176
0.218733
0.167583
0.12203
0.0858283
0.0584135
0.0394112
0.0267244
0.0183735
0.0128564
0.00936478
0.00727093
0.00611072
0.00590506
-0.0114826
-0.0116437
-0.0127358
-0.0148293
-0.0184605
-0.0241861
-0.0330693
-0.0466218
-0.067063
-0.0966824
-0.136444
-0.186915
-0.24442
-0.304161
-0.35418
-0.384082
-0.379734
-0.333741
-0.242619
-0.0973187
0.0530885
0.203038
0.301011
0.354869
0.3656
0.342935
0.297353
0.241311
0.185107
0.134936
0.0954947
0.0654201
0.0445284
0.0304437
0.0212221
0.0152919
0.0115604
0.00942286
0.00832178
0.00820485
-0.0110001
-0.0109009
-0.0116569
-0.0133265
-0.0163618
-0.0212801
-0.0289547
-0.040772
-0.0585298
-0.084558
-0.119163
-0.163609
-0.214833
-0.267677
-0.311843
-0.338963
-0.334842
-0.295694
-0.21554
-0.0894687
0.0476254
0.176045
0.264383
0.313702
0.322003
0.30054
0.259599
0.210167
0.160817
0.116961
0.0828816
0.056847
0.0386037
0.0265043
0.0185748
0.0134697
0.0103501
0.00870122
0.00795659
0.00806118
-0.00853411
-0.00821315
-0.00844451
-0.00925148
-0.0109812
-0.0140107
-0.0187963
-0.0262511
-0.0375992
-0.0541866
-0.076126
-0.104744
-0.138332
-0.173413
-0.203153
-0.222804
-0.221953
-0.197152
-0.145444
-0.0616805
0.0306709
0.114409
0.171815
0.20449
0.209095
0.194879
0.167438
0.134632
0.102038
0.0736628
0.0520288
0.0354316
0.0239073
0.0163374
0.011384
0.00834182
0.00660958
0.00581118
0.0055946
0.00589433
-0.00489652
-0.00445191
-0.00416812
-0.00396651
-0.0040321
-0.00442991
-0.00526497
-0.00672756
-0.00903873
-0.012617
-0.0172201
-0.0234585
-0.0315298
-0.0410923
-0.0495856
-0.0565632
-0.0576171
-0.0528622
-0.0415088
-0.0214311
0.00445162
0.0242265
0.0365669
0.0443042
0.0451173
0.041508
0.0347624
0.0274675
0.0202746
0.0142167
0.00973426
0.006306
0.00406081
0.00269988
0.00195127
0.00163307
0.00161268
0.00181812
0.00212027
0.00250606
-0.000822967
-0.000386516
0.000376127
0.0015642
0.00321726
0.00555335
0.00888617
0.0137825
0.020933
0.0310133
0.0441243
0.0611865
0.0798981
0.0971621
0.111097
0.117244
0.113961
0.0943463
0.0608738
0.0166595
-0.0274557
-0.0720904
-0.104828
-0.12255
-0.125559
-0.118363
-0.104314
-0.0858667
-0.0665294
-0.0489424
-0.0350575
-0.0244088
-0.0167627
-0.0115983
-0.00805531
-0.00555331
-0.00377639
-0.00253216
-0.00170854
-0.00134315
0.00296755
0.00329972
0.00443233
0.00634044
0.00930465
0.0137715
0.0204145
0.0302701
0.0449159
0.0656066
0.0925805
0.127456
0.167005
0.205543
0.237303
0.253047
0.249693
0.211914
0.14438
0.0472743
-0.0530341
-0.151342
-0.220237
-0.256834
-0.261356
-0.244784
-0.213109
-0.173728
-0.133341
-0.0977499
-0.0697808
-0.0483916
-0.0333339
-0.0231047
-0.0162178
-0.0115719
-0.00850585
-0.0065961
-0.0054943
-0.00511022
0.00579611
0.00606539
0.00724627
0.00934443
0.0128444
0.0182763
0.0265562
0.038896
0.0572285
0.0834657
0.117465
0.161133
0.211606
0.261438
0.303223
0.324272
0.31944
0.272952
0.187764
0.0654123
-0.0644615
-0.191274
-0.277216
-0.324371
-0.330453
-0.308759
-0.267876
-0.217169
-0.165839
-0.121684
-0.0873057
-0.0605925
-0.0416549
-0.0290148
-0.0205246
-0.0148766
-0.0112453
-0.00901505
-0.00779144
-0.00749355
0.0066924
0.0067793
0.00775391
0.00961278
0.012876
0.0179785
0.0259149
0.0379858
0.0560263
0.0818341
0.115354
0.158342
0.208427
0.25775
0.298534
0.319445
0.31702
0.270302
0.185987
0.0667653
-0.0621719
-0.184806
-0.269811
-0.315921
-0.322123
-0.301559
-0.261455
-0.211795
-0.161752
-0.118435
-0.0843502
-0.0582099
-0.0399152
-0.0277892
-0.0195764
-0.014248
-0.0108119
-0.00877632
-0.00772953
-0.00762432
0.00535815
0.00519951
0.00570891
0.00690622
0.00919524