/*--------------------------------*- C++ -*----------------------------------*\
| =========                 |                                                 |
| \\      /  F ield         | OpenFOAM: The Open Source CFD Toolbox           |
|  \\    /   O peration     | Version:  v2106                                 |
|   \\  /    A nd           | Website:  www.openfoam.com                      |
|    \\/     M anipulation  |                                                 |
\*---------------------------------------------------------------------------*/
FoamFile
{
    version     2.0;
    format      ascii;
    arch        "LSB;label=32;scalar=64";
    class       volVectorField;
    location    "0";
    object      U;
}
// * * * * * * * * * * * * * * * * * * * * * * * * * * * * * * * * * * * * * //

dimensions      [0 1 -1 0 0 0 0];

internalField   nonuniform List<vector> 
11644
(
(0.00043653 -4.06627e-05 1.78519e-23)
(0.000425809 -0.000127114 4.92303e-23)
(0.000410149 -0.000215536 2.64133e-23)
(0.000406017 -0.000311406 0)
(0.000410439 -0.000431895 0)
(0.000413903 -0.000585072 0)
(0.000414682 -0.000775566 0)
(0.000415058 -0.00101136 0)
(0.000412442 -0.00129941 0)
(0.000427633 -0.00163513 0)
(0.000413845 -0.00202733 0)
(0.000383668 -0.00247631 0)
(0.000405124 -0.00294567 0)
(0.000466403 -0.00340403 0)
(0.000479045 -0.00397483 0)
(0.000525815 -0.00440973 0)
(0.000873099 -0.00490431 0)
(0.00125108 -0.00572928 0)
(0.00124973 -0.00674591 0)
(0.000758461 -0.00740164 3.47568e-32)
(8.95232e-05 -0.00742834 -2.83381e-33)
(-0.0004486 -0.00680502 0)
(-0.000490357 -0.00576874 0)
(-0.00010308 -0.00490459 0)
(0.000268063 -0.00439661 0)
(0.000301597 -0.00396964 0)
(0.000304271 -0.00339691 0)
(0.000384199 -0.00293758 0)
(0.000391932 -0.00246646 0)
(0.000377244 -0.00202091 0)
(0.000366998 -0.00162825 0)
(0.000382012 -0.00129372 0)
(0.000376708 -0.00100557 0)
(0.000376909 -0.000770838 0)
(0.0003774 -0.000581382 0)
(0.000380248 -0.000428952 0)
(0.000384848 -0.00030912 0)
(0.000380973 -0.000214169 0)
(0.000365462 -0.000126669 0)
(0.000354932 -4.06853e-05 3.4613e-24)
(0.000571697 -6.31169e-05 2.29307e-23)
(0.000592088 -0.000213044 2.12412e-23)
(0.000623967 -0.0004142 1.14079e-23)
(0.000670758 -0.000663267 0)
(0.00074168 -0.000975608 0)
(0.00083953 -0.00137139 0)
(0.000963567 -0.00187563 0)
(0.00111046 -0.0025095 0)
(0.00127727 -0.00329134 0)
(0.00144519 -0.00423602 0)
(0.00159932 -0.00534909 0)
(0.0018128 -0.00660441 0)
(0.00199251 -0.00803862 0)
(0.00203334 -0.00966838 0)
(0.00196408 -0.0112201 0)
(0.00198713 -0.0129591 2.98743e-24)
(0.00199216 -0.0146256 -1.67612e-23)
(0.00206511 -0.0160023 1.53141e-23)
(0.00172321 -0.0169426 5.81734e-24)
(0.000932538 -0.0174933 -1.38812e-22)
(-8.9118e-05 -0.0174902 1.99573e-22)
(-0.000920283 -0.0169328 1.96269e-23)
(-0.00130289 -0.016003 -9.46633e-23)
(-0.00124173 -0.014635 1.86956e-23)
(-0.00120818 -0.0129576 -6.72608e-24)
(-0.00114628 -0.0111986 0)
(-0.00120423 -0.00964604 0)
(-0.00118277 -0.00801079 0)
(-0.000988873 -0.00657779 0)
(-0.000799552 -0.00531776 0)
(-0.000648063 -0.00420547 0)
(-0.000482086 -0.00326302 0)
(-0.00031463 -0.00248606 0)
(-0.00016909 -0.00185626 0)
(-4.59329e-05 -0.00135605 0)
(5.13076e-05 -0.000964442 0)
(0.000121642 -0.000655352 0)
(0.000167896 -0.00040904 0)
(0.000199542 -0.000210199 0)
(0.000220209 -6.20769e-05 0)
(0.000762167 -6.26421e-05 0)
(0.000828235 -0.000200374 0)
(0.000946943 -0.00037885 0)
(0.00110988 -0.000651548 0)
(0.00132529 -0.00102649 2.09467e-23)
(0.00159754 -0.00153282 0)
(0.0019321 -0.00219946 0)
(0.00232888 -0.00305703 0)
(0.00277995 -0.00413791 0)
(0.00325963 -0.00547778 0)
(0.00384518 -0.00705992 0)
(0.00425323 -0.00899423 0)
(0.00444566 -0.0111923 2.83924e-24)
(0.00470385 -0.013527 -2.9785e-24)
(0.0049267 -0.0162591 6.76839e-23)
(0.00477497 -0.0189516 7.01458e-23)
(0.00452772 -0.021475 -5.25995e-22)
(0.00364596 -0.0231544 7.40042e-22)
(0.00253886 -0.0240742 -7.12416e-22)
(0.00113016 -0.0244891 -1.53417e-21)
(-0.000367256 -0.0244518 1.4644e-21)
(-0.00177054 -0.0239925 -2.4663e-22)
(-0.00287188 -0.0230861 2.37129e-22)
(-0.00376011 -0.0214518 3.75373e-22)
(-0.00401046 -0.0189359 1.9721e-22)
(-0.00414624 -0.0162258 -1.61906e-22)
(-0.00390157 -0.0134782 3.51653e-23)
(-0.00362135 -0.0111318 -4.87114e-24)
(-0.00343228 -0.00892905 0)
(-0.00300818 -0.00700292 0)
(-0.00243324 -0.00542002 0)
(-0.00195998 -0.00408437 0)
(-0.00151556 -0.00300907 0)
(-0.00112465 -0.00215893 0)
(-0.000794724 -0.00150021 0)
(-0.000524991 -0.00100195 0)
(-0.000311602 -0.00063444 0)
(-0.00015026 -0.000367145 0)
(-3.19167e-05 -0.000194305 0)
(3.40879e-05 -6.06887e-05 0)
(0.00088939 -9.95348e-06 0)
(0.00100356 -2.32188e-05 0)
(0.00120439 -0.000111543 0)
(0.00149962 -0.000259892 0)
(0.00188949 -0.000525375 0)
(0.00238716 -0.000937679 0)
(0.00299767 -0.00153621 0)
(0.00371926 -0.002364 0)
(0.0045406 -0.00347327 0)
(0.00547901 -0.00487796 0)
(0.00626182 -0.00675667 -1.7726e-24)
(0.00717162 -0.00904776 -5.44414e-23)
(0.00816511 -0.0117786 2.52358e-22)
(0.00905313 -0.0150175 -4.0645e-22)
(0.00931019 -0.0182611 7.65079e-22)
(0.00909695 -0.0215674 -6.4489e-22)
(0.00772191 -0.0243052 -2.20794e-22)
(0.00585573 -0.026313 4.65859e-22)
(0.00402942 -0.0274785 -1.23096e-21)
(0.00158998 -0.0280745 3.71367e-21)
(-0.000932263 -0.0280536 -1.95908e-21)
(-0.00332174 -0.0273814 6.20988e-22)
(-0.00507897 -0.0261764 -1.70396e-21)
(-0.00690904 -0.0242048 2.0648e-21)
(-0.00828491 -0.0214968 -1.04558e-21)
(-0.00846779 -0.0181853 -8.85953e-22)
(-0.00818143 -0.0149439 5.31585e-22)
(-0.00728217 -0.0116969 -2.4279e-22)
(-0.00629379 -0.00896056 -2.2186e-23)
(-0.00540114 -0.00666348 2.73844e-24)
(-0.00461201 -0.00479586 0)
(-0.00368329 -0.00340088 0)
(-0.00287759 -0.00230127 0)
(-0.00216857 -0.00148423 0)
(-0.0015685 -0.000894291 0)
(-0.00107775 -0.000491196 0)
(-0.000692726 -0.000234793 0)
(-0.000401052 -9.49355e-05 0)
(-0.000203115 -1.24105e-05 0)
(-9.03389e-05 -7.06258e-06 0)
(0.000785375 0.00013069 0)
(0.00094026 0.000318316 0)
(0.00123637 0.000524251 0)
(0.00165775 0.000628712 0)
(0.00221875 0.000629849 0)
(0.00293631 0.000500736 0)
(0.0038241 0.000199205 0)
(0.00488906 -0.000327086 0)
(0.00613069 -0.00112951 0)
(0.00740812 -0.00239467 -1.87578e-23)
(0.00911503 -0.00418264 -1.80741e-22)
(0.0111669 -0.0066444 4.60482e-22)
(0.0127779 -0.00983389 -6.62808e-22)
(0.0139578 -0.0132656 3.82153e-22)
(0.0142997 -0.0169793 -4.7048e-23)
(0.0138351 -0.0203589 7.55343e-22)
(0.0121687 -0.0235286 -7.3497e-22)
(0.0081978 -0.0255026 1.26253e-21)
(0.00529597 -0.0267376 -1.92694e-21)
(0.00198859 -0.0272432 6.70714e-22)
(-0.00141816 -0.0272233 -3.27914e-22)
(-0.00464528 -0.0266569 -1.18272e-21)
(-0.00745429 -0.0253619 1.74767e-21)
(-0.0113373 -0.0233939 1.2375e-22)
(-0.0129948 -0.0202476 1.99801e-22)
(-0.0134415 -0.01686 -8.14635e-22)
(-0.0130847 -0.013156 -2.65345e-22)
(-0.0119107 -0.00971463 9.14005e-23)
(-0.0102656 -0.00653469 4.46942e-22)
(-0.00821727 -0.00406274 3.27656e-23)
(-0.00653257 -0.00227625 -1.25222e-23)
(-0.00526448 -0.00102526 0)
(-0.00403485 -0.000245171 0)
(-0.00298721 0.000269002 0)
(-0.00211106 0.000558169 0)
(-0.00140273 0.000676949 0)
(-0.000848543 0.000665684 0)
(-0.000431149 0.000550216 0)
(-0.00013731 0.000331935 0)
(1.55009e-05 0.000136492 0)
(0.000304802 0.000204041 0)
(0.000479316 0.000751654 0)
(0.000809494 0.00122994 0)
(0.001313 0.00172046 0)
(0.00200082 0.00218193 0)
(0.00289379 0.00256314 0)
(0.00401508 0.00282185 0)
(0.00538626 0.00290792 0)
(0.00701607 0.00265044 2.7757e-24)
(0.00928345 0.00184271 -2.13559e-22)
(0.0123327 0.000242267 3.31469e-22)
(0.0152678 -0.00232832 -7.75145e-22)
(0.017661 -0.00534333 8.31744e-22)
(0.0194802 -0.00908375 5.66152e-22)
(0.0192035 -0.0125857 1.87796e-21)
(0.0169158 -0.0155713 -2.03676e-21)
(0.0137954 -0.0184327 6.67967e-22)
(0.0101234 -0.0208141 -5.02293e-22)
(0.00627528 -0.0219422 4.06291e-22)
(0.0024788 -0.0227359 -4.12836e-21)
(-0.00193934 -0.0227117 4.92631e-21)
(-0.00567557 -0.0218941 -1.87698e-21)
(-0.00942482 -0.0207043 1.18061e-21)
(-0.0129926 -0.0182959 -8.68834e-22)
(-0.0160565 -0.015428 2.47188e-21)
(-0.0183332 -0.0124348 -2.12567e-21)
(-0.0185998 -0.00895356 5.21921e-23)
(-0.0167522 -0.00523517 -3.45894e-22)
(-0.0144383 -0.00217412 -1.61908e-22)
(-0.0114438 0.000392624 -5.16801e-22)
(-0.00834785 0.00200036 2.24886e-22)
(-0.00611279 0.00275495 1.26127e-23)
(-0.00453119 0.00299592 0)
(-0.00317604 0.00290059 0)
(-0.00206784 0.00263387 0)
(-0.00118404 0.00224181 0)
(-0.000501676 0.00176676 0)
(-1.16684e-06 0.00126366 0)
(0.000327704 0.000767719 0)
(0.000501531 0.000207105 0)
(-0.000613178 0.000513735 0)
(-0.000453114 0.00133237 0)
(-0.00012755 0.00221725 0)
(0.000379605 0.00312943 0)
(0.00108645 0.00405993 0)
(0.00203233 0.00502917 0)
(0.00325651 0.00602156 0)
(0.0048207 0.00693248 6.05834e-24)
(0.00734622 0.00736141 1.30473e-22)
(0.0110194 0.00695102 -3.65373e-22)
(0.0150198 0.00558178 3.91083e-22)
(0.0188903 0.00358584 -3.31235e-22)
(0.0217346 0.000527599 -1.47175e-22)
(0.0232695 -0.00174812 -5.89952e-22)
(0.0231675 -0.00610301 2.27127e-21)
(0.0222581 -0.00928188 -7.51811e-22)
(0.0175459 -0.0134011 -1.51034e-21)
(0.0141111 -0.0156583 1.36874e-21)
(0.00948289 -0.0184041 7.7378e-23)
(0.00493467 -0.0198279 2.15679e-21)
(-0.000590291 -0.0199824 2.6622e-21)
(-0.00528243 -0.0188549 5.0453e-21)
(-0.0100567 -0.0165851 3.31702e-21)
(-0.0131855 -0.0126262 5.77693e-22)
(-0.021472 -0.00913519 8.85334e-22)
(-0.022317 -0.00593398 -1.58114e-21)
(-0.0223709 -0.00158795 4.93932e-22)
(-0.0208553 0.00067839 4.26966e-22)
(-0.0180435 0.0037093 -3.13236e-22)
(-0.0143088 0.00581473 -3.00915e-22)
(-0.0100016 0.00715808 1.69573e-22)
(-0.00641004 0.00749999 1.01035e-22)
(-0.00396741 0.00703493 -1.12562e-24)
(-0.00242612 0.00612082 0)
(-0.00120859 0.00511681 0)
(-0.000267427 0.00413166 0)
(0.000436245 0.00318746 0)
(0.00094294 0.00225781 0)
(0.00126794 0.00136345 0)
(0.00142739 0.000522535 0)
(-0.00199971 0.000486291 0)
(-0.00187725 0.00171378 0)
(-0.00162878 0.00302716 0)
(-0.00122657 0.00438896 0)
(-0.000636033 0.00589644 0)
(0.000185802 0.00755349 0)
(0.00129242 0.00936575 0)
(0.00322332 0.0110741 -6.21505e-23)
(0.00717799 0.0121229 1.09394e-22)
(0.0119101 0.0121474 4.14949e-23)
(0.0165997 0.0114988 -1.61383e-23)
(0.0209245 0.0104711 -8.62466e-22)
(0.0253022 0.00949459 8.96757e-23)
(0.0258707 0.00248154 5.7702e-22)
(0.0265431 0.00166242 2.20843e-21)
(0.0285492 0.0006911 -2.08983e-21)
(0.0247356 -0.00505167 -1.24907e-21)
(0.0188311 -0.00926656 -9.56231e-22)
(0.0126057 -0.0134457 -6.23385e-22)
(0.00674488 -0.0161186 6.89388e-22)
(-0.000844135 -0.0170725 -5.63198e-21)
(-0.0076939 -0.0159086 2.33776e-21)
(-0.0154705 -0.0119399 -4.09592e-21)
(-0.0196963 -0.00750837 1.12034e-21)
(-0.0249766 -0.00278966 -2.41677e-21)
(-0.0252451 0.000936372 -5.88087e-22)
(-0.0240722 0.00297406 2.82428e-21)
(-0.0244548 0.00971024 -7.02389e-22)
(-0.0201871 0.0107429 1.02394e-21)
(-0.0158991 0.0117407 -8.81138e-22)
(-0.0108758 0.0123634 2.55456e-22)
(-0.00621737 0.0122842 3.19452e-23)
(-0.00241592 0.0112218 -5.31882e-23)
(-0.000471013 0.00951776 0)
(0.000635778 0.00768452 0)
(0.00145733 0.00600626 0)
(0.00204954 0.00447947 0)
(0.00245324 0.00309701 0)
(0.00270277 0.00174882 0)
(0.00282514 0.000502387 0)
(-0.00374473 0.000751718 0)
(-0.00372274 0.00216897 0)
(-0.00362107 0.00358517 0)
(-0.00344222 0.00530079 0)
(-0.00314483 0.00725898 0)
(-0.00267453 0.00951596 0)
(-0.00186335 0.0120538 -1.24248e-23)
(0.000877227 0.0144351 3.81231e-23)
(0.00603783 0.0159826 1.22689e-22)
(0.0112576 0.0170155 -2.02084e-22)
(0.0163635 0.0182274 -4.47748e-24)
(0.0213364 0.0192065 5.7411e-22)
(0.0264127 0.0182222 -6.00448e-22)
(0.0289749 0.014759 7.10581e-22)
(0.0317931 0.0134644 -1.35961e-21)
(0.0323151 0.0105806 8.2171e-22)
(0.0304984 0.00277375 8.0839e-22)
(0.0281044 -0.00673463 -2.39163e-21)
(0.0186817 -0.0120909 2.25738e-22)
(0.0103608 -0.0174609 -4.38873e-21)
(-0.00028567 -0.0194181 -2.4718e-21)
(-0.0107117 -0.0171131 -3.41717e-21)
(-0.0186924 -0.00986012 -2.65364e-21)
(-0.0283336 -0.00303838 -9.56236e-22)
(-0.0284843 0.00420418 -8.23991e-22)
(-0.0313998 0.0116038 4.49814e-22)
(-0.029092 0.0153355 -4.96218e-22)
(-0.025594 0.0185252 -4.90254e-22)
(-0.0205486 0.0194802 7.55618e-22)
(-0.0157473 0.0184535 -2.03156e-22)
(-0.010272 0.0172869 9.40212e-23)
(-0.00500564 0.0162072 -6.07712e-23)
(-0.000153431 0.014625 -1.36563e-22)
(0.00267253 0.0122476 4.52459e-24)
(0.00350149 0.00967916 0)
(0.00397193 0.00738675 0)
(0.00427265 0.00539533 0)
(0.00445621 0.00365686 0)
(0.00455944 0.0022138 0)
(0.00458235 0.000760544 0)
(-0.00569988 0.000757757 0)
(-0.00578727 0.00219685 0)
(-0.00596798 0.00396414 0)
(-0.00614331 0.0058229 0)
(-0.0063054 0.0079956 0)
(-0.00638421 0.0106019 0)
(-0.00579771 0.0136068 2.59541e-23)
(-0.00215919 0.016396 -6.05557e-23)
(0.00330697 0.0188309 -6.65448e-23)
(0.00827094 0.0216521 -3.20515e-24)
(0.013153 0.0251852 3.63146e-22)
(0.018581 0.0294337 -2.81061e-22)
(0.0245502 0.032714 -4.06131e-23)
(0.0314312 0.0294678 3.84439e-22)
(0.0355296 0.0282357 -3.12468e-22)
(0.0400932 0.0190612 -2.69458e-22)
(0.041936 0.00930131 3.28087e-22)
(0.0411909 -0.00397232 3.51962e-22)
(0.0315293 -0.0192408 -7.21345e-22)
(0.0159869 -0.028683 -1.61568e-21)
(-0.000731592 -0.0314458 -3.6622e-22)
(-0.0175374 -0.0278281 -2.97406e-21)
(-0.0323179 -0.0174201 8.8426e-23)
(-0.0410183 -0.00168143 1.10993e-21)
(-0.0425604 0.0136001 8.02452e-23)
(-0.0382708 0.0239989 -1.42903e-21)
(-0.0321442 0.0308219 -6.34777e-22)
(-0.0238446 0.033157 3.08153e-23)
(-0.0175033 0.0298531 -4.09659e-22)
(-0.0127017 0.0253888 3.2354e-22)
(-0.00739448 0.0219263 7.91155e-23)
(-0.00226328 0.0191446 -4.56754e-23)
(0.00286615 0.0166744 -3.07371e-23)
(0.00660331 0.0138559 -2.79372e-23)
(0.00722952 0.0108033 0)
(0.00714766 0.00815321 0)
(0.00698708 0.00594991 0)
(0.0068125 0.00405044 0)
(0.00663563 0.0022599 0)
(0.00654861 0.000784963 0)
(-0.00756188 0.000494107 0)
(-0.00781397 0.0019436 0)
(-0.00820867 0.003364 0)
(-0.00881457 0.00514916 0)
(-0.00960727 0.00737929 0)
(-0.0104876 0.0101748 0)
(-0.00999469 0.0133397 -6.36389e-25)
(-0.00604077 0.0164413 3.14923e-23)
(-0.00159424 0.0202478 -8.41408e-23)
(0.00204301 0.0256096 -1.22566e-23)
(0.00588968 0.0320844 -2.48864e-24)
(0.0113047 0.0393599 3.79417e-23)
(0.0172949 0.0482644 -6.51887e-23)
(0.0287049 0.0482546 5.25246e-22)
(0.0400337 0.0484029 6.26428e-22)
(0.0540095 0.0396425 -2.5129e-22)
(0.066319 0.022382 -3.86707e-23)
(0.073402 -0.00540987 -1.0575e-22)
(0.06029 -0.0410917 7.85937e-22)
(0.0255942 -0.0635562 2.98683e-21)
(-0.000530252 -0.0622444 1.07017e-20)
(-0.0276851 -0.0628271 -8.64044e-21)
(-0.0614324 -0.0384889 1.319e-21)
(-0.0728058 -0.000676367 -1.1096e-22)
(-0.0638944 0.0290278 1.43985e-22)
(-0.0467921 0.0488599 1.45217e-22)
(-0.0330469 0.0476471 9.43752e-24)
(-0.0166985 0.0488075 5.98674e-24)
(-0.0100713 0.0398993 9.74829e-23)
(-0.00537032 0.0323536 -1.14138e-22)
(-0.00130646 0.0258667 4.01664e-24)
(0.0025076 0.0205831 5.6398e-23)
(0.00680218 0.0167644 -1.82403e-23)
(0.0108315 0.013594 1.74352e-23)
(0.0113535 0.0103765 0)
(0.0104721 0.00754556 0)
(0.00967964 0.00528756 0)
(0.00907037 0.00346785 0)
(0.00866871 0.00199422 0)
(0.00841822 0.000496753 0)
(-0.00912051 0.000697055 0)
(-0.00955908 0.00150013 0)
(-0.0103403 0.00257563 0)
(-0.0114595 0.00389643 0)
(-0.0128783 0.0056416 0)
(-0.0145662 0.00805392 0)
(-0.0142848 0.0109623 5.44068e-24)
(-0.0111849 0.0144337 1.26828e-23)
(-0.00901267 0.0197019 2.01346e-23)
(-0.00794199 0.0276173 8.02714e-24)
(-0.00662654 0.0379831 7.44108e-23)
(-0.00292009 0.0503458 8.58384e-23)
(0.00464183 0.0637007 -2.23941e-22)
(0.0164548 0.0710789 -8.32325e-24)
(0.038667 0.0778534 -1.38465e-22)
(0.0644602 0.0737502 -2.754e-22)
(0.098732 0.0578456 -1.51239e-22)
(0.14009 0.0164591 1.33504e-21)
(0.206539 -0.136877 -6.35328e-20)
(-0.213193 -0.124951 -1.28662e-20)
(-0.137695 0.0265048 -1.97666e-22)
(-0.0918124 0.0677723 -1.48515e-22)
(-0.0519914 0.0806074 -1.44881e-22)
(-0.0265219 0.0758746 -6.60523e-23)
(-0.00385647 0.0643299 1.30356e-23)
(0.0039944 0.0508503 -1.37358e-23)
(0.0074773 0.0384227 -1.4035e-23)
(0.00867088 0.0279335 -2.29044e-24)
(0.00982832 0.0200543 1.52284e-23)
(0.0120338 0.0147751 1.38856e-23)
(0.015185 0.0111985 1.15041e-23)
(0.0154469 0.00823224 0)
(0.0137613 0.00579497 0)
(0.0123389 0.00401724 0)
(0.0112243 0.00267583 0)
(0.0104433 0.00157601 0)
(0.010006 0.000764236 0)
(-0.00973787 -0.000176562 0)
(-0.0103839 0.000244745 0)
(-0.0115416 0.000724527 0)
(-0.0131402 0.00138594 0)
(-0.015231 0.0023783 0)
(-0.0178064 0.00395182 0)
(-0.0184209 0.00621732 -1.30149e-24)
(-0.0175108 0.00991118 -5.44384e-24)
(-0.0189988 0.0164578 -1.84853e-23)
(-0.021788 0.026398 1.33807e-23)
(-0.0250308 0.0399753 2.3176e-23)
(-0.026057 0.0574436 1.00648e-22)
(-0.0224417 0.0789711 4.76828e-23)
(-0.00331508 0.0951425 1.53698e-22)
(0.0204049 0.115796 1.37723e-21)
(0.0581347 0.127815 -1.84415e-22)
(0.113415 0.13358 -7.1044e-23)
(0.222922 0.124406 1.99536e-21)
(0.0243065 -0.0514759 3.93413e-19)
(-0.0747492 -0.0442361 1.78598e-19)
(-0.207575 0.128261 3.74099e-22)
(-0.0997271 0.138599 -4.4357e-23)
(-0.0374485 0.128347 1.0703e-22)
(-0.00726909 0.105738 2.72534e-22)
(0.0231521 0.0796608 4.97121e-23)
(0.027067 0.0579979 -1.29871e-22)
(0.0260034 0.0405114 7.46421e-24)
(0.02259 0.0267495 5.26098e-23)
(0.0197157 0.0167949 -3.51329e-23)
(0.0184793 0.0102483 -1.19344e-23)
(0.0194129 0.00645119 -7.09256e-24)
(0.0187466 0.00413518 0)
(0.016163 0.00253036 0)
(0.0140618 0.00149779 0)
(0.012453 0.000792262 0)
(0.0112936 0.000281674 0)
(0.0106392 -0.000221889 0)
(-0.0100022 -8.98503e-05 -3.34202e-25)
(-0.0105556 -0.000906261 0)
(-0.0116974 -0.00157666 0)
(-0.0135212 -0.00201235 0)
(-0.0161175 -0.00222683 0)
(-0.0194907 -0.00204505 0)
(-0.0218801 -0.000930104 -5.81947e-24)
(-0.0245623 0.00248842 -3.43119e-24)
(-0.0308321 0.00923973 7.03146e-23)
(-0.0387436 0.0197184 -2.48019e-22)
(-0.0470727 0.0346744 1.91748e-22)
(-0.0549374 0.0554321 -2.19684e-22)
(-0.0585757 0.0849765 3.15192e-22)
(-0.0418987 0.11428 2.97792e-22)
(-0.0252913 0.152689 3.80815e-22)
(0.0173698 0.190766 -1.16034e-21)
(0.0785907 0.226989 -3.23814e-23)
(0.376414 0.224066 -3.6693e-22)
(0.369919 0.0022817 -7.43567e-21)
(-0.441648 0.0235503 -1.06105e-20)
(-0.272743 0.238336 1.28075e-21)
(-0.0608564 0.225496 1.42319e-22)
(0.0102329 0.178447 1.02097e-21)
(0.0354969 0.131901 -7.7224e-23)
(0.0597107 0.0857011 -4.84455e-22)
(0.0558607 0.0561955 6.99755e-23)
(0.0485804 0.0353838 2.32533e-22)
(0.0396999 0.0201114 -1.36002e-22)
(0.03162 0.0095839 1.44438e-22)
(0.0255788 0.00280751 -3.05483e-25)
(0.0229633 -0.000705039 5.08153e-24)
(0.0205211 -0.00186206 0)
(0.0171323 -0.00207867 0)
(0.0145234 -0.0018979 0)
(0.0126738 -0.00149529 0)
(0.0114984 -0.000855224 0)
(0.0109151 -3.23976e-05 0)
(-0.00862826 -0.000976284 1.93595e-26)
(-0.00934904 -0.0026431 0)
(-0.010448 -0.00424686 0)
(-0.012318 -0.00597976 0)
(-0.0151322 -0.00773415 0)
(-0.0190921 -0.00947176 0)
(-0.024171 -0.0101982 6.41449e-24)
(-0.0309905 -0.00825314 -2.06163e-23)
(-0.041953 -0.00299772 -1.21862e-23)
(-0.0551517 0.00588498 1.00064e-22)
(-0.0703436 0.0193125 -1.10216e-23)
(-0.089102 0.0393106 -2.59862e-22)
(-0.10734 0.0686557 1.33486e-22)
(-0.101628 0.115105 1.26224e-22)
(-0.104185 0.169314 -2.05025e-21)
(-0.0750604 0.245315 -1.76702e-21)
(-0.0118436 0.331788 -8.62868e-22)
(0.524791 0.388435 1.89466e-22)
(0.899103 0.208769 -7.91529e-22)
(0.418922 -0.158628 8.76231e-22)
(-0.00756564 -0.417381 7.48898e-23)
(-0.462206 -0.116858 -2.03192e-21)
(-1.03627 0.241541 7.44691e-22)
(-0.371391 0.392121 -2.18325e-22)
(0.0375899 0.318582 4.13113e-21)
(0.101456 0.210312 -1.26225e-21)
(0.103236 0.137418 1.41388e-21)
(0.109221 0.0693565 -1.02658e-21)
(0.0904365 0.0399886 1.00664e-21)
(0.0726479 0.0198844 4.51911e-23)
(0.0565388 0.00620295 6.57276e-23)
(0.0429753 -0.00267989 -3.16456e-23)
(0.0323587 -0.00799546 1.67753e-23)
(0.0254412 -0.0100238 4.49348e-24)
(0.0202628 -0.00932808 0)
(0.0162563 -0.00762489 0)
(0.013418 -0.0058959 0)
(0.0115359 -0.00417996 0)
(0.0104386 -0.00261061 0)
(0.00974257 -0.000964813 0)
(-0.00497777 -0.00156311 3.79806e-23)
(-0.00572923 -0.00429784 0)
(-0.0068306 -0.00715451 0)
(-0.00862941 -0.0102412 0)
(-0.0113876 -0.0135758 0)
(-0.0156481 -0.0174205 0)
(-0.0232669 -0.0208703 -1.15619e-24)
(-0.0340757 -0.0219872 -2.41375e-23)
(-0.0488844 -0.0206337 -7.08078e-23)
(-0.0676205 -0.0167994 1.18471e-22)
(-0.0903653 -0.0106443 -1.97835e-23)
(-0.119403 0.000227087 5.58565e-22)
(-0.154675 0.0193409 -4.78689e-22)
(-0.172459 0.0701132 -1.4514e-21)
(-0.212673 0.131146 -1.2167e-21)
(-0.263326 0.243602 5.68388e-22)
(-0.245542 0.409932 -3.71904e-22)
(0.384314 0.690973 3.61884e-21)
(0.987833 1.15977 -3.88583e-21)
(0.587673 1.32027 5.15259e-20)
(-0.0833882 1.40592 1.19968e-21)
(-0.692482 1.28287 -2.41813e-21)
(-1.04549 1.06772 2.498e-21)
(-0.0809992 0.61163 5.34851e-22)
(0.250377 0.36131 9.06577e-22)
(0.240071 0.179415 -1.07449e-21)
(0.18825 0.093696 -6.79471e-22)
(0.157165 0.019742 -7.66817e-22)
(0.121322 0.000584479 -1.07159e-22)
(0.0929605 -0.0103144 2.28309e-23)
(0.0694422 -0.0165335 -1.00591e-22)
(0.0501909 -0.0204425 9.91788e-23)
(0.0358042 -0.021894 1.3078e-23)
(0.0247541 -0.0208289 2.39222e-25)
(0.0169977 -0.0173864 0)
(0.0126437 -0.0135577 0)
(0.00983824 -0.0102401 0)
(0.00801684 -0.00717533 0)
(0.00690365 -0.00433649 0)
(0.00613973 -0.00160796 -3.5275e-23)
(-0.000403537 -0.00167826 8.23655e-24)
(-0.000803526 -0.0052836 0)
(-0.00164122 -0.00934882 0)
(-0.00299099 -0.0137426 0)
(-0.00513896 -0.0186675 0)
(-0.0089496 -0.0245494 0)
(-0.0175403 -0.0310675 0)
(-0.0316895 -0.0364911 -1.08688e-23)
(-0.0486562 -0.0413906 -2.39462e-23)
(-0.0689743 -0.0469336 6.70963e-23)
(-0.0955164 -0.0531184 -6.25662e-25)
(-0.130937 -0.0582656 4.31819e-22)
(-0.178776 -0.0638105 -3.83448e-22)
(-0.255421 -0.0560453 -4.00539e-22)
(-0.316927 0.0130533 3.04435e-22)
(-0.444935 0.0797383 8.61173e-22)
(-0.567425 0.261124 3.66513e-21)
(-0.314356 0.578989 2.43835e-20)
(0.14873 1.33051 3.78299e-21)
(0.149357 1.97031 6.11591e-21)
(-0.0193342 2.17665 1.131e-20)
(-0.170097 1.86193 2.08605e-20)
(-0.0911987 1.13932 5.57468e-21)
(0.442844 0.469294 -2.03232e-20)
(0.538505 0.150806 -2.23137e-21)
(0.379068 0.0377478 -2.33205e-22)
(0.259005 -0.0563455 -9.75048e-23)
(0.181499 -0.0639234 1.50721e-22)
(0.132939 -0.0584398 -1.48085e-22)
(0.0979532 -0.0532268 -1.07593e-22)
(0.0709473 -0.0468942 -6.72724e-23)
(0.0502355 -0.0414411 5.27189e-23)
(0.033516 -0.0366028 1.32128e-23)
(0.0191181 -0.0311486 0)
(0.0103756 -0.0246114 0)
(0.00647775 -0.0187256 0)
(0.00427805 -0.0138012 0)
(0.00288964 -0.00939941 0)
(0.00201677 -0.00530504 0)
(0.00159222 -0.00166911 5.65745e-24)
(0.00431386 -0.00169699 -5.75162e-24)
(0.00441915 -0.00570097 0)
(0.00421727 -0.0102134 0)
(0.00379298 -0.0153551 0)
(0.00296315 -0.0214435 0)
(0.000662258 -0.028912 0)
(-0.00692154 -0.0382209 0)
(-0.0210864 -0.0488802 0)
(-0.0372524 -0.061412 -9.35073e-24)
(-0.0548639 -0.0774723 -1.6149e-23)
(-0.0780249 -0.0987891 1.00968e-22)
(-0.111243 -0.125577 9.4374e-23)
(-0.160036 -0.160372 -2.49621e-22)
(-0.238556 -0.211277 4.48058e-22)
(-0.344176 -0.18738 -1.47536e-22)
(-0.524004 -0.209802 1.31792e-21)
(-0.760203 -0.146064 1.21541e-21)
(-0.968834 0.0516117 4.50094e-21)
(-0.817193 0.510819 2.23744e-21)
(-0.437567 0.957918 -5.75614e-21)
(0.0539514 1.11191 4.57099e-21)
(0.533092 0.881197 -5.3036e-21)
(0.8796 0.411747 -5.4218e-21)
(0.950518 -0.0214187 -3.28567e-20)
(0.661396 -0.214953 -4.73002e-22)
(0.431077 -0.203712 -2.37989e-21)
(0.241765 -0.21335 1.58897e-23)
(0.162437 -0.161424 -9.01685e-23)
(0.113013 -0.12639 4.80146e-23)
(0.0799904 -0.0993417 -1.92886e-23)
(0.0566534 -0.0777136 -3.25537e-23)
(0.0388005 -0.0617257 1.14367e-23)
(0.0227169 -0.0491647 0)
(0.00840875 -0.0383858 0)
(0.000712654 -0.029035 0)
(-0.0016423 -0.021533 0)
(-0.0025092 -0.0154213 3.30655e-23)
(-0.00296215 -0.0102461 4.57273e-23)
(-0.00318102 -0.0057044 2.72677e-23)
(-0.00308649 -0.00169093 0)
(0.00912819 -0.00171067 0)
(0.00981164 -0.00553434 0)
(0.0105446 -0.00979076 0)
(0.0114442 -0.0149063 0)
(0.0124797 -0.021295 0)
(0.0126818 -0.0293916 0)
(0.00833313 -0.0402557 0)
(-0.00186989 -0.0547559 0)
(-0.0127484 -0.0738601 -8.19573e-26)
(-0.0227387 -0.0993766 4.49414e-24)
(-0.0349525 -0.134183 -6.97199e-24)
(-0.0530035 -0.181795 5.48214e-23)
(-0.084035 -0.24366 5.5705e-23)
(-0.139568 -0.34049 -3.09549e-22)
(-0.25421 -0.391171 4.08091e-21)
(-0.415439 -0.512999 -2.43081e-22)
(-0.757864 -0.57833 6.48265e-22)
(-1.21378 -0.587011 2.87541e-21)
(-1.14599 -0.604378 3.34432e-21)
(-0.669824 -0.601201 -2.45422e-20)
(0.0810556 -0.59225 -1.77768e-21)
(0.798314 -0.600132 4.41881e-23)
(1.20265 -0.603423 -4.10129e-21)
(1.17119 -0.589401 -5.78024e-22)
(0.575321 -0.594137 -2.53117e-22)
(0.327944 -0.454247 -1.25119e-21)
(0.140931 -0.343494 3.21767e-22)
(0.0852415 -0.245497 1.90588e-22)
(0.0541948 -0.183038 -1.44212e-22)
(0.0362692 -0.134993 -1.46997e-23)
(0.0242925 -0.099756 6.30319e-24)
(0.0142338 -0.074278 1.06864e-25)
(0.00327418 -0.0550975 0)
(-0.00702583 -0.04043 0)
(-0.0114169 -0.0295222 0)
(-0.0112304 -0.0213732 0)
(-0.0102107 -0.0149551 0)
(-0.00932147 -0.00981391 0)
(-0.008597 -0.00554317 0)
(-0.00791657 -0.0017157 -4.91095e-24)
(0.0137999 -0.00143932 0)
(0.0150002 -0.00446878 0)
(0.0166934 -0.00786258 0)
(0.01904 -0.0120908 0)
(0.022222 -0.0176135 0)
(0.0256234 -0.024866 0)
(0.0263128 -0.0351444 0)
(0.023231 -0.0504584 0)
(0.0217494 -0.0723312 0)
(0.0240658 -0.102504 0)
(0.0292724 -0.144072 4.39721e-24)
(0.0364298 -0.202728 2.34245e-24)
(0.0404719 -0.279959 -1.08025e-22)
(0.0311404 -0.396385 1.89184e-22)
(-0.0530663 -0.512219 1.15285e-20)
(-0.162883 -0.699277 9.91679e-22)
(-0.602653 -0.853185 2.9615e-21)
(-0.949082 -1.12039 -1.51891e-21)
(-0.896389 -1.46139 4.84035e-21)
(-0.525459 -1.72757 -8.73206e-21)
(0.0664348 -1.81754 2.22666e-21)
(0.631347 -1.69613 1.26891e-20)
(0.943416 -1.41084 -3.09795e-21)
(0.927759 -1.0655 -3.36708e-21)
(0.361376 -0.809212 -1.05671e-20)
(0.0868378 -0.603537 -3.95233e-22)
(-0.0326992 -0.39816 6.44798e-23)
(-0.040751 -0.281392 -6.84451e-23)
(-0.0360105 -0.203656 3.07532e-23)
(-0.0286057 -0.144723 -3.17099e-24)
(-0.022816 -0.102827 0)
(-0.0203963 -0.0726865 0)
(-0.0220606 -0.0507303 0)
(-0.0251556 -0.0352838 0)
(-0.0244652 -0.0249888 0)
(-0.0210492 -0.017684 0)
(-0.0178654 -0.0121386 0)
(-0.0155162 -0.00789588 0)
(-0.0138205 -0.00449262 0)
(-0.0126112 -0.00145099 0)
(0.0173903 -0.000813043 0)
(0.0188792 -0.00243765 0)
(0.0213078 -0.00431622 0)
(0.02492 -0.00677796 0)
(0.0300446 -0.0101574 0)
(0.0366342 -0.0148334 0)
(0.0429987 -0.0220357 0)
(0.0485791 -0.0343031 0)
(0.058272 -0.0534162 0)
(0.0748711 -0.0806492 0)
(0.0997742 -0.11843 0)
(0.135086 -0.172143 1.4933e-24)
(0.180909 -0.245086 1.03041e-23)
(0.228778 -0.351722 -3.29095e-24)
(0.205476 -0.504144 3.66734e-21)
(0.121296 -0.697037 -3.07576e-21)
(-0.23017 -0.937754 4.23959e-21)
(-0.382425 -1.35109 -1.94968e-21)
(-0.369249 -1.79979 -3.51339e-22)
(-0.21312 -2.14084 -2.39515e-21)
(0.0372421 -2.25216 -2.41936e-21)
(0.272235 -2.09258 9.8277e-22)
(0.392472 -1.72011 -6.66988e-23)
(0.362626 -1.25852 -2.85184e-22)
(0.0371601 -0.812006 7.57193e-22)
(-0.201682 -0.586879 1.94353e-21)
(-0.231614 -0.350594 -4.92037e-22)
(-0.181574 -0.244951 2.50483e-23)
(-0.134912 -0.172161 -8.44832e-25)
(-0.0994054 -0.118604 0)
(-0.0737878 -0.0807738 0)
(-0.0569728 -0.0536017 0)
(-0.0475406 -0.0344645 0)
(-0.0419436 -0.0221361 0)
(-0.0355602 -0.014946 0)
(-0.0289438 -0.010235 0)
(-0.0238059 -0.00684405 0)
(-0.0201793 -0.00436607 0)
(-0.0177355 -0.00247301 0)
(-0.0162356 -0.00082464 0)
(0.0187358 2.42016e-05 0)
(0.0202506 0.000245373 0)
(0.0229927 0.0004664 0)
(0.0272729 0.000557463 0)
(0.0335947 0.000385784 0)
(0.0424204 -0.000230513 0)
(0.0534892 -0.00217934 0)
(0.0668407 -0.00781617 0)
(0.0862462 -0.0186081 0)
(0.114733 -0.0349968 0)
(0.155664 -0.0581469 1.17812e-22)
(0.213816 -0.0910143 0)
(0.294163 -0.139128 0)
(0.39123 -0.203185 1.03109e-21)
(0.49758 -0.327114 -3.95751e-21)
(0.420924 -0.52304 6.44155e-21)
(0.314599 -0.798708 -3.95347e-22)
(0.271392 -1.16564 6.14356e-22)
(0.200321 -1.49701 -2.56212e-22)
(0.103191 -1.71771 2.14384e-20)
(-0.0278324 -1.77237 -1.4974e-21)
(-0.142677 -1.62204 3.41673e-21)
(-0.239814 -1.33158 1.1939e-21)
(-0.308042 -0.968663 9.36853e-23)
(-0.367036 -0.620924 4.19659e-23)
(-0.501802 -0.320729 4.33411e-21)
(-0.3923 -0.200478 -3.02404e-22)
(-0.293635 -0.13773 0)
(-0.213074 -0.0904824 0)
(-0.155104 -0.0579986 -8.65398e-23)
(-0.113621 -0.0350063 0)
(-0.0849357 -0.0186547 0)
(-0.0658521 -0.00787805 0)
(-0.0524733 -0.00222532 0)
(-0.0413765 -0.000309734 0)
(-0.0325316 0.000313752 0)
(-0.0262016 0.000476538 0)
(-0.0219145 0.000396659 -5.44199e-24)
(-0.0191671 0.00019491 -3.90414e-24)
(-0.0176499 4.78029e-06 0)
(0.0172297 0.000962049 0)
(0.0184728 0.00317279 0)
(0.0209862 0.00571265 0)
(0.025115 0.00866972 0)
(0.0313815 0.0121867 0)
(0.0406788 0.0163618 0)
(0.0540631 0.0208711 0)
(0.0720503 0.024095 0)
(0.0967501 0.0253856 0)
(0.130791 0.0254074 0)
(0.178762 0.0247824 5.16077e-22)
(0.247188 0.0245596 0)
(0.34545 0.0194226 0)
(0.478564 0.0114677 1.83861e-21)
(0.643623 -0.0163401 -9.08824e-21)
(0.751201 -0.10884 2.94354e-21)
(0.759391 -0.223791 0)
(0.670382 -0.322542 -1.95121e-21)
(0.479427 -0.412127 1.30006e-20)
(0.17879 -0.434352 3.66253e-20)
(-0.181398 -0.43378 -4.34405e-21)
(-0.480056 -0.400166 -1.51637e-20)
(-0.672358 -0.306196 1.6966e-21)
(-0.76039 -0.207757 0)
(-0.750762 -0.0977273 -3.57572e-21)
(-0.640858 -0.0111941 5.41602e-21)
(-0.475538 0.0134868 -1.70382e-21)
(-0.343075 0.0203944 0)
(-0.245596 0.0248092 0)
(-0.177828 0.0248311 -5.79441e-22)
(-0.12962 0.0253265 0)
(-0.0954562 0.0253887 0)
(-0.0710675 0.0241022 0)
(-0.0530237 0.0208789 0)
(-0.039602 0.0163358 0)
(-0.0303049 0.012151 9.84531e-24)
(-0.0240458 0.00861415 -1.27938e-23)
(-0.0199286 0.00566011 0)
(-0.0174239 0.00313482 0)
(-0.0161829 0.000945621 -3.0065e-23)
(0.0130151 0.00182294 0)
(0.0137319 0.00578698 0)
(0.0154472 0.0103733 0)
(0.0184836 0.0158813 0)
(0.0232666 0.0227235 0)
(0.0309261 0.031334 0)
(0.043452 0.0420584 -4.84102e-24)
(0.0615654 0.0543349 0)
(0.0853997 0.0686018 0)
(0.116531 0.0867629 0)
(0.15967 0.111293 0)
(0.221597 0.147574 0)
(0.315654 0.19393 0)
(0.463178 0.253249 -8.51366e-21)