/*--------------------------------*- C++ -*----------------------------------*\
| =========                 |                                                 |
| \\      /  F ield         | OpenFOAM: The Open Source CFD Toolbox           |
|  \\    /   O peration     | Version:  v2106                                 |
|   \\  /    A nd           | Website:  www.openfoam.com                      |
|    \\/     M anipulation  |                                                 |
\*---------------------------------------------------------------------------*/
FoamFile
{
    version     2.0;
    format      ascii;
    arch        "LSB;label=32;scalar=64";
    class       volVectorField;
    location    "0";
    object      U;
}
// * * * * * * * * * * * * * * * * * * * * * * * * * * * * * * * * * * * * * //

dimensions      [0 1 -1 0 0 0 0];

internalField   nonuniform List<vector> 
11644
(
(0.993285 -0.00021373 1.20048e-23)
(0.993183 -0.000562894 3.31056e-23)
(0.993122 -0.000829673 1.77619e-23)
(0.993105 -0.00109942 0)
(0.993101 -0.00138119 0)
(0.9931 -0.00166983 0)
(0.993101 -0.00195905 0)
(0.993102 -0.00224201 0)
(0.993103 -0.00250882 0)
(0.993109 -0.00274145 0)
(0.993085 -0.00293273 0)
(0.993073 -0.00305355 0)
(0.993156 -0.0030816 0)
(0.993296 -0.00304145 0)
(0.993141 -0.00282013 0)
(0.993184 -0.00259963 0)
(0.993086 -0.00226568 0)
(0.992726 -0.0015794 0)
(0.99247 -0.000501177 0)
(0.992554 0.000558608 3.26865e-30)
(0.992744 0.00143425 -3.27803e-30)
(0.992966 0.00216692 0)
(0.993113 0.00274673 0)
(0.993175 0.00324533 0)
(0.993084 0.00358865 0)
(0.99306 0.00381406 0)
(0.993208 0.00391428 0)
(0.993043 0.00389367 0)
(0.99305 0.00376114 0)
(0.993085 0.00353818 0)
(0.993077 0.00326009 0)
(0.993087 0.00293552 0)
(0.99309 0.00259118 0)
(0.993094 0.00223739 0)
(0.993097 0.00188619 0)
(0.993101 0.00154637 0)
(0.993106 0.00122321 0)
(0.993121 0.0009208 0)
(0.993189 0.000628126 0)
(0.993306 0.000238473 2.3276e-24)
(0.994015 -0.000430358 1.542e-23)
(0.993944 -0.00130204 1.42839e-23)
(0.993896 -0.00217196 7.67142e-24)
(0.99389 -0.00303469 0)
(0.993905 -0.00389673 0)
(0.99392 -0.00476271 0)
(0.993926 -0.00562512 0)
(0.993914 -0.00646452 0)
(0.993878 -0.00725082 0)
(0.993789 -0.00794846 0)
(0.9937 -0.00848853 0)
(0.993536 -0.00883517 0)
(0.993178 -0.0088996 0)
(0.992671 -0.00858269 0)
(0.992531 -0.0079324 0)
(0.992029 -0.00679315 -5.01529e-24)
(0.991269 -0.0050288 -5.50827e-24)
(0.990603 -0.00273797 -7.6107e-23)
(0.990379 -0.000218816 2.72567e-23)
(0.990481 0.00231833 8.80359e-22)
(0.990638 0.00470737 -7.72483e-22)
(0.990783 0.00692797 -7.28354e-23)
(0.991105 0.00895243 1.03404e-23)
(0.991578 0.0105868 1.00721e-23)
(0.992239 0.0117345 -5.75693e-26)
(0.992759 0.012343 0)
(0.99297 0.0125426 0)
(0.993566 0.0122636 0)
(0.993808 0.0117072 0)
(0.993942 0.0109239 0)
(0.994071 0.00994986 0)
(0.994102 0.00889393 0)
(0.99411 0.00778739 0)
(0.994088 0.00667488 0)
(0.994052 0.00558192 0)
(0.994012 0.00452406 0)
(0.993979 0.00350082 0)
(0.99398 0.00249451 0)
(0.994039 0.00148264 0)
(0.994122 0.000490188 0)
(0.995477 -0.000676426 0)
(0.995432 -0.00205942 0)
(0.995413 -0.00349063 0)
(0.995432 -0.00492524 0)
(0.995473 -0.00636354 1.40859e-23)
(0.995512 -0.00780622 0)
(0.995525 -0.00924386 0)
(0.995486 -0.0106478 0)
(0.995359 -0.0119761 0)
(0.995134 -0.0131538 0)
(0.994696 -0.014118 0)
(0.994059 -0.0147292 0)
(0.993332 -0.0148328 1.4045e-24)
(0.992487 -0.0143692 2.24082e-23)
(0.990969 -0.0130291 4.15012e-22)
(0.989416 -0.0108052 -2.63686e-22)
(0.98775 -0.00769725 4.16271e-22)
(0.986364 -0.00394534 -1.51942e-22)
(0.985609 0.000352116 -3.27719e-22)
(0.985483 0.00513187 -6.3956e-22)
(0.985912 0.00990033 2.40285e-22)
(0.986757 0.0141266 9.90805e-22)
(0.987932 0.0175561 -7.44867e-23)
(0.989454 0.0201845 -6.36528e-22)
(0.990926 0.0219004 4.21641e-22)
(0.992394 0.02271 -3.97112e-22)
(0.994034 0.0226211 -1.53055e-23)
(0.994719 0.0219515 -1.58026e-24)
(0.995475 0.0206835 0)
(0.995984 0.0190223 0)
(0.996203 0.0171717 0)
(0.996298 0.0151869 0)
(0.996263 0.0131916 0)
(0.996166 0.0112248 0)
(0.99604 0.00932036 0)
(0.995913 0.00748905 0)
(0.995808 0.00572435 0)
(0.995745 0.00401311 0)
(0.995739 0.00235249 0)
(0.995777 0.000760138 0)
(0.997685 -0.000929117 0)
(0.997656 -0.00283452 0)
(0.997672 -0.00478388 0)
(0.997729 -0.00676776 0)
(0.997804 -0.00878457 0)
(0.997871 -0.0108271 0)
(0.997893 -0.0128801 0)
(0.997817 -0.0149132 0)
(0.997589 -0.0168674 0)
(0.997099 -0.0186766 0)
(0.996351 -0.0201734 -1.98563e-24)
(0.995248 -0.0212058 1.23559e-22)
(0.99351 -0.021593 -1.29915e-22)
(0.990907 -0.0210185 -2.36003e-22)
(0.988397 -0.0192539 1.7203e-22)
(0.985268 -0.016107 -2.58869e-22)
(0.982037 -0.0116267 4.65495e-22)
(0.979207 -0.00603115 1.41298e-21)
(0.977273 0.0007747 -2.46337e-21)
(0.976734 0.00836003 2.15419e-21)
(0.977547 0.015904 -1.47566e-21)
(0.979507 0.0227412 -1.76797e-21)
(0.98228 0.0283 2.22055e-21)
(0.985567 0.0321194 -5.38165e-22)
(0.989064 0.0344005 1.08194e-22)
(0.992417 0.0351702 -4.92611e-23)
(0.99463 0.0347692 2.27044e-22)
(0.997126 0.0328982 1.00553e-22)
(0.998526 0.0304934 -6.24433e-23)
(0.99933 0.0276765 1.33926e-24)
(0.999737 0.0246324 0)
(0.999783 0.0215728 0)
(0.999647 0.0185539 0)
(0.999396 0.0156566 0)
(0.999101 0.0129037 0)
(0.998811 0.0102997 0)
(0.998562 0.0078361 0)
(0.998383 0.00548519 0)
(0.998291 0.00322708 0)
(0.998281 0.00107205 0)
(1.00059 -0.00119896 0)
(1.00058 -0.00362179 0)
(1.00065 -0.00608426 0)
(1.00076 -0.00860808 0)
(1.00091 -0.0111927 0)
(1.00104 -0.0138565 0)
(1.0011 -0.0165854 0)
(1.00101 -0.0193496 0)
(1.00069 -0.0221033 0)
(1.00002 -0.0247214 -7.20577e-24)
(0.998825 -0.0270556 -2.66015e-22)
(0.99676 -0.0289366 -4.8288e-22)
(0.99389 -0.0299605 -3.24431e-22)
(0.990402 -0.0297668 -1.81803e-22)
(0.985154 -0.0280433 2.1648e-21)
(0.979623 -0.0242881 -5.83732e-22)
(0.974278 -0.0186861 1.14271e-22)
(0.968869 -0.0109396 1.90241e-21)
(0.964673 -0.0008765 -3.21607e-21)
(0.963051 0.0108896 2.93634e-24)
(0.964619 0.0229728 1.41553e-21)
(0.969022 0.0338642 5.29604e-22)
(0.974938 0.0422995 -8.01774e-22)
(0.982011 0.0474436 -5.35883e-22)
(0.987956 0.0498048 8.82347e-22)
(0.993398 0.0501546 -1.55796e-21)
(0.99876 0.0480835 2.22946e-23)
(1.00121 0.0452317 6.3477e-22)
(1.00325 0.0411643 -2.85271e-23)
(1.00434 0.0366406 3.1165e-22)
(1.00475 0.0320972 2.95451e-24)
(1.0047 0.0277141 0)
(1.00432 0.0235886 0)
(1.00379 0.0197256 0)
(1.00321 0.0161356 0)
(1.00267 0.0127985 0)
(1.0022 0.00968751 0)
(1.00184 0.0067657 0)
(1.00162 0.00398037 0)
(1.00154 0.00128842 0)
(1.00417 -0.0014544 0)
(1.00419 -0.00436264 0)
(1.00432 -0.0073701 0)
(1.00454 -0.0104216 0)
(1.00479 -0.0135977 0)
(1.00505 -0.0169096 0)
(1.00524 -0.0203741 0)
(1.00525 -0.0239868 0)
(1.00496 -0.0276996 -1.20634e-23)
(1.00413 -0.031398 2.17321e-22)
(1.00237 -0.0349634 -1.97395e-23)
(0.999576 -0.0380706 -1.16365e-21)
(0.995504 -0.0404821 1.08548e-21)
(0.98902 -0.0419772 4.7704e-22)
(0.982311 -0.0408831 -1.04352e-21)
(0.973599 -0.0373358 -1.79202e-22)
(0.96319 -0.0310879 6.68225e-22)
(0.953508 -0.0207199 1.83593e-23)
(0.945669 -0.00583645 -5.19183e-21)
(0.94228 0.0115272 7.3532e-21)
(0.944476 0.0294418 -5.68824e-21)
(0.951688 0.045953 2.87529e-21)
(0.962465 0.0593922 5.22653e-22)
(0.975229 0.0668946 1.34643e-21)
(0.986671 0.068819 -1.158e-21)
(0.996598 0.06817 9.93948e-22)
(1.00292 0.0651238 -1.11741e-21)
(1.00849 0.0583228 -9.34011e-22)
(1.01093 0.0518509 1.09098e-21)
(1.01176 0.045327 -2.58596e-22)
(1.01169 0.0390316 1.48417e-22)
(1.01115 0.0332091 -1.67812e-23)
(1.01032 0.0279078 0)
(1.00931 0.0231082 0)
(1.0083 0.0187548 0)
(1.00737 0.0147983 0)
(1.00658 0.0111688 0)
(1.00597 0.00779997 0)
(1.00557 0.00461385 0)
(1.0054 0.00155052 0)
(1.00836 -0.00164701 0)
(1.00844 -0.0050635 0)
(1.00869 -0.00848441 0)
(1.00906 -0.0120755 0)
(1.00952 -0.0158465 0)
(1.01001 -0.0198477 0)
(1.01046 -0.0241203 0)
(1.01074 -0.0286909 -7.34346e-24)
(1.01059 -0.0335073 -4.45367e-24)
(1.0096 -0.0385658 -2.1744e-22)
(1.00756 -0.0436775 -8.57572e-22)
(1.00423 -0.0487319 1.48845e-21)
(0.99927 -0.0536977 6.40157e-22)
(0.99314 -0.0573686 -1.21929e-21)
(0.981664 -0.0603134 8.69071e-22)
(0.967772 -0.0590048 -9.4717e-22)
(0.958331 -0.0471214 -2.98194e-22)
(0.943526 -0.0362155 -5.83425e-21)
(0.929903 -0.0180126 -5.4207e-21)
(0.921975 0.00605247 5.89774e-21)
(0.923167 0.032308 2.36934e-21)
(0.932672 0.0557691 -3.81683e-21)
(0.947761 0.0735227 -3.84984e-21)
(0.965089 0.0831338 -5.85383e-21)
(0.98808 0.0951313 1.16177e-21)
(1.00287 0.091181 -1.18635e-21)
(1.01492 0.0813054 1.53849e-21)
(1.01891 0.0730985 -1.28954e-21)
(1.02164 0.0627685 -6.27862e-22)
(1.02199 0.053266 5.16628e-22)
(1.02089 0.0448845 7.29855e-23)
(1.01927 0.0375666 1.05681e-22)
(1.01754 0.0311763 -3.71443e-24)
(1.01583 0.0255674 0)
(1.01418 0.0206098 0)
(1.01272 0.0161814 0)
(1.01151 0.0121737 0)
(1.01058 0.00847893 0)
(1.00997 0.00497834 0)
(1.00969 0.00161886 0)
(1.01311 -0.00192552 0)
(1.01327 -0.00567614 0)
(1.01367 -0.00959506 0)
(1.01427 -0.013657 0)
(1.01504 -0.0179525 0)
(1.01592 -0.0225983 0)
(1.01683 -0.0276742 0)
(1.01756 -0.033213 6.19257e-23)
(1.01759 -0.0392122 -2.79884e-22)
(1.01681 -0.0456142 -1.1818e-22)
(1.01513 -0.0524862 -2.12143e-22)
(1.01226 -0.0599535 2.76754e-22)
(1.00778 -0.0676141 1.3289e-22)
(0.997742 -0.0728298 -1.27512e-21)
(0.988682 -0.076319 3.12671e-22)
(0.972124 -0.0811741 1.59536e-21)
(0.948136 -0.0795369 -1.87348e-21)
(0.922982 -0.067899 3.03995e-21)
(0.896214 -0.0440786 -2.37335e-21)
(0.87792 -0.00635881 -2.37888e-21)
(0.877322 0.038528 2.70873e-22)
(0.894835 0.0787149 6.60495e-21)
(0.924466 0.105755 -1.77711e-21)
(0.956814 0.117674 2.90662e-21)
(0.986232 0.119538 -8.52394e-22)
(1.00812 0.110726 2.44408e-21)
(1.02132 0.0989825 -8.35389e-22)
(1.03538 0.0853806 -7.23848e-22)
(1.03651 0.0721749 5.4644e-22)
(1.03528 0.0598892 3.14467e-22)
(1.03244 0.0491792 5.1008e-24)
(1.02912 0.0402752 -1.99159e-23)
(1.02589 0.0329298 1.72194e-24)
(1.0231 0.0267532 0)
(1.02062 0.0214122 0)
(1.01849 0.0167116 0)
(1.01676 0.0125108 0)
(1.01545 0.00867153 0)
(1.0146 0.0051307 0)
(1.01419 0.00168293 0)
(1.01832 -0.00195337 0)
(1.01858 -0.00607466 0)
(1.01919 -0.0103024 0)
(1.02012 -0.0147374 0)
(1.02133 -0.0195408 0)
(1.02278 -0.0247877 0)
(1.02438 -0.0305985 4.37049e-24)
(1.02566 -0.0370118 3.02049e-24)
(1.02608 -0.0440017 -1.01179e-22)
(1.02607 -0.0516103 1.74448e-22)
(1.02553 -0.0602797 -2.91899e-22)
(1.02416 -0.0705277 -8.41617e-23)
(1.02086 -0.0839797 3.33236e-22)
(1.00997 -0.0942665 1.45257e-21)
(0.999345 -0.104774 -2.38954e-22)
(0.980587 -0.119214 3.19532e-22)
(0.952575 -0.121495 -1.87727e-21)
(0.908225 -0.118762 1.1276e-21)
(0.858306 -0.0933403 -5.19238e-22)
(0.815293 -0.0367412 5.02472e-21)
(0.805764 0.0421466 -1.4389e-21)
(0.836459 0.112444 -6.45742e-21)
(0.890343 0.153229 2.06638e-23)
(0.948069 0.165743 3.28728e-21)
(0.991882 0.157076 -2.53202e-21)
(1.02722 0.141263 -7.19525e-22)
(1.04212 0.120254 2.48756e-21)
(1.05715 0.0985638 -3.56121e-22)
(1.05579 0.0791036 5.89699e-22)
(1.05174 0.0637644 -1.06594e-22)
(1.04622 0.0511643 -1.41959e-22)
(1.04049 0.0409651 1.20784e-22)
(1.03512 0.0328632 -1.37319e-22)
(1.03077 0.0263963 -6.26774e-24)
(1.02729 0.0210027 0)
(1.0244 0.01635 0)
(1.02208 0.0122351 0)
(1.02036 0.0085195 0)
(1.01922 0.00499039 0)
(1.01868 0.00170693 0)
(1.02383 -0.00218741 0)
(1.02423 -0.00638821 0)
(1.02511 -0.0107456 0)
(1.02644 -0.0154112 0)
(1.02823 -0.0204871 0)
(1.03044 -0.0261091 0)
(1.0329 -0.0324124 1.01493e-23)
(1.0348 -0.0394187 -9.31595e-23)
(1.03597 -0.046996 4.82836e-23)
(1.0373 -0.0555063 6.93778e-23)
(1.03881 -0.0658334 -1.99753e-22)
(1.04034 -0.078702 9.96326e-23)
(1.04149 -0.0957253 4.80161e-23)
(1.03489 -0.112743 3.04925e-24)
(1.02732 -0.133025 -4.88061e-23)
(1.00537 -0.160441 4.64259e-22)
(0.971954 -0.183225 -2.4765e-22)
(0.911045 -0.207871 -6.45696e-22)
(0.812028 -0.20331 4.00673e-21)
(0.695836 -0.122147 1.94739e-21)
(0.649529 0.0436197 -1.79584e-21)
(0.725702 0.198219 8.5201e-22)
(0.854766 0.259262 -1.99627e-21)
(0.95733 0.247644 2.6631e-22)
(1.02595 0.212356 -1.53744e-22)
(1.06644 0.172677 -6.96983e-22)
(1.07685 0.134565 3.63549e-22)
(1.08648 0.102765 8.24789e-23)
(1.07929 0.0801027 -5.85641e-23)
(1.07089 0.0632564 5.46166e-23)
(1.06169 0.049795 -4.0961e-23)
(1.05283 0.0390129 3.44066e-23)
(1.04483 0.0306847 -7.75032e-23)
(1.03844 0.024338 2.47142e-24)
(1.03376 0.0192532 0)
(1.03003 0.0149199 0)
(1.02711 0.0111096 0)
(1.02496 0.00768349 0)
(1.02357 0.00451948 0)
(1.02291 0.0014034 0)
(1.02941 -0.00193314 0)
(1.02997 -0.00625012 0)
(1.03118 -0.0106563 0)
(1.03303 -0.0153732 0)
(1.03552 -0.0204972 0)
(1.03863 -0.0262333 0)
(1.04199 -0.0326688 2.01717e-23)
(1.04454 -0.039718 -3.64757e-23)
(1.04682 -0.0474049 8.7244e-24)
(1.05008 -0.0562872 -3.90856e-23)
(1.05458 -0.0672535 5.89955e-23)
(1.06058 -0.0812025 1.48505e-22)
(1.06833 -0.098014 -2.02229e-22)
(1.06948 -0.121045 3.37261e-23)
(1.07195 -0.151123 -3.01145e-22)
(1.06675 -0.193713 9.30459e-24)
(1.04559 -0.252051 -1.66851e-23)
(0.989673 -0.344689 4.3188e-23)
(0.826394 -0.449168 -1.70419e-21)
(0.459488 -0.424108 -5.68936e-20)
(0.187339 0.0621643 -5.90091e-21)
(0.518226 0.513285 -3.63342e-20)
(0.889363 0.497603 1.44238e-21)
(1.05395 0.366628 2.82206e-23)
(1.11185 0.260382 -6.00869e-23)
(1.13045 0.181994 8.12882e-23)
(1.12399 0.137994 1.36812e-24)
(1.11946 0.0926859 -1.13031e-23)
(1.10527 0.0726787 3.99091e-23)
(1.09125 0.0565678 -1.42006e-23)
(1.07761 0.0438259 4.7062e-24)
(1.06523 0.0338292 -2.45839e-23)
(1.05433 0.0261854 3.97694e-23)
(1.04559 0.0205056 -1.30797e-23)
(1.03959 0.0161943 0)
(1.03507 0.0125766 0)
(1.0316 0.00941131 0)
(1.02905 0.00651335 0)
(1.02743 0.00389121 0)
(1.02663 0.00132151 0)
(1.03486 -0.00217654 0)
(1.03562 -0.00597908 0)
(1.03718 -0.0100821 0)
(1.03955 -0.0144441 0)
(1.04277 -0.0192967 0)
(1.04684 -0.024784 0)
(1.05102 -0.0308968 -5.76019e-24)
(1.05423 -0.0374181 1.04419e-23)
(1.05781 -0.0445389 2.82973e-23)
(1.06332 -0.0529148 5.58708e-23)
(1.07103 -0.0629266 1.00948e-22)
(1.08152 -0.0751096 1.55537e-22)
(1.0965 -0.0902337 -3.42335e-22)
(1.1048 -0.113581 -6.13184e-23)
(1.12562 -0.141127 3.10364e-22)
(1.14506 -0.18816 -8.11621e-23)
(1.17172 -0.259482 1.71506e-22)
(1.21369 -0.393398 1.25218e-21)
(0.903285 -0.48309 -8.73769e-20)
(1.11947 0.588246 5.81308e-20)
(1.29267 0.389694 7.95473e-23)
(1.24117 0.239535 2.94579e-22)
(1.20689 0.15269 -7.44622e-23)
(1.17556 0.113764 -6.74248e-23)
(1.15248 0.0694591 2.46066e-22)
(1.1296 0.0543297 -1.11146e-22)
(1.10962 0.0421298 -7.10646e-23)
(1.09174 0.0326216 -5.94703e-23)
(1.07616 0.0251674 -2.08953e-23)
(1.06266 0.0193743 -1.44653e-23)
(1.05166 0.0150843 -2.24304e-24)
(1.0443 0.0119789 0)
(1.03919 0.00944237 0)
(1.0353 0.00717056 0)
(1.03246 0.00508113 0)
(1.03055 0.00296581 0)
(1.02966 0.00105811 0)
(1.03988 -0.00155129 0)
(1.04083 -0.00515894 0)
(1.04274 -0.00877443 0)
(1.04564 -0.0126308 0)
(1.0496 -0.0169088 0)
(1.05458 -0.0217507 0)
(1.05941 -0.0270452 3.95738e-25)
(1.06319 -0.0325542 -1.20243e-23)
(1.06805 -0.0385662 -1.50746e-25)
(1.07551 -0.0455886 8.72114e-23)
(1.08593 -0.0537392 -1.20558e-22)
(1.09971 -0.062745 1.23034e-22)
(1.1188 -0.0725848 3.21165e-22)
(1.13416 -0.09016 1.72924e-22)
(1.16738 -0.105235 4.91526e-21)
(1.20568 -0.133778 -1.19803e-22)
(1.26986 -0.171214 4.22097e-23)
(1.36634 -0.210383 2.08225e-21)
(0.0157254 0.00814134 4.21257e-19)
(0.0510245 -0.00058042 -1.73092e-19)
(1.45753 0.202665 -2.95413e-22)
(1.33863 0.139732 1.87571e-22)
(1.26614 0.0859206 1.91125e-21)
(1.21703 0.0634869 2.6145e-21)
(1.1748 0.0320287 5.84743e-22)
(1.14607 0.0261638 -2.50747e-22)
(1.12208 0.0209419 -3.19287e-23)
(1.10161 0.0169014 3.96903e-23)
(1.08394 0.0135134 -1.13328e-23)
(1.06853 0.0106758 -3.96994e-24)
(1.05583 0.00848747 7.11356e-24)
(1.04738 0.00696618 0)
(1.04178 0.00567259 0)
(1.0376 0.00436385 0)
(1.03465 0.00310284 0)
(1.0328 0.00188919 0)
(1.03188 0.000509548 0)
(1.04412 -0.00124789 -2.81747e-25)
(1.04528 -0.00398907 0)
(1.04756 -0.00686927 0)
(1.05096 -0.00999829 0)
(1.05553 -0.0133828 0)
(1.06123 -0.0171789 0)
(1.0665 -0.0212469 -5.43287e-24)
(1.07082 -0.0255147 1.42417e-23)
(1.07686 -0.0302257 1.25455e-22)
(1.08579 -0.0356866 -5.66222e-22)
(1.09783 -0.0418124 5.35166e-22)
(1.11285 -0.0477337 5.24505e-22)
(1.13184 -0.0525164 -6.64152e-22)
(1.14852 -0.0614526 9.438e-22)
(1.18039 -0.061955 -9.64125e-23)
(1.22085 -0.0644251 9.82237e-22)
(1.28491 -0.0600229 -1.05178e-21)
(1.25453 -0.023386 -2.66154e-22)
(0.129465 0.0122032 -4.05067e-21)
(0.18045 0.0370997 1.35644e-20)
(1.4396 0.0291536 -4.05577e-22)
(1.36812 0.0218126 -3.60657e-22)
(1.28846 0.00227722 -1.54602e-21)
(1.23424 -0.000215687 1.87475e-22)
(1.18163 -0.0128171 3.55543e-22)
(1.15086 -0.00702283 -5.01751e-22)
(1.12566 -0.00375031 -1.70715e-22)
(1.1047 -0.00121216 -2.80662e-23)
(1.08671 0.000262622 1.19456e-22)
(1.07102 0.00101981 -1.40713e-24)
(1.05767 0.00145651 7.16757e-24)
(1.0488 0.00176619 0)
(1.04324 0.00183517 0)
(1.03912 0.00165354 0)
(1.03615 0.00129244 0)
(1.03425 0.000859806 0)
(1.03329 0.000329017 0)
(1.04796 -0.00120552 5.52371e-27)
(1.04909 -0.0028572 0)
(1.05152 -0.00471288 0)
(1.05516 -0.00669522 0)
(1.06007 -0.00884711 0)
(1.06618 -0.0112715 0)
(1.07192 -0.0139446 -2.1263e-24)
(1.07692 -0.0168874 -2.42249e-24)
(1.08408 -0.0203973 -1.07517e-22)
(1.09397 -0.0245277 1.64081e-22)
(1.10649 -0.0291037 5.92693e-22)
(1.12117 -0.0336323 -2.94543e-22)
(1.1371 -0.0376513 -2.325e-22)
(1.14972 -0.0393651 -7.03818e-23)
(1.16818 -0.0334488 1.26622e-21)
(1.1909 -0.0137433 -1.7987e-21)
(1.22768 0.0293847 1.98384e-21)
(1.09521 0.139568 8.21799e-22)
(0.116935 0.250388 1.34113e-21)
(-0.24107 0.389549 4.56711e-22)
(-0.0859666 0.534249 8.55711e-23)
(0.199642 0.439254 -9.53899e-23)
(0.542654 0.0708984 9.4099e-22)
(1.43577 -0.0899157 2.82955e-21)
(1.36302 -0.091857 -2.04194e-21)
(1.27727 -0.0841247 -2.01869e-21)
(1.22343 -0.0652505 1.72507e-21)
(1.16884 -0.0561544 4.72136e-22)
(1.14125 -0.039757 1.86684e-22)
(1.11871 -0.0279816 -4.62634e-22)
(1.0998 -0.0188067 1.84849e-22)
(1.08346 -0.0124282 -5.24485e-23)
(1.069 -0.00804034 -6.46057e-23)
(1.05646 -0.00496293 3.72943e-24)
(1.04814 -0.00282148 0)
(1.043 -0.00147903 0)
(1.03924 -0.000696224 0)
(1.03652 -0.000298854 0)
(1.03473 -0.000164666 0)
(1.03386 -2.9482e-05 0)
(1.05035 -0.000127469 4.88355e-23)
(1.05158 -0.00102712 0)
(1.05386 -0.0018641 0)
(1.05754 -0.00270496 0)
(1.06269 -0.0035478 0)
(1.06912 -0.00444089 0)
(1.07553 -0.00560164 -2.48832e-25)
(1.08131 -0.00724092 -5.42113e-23)
(1.08951 -0.00962093 1.38099e-22)
(1.10034 -0.012817 -2.70369e-22)
(1.11316 -0.0167163 4.42846e-22)
(1.12758 -0.0217026 -7.3211e-22)
(1.14092 -0.0277486 6.58194e-22)
(1.14722 -0.0323676 -1.19746e-21)
(1.15054 -0.0331962 2.53602e-22)
(1.13835 -0.0215993 -2.54081e-22)
(1.10657 0.0254581 -4.69036e-21)
(0.748535 0.184098 -1.08303e-20)
(-0.134473 0.41761 2.4266e-21)
(-0.354193 0.448506 9.08574e-21)
(0.0871777 0.280002 -3.71572e-21)
(0.601909 0.06773 -8.18453e-21)
(1.12339 -0.201936 1.07329e-21)
(1.41957 -0.275204 -6.36976e-21)
(1.31643 -0.213232 2.02945e-21)
(1.23152 -0.166138 4.23234e-22)
(1.1864 -0.120974 -2.8297e-21)
(1.13707 -0.089652 4.46109e-22)
(1.11726 -0.0646693 -2.66861e-22)
(1.10091 -0.0462811 -8.8003e-22)
(1.08693 -0.0319912 7.72287e-22)
(1.07434 -0.0217308 -3.83092e-22)
(1.06267 -0.0143692 4.93691e-23)
(1.05232 -0.00948706 1.34948e-24)
(1.04555 -0.00633323 0)
(1.04137 -0.00420466 0)
(1.03825 -0.00270847 0)
(1.03598 -0.00166195 0)
(1.03446 -0.000856361 0)
(1.03386 -0.000251702 2.73629e-23)
(1.05024 0.000295259 1.92908e-22)
(1.05175 0.000799644 0)
(1.05427 0.00128942 0)
(1.05801 0.0017153 0)
(1.06319 0.00222669 0)
(1.06975 0.00291247 0)
(1.07683 0.00341626 0)
(1.08375 0.00308481 -6.28822e-24)
(1.09278 0.00182857 -5.90206e-23)
(1.10453 -0.000284818 7.76909e-23)
(1.11858 -0.00369389 -6.57574e-23)
(1.13468 -0.00950398 4.16524e-22)
(1.15081 -0.0172468 -2.04416e-22)
(1.16531 -0.0347619 -1.13144e-22)
(1.15836 -0.046665 2.07402e-22)
(1.14186 -0.0762101 2.65818e-22)
(1.05112 -0.0901682 -4.22748e-22)
(0.449337 0.00199587 -5.44015e-20)
(-0.208649 0.0357941 -2.78054e-22)
(-0.0653028 -0.175148 -8.18801e-21)
(0.386819 -0.398478 7.11906e-21)
(0.825434 -0.55149 3.81605e-21)
(1.26798 -0.592403 -1.97265e-22)
(1.27379 -0.435879 -2.73302e-22)
(1.18375 -0.306014 8.70384e-22)
(1.14925 -0.223491 -2.26849e-21)
(1.10245 -0.151118 -5.83469e-22)
(1.09164 -0.106434 -2.43996e-23)
(1.0833 -0.076803 1.09675e-23)
(1.07556 -0.0547922 -4.14039e-23)
(1.06846 -0.0378744 -1.04911e-22)
(1.06122 -0.0256207 1.04984e-22)
(1.05361 -0.016847 4.04842e-23)
(1.04654 -0.0110146 0)
(1.04184 -0.00748234 0)
(1.03884 -0.0051613 0)
(1.03654 -0.00344406 0)
(1.03485 -0.00219842 0)
(1.03379 -0.00115799 0)
(1.03333 -0.000397275 -2.05789e-23)
(1.04904 0.000617953 2.44386e-24)
(1.05037 0.00219553 0)
(1.05283 0.00399234 0)
(1.05645 0.00582979 0)
(1.06142 0.00780941 0)
(1.06782 0.010097 0)
(1.07539 0.0124627 0)
(1.0837 0.0139789 0)
(1.09394 0.0144297 1.30715e-24)
(1.10679 0.014084 2.09704e-23)
(1.12278 0.0128194 -1.54959e-24)
(1.14244 0.00892965 -1.04301e-22)
(1.16577 0.00317358 -1.84137e-22)
(1.19266 -0.0100553 5.03025e-22)
(1.20057 -0.0421755 2.12686e-22)
(1.22181 -0.0950517 1.10035e-21)
(1.11378 -0.179071 -6.51965e-22)
(0.440804 -0.254852 2.70744e-21)
(0.118634 -0.492101 2.48396e-21)
(0.235771 -0.72866 1.70654e-23)
(0.55111 -0.832425 1.08859e-20)
(0.846183 -0.817335 -6.12121e-21)
(0.997324 -0.671449 9.27213e-21)
(1.04599 -0.474666 7.52042e-21)
(1.03485 -0.319667 2.60314e-22)
(1.04512 -0.227266 -1.56054e-22)
(1.03335 -0.145518 -2.18975e-22)
(1.04118 -0.100911 6.06206e-22)
(1.04509 -0.0730763 -2.41861e-22)
(1.04706 -0.0516249 -1.52225e-22)
(1.0474 -0.0354774 1.62783e-23)
(1.04592 -0.0237111 -2.07747e-23)
(1.04314 -0.0152171 0)
(1.04018 -0.00966099 0)
(1.03792 -0.00657332 0)
(1.0362 -0.00458302 0)
(1.03473 -0.00310599 2.22353e-23)
(1.03355 -0.00203434 3.07499e-23)
(1.03273 -0.00117117 1.83365e-23)
(1.03227 -0.000330944 0)
(1.04658 0.00110323 0)
(1.04768 0.00352206 0)
(1.04979 0.0062038 0)
(1.05302 0.00918142 0)
(1.05748 0.0125254 0)
(1.0634 0.0163925 0)
(1.07107 0.0207732 0)
(1.08047 0.0248773 0)
(1.09192 0.0283235 -3.24717e-26)
(1.10575 0.0314781 -3.80834e-24)
(1.12323 0.0349 -1.80249e-23)
(1.14591 0.0373756 -2.12434e-22)
(1.17519 0.0399518 -2.42369e-22)
(1.21328 0.0425961 -9.90728e-22)
(1.24907 0.0137991 2.08135e-21)
(1.31779 -0.0185676 -1.16908e-21)
(1.26703 -0.109679 -7.76399e-22)
(0.783969 -0.32517 5.07427e-22)
(0.443834 -0.598355 1.16133e-21)
(0.394214 -0.765811 -4.76934e-21)
(0.512596 -0.786053 4.20917e-21)
(0.673698 -0.677713 6.74375e-21)
(0.788784 -0.530473 -1.81519e-21)
(0.837624 -0.402701 9.95462e-22)
(0.889287 -0.261028 -1.33e-21)
(0.946882 -0.181216 2.59161e-22)
(0.971866 -0.104352 7.22285e-23)
(0.99465 -0.0722648 9.40625e-23)
(1.0114 -0.0516417 2.25506e-23)
(1.0221 -0.0358908 -1.29587e-23)
(1.02862 -0.0242281 6.63894e-25)
(1.03202 -0.0156639 9.27067e-27)
(1.03372 -0.00953419 0)
(1.03451 -0.00584782 0)
(1.03456 -0.00400021 0)
(1.03391 -0.00282491 0)
(1.03303 -0.00195429 0)
(1.03219 -0.00128697 0)
(1.03157 -0.000770704 0)
(1.03131 -0.000242194 -3.30243e-24)
(1.04288 0.00149921 0)
(1.04371 0.00462179 0)
(1.04539 0.00798248 0)
(1.048 0.0117479 0)
(1.05165 0.0161248 0)
(1.0566 0.0213186 0)
(1.06359 0.0274989 0)
(1.07297 0.0342734 0)
(1.08446 0.0414502 0)
(1.09799 0.0494577 0)
(1.11471 0.0594676 -2.43827e-24)
(1.13647 0.0711651 -1.8136e-24)
(1.16488 0.0865334 2.0485e-23)
(1.20461 0.107531 -4.57783e-23)
(1.25526 0.104427 7.63452e-21)
(1.34409 0.122765 7.84429e-22)
(1.4022 0.0997457 3.58699e-21)
(1.14625 -0.0269525 8.85097e-22)
(0.801749 -0.291874 5.32887e-22)
(0.578918 -0.528644 -1.30588e-21)
(0.481274 -0.63521 -5.91077e-21)
(0.480483 -0.585321 -1.18137e-20)
(0.556792 -0.429216 -2.46467e-21)
(0.659604 -0.257577 4.24048e-22)
(0.793687 -0.141697 -3.50515e-21)
(0.877005 -0.09623 2.13558e-22)
(0.927626 -0.0329982 1.18166e-22)
(0.964949 -0.0233185 -1.13855e-22)
(0.99128 -0.0150699 -7.01027e-24)
(1.00762 -0.0101648 1.41735e-23)
(1.01783 -0.00625629 0)
(1.02423 -0.00335874 0)
(1.02857 -0.00137546 0)
(1.0316 -0.00054777 0)
(1.03297 -0.000435376 0)
(1.0328 -0.000384399 0)
(1.0321 -0.000317746 0)
(1.03139 -0.000216183 0)
(1.03088 -0.000142207 0)
(1.03059 -8.29657e-05 0)
(1.0383 0.0016449 0)
(1.03884 0.00515926 0)
(1.03998 0.00897271 0)
(1.04179 0.0132772 0)
(1.04433 0.0183385 0)
(1.04787 0.0243927 0)
(1.0534 0.0317121 0)
(1.06144 0.0403086 0)
(1.07123 0.0504657 0)
(1.08215 0.062758 0)
(1.09486 0.078682 0)
(1.11086 0.0986757 -9.77862e-25)
(1.13077 0.125281 -5.48419e-24)
(1.1593 0.16022 -3.74831e-23)
(1.2049 0.186689 2.53095e-21)
(1.26436 0.24774 -2.93821e-23)
(1.36425 0.315843 9.86643e-22)
(1.32131 0.349745 -1.65019e-22)
(1.10077 0.275355 -1.02133e-21)
(0.831825 0.13503 -6.36096e-21)
(0.590477 0.00126125 -6.56459e-21)
(0.429383 -0.0830658 2.91496e-21)
(0.405181 -0.108121 -4.90579e-23)
(0.506679 -0.084459 -1.27763e-21)
(0.727088 -0.00642663 5.94811e-22)
(0.846378 0.0227496 -3.0283e-22)
(0.920307 0.0530835 -2.76097e-22)
(0.964029 0.0357361 -2.28679e-24)
(0.992257 0.0271821 7.28907e-24)
(1.00839 0.0183487 0)
(1.01817 0.0128641 0)
(1.02444 0.00917895 0)
(1.02897 0.00662006 0)
(1.03234 0.00454899 0)
(1.03371 0.00291617 0)
(1.03328 0.00179091 0)
(1.03237 0.00103927 0)
(1.03154 0.000556116 0)
(1.03095 0.000245738 0)
(1.03057 3.2816e-05 0)
(1.03345 0.00165884 0)
(1.0336 0.00525324 0)
(1.03409 0.00915968 0)
(1.03496 0.013602 0)
(1.03622 0.018808 0)
(1.03813 0.025024 0)
(1.04172 0.0326181 0)
(1.04746 0.0418634 0)
(1.05397 0.053421 0)
(1.06027 0.068015 0)
(1.06659 0.0871197 -1.62771e-24)
(1.07342 0.111691 0)
(1.08166 0.143946 0)
(1.09348 0.185513 7.20068e-22)
(1.10559 0.244016 1.80671e-21)
(1.13509 0.301769 4.31286e-21)
(1.18031 0.412501 4.10064e-22)
(1.18101 0.564415 4.14124e-22)
(1.08728 0.675451 8.73594e-22)
(0.924438 0.704854 1.18951e-20)
(0.74878 0.652323 -6.97042e-21)
(0.622299 0.523929 -8.1327e-22)
(0.581391 0.35257 -1.9836e-22)
(0.615328 0.195321 3.94722e-22)
(0.690184 0.12491 -6.68256e-23)
(0.852153 0.173449 7.47183e-21)
(0.951691 0.126209 2.88419e-21)
(0.99703 0.0876672 0)
(1.01688 0.0621112 0)
(1.02518 0.040901 -2.04708e-23)
(1.02949 0.0274524 0)
(1.03204 0.018376 0)
(1.03424 0.0121866 0)
(1.03618 0.00785693 0)
(1.03642 0.00489551 0)
(1.03511 0.00293453 0)
(1.03357 0.00164476 0)
(1.03233 0.000813466 -3.65953e-24)
(1.03145 0.000324115 -2.62539e-24)
(1.03085 4.08925e-05 0)
(1.02862 0.00168621 0)
(1.0284 0.00498642 0)
(1.02831 0.00854023 0)
(1.02835 0.0125091 0)
(1.02843 0.0171223 0)
(1.0287 0.0226357 0)
(1.03009 0.0295405 0)
(1.03289 0.0383652 0)
(1.03531 0.0498142 0)
(1.03613 0.0645909 0)
(1.03532 0.0838461 1.06053e-22)
(1.03246 0.109025 0)
(1.02826 0.141434 0)
(1.02401 0.184207 2.83507e-23)
(1.01802 0.2394 -4.33687e-21)
(0.998882 0.302153 -2.31302e-22)
(0.979223 0.374127 0)
(0.959686 0.459067 4.46118e-22)
(0.916054 0.541263 -3.82115e-21)
(0.856392 0.599558 -1.04922e-20)
(0.796981 0.614727 -6.5575e-21)
(0.779898 0.583866 6.4827e-21)
(0.794844 0.535949 2.73472e-23)
(0.808502 0.457986 0)
(0.80208 0.350721 7.78882e-22)
(0.926493 0.262038 3.68125e-22)
(1.0264 0.169966 -5.37394e-21)
(1.06012 0.116731 0)
(1.05979 0.0784099 0)
(1.05397 0.0504856 -1.16453e-22)
(1.04878 0.0331927 0)
(1.0449 0.021383 0)
(1.0429 0.0133701 0)
(1.04202 0.00800432 0)
(1.04022 0.00463474 0)
(1.03755 0.00256213 6.6206e-24)
(1.03511 0.00129398 -8.60337e-24)
(1.03326 0.000568677 0)
(1.03194 0.000209002 0)
(1.03109 5.09421e-05 -2.02176e-23)
(1.0242 0.00142646 0)
(1.02392 0.00405084 0)
(1.02356 0.00678574 0)
(1.02304 0.0097402 0)
(1.02217 0.0131505 0)
(1.02098 0.0172194 0)
(1.02007 0.0224798 -3.25541e-24)
(1.01961 0.0297382 0)
(1.01785 0.0395921 0)
(1.01352 0.0525359 0)
(1.00614 0.0693524 0)
(0.994846 0.0916338 0)
(0.978664 0.120207 0)
(0.9602 0.15851 4.849e-22)
(0.945119 0.207921 3.26035e-23)
(0.919184 0.267267 3.11747e-23)
(0.884746 0.331417 0)
(0.846795 0.409112 0)
(0.807103 0.490257 -1.85771e-21)
(0.78178 0.568906 -1.72841e-20)
(0.777056 0.595487 -2.01655e-20)
(0.802306 0.586186 1.10965e-21)
(0.846095 0.547767 0)
(0.91039 0.478603 0)
(0.96061 0.364243 0)
(1.06977 0.244495 5.77855e-23)
(1.13623 0.149085 2.2614e-22)
(1.13289 0.100925 4.42611e-23)
(1.10674 0.0658662 0)
(1.08549 0.0420767 0)
(1.06991 0.0268252 0)
(1.05913 0.016145 0)
(1.05238 0.00891943 2.90533e-23)
(1.04798 0.00435357 1.1906e-23)
(1.04373 0.00186315 5.99812e-25)
(1.03956 0.000548573 0)
(1.0362 -8.68728e-05 0)
(1.03376 -0.000283975 0)
(1.03212 -0.000212334 0)
(1.03119 -5.18391e-05 0)
(1.02114 0.000707761 0)
(1.02092 0.00233751 0)
(1.02048 0.00390693 0)
(1.01962 0.00556626 0)
(1.01815 0.00740498 0)
(1.0159 0.00952732 0)
(1.01303 0.0123351 0)
(1.00955 0.0167077 0)
(1.00415 0.0231798 5.69164e-24)
(0.995521 0.0319941 0)
(0.982401 0.0436936 0)
(0.963665 0.0595181 0)
(0.938351 0.0811323 4.4749e-22)
(0.905592 0.109738 6.83659e-22)
(0.865374 0.155115 0)
(0.823163 0.219902 0)
(0.777499 0.292891 0)
(0.734713 0.365517 0)
(0.712293 0.428462 3.68673e-21)
(0.729855 0.484607 1.0397e-20)
(0.781901 0.48575 -3.51785e-20)
(0.852755 0.477026 1.78212e-20)
(0.938355 0.406061 0)
(1.03878 0.325916 0)
(1.12753 0.214619 0)
(1.21578 0.123631 0)
(1.2247 0.0643554 -9.60634e-22)
(1.18387 0.0431449 -2.11386e-22)
(1.13963 0.0266844 0)
(1.10795 0.016183 -8.32616e-25)
(1.08525 0.00842215 -1.58146e-23)
(1.06965 0.00290236 -6.03976e-24)
(1.05916 -0.000729405 0)
(1.05171 -0.00253348 0)
(1.04544 -0.0029338 0)
(1.04019 -0.00275637 0)
(1.0362 -0.002296 0)
(1.03339 -0.00169866 0)
(1.0316 -0.00101461 0)
(1.0307 -0.000343667 0)
(1.02007 4.13966e-05 0)
(1.0197 0.000455541 0)
(1.0192 0.000726471 0)
(1.01829 0.000949553 0)
(1.01674 0.000997086 0)
(1.01418 0.000855452 0)
(1.01027 0.000666617 0)
(1.00488 0.00102225 0)
(0.997161 0.00225851 0)
(0.985792 0.00426428 0)
(0.968784 0.00728004 -1.36979e-23)
(0.944133 0.0114459 1.24025e-22)
(0.909538 0.0202987 -3.11297e-21)
(0.859461 0.0346705 -9.1694e-21)
(0.793107 0.0649333 0)
(0.73462 0.103598 0)
(0.693075 0.138954 0)
(0.664565 0.162967 0)
(0.665026 0.176689 -1.47333e-20)
(0.722383 0.184372 2.07261e-20)
(0.827157 0.15843 -2.42927e-20)
(0.940925 0.157127 1.05333e-19)
(1.06029 0.0850153 0)
(1.17183 0.0399668 0)
(1.24378 -0.02331 0)
(1.28688 -0.046668 0)
(1.24897 -0.0474814 1.2134e-21)
(1.19147 -0.0320555 4.23379e-22)