/*--------------------------------*- C++ -*----------------------------------*\
| =========                 |                                                 |
| \\      /  F ield         | OpenFOAM: The Open Source CFD Toolbox           |
|  \\    /   O peration     | Version:  v2106                                 |
|   \\  /    A nd           | Website:  www.openfoam.com                      |
|    \\/     M anipulation  |                                                 |
\*---------------------------------------------------------------------------*/
FoamFile
{
    version     2.0;
    format      ascii;
    arch        "LSB;label=32;scalar=64";
    class       pointVectorField;
    location    "0";
    object      pointDisplacement;
}
// * * * * * * * * * * * * * * * * * * * * * * * * * * * * * * * * * * * * * //

dimensions      [0 1 0 0 0 0 0];

internalField   nonuniform List<vector> 
24440
(
(0 0 0)
(0 0 0)
(0 0 0)
(0 0 0)
(0 0 0)
(0 0 0)
(0 0 0)
(0 0 0)
(0 0 0)
(0 0 0)
(0 0 0)
(0 0 0)
(0 0 0)
(0 0 0)
(0 0 0)
(0 0 0)
(0 0 0)
(0 0 0)
(0 0 0)
(0 0 0)
(0 0 0)
(0 0 0)
(0 0 0)
(0 0 0)
(0 0 0)
(0 0 0)
(0 0 0)
(0 0 0)
(0 0 0)
(0 0 0)
(0 0 0)
(0 0 0)
(0 0 0)
(0 0 0)
(0 0 0)
(0 0 0)
(0 0 0)
(0 0 0)
(0 0 0)
(0 0 0)
(0 0 0)
(0 0 0)
(0 0 0)
(0 0 0)
(0 0 0)
(0 0 0)
(0 0 0)
(0 0 0)
(0 0 0)
(0 0 0)
(0 0 0)
(0 0 0)
(0 0 0)
(0 0 0)
(0 0 0)
(0 0 0)
(0 0 0)
(0 0 0)
(0 0 0)
(0 0 0)
(0 0 0)
(0 0 0)
(0 0 0)
(0 0 0)
(0 0 0)
(0 0 0)
(0 0 0)
(0 0 0)
(0 0 0)
(0 0 0)
(0 0 0)
(0 0 0)
(0 0 0)
(0 0 0)
(0 0 0)
(0 0 0)
(0 0 0)
(0 0 0)
(0 0 0)
(0 0 0)
(0 0 0)
(0 0 0)
(0 0 0)
(0 0 0)
(0 0 0)
(0 0 0)
(0 0 0)
(0 0 0)
(0 0 0)
(0 0 0)
(0 0 0)
(0 0 0)
(0 0 0)
(0 0 0)
(0 0 0)
(0 0 0)
(0 0 0)
(0 0 0)
(0 -5.50037e-06 0)
(0 -3.46856e-05 0)
(0 -9.53781e-05 0)
(0 -0.000146973 0)
(0 -0.000166774 0)
(0 -0.000146973 0)
(0 -9.53781e-05 0)
(0 -3.46856e-05 0)
(0 -5.50037e-06 0)
(0 0 0)
(0 0 0)
(0 0 0)
(0 0 0)
(0 0 0)
(0 0 0)
(0 0 0)
(0 0 0)
(0 0 0)
(0 0 0)
(0 0 0)
(0 0 0)
(0 0 0)
(0 0 0)
(0 0 0)
(0 0 0)
(0 0 0)
(0 0 0)
(0 0 0)
(0 0 0)
(0 0 0)
(0 0 0)
(0 0 0)
(0 0 0)
(0 0 0)
(0 0 0)
(0 0 0)
(0 0 0)
(0 0 0)
(0 -9.21162e-06 0)
(0 -0.000121854 0)
(0 -0.000358608 0)
(0 -0.00064601 0)
(0 -0.000921472 0)
(0 -0.00111351 0)
(0 -0.00129203 0)
(0 -0.00135484 0)
(0 -0.00129203 0)
(0 -0.00111351 0)
(0 -0.000921472 0)
(0 -0.00064601 0)
(0 -0.000358608 0)
(0 -0.000121854 0)
(0 -9.21162e-06 0)
(0 0 0)
(0 0 0)
(0 0 0)
(0 0 0)
(0 0 0)
(0 0 0)
(0 0 0)
(0 0 0)
(0 0 0)
(0 0 0)
(0 0 0)
(0 0 0)
(0 0 0)
(0 0 0)
(0 0 0)
(0 0 0)
(0 0 0)
(0 0 0)
(0 0 0)
(0 0 0)
(0 0 0)
(0 0 0)
(0 0 0)
(0 0 0)
(0 -3.86757e-06 0)
(0 -0.00016025 0)
(0 -0.000546503 0)
(0 -0.0010777 0)
(0 -0.00162483 0)
(0 -0.00223522 0)
(0 -0.00276387 0)
(0 -0.00309128 0)
(0 -0.00340434 0)
(0 -0.00351254 0)
(0 -0.00340434 0)
(0 -0.00309128 0)
(0 -0.00276387 0)
(0 -0.00223522 0)
(0 -0.00162483 0)
(0 -0.0010777 0)
(0 -0.000546503 0)
(0 -0.00016025 0)
(0 -3.86757e-06 0)
(0 0 0)
(0 0 0)
(0 0 0)
(0 0 0)
(0 0 0)
(0 0 0)
(0 0 0)
(0 0 0)
(0 0 0)
(0 0 0)
(0 0 0)
(0 0 0)
(0 0 0)
(0 0 0)
(0 0 0)
(0 0 0)
(0 0 0)
(0 0 0)
(0 0 0)
(0 0 0)
(0 0 0)
(0 -3.65697e-05 0)
(0 -0.000380305 0)
(0 -0.00101068 0)
(0 -0.00177325 0)
(0 -0.00272006 0)
(0 -0.00367501 0)
(0 -0.00450229 0)
(0 -0.00527726 0)
(0 -0.00582719 0)
(0 -0.00615575 0)
(0 -0.00630657 0)
(0 -0.00615575 0)
(0 -0.00582719 0)
(0 -0.00527726 0)
(0 -0.00450229 0)
(0 -0.00367501 0)
(0 -0.00272006 0)
(0 -0.00177325 0)
(0 -0.00101068 0)
(0 -0.000380305 0)
(0 -3.87153e-05 0)
(0 0 0)
(0 0 0)
(0 0 0)
(0 0 0)
(0 0 0)
(0 0 0)
(0 0 0)
(0 0 0)
(0 0 0)
(0 0 0)
(0 0 0)
(0 0 0)
(0 0 0)
(0 0 0)
(0 0 0)
(0 0 0)
(0 0 0)
(0 0 0)
(0 0 0)
(0 -7.19245e-05 0)
(0 -0.000504334 0)
(0 -0.00125875 0)
(0 -0.00231088 0)
(0 -0.00356129 0)
(0 -0.00486066 0)
(0 -0.00605306 0)
(0 -0.00718348 0)
(0 -0.00760824 0)
(0 -0.00806759 0)
(0 -0.00845182 0)
(0 -0.00875455 0)
(0 -0.00897103 0)
(0 -0.00912072 0)
(0 -0.00925901 0)
(0 -0.00930532 0)
(0 -0.00925901 0)
(0 -0.00912072 0)
(0 -0.00897103 0)
(0 -0.00875455 0)
(0 -0.00845182 0)
(0 -0.00806759 0)
(0 -0.00760824 0)
(0 -0.00718348 0)
(0 -0.00605306 0)
(0 -0.00486066 0)
(0 -0.00356129 0)
(0 -0.00231088 0)
(0 -0.00123263 0)
(0 -0.000455717 0)
(0 -5.74724e-05 0)
(0 0 0)
(0 0 0)
(0 0 0)
(0 0 0)
(0 0 0)
(0 0 0)
(0 0 0)
(0 0 0)
(0 0 0)
(0 0 0)
(0 0 0)
(0 0 0)
(0 0 0)
(0 0 0)
(0 0 0)
(0 0 0)
(0 0 0)
(0 -4.23048e-05 0)
(0 -0.000484134 0)
(0 -0.00134888 0)
(0 -0.0025382 0)
(0 -0.0039313 0)
(0 -0.00557037 0)
(0 -0.00635409 0)
(0 -0.00704876 0)
(0 -0.00781761 0)
(0 -0.00853828 0)
(0 -0.00919762 0)
(0 -0.00975777 0)
(0 -0.00850405 0)
(0 -0.00902327 0)
(0 -0.00943304 0)
(0 -0.00984635 0)
(0 -0.0101706 0)
(0 -0.0104016 0)
(0 -0.0105402 0)
(0 -0.010687 0)
(0 -0.010736 0)
(0 -0.010687 0)
(0 -0.0105402 0)
(0 -0.0104016 0)
(0 -0.0101706 0)
(0 -0.00984635 0)
(0 -0.00943304 0)
(0 -0.00902327 0)
(0 -0.00850405 0)
(0 -0.00975777 0)
(0 -0.00919762 0)
(0 -0.00853828 0)
(0 -0.00781761 0)
(0 -0.00704876 0)
(0 -0.00635409 0)
(0 -0.00557037 0)
(0 -0.0039313 0)
(0 -0.0025382 0)
(0 -0.00129968 0)
(0 -0.00046307 0)
(0 -3.84189e-05 0)
(0 0 0)
(0 0 0)
(0 0 0)
(0 0 0)
(0 0 0)
(0 0 0)
(0 0 0)
(0 0 0)
(0 0 0)
(0 0 0)
(0 0 0)
(0 0 0)
(0 0 0)
(0 0 0)
(0 0 0)
(0 0 0)
(0 -0.00026767 0)
(0 -0.00109387 0)
(0 -0.00233855 0)
(0 -0.00390201 0)
(0 -0.00564334 0)
(0 -0.00741273 0)
(0 -0.00652455 0)
(0 -0.00737681 0)
(0 -0.00819691 0)
(0 -0.0089691 0)
(0 -0.00965516 0)
(0 -0.0103509 0)
(0 -0.0109658 0)
(0 -0.0114737 0)
(0 -0.0103095 0)
(0 -0.0107742 0)
(0 -0.0119527 0)
(0 -0.0122975 0)
(0 -0.0111439 0)
(0 -0.0114822 0)
(0 -0.0126406 0)
(0 -0.012882 0)
(0 -0.0117221 0)
(0 -0.0118437 0)
(0 -0.0130219 0)
(0 -0.013133 0)
(0 -0.0119951 0)
(0 -0.0120456 0)
(0 -0.0131831 0)
(0 -0.013133 0)
(0 -0.0119951 0)
(0 -0.0118437 0)
(0 -0.0130219 0)
(0 -0.012882 0)
(0 -0.0117221 0)
(0 -0.0114822 0)
(0 -0.0126406 0)
(0 -0.0122975 0)
(0 -0.0111439 0)
(0 -0.0107742 0)
(0 -0.0119527 0)
(0 -0.0114737 0)
(0 -0.0103095 0)
(0 -0.0109658 0)
(0 -0.0103509 0)
(0 -0.00965516 0)
(0 -0.0089691 0)
(0 -0.00819691 0)
(0 -0.00737681 0)
(0 -0.00652455 0)
(0 -0.00741273 0)
(0 -0.00564334 0)
(0 -0.00385504 0)
(0 -0.00232009 0)
(0 -0.00109271 0)
(0 -0.000291 0)
(0 0 0)
(0 0 0)
(0 0 0)
(0 0 0)
(0 0 0)
(0 0 0)
(0 0 0)
(0 0 0)
(0 0 0)
(0 0 0)
(0 0 0)
(0 0 0)
(0 0 0)
(0 0 0)
(0 0 0)
(0 -5.8392e-05 0)
(0 -0.000599901 0)
(0 -0.00172921 0)
(0 -0.00323984 0)
(0 -0.00503571 0)
(0 -0.00709324 0)
(0 -0.00907512 0)
(0 -0.00830383 0)
(0 -0.00920166 0)
(0 -0.00826232 0)
(0 -0.00918639 0)
(0 -0.0100456 0)
(0 -0.0108922 0)
(0 -0.00999965 0)
(0 -0.0107424 0)
(0 -0.0116555 0)
(0 -0.0120035 0)
(0 -0.0123275 0)
(0 -0.011887 0)
(0 -0.0113693 0)
(0 -0.0120002 0)
(0 -0.0124527 0)
(0 -0.0127322 0)
(0 -0.0122796 0)
(0 -0.0129591 0)
(0 -0.0133883 0)
(0 -0.0135869 0)
(0 -0.0131607 0)
(0 -0.013605 0)
(0 -0.0140249 0)
(0 -0.0141296 0)
(0 -0.0137344 0)
(0 -0.013972 0)
(0 -0.0143568 0)
(0 -0.0144116 0)
(0 -0.0140357 0)
(0 -0.0141041 0)
(0 -0.0144718 0)
(0 -0.0144608 0)
(0 -0.0140923 0)
(0 -0.013972 0)
(0 -0.0143568 0)
(0 -0.0143049 0)
(0 -0.0139174 0)
(0 -0.013605 0)
(0 -0.0140249 0)
(0 -0.0139047 0)
(0 -0.0134859 0)
(0 -0.0129591 0)
(0 -0.0133883 0)
(0 -0.0132129 0)
(0 -0.0127314 0)
(0 -0.0120002 0)
(0 -0.0124527 0)
(0 -0.0121478 0)
(0 -0.0116965 0)
(0 -0.0107424 0)
(0 -0.0116555 0)
(0 -0.0108922 0)
(0 -0.00999965 0)
(0 -0.00918639 0)
(0 -0.0100456 0)
(0 -0.00920166 0)
(0 -0.00826232 0)
(0 -0.00830383 0)
(0 -0.00903423 0)
(0 -0.00708834 0)
(0 -0.00511688 0)
(0 -0.00321263 0)
(0 -0.00171237 0)
(0 -0.000629968 0)
(0 -6.67742e-05 0)
(0 0 0)
(0 0 0)
(0 0 0)
(0 0 0)
(0 0 0)
(0 0 0)
(0 0 0)
(0 0 0)
(0 0 0)
(0 0 0)
(0 0 0)
(0 0 0)
(0 0 0)
(0 0 0)
(0 -0.000191045 0)
(0 -0.000966889 0)
(0 -0.00227176 0)
(0 -0.00399178 0)
(0 -0.00597951 0)
(0 -0.00816582 0)
(0 -0.0102063 0)
(0 -0.00970284 0)
(0 -0.010663 0)
(0 -0.0100096 0)
(0 -0.010882 0)
(0 -0.0115536 0)
(0 -0.0123578 0)
(0 -0.0116767 0)
(0 -0.0123807 0)
(0 -0.0127453 0)
(0 -0.013059 0)
(0 -0.0127449 0)
(0 -0.013631 0)
(0 -0.0137819 0)
(0 -0.0139036 0)
(0 -0.0137541 0)
(0 -0.0144298 0)
(0 -0.0145505 0)
(0 -0.0146288 0)
(0 -0.0145106 0)
(0 -0.0149026 0)
(0 -0.0149906 0)
(0 -0.0150305 0)
(0 -0.0149419 0)
(0 -0.0151099 0)
(0 -0.0151744 0)
(0 -0.0151836 0)
(0 -0.0151209 0)
(0 -0.0151628 0)
(0 -0.0152148 0)
(0 -0.0152139 0)
(0 -0.0151616 0)
(0 -0.0151099 0)
(0 -0.0151744 0)
(0 -0.0151616 0)
(0 -0.0150948 0)
(0 -0.0149026 0)
(0 -0.0149906 0)
(0 -0.0149571 0)
(0 -0.0148554 0)
(0 -0.0144298 0)
(0 -0.0145505 0)
(0 -0.0144823 0)
(0 -0.0143419 0)
(0 -0.013631 0)
(0 -0.0137819 0)
(0 -0.0139199 0)
(0 -0.0136572 0)
(0 -0.0133635 0)
(0 -0.0123807 0)
(0 -0.0127453 0)
(0 -0.0130621 0)
(0 -0.0123578 0)
(0 -0.0116767 0)
(0 -0.010882 0)
(0 -0.0115272 0)
(0 -0.0106562 0)
(0 -0.0100096 0)
(0 -0.00971445 0)
(0 -0.0102365 0)
(0 -0.00814529 0)
(0 -0.00603908 0)
(0 -0.00403363 0)
(0 -0.00229807 0)
(0 -0.000980686 0)
(0 -0.000195758 0)
(0 0 0)
(0 0 0)
(0 0 0)
(0 0 0)
(0 0 0)
(0 0 0)
(0 0 0)
(0 0 0)
(0 0 0)
(0 0 0)
(0 0 0)
(0 0 0)
(0 0 0)
(0 0 0)
(0 -0.000294586 0)
(0 -0.00120114 0)
(0 -0.00264326 0)
(0 -0.00449915 0)
(0 -0.0066125 0)
(0 -0.00880576 0)
(0 -0.0108953 0)
(0 -0.0106364 0)
(0 -0.011589 0)
(0 -0.0111468 0)
(0 -0.0120092 0)
(0 -0.0124569 0)
(0 -0.013223 0)
(0 -0.012853 0)
(0 -0.0135504 0)
(0 -0.0137226 0)
(0 -0.0140228 0)
(0 -0.0138545 0)
(0 -0.0145772 0)
(0 -0.0146567 0)
(0 -0.0147465 0)
(0 -0.0146694 0)
(0 -0.015131 0)
(0 -0.0151694 0)
(0 -0.0152015 0)
(0 -0.0151676 0)
(0 -0.0152636 0)
(0 -0.0152636 0)
(0 -0.0152636 0)
(0 -0.0152636 0)
(0 -0.0152636 0)
(0 -0.0152636 0)
(0 -0.0152636 0)
(0 -0.0152636 0)
(0 -0.0152636 0)
(0 -0.0152636 0)
(0 -0.0152636 0)
(0 -0.0152636 0)
(0 -0.0152636 0)
(0 -0.0152636 0)
(0 -0.0152636 0)
(0 -0.0152636 0)
(0 -0.0152636 0)
(0 -0.0152636 0)
(0 -0.0152636 0)
(0 -0.0152636 0)
(0 -0.015131 0)
(0 -0.0151694 0)
(0 -0.0151271 0)
(0 -0.015087 0)
(0 -0.0145772 0)
(0 -0.0146567 0)
(0 -0.0147247 0)
(0 -0.0145171 0)
(0 -0.0143684 0)
(0 -0.0135425 0)
(0 -0.0137426 0)
(0 -0.0138955 0)
(0 -0.0132046 0)
(0 -0.0128644 0)
(0 -0.0120776 0)
(0 -0.0124414 0)
(0 -0.0115767 0)
(0 -0.0111961 0)
(0 -0.0106274 0)
(0 -0.0109007 0)
(0 -0.00880215 0)
(0 -0.00660199 0)
(0 -0.00448471 0)
(0 -0.0026282 0)
(0 -0.00118869 0)
(0 -0.000287514 0)
(0 0 0)
(0 0 0)
(0 0 0)
(0 0 0)
(0 0 0)
(0 0 0)
(0 0 0)
(0 0 0)
(0 0 0)
(0 0 0)
(0 0 0)
(0 0 0)
(0 0 0)
(0 0 0)
(0 -0.000312328 0)
(0 -0.00123954 0)
(0 -0.00270378 0)
(0 -0.00458201 0)
(0 -0.00671642 0)
(0 -0.00892767 0)
(0 -0.01103 0)
(0 -0.0110339 0)
(0 -0.0119874 0)
(0 -0.0118461 0)
(0 -0.0127075 0)
(0 -0.012849 0)
(0 -0.0136005 0)
(0 -0.0134621 0)
(0 -0.0141189 0)
(0 -0.0141823 0)
(0 -0.0144457 0)
(0 -0.0143884 0)
(0 -0.0149828 0)
(0 -0.0150073 0)
(0 -0.0150723 0)
(0 -0.0150497 0)
(0 -0.0152636 0)
(0 -0.0152636 0)
(0 -0.0152636 0)
(0 -0.0152636 0)
(0 -0.0152636 0)
(0 -0.0152636 0)
(0 -0.0152636 0)
(0 -0.0152636 0)
(0 -0.0152636 0)
(0 -0.0152636 0)
(0 -0.0152636 0)
(0 -0.0152636 0)
(0 -0.0152636 0)
(0 -0.0152636 0)
(0 -0.0152636 0)
(0 -0.0152636 0)
(0 -0.0152636 0)
(0 -0.015263 0)
(0 -0.0152608 0)
(0 -0.0149828 0)
(0 -0.0150073 0)
(0 -0.0150234 0)
(0 -0.0148708 0)
(0 -0.014817 0)
(0 -0.014118 0)
(0 -0.0141832 0)
(0 -0.014226 0)
(0 -0.0136005 0)
(0 -0.0134817 0)
(0 -0.0127227 0)
(0 -0.0128167 0)
(0 -0.0119503 0)
(0 -0.0118564 0)
(0 -0.0109927 0)
(0 -0.0110053 0)
(0 -0.00890022 0)
(0 -0.00668854 0)
(0 -0.00455612 0)
(0 -0.00268213 0)
(0 -0.00122401 0)
(0 -0.000304279 0)
(0 0 0)
(0 0 0)
(0 0 0)
(0 0 0)
(0 0 0)
(0 0 0)
(0 0 0)
(0 0 0)
(0 0 0)
(0 0 0)
(0 0 0)
(0 0 0)
(0 0 0)
(0 0 0)
(0 -0.000255244 0)
(0 -0.00111552 0)
(0 -0.00250966 0)
(0 -0.00431875 0)
(0 -0.00638961 0)
(0 -0.00854815 0)
(0 -0.0106146 0)
(0 -0.0109129 0)
(0 -0.0118649 0)
(0 -0.0119843 0)
(0 -0.0128467 0)
(0 -0.0127272 0)
(0 -0.0134822 0)
(0 -0.013599 0)
(0 -0.0142254 0)
(0 -0.0141919 0)
(0 -0.0144551 0)
(0 -0.014487 0)
(0 -0.0150502 0)
(0 -0.0150423 0)
(0 -0.0151032 0)
(0 -0.0151104 0)
(0 -0.0152636 0)
(0 -0.0152636 0)
(0 -0.0152636 0)
(0 -0.0152636 0)
(0 -0.0152636 0)
(0 -0.0152636 0)
(0 -0.0152636 0)
(0 -0.0152636 0)
(0 -0.0152636 0)
(0 -0.0152636 0)
(0 -0.0152636 0)
(0 -0.0152636 0)
(0 -0.0152636 0)
(0 -0.0152636 0)
(0 -0.0152636 0)
(0 -0.0152636 0)
(0 -0.0150502 0)
(0 -0.0150358 0)
(0 -0.0150278 0)
(0 -0.0148755 0)
(0 -0.0148929 0)
(0 -0.0142121 0)
(0 -0.0141908 0)
(0 -0.0141261 0)
(0 -0.0134914 0)
(0 -0.0135824 0)
(0 -0.012827 0)
(0 -0.0127339 0)
(0 -0.0118689 0)
(0 -0.0119619 0)
(0 -0.0109142 0)
(0 -0.0106416 0)
(0 -0.00856797 0)
(0 -0.00640256 0)
(0 -0.00432587 0)
(0 -0.0025125 0)
(0 -0.0011158 0)
(0 -0.000254687 0)
(0 0 0)
(0 0 0)
(0 0 0)
(0 0 0)
(0 0 0)
(0 0 0)
(0 0 0)
(0 0 0)
(0 0 0)
(0 0 0)
(0 0 0)
(0 0 0)
(0 0 0)
(0 0 0)
(0 -0.000129099 0)
(0 -0.000810892 0)
(0 -0.00201693 0)
(0 -0.0036389 0)
(0 -0.00565747 0)
(0 -0.00772157 0)
(0 -0.00973492 0)
(0 -0.0102688 0)
(0 -0.0112233 0)
(0 -0.0115597 0)
(0 -0.0124768 0)
(0 -0.0120991 0)
(0 -0.0128796 0)
(0 -0.0132547 0)
(0 -0.0139154 0)
(0 -0.0137571 0)
(0 -0.0140443 0)
(0 -0.014198 0)
(0 -0.0148428 0)
(0 -0.0147978 0)
(0 -0.0148797 0)
(0 -0.0149277 0)
(0 -0.0152452 0)
(0 -0.0152295 0)
(0 -0.0152482 0)
(0 -0.0152579 0)
(0 -0.0152636 0)
(0 -0.0152636 0)
(0 -0.0152636 0)
(0 -0.0152636 0)
(0 -0.0152636 0)
(0 -0.0152636 0)
(0 -0.0152636 0)
(0 -0.0152636 0)
(0 -0.0152452 0)
(0 -0.0152272 0)
(0 -0.0152024 0)
(0 -0.0152246 0)
(0 -0.0148428 0)
(0 -0.0147978 0)
(0 -0.0147365 0)
(0 -0.0145424 0)
(0 -0.0146623 0)
(0 -0.0139154 0)
(0 -0.0137571 0)
(0 -0.0135773 0)
(0 -0.0128796 0)
(0 -0.0132547 0)
(0 -0.0124535 0)
(0 -0.0120991 0)
(0 -0.0112233 0)
(0 -0.01159 0)
(0 -0.0102688 0)
(0 -0.00973492 0)
(0 -0.00772157 0)
(0 -0.00558456 0)
(0 -0.00367467 0)
(0 -0.00204039 0)
(0 -0.000823733 0)
(0 -0.000133437 0)
(0 0 0)
(0 0 0)
(0 0 0)
(0 0 0)
(0 0 0)
(0 0 0)
(0 0 0)
(0 0 0)
(0 0 0)
(0 0 0)
(0 0 0)
(0 0 0)
(0 0 0)
(0 0 0)
(0 -1.5974e-05 0)
(0 -0.000474185 0)
(0 -0.00144395 0)
(0 -0.00283939 0)
(0 -0.00453294 0)
(0 -0.00637597 0)
(0 -0.00830994 0)
(0 -0.00904325 0)
(0 -0.0100266 0)
(0 -0.0106714 0)
(0 -0.0115823 0)
(0 -0.0108875 0)
(0 -0.0117497 0)
(0 -0.0123745 0)
(0 -0.0131023 0)
(0 -0.0128105 0)
(0 -0.013132 0)
(0 -0.0134214 0)
(0 -0.0142025 0)
(0 -0.0140725 0)
(0 -0.0141907 0)
(0 -0.0142987 0)
(0 -0.0148929 0)
(0 -0.0148074 0)
(0 -0.0148698 0)
(0 -0.014952 0)
(0 -0.0152016 0)
(0 -0.0151538 0)
(0 -0.0151748 0)
(0 -0.0152184 0)
(0 -0.0152636 0)
(0 -0.0152552 0)
(0 -0.0152585 0)
(0 -0.0152636 0)
(0 -0.0152636 0)
(0 -0.0152636 0)
(0 -0.0152636 0)
(0 -0.0152636 0)
(0 -0.0152636 0)
(0 -0.0152636 0)
(0 -0.0152552 0)
(0 -0.0152505 0)
(0 -0.0152631 0)
(0 -0.0152635 0)
(0 -0.0152016 0)
(0 -0.0151538 0)
(0 -0.0151278 0)
(0 -0.0151799 0)
(0 -0.0148929 0)
(0 -0.0148074 0)
(0 -0.0147379 0)
(0 -0.0148265 0)
(0 -0.014213 0)
(0 -0.0140937 0)
(0 -0.0139503 0)
(0 -0.0137132 0)
(0 -0.013971 0)
(0 -0.0130664 0)
(0 -0.0127956 0)
(0 -0.0124794 0)
(0 -0.0117336 0)
(0 -0.0123745 0)
(0 -0.0115823 0)
(0 -0.0108875 0)
(0 -0.0100266 0)
(0 -0.0106714 0)
(0 -0.00904325 0)
(0 -0.00830994 0)
(0 -0.00637597 0)
(0 -0.00453294 0)
(0 -0.00283939 0)
(0 -0.00144395 0)
(0 -0.00044232 0)
(0 -1.91877e-05 0)
(0 0 0)
(0 0 0)
(0 0 0)
(0 0 0)
(0 0 0)
(0 0 0)
(0 0 0)
(0 0 0)
(0 0 0)
(0 0 0)
(0 0 0)
(0 0 0)
(0 0 0)
(0 0 0)
(0 0 0)
(0 -0.000145751 0)
(0 -0.000768053 0)
(0 -0.00180706 0)
(0 -0.00315439 0)
(0 -0.00483779 0)
(0 -0.00657834 0)
(0 -0.00739941 0)
(0 -0.0083683 0)
(0 -0.00919682 0)
(0 -0.010095 0)
(0 -0.00924054 0)
(0 -0.0100561 0)
(0 -0.0109393 0)
(0 -0.0117037 0)
(0 -0.0108006 0)
(0 -0.0114238 0)
(0 -0.0119413 0)
(0 -0.0123763 0)
(0 -0.0120521 0)
(0 -0.0129547 0)
(0 -0.0125025 0)
(0 -0.012782 0)
(0 -0.0132105 0)
(0 -0.0138508 0)
(0 -0.013463 0)
(0 -0.0136181 0)
(0 -0.01402 0)
(0 -0.0144181 0)
(0 -0.0140745 0)
(0 -0.0141755 0)
(0 -0.0145133 0)
(0 -0.0147124 0)
(0 -0.0143953 0)
(0 -0.0144513 0)
(0 -0.0147514 0)
(0 -0.0148035 0)
(0 -0.0145107 0)
(0 -0.0144956 0)
(0 -0.0147916 0)
(0 -0.0147124 0)
(0 -0.0143953 0)
(0 -0.0143159 0)
(0 -0.0146512 0)
(0 -0.0144181 0)
(0 -0.0140745 0)
(0 -0.0139484 0)
(0 -0.0142981 0)
(0 -0.0138508 0)
(0 -0.013463 0)
(0 -0.0132625 0)
(0 -0.0136545 0)
(0 -0.0129547 0)
(0 -0.0125025 0)
(0 -0.01224 0)
(0 -0.0126753 0)
(0 -0.0117037 0)
(0 -0.0108006 0)
(0 -0.0100561 0)
(0 -0.0109393 0)
(0 -0.010095 0)
(0 -0.00924054 0)
(0 -0.0083683 0)
(0 -0.00919682 0)
(0 -0.00739941 0)
(0 -0.00657834 0)
(0 -0.00483779 0)
(0 -0.00315439 0)
(0 -0.00180706 0)
(0 -0.000768053 0)
(0 -0.000145751 0)
(0 0 0)
(0 0 0)
(0 0 0)
(0 0 0)
(0 0 0)
(0 0 0)
(0 0 0)
(0 0 0)
(0 0 0)
(0 0 0)
(0 0 0)
(0 0 0)
(0 0 0)
(0 0 0)
(0 0 0)
(0 0 0)
(0 0 0)
(0 -0.00021964 0)
(0 -0.000906949 0)
(0 -0.00194424 0)
(0 -0.00323069 0)
(0 -0.00463977 0)
(0 -0.00603074 0)
(0 -0.00711017 0)
(0 -0.00825798 0)
(0 -0.00743446 0)
(0 -0.00788265 0)
(0 -0.00903314 0)
(0 -0.00971685 0)
(0 -0.00860646 0)
(0 -0.00926847 0)
(0 -0.0104146 0)
(0 -0.0110309 0)
(0 -0.0104606 0)
(0 -0.0106807 0)
(0 -0.0113058 0)
(0 -0.0120073 0)
(0 -0.0114465 0)
(0 -0.0116546 0)
(0 -0.012217 0)
(0 -0.0126948 0)
(0 -0.0121308 0)
(0 -0.0122238 0)
(0 -0.0128034 0)
(0 -0.0131071 0)
(0 -0.0125655 0)
(0 -0.0126288 0)
(0 -0.0131699 0)
(0 -0.0132436 0)
(0 -0.0127054 0)
(0 -0.0126794 0)
(0 -0.01322 0)
(0 -0.0131071 0)
(0 -0.0125655 0)
(0 -0.0124769 0)
(0 -0.0130191 0)
(0 -0.0126948 0)
(0 -0.0121308 0)
(0 -0.011997 0)
(0 -0.0125609 0)
(0 -0.0120073 0)
(0 -0.0114465 0)
(0 -0.0112144 0)
(0 -0.0117728 0)
(0 -0.0110309 0)
(0 -0.0104606 0)
(0 -0.00980144 0)
(0 -0.00926847 0)
(0 -0.0104146 0)
(0 -0.00971685 0)
(0 -0.00860646 0)
(0 -0.00788265 0)
(0 -0.00903314 0)
(0 -0.00825798 0)
(0 -0.00711017 0)
(0 -0.00603074 0)
(0 -0.00463977 0)
(0 -0.00743446 0)
(0 -0.00323069 0)
(0 -0.00194424 0)
(0 -0.000906949 0)
(0 -0.00021964 0)
(0 0 0)
(0 0 0)
(0 0 0)
(0 0 0)
(0 0 0)
(0 0 0)
(0 0 0)
(0 0 0)
(0 0 0)
(0 0 0)
(0 0 0)
(0 0 0)
(0 0 0)
(0 0 0)
(0 0 0)
(0 0 0)
(0 0 0)
(0 0 0)
(0 -2.78532e-06 0)
(0 -0.000249519 0)
(0 -0.000845539 0)
(0 -0.00165695 0)
(0 -0.00271207 0)
(0 -0.00383736 0)
(0 -0.00492535 0)
(0 -0.00556048 0)
(0 -0.0067394 0)
(0 -0.00740779 0)
(0 -0.00609587 0)
(0 -0.00669992 0)
(0 -0.00795852 0)
(0 -0.00856237 0)
(0 -0.00791349 0)
(0 -0.00817909 0)
(0 -0.00883849 0)
(0 -0.00955029 0)
(0 -0.00886557 0)
(0 -0.00905451 0)
(0 -0.00974568 0)
(0 -0.0101884 0)
(0 -0.00950277 0)
(0 -0.00965541 0)
(0 -0.0103455 0)
(0 -0.0106747 0)
(0 -0.0099758 0)
(0 -0.0100356 0)
(0 -0.010736 0)
(0 -0.0108169 0)
(0 -0.0101165 0)
(0 -0.0100836 0)
(0 -0.0107852 0)
(0 -0.0106747 0)
(0 -0.0099758 0)
(0 -0.00989231 0)
(0 -0.010589 0)
(0 -0.0101884 0)
(0 -0.00950277 0)
(0 -0.00932798 0)
(0 -0.0100694 0)
(0 -0.00955029 0)
(0 -0.00886557 0)
(0 -0.00865612 0)
(0 -0.00933341 0)
(0 -0.00856237 0)
(0 -0.00791349 0)
(0 -0.00725288 0)
(0 -0.00669992 0)
(0 -0.00795852 0)
(0 -0.00740779 0)
(0 -0.00609587 0)
(0 -0.00556048 0)
(0 -0.0067394 0)
(0 -0.00492535 0)
(0 -0.00383736 0)
(0 -0.00271207 0)
(0 -0.00165695 0)
(0 -0.000845539 0)
(0 -0.000249519 0)
(0 -2.78532e-06 0)
(0 0 0)
(0 0 0)
(0 0 0)
(0 0 0)
(0 0 0)
(0 0 0)
(0 0 0)
(0 0 0)
(0 0 0)
(0 0 0)
(0 0 0)
(0 0 0)
(0 0 0)
(0 0 0)
(0 0 0)
(0 0 0)
(0 0 0)
(0 0 0)
(0 0 0)
(0 0 0)
(0 -0.000131039 0)
(0 -0.000545772 0)
(0 -0.00110563 0)
(0 -0.00186167 0)
(0 -0.00275276 0)
(0 -0.00324596 0)
(0 -0.00432522 0)
(0 -0.00489163 0)
(0 -0.00372928 0)
(0 -0.00419056 0)
(0 -0.00542758 0)
(0 -0.00592133 0)
(0 -0.00526316 0)
(0 -0.00547656 0)
(0 -0.00614907 0)
(0 -0.00674204 0)
(0 -0.00603359 0)
(0 -0.00613524 0)
(0 -0.00683364 0)
(0 -0.00734926 0)
(0 -0.00662212 0)
(0 -0.00674948 0)
(0 -0.00748389 0)
(0 -0.00776759 0)
(0 -0.0070182 0)
(0 -0.00706858 0)
(0 -0.00782073 0)
(0 -0.00789817 0)
(0 -0.00714375 0)
(0 -0.00710904 0)
(0 -0.0078634 0)
(0 -0.00776759 0)
(0 -0.0070182 0)
(0 -0.00694798 0)
(0 -0.00769351 0)
(0 -0.00734926 0)
(0 -0.00662212 0)
(0 -0.00647681 0)
(0 -0.00719553 0)
(0 -0.00674204 0)
(0 -0.00603359 0)
(0 -0.00586279 0)
(0 -0.00656045 0)
(0 -0.00592133 0)
(0 -0.00526316 0)
(0 -0.00461864 0)
(0 -0.00419056 0)
(0 -0.00542758 0)
(0 -0.00489163 0)
(0 -0.00372928 0)
(0 -0.00324596 0)
(0 -0.00432522 0)
(0 -0.00275276 0)
(0 -0.00186167 0)
(0 -0.00110563 0)
(0 -0.000545772 0)
(0 -0.000131039 0)
(0 0 0)
(0 0 0)
(0 0 0)
(0 0 0)
(0 0 0)
(0 0 0)
(0 0 0)
(0 0 0)
(0 0 0)
(0 0 0)
(0 0 0)
(0 0 0)
(0 0 0)
(0 0 0)
(0 0 0)
(0 0 0)
(0 0 0)
(0 0 0)
(0 0 0)
(0 0 0)
(0 0 0)
(0 0 0)
(0 0 0)
(0 -1.1159e-05 0)
(0 -0.000189283 0)
(0 -0.000528262 0)
(0 -0.00110818 0)
(0 -0.00140988 0)
(0 -0.00225998 0)
(0 -0.00265586 0)
(0 -0.00171624 0)
(0 -0.00201688 0)
(0 -0.003038 0)
(0 -0.00339591 0)
(0 -0.00282998 0)
(0 -0.00298052 0)
(0 -0.00356276 0)
(0 -0.00396461 0)
(0 -0.00335537 0)
(0 -0.00349662 0)
(0 -0.00411982 0)
(0 -0.00451094 0)
(0 -0.00385356 0)
(0 -0.00394771 0)
(0 -0.00461386 0)
(0 -0.00483185 0)
(0 -0.00414742 0)
(0 -0.00418503 0)
(0 -0.00487285 0)
(0 -0.00493832 0)
(0 -0.0042464 0)
(0 -0.00421526 0)
(0 -0.00490579 0)
(0 -0.00483185 0)
(0 -0.00414742 0)
(0 -0.00409511 0)
(0 -0.00477479 0)
(0 -0.00451094 0)
(0 -0.00385356 0)
(0 -0.00374652 0)
(0 -0.00439381 0)
(0 -0.00396461 0)
(0 -0.00335537 0)
(0 -0.00320447 0)
(0 -0.00379851 0)
(0 -0.00339591 0)
(0 -0.00282998 0)
(0 -0.00230212 0)
(0 -0.00201688 0)
(0 -0.003038 0)
(0 -0.00265586 0)
(0 -0.00171624 0)
(0 -0.00140988 0)
(0 -0.00225998 0)
(0 -0.00110818 0)
(0 -0.000528262 0)
(0 -0.000189283 0)
(0 -1.1159e-05 0)
(0 0 0)
(0 0 0)
(0 0 0)
(0 0 0)
(0 0 0)
(0 0 0)
(0 0 0)
(0 0 0)
(0 0 0)
(0 0 0)
(0 0 0)
(0 0 0)
(0 0 0)
(0 0 0)
(0 0 0)
(0 0 0)
(0 0 0)
(0 0 0)
(0 0 0)
(0 0 0)
(0 0 0)
(0 0 0)
(0 0 0)
(0 0 0)
(0 0 0)
(0 0 0)
(0 -2.02279e-06 0)
(0 -0.000151971 0)
(0 -0.000264707 0)
(0 -0.000734004 0)
(0 -0.000951001 0)
(0 -0.000394708 0)
(0 -0.000533731 0)
(0 -0.00116992 0)
(0 -0.00138198 0)
(0 -0.000951295 0)
(0 -0.00104868 0)
(0 -0.00143419 0)
(0 -0.00176095 0)
(0 -0.00132526 0)
(0 -0.00140921 0)
(0 -0.00185924 0)
(0 -0.00211062 0)
(0 -0.00162523 0)
(0 -0.00168307 0)
(0 -0.00217759 0)
(0 -0.0023205 0)
(0 -0.00180687 0)
(0 -0.00183034 0)
(0 -0.00234753 0)
(0 -0.00239455 0)
(0 -0.00187201 0)
(0 -0.00184925 0)
(0 -0.0023693 0)
(0 -0.0023205 0)
(0 -0.00180687 0)
(0 -0.0017743 0)
(0 -0.00228295 0)
(0 -0.00211062 0)
(0 -0.00162523 0)
(0 -0.0015599 0)
(0 -0.00203481 0)
(0 -0.00176095 0)
(0 -0.00132526 0)
(0 -0.0012366 0)
(0 -0.00165673 0)
(0 -0.00138198 0)
(0 -0.000951295 0)
(0 -0.000639706 0)
(0 -0.000533731 0)
(0 -0.00116992 0)
(0 -0.000951001 0)
(0 -0.000394708 0)
(0 -0.000264707 0)
(0 -0.000734004 0)
(0 -0.000151971 0)
(0 -2.02279e-06 0)
(0 0 0)
(0 0 0)
(0 0 0)
(0 0 0)
(0 0 0)
(0 0 0)
(0 0 0)
(0 0 0)
(0 0 0)
(0 0 0)
(0 0 0)
(0 0 0)
(0 0 0)
(0 0 0)
(0 0 0)
(0 0 0)
(0 0 0)
(0 0 0)
(0 0 0)
(0 0 0)
(0 0 0)
(0 0 0)
(0 0 0)
(0 0 0)
(0 0 0)
(0 0 0)
(0 0 0)
(0 0 0)
(0 0 0)
(0 0 0)
(0 0 0)
(0 -7.42893e-05 0)
(0 -2.68696e-05 0)
(0 0 0)
(0 -0.00011682 0)
(0 -0.000195162 0)
(0 -5.97486e-06 0)
(0 -2.61158e-05 0)
(0 -0.000281244 0)
(0 -0.000368471 0)
(0 -5.50687e-05 0)
(0 -8.76854e-05 0)
(0 -0.000450891 0)
(0 -0.000523336 0)
(0 -0.000119471 0)
(0 -0.000146695 0)
(0 -0.000581531 0)
(0 -0.000622191 0)
(0 -0.000166479 0)
(0 -0.000176867 0)
(0 -0.000643087 0)
(0 -0.000659806 0)
(0 -0.000185741 0)
(0 -0.000176867 0)
(0 -0.000643087 0)
(0 -0.000622191 0)
(0 -0.000166479 0)
(0 -0.000146695 0)
(0 -0.000581531 0)
(0 -0.000523336 0)
(0 -0.000119471 0)
(0 -8.76854e-05 0)
(0 -0.000450891 0)
(0 -0.000368471 0)
(0 -5.50687e-05 0)
(0 -2.61158e-05 0)
(0 -0.000281244 0)
(0 -0.000195162 0)
(0 -5.97486e-06 0)
(0 0 0)
(0 -0.00011682 0)
(0 -7.42893e-05 0)
(0 0 0)
(0 0 0)
(0 0 0)
(0 -2.68696e-05 0)
(0 0 0)
(0 0 0)
(0 0 0)
(0 0 0)
(0 0 0)
(0 0 0)
(0 0 0)
(0 0 0)
(0 0 0)
(0 0 0)
(0 0 0)
(0 0 0)
(0 0 0)
(0 0 0)
(0 0 0)
(0 0 0)
(0 0 0)
(0 0 0)
(0 0 0)
(0 0 0)
(0 0 0)
(0 0 0)
(0 0 0)
(0 0 0)
(0 0 0)
(0 0 0)
(0 0 0)
(0 0 0)
(0 0 0)
(0 0 0)
(0 0 0)
(0 0 0)
(0 0 0)
(0 0 0)
(0 0 0)
(0 0 0)
(0 0 0)
(0 0 0)
(0 0 0)
(0 0 0)
(0 -5.36956e-07 0)
(0 0 0)
(0 0 0)
(0 -2.06638e-06 0)
(0 -1.22946e-06 0)
(0 0 0)
(0 -5.36956e-07 0)
(0 -1.22946e-06 0)
(0 0 0)
(0 0 0)
(0 0 0)
(0 0 0)
(0 0 0)
(0 0 0)
(0 0 0)
(0 0 0)
(0 0 0)
(0 0 0)
(0 0 0)
(0 0 0)
(0 0 0)
(0 0 0)
(0 0 0)
(0 0 0)
(0 0 0)
(0 0 0)
(0 0 0)
(0 0 0)
(0 0 0)
(0 0 0)
(0 0 0)
(0 0 0)
(0 0 0)
(0 0 0)
(0 0 0)
(0 0 0)
(0 0 0)
(0 0 0)
(0 0 0)
(0 0 0)
(0 0 0)
(0 0 0)
(0 0 0)
(0 0 0)
(0 0 0)
(0 0 0)
(0 0 0)
(0 0 0)
(0 0 0)
(0 0 0)
(0 0 0)
(0 0 0)
(0 0 0)
(0 0 0)
(0 0 0)
(0 0 0)
(0 0 0)
(0 0 0)
(0 0 0)
(0 0 0)
(0 0 0)
(0 0 0)
(0 0 0)
(0 0 0)
(0 0 0)
(0 0 0)
(0 0 0)
(0 0 0)
(0 0 0)
(0 0 0)
(0 0 0)
(0 0 0)
(0 0 0)
(0 0 0)
(0 0 0)
(0 0 0)
(0 0 0)
(0 0 0)
(0 0 0)
(0 0 0)
(0 0 0)
(0 0 0)
(0 0 0)
(0 0 0)
(0 0 0)
(0 0 0)
(0 0 0)
(0 0 0)
(0 0 0)
(0 0 0)
(0 0 0)
(0 0 0)
(0 0 0)
(0 0 0)
(0 0 0)
(0 0 0)
(0 0 0)
(0 0 0)
(0 0 0)
(0 0 0)
(0 0 0)
(0 0 0)
(0 0 0)
(0 0 0)
(0 0 0)
(0 0 0)
(0 0 0)
(0 0 0)
(0 0 0)
(0 0 0)
(0 0 0)
(0 0 0)
(0 0 0)
(0 0 0)
(0 0 0)
(0 0 0)
(0 0 0)
(0 0 0)
(0 0 0)
(0 0 0)
(0 0 0)
(0 0 0)
(0 0 0)
(0 0 0)
(0 0 0)
(0 0 0)
(0 0 0)
(0 0 0)
(0 0 0)
(0 0 0)
(0 0 0)
(0 0 0)
(0 0 0)
(0 0 0)
(0 0 0)
(0 0 0)
(0 0 0)
(0 0 0)
(0 0 0)
(0 0 0)
(0 0 0)
(0 0 0)
(0 0 0)
(0 0 0)
(0 0 0)
(0 0 0)
(0 0 0)
(0 0 0)
(0 0 0)
(0 0 0)
(0 0 0)
(0 0 0)
(0 0 0)
(0 0 0)
(0 0 0)
(0 0 0)
(0 0 0)
(0 0 0)
(0 0 0)
(0 0 0)
(0 0 0)
(0 0 0)
(0 0 0)
(0 0 0)
(0 0 0)
(0 0 0)
(0 0 0)
(0 0 0)
(0 0 0)
(0 0 0)
(0 0 0)
(0 0 0)
(0 0 0)
(0 0 0)
(0 0 0)
(0 0 0)
(0 0 0)
(0 0 0)
(0 0 0)
(0 0 0)
(0 0 0)
(0 0 0)
(0 0 0)
(0 0 0)
(0 0 0)
(0 0 0)
(0 0 0)
(0 0 0)
(0 0 0)
(0 0 0)
(0 0 0)
(0 0 0)
(0 0 0)
(0 0 0)
(0 0 0)
(0 0 0)
(0 0 0)
(0 0 0)
(0 0 0)
(0 0 0)
(0 0 0)
(0 0 0)
(0 0 0)
(0 0 0)
(0 0 0)
(0 0 0)
(0 0 0)
(0 0 0)
(0 0 0)
(0 0 0)
(0 0 0)
(0 0 0)
(0 0 0)
(0 0 0)
(0 0 0)
(0 0 0)
(0 0 0)
(0 0 0)
(0 0 0)
(0 0 0)
(0 0 0)
(0 0 0)
(0 0 0)
(0 0 0)
(0 0 0)
(0 0 0)
(0 0 0)
(0 0 0)
(0 0 0)
(0 0 0)
(0 0 0)
(0 0 0)
(0 0 0)
(0 0 0)
(0 0 0)
(0 0 0)
(0 0 0)
(0 0 0)
(0 0 0)
(0 0 0)
(0 0 0)
(0 0 0)
(0 0 0)
(0 0 0)
(0 0 0)
(0 0 0)
(0 0 0)
(0 0 0)
(0 0 0)
(0 0 0)
(0 0 0)
(0 0 0)
(0 0 0)
(0 0 0)
(0 0 0)
(0 0 0)
(0 0 0)
(0 0 0)
(0 0 0)
(0 0 0)
(0 0 0)
(0 0 0)
(0 0 0)
(0 0 0)
(0 0 0)
(0 0 0)
(0 0 0)
(0 0 0)
(0 0 0)
(0 0 0)
(0 0 0)
(0 0 0)
(0 0 0)
(0 0 0)
(0 0 0)
(0 0 0)
(0 0 0)
(0 0 0)
(0 0 0)
(0 0 0)
(0 0 0)
(0 0 0)
(0 0 0)
(0 0 0)
(0 0 0)
(0 0 0)
(0 0 0)
(0 0 0)
(0 0 0)
(0 0 0)
(0 0 0)
(0 0 0)
(0 0 0)
(0 0 0)
(0 0 0)
(0 0 0)
(0 0 0)
(0 0 0)
(0 0 0)
(0 0 0)
(0 0 0)
(0 0 0)
(0 0 0)
(0 0 0)
(0 0 0)
(0 0 0)
(0 0 0)
(0 0 0)
(0 0 0)
(0 0 0)
(0 0 0)
(0 0 0)
(0 0 0)
(0 0 0)
(0 0 0)
(0 0 0)
(0 0 0)
(0 0 0)
(0 0 0)
(0 0 0)
(0 0 0)
(0 0 0)
(0 0 0)
(0 0 0)
(0 0 0)
(0 0 0)
(0 0 0)
(0 0 0)
(0 0 0)
(0 0 0)
(0 0 0)
(0 0 0)
(0 0 0)
(0 0 0)
(0 0 0)
(0 0 0)
(0 0 0)
(0 0 0)
(0 0 0)
(0 0 0)
(0 0 0)
(0 0 0)
(0 0 0)
(0 0 0)
(0 0 0)
(0 0 0)
(0 0 0)
(0 0 0)
(0 0 0)
(0 0 0)
(0 0 0)
(0 0 0)
(0 0 0)
(0 0 0)
(0 0 0)
(0 0 0)
(0 0 0)
(0 0 0)
(0 0 0)
(0 0 0)
(0 0 0)
(0 0 0)
(0 0 0)
(0 0 0)
(0 0 0)
(0 0 0)
(0 0 0)
(0 0 0)
(0 0 0)
(0 0 0)
(0 0 0)
(0 0 0)
(0 0 0)
(0 0 0)
(0 0 0)
(0 0 0)
(0 0 0)
(0 0 0)
(0 0 0)
(0 0 0)
(0 0 0)
(0 0 0)
(0 0 0)
(0 0 0)
(0 0 0)
(0 0 0)
(0 0 0)
(0 0 0)
(0 0 0)
(0 0 0)
(0 0 0)
(0 0 0)
(0 0 0)
(0 0 0)
(0 0 0)
(0 0 0)
(0 0 0)
(0 0 0)
(0 0 0)
(0 0 0)
(0 0 0)
(0 0 0)
(0 0 0)
(0 0 0)
(0 0 0)
(0 0 0)
(0 0 0)
(0 0 0)
(0 0 0)
(0 0 0)
(0 0 0)
(0 0 0)
(0 0 0)
(0 0 0)
(0 0 0)
(0 0 0)
(0 0 0)
(0 0 0)
(0 0 0)
(0 0 0)
(0 0 0)
(0 0 0)
(0 0 0)
(0 0 0)
(0 0 0)
(0 0 0)
(0 0 0)
(0 0 0)
(0 0 0)
(0 0 0)
(0 0 0)
(0 0 0)
(0 0 0)
(0 0 0)
(0 0 0)
(0 0 0)
(0 0 0)
(0 0 0)
(0 0 0)
(0 0 0)
(0 0 0)
(0 0 0)
(0 0 0)
(0 0 0)
(0 0 0)
(0 0 0)
(0 0 0)
(0 0 0)
(0 0 0)
(0 0 0)
(0 0 0)
(0 0 0)
(0 0 0)
(0 0 0)
(0 0 0)
(0 0 0)
(0 0 0)
(0 0 0)
(0 0 0)
(0 0 0)
(0 0 0)
(0 0 0)
(0 0 0)
(0 0 0)
(0 0 0)
(0 0 0)
(0 0 0)
(0 0 0)
(0 0 0)
(0 0 0)
(0 0 0)
(0 0 0)
(0 0 0)
(0 0 0)
(0 0 0)
(0 0 0)
(0 0 0)
(0 0 0)
(0 0 0)
(0 0 0)
(0 0 0)
(0 0 0)
(0 0 0)
(0 0 0)
(0 0 0)
(0 0 0)
(0 0 0)
(0 0 0)
(0 0 0)
(0 0 0)
(0 0 0)
(0 0 0)
(0 0 0)
(0 0 0)
(0 0 0)
(0 0 0)
(0 0 0)
(0 0 0)
(0 0 0)
(0 0 0)
(0 0 0)
(0 0 0)
(0 0 0)
(0 0 0)
(0 0 0)
(0 0 0)
(0 0 0)
(0 0 0)
(0 0 0)
(0 0 0)
(0 0 0)
(0 0 0)
(0 0 0)
(0 0 0)
(0 0 0)
(0 0 0)
(0 0 0)
(0 0 0)
(0 0 0)
(0 0 0)
(0 0 0)
(0 0 0)
(0 0 0)
(0 0 0)
(0 0 0)
(0 0 0)
(0 0 0)
(0 0 0)
(0 0 0)
(0 0 0)
(0 0 0)
(0 0 0)
(0 0 0)
(0 0 0)
(0 0 0)
(0 0 0)
(0 0 0)
(0 0 0)
(0 0 0)
(0 0 0)
(0 0 0)
(0 0 0)
(0 0 0)
(0 0 0)
(0 0 0)
(0 0 0)
(0 0 0)
(0 0 0)
(0 0 0)
(0 0 0)
(0 0 0)
(0 0 0)
(0 0 0)
(0 0 0)
(0 0 0)
(0 0 0)
(0 0 0)
(0 0 0)
(0 0 0)
(0 0 0)
(0 0 0)
(0 0 0)
(0 0 0)
(0 0 0)
(0 0 0)
(0 0 0)
(0 0 0)
(0 0 0)
(0 0 0)
(0 0 0)
(0 0 0)
(0 0 0)
(0 0 0)
(0 0 0)
(0 0 0)
(0 0 0)
(0 0 0)
(0 0 0)
(0 0 0)
(0 0 0)
(0 0 0)
(0 0 0)
(0 0 0)
(0 0 0)
(0 0 0)
(0 0 0)
(0 0 0)
(0 0 0)
(0 0 0)
(0 0 0)
(0 0 0)
(0 0 0)
(0 0 0)
(0 0 0)
(0 0 0)
(0 0 0)
(0 0 0)
(0 0 0)
(0 0 0)
(0 0 0)
(0 0 0)
(0 0 0)
(0 0 0)
(0 0 0)
(0 0 0)
(0 0 0)
(0 0 0)
(0 0 0)
(0 0 0)
(0 0 0)
(0 0 0)
(0 0 0)
(0 0 0)
(0 0 0)
(0 0 0)
(0 0 0)
(0 0 0)
(0 0 0)
(0 0 0)
(0 0 0)
(0 0 0)
(0 0 0)
(0 0 0)
(0 0 0)
(0 0 0)
(0 0 0)
(0 0 0)
(0 0 0)
(0 0 0)
(0 0 0)
(0 0 0)
(0 0 0)
(0 0 0)
(0 0 0)
(0 0 0)
(0 0 0)
(0 0 0)
(0 0 0)
(0 0 0)
(0 0 0)
(0 0 0)
(0 0 0)
(0 0 0)
(0 0 0)
(0 0 0)
(0 0 0)
(0 0 0)
(0 0 0)
(0 0 0)
(0 0 0)
(0 0 0)
(0 0 0)
(0 0 0)
(0 0 0)
(0 0 0)
(0 0 0)
(0 0 0)
(0 0 0)
(0 0 0)
(0 0 0)
(0 0 0)
(0 0 0)
(0 0 0)
(0 0 0)
(0 0 0)
(0 0 0)
(0 0 0)
(0 0 0)
(0 0 0)
(0 0 0)
(0 0 0)
(0 0 0)
(0 0 0)
(0 0 0)
(0 0 0)
(0 0 0)
(0 0 0)
(0 0 0)
(0 0 0)
(0 0 0)
(0 0 0)
(0 0 0)
(0 0 0)
(0 0 0)
(0 0 0)
(0 0 0)
(0 0 0)
(0 0 0)
(0 0 0)
(0 0 0)
(0 0 0)
(0 0 0)
(0 0 0)
(0 0 0)
(0 0 0)
(0 0 0)
(0 0 0)
(0 0 0)
(0 0 0)
(0 0 0)
(0 0 0)
(0 0 0)
(0 0 0)
(0 0 0)
(0 0 0)
(0 0 0)
(0 0 0)
(0 0 0)
(0 0 0)
(0 0 0)
(0 0 0)
(0 0 0)
(0 0 0)
(0 0 0)
(0 0 0)
(0 0 0)
(0 0 0)
(0 0 0)
(0 0 0)
(0 0 0)
(0 0 0)
(0 0 0)
(0 0 0)
(0 0 0)
(0 0 0)
(0 0 0)
(0 0 0)
(0 0 0)
(0 0 0)
(0 0 0)
(0 0 0)
(0 0 0)
(0 0 0)
(0 0 0)
(0 0 0)
(0 0 0)
(0 0 0)
(0 0 0)
(0 0 0)
(0 0 0)
(0 0 0)
(0 0 0)
(0 0 0)
(0 0 0)
(0 0 0)
(0 0 0)
(0 0 0)
(0 0 0)
(0 0 0)
(0 0 0)
(0 0 0)
(0 0 0)
(0 0 0)
(0 0 0)
(0 0 0)
(0 0 0)
(0 0 0)
(0 0 0)
(0 0 0)
(0 0 0)
(0 0 0)
(0 0 0)
(0 0 0)
(0 0 0)
(0 0 0)
(0 0 0)
(0 0 0)
(0 0 0)
(0 0 0)
(0 0 0)
(0 0 0)
(0 0 0)
(0 0 0)
(0 0 0)
(0 0 0)
(0 0 0)