/*--------------------------------*- C++ -*----------------------------------*\
| =========                 |                                                 |
| \\      /  F ield         | OpenFOAM: The Open Source CFD Toolbox           |
|  \\    /   O peration     | Version:  v2106                                 |
|   \\  /    A nd           | Website:  www.openfoam.com                      |
|    \\/     M anipulation  |                                                 |
\*---------------------------------------------------------------------------*/
FoamFile
{
    version     2.0;
    format      ascii;
    arch        "LSB;label=32;scalar=64";
    class       volScalarField;
    location    "0";
    object      p;
}
// * * * * * * * * * * * * * * * * * * * * * * * * * * * * * * * * * * * * * //

dimensions      [0 2 -2 0 0 0 0];

internalField   nonuniform List<scalar> 
11644
(
-0.118599
-0.118927
-0.119423
-0.119991
-0.12078
-0.121728
-0.122861
-0.124112
-0.125199
-0.125785
-0.125489
-0.124084
-0.121316
-0.116394
-0.109777
-0.10072
-0.0912085
-0.0837418
-0.0769365
-0.0672141
-0.0617225
-0.0606149
-0.0572967
-0.0548435
-0.0545013
-0.0544624
-0.0526831
-0.050192
-0.04675
-0.0427348
-0.0384379
-0.0340081
-0.0296722
-0.0256988
-0.0222533
-0.0193475
-0.0169788
-0.0151474
-0.0138263
-0.013085
-0.116807
-0.117072
-0.117697
-0.118642
-0.119806
-0.121101
-0.122482
-0.123849
-0.125048
-0.125791
-0.125877
-0.124831
-0.12197
-0.118046
-0.1118
-0.104416
-0.0971459
-0.0884368
-0.0792251
-0.0679531
-0.0633833
-0.0639925
-0.0615767
-0.0595277
-0.0570515
-0.0548818
-0.0529657
-0.0498859
-0.0459241
-0.0415901
-0.0370904
-0.0326177
-0.0283522
-0.0243713
-0.0207328
-0.0175478
-0.0148677
-0.0127639
-0.0113026
-0.0105921
-0.11685
-0.116801
-0.117024
-0.117665
-0.118602
-0.119833
-0.121203
-0.12257
-0.123797
-0.12479
-0.125204
-0.124708
-0.123212
-0.119985
-0.115597
-0.109096
-0.0989755
-0.0879465
-0.0791812
-0.0743627
-0.0680466
-0.0618695
-0.0568312
-0.0566199
-0.0569565
-0.0547513
-0.0510328
-0.0473081
-0.0432047
-0.0385001
-0.0337399
-0.0291616
-0.0248436
-0.0208895
-0.01731
-0.0142745
-0.0118319
-0.0100298
-0.00897707
-0.00863508
-0.117722
-0.117571
-0.117495
-0.117548
-0.117815
-0.118361
-0.119154
-0.12012
-0.121219
-0.122272
-0.123279
-0.124358
-0.124391
-0.124628
-0.121832
-0.114884
-0.105386
-0.0943889
-0.0845345
-0.0746683
-0.0665486
-0.0597027
-0.0554805
-0.0533324
-0.051927
-0.0498998
-0.0468101
-0.0418825
-0.0370175
-0.0322694
-0.0274353
-0.022893
-0.0188512
-0.0153132
-0.0123662
-0.00999458
-0.00824509
-0.0071033
-0.00650842
-0.00629392
-0.119229
-0.119035
-0.118734
-0.118309
-0.117839
-0.117482
-0.11737
-0.117579
-0.118227
-0.119445
-0.121554
-0.12395
-0.126761
-0.126475
-0.124321
-0.1192
-0.110034
-0.100204
-0.091366
-0.0808622
-0.0705721
-0.0605268
-0.0523673
-0.0483352
-0.0449934
-0.0405903
-0.0356697
-0.0314244
-0.0262549
-0.0218587
-0.0180686
-0.0142945
-0.0110647
-0.00854604
-0.00665179
-0.00529896
-0.00442555
-0.00391976
-0.00363036
-0.00349525
-0.12159
-0.121414
-0.120945
-0.120217
-0.119228
-0.1181
-0.117002
-0.116192
-0.11617
-0.117214
-0.119076
-0.121818
-0.123521
-0.129124
-0.132724
-0.130847
-0.122818
-0.118754
-0.108398
-0.0963409
-0.0811835
-0.0663947
-0.0561189
-0.0446002
-0.0339172
-0.0283369
-0.0228854
-0.0154601
-0.0118485
-0.00823944
-0.00577993
-0.00398581
-0.00249202
-0.00140816
-0.000861588
-0.000740056
-0.000823178
-0.000954997
-0.00100592
-0.00104974
-0.125797
-0.12542
-0.124784
-0.123744
-0.122432
-0.120815
-0.118981
-0.117219
-0.116143
-0.115851
-0.116797
-0.11861
-0.123898
-0.12441
-0.128856
-0.139071
-0.141723
-0.123371
-0.11354
-0.0991184
-0.0778964
-0.0638399
-0.045418
-0.0270683
-0.00772498
-0.00191334
0.0036794
0.00496784
0.0062177
0.00726342
0.00746684
0.00694611
0.00578294
0.00479242
0.00372275
0.00264784
0.00174968
0.00108142
0.000667891
0.000503212
-0.131608
-0.13141
-0.130727
-0.129763
-0.128322
-0.126552
-0.124388
-0.122143
-0.119998
-0.118223
-0.118463
-0.120886
-0.118567
-0.133637
-0.138769
-0.137118
-0.142448
-0.135549
-0.117267
-0.0941123
-0.0657377
-0.0427432
-0.0213491
-0.0107204
0.00416287
0.0213069
0.015183
0.0302709
0.0230877
0.0207836
0.0177007
0.0148025
0.0113743
0.00821531
0.00584536
0.00390461
0.00239066
0.0013888
0.000692294
0.00031858
-0.139637
-0.139208
-0.138685
-0.137917
-0.136793
-0.135383
-0.133558
-0.13172
-0.129631
-0.128024
-0.127488
-0.128903
-0.130098
-0.145859
-0.150792
-0.153254
-0.154139
-0.155095
-0.139051
-0.112382
-0.0722342
-0.0343646
-0.00094788
0.0159877
0.0318355
0.0358057
0.0329775
0.0445569
0.0349467
0.029047
0.0220185
0.0164187
0.0117908
0.00750671
0.00462263
0.00244318
0.000724204
-0.000613988
-0.00143111
-0.00180301
-0.148511
-0.148404
-0.14829
-0.147937
-0.147643
-0.147142
-0.146643
-0.146357
-0.145809
-0.146087
-0.14759
-0.151258
-0.156954
-0.161047
-0.158646
-0.178983
-0.181189
-0.181764
-0.171311
-0.131831
-0.0639895
0.000785402
0.0388687
0.0529226
0.0540615
0.0587323
0.0458337
0.0343262
0.0298837
0.0238857
0.0167637
0.0109283
0.00632271
0.00221392
-0.000348184
-0.00210848
-0.00341977
-0.00443199
-0.00507334
-0.00561091
-0.157283
-0.157722
-0.158187
-0.158948
-0.159851
-0.160883
-0.162346
-0.164331
-0.166192
-0.168235
-0.170247
-0.176707
-0.176865
-0.169694
-0.18479
-0.19058
-0.209829
-0.227632
-0.243386
-0.209698
-0.053737
0.0866188
0.106209
0.0874585
0.0637331
0.0490594
0.038853
0.0187415
0.0101184
0.00730994
0.00317037
-0.00103347
-0.00412262
-0.00657244
-0.00801123
-0.00895131
-0.00990592
-0.0104377
-0.0108393
-0.0107356
-0.166073
-0.166414
-0.167327
-0.168751
-0.170956
-0.174021
-0.177878
-0.182459
-0.186049
-0.189287
-0.190769
-0.196732
-0.199456
-0.185826
-0.203746
-0.205109
-0.216063
-0.240283
-0.285711
0.125777
0.0743579
0.0377321
0.00749079
0.00235746
-0.0158164
-0.0154943
-0.013417
-0.0145671
-0.016265
-0.0168402
-0.0169157
-0.0166837
-0.0164224
-0.0166598
-0.0167583
-0.016692
-0.0163808
-0.171177
-0.171842
-0.173815
-0.176469
-0.179938
-0.184312
-0.190023
-0.196384
-0.200219
-0.201687
-0.19825
-0.196119
-0.196513
-0.195075
-0.19795
-0.185894
-0.177008
-0.162244
-0.225366
-0.0429882
-0.0103776
-0.0207025
-0.0401593
-0.0446275
-0.0385976
-0.0292956
-0.0266541
-0.0286427
-0.0293762
-0.0280254
-0.0258354
-0.0241025
-0.0230429
-0.0223518
-0.0216906
-0.0212268
-0.0221982
-0.170366
-0.173648
-0.176148
-0.178996
-0.182802
-0.187606
-0.193882
-0.201026
-0.202604
-0.205272
-0.187416
-0.163193
-0.170528
-0.157747
-0.170834
-0.1455
-0.108562
-0.0507439
-0.137645
-0.215773
-0.12003
-0.0981123
-0.0929684
-0.0647097
-0.0320996
-0.010313
-0.0215603
-0.0363932
-0.0350006
-0.0344753
-0.030477
-0.0279388
-0.0269102
-0.0262924
-0.0262661
-0.0256489
-0.022397
-0.176351
-0.172106
-0.173635
-0.175564
-0.179842
-0.182705
-0.18913
-0.19958
-0.200732
-0.19425
-0.17159
-0.164041
-0.166507
-0.16014
-0.154282
-0.126591
-0.059709
0.115563
0.758483
0.805108
-2.28342
0.612899
-0.0867099
-0.262841
-0.20403
-0.117773
-0.0688982
-0.037239
-0.0148528
-0.0122269
-0.0300575
-0.039176
-0.0386712
-0.0315093
-0.0283044
-0.0275496
-0.0253424
-0.0242028
-0.0227854
-0.0271187
-0.163499
-0.168015
-0.166602
-0.165841
-0.168347
-0.172935
-0.178253
-0.179406
-0.181112
-0.182924
-0.185587
-0.185558
-0.131081
-0.130751
-0.124473
-0.158858
-0.0774459
0.0745272
0.880041
0.0609449
-3.05758
0.834962
-0.23002
-0.502557
-0.215821
-0.0879364
-0.0580282
0.0113435
-0.0296757
-0.0260554
-0.0245268
-0.0251162
-0.0258141
-0.0276457
-0.0256304
-0.0221831
-0.0198228
-0.0203786
-0.0218226
-0.0167185
-0.15548
-0.154667
-0.15555
-0.156989
-0.159398
-0.162522
-0.166044
-0.168524
-0.168786
-0.177063
-0.197351
-0.225179
-0.197717
-0.067105
0.0237577
0.0279609
-0.0800932
-0.986819
-2.18624
0.337227
1.5123
-0.413997
-1.89277
-0.564686
0.101498
0.153097
0.0887511
-0.0231551
-0.061705
-0.0385693
-0.0245534
-0.0197783
-0.022294
-0.0208945
-0.0202284
-0.0189998
-0.0185706
-0.0190792
-0.0193904
-0.0202658
-0.151964
-0.1512
-0.152217
-0.152472
-0.15532
-0.157503
-0.152019
-0.153312
-0.16312
-0.183883
-0.205441
-0.208178
-0.208405
-0.277746
-0.0603257
-0.0206977
0.381074
0.307371
-1.08455
1.20624
2.18354
0.626191
-0.992778
0.737475
0.307779
0.136334
-0.0789734
-0.0452552
-0.0501609
-0.0512702
-0.0353596
-0.0188384
-0.0137583
-0.016517
-0.0215182
-0.0205713
-0.0191334
-0.0195185
-0.0194395
-0.0204753
-0.143488
-0.143307
-0.147668
-0.150605
-0.151377
-0.148721
-0.13616
-0.120768
-0.11665
-0.12649
-0.148992
-0.164239
-0.213614
-0.294426
-0.479321
-0.443449
-0.391502
1.73502
0.816769
-2.73068
-3.43285
-1.94966
1.82768
1.8264
0.0755482
-0.123528
-0.0824128
-0.0554126
-0.0190589
-0.00651597
0.0139558
0.0157431
0.0091319
-0.00719536
-0.0182106
-0.0202384
-0.0190167
-0.0156428
-0.0114207
-0.0115545
-0.143979
-0.143605
-0.143071
-0.142559
-0.141505
-0.141709
-0.140105
-0.134977
-0.118028
-0.101999
-0.0949193
-0.13208
-0.108896
-0.220225
-0.258431
-0.685464
-1.76204
-2.50327
0.301105
2.87245
3.64041
3.01706
0.37956
-2.10772
-0.899614
-0.146784
-0.0180101
0.0414567
-0.0021951
0.0277626
0.0209488
0.00372864
-0.011614
-0.0117776
-0.0112735
-0.0105254
-0.0108284
-0.010692
-0.0109063
-0.0111824
-0.134846
-0.135262
-0.134369
-0.132671
-0.132858
-0.134449
-0.140585
-0.154222
-0.157873
-0.149679
-0.130554
-0.14069
-0.0946557
-0.175154
-0.23549
0.190818
0.31319
-1.8522
-4.07549
-4.76373
-4.71284
-4.54892
-3.51347
-1.02139
0.970189
0.203121
0.0051004
0.0469459
-0.00719234
-0.00756463
-0.0238794
-0.0319939
-0.0251492
-0.00965116
-0.0022371
0.000183575
0.000772445
-0.00105437
-0.00188103
-0.00138167
-0.124603
-0.124121
-0.126377
-0.127068
-0.12671
-0.126638
-0.125294
-0.129246
-0.136151
-0.144546
-0.14874
-0.104643
-0.0761481
0.0792713
0.114452
0.0890941
1.31184
3.02228
3.44431
3.32109
3.41029
2.9626
3.28363
2.28327
0.482736
0.284341
0.206047
0.08378
0.0300026
-0.00725297
-0.0039915
0.00210057
0.00963509
0.0108875
0.00864619
0.00878679
0.00864408
0.00926056
0.0114103
0.0100868
-0.125427
-0.127609
-0.126223
-0.124399
-0.122672
-0.123482
-0.125518
-0.122611
-0.124713
-0.122575
-0.128395
-0.111504
-0.120601
-0.124697
0.317242
-0.567999
-1.31396
-1.6552
-3.29649
-3.74404
-3.50527
-3.20394
-1.43027
-1.12909
-0.381728
0.371241
0.010735
0.00967545
0.0160061
0.0169743
0.0234684
0.0218118
0.0201893
0.014784
0.0161838
0.0152032
0.0126164
0.0102655
0.00843253
0.00991138
-0.116312
-0.11349
-0.114069
-0.117537
-0.121912
-0.127045
-0.135963
-0.143598
-0.148962
-0.153867
-0.166598
-0.217609
-0.292808
-0.432653
-0.778369
-0.854922
-0.832131
0.229044
0.687311
0.630807
1.1316
0.956993
0.27875
-0.843469
-0.818098
-0.698988
-0.301967
-0.15749
-0.078097
-0.0197412
-0.0086291
-0.00351347
1.56899e-05
0.0070208
0.0140631
0.0169972
0.0189681
0.0202774
0.0191775
0.0168553
-0.104728
-0.101033
-0.103847
-0.107432
-0.11152
-0.114957
-0.121106
-0.133714
-0.142136
-0.157859
-0.15562
-0.153652
-0.214336
-0.26055
-0.458864
-0.39318
0.00842333
1.4617
3.00046
3.51149
3.71391
3.0931
1.51405
0.0442321
-0.338603
-0.345754
-0.127855
-0.0611861
-0.0024174
-0.0056612
-0.0109983
0.00390019
0.00853867
0.0195536
0.0231196
0.0251627
0.0269313
0.0294396
0.03171
0.0276608
-0.110442
-0.11464
-0.111341
-0.107281
-0.105651
-0.106669
-0.107795
-0.111363
-0.11877
-0.1338
-0.154648
-0.0940108
-0.0991502
0.251644
0.513216
0.44701
-0.479114
-1.17047
-1.51299
-1.4784
-1.4267
-1.4735
-1.04381
-0.328494
0.59287
0.597243
0.326138
0.0388158
0.054305
-0.00824904
0.0123673
0.0256346
0.0282721
0.0282474
0.0272831
0.0271163
0.024492
0.0200657
0.0162518
0.0196987
-0.0948533
-0.0964421
-0.100132
-0.103492
-0.107058
-0.109102
-0.110423
-0.114469
-0.11107
-0.122332
-0.13959
-0.140831
-0.15977
-0.197014
-0.0942496
0.308345
0.532834
0.474957
-0.49917
-0.748112
-0.650156
-0.478455
0.66251
0.661209
0.369588
0.00723182
-0.058925
-0.0287818
-0.00593065
-0.00711336
0.0109991
0.0257286
0.0182687
0.0182602
0.0176937
0.0183383
0.0206111
0.0235183
0.0271407
0.0290247
-0.0767879
-0.0730173
-0.0754647
-0.0795759
-0.0835088
-0.0867968
-0.0904272
-0.0936837
-0.0925997
-0.0878083
-0.0620461
-0.120332
-0.137589
-0.334737
-0.468766
-0.17421
0.60023
1.19409
1.8674
2.13486
2.26742
2.01555
1.50868
0.887682
0.0656747
-0.252398
-0.165904
0.00626338
0.0183041
0.0608554
0.0363983
0.0289641
0.0274519
0.0300963
0.032835
0.0344389
0.0372811
0.0404845
0.0423913
0.0395877
-0.0819829
-0.0824944
-0.0775313
-0.0725286
-0.068842
-0.0665856
-0.0660794
-0.0677562
-0.0673898
-0.0619101
-0.0359874
-0.00223261
0.10428
0.277588
0.133214
-0.510883
-1.0015
-1.10784
-0.775473
-0.501159
-0.270595
-0.488043
-0.816067
-0.713963
-0.260112
0.31798
0.420514
0.26956
0.132313
0.0878491
0.0582622
0.0440278
0.0433017
0.0458229
0.04505
0.0429475
0.0399724
0.0352698
0.0303616
0.030455
-0.0742565
-0.0743154
-0.0772659
-0.0784697
-0.0774137
-0.0750549
-0.0721862
-0.0709211
-0.0690335
-0.0718485
-0.0961446
-0.0438616
-0.0680622
0.004421
0.188476
0.245159
-0.0673255
-0.32636
-1.08805
-1.36755
-1.26537
-0.989188
-0.174096
0.0783219
0.414772
0.343784
0.146699
0.0620834
0.0634735
0.0227899
0.0377828
0.0381993
0.0348369
0.0333093
0.029992
0.0284159
0.0286558
0.0308463
0.0344226
0.0335729
-0.0584504
-0.0581679
-0.0582347
-0.0596965
-0.0609665
-0.0611565
-0.0607619
-0.0584242
-0.0547253
-0.0474202
-0.065119
-0.0967275
-0.205682
-0.333307
-0.197084
0.365642
0.777223
1.0084
1.13028
1.09135
1.06202
1.12692
1.11905
0.941993
0.56496
-0.0249185
-0.207128
-0.0816729
0.00718796
0.0346793
0.0580249
0.0502682
0.042805
0.0391765
0.0378757
0.0376338
0.0382936
0.0390132
0.0386538
0.0400522
-0.0508628
-0.0506259
-0.0470788
-0.0422427
-0.0388552
-0.0367591
-0.0340236
-0.0287187
-0.0267785
-0.0173316
0.0107363
0.0324775
0.0902634
0.0375206
-0.280748
-0.603642
-0.626185
-0.492831
-0.0572454
0.263779
0.377823
0.0958953
-0.293137
-0.42983
-0.441789
-0.163187
0.156645
0.215868
0.143155
0.114458
0.0841268
0.0705057
0.0664244
0.059243
0.0567565
0.0529713
0.0485242
0.0439685
0.0408996
0.0418403
-0.0418646
-0.0393454
-0.0427225
-0.0443748
-0.0443901
-0.0424609
-0.0389643
-0.0346939
-0.0349632
-0.0369548
-0.0269292
-0.0038445
0.0621125
0.138176
0.121926
-0.158696
-0.476294
-0.606867
-1.04288
-1.17831
-1.1157
-0.883111
-0.423487
-0.29445
-0.0124743
0.255979
0.268399
0.174375
0.0975644
0.0667783
0.0526264
0.0575947
0.0585659
0.0547101
0.0510556
0.0482672
0.0477799
0.0493262
0.0523232
0.049507
-0.0420828
-0.043153
-0.0423953
-0.0420997
-0.0418164
-0.0420791
-0.0416144
-0.0388945
-0.031209
-0.0288569
-0.063582
-0.120698
-0.175713
-0.0849787
0.278829
0.682324
0.805184
0.748401
0.566051
0.472981
0.50616
0.641379
0.826161
0.888347
0.770594
0.370672
-0.00134793
-0.0941095
-0.0346498
0.0251881
0.0559853
0.0590646
0.0548909
0.0526047
0.0509613
0.0500789
0.0487967
0.0482029
0.0463055
0.045171
-0.0379539
-0.0409044
-0.0372152
-0.0327808
-0.0288599
-0.0264386
-0.024946
-0.0217647
-0.012507
0.005044
0.0109167
0.0313546
0.00238458
-0.100864
-0.258184
-0.217157
0.0695291
0.209338
0.569908
0.776616
0.775176
0.543971
0.154776
0.0294502
-0.236817
-0.266342
-0.0608317
0.0782058
0.11723
0.103296
0.0973184
0.0787626
0.0693785
0.0638755
0.0605501
0.0563154
0.0508131
0.0450322
0.040448
0.0422885
-0.0185449
-0.0153167
-0.018934
-0.0221954
-0.024543
-0.0247481
-0.0225762
-0.0191075
-0.0196434
-0.0152835
0.0126658
0.0563423
0.103402
0.0794979
-0.142413
-0.432884
-0.602803
-0.537502
-0.761962
-0.834223
-0.884437
-0.768088
-0.476338
-0.519467
-0.381479
-0.0893988
0.14373
0.17651
0.12991
0.0943025
0.0713362
0.0670466
0.0644786
0.0598193
0.0560857
0.0533482
0.052385
0.0535975
0.0561511
0.0535397
-0.0152985
-0.0140861
-0.0145874
-0.0167558
-0.0190786
-0.0212459
-0.0212869
-0.0198211
-0.0213197
-0.0307776
-0.0624009
-0.105523
-0.0851219
0.106429
0.381425
0.464521
0.332049
0.198494
-0.0701003
-0.201142
-0.1195
0.0586737
0.342496
0.468574
0.535492
0.42981
0.148499
-0.0402751
-0.0348149
0.0176888
0.0451411
0.0522451
0.0525708
0.0527027
0.0504994
0.0504145
0.0512798
0.0527474
0.0527993
0.0514206
-0.0211335
-0.0257082
-0.0216127
-0.0164144
-0.0121394
-0.0106562
-0.00886743
-0.00502335
0.00578202
0.0182877
0.00743256
-0.0121356
-0.0625748
-0.108403
-0.0654691
0.0707862
0.28085
0.293909
0.511617
0.587452
0.718378
0.578347
0.338677
0.288655
0.0661379
-0.0772001
-0.0928293
-0.0236517
0.0454121
0.0669848
0.0815839
0.0675927
0.0563365
0.0541106
0.0530098
0.0510718
0.0468215
0.0412111
0.0363061
0.0393385
-0.00343011
-0.00267812
-0.0045355
-0.00486304
-0.0040219
-0.0018906
0.00108181
0.00263856
0.00518661
0.0260368
0.0670271
0.114444
0.0962761
-0.0744501
-0.316985
-0.441427
-0.374252
-0.261353
-0.376794
-0.378511
-0.475151
-0.444946
-0.330803
-0.453209
-0.483903
-0.309488
-0.0405887
0.119598
0.136933
0.104516
0.0749051
0.0529033
0.0496526
0.0501183
0.0480659
0.0469651
0.0465301
0.0462041
0.0478842
0.0460771
0.00998766
0.0138652
0.0124616
0.0101256
0.00818427
0.00831545
0.0090651
0.00770015
0.000824055
-0.0088292
-0.0128469
0.00299081
0.0913672
0.256997
0.344345
0.287677
0.121058
0.0263325
-0.199958
-0.270013
-0.284553
-0.222381
0.0222437
0.12107
0.288182
0.347821
0.251416
0.0981179
0.015396
0.0136035
0.0227272
0.0321144
0.0391179
0.0400588
0.0401324
0.041493
0.0442354
0.0477538
0.0503141
0.0470638
0.00208889
-0.00101909
0.00382762
0.00902306
0.0128012
0.0160431
0.0187304
0.020003
0.026994
0.0272343
-0.000951101
-0.0213472
-0.0132404
0.0704315
0.216988
0.342231
0.373975
0.343959
0.467649
0.540563
0.64859
0.572634
0.436006
0.445648
0.389798
0.247044
0.077149
0.00390151
-0.00651297
0.0129637
0.0475772
0.0432532
0.0381907
0.0375775
0.0368202
0.0358479
0.0329469
0.0287837
0.0249887
0.0299038
0.00883818
0.008038
0.00808598
0.0101635
0.0128917
0.0163736
0.0204625
0.0230161
0.028991
0.0537889
0.0821351
0.0950201
0.00495426
-0.189694
-0.351945
-0.356573
-0.276155
-0.177335
-0.125799
-0.131323
-0.0144799
-0.00606933
-0.0882896
-0.196222
-0.309159
-0.323192
-0.188744
-0.00173518
0.0854197
0.0888278
0.0610127
0.0335625
0.030394
0.0299889
0.0307196
0.0307588
0.0298144
0.0296462
0.0308703
0.0321511
0.0246969
0.0286402
0.0261137
0.0233122
0.0219947
0.0229004
0.0249648
0.0235822
0.0175982
0.0129087
0.0252593
0.058651
0.108096
0.13446
0.0798289
-0.0182357
-0.166937
-0.20139
-0.3806
-0.431
-0.438255
-0.376785
-0.209043
-0.185101
-0.0391809
0.0517147
0.106387
0.0914611
0.0416652
0.0139381
0.00627282
0.0133218
0.0247325
0.0299404
0.0312688
0.0341783
0.0383357
0.0436199
0.0473195
0.0423896
0.0190807
0.018533
0.0221517
0.0254711
0.0282918
0.0301429
0.0328351
0.0367913
0.0353438
0.0241513
-0.0126479
-0.00826113
0.0559512
0.196094
0.315039
0.356393
0.29097
0.216633
0.243216
0.314903
0.267048
0.203537
0.139305
0.210234
0.312505
0.286381
0.187353
0.0478644
-0.0207073
-0.0225872
0.01531
0.0287159
0.035436
0.0350688
0.0342259
0.033513
0.0318272
0.0298476
0.0267214
0.028471
0.0179537
0.0161161
0.0181981
0.0213298
0.0244378
0.026482
0.0293739
0.0341833
0.0450221
0.0611033
0.0638303
0.0449399
-0.0542679
-0.161958
-0.212932
-0.158625
-0.0639336
-0.0049861
0.0931968
0.074981
0.145191
0.163215
0.0270368
-0.0296713
-0.121049
-0.184639
-0.160588
-0.0690357
0.0396696
0.0675487
0.0597829
0.0400021
0.032166
0.0275136
0.0256657
0.0237365
0.0215115
0.0194319
0.0186787
0.022861
0.0320961
0.0360757
0.0325405
0.0282939
0.0254202
0.0240469
0.0243713
0.0241919
0.0240537
0.0309088
0.0486987
0.0731574
0.0634647
-0.00581269
-0.0896708
-0.118813
-0.207453
-0.178511
-0.348632
-0.368674
-0.304577
-0.222075
-0.118695
-0.142592
-0.0706187
-0.051879
0.00487799
0.0686181
0.0800478
0.0516046
0.031581
0.0229495
0.0265897
0.0263013
0.0270439
0.0279597
0.0312985
0.0357883
0.0395938
0.0361297
0.0287827
0.0291977
0.0302771
0.0303884
0.0307379
0.0309452
0.0318461
0.0325298
0.0277741
0.0130986
-0.0027823
0.0336489
0.152552
0.288173
0.347926
0.329562
0.21591
0.142519
0.128507
0.229829
0.186837
0.107239
0.0737579
0.158267
0.289402
0.311701
0.267302
0.143354
0.0288255
-0.00635737
0.0170916
0.0298841
0.0394497
0.0383265
0.0372012
0.0364577
0.0364357
0.0349658
0.0325167
0.0308828
0.0210001
0.0163694
0.0191243
0.0230913
0.0265535
0.0284994
0.0309512
0.0371031
0.0458387
0.0507668
0.043975
0.0242227
-0.017678
-0.00576473
0.0406485
0.103889
0.183443
0.210098
0.302836
0.303879
0.196828
0.169508
0.051036
0.0362089
0.000914228
-0.0442072
-0.067979
-0.0577985
0.0115003
0.0460146
0.0522492
0.0476106
0.0383732
0.0320613
0.029178
0.0268255
0.023442
0.0189383
0.0156368
0.0196098
0.0357439
0.0378802
0.0345016
0.0307274
0.0274136
0.024917
0.0235646
0.0247397
0.0283566
0.042477
0.0526729
0.0425304
-0.0323227
-0.129011
-0.163072
-0.137731
-0.115836
-0.0624653
-0.162239
-0.225195
-0.345497
-0.244411
-0.152547
-0.184436
-0.14944
-0.164704
-0.118493
-0.0247885
0.055597
0.0583123
0.0429978
0.0283307
0.0209607
0.0201646
0.0202979
0.0208893
0.0229686
0.0251132
0.0286386
0.027322
0.0419328
0.045585
0.0446915
0.0430903
0.0408611
0.0392559
0.03662
0.0321213
0.0243345
0.0150596
0.0144256
0.0549104
0.147622
0.18737
0.16718
0.105159
-0.00788543
-0.0625204
-0.114761
-0.0620791
-0.0266509
-0.0537853
-0.0161657
0.0415123
0.152164
0.206125
0.210128
0.150966
0.0527658
0.00834985
0.00699882
0.0180596
0.0244984
0.0276832
0.0278998
0.0284551
0.0291656
0.0300491
0.030463
0.0280866
0.0309897
0.0272159
0.031123
0.0363905
0.0405835
0.0432478
0.0454881
0.0486119
0.05072
0.0441066
0.0379474
0.0328514
0.0544619
0.101588
0.118947
0.114208
0.127083
0.112801
0.160787
0.226402
0.223993
0.166819
0.102753
0.100033
0.0915209
0.0731279
0.0470599
0.00663006
-0.00124652
0.0134751
0.0274355
0.033848
0.0311693
0.0281287
0.0261096
0.0248138
0.0208497
0.0160073
0.0119951
0.0145119
0.0384588
0.0373344
0.0357227
0.0351333
0.0351569
0.0357556
0.0369729
0.04037
0.052927
0.0706741
0.0765157
0.0361432
-0.0555326
-0.0949569
-0.0852816
-0.0230946
0.0580278
0.0795525
0.0246054
-0.0935757
-0.140332
-0.078349
-0.0644224
-0.0952375
-0.15134
-0.188483
-0.177761
-0.107353
-0.0097391
0.0326574
0.0322354
0.0220526
0.0108546
0.0098511
0.0113118
0.0129453
0.0138019
0.0153922
0.0169895
0.016906
0.0517443
0.0558261
0.0537543
0.051031
0.0491561
0.0484855
0.0475832
0.0445883
0.0426574
0.0470488
0.0636973
0.109156
0.152993
0.158059
0.134167
0.103401
0.0546586
0.0237354
-0.0162703
-0.0435663
-0.0505297
-0.0553867
-0.0490681
-0.0285211
0.0303632
0.0690901
0.0977237
0.096759
0.0487746
0.00786112
-0.00460669
-0.00180722
0.00158894
0.00712557
0.0104447
0.0130871
0.0168464
0.0217207
0.0251138
0.0217659
0.0444815
0.04393
0.0483164
0.0528812
0.057138
0.0606594
0.0648677
0.0643833
0.0625206
0.057219
0.0555053
0.0786747
0.141812
0.178148
0.175313
0.131961
0.0893866
0.0886809
0.122747
0.199066
0.240886
0.191305
0.145049
0.133628
0.167513
0.165218
0.156561
0.102204
0.0259979
0.00274952
0.00694904
0.0108976
0.0134088
0.0166872
0.0152906
0.0132784
0.010548
0.0081779
0.00540529
0.00789557
0.0430051
0.0411775
0.0422376
0.0441836
0.0463285
0.0486591
0.0524645
0.0598296
0.0673822
0.0746992
0.0765003
0.0235975
-0.0550023
-0.0682673
-0.0539431
-0.0306817
0.039111
0.0287423
-0.009902
-0.0216388
-0.0217988
0.0208809
0.0500916
0.0348746
-0.042263
-0.100375
-0.122611
-0.111242
-0.0374833
0.0135319
0.0213558
0.0151301
0.00579529
0.00355512
0.00354413
0.00351916
0.00337227
0.00291388
0.00277677
0.00594722
0.053926
0.0570518
0.0538696
0.0501603
0.0479471
0.0476203
0.0470944
0.0468513
0.0511192
0.0543802
0.0698268
0.0895927
0.0760243
0.0592171
0.0437459
0.0258674
0.0201184
-0.0407606
-0.0924923
-0.11905
-0.141631
-0.130778
-0.109517
-0.0807322
-0.0823457
-0.0703351
-0.0324715
-0.0101726
0.00952402
-0.00353679
-0.0102609
-0.00756197
-0.00623287
-0.0012079
0.00263189
0.00658136
0.0122932
0.0181255
0.0223217
0.0185527
0.050728
0.0515397
0.053401
0.055491
0.0576195
0.0600458
0.0617431
0.0629958
0.0578704
0.0594329
0.0641729
0.105256
0.174982
0.198885
0.180804
0.135014
0.073066
0.0794655
0.099008
0.119686
0.111704
0.038437
0.00850118
-0.0532483
0.018146
0.0663331
0.108591
0.10538
0.0428132
-0.0013139
-0.00183076
0.000377407
0.0121729
0.0155409
0.0158559
0.015481
0.0150785
0.0138055
0.0121526
0.0113462
0.0435445
0.0415491
0.0446211
0.0485709
0.0521383
0.0552384
0.0591676
0.0651514
0.0691591
0.071911
0.0597235
0.0186425
-0.0109398
-0.0124389
-0.00124696
0.027355
0.0575657
0.0701392
0.0585915
0.0248456
0.0395529
0.102579
0.135654
0.0620149
0.0281434
-0.0168789
-0.0398909
-0.0486215
-0.0268542
0.0110336
0.0225127
0.0190656
0.0177753
0.0128535
0.00890522
0.00624037
0.00358704
0.00018555
-0.00198858
0.00213753
0.05187
0.053771
0.0510607
0.0474998
0.0442586
0.042442
0.0405651
0.0436899
0.0501644
0.050101
0.0489693
0.0332174
-0.00552606
-0.019506
-0.00765372
-0.00524627
0.0312022
-0.0712942
-0.0882209
-0.108818
-0.0768465
-0.000670948
0.0471248
0.0810638
0.0381265
0.00876956
-0.0176446
-0.0205212
0.00729633
0.0192408
0.0140194
0.0108995
0.00529162
0.00162053
0.00154594
0.00405902
0.00726429
0.0109722
0.014375
0.0133958
0.0527256
0.0542137
0.052628
0.0505631
0.0492318
0.0482026
0.0471399
0.0444737
0.0445139
0.0496645
0.0622585
0.111941
0.16404
0.173932
0.152372
0.107713
0.0599129
0.0538921
0.087975
0.0874147
0.0657095
0.0771754
0.0245375
-0.00489527
0.0371904
0.0833107
0.11467
0.11923
0.0791859
0.0302558
0.0141426
0.0116343
0.0164695
0.0174127
0.0175812
0.01823
0.0183385
0.0184739
0.0182023
0.0160507
0.0418179
0.0378781
0.0408098
0.0445783
0.0488724
0.0524169
0.0560968
0.0593436
0.0573666
0.0616328
0.0606109
0.0604549
0.0752786
0.087522
0.0932182
0.110754
0.11171
0.166716
0.141042
0.0958878
0.0587742
0.0882735
0.0826549
-0.00641538
-0.000826874
-0.017109
-0.0099051
-0.00624852
-0.0025569
0.0129496
0.0250279
0.0240779
0.0253706
0.0220606
0.019309
0.01539
0.0111303
0.00643272
0.0026936
0.00472762
0.0474853
0.0469668
0.0458398
0.0444313
0.0432264
0.0424038
0.0430489
0.0449569
0.0490647
0.0438983
0.0308554
0.00171052
-0.0314484
-0.0280047
0.00565431
0.0181147
0.066768
0.0158259
-0.0242609
-0.0560652
-0.0521261
-0.0428328
-0.00608498
0.0322827
0.00635112
-0.0270609
-0.0575578
-0.0510208
-0.0217467
0.00476605
0.0140932
0.0162698
0.00628261
0.00314029
0.00366386
0.00415279
0.00482971
0.0061346
0.00788717
0.00792422
0.0566981
0.0606634
0.0582249
0.0545403
0.0505939
0.0476852
0.0453299
0.0408392
0.0411701
0.0413157
0.0531633
0.0772869
0.0868414
0.074339
0.0473213
-0.00633551
-0.0358917
-0.067047
-0.0177987
0.0230959
0.040642
0.0352648
0.00834211
0.00534211
0.0296735
0.0667906
0.083266
0.0875601
0.0666696
0.0305758
0.0116068
0.00662864
0.00315791
0.0048866
0.00682033
0.00893123
0.0110143
0.0135183
0.0156515
0.0137059
0.0475384
0.0462083
0.0487198
0.051947
0.0551827
0.058168
0.0606749
0.059155
0.0551354
0.0605004
0.0690498
0.081745
0.0947044
0.0896913
0.0649168
0.04901
0.0373976
0.0916388
0.0917642
0.0892285
0.0787601
0.0847501
0.0778484
0.0232388
0.0214883
0.0161744
0.0317072
0.0376412
0.026071
0.0206332
0.0193126
0.0165201
0.0167855
0.0169981
0.0158128
0.0125713
0.00945526
0.00645252
0.00379346
0.00518787
0.0447747
0.0423441
0.0428697
0.0441508
0.0461239
0.0487782
0.0520714
0.0568232
0.0584276
0.0572031
0.0432391
0.0260182
0.0214048
0.0431773
0.0836874
0.130871
0.161393
0.132405
0.0634039
0.0421596
0.0153099
-0.0611491
-0.0103568
0.0135398
-0.0124872
-0.049112
-0.0757239
-0.0770678
-0.0521237
-0.0169446
0.00204062
0.00918882
0.00494794
0.00386429
0.00387533
0.00387135
0.00337
0.00265363
0.00189802
0.00295884
0.0558723
0.0579293
0.0557506
0.0527557
0.050284
0.0487486
0.0479003
0.0497461
0.0533764
0.0594234
0.0709259
0.0906622
0.0984436
0.101724
0.101647
0.0810159
0.0697732
0.0382853
0.0609205
0.0648981
0.0555786
0.0204124
-0.0173369
-0.00981024
-0.00798304
0.0133865
0.0185243
0.0190098
0.0162381
0.00308089
-0.00752696
-0.0088026
-0.0099144
-0.00781986
-0.00396544
0.000556283
0.00518224
0.00934137
0.0126637
0.0108049
0.054797
0.0558903
0.057584
0.0594276
0.0614048
0.0635308
0.0642201
0.0641174
0.0656095
0.0726177
0.086201
0.10298
0.107061
0.084134
0.0499476
0.013379
0.00742352
0.0502177
0.0967185
0.0758479
0.0961581
0.102981
0.088634
0.0692041
0.0430977
0.0580169
0.0707254
0.0723318
0.0560398
0.0290366
0.0106983
0.00290131
0.00311301
0.00546435
0.00616376
0.00564492
0.00523468
0.00492943
0.00501696
0.00599998
0.0469822
0.0455451
0.0479481
0.0512259
0.0546268
0.0578044
0.0625014
0.0648926
0.0647495
0.0612629
0.0442478
0.0244765
0.0185394
0.025571
0.0425612
0.0757264
0.0799772
0.0723313
0.0335401
0.0069568
0.00399412
0.00925874
0.070429
0.0866972
0.0561297
0.0121458
-0.019431
-0.0312613
-0.0282487
-0.00929223
0.00409671
0.0081702
0.00931682
0.0076698
0.00577178
0.00334116
0.000767274
-0.00188194
-0.00364044
-0.000564096
0.0493524
0.0503893
0.0491243
0.0476487
0.0463297
0.0459397
0.0464105
0.0485963
0.0501798
0.0500126
0.0542232
0.0584243
0.0673031
0.0795079
0.0863492
0.0884778
0.0710391
0.0316557
0.0169129
0.00356191
-0.0113443
-0.0224603
-0.0337361
-0.0229434
-0.0103568
-0.0144006
-0.0196163
-0.0233447
-0.0210018
-0.0133806
-0.0125615
-0.00797
-0.00332857
-0.00510655
-0.00190794
0.00186168
0.00559482
0.00907828
0.0111458
0.00888109
0.0499323
0.0512174
0.0509384
0.0502931
0.0501727
0.0505861
0.0511071
0.0520573
0.0565382
0.0663731
0.085264
0.107506
0.113259
0.0990466
0.0715938
0.0261944
0.0511857
0.0600301
0.0790439
0.0516967
0.0394094
0.0164347
-0.0165292
-0.0416856
-0.0657263
-0.0214652
0.0129438
0.0367491
0.042447
0.0239606
0.00857348
0.00292284
0.00507443
0.00601308
0.00835423
0.0103479
0.0120836
0.0137208
0.0142832
0.0119225
0.0417945
0.0409289
0.0432211
0.0461604
0.0495769
0.0529363
0.0564159
0.0571293
0.0590053
0.0602738
0.0504585
0.0364237
0.0275933
0.0266739
0.042067
0.0606699
0.0682508
0.0624901
0.0291399
0.0143376
0.0231636
0.0240492
0.0743772
0.0850244
0.0509623
0.0272629
0.00327714
-0.00141621
-0.000949536
0.0054107
0.0170531
0.0180413
0.0160694
0.0149308
0.0124977
0.00906366
0.00567474
0.00285093
0.00112406
0.00366455
0.0397932
0.0393722
0.0397609
0.0399207
0.0397783
0.0400374
0.0403757
0.0408143
0.0369414
0.0302008
0.0248655
0.014841
0.0195596
0.0378521
0.0575401
0.0848942
0.0294863
0.00774738
0.0123524
0.0252513
0.0389631
0.029601
0.0478175
0.0675459
0.0848738
0.062903
0.0411833
0.0167667
-0.00319555
0.000255785
0.00649438
0.00956593
0.0109015
0.00517616
0.00455245
0.00368795
0.00446728
0.00531528
0.00613742
0.00776275
0.0418367
0.0432251
0.0413361
0.0385892
0.035757
0.0335299
0.0314094
0.0312103
0.0333008