/*--------------------------------*- C++ -*----------------------------------*\
| =========                 |                                                 |
| \\      /  F ield         | OpenFOAM: The Open Source CFD Toolbox           |
|  \\    /   O peration     | Version:  v2106                                 |
|   \\  /    A nd           | Website:  www.openfoam.com                      |
|    \\/     M anipulation  |                                                 |
\*---------------------------------------------------------------------------*/
FoamFile
{
    version     2.0;
    format      ascii;
    arch        "LSB;label=32;scalar=64";
    class       volVectorField;
    location    "0";
    object      U;
}
// * * * * * * * * * * * * * * * * * * * * * * * * * * * * * * * * * * * * * //

dimensions      [0 1 -1 0 0 0 0];

internalField   nonuniform List<vector> 
11644
(
(0.00168642 3.58265e-05 1.79296e-21)
(0.00169287 8.91905e-05 4.94445e-21)
(0.00169774 0.000141567 2.65282e-21)
(0.00163878 0.000149252 0)
(0.00159918 0.000192968 0)
(0.00161367 0.000287066 0)
(0.0016514 0.000375422 0)
(0.00164111 0.000444605 0)
(0.00168035 0.000485314 0)
(0.00171171 0.000474597 0)
(0.00165335 0.000377082 0)
(0.00163054 0.000228803 0)
(0.00166411 -9.98889e-06 0)
(0.00219562 -0.000295008 0)
(0.00203727 -0.000484922 0)
(0.00163395 -0.000759514 0)
(0.00153266 -0.000533078 0)
(0.00151131 -2.23825e-05 0)
(0.00188296 0.000459641 0)
(0.0024881 0.000509442 2.29813e-30)
(0.00272576 0.000562805 -2.31642e-30)
(0.00221975 0.00051814 0)
(0.00159339 0.000663208 0)
(0.00162873 0.000687434 0)
(0.00179059 0.00067608 0)
(0.00192647 0.000561564 0)
(0.00178639 0.000260237 0)
(0.00168389 -0.00012317 0)
(0.00188516 -0.000414645 0)
(0.00177587 -0.000602888 0)
(0.00171332 -0.000697268 0)
(0.00169468 -0.000744823 0)
(0.0017232 -0.000742075 0)
(0.00174755 -0.000703948 0)
(0.00175137 -0.000639039 0)
(0.00172727 -0.000559524 0)
(0.00167242 -0.000424795 0)
(0.00160747 -0.00030725 0)
(0.0015954 -0.000198871 0)
(0.0016134 -8.5911e-05 3.47636e-22)
(0.00166872 -7.12025e-06 2.30304e-21)
(0.00160823 3.18474e-05 2.13336e-21)
(0.00158 0.00013503 1.14576e-21)
(0.00154418 0.000229398 0)
(0.00155812 0.000333416 0)
(0.00147293 0.000394588 0)
(0.001345 0.000484362 0)
(0.00125132 0.000600013 0)
(0.001127 0.000654419 0)
(0.00103535 0.000659397 0)
(0.00122175 0.00060847 0)
(0.00120808 0.000238859 0)
(0.00136284 -0.000130485 0)
(0.000839994 -0.000823455 0)
(0.00117158 -0.00128667 0)
(0.00177669 -0.00143538 -9.69253e-23)
(0.00191159 -0.00150687 -1.32495e-21)
(0.00240376 -0.00162244 9.28467e-22)
(0.00289319 -0.00141206 1.23317e-21)
(0.00263751 -0.000381856 -1.9788e-21)
(0.00227076 0.00100399 5.50527e-22)
(0.00225541 0.00198031 -6.02391e-22)
(0.00252246 0.00185095 3.41429e-24)
(0.00252728 0.00118732 1.13748e-21)
(0.00239424 0.000689366 1.1849e-22)
(0.00189893 -5.46742e-05 0)
(0.00181636 -0.000817465 0)
(0.00182778 -0.00138084 0)
(0.00125189 -0.00179865 0)
(0.00118431 -0.00208426 0)
(0.00127517 -0.00224649 0)
(0.00124146 -0.00222402 0)
(0.00119436 -0.00206647 0)
(0.00117462 -0.00181949 0)
(0.00116735 -0.00152423 0)
(0.00111719 -0.00119293 0)
(0.00119344 -0.00092165 0)
(0.001216 -0.000681811 0)
(0.00128399 -0.000472316 0)
(0.00134307 -0.000160709 0)
(0.00200368 -5.59334e-05 0)
(0.00183974 -0.000222819 0)
(0.00157386 -0.000394665 0)
(0.00137835 -0.000394804 0)
(0.00128527 -0.000324958 2.10379e-21)
(0.00113421 -0.000238476 0)
(0.000941009 -0.000109986 0)
(0.000672292 -2.42242e-05 0)
(0.000437182 4.68312e-05 0)
(0.000194792 9.90751e-06 0)
(-9.64875e-05 -0.000255958 0)
(0.000274033 -0.000545441 0)
(0.000353906 -0.00126506 -1.12159e-22)
(0.0019214 -0.00200611 -3.09539e-21)
(0.00236963 -0.00308528 1.17095e-20)
(0.00193012 -0.00398218 -7.35321e-21)
(0.00284767 -0.00478725 -6.86924e-21)
(0.0036233 -0.00489457 -1.51147e-20)
(0.00360191 -0.00377424 3.20407e-20)
(0.00294667 -0.00236017 -9.59736e-20)
(0.00246503 -0.00129495 7.76435e-20)
(0.00232547 -0.000365336 2.49865e-20)
(0.00242629 0.000193922 -2.33487e-20)
(0.00260587 0.000221053 -2.68142e-21)
(0.00241992 -0.000612774 1.3999e-20)
(0.00222313 -0.00162154 -8.85771e-21)
(0.00171563 -0.00259323 2.93768e-21)
(0.000988202 -0.00358957 4.01165e-23)
(0.000989627 -0.00430442 0)
(0.000668009 -0.00453267 0)
(0.000324627 -0.00435579 0)
(0.000304783 -0.00409794 0)
(0.000352921 -0.00370857 0)
(0.000483635 -0.00325466 0)
(0.000603247 -0.00281349 0)
(0.000770455 -0.00238931 0)
(0.000894919 -0.00195633 0)
(0.000934487 -0.00143153 0)
(0.000948011 -0.000757817 0)
(0.00102998 -0.000256753 0)
(0.00254084 -8.7542e-05 0)
(0.0024487 -0.0003076 0)
(0.00232145 -0.000258674 0)
(0.00213368 -0.000433305 0)
(0.00184892 -0.000738071 0)
(0.00148198 -0.00100292 0)
(0.00101423 -0.00118928 0)
(0.000543353 -0.00131076 0)
(9.42126e-06 -0.00142643 0)
(-0.000476612 -0.00155252 0)
(-0.000506277 -0.00159184 -8.63494e-23)
(-0.000580197 -0.00215359 -4.35846e-21)
(0.000299369 -0.00254424 1.3564e-20)
(-0.000257664 -0.00409281 -2.6807e-20)
(0.00016403 -0.00607258 4.32268e-20)
(0.00199304 -0.00747153 -2.57454e-20)
(0.00230919 -0.00848392 -4.76067e-20)
(0.00294239 -0.00846856 -2.59897e-20)
(0.00384657 -0.007718 5.31024e-20)
(0.00375944 -0.00632157 -6.17226e-20)
(0.00347096 -0.00461375 1.18345e-19)
(0.0033598 -0.00329122 -4.79377e-20)
(0.00308805 -0.00250035 -3.00889e-20)
(0.00303043 -0.00271487 6.82623e-20)
(0.00316172 -0.00315399 -5.74962e-21)
(0.00192881 -0.00469346 -3.40563e-20)
(0.000560046 -0.00618099 2.51764e-20)
(0.00015896 -0.0069199 -1.34839e-20)
(-0.000825346 -0.007108 1.83256e-21)
(-0.000968459 -0.00714071 7.30371e-23)
(-0.000823707 -0.00685912 0)
(-0.000834381 -0.00613812 0)
(-0.00072127 -0.00533015 0)
(-0.000494632 -0.00449779 0)
(-0.000330376 -0.003624 0)
(-0.000108791 -0.00277292 0)
(7.47144e-05 -0.00192735 0)
(0.000207724 -0.00116411 0)
(0.000363305 -0.000617978 0)
(0.00048773 -3.27529e-05 0)
(0.00316941 -0.000558988 0)
(0.00307507 -0.000981091 0)
(0.00290715 -0.00149994 0)
(0.00270772 -0.00182212 0)
(0.00249811 -0.00203025 0)
(0.00215125 -0.00229973 0)
(0.00167946 -0.00262153 0)
(0.00115147 -0.00291658 0)
(0.000576818 -0.00315184 0)
(0.000116947 -0.00319416 2.77091e-22)
(-0.000353863 -0.00300985 -3.12765e-21)
(-0.000541207 -0.00271004 9.40075e-21)
(-0.00159488 -0.00399927 -6.2481e-20)
(0.000154518 -0.00530822 1.216e-19)
(0.00173475 -0.00803331 -3.94713e-20)
(0.000271532 -0.0108767 -2.10918e-20)
(0.00166786 -0.0119293 -1.01853e-20)
(0.00475028 -0.0123595 1.84458e-19)
(0.00543132 -0.0116955 -2.85478e-19)
(0.0056286 -0.0106011 -3.04469e-20)
(0.00570994 -0.00946511 4.76544e-20)
(0.00530767 -0.00757403 2.23062e-19)
(0.00431982 -0.00644128 -1.39481e-19)
(0.0040195 -0.00569561 1.60349e-20)
(0.00335256 -0.00617201 1.05419e-20)
(0.0028382 -0.00807949 4.37704e-20)
(0.00176159 -0.00936763 -1.10212e-19)
(-0.000913225 -0.0101455 4.32871e-20)
(-0.00198435 -0.0101929 1.35367e-21)
(-0.00279842 -0.00952199 -5.13459e-22)
(-0.00290136 -0.0085801 4.07334e-22)
(-0.00252929 -0.0075044 0)
(-0.00217612 -0.00626935 0)
(-0.00172778 -0.00509199 0)
(-0.00131898 -0.00406105 0)
(-0.000908705 -0.00321879 0)
(-0.000559365 -0.00256831 0)
(-0.000343306 -0.00189304 0)
(-0.000222334 -0.00111531 0)
(-0.000153578 -0.000628884 0)
(0.00416325 0.000177651 0)
(0.00405526 -0.000575696 0)
(0.00396617 -0.00135388 0)
(0.00384392 -0.00215138 0)
(0.0035952 -0.00301944 0)
(0.00330342 -0.00368032 0)
(0.00293545 -0.00422843 0)
(0.00245415 -0.00470397 0)
(0.00195632 -0.00498256 1.22959e-21)
(0.000940605 -0.00504682 -1.80161e-20)
(-0.00103619 -0.005273 7.48775e-21)
(-0.0033668 -0.00604082 7.2319e-21)
(-0.00379823 -0.00514018 -4.54971e-21)
(-0.00462955 -0.00609663 -1.5856e-20)
(-0.00347343 -0.00980448 -9.56902e-21)
(0.00140368 -0.0130126 6.53465e-20)
(0.00358467 -0.0128849 -3.58247e-20)
(0.00436611 -0.0122634 9.43557e-21)
(0.00557315 -0.0143774 -2.41981e-20)
(0.00589939 -0.014872 1.02725e-19)
(0.00644204 -0.0115893 5.40224e-20)
(0.00561096 -0.0114393 -8.19012e-20)
(0.00400137 -0.0122296 -5.35905e-20)
(0.00300357 -0.0114732 2.01954e-21)
(0.000986369 -0.0100094 -4.54396e-20)
(-0.000413567 -0.0111609 3.06274e-20)
(-0.00208432 -0.012733 -8.15318e-21)
(-0.00228477 -0.012862 2.03865e-20)
(-0.00340404 -0.0116874 -4.48375e-21)
(-0.00447651 -0.0103888 4.60231e-21)
(-0.00487297 -0.00904291 -4.19927e-21)
(-0.00435676 -0.00775492 1.03727e-21)
(-0.00356286 -0.00642992 0)
(-0.00286138 -0.00520589 0)
(-0.00225842 -0.00413227 0)
(-0.00177104 -0.00312295 0)
(-0.00142767 -0.00217439 0)
(-0.0011329 -0.00136248 0)
(-0.000969439 -0.000535733 0)
(-0.000908705 0.000257601 0)
(0.00522988 -0.000871901 0)
(0.00527768 -0.00135124 0)
(0.00529483 -0.00151475 0)
(0.00530818 -0.00219116 0)
(0.0052833 -0.00300658 0)
(0.0051731 -0.00399776 0)
(0.00497335 -0.00504795 0)
(0.00464567 -0.00589326 -8.51276e-22)
(0.00370381 -0.00658047 -9.44637e-22)
(0.00166414 -0.0071646 3.45758e-21)
(-0.000576981 -0.00692486 -1.30937e-20)
(-0.00245666 -0.00551393 1.67222e-20)
(-0.00382429 -0.00534008 2.48112e-20)
(-0.0036121 -0.00580046 6.21607e-21)
(-0.00220241 -0.00519014 -2.90426e-20)
(-0.00063064 -0.00857266 2.51385e-20)
(0.0042655 -0.0132626 -3.02288e-20)
(0.00272875 -0.0139055 1.16814e-20)
(0.00225557 -0.0145747 -1.24236e-19)
(0.0022584 -0.0152102 -6.6594e-20)
(0.00309451 -0.0155519 -1.26639e-19)
(0.00237083 -0.0151935 -1.26238e-19)
(0.00188972 -0.0149671 -7.89867e-20)
(0.0021318 -0.013661 1.02016e-19)
(-0.00285445 -0.0138019 9.34229e-21)
(-0.00454444 -0.0136402 2.2698e-20)
(-0.00188849 -0.0128621 -2.88963e-20)
(-0.00424789 -0.0123027 -1.15242e-20)
(-0.00390092 -0.0111128 -3.68702e-21)
(-0.00428185 -0.00996389 1.19587e-20)
(-0.00522379 -0.0081269 3.50212e-21)
(-0.00549382 -0.0063935 -7.41228e-22)
(-0.00481987 -0.00508959 -5.10861e-23)
(-0.00389659 -0.00386915 0)
(-0.00318601 -0.00273285 0)
(-0.00253131 -0.00183192 0)
(-0.0020812 -0.00109097 0)
(-0.00169535 -0.000651533 0)
(-0.00138953 -0.000695836 0)
(-0.00122939 -0.000593023 0)
(0.00656694 -0.000278455 0)
(0.00656748 -0.00123174 0)
(0.00671627 -0.00283388 0)
(0.00693962 -0.00379361 0)
(0.00716625 -0.00443772 0)
(0.00738847 -0.00514524 0)
(0.00753677 -0.00600242 0)
(0.00732028 -0.00685169 1.54062e-21)
(0.00569657 -0.00751999 -2.99538e-21)
(0.00336522 -0.00777408 7.72157e-21)
(0.00115479 -0.0076004 -1.589e-20)
(-0.000821898 -0.00737905 8.87679e-21)
(-0.00421121 -0.00687969 -4.00166e-20)
(-0.00145709 -0.00514606 -3.99576e-20)
(-0.0036659 -0.00750339 -9.56875e-20)
(-0.00561034 -0.00820344 6.60003e-20)
(-0.00153655 -0.00855248 2.15128e-19)
(0.00085613 -0.015122 2.85488e-20)
(0.00209979 -0.0161888 -1.66651e-19)
(0.00107011 -0.0184756 -1.65251e-19)
(-0.000213343 -0.0199624 -9.59365e-20)
(-0.00155081 -0.0188 -5.16218e-20)
(-0.00222408 -0.0177673 1.19907e-19)
(-0.001723 -0.0162976 1.04114e-19)
(-0.00472655 -0.0176325 1.68861e-20)
(-0.00710878 -0.0138924 1.37406e-20)
(-0.0061334 -0.00956026 -7.90944e-20)
(-0.00534259 -0.0086393 7.18666e-21)
(-0.00345547 -0.0067392 1.98464e-20)
(-0.00344366 -0.00616992 8.73119e-21)
(-0.00400739 -0.00529785 -1.98461e-20)
(-0.00476736 -0.00427655 8.36886e-21)
(-0.00504 -0.00321127 -3.76705e-21)
(-0.00427315 -0.00251748 0)
(-0.00342166 -0.00199741 0)
(-0.00275031 -0.0016654 0)
(-0.00217896 -0.00158113 0)
(-0.0016899 -0.00133531 0)
(-0.0013201 -0.000530679 0)
(-0.00119337 -0.000149996 0)
(0.00780949 0.000367216 0)
(0.00781688 -0.000329595 0)
(0.00794129 -0.000511148 0)
(0.0082682 -0.00113806 0)
(0.00884262 -0.00246734 0)
(0.00965589 -0.00383238 0)
(0.0105046 -0.00517663 1.22887e-21)
(0.0102344 -0.00614777 -4.91115e-21)
(0.00827374 -0.00690979 1.85242e-21)
(0.00650988 -0.00674235 2.2577e-21)
(0.00510513 -0.0058119 -7.94599e-21)
(0.00385555 -0.0058883 9.04096e-22)
(0.00271773 -0.000814896 -9.03079e-22)
(0.00434953 -0.00122937 3.71038e-20)
(0.00208777 -0.00589828 -9.67152e-21)
(0.00694429 -0.0059832 -8.02165e-21)
(0.00243915 -0.00602838 -5.666e-20)
(0.00554156 -0.00992332 -1.36483e-20)
(0.00640115 -0.0175623 -4.19588e-20)
(0.00380886 -0.0212445 -7.47662e-20)
(0.00037413 -0.0236755 1.40866e-19)
(-0.00203769 -0.0227697 -7.36582e-21)
(-0.0036301 -0.0205788 -3.2115e-20)
(-0.0035177 -0.0188649 -3.48952e-20)
(-0.00807659 -0.0165195 6.37213e-20)
(-0.00219204 -0.0117333 3.08708e-20)
(-0.00311143 -0.00663442 -2.87419e-20)
(-0.00183666 -0.00629365 2.54212e-21)
(-0.00129797 -7.21451e-05 -1.26477e-20)
(-0.000977136 -0.000892338 1.92625e-21)
(-0.00151572 -0.000862548 5.44669e-21)
(-0.00263711 -0.000722803 2.97064e-21)
(-0.00396298 -0.000431767 -2.59193e-22)
(-0.00399533 -0.000241592 3.92252e-22)
(-0.00303733 0.000219987 0)
(-0.00223159 0.000904259 0)
(-0.00161684 0.00149725 0)
(-0.00114782 0.00168019 0)
(-0.000914529 0.00118635 0)
(-0.000861451 0.000964044 0)
(0.00826272 -0.00203876 0)
(0.00874804 -0.00225042 0)
(0.00924601 -0.00231468 0)
(0.0101 -0.00264384 0)
(0.0109667 -0.0026771 0)
(0.0122572 -0.00310198 0)
(0.0134449 -0.00359051 3.57939e-22)
(0.0129204 -0.00390125 -3.95956e-21)
(0.0111292 -0.00368921 1.93656e-22)
(0.0103907 -0.00280622 7.57916e-21)
(0.0102699 -0.0022999 -1.28002e-20)
(0.00896758 -0.000721772 7.59747e-21)
(0.00703427 0.00760506 -4.54331e-21)
(0.00920858 0.00209497 2.05055e-20)
(0.00879531 -0.00019858 -1.67912e-20)
(0.0131543 0.00225433 -1.04908e-20)
(0.0144305 -0.00495543 -3.33881e-20)
(0.0154054 -0.00966111 2.93259e-20)
(0.0134904 -0.0181882 -3.73587e-20)
(0.00947424 -0.0274045 -3.36521e-21)
(-0.000726792 -0.0312694 5.8068e-20)
(-0.00735599 -0.0274813 5.5733e-20)
(-0.00986148 -0.0205381 4.14171e-20)
(-0.00744808 -0.0152478 4.04292e-20)
(-0.00533163 -0.0106301 2.76627e-20)
(-0.00337964 -0.00971509 -1.33195e-19)
(-0.00160529 -0.000917817 -1.74193e-20)
(0.00184597 -0.00198832 -5.86442e-21)
(0.00369575 0.00394803 4.50993e-21)
(0.00387793 0.0047074 -2.85999e-21)
(0.00248192 0.00444695 1.78002e-21)
(0.000644618 0.00325737 -1.37739e-21)
(-0.00152821 0.00269724 8.48281e-22)
(-0.0028797 0.00234108 -9.04008e-22)
(-0.0024045 0.00183902 0)
(-0.00174917 0.00131413 0)
(-0.00129807 0.000701129 0)
(-0.00085305 -6.95785e-05 0)
(-0.000440381 -0.000734137 0)
(-9.48054e-05 -0.00142781 0)
(0.00795272 0.00209351 0)
(0.00777892 0.00115726 0)
(0.00861479 0.000190422 0)
(0.00992722 -0.000217894 0)
(0.0115672 -0.000413273 0)
(0.0134551 -0.000448898 0)
(0.0148411 -0.000182852 9.29052e-22)
(0.0143096 0.000203759 -1.34689e-21)
(0.0129009 0.00127265 -2.71229e-21)
(0.012449 0.00340304 2.49793e-21)
(0.0136684 0.00388795 4.97434e-22)
(0.01543 0.00248507 1.31419e-21)
(0.0158522 0.00627606 -1.60468e-21)
(0.0113279 0.00621823 4.29449e-22)
(0.0168219 0.00638882 1.58491e-20)
(0.0136827 0.00320764 5.95138e-21)
(0.0183127 0.00201554 1.65107e-21)
(0.0255994 -0.00555965 -6.02411e-21)
(0.0313746 -0.0179029 5.92185e-21)
(0.0272001 -0.0402666 -3.05663e-19)
(-0.00108585 -0.0535936 -1.47647e-19)
(-0.0253548 -0.0365888 -9.24987e-20)
(-0.0226429 -0.0157192 1.80995e-21)
(-0.015216 -0.00682595 -1.72648e-21)
(-0.00972613 -0.00491286 -8.99251e-23)
(-0.0048005 -0.00163384 2.55266e-21)
(0.00100946 0.00521948 8.076e-21)
(0.00457882 0.00710309 2.26205e-22)
(0.00839416 0.0102221 -3.59022e-21)
(0.00899045 0.00929408 5.34508e-22)
(0.00666381 0.00772281 2.48877e-21)
(0.00410523 0.0063477 -1.0707e-21)
(0.00116713 0.00524399 4.94933e-22)
(-0.00138696 0.0041654 -1.2861e-22)
(-0.00154888 0.00324722 0)
(-0.00086264 0.00270146 0)
(-0.000120722 0.0024438 0)
(0.000432524 0.00239223 0)
(0.000849597 0.00254109 0)
(0.000642065 0.00227232 0)
(0.00665234 -0.00216754 0)
(0.00711954 -0.000766245 0)
(0.00759855 0.000935144 0)
(0.00815042 0.00224409 0)
(0.00990016 0.00288568 0)
(0.012305 0.00340483 0)
(0.0135741 0.00456165 2.29143e-22)
(0.0123037 0.00591753 2.32875e-22)
(0.0116083 0.00733741 5.84251e-22)
(0.011871 0.00960289 2.08927e-22)
(0.0122934 0.0121735 1.35519e-21)
(0.0154391 0.0104741 -4.21274e-22)
(0.0176444 0.013239 -2.10838e-21)
(0.0179141 0.0132079 3.56788e-21)
(0.0231109 0.00991347 -4.62352e-21)
(0.0229742 0.0118763 7.75987e-22)
(0.0276938 0.0090541 -2.75329e-21)
(0.0341762 0.00644882 1.84705e-21)
(0.0195906 0.0300862 9.7443e-20)
(-0.0131183 0.0279987 -2.01039e-19)
(-0.016161 0.00582629 -3.32991e-21)
(-0.00868944 0.00826035 9.66704e-21)
(-0.00239267 0.0139664 8.42201e-21)
(0.00565215 0.00849729 3.33227e-21)
(0.01025 0.0186734 -1.11519e-21)
(0.0122786 0.0162416 -3.78894e-22)
(0.0107585 0.0117848 7.12783e-22)
(0.00890845 0.0102227 -1.8481e-22)
(0.00696721 0.00917852 3.26966e-22)
(0.00367913 0.00771281 2.72087e-22)
(0.000154052 0.00616896 2.13587e-22)
(-0.000413462 0.0050119 0)
(0.000532128 0.00450356 0)
(0.00115746 0.00374223 0)
(0.0012254 0.00268357 0)
(0.00111025 0.000606747 0)
(0.00137099 -0.000951972 0)
(0.00368992 0.000884732 0)
(0.00533873 0.000475521 0)
(0.00645332 0.0013321 0)
(0.00786996 0.00263867 0)
(0.00907232 0.00445513 0)
(0.0105163 0.00618624 0)
(0.01016 0.00838361 -1.01935e-22)
(0.00770998 0.010694 6.44046e-22)
(0.00513702 0.0134751 7.36548e-23)
(0.00490824 0.0157958 -2.77839e-21)
(0.00437712 0.0201746 2.62734e-21)
(0.00835592 0.0197867 -9.18159e-21)
(0.0108428 0.0189164 8.21266e-21)
(0.0130399 0.0192492 4.03139e-21)
(0.0169115 0.0144885 1.18365e-20)
(0.0202279 0.0136997 -1.68553e-21)
(0.0256445 0.013601 4.53647e-21)
(0.0233572 0.0177374 1.23859e-21)
(-0.00668581 0.0456815 4.3249e-18)
(0.0240282 0.0432246 2.1519e-19)
(-0.00943112 0.00521831 -2.31126e-21)
(-0.0151085 0.00985488 2.12074e-21)
(-0.0121805 0.0226586 -5.09372e-21)
(-0.00335489 0.0174493 -1.51927e-20)
(0.00286289 0.0290401 -1.45542e-20)
(0.0074283 0.0213097 1.65102e-20)
(0.00953163 0.0156327 -9.55691e-22)
(0.0088296 0.0135965 2.59495e-22)
(0.00694386 0.011647 -1.75356e-23)
(0.00383633 0.00931202 -1.83449e-22)
(0.000366938 0.00759709 -2.52571e-22)
(-0.000996758 0.0059157 0)
(-0.000576997 0.00436541 0)
(-0.000214999 0.00277149 0)
(0.000381787 0.00134591 0)
(0.00106589 0.00113436 0)
(0.00180107 0.000599847 0)
(-0.00250383 0.00170528 5.8978e-24)
(-0.000698262 0.00422203 0)
(0.000305752 0.00453931 0)
(0.00139588 0.00533744 0)
(0.00255305 0.006663 0)
(0.00391406 0.00824044 0)
(0.00286028 0.0107298 5.16609e-23)
(-0.00125517 0.0131103 -1.75322e-21)
(-0.0057379 0.0171919 -4.12419e-21)
(-0.00806435 0.0203191 1.54166e-20)
(-0.0107922 0.0262394 -1.65976e-20)
(-0.0113033 0.0270587 -6.28523e-22)
(-0.00793044 0.0260356 6.1234e-22)
(-0.000916973 0.0234974 -1.7527e-20)
(0.00910535 0.0217813 -3.50958e-21)
(0.0185719 0.0189588 1.48412e-21)
(0.0270724 0.0142584 -7.08014e-20)
(-0.0180154 0.0217966 -1.08504e-20)
(-0.05025 0.0264748 1.18632e-20)
(0.0936215 -0.0104848 -2.37999e-20)
(-0.014904 -0.0149888 -3.28098e-20)
(-0.0348677 0.00537888 6.70534e-20)
(-0.033862 0.0291899 -7.31429e-21)
(-0.0212735 0.0349122 -1.43137e-20)
(-0.00733946 0.0434682 -3.56974e-22)
(0.00103018 0.0317936 -2.44529e-20)
(0.00500371 0.0246776 -5.37374e-21)
(0.00729404 0.0202444 1.68936e-21)
(0.00628697 0.015527 -8.07502e-22)
(0.00346733 0.0119088 -1.61853e-21)
(0.000216649 0.00948761 9.24942e-22)
(-0.000227476 0.00748574 0)
(0.000870496 0.00633015 0)
(0.00193139 0.00555165 0)
(0.00239821 0.00467303 0)
(0.00234296 0.00372921 0)
(0.00161614 0.00205321 0)
(0.0019366 0.000480471 -2.30179e-24)
(0.000316776 0.00164445 0)
(-0.000742979 0.00262397 0)
(-0.00101718 0.00436731 0)
(-0.0013348 0.00621406 0)
(-0.00164245 0.00797512 0)
(-0.00422925 0.00994385 -9.60368e-23)
(-0.0101266 0.0115133 1.73577e-21)
(-0.0168366 0.0159939 4.28773e-22)
(-0.0230527 0.0190766 1.44872e-20)
(-0.0288026 0.0248389 -2.92772e-20)
(-0.0305149 0.0295132 1.02609e-20)
(-0.0252111 0.0329774 1.29446e-20)
(-0.00740326 0.0353064 -1.09647e-20)
(0.011989 0.0376602 -1.20326e-19)
(0.0308594 0.0323262 2.21141e-20)
(0.0484619 0.0141571 -1.58007e-20)
(-0.0367259 -0.0172196 4.64658e-20)
(0.0527281 -0.114613 -2.44036e-20)
(0.337751 -0.471597 6.9098e-20)
(-0.0942272 -0.552991 -6.8997e-22)
(-0.162718 -0.355031 -6.29325e-20)
(0.0180349 -0.174261 -4.66072e-20)
(-0.0687381 -0.0442702 3.53496e-20)
(-0.0783218 0.0125492 8.85378e-20)
(-0.0541551 0.0466403 -8.14938e-20)
(-0.033016 0.0582674 -1.99334e-20)
(-0.0111563 0.0607517 3.64717e-20)
(0.000586938 0.0470463 -1.69891e-20)
(0.00795324 0.0368017 1.01223e-20)
(0.00986219 0.0278631 -1.63008e-20)
(0.00834468 0.0207604 3.81873e-21)
(0.00539553 0.0152884 7.62877e-23)
(0.00117196 0.0114526 2.51473e-22)
(-0.000134909 0.00863208 0)
(0.000646133 0.00639777 0)
(0.000677147 0.00447091 0)
(0.000200771 0.00254053 0)
(-0.000630904 0.000332741 0)
(-0.000726187 -0.000489145 0)
(0.00101612 0.00026132 -5.16747e-22)
(0.000473374 0.000899061 0)
(-0.000351066 0.000721209 0)
(-0.00159329 0.00149447 0)
(-0.0031958 0.00289633 0)
(-0.00492996 0.00443911 0)
(-0.00782305 0.00610833 1.24681e-23)
(-0.0151549 0.00764101 1.84981e-22)
(-0.0244547 0.01115 4.35855e-21)
(-0.033794 0.0141812 -8.76265e-21)
(-0.040255 0.022675 7.85987e-21)
(-0.0421043 0.0315517 -1.61344e-20)
(-0.0344037 0.0504594 2.61435e-20)
(-0.0175392 0.0588699 -4.78988e-20)
(0.00964002 0.0688279 2.55325e-21)
(0.0510158 0.0725631 7.20354e-20)
(0.0877575 0.0582943 9.34445e-20)
(0.043826 0.0355057 -5.20666e-19)
(0.66062 -0.115728 -9.48019e-20)
(0.637155 -0.462749 3.95729e-20)
(-0.361156 -0.375085 1.29915e-20)
(-0.275504 -0.172716 -3.27138e-20)
(-0.273776 -0.267881 -2.65044e-19)
(-0.204999 0.02293 -5.0003e-20)
(-0.131662 0.0753066 -6.78037e-20)
(-0.0562545 0.0941239 8.04998e-20)
(-0.013778 0.0840622 -3.65323e-20)
(0.0099347 0.0816393 -6.76444e-20)
(0.0195907 0.0658525 6.73559e-21)
(0.0211126 0.0480535 -1.18784e-20)
(0.0186859 0.0341382 1.21883e-20)
(0.0146531 0.0246618 -6.35764e-21)
(0.00909086 0.0169252 1.1515e-21)
(0.00372899 0.0115779 1.45956e-23)
(0.00203922 0.00812184 0)
(0.00100386 0.00486006 0)
(0.000216056 0.00235427 0)
(-0.000104183 0.000649637 0)
(-0.00056247 -0.000266001 0)
(-0.000765339 -0.000890791 -6.55893e-22)
(-0.00130283 0.000614617 -1.65395e-22)
(-0.00192554 0.00029708 0)
(-0.00258214 0.000283046 0)
(-0.0035939 0.000226706 0)
(-0.00518686 0.000192656 0)
(-0.00715856 0.000780714 0)
(-0.010339 0.00195843 0)
(-0.0181735 0.0029578 -4.38316e-22)
(-0.0300637 0.00757336 2.87099e-21)
(-0.0420145 0.0124882 9.82534e-22)
(-0.0512329 0.0236082 1.22658e-20)
(-0.0615437 0.0427376 -3.19073e-20)
(-0.0600801 0.059113 -1.01671e-20)
(-0.0563337 0.085564 3.21605e-20)
(-0.0234932 0.105591 8.99115e-21)
(0.0262481 0.14798 -1.07094e-19)
(0.0480936 0.152706 1.20747e-19)
(0.154933 0.157848 6.3778e-19)
(0.852967 0.0294352 2.10898e-20)
(0.639702 0.501064 -8.8364e-20)
(-0.541978 0.297998 -4.26965e-19)
(-0.315616 -0.0466077 4.87573e-19)
(-0.392979 0.34697 2.64379e-20)
(-0.40196 0.195304 -1.8753e-18)
(-0.0934745 0.213872 -4.42637e-20)
(-0.024659 0.160655 2.51087e-20)
(0.0278894 0.127171 1.48576e-20)
(0.049286 0.0988487 6.48959e-21)
(0.0558711 0.071563 -4.60656e-21)
(0.0492018 0.0520572 -4.15416e-21)
(0.0413583 0.0370456 -5.36082e-21)
(0.0288918 0.0238515 -1.32845e-21)
(0.0180668 0.0163774 2.37285e-22)
(0.0105547 0.0113444 0)
(0.00746166 0.00784168 0)
(0.00606822 0.00474572 0)
(0.00557774 0.0028171 0)
(0.00539751 0.00149301 0)
(0.00543998 0.00136385 0)
(0.0055864 0.00108725 3.37247e-22)
(-0.00119588 0.000167044 7.48136e-23)
(-0.00148615 -0.00094681 0)
(-0.00231766 -0.00127639 0)
(-0.00342132 -0.00207246 0)
(-0.00507687 -0.00323449 0)
(-0.00788528 -0.00394087 0)
(-0.0123552 -0.00357343 0)
(-0.0209975 -0.00237508 0)
(-0.0338918 0.00156744 -4.27969e-22)
(-0.0502203 0.00774212 -1.38346e-21)
(-0.0643199 0.0171333 4.19017e-21)
(-0.0803741 0.0357939 3.77354e-22)
(-0.0945023 0.0609769 7.43186e-21)
(-0.101636 0.0803729 -6.41195e-21)
(-0.0814887 0.127618 -1.30045e-20)
(-0.0548552 0.210031 -8.8616e-20)
(0.0151314 0.274191 1.35032e-19)
(0.333992 0.218254 1.59614e-19)
(0.125387 0.58965 -4.90196e-19)
(0.277655 0.843173 2.92201e-19)
(0.400058 0.73231 -6.53703e-20)
(-0.256229 0.538213 1.94725e-19)
(-0.75764 0.514085 -1.73595e-19)
(-0.17978 0.524722 -1.3381e-18)
(0.0308695 0.2887 -4.18997e-20)
(0.0524514 0.21424 3.56323e-20)
(0.107921 0.143353 5.6806e-21)
(0.104833 0.0889386 1.74555e-21)
(0.094825 0.0636513 2.00618e-21)
(0.0779755 0.0439095 -6.38696e-21)
(0.0604835 0.0306186 1.93165e-21)
(0.0423818 0.0189654 2.56384e-23)
(0.0279834 0.0130472 0)
(0.017435 0.00867546 0)
(0.0126236 0.00625732 0)
(0.0104896 0.00417939 0)
(0.00944747 0.00329503 3.32093e-21)
(0.00891305 0.00253523 4.59263e-21)
(0.00867514 0.00163135 2.73863e-21)
(0.00764656 0.000839428 0)
(0.00272096 -0.00129763 0)
(0.00280231 -0.00262808 0)
(0.00254927 -0.00344295 0)
(0.00112285 -0.0053412 0)
(-0.000787525 -0.00759663 0)
(-0.00389526 -0.00984586 0)
(-0.0101288 -0.0114565 0)
(-0.0219541 -0.0116267 0)
(-0.0370052 -0.00971969 8.24802e-25)
(-0.0552706 -0.00515655 -3.39062e-22)
(-0.0757311 0.00165391 7.75924e-22)
(-0.0944346 0.0133853 -2.85938e-21)
(-0.123814 0.0340547 -1.33314e-22)
(-0.145413 0.0751283 2.54834e-21)
(-0.160169 0.110152 3.82893e-19)
(-0.191889 0.183743 1.39497e-23)
(-0.0700864 0.357659 1.03042e-19)
(0.039835 0.472616 1.75653e-19)
(0.0747469 0.328902 3.5962e-20)
(0.10349 0.397294 3.18045e-19)
(0.0117429 0.969211 4.23273e-20)
(-0.231977 1.35438 8.64058e-20)
(-0.138611 0.981163 -1.05385e-19)
(0.0480827 0.397338 -7.24253e-20)
(0.115996 0.259418 -3.20952e-20)
(0.160679 0.196162 -6.36583e-20)
(0.177624 0.0937562 5.5283e-21)
(0.14705 0.0609908 1.61831e-21)
(0.123228 0.0394663 2.70604e-21)
(0.0983899 0.0253543 1.23551e-22)
(0.0745714 0.01811 -5.0556e-23)
(0.0517182 0.0101266 -3.35595e-24)
(0.033864 0.00724164 0)
(0.0209106 0.00410343 0)
(0.0146007 0.00306555 0)
(0.0112522 0.00216015 0)
(0.00922281 0.00194643 0)
(0.007701 0.00153211 0)
(0.00702217 0.000919852 0)
(0.00690543 0.000317728 -4.93231e-22)
(0.00758219 -0.00109948 0)
(0.00735753 -0.00311204 0)
(0.00716349 -0.00523949 0)
(0.00613055 -0.00806615 0)
(0.00470829 -0.0109337 0)
(0.00207215 -0.0141805 0)
(-0.00396348 -0.0172082 0)
(-0.0176814 -0.0200595 0)
(-0.0358271 -0.022213 0)
(-0.0567748 -0.0237163 0)
(-0.0809377 -0.0215573 3.54213e-22)
(-0.105217 -0.0208233 1.4844e-21)
(-0.136969 -0.0158125 -3.56208e-21)
(-0.185556 0.00683377 2.1026e-21)
(-0.220552 0.0508101 1.15172e-18)
(-0.356222 0.076853 5.66973e-21)
(-0.421025 0.20287 4.24047e-19)
(0.0902374 0.528601 -1.43025e-20)
(-0.0773362 0.879292 -4.24989e-20)
(-0.29989 0.979615 -7.97228e-19)
(-0.292311 0.715698 2.54539e-19)
(-0.0501815 0.323377 1.61731e-19)
(0.36679 0.0745705 -3.63421e-20)
(0.435748 0.0955313 6.60283e-21)
(0.127422 0.249408 -7.70819e-20)
(0.272565 0.109644 8.04908e-21)
(0.214637 0.0322864 3.05782e-21)
(0.1755 0.0165559 7.46965e-22)
(0.134796 0.00558965 -7.96671e-22)
(0.106586 0.00206648 -2.93456e-22)
(0.0798279 0.000390545 0)
(0.0562713 -0.00237658 0)
(0.0373492 -0.00224022 0)
(0.0226158 -0.00327149 0)
(0.0145354 -0.00190416 0)
(0.0104456 -0.00133587 0)
(0.00793987 -0.000515128 0)
(0.0061217 2.2996e-05 0)
(0.00565607 8.03059e-05 0)
(0.00619298 -0.0001367 0)
(0.0090336 -0.00108073 0)
(0.00941534 -0.00365121 0)
(0.00935647 -0.00670586 0)
(0.00900946 -0.00989122 0)
(0.00851826 -0.0130056 0)
(0.00649551 -0.0169659 0)
(0.000526206 -0.0209311 0)
(-0.012331 -0.0249807 0)
(-0.0293395 -0.0298018 0)
(-0.0485681 -0.0384461 0)
(-0.0709636 -0.0447456 0)
(-0.0952454 -0.0584436 8.08109e-23)
(-0.124711 -0.0775321 -1.21884e-21)
(-0.170918 -0.102155 2.52877e-21)
(-0.221676 -0.0809558 3.76346e-19)
(-0.277793 -0.130143 1.60441e-20)
(-0.724906 -0.130708 3.32829e-19)
(-0.59765 0.0874031 -1.66509e-20)
(-0.180587 0.188116 1.83457e-20)
(0.0621519 0.100967 -2.99165e-19)
(0.27003 -0.0171987 -1.51011e-19)
(0.38088 -0.144241 -4.09165e-20)
(0.292886 -0.0849293 1.71327e-19)
(-0.130597 0.188452 8.36934e-20)
(0.31633 0.170581 -7.89351e-20)
(0.415737 0.00871719 5.17144e-21)
(0.251097 -0.0653748 -4.93573e-20)
(0.183535 -0.0432251 2.26205e-22)
(0.137279 -0.0391924 -8.21238e-24)
(0.106581 -0.0277779 0)
(0.0786872 -0.0224814 0)
(0.055953 -0.0178597 0)
(0.0357672 -0.0134036 0)
(0.0201559 -0.0101618 0)
(0.0121874 -0.00639474 0)
(0.00897146 -0.00428954 0)
(0.00725776 -0.00255501 0)
(0.00611134 -0.00143758 0)
(0.00569917 -0.000766556 0)
(0.00596626 -0.000298114 0)
(0.0112486 -0.00154442 0)
(0.0117581 -0.00412286 0)
(0.0120188 -0.00694484 0)
(0.0123605 -0.0101448 0)
(0.012591 -0.0137288 0)
(0.0115937 -0.0184586 0)
(0.00579607 -0.0239804 0)
(-0.00626438 -0.0295895 0)
(-0.0201865 -0.035908 0)
(-0.0350999 -0.0482012 0)
(-0.0512923 -0.0614346 -1.53695e-21)
(-0.0718371 -0.0785945 0)
(-0.09199 -0.122929 0)
(-0.145397 -0.143537 -4.51217e-21)
(-0.18244 -0.147915 -7.04918e-20)
(-0.0916181 -0.15394 6.37725e-19)
(-0.255554 -0.472809 -2.01144e-20)
(-0.473294 -0.805813 -4.71114e-20)
(-0.434704 -0.812784 2.48491e-19)
(-0.314463 -0.599855 -7.6592e-19)
(-0.178157 -0.309552 1.93252e-19)
(-0.127851 -0.0047322 3.08619e-19)
(-0.0325345 0.182601 -2.12594e-20)
(0.257149 -0.00116607 -3.41346e-20)
(0.662027 -0.263095 -5.3937e-21)
(0.367207 -0.256122 8.62589e-20)
(0.216143 -0.175344 -3.87053e-20)
(0.15322 -0.121472 0)
(0.115751 -0.0914133 0)
(0.0895901 -0.0614227 2.31795e-21)
(0.0659111 -0.0434515 0)
(0.0465898 -0.029122 0)
(0.0280038 -0.0189855 0)
(0.0149486 -0.0124149 0)
(0.00876423 -0.00791786 0)
(0.0069762 -0.00510923 0)
(0.00641766 -0.00322806 0)
(0.00624906 -0.00208518 -5.46566e-22)
(0.00617988 -0.00101313 -3.92113e-22)
(0.00634835 -0.000199016 0)
(0.0149264 -0.000947745 0)
(0.0152838 -0.00320316 0)
(0.0160967 -0.00565607 0)
(0.0175488 -0.00866838 0)
(0.0190555 -0.0124559 0)
(0.0195942 -0.0172349 0)
(0.0151045 -0.0234884 0)
(0.00423314 -0.0315649 0)
(-0.00654628 -0.0412706 0)
(-0.016345 -0.056642 0)
(-0.022567 -0.0779706 -1.48359e-21)
(-0.0372176 -0.0993831 0)
(-0.0464394 -0.149987 0)
(-0.101123 -0.224435 4.02314e-20)
(-0.232907 -0.257738 -2.52981e-19)
(-0.0247479 -0.254302 -9.36846e-20)
(0.170178 -0.18605 0)
(0.0719594 -0.330192 -2.13714e-20)
(-0.0141672 -0.572592 3.92619e-19)
(-0.0128011 -0.794699 1.13803e-21)
(0.0273395 -0.96831 5.05928e-19)
(0.0841168 -1.05327 5.81247e-20)
(0.167755 -1.05556 1.11352e-20)
(0.263005 -0.87427 0)
(0.217176 -0.520031 3.18469e-20)
(0.167636 -0.324912 6.81981e-20)
(0.121655 -0.234037 6.65285e-21)
(0.0757936 -0.167259 0)
(0.0605719 -0.114569 0)
(0.0510151 -0.0760796 1.26188e-23)
(0.0396666 -0.0498234 0)
(0.028987 -0.0308924 0)
(0.0169271 -0.0189315 0)
(0.00863913 -0.0117349 0)
(0.00495325 -0.00712302 0)
(0.00460414 -0.00421187 9.88814e-22)
(0.00481413 -0.00259148 -1.28495e-21)