/*--------------------------------*- C++ -*----------------------------------*\
| =========                 |                                                 |
| \\      /  F ield         | OpenFOAM: The Open Source CFD Toolbox           |
|  \\    /   O peration     | Version:  v2106                                 |
|   \\  /    A nd           | Website:  www.openfoam.com                      |
|    \\/     M anipulation  |                                                 |
\*---------------------------------------------------------------------------*/
FoamFile
{
    version     2.0;
    format      ascii;
    arch        "LSB;label=32;scalar=64";
    class       pointVectorField;
    location    "0";
    object      pointDisplacement;
}
// * * * * * * * * * * * * * * * * * * * * * * * * * * * * * * * * * * * * * //

dimensions      [0 1 0 0 0 0 0];

internalField   nonuniform List<vector> 
24440
(
(0 0 0)
(0 0 0)
(0 0 0)
(0 0 0)
(0 0 0)
(0 0 0)
(0 0 0)
(0 0 0)
(0 0 0)
(0 0 0)
(0 0 0)
(0 0 0)
(0 0 0)
(0 0 0)
(0 0 0)
(0 0 0)
(0 0 0)
(0 0 0)
(0 0 0)
(0 0 0)
(0 0 0)
(0 0 0)
(0 0 0)
(0 0 0)
(0 0 0)
(0 0 0)
(0 0 0)
(0 0 0)
(0 0 0)
(0 0 0)
(0 0 0)
(0 0 0)
(0 0 0)
(0 0 0)
(0 0 0)
(0 0 0)
(0 0 0)
(0 0 0)
(0 0 0)
(0 0 0)
(0 0 0)
(0 0 0)
(0 0 0)
(0 0 0)
(0 0 0)
(0 0 0)
(0 0 0)
(0 0 0)
(0 0 0)
(0 0 0)
(0 0 0)
(0 0 0)
(0 0 0)
(0 0 0)
(0 0 0)
(0 0 0)
(0 0 0)
(0 0 0)
(0 0 0)
(0 0 0)
(0 0 0)
(0 0 0)
(0 0 0)
(0 0 0)
(0 0 0)
(0 0 0)
(0 0 0)
(0 0 0)
(0 0 0)
(0 0 0)
(0 0 0)
(0 0 0)
(0 0 0)
(0 0 0)
(0 0 0)
(0 0 0)
(0 0 0)
(0 0 0)
(0 0 0)
(0 0 0)
(0 0 0)
(0 0 0)
(0 0 0)
(0 0 0)
(0 0 0)
(0 0 0)
(0 0 0)
(0 0 0)
(0 0 0)
(0 0 0)
(0 0 0)
(0 0 0)
(0 0 0)
(0 0 0)
(0 0 0)
(0 0 0)
(0 0 0)
(0 0 0)
(0 2.86505e-07 0)
(0 1.80671e-06 0)
(0 4.96808e-06 0)
(0 7.65557e-06 0)
(0 8.68695e-06 0)
(0 7.65557e-06 0)
(0 4.96808e-06 0)
(0 1.80671e-06 0)
(0 2.86505e-07 0)
(0 0 0)
(0 0 0)
(0 0 0)
(0 0 0)
(0 0 0)
(0 0 0)
(0 0 0)
(0 0 0)
(0 0 0)
(0 0 0)
(0 0 0)
(0 0 0)
(0 0 0)
(0 0 0)
(0 0 0)
(0 0 0)
(0 0 0)
(0 0 0)
(0 0 0)
(0 0 0)
(0 0 0)
(0 0 0)
(0 0 0)
(0 0 0)
(0 0 0)
(0 0 0)
(0 0 0)
(0 0 0)
(0 0 0)
(0 4.79818e-07 0)
(0 6.34719e-06 0)
(0 1.86793e-05 0)
(0 3.36496e-05 0)
(0 4.79979e-05 0)
(0 5.80008e-05 0)
(0 6.72995e-05 0)
(0 7.05712e-05 0)
(0 6.72995e-05 0)
(0 5.80008e-05 0)
(0 4.79979e-05 0)
(0 3.36496e-05 0)
(0 1.86793e-05 0)
(0 6.34719e-06 0)
(0 4.79818e-07 0)
(0 0 0)
(0 0 0)
(0 0 0)
(0 0 0)
(0 0 0)
(0 0 0)
(0 0 0)
(0 0 0)
(0 0 0)
(0 0 0)
(0 0 0)
(0 0 0)
(0 0 0)
(0 0 0)
(0 0 0)
(0 0 0)
(0 0 0)
(0 0 0)
(0 0 0)
(0 0 0)
(0 0 0)
(0 0 0)
(0 0 0)
(0 0 0)
(0 2.01455e-07 0)
(0 8.34715e-06 0)
(0 2.84664e-05 0)
(0 5.61354e-05 0)
(0 8.46344e-05 0)
(0 0.000116429 0)
(0 0.000143965 0)
(0 0.000161019 0)
(0 0.000177327 0)
(0 0.000182962 0)
(0 0.000177327 0)
(0 0.000161019 0)
(0 0.000143965 0)
(0 0.000116429 0)
(0 8.46344e-05 0)
(0 5.61354e-05 0)
(0 2.84664e-05 0)
(0 8.34715e-06 0)
(0 2.01455e-07 0)
(0 0 0)
(0 0 0)
(0 0 0)
(0 0 0)
(0 0 0)
(0 0 0)
(0 0 0)
(0 0 0)
(0 0 0)
(0 0 0)
(0 0 0)
(0 0 0)
(0 0 0)
(0 0 0)
(0 0 0)
(0 0 0)
(0 0 0)
(0 0 0)
(0 0 0)
(0 0 0)
(0 0 0)
(0 1.90486e-06 0)
(0 1.98094e-05 0)
(0 5.26446e-05 0)
(0 9.23657e-05 0)
(0 0.000141683 0)
(0 0.000191425 0)
(0 0.000234517 0)
(0 0.000274883 0)
(0 0.000303528 0)
(0 0.000320642 0)
(0 0.000328499 0)
(0 0.000320642 0)
(0 0.000303528 0)
(0 0.000274883 0)
(0 0.000234517 0)
(0 0.000191425 0)
(0 0.000141683 0)
(0 9.23657e-05 0)
(0 5.26446e-05 0)
(0 1.98094e-05 0)
(0 2.01661e-06 0)
(0 0 0)
(0 0 0)
(0 0 0)
(0 0 0)
(0 0 0)
(0 0 0)
(0 0 0)
(0 0 0)
(0 0 0)
(0 0 0)
(0 0 0)
(0 0 0)
(0 0 0)
(0 0 0)
(0 0 0)
(0 0 0)
(0 0 0)
(0 0 0)
(0 0 0)
(0 3.74642e-06 0)
(0 2.62699e-05 0)
(0 6.55664e-05 0)
(0 0.00012037 0)
(0 0.000185502 0)
(0 0.000253183 0)
(0 0.000315294 0)
(0 0.000374175 0)
(0 0.0003963 0)
(0 0.000420227 0)
(0 0.000440241 0)
(0 0.000456009 0)
(0 0.000467285 0)
(0 0.000475083 0)
(0 0.000482286 0)
(0 0.000484698 0)
(0 0.000482286 0)
(0 0.000475083 0)
(0 0.000467285 0)
(0 0.000456009 0)
(0 0.000440241 0)
(0 0.000420227 0)
(0 0.0003963 0)
(0 0.000374175 0)
(0 0.000315294 0)
(0 0.000253183 0)
(0 0.000185502 0)
(0 0.00012037 0)
(0 6.42055e-05 0)
(0 2.37375e-05 0)
(0 2.99364e-06 0)
(0 0 0)
(0 0 0)
(0 0 0)
(0 0 0)
(0 0 0)
(0 0 0)
(0 0 0)
(0 0 0)
(0 0 0)
(0 0 0)
(0 0 0)
(0 0 0)
(0 0 0)
(0 0 0)
(0 0 0)
(0 0 0)
(0 0 0)
(0 2.20358e-06 0)
(0 2.52177e-05 0)
(0 7.0261e-05 0)
(0 0.00013221 0)
(0 0.000204775 0)
(0 0.000290151 0)
(0 0.000330974 0)
(0 0.000367158 0)
(0 0.000407206 0)
(0 0.000444744 0)
(0 0.000479088 0)
(0 0.000508266 0)
(0 0.000442961 0)
(0 0.000470007 0)
(0 0.000491351 0)
(0 0.00051288 0)
(0 0.000529768 0)
(0 0.000541804 0)
(0 0.000549019 0)
(0 0.000556665 0)
(0 0.000559222 0)
(0 0.000556665 0)
(0 0.000549019 0)
(0 0.000541804 0)
(0 0.000529768 0)
(0 0.00051288 0)
(0 0.000491351 0)
(0 0.000470007 0)
(0 0.000442961 0)
(0 0.000508266 0)
(0 0.000479088 0)
(0 0.000444744 0)
(0 0.000407206 0)
(0 0.000367158 0)
(0 0.000330974 0)
(0 0.000290151 0)
(0 0.000204775 0)
(0 0.00013221 0)
(0 6.76981e-05 0)
(0 2.41205e-05 0)
(0 2.00117e-06 0)
(0 0 0)
(0 0 0)
(0 0 0)
(0 0 0)
(0 0 0)
(0 0 0)
(0 0 0)
(0 0 0)
(0 0 0)
(0 0 0)
(0 0 0)
(0 0 0)
(0 0 0)
(0 0 0)
(0 0 0)
(0 0 0)
(0 1.39425e-05 0)
(0 5.6978e-05 0)
(0 0.000121811 0)
(0 0.000203249 0)
(0 0.000293952 0)
(0 0.000386116 0)
(0 0.000339853 0)
(0 0.000384246 0)
(0 0.000426963 0)
(0 0.000467185 0)
(0 0.000502921 0)
(0 0.000539162 0)
(0 0.000571188 0)
(0 0.000597646 0)
(0 0.000537003 0)
(0 0.000561209 0)
(0 0.000622594 0)
(0 0.000640558 0)
(0 0.000580466 0)
(0 0.000598086 0)
(0 0.000658425 0)
(0 0.000671001 0)
(0 0.000610585 0)
(0 0.000616919 0)
(0 0.000678289 0)
(0 0.000684075 0)
(0 0.000624805 0)
(0 0.000627436 0)
(0 0.000686687 0)
(0 0.000684075 0)
(0 0.000624805 0)
(0 0.000616919 0)
(0 0.000678289 0)
(0 0.000671001 0)
(0 0.000610585 0)
(0 0.000598086 0)
(0 0.000658425 0)
(0 0.000640558 0)
(0 0.000580466 0)
(0 0.000561209 0)
(0 0.000622594 0)
(0 0.000597646 0)
(0 0.000537003 0)
(0 0.000571188 0)
(0 0.000539162 0)
(0 0.000502921 0)
(0 0.000467185 0)
(0 0.000426963 0)
(0 0.000384246 0)
(0 0.000339853 0)
(0 0.000386116 0)
(0 0.000293952 0)
(0 0.000200802 0)
(0 0.00012085 0)
(0 5.69172e-05 0)
(0 1.51577e-05 0)
(0 0 0)
(0 0 0)
(0 0 0)
(0 0 0)
(0 0 0)
(0 0 0)
(0 0 0)
(0 0 0)
(0 0 0)
(0 0 0)
(0 0 0)
(0 0 0)
(0 0 0)
(0 0 0)
(0 0 0)
(0 3.04154e-06 0)
(0 3.12478e-05 0)
(0 9.00714e-05 0)
(0 0.000168758 0)
(0 0.000262302 0)
(0 0.000369475 0)
(0 0.000472707 0)
(0 0.000432532 0)
(0 0.000479299 0)
(0 0.00043037 0)
(0 0.000478504 0)
(0 0.000523257 0)
(0 0.000567355 0)
(0 0.000520865 0)
(0 0.000559551 0)
(0 0.000607114 0)
(0 0.000625244 0)
(0 0.000642119 0)
(0 0.000619174 0)
(0 0.000592207 0)
(0 0.00062507 0)
(0 0.000648638 0)
(0 0.000663197 0)
(0 0.000639621 0)
(0 0.000675017 0)
(0 0.000697373 0)
(0 0.000707717 0)
(0 0.000685519 0)
(0 0.000708663 0)
(0 0.000730534 0)
(0 0.000735985 0)
(0 0.000715399 0)
(0 0.000727779 0)
(0 0.000747819 0)
(0 0.000750673 0)
(0 0.000731095 0)
(0 0.000734659 0)
(0 0.000753813 0)
(0 0.000753236 0)
(0 0.000734045 0)
(0 0.000727779 0)
(0 0.000747819 0)
(0 0.000745115 0)
(0 0.000724935 0)
(0 0.000708663 0)
(0 0.000730534 0)
(0 0.000724273 0)
(0 0.000702456 0)
(0 0.000675017 0)
(0 0.000697373 0)
(0 0.00068824 0)
(0 0.000663159 0)
(0 0.00062507 0)
(0 0.000648638 0)
(0 0.000632757 0)
(0 0.00060925 0)
(0 0.000559551 0)
(0 0.000607114 0)
(0 0.000567355 0)
(0 0.000520865 0)
(0 0.000478504 0)
(0 0.000523257 0)
(0 0.000479299 0)
(0 0.00043037 0)
(0 0.000432532 0)
(0 0.000470578 0)
(0 0.00036922 0)
(0 0.000266529 0)
(0 0.00016734 0)
(0 8.91944e-05 0)
(0 3.2814e-05 0)
(0 3.47815e-06 0)
(0 0 0)
(0 0 0)
(0 0 0)
(0 0 0)
(0 0 0)
(0 0 0)
(0 0 0)
(0 0 0)
(0 0 0)
(0 0 0)
(0 0 0)
(0 0 0)
(0 0 0)
(0 0 0)
(0 9.9512e-06 0)
(0 5.03636e-05 0)
(0 0.000118332 0)
(0 0.000207925 0)
(0 0.000311463 0)
(0 0.000425344 0)
(0 0.000531628 0)
(0 0.000505404 0)
(0 0.00055542 0)
(0 0.000521381 0)
(0 0.000566825 0)
(0 0.000601806 0)
(0 0.000643698 0)
(0 0.00060822 0)
(0 0.000644889 0)
(0 0.000663883 0)
(0 0.00068022 0)
(0 0.00066386 0)
(0 0.000710017 0)
(0 0.000717875 0)
(0 0.000724216 0)
(0 0.000716429 0)
(0 0.000751623 0)
(0 0.000757909 0)
(0 0.000761989 0)
(0 0.000755833 0)
(0 0.000776253 0)
(0 0.000780833 0)
(0 0.000782912 0)
(0 0.000778298 0)
(0 0.000787047 0)
(0 0.000790406 0)
(0 0.000790886 0)
(0 0.000787624 0)
(0 0.000789807 0)
(0 0.000792514 0)
(0 0.000792468 0)
(0 0.000789742 0)
(0 0.000787047 0)
(0 0.000790406 0)
(0 0.000789743 0)
(0 0.000786261 0)
(0 0.000776253 0)
(0 0.000780833 0)
(0 0.00077909 0)
(0 0.000773792 0)
(0 0.000751623 0)
(0 0.000757909 0)
(0 0.000754357 0)
(0 0.000747044 0)
(0 0.000710017 0)
(0 0.000717875 0)
(0 0.000725066 0)
(0 0.000711383 0)
(0 0.000696081 0)
(0 0.000644889 0)
(0 0.000663883 0)
(0 0.000680382 0)
(0 0.000643698 0)
(0 0.00060822 0)
(0 0.000566825 0)
(0 0.000600431 0)
(0 0.000555062 0)
(0 0.000521381 0)
(0 0.000506009 0)
(0 0.000533203 0)
(0 0.000424274 0)
(0 0.000314565 0)
(0 0.000210105 0)
(0 0.000119703 0)
(0 5.10823e-05 0)
(0 1.01967e-05 0)
(0 0 0)
(0 0 0)
(0 0 0)
(0 0 0)
(0 0 0)
(0 0 0)
(0 0 0)
(0 0 0)
(0 0 0)
(0 0 0)
(0 0 0)
(0 0 0)
(0 0 0)
(0 0 0)
(0 1.53445e-05 0)
(0 6.25655e-05 0)
(0 0.000137683 0)
(0 0.000234353 0)
(0 0.000344434 0)
(0 0.000458677 0)
(0 0.000567519 0)
(0 0.000554034 0)
(0 0.000603654 0)
(0 0.000580618 0)
(0 0.000625538 0)
(0 0.000648858 0)
(0 0.000688763 0)
(0 0.000669489 0)
(0 0.000705815 0)
(0 0.000714788 0)
(0 0.000730421 0)
(0 0.000721656 0)
(0 0.000759299 0)
(0 0.000763444 0)
(0 0.000768122 0)
(0 0.000764106 0)
(0 0.000788149 0)
(0 0.00079015 0)
(0 0.000791822 0)
(0 0.000790055 0)
(0 0.000795057 0)
(0 0.000795057 0)
(0 0.000795057 0)
(0 0.000795057 0)
(0 0.000795057 0)
(0 0.000795057 0)
(0 0.000795057 0)
(0 0.000795057 0)
(0 0.000795057 0)
(0 0.000795057 0)
(0 0.000795057 0)
(0 0.000795057 0)
(0 0.000795057 0)
(0 0.000795057 0)
(0 0.000795057 0)
(0 0.000795057 0)
(0 0.000795057 0)
(0 0.000795057 0)
(0 0.000795057 0)
(0 0.000795057 0)
(0 0.000788149 0)
(0 0.00079015 0)
(0 0.000787946 0)
(0 0.000785857 0)
(0 0.000759299 0)
(0 0.000763444 0)
(0 0.000766986 0)
(0 0.000756172 0)
(0 0.000748425 0)
(0 0.000705405 0)
(0 0.000715831 0)
(0 0.000723791 0)
(0 0.000687807 0)
(0 0.000670085 0)
(0 0.000629103 0)
(0 0.000648052 0)
(0 0.000603013 0)
(0 0.000583184 0)
(0 0.000553563 0)
(0 0.000567801 0)
(0 0.000458489 0)
(0 0.000343887 0)
(0 0.000233601 0)
(0 0.000136899 0)
(0 6.19169e-05 0)
(0 1.49761e-05 0)
(0 0 0)
(0 0 0)
(0 0 0)
(0 0 0)
(0 0 0)
(0 0 0)
(0 0 0)
(0 0 0)
(0 0 0)
(0 0 0)
(0 0 0)
(0 0 0)
(0 0 0)
(0 0 0)
(0 1.62686e-05 0)
(0 6.45656e-05 0)
(0 0.000140835 0)
(0 0.000238669 0)
(0 0.000349847 0)
(0 0.000465027 0)
(0 0.000574533 0)
(0 0.000574735 0)
(0 0.000624406 0)
(0 0.000617044 0)
(0 0.000661914 0)
(0 0.000669284 0)
(0 0.000708426 0)
(0 0.000701217 0)
(0 0.000735428 0)
(0 0.000738734 0)
(0 0.00075245 0)
(0 0.000749469 0)
(0 0.000780429 0)
(0 0.000781704 0)
(0 0.000785089 0)
(0 0.000783912 0)
(0 0.000795057 0)
(0 0.000795057 0)
(0 0.000795057 0)
(0 0.000795057 0)
(0 0.000795057 0)
(0 0.000795057 0)
(0 0.000795057 0)
(0 0.000795057 0)
(0 0.000795057 0)
(0 0.000795057 0)
(0 0.000795057 0)
(0 0.000795057 0)
(0 0.000795057 0)
(0 0.000795057 0)
(0 0.000795057 0)
(0 0.000795057 0)
(0 0.000795057 0)
(0 0.000795025 0)
(0 0.00079491 0)
(0 0.000780429 0)
(0 0.000781704 0)
(0 0.000782546 0)
(0 0.000774596 0)
(0 0.00077179 0)
(0 0.000735382 0)
(0 0.00073878 0)
(0 0.000741006 0)
(0 0.000708426 0)
(0 0.000702236 0)
(0 0.000662704 0)
(0 0.000667598 0)
(0 0.00062247 0)
(0 0.000617582 0)
(0 0.000572591 0)
(0 0.000573249 0)
(0 0.000463597 0)
(0 0.000348395 0)
(0 0.000237321 0)
(0 0.000139707 0)
(0 6.37564e-05 0)
(0 1.58494e-05 0)
(0 0 0)
(0 0 0)
(0 0 0)
(0 0 0)
(0 0 0)
(0 0 0)
(0 0 0)
(0 0 0)
(0 0 0)
(0 0 0)
(0 0 0)
(0 0 0)
(0 0 0)
(0 0 0)
(0 1.32952e-05 0)
(0 5.81056e-05 0)
(0 0.000130724 0)
(0 0.000224956 0)
(0 0.000332824 0)
(0 0.000445258 0)
(0 0.000552898 0)
(0 0.000568434 0)
(0 0.000618022 0)
(0 0.000624243 0)
(0 0.000669165 0)
(0 0.000662938 0)
(0 0.000702263 0)
(0 0.000708351 0)
(0 0.000740975 0)
(0 0.00073923 0)
(0 0.000752942 0)
(0 0.000754605 0)
(0 0.00078394 0)
(0 0.000783525 0)
(0 0.000786699 0)
(0 0.000787075 0)
(0 0.000795057 0)
(0 0.000795057 0)
(0 0.000795057 0)
(0 0.000795057 0)
(0 0.000795057 0)
(0 0.000795057 0)
(0 0.000795057 0)
(0 0.000795057 0)
(0 0.000795057 0)
(0 0.000795057 0)
(0 0.000795057 0)
(0 0.000795057 0)
(0 0.000795057 0)
(0 0.000795057 0)
(0 0.000795057 0)
(0 0.000795057 0)
(0 0.00078394 0)
(0 0.000783187 0)
(0 0.000782774 0)
(0 0.000774842 0)
(0 0.000775744 0)
(0 0.000740286 0)
(0 0.000739175 0)
(0 0.000735802 0)
(0 0.000702743 0)
(0 0.000707483 0)
(0 0.000668136 0)
(0 0.000663288 0)
(0 0.000618231 0)
(0 0.000623073 0)
(0 0.000568502 0)
(0 0.000554303 0)
(0 0.000446291 0)
(0 0.000333498 0)
(0 0.000225327 0)
(0 0.000130872 0)
(0 5.81199e-05 0)
(0 1.32662e-05 0)
(0 0 0)
(0 0 0)
(0 0 0)
(0 0 0)
(0 0 0)
(0 0 0)
(0 0 0)
(0 0 0)
(0 0 0)
(0 0 0)
(0 0 0)
(0 0 0)
(0 0 0)
(0 0 0)
(0 6.72452e-06 0)
(0 4.2238e-05 0)
(0 0.000105058 0)
(0 0.000189544 0)
(0 0.000294688 0)
(0 0.000402203 0)
(0 0.000507075 0)
(0 0.000534887 0)
(0 0.000584601 0)
(0 0.000602125 0)
(0 0.000649895 0)
(0 0.000630219 0)
(0 0.000670877 0)
(0 0.000690417 0)
(0 0.000724831 0)
(0 0.000716584 0)
(0 0.000731542 0)
(0 0.00073955 0)
(0 0.000773136 0)
(0 0.00077079 0)
(0 0.000775056 0)
(0 0.000777561 0)
(0 0.000794095 0)
(0 0.00079328 0)
(0 0.000794254 0)
(0 0.000794758 0)
(0 0.000795057 0)
(0 0.000795057 0)
(0 0.000795057 0)
(0 0.000795057 0)
(0 0.000795057 0)
(0 0.000795057 0)
(0 0.000795057 0)
(0 0.000795057 0)
(0 0.000794095 0)
(0 0.00079316 0)
(0 0.000791868 0)
(0 0.000793023 0)
(0 0.000773136 0)
(0 0.00077079 0)
(0 0.0007676 0)
(0 0.000757489 0)
(0 0.000763733 0)
(0 0.000724831 0)
(0 0.000716584 0)
(0 0.000707218 0)
(0 0.000670877 0)
(0 0.000690417 0)
(0 0.000648684 0)
(0 0.000630219 0)
(0 0.000584601 0)
(0 0.000603705 0)
(0 0.000534887 0)
(0 0.000507075 0)
(0 0.000402203 0)
(0 0.00029089 0)
(0 0.000191407 0)
(0 0.00010628 0)
(0 4.29068e-05 0)
(0 6.95051e-06 0)
(0 0 0)
(0 0 0)
(0 0 0)
(0 0 0)
(0 0 0)
(0 0 0)
(0 0 0)
(0 0 0)
(0 0 0)
(0 0 0)
(0 0 0)
(0 0 0)
(0 0 0)
(0 0 0)
(0 8.3206e-07 0)
(0 2.46995e-05 0)
(0 7.52128e-05 0)
(0 0.000147899 0)
(0 0.000236113 0)
(0 0.000332114 0)
(0 0.000432851 0)
(0 0.000471048 0)
(0 0.000522269 0)
(0 0.000555855 0)
(0 0.000603303 0)
(0 0.000567113 0)
(0 0.000612022 0)
(0 0.000644565 0)
(0 0.000682479 0)
(0 0.000667276 0)
(0 0.000684023 0)
(0 0.000699096 0)
(0 0.000739785 0)
(0 0.000733015 0)
(0 0.000739171 0)
(0 0.000744794 0)
(0 0.000775744 0)
(0 0.000771292 0)
(0 0.000774542 0)
(0 0.000778822 0)
(0 0.000791824 0)
(0 0.000789333 0)
(0 0.000790427 0)
(0 0.000792702 0)
(0 0.000795057 0)
(0 0.000794615 0)
(0 0.000794788 0)
(0 0.000795057 0)
(0 0.000795057 0)
(0 0.000795057 0)
(0 0.000795057 0)
(0 0.000795057 0)
(0 0.000795057 0)
(0 0.000795057 0)
(0 0.000794615 0)
(0 0.000794372 0)
(0 0.00079503 0)
(0 0.00079505 0)
(0 0.000791824 0)
(0 0.000789333 0)
(0 0.000787983 0)
(0 0.000790694 0)
(0 0.000775744 0)
(0 0.000771292 0)
(0 0.00076767 0)
(0 0.000772285 0)
(0 0.00074033 0)
(0 0.000734115 0)
(0 0.000726646 0)
(0 0.000714297 0)
(0 0.000727724 0)
(0 0.000680605 0)
(0 0.000666503 0)
(0 0.000650031 0)
(0 0.000611182 0)
(0 0.000644565 0)
(0 0.000603303 0)
(0 0.000567113 0)
(0 0.000522269 0)
(0 0.000555855 0)
(0 0.000471048 0)
(0 0.000432851 0)
(0 0.000332114 0)
(0 0.000236113 0)
(0 0.000147899 0)
(0 7.52128e-05 0)
(0 2.30397e-05 0)
(0 9.99455e-07 0)
(0 0 0)
(0 0 0)
(0 0 0)
(0 0 0)
(0 0 0)
(0 0 0)
(0 0 0)
(0 0 0)
(0 0 0)
(0 0 0)
(0 0 0)
(0 0 0)
(0 0 0)
(0 0 0)
(0 0 0)
(0 7.59192e-06 0)
(0 4.00066e-05 0)
(0 9.41265e-05 0)
(0 0.000164307 0)
(0 0.000251992 0)
(0 0.000342654 0)
(0 0.000385423 0)
(0 0.00043589 0)
(0 0.000479047 0)
(0 0.000525834 0)
(0 0.000481324 0)
(0 0.000523804 0)
(0 0.000569809 0)
(0 0.000609626 0)
(0 0.000562583 0)
(0 0.000595047 0)
(0 0.000622002 0)
(0 0.00064466 0)
(0 0.000627774 0)
(0 0.000674788 0)
(0 0.000651232 0)
(0 0.000665792 0)
(0 0.000688111 0)
(0 0.000721462 0)
(0 0.000701265 0)
(0 0.000709343 0)
(0 0.000730279 0)
(0 0.000751016 0)
(0 0.000733117 0)
(0 0.000738375 0)
(0 0.000755975 0)
(0 0.000766343 0)
(0 0.000749827 0)
(0 0.000752742 0)
(0 0.000768374 0)
(0 0.000771091 0)
(0 0.000755839 0)
(0 0.00075505 0)
(0 0.000770468 0)
(0 0.000766343 0)
(0 0.000749827 0)
(0 0.000745692 0)
(0 0.000763158 0)
(0 0.000751016 0)
(0 0.000733117 0)
(0 0.000726547 0)
(0 0.000744763 0)
(0 0.000721462 0)
(0 0.000701265 0)
(0 0.000690821 0)
(0 0.000711241 0)
(0 0.000674788 0)
(0 0.000651232 0)
(0 0.000637558 0)
(0 0.000660235 0)
(0 0.000609626 0)
(0 0.000562583 0)
(0 0.000523804 0)
(0 0.000569809 0)
(0 0.000525834 0)
(0 0.000481324 0)
(0 0.00043589 0)
(0 0.000479047 0)
(0 0.000385423 0)
(0 0.000342654 0)
(0 0.000251992 0)
(0 0.000164307 0)
(0 9.41265e-05 0)
(0 4.00066e-05 0)
(0 7.59192e-06 0)
(0 0 0)
(0 0 0)
(0 0 0)
(0 0 0)
(0 0 0)
(0 0 0)
(0 0 0)
(0 0 0)
(0 0 0)
(0 0 0)
(0 0 0)
(0 0 0)
(0 0 0)
(0 0 0)
(0 0 0)
(0 0 0)
(0 0 0)
(0 1.14407e-05 0)
(0 4.72414e-05 0)
(0 0.000101272 0)
(0 0.000168281 0)
(0 0.000241678 0)
(0 0.000314131 0)
(0 0.000370357 0)
(0 0.000430144 0)
(0 0.000387248 0)
(0 0.000410594 0)
(0 0.000470521 0)
(0 0.000506134 0)
(0 0.000448296 0)
(0 0.000482779 0)
(0 0.000542479 0)
(0 0.000574583 0)
(0 0.000544876 0)
(0 0.000556342 0)
(0 0.000588902 0)
(0 0.000625438 0)
(0 0.000596228 0)
(0 0.000607067 0)
(0 0.00063636 0)
(0 0.000661252 0)
(0 0.000631874 0)
(0 0.000636718 0)
(0 0.000666905 0)
(0 0.000682729 0)
(0 0.000654516 0)
(0 0.000657812 0)
(0 0.000685996 0)
(0 0.000689838 0)
(0 0.000661804 0)
(0 0.000660447 0)
(0 0.000688607 0)
(0 0.000682729 0)
(0 0.000654516 0)
(0 0.000649902 0)
(0 0.000678142 0)
(0 0.000661252 0)
(0 0.000631874 0)
(0 0.000624904 0)
(0 0.000654275 0)
(0 0.000625438 0)
(0 0.000596228 0)
(0 0.00058414 0)
(0 0.000613226 0)
(0 0.000574583 0)
(0 0.000544876 0)
(0 0.000510541 0)
(0 0.000482779 0)
(0 0.000542479 0)
(0 0.000506134 0)
(0 0.000448296 0)
(0 0.000410594 0)
(0 0.000470521 0)
(0 0.000430144 0)
(0 0.000370357 0)
(0 0.000314131 0)
(0 0.000241678 0)
(0 0.000387248 0)
(0 0.000168281 0)
(0 0.000101272 0)
(0 4.72414e-05 0)
(0 1.14407e-05 0)
(0 0 0)
(0 0 0)
(0 0 0)
(0 0 0)
(0 0 0)
(0 0 0)
(0 0 0)
(0 0 0)
(0 0 0)
(0 0 0)
(0 0 0)
(0 0 0)
(0 0 0)
(0 0 0)
(0 0 0)
(0 0 0)
(0 0 0)
(0 0 0)
(0 1.45083e-07 0)
(0 1.2997e-05 0)
(0 4.40427e-05 0)
(0 8.63078e-05 0)
(0 0.000141267 0)
(0 0.000199881 0)
(0 0.000256553 0)
(0 0.000289636 0)
(0 0.000351044 0)
(0 0.000385859 0)
(0 0.000317524 0)
(0 0.000348987 0)
(0 0.000414546 0)
(0 0.000445999 0)
(0 0.0004122 0)
(0 0.000426035 0)
(0 0.000460382 0)
(0 0.000497458 0)
(0 0.000461793 0)
(0 0.000471634 0)
(0 0.000507636 0)
(0 0.000530697 0)
(0 0.000494983 0)
(0 0.000502934 0)
(0 0.00053888 0)
(0 0.000556025 0)
(0 0.000519622 0)
(0 0.000522738 0)
(0 0.000559222 0)
(0 0.000563433 0)
(0 0.000526951 0)
(0 0.000525236 0)
(0 0.000561784 0)
(0 0.000556025 0)
(0 0.000519622 0)
(0 0.000515274 0)
(0 0.000551561 0)
(0 0.000530697 0)
(0 0.000494983 0)
(0 0.000485879 0)
(0 0.000524499 0)
(0 0.000497458 0)
(0 0.000461793 0)
(0 0.000450883 0)
(0 0.000486161 0)
(0 0.000445999 0)
(0 0.0004122 0)
(0 0.00037779 0)
(0 0.000348987 0)
(0 0.000414546 0)
(0 0.000385859 0)
(0 0.000317524 0)
(0 0.000289636 0)
(0 0.000351044 0)
(0 0.000256553 0)
(0 0.000199881 0)
(0 0.000141267 0)
(0 8.63078e-05 0)
(0 4.40427e-05 0)
(0 1.2997e-05 0)
(0 1.45083e-07 0)
(0 0 0)
(0 0 0)
(0 0 0)
(0 0 0)
(0 0 0)
(0 0 0)
(0 0 0)
(0 0 0)
(0 0 0)
(0 0 0)
(0 0 0)
(0 0 0)
(0 0 0)
(0 0 0)
(0 0 0)
(0 0 0)
(0 0 0)
(0 0 0)
(0 0 0)
(0 0 0)
(0 6.82559e-06 0)
(0 2.84283e-05 0)
(0 5.75903e-05 0)
(0 9.69712e-05 0)
(0 0.000143386 0)
(0 0.000169076 0)
(0 0.000225293 0)
(0 0.000254797 0)
(0 0.000194252 0)
(0 0.000218279 0)
(0 0.000282713 0)
(0 0.000308432 0)
(0 0.000274149 0)
(0 0.000285264 0)
(0 0.000320294 0)
(0 0.000351182 0)
(0 0.000314279 0)
(0 0.000319574 0)
(0 0.000355953 0)
(0 0.000382811 0)
(0 0.000344935 0)
(0 0.000351569 0)
(0 0.000389823 0)
(0 0.000404601 0)
(0 0.000365566 0)
(0 0.00036819 0)
(0 0.000407369 0)
(0 0.000411402 0)
(0 0.000372106 0)
(0 0.000370298 0)
(0 0.000409591 0)
(0 0.000404601 0)
(0 0.000365566 0)
(0 0.000361909 0)
(0 0.000400742 0)
(0 0.000382811 0)
(0 0.000344935 0)
(0 0.000337366 0)
(0 0.000374803 0)
(0 0.000351182 0)
(0 0.000314279 0)
(0 0.000305383 0)
(0 0.000341723 0)
(0 0.000308432 0)
(0 0.000274149 0)
(0 0.000240577 0)
(0 0.000218279 0)
(0 0.000282713 0)
(0 0.000254797 0)
(0 0.000194252 0)
(0 0.000169076 0)
(0 0.000225293 0)
(0 0.000143386 0)
(0 9.69712e-05 0)
(0 5.75903e-05 0)
(0 2.84283e-05 0)
(0 6.82559e-06 0)
(0 0 0)
(0 0 0)
(0 0 0)
(0 0 0)
(0 0 0)
(0 0 0)
(0 0 0)
(0 0 0)
(0 0 0)
(0 0 0)
(0 0 0)
(0 0 0)
(0 0 0)
(0 0 0)
(0 0 0)
(0 0 0)
(0 0 0)
(0 0 0)
(0 0 0)
(0 0 0)
(0 0 0)
(0 0 0)
(0 0 0)
(0 5.81252e-07 0)
(0 9.85943e-06 0)
(0 2.75162e-05 0)
(0 5.77232e-05 0)
(0 7.34383e-05 0)
(0 0.000117719 0)
(0 0.000138339 0)
(0 8.93958e-05 0)
(0 0.000105056 0)
(0 0.000158244 0)
(0 0.000176887 0)
(0 0.000147409 0)
(0 0.00015525 0)
(0 0.000185578 0)
(0 0.00020651 0)
(0 0.000174776 0)
(0 0.000182133 0)
(0 0.000214595 0)
(0 0.000234967 0)
(0 0.000200725 0)
(0 0.00020563 0)
(0 0.000240328 0)
(0 0.000251683 0)
(0 0.000216032 0)
(0 0.000217991 0)
(0 0.000253818 0)
(0 0.000257229 0)
(0 0.000221188 0)
(0 0.000219565 0)
(0 0.000255534 0)
(0 0.000251683 0)
(0 0.000216032 0)
(0 0.000213307 0)
(0 0.00024871 0)
(0 0.000234967 0)
(0 0.000200725 0)
(0 0.00019515 0)
(0 0.000228866 0)
(0 0.00020651 0)
(0 0.000174776 0)
(0 0.000166915 0)
(0 0.000197858 0)
(0 0.000176887 0)
(0 0.000147409 0)
(0 0.000119914 0)
(0 0.000105056 0)
(0 0.000158244 0)
(0 0.000138339 0)
(0 8.93958e-05 0)
(0 7.34383e-05 0)
(0 0.000117719 0)
(0 5.77232e-05 0)
(0 2.75162e-05 0)
(0 9.85943e-06 0)
(0 5.81252e-07 0)
(0 0 0)
(0 0 0)
(0 0 0)
(0 0 0)
(0 0 0)
(0 0 0)
(0 0 0)
(0 0 0)
(0 0 0)
(0 0 0)
(0 0 0)
(0 0 0)
(0 0 0)
(0 0 0)
(0 0 0)
(0 0 0)
(0 0 0)
(0 0 0)
(0 0 0)
(0 0 0)
(0 0 0)
(0 0 0)
(0 0 0)
(0 0 0)
(0 0 0)
(0 0 0)
(0 1.05364e-07 0)
(0 7.91593e-06 0)
(0 1.37881e-05 0)
(0 3.8233e-05 0)
(0 4.9536e-05 0)
(0 2.05597e-05 0)
(0 2.78012e-05 0)
(0 6.09393e-05 0)
(0 7.19847e-05 0)
(0 4.95513e-05 0)
(0 5.46239e-05 0)
(0 7.47046e-05 0)
(0 9.17247e-05 0)
(0 6.90305e-05 0)
(0 7.34036e-05 0)
(0 9.68448e-05 0)
(0 0.000109938 0)
(0 8.46554e-05 0)
(0 8.76684e-05 0)
(0 0.000113427 0)
(0 0.000120871 0)
(0 9.41167e-05 0)
(0 9.53393e-05 0)
(0 0.000122279 0)
(0 0.000124728 0)
(0 9.751e-05 0)
(0 9.63241e-05 0)
(0 0.000123413 0)
(0 0.000120871 0)
(0 9.41167e-05 0)
(0 9.24201e-05 0)
(0 0.000118915 0)
(0 0.000109938 0)
(0 8.46554e-05 0)
(0 8.12524e-05 0)
(0 0.00010599 0)
(0 9.17247e-05 0)
(0 6.90305e-05 0)
(0 6.44125e-05 0)
(0 8.62961e-05 0)
(0 7.19847e-05 0)
(0 4.95513e-05 0)
(0 3.33212e-05 0)
(0 2.78012e-05 0)
(0 6.09393e-05 0)
(0 4.9536e-05 0)
(0 2.05597e-05 0)
(0 1.37881e-05 0)
(0 3.8233e-05 0)
(0 7.91593e-06 0)
(0 1.05364e-07 0)
(0 0 0)
(0 0 0)
(0 0 0)
(0 0 0)
(0 0 0)
(0 0 0)
(0 0 0)
(0 0 0)
(0 0 0)
(0 0 0)
(0 0 0)
(0 0 0)
(0 0 0)
(0 0 0)
(0 0 0)
(0 0 0)
(0 0 0)
(0 0 0)
(0 0 0)
(0 0 0)
(0 0 0)
(0 0 0)
(0 0 0)
(0 0 0)
(0 0 0)
(0 0 0)
(0 0 0)
(0 0 0)
(0 0 0)
(0 0 0)
(0 0 0)
(0 3.8696e-06 0)
(0 1.39959e-06 0)
(0 0 0)
(0 6.08493e-06 0)
(0 1.01657e-05 0)
(0 3.11221e-07 0)
(0 1.36033e-06 0)
(0 1.46495e-05 0)
(0 1.9193e-05 0)
(0 2.86844e-06 0)
(0 4.56738e-06 0)
(0 2.34861e-05 0)
(0 2.72597e-05 0)
(0 6.22304e-06 0)
(0 7.64107e-06 0)
(0 3.0291e-05 0)
(0 3.24089e-05 0)
(0 8.67158e-06 0)
(0 9.21268e-06 0)
(0 3.34973e-05 0)
(0 3.43682e-05 0)
(0 9.67494e-06 0)
(0 9.21268e-06 0)
(0 3.34973e-05 0)
(0 3.24089e-05 0)
(0 8.67158e-06 0)
(0 7.64107e-06 0)
(0 3.0291e-05 0)
(0 2.72597e-05 0)
(0 6.22304e-06 0)
(0 4.56738e-06 0)
(0 2.34861e-05 0)
(0 1.9193e-05 0)
(0 2.86844e-06 0)
(0 1.36033e-06 0)
(0 1.46495e-05 0)
(0 1.01657e-05 0)
(0 3.11221e-07 0)
(0 0 0)
(0 6.08493e-06 0)
(0 3.8696e-06 0)
(0 0 0)
(0 0 0)
(0 0 0)
(0 1.39959e-06 0)
(0 0 0)
(0 0 0)
(0 0 0)
(0 0 0)
(0 0 0)
(0 0 0)
(0 0 0)
(0 0 0)
(0 0 0)
(0 0 0)
(0 0 0)
(0 0 0)
(0 0 0)
(0 0 0)
(0 0 0)
(0 0 0)
(0 0 0)
(0 0 0)
(0 0 0)
(0 0 0)
(0 0 0)
(0 0 0)
(0 0 0)
(0 0 0)
(0 0 0)
(0 0 0)
(0 0 0)
(0 0 0)
(0 0 0)
(0 0 0)
(0 0 0)
(0 0 0)
(0 0 0)
(0 0 0)
(0 0 0)
(0 0 0)
(0 0 0)
(0 0 0)
(0 0 0)
(0 0 0)
(0 2.79691e-08 0)
(0 0 0)
(0 0 0)
(0 1.07634e-07 0)
(0 6.40407e-08 0)
(0 0 0)
(0 2.79691e-08 0)
(0 6.40407e-08 0)
(0 0 0)
(0 0 0)
(0 0 0)
(0 0 0)
(0 0 0)
(0 0 0)
(0 0 0)
(0 0 0)
(0 0 0)
(0 0 0)
(0 0 0)
(0 0 0)
(0 0 0)
(0 0 0)
(0 0 0)
(0 0 0)
(0 0 0)
(0 0 0)
(0 0 0)
(0 0 0)
(0 0 0)
(0 0 0)
(0 0 0)
(0 0 0)
(0 0 0)
(0 0 0)
(0 0 0)
(0 0 0)
(0 0 0)
(0 0 0)
(0 0 0)
(0 0 0)
(0 0 0)
(0 0 0)
(0 0 0)
(0 0 0)
(0 0 0)
(0 0 0)
(0 0 0)
(0 0 0)
(0 0 0)
(0 0 0)
(0 0 0)
(0 0 0)
(0 0 0)
(0 0 0)
(0 0 0)
(0 0 0)
(0 0 0)
(0 0 0)
(0 0 0)
(0 0 0)
(0 0 0)
(0 0 0)
(0 0 0)
(0 0 0)
(0 0 0)
(0 0 0)
(0 0 0)
(0 0 0)
(0 0 0)
(0 0 0)
(0 0 0)
(0 0 0)
(0 0 0)
(0 0 0)
(0 0 0)
(0 0 0)
(0 0 0)
(0 0 0)
(0 0 0)
(0 0 0)
(0 0 0)
(0 0 0)
(0 0 0)
(0 0 0)
(0 0 0)
(0 0 0)
(0 0 0)
(0 0 0)
(0 0 0)
(0 0 0)
(0 0 0)
(0 0 0)
(0 0 0)
(0 0 0)
(0 0 0)
(0 0 0)
(0 0 0)
(0 0 0)
(0 0 0)
(0 0 0)
(0 0 0)
(0 0 0)
(0 0 0)
(0 0 0)
(0 0 0)
(0 0 0)
(0 0 0)
(0 0 0)
(0 0 0)
(0 0 0)
(0 0 0)
(0 0 0)
(0 0 0)
(0 0 0)
(0 0 0)
(0 0 0)
(0 0 0)
(0 0 0)
(0 0 0)
(0 0 0)
(0 0 0)
(0 0 0)
(0 0 0)
(0 0 0)
(0 0 0)
(0 0 0)
(0 0 0)
(0 0 0)
(0 0 0)
(0 0 0)
(0 0 0)
(0 0 0)
(0 0 0)
(0 0 0)
(0 0 0)
(0 0 0)
(0 0 0)
(0 0 0)
(0 0 0)
(0 0 0)
(0 0 0)
(0 0 0)
(0 0 0)
(0 0 0)
(0 0 0)
(0 0 0)
(0 0 0)
(0 0 0)
(0 0 0)
(0 0 0)
(0 0 0)
(0 0 0)
(0 0 0)
(0 0 0)
(0 0 0)
(0 0 0)
(0 0 0)
(0 0 0)
(0 0 0)
(0 0 0)
(0 0 0)
(0 0 0)
(0 0 0)
(0 0 0)
(0 0 0)
(0 0 0)
(0 0 0)
(0 0 0)
(0 0 0)
(0 0 0)
(0 0 0)
(0 0 0)
(0 0 0)
(0 0 0)
(0 0 0)
(0 0 0)
(0 0 0)
(0 0 0)
(0 0 0)
(0 0 0)
(0 0 0)
(0 0 0)
(0 0 0)
(0 0 0)
(0 0 0)
(0 0 0)
(0 0 0)
(0 0 0)
(0 0 0)
(0 0 0)
(0 0 0)
(0 0 0)
(0 0 0)
(0 0 0)
(0 0 0)
(0 0 0)
(0 0 0)
(0 0 0)
(0 0 0)
(0 0 0)
(0 0 0)
(0 0 0)
(0 0 0)
(0 0 0)
(0 0 0)
(0 0 0)
(0 0 0)
(0 0 0)
(0 0 0)
(0 0 0)
(0 0 0)
(0 0 0)
(0 0 0)
(0 0 0)
(0 0 0)
(0 0 0)
(0 0 0)
(0 0 0)
(0 0 0)
(0 0 0)
(0 0 0)
(0 0 0)
(0 0 0)
(0 0 0)
(0 0 0)
(0 0 0)
(0 0 0)
(0 0 0)
(0 0 0)
(0 0 0)
(0 0 0)
(0 0 0)
(0 0 0)
(0 0 0)
(0 0 0)
(0 0 0)
(0 0 0)
(0 0 0)
(0 0 0)
(0 0 0)
(0 0 0)
(0 0 0)
(0 0 0)
(0 0 0)
(0 0 0)
(0 0 0)
(0 0 0)
(0 0 0)
(0 0 0)
(0 0 0)
(0 0 0)
(0 0 0)
(0 0 0)
(0 0 0)
(0 0 0)
(0 0 0)
(0 0 0)
(0 0 0)
(0 0 0)
(0 0 0)
(0 0 0)
(0 0 0)
(0 0 0)
(0 0 0)
(0 0 0)
(0 0 0)
(0 0 0)
(0 0 0)
(0 0 0)
(0 0 0)
(0 0 0)
(0 0 0)
(0 0 0)
(0 0 0)
(0 0 0)
(0 0 0)
(0 0 0)
(0 0 0)
(0 0 0)
(0 0 0)
(0 0 0)
(0 0 0)
(0 0 0)
(0 0 0)
(0 0 0)
(0 0 0)
(0 0 0)
(0 0 0)
(0 0 0)
(0 0 0)
(0 0 0)
(0 0 0)
(0 0 0)
(0 0 0)
(0 0 0)
(0 0 0)
(0 0 0)
(0 0 0)
(0 0 0)
(0 0 0)
(0 0 0)
(0 0 0)
(0 0 0)
(0 0 0)
(0 0 0)
(0 0 0)
(0 0 0)
(0 0 0)
(0 0 0)
(0 0 0)
(0 0 0)
(0 0 0)
(0 0 0)
(0 0 0)
(0 0 0)
(0 0 0)
(0 0 0)
(0 0 0)
(0 0 0)
(0 0 0)
(0 0 0)
(0 0 0)
(0 0 0)
(0 0 0)
(0 0 0)
(0 0 0)
(0 0 0)
(0 0 0)
(0 0 0)
(0 0 0)
(0 0 0)
(0 0 0)
(0 0 0)
(0 0 0)
(0 0 0)
(0 0 0)
(0 0 0)
(0 0 0)
(0 0 0)
(0 0 0)
(0 0 0)
(0 0 0)
(0 0 0)
(0 0 0)
(0 0 0)
(0 0 0)
(0 0 0)
(0 0 0)
(0 0 0)
(0 0 0)
(0 0 0)
(0 0 0)
(0 0 0)
(0 0 0)
(0 0 0)
(0 0 0)
(0 0 0)
(0 0 0)
(0 0 0)
(0 0 0)
(0 0 0)
(0 0 0)
(0 0 0)
(0 0 0)
(0 0 0)
(0 0 0)
(0 0 0)
(0 0 0)
(0 0 0)
(0 0 0)
(0 0 0)
(0 0 0)
(0 0 0)
(0 0 0)
(0 0 0)
(0 0 0)
(0 0 0)
(0 0 0)
(0 0 0)
(0 0 0)
(0 0 0)
(0 0 0)
(0 0 0)
(0 0 0)
(0 0 0)
(0 0 0)
(0 0 0)
(0 0 0)
(0 0 0)
(0 0 0)
(0 0 0)
(0 0 0)
(0 0 0)
(0 0 0)
(0 0 0)
(0 0 0)
(0 0 0)
(0 0 0)
(0 0 0)
(0 0 0)
(0 0 0)
(0 0 0)
(0 0 0)
(0 0 0)
(0 0 0)
(0 0 0)
(0 0 0)
(0 0 0)
(0 0 0)
(0 0 0)
(0 0 0)
(0 0 0)
(0 0 0)
(0 0 0)
(0 0 0)
(0 0 0)
(0 0 0)
(0 0 0)
(0 0 0)
(0 0 0)
(0 0 0)
(0 0 0)
(0 0 0)
(0 0 0)
(0 0 0)
(0 0 0)
(0 0 0)
(0 0 0)
(0 0 0)
(0 0 0)
(0 0 0)
(0 0 0)
(0 0 0)
(0 0 0)
(0 0 0)
(0 0 0)
(0 0 0)
(0 0 0)
(0 0 0)
(0 0 0)
(0 0 0)
(0 0 0)
(0 0 0)
(0 0 0)
(0 0 0)
(0 0 0)
(0 0 0)
(0 0 0)
(0 0 0)
(0 0 0)
(0 0 0)
(0 0 0)
(0 0 0)
(0 0 0)
(0 0 0)
(0 0 0)
(0 0 0)
(0 0 0)
(0 0 0)
(0 0 0)
(0 0 0)
(0 0 0)
(0 0 0)
(0 0 0)
(0 0 0)
(0 0 0)
(0 0 0)
(0 0 0)
(0 0 0)
(0 0 0)
(0 0 0)
(0 0 0)
(0 0 0)
(0 0 0)
(0 0 0)
(0 0 0)
(0 0 0)
(0 0 0)
(0 0 0)
(0 0 0)
(0 0 0)
(0 0 0)
(0 0 0)
(0 0 0)
(0 0 0)
(0 0 0)
(0 0 0)
(0 0 0)
(0 0 0)
(0 0 0)
(0 0 0)
(0 0 0)
(0 0 0)
(0 0 0)
(0 0 0)
(0 0 0)
(0 0 0)
(0 0 0)
(0 0 0)
(0 0 0)
(0 0 0)
(0 0 0)
(0 0 0)
(0 0 0)
(0 0 0)
(0 0 0)
(0 0 0)
(0 0 0)
(0 0 0)
(0 0 0)
(0 0 0)
(0 0 0)
(0 0 0)
(0 0 0)
(0 0 0)
(0 0 0)
(0 0 0)
(0 0 0)
(0 0 0)
(0 0 0)
(0 0 0)
(0 0 0)
(0 0 0)
(0 0 0)
(0 0 0)
(0 0 0)
(0 0 0)
(0 0 0)
(0 0 0)
(0 0 0)
(0 0 0)
(0 0 0)
(0 0 0)
(0 0 0)
(0 0 0)
(0 0 0)
(0 0 0)
(0 0 0)
(0 0 0)
(0 0 0)
(0 0 0)
(0 0 0)
(0 0 0)
(0 0 0)
(0 0 0)
(0 0 0)
(0 0 0)
(0 0 0)
(0 0 0)
(0 0 0)
(0 0 0)
(0 0 0)
(0 0 0)
(0 0 0)
(0 0 0)
(0 0 0)
(0 0 0)
(0 0 0)
(0 0 0)
(0 0 0)
(0 0 0)
(0 0 0)
(0 0 0)
(0 0 0)
(0 0 0)
(0 0 0)
(0 0 0)
(0 0 0)
(0 0 0)
(0 0 0)
(0 0 0)
(0 0 0)
(0 0 0)
(0 0 0)
(0 0 0)
(0 0 0)
(0 0 0)
(0 0 0)
(0 0 0)
(0 0 0)
(0 0 0)
(0 0 0)
(0 0 0)
(0 0 0)
(0 0 0)
(0 0 0)
(0 0 0)
(0 0 0)
(0 0 0)
(0 0 0)
(0 0 0)
(0 0 0)
(0 0 0)
(0 0 0)
(0 0 0)
(0 0 0)
(0 0 0)
(0 0 0)
(0 0 0)
(0 0 0)
(0 0 0)
(0 0 0)
(0 0 0)
(0 0 0)
(0 0 0)
(0 0 0)
(0 0 0)
(0 0 0)
(0 0 0)
(0 0 0)
(0 0 0)
(0 0 0)
(0 0 0)
(0 0 0)
(0 0 0)
(0 0 0)
(0 0 0)
(0 0 0)
(0 0 0)
(0 0 0)
(0 0 0)
(0 0 0)
(0 0 0)
(0 0 0)
(0 0 0)
(0 0 0)
(0 0 0)
(0 0 0)
(0 0 0)
(0 0 0)
(0 0 0)
(0 0 0)
(0 0 0)
(0 0 0)
(0 0 0)
(0 0 0)
(0 0 0)
(0 0 0)
(0 0 0)
(0 0 0)
(0 0 0)
(0 0 0)
(0 0 0)
(0 0 0)
(0 0 0)
(0 0 0)
(0 0 0)
(0 0 0)
(0 0 0)
(0 0 0)
(0 0 0)
(0 0 0)
(0 0 0)
(0 0 0)
(0 0 0)
(0 0 0)
(0 0 0)
(0 0 0)
(0 0 0)
(0 0 0)
(0 0 0)
(0 0 0)
(0 0 0)
(0 0 0)
(0 0 0)
(0 0 0)
(0 0 0)
(0 0 0)
(0 0 0)
(0 0 0)
(0 0 0)
(0 0 0)
(0 0 0)
(0 0 0)
(0 0 0)
(0 0 0)
(0 0 0)
(0 0 0)
(0 0 0)
(0 0 0)
(0 0 0)
(0 0 0)
(0 0 0)
(0 0 0)
(0 0 0)
(0 0 0)
(0 0 0)
(0 0 0)
(0 0 0)
(0 0 0)
(0 0 0)
(0 0 0)
(0 0 0)
(0 0 0)
(0 0 0)
(0 0 0)
(0 0 0)
(0 0 0)
(0 0 0)
(0 0 0)
(0 0 0)
(0 0 0)
(0 0 0)
(0 0 0)
(0 0 0)
(0 0 0)
(0 0 0)
(0 0 0)
(0 0 0)
(0 0 0)
(0 0 0)
(0 0 0)
(0 0 0)
(0 0 0)
(0 0 0)
(0 0 0)
(0 0 0)
(0 0 0)
(0 0 0)
(0 0 0)
(0 0 0)
(0 0 0)
(0 0 0)
(0 0 0)
(0 0 0)
(0 0 0)
(0 0 0)
(0 0 0)