/*--------------------------------*- C++ -*----------------------------------*\
| =========                 |                                                 |
| \\      /  F ield         | OpenFOAM: The Open Source CFD Toolbox           |
|  \\    /   O peration     | Version:  v2106                                 |
|   \\  /    A nd           | Website:  www.openfoam.com                      |
|    \\/     M anipulation  |                                                 |
\*---------------------------------------------------------------------------*/
FoamFile
{
    version     2.0;
    format      ascii;
    arch        "LSB;label=32;scalar=64";
    class       volVectorField;
    location    "0";
    object      U;
}
// * * * * * * * * * * * * * * * * * * * * * * * * * * * * * * * * * * * * * //

dimensions      [0 1 -1 0 0 0 0];

internalField   nonuniform List<vector> 
11644
(
(0.996851 -0.000247361 4.5026e-24)
(0.996736 -0.000661533 1.24169e-23)
(0.996662 -0.000986126 6.66195e-24)
(0.996642 -0.00131901 0)
(0.996638 -0.00167726 0)
(0.996637 -0.00206058 0)
(0.996634 -0.00246465 0)
(0.996632 -0.00288361 0)
(0.996628 -0.00330901 0)
(0.996629 -0.00372514 0)
(0.99662 -0.0041143 0)
(0.996582 -0.00446702 0)
(0.99662 -0.00472783 0)
(0.996798 -0.00488831 0)
(0.996666 -0.00494733 0)
(0.996631 -0.00485943 0)
(0.996584 -0.00460524 0)
(0.996563 -0.0042151 0)
(0.996708 -0.00382488 0)
(0.996729 -0.00337659 3.39745e-30)
(0.996449 -0.00268987 -3.39198e-30)
(0.996075 -0.00162698 0)
(0.995969 -0.00036932 0)
(0.996231 0.000669947 0)
(0.996503 0.00130346 0)
(0.996575 0.00174783 0)
(0.996747 0.00215685 0)
(0.996628 0.00236712 0)
(0.996584 0.00248639 0)
(0.996603 0.00249494 0)
(0.996613 0.00241725 0)
(0.99662 0.00227117 0)
(0.99662 0.0020762 0)
(0.996621 0.00184633 0)
(0.996623 0.00159505 0)
(0.996627 0.00133625 0)
(0.996634 0.00107389 0)
(0.996652 0.000816763 0)
(0.996713 0.000560779 0)
(0.996818 0.0002151 8.73008e-25)
(0.997695 -0.000493032 5.78356e-24)
(0.997627 -0.00149965 5.35743e-24)
(0.997587 -0.00253913 2.87731e-24)
(0.997602 -0.00359337 0)
(0.997652 -0.00468303 0)
(0.997718 -0.00582538 0)
(0.997787 -0.00702723 0)
(0.997848 -0.00827921 0)
(0.997889 -0.00956235 0)
(0.997895 -0.010842 0)
(0.997832 -0.0120721 0)
(0.997755 -0.0131575 0)
(0.997525 -0.0140614 0)
(0.996971 -0.0147073 0)
(0.996677 -0.0148715 0)
(0.996119 -0.0146331 3.19878e-24)
(0.9956 -0.013944 2.50302e-24)
(0.995351 -0.0129043 -3.6102e-23)
(0.994878 -0.0112525 -8.62085e-23)
(0.994221 -0.00885791 -3.40121e-22)
(0.993676 -0.00594361 5.22973e-22)
(0.993513 -0.00297119 -1.19524e-22)
(0.993826 -0.000323461 6.02807e-23)
(0.994373 0.00196391 -3.79379e-24)
(0.994932 0.00399956 -3.14832e-24)
(0.995447 0.00563272 0)
(0.995655 0.0067365 0)
(0.996229 0.00744602 0)
(0.996634 0.0077278 0)
(0.996878 0.00767949 0)
(0.997048 0.00737616 0)
(0.997183 0.00687473 0)
(0.997277 0.00623521 0)
(0.997333 0.00550377 0)
(0.997364 0.00471489 0)
(0.997377 0.00389295 0)
(0.997385 0.00305626 0)
(0.997409 0.002203 0)
(0.997473 0.0013268 0)
(0.997555 0.000441137 0)
(0.999349 -0.000749601 0)
(0.999337 -0.00230682 0)
(0.999383 -0.00393725 0)
(0.999493 -0.00563762 0)
(0.999656 -0.00741059 5.28318e-24)
(0.999851 -0.00927812 0)
(1.00006 -0.0112482 0)
(1.00024 -0.0133148 0)
(1.00038 -0.015452 0)
(1.0004 -0.017621 0)
(1.00031 -0.0197119 0)
(0.999895 -0.0216816 0)
(0.999199 -0.0233124 2.81189e-24)
(0.998487 -0.0243951 -1.47087e-23)
(0.996968 -0.0249563 7.01746e-23)
(0.995556 -0.0247126 1.55275e-22)
(0.994185 -0.0236496 -6.41454e-22)
(0.992309 -0.021308 7.59481e-22)
(0.990412 -0.0176185 -1.85149e-22)
(0.988908 -0.0129805 -1.21785e-21)
(0.988224 -0.00798942 1.40522e-21)
(0.988445 -0.00308205 -5.08466e-22)
(0.98941 0.00132203 -3.66767e-22)
(0.990628 0.00518753 1.87296e-22)
(0.991938 0.00853835 3.9935e-22)
(0.99329 0.0111074 -8.3885e-23)
(0.994953 0.0128887 3.71541e-23)
(0.995872 0.0137903 -4.04991e-24)
(0.996713 0.0140409 0)
(0.997471 0.0137212 0)
(0.998057 0.0129775 0)
(0.998427 0.0119534 0)
(0.998667 0.0107338 0)
(0.998808 0.00939248 0)
(0.99888 0.00798415 0)
(0.998909 0.0065414 0)
(0.99892 0.00508437 0)
(0.998942 0.00361403 0)
(0.998991 0.002137 0)
(0.999055 0.000697969 0)
(1.00177 -0.00100528 0)
(1.00181 -0.00304793 0)
(1.00195 -0.0051938 0)
(1.00219 -0.00742981 0)
(1.00253 -0.00979003 0)
(1.00292 -0.0123004 0)
(1.00333 -0.0149768 0)
(1.00372 -0.0178198 0)
(1.00401 -0.0208156 0)
(1.00413 -0.023887 0)
(1.00387 -0.0270165 -2.81908e-26)
(1.00327 -0.0299759 3.27999e-23)
(1.00208 -0.0325971 -2.03611e-22)
(0.999917 -0.034719 -1.79993e-22)
(0.997798 -0.0355552 1.09244e-22)
(0.994674 -0.0352129 7.57143e-22)
(0.990756 -0.0330557 -2.76443e-22)
(0.986584 -0.0289622 -2.0807e-21)
(0.983068 -0.0230824 1.92733e-21)
(0.980554 -0.0162349 3.47666e-22)
(0.979482 -0.00891439 1.99112e-22)
(0.979951 -0.00150195 -6.56628e-22)
(0.981917 0.00537832 3.57227e-22)
(0.984454 0.0112096 -6.56038e-22)
(0.987245 0.0158731 4.57771e-23)
(0.990257 0.0192301 -7.76323e-23)
(0.992678 0.0212791 2.31178e-22)
(0.995581 0.0220604 5.06196e-23)
(0.997582 0.0218732 7.30493e-23)
(0.998942 0.0209586 4.19388e-25)
(0.999873 0.0195021 0)
(1.00055 0.0176783 0)
(1.00095 0.0156707 0)
(1.00117 0.0135649 0)
(1.00127 0.0114257 0)
(1.00129 0.00928847 0)
(1.00128 0.00717102 0)
(1.00128 0.00507691 0)
(1.00131 0.00301342 0)
(1.00136 0.000992363 0)
(1.00482 -0.00119996 0)
(1.00492 -0.00366595 0)
(1.00518 -0.00621401 0)
(1.0056 -0.00889075 0)
(1.00615 -0.0117471 0)
(1.0068 -0.0148127 0)
(1.00751 -0.0181229 0)
(1.00819 -0.0216995 0)
(1.00876 -0.0255368 0)
(1.009 -0.02966 9.16828e-24)
(1.00892 -0.0339682 1.73485e-22)
(1.00821 -0.0383425 -1.06943e-22)
(1.00647 -0.0424086 5.26501e-22)
(1.00412 -0.0453982 -2.87911e-21)
(0.999045 -0.0473571 2.53004e-21)
(0.993341 -0.0468747 2.75998e-22)
(0.986753 -0.0440963 -4.73163e-22)
(0.978622 -0.0383145 -2.18251e-21)
(0.972266 -0.029739 4.57609e-21)
(0.967852 -0.0189981 -3.37151e-21)
(0.966341 -0.00725945 2.56375e-21)
(0.967835 0.00406165 -5.54166e-21)
(0.971635 0.0139545 3.94895e-21)
(0.97639 0.0216687 5.47473e-22)
(0.981495 0.0273525 -6.95641e-22)
(0.986892 0.0310454 -2.59988e-21)
(0.992279 0.0326149 3.45763e-21)
(0.995761 0.0328069 -8.23179e-22)
(0.998955 0.0316946 2.95272e-22)
(1.00144 0.0296443 -2.38658e-22)
(1.00298 0.027048 1.13251e-23)
(1.00384 0.0241384 0)
(1.00435 0.0210844 0)
(1.00457 0.0180398 0)
(1.00463 0.0150512 0)
(1.00459 0.0121469 0)
(1.00452 0.00932912 0)
(1.00446 0.00659304 0)
(1.00444 0.00390562 0)
(1.00447 0.0012959 0)
(1.00834 -0.00138618 0)
(1.00851 -0.00417059 0)
(1.00892 -0.00704808 0)
(1.00955 -0.0100724 0)
(1.01039 -0.013299 0)
(1.01138 -0.0168073 0)
(1.01248 -0.0206519 0)
(1.01359 -0.0248859 0)
(1.01459 -0.0295856 8.93985e-24)
(1.01544 -0.0348245 -2.63462e-24)
(1.01595 -0.0405936 3.0486e-22)
(1.01551 -0.0467032 2.80503e-22)
(1.0134 -0.0526908 -8.4163e-22)
(1.00818 -0.0587712 -2.88361e-22)
(1.00151 -0.0614269 -1.32671e-21)
(0.990963 -0.0612838 3.31504e-21)
(0.978472 -0.0584545 6.45589e-22)
(0.965639 -0.0506655 -2.48387e-21)
(0.954885 -0.0372251 -5.10624e-22)
(0.948095 -0.0209056 3.07528e-21)
(0.946045 -0.00325876 -2.29272e-21)
(0.949312 0.0138988 -1.94395e-21)
(0.956573 0.0285912 4.27288e-21)
(0.966014 0.0387812 -2.14759e-21)
(0.975969 0.0445115 -2.07408e-21)
(0.984547 0.0476766 1.45975e-21)
(0.991085 0.0484138 4.55979e-22)
(0.997972 0.0461083 -7.6191e-22)
(1.00223 0.0431538 5.41693e-22)
(1.00538 0.0395782 1.328e-22)
(1.0076 0.0354721 2.08018e-22)
(1.00873 0.0311489 -3.40945e-23)
(1.00915 0.0268492 0)
(1.00924 0.0226842 0)
(1.00912 0.0187315 0)
(1.00892 0.0149849 0)
(1.00869 0.0114306 0)
(1.0085 0.00803827 0)
(1.00838 0.00477187 0)
(1.00837 0.00156304 0)
(1.01219 -0.00145378 0)
(1.01245 -0.00445986 0)
(1.01303 -0.00756737 0)
(1.01392 -0.010838 0)
(1.01508 -0.0143574 0)
(1.0165 -0.0182062 0)
(1.01811 -0.0224677 0)
(1.01984 -0.02726 3.13335e-25)
(1.02177 -0.032831 -6.50305e-23)
(1.02377 -0.0393729 2.44046e-22)
(1.02514 -0.0469495 -4.77321e-22)
(1.02511 -0.0554422 4.50667e-22)
(1.02265 -0.064767 1.20803e-22)
(1.01839 -0.0719907 1.95629e-22)
(1.0064 -0.0805327 -7.50932e-22)
(0.991335 -0.0833671 1.00823e-21)
(0.977118 -0.0742468 -1.1572e-21)
(0.959284 -0.0664209 2.43644e-21)
(0.9419 -0.0507378 1.71773e-21)
(0.929692 -0.0280114 5.88552e-21)
(0.925507 -0.00173978 3.27988e-21)
(0.930242 0.0228428 -2.39565e-21)
(0.940822 0.042337 1.52797e-21)
(0.954883 0.055412 1.88353e-21)
(0.971115 0.0705903 -6.35848e-22)
(0.985301 0.071087 5.11049e-22)
(0.997104 0.0670325 6.74173e-22)
(1.00293 0.0623744 -2.38765e-22)
(1.00802 0.0563216 -8.87664e-23)
(1.01157 0.05018 -3.42929e-22)
(1.01402 0.0441884 1.18791e-22)
(1.01531 0.0382776 -6.80706e-23)
(1.01562 0.0325758 2.55353e-24)
(1.01532 0.027195 0)
(1.01483 0.0222225 0)
(1.01428 0.0176396 0)
(1.01376 0.0133887 0)
(1.01335 0.00938084 0)
(1.01307 0.0055635 0)
(1.01297 0.0018519 0)
(1.01624 -0.0015723 0)
(1.01659 -0.00464113 0)
(1.01736 -0.00783592 0)
(1.01852 -0.0111958 0)
(1.02008 -0.0148465 0)
(1.022 -0.0188657 0)
(1.02424 -0.0233858 0)
(1.02694 -0.0286472 -2.43575e-23)
(1.03044 -0.0350625 -1.81003e-23)
(1.03397 -0.0429665 2.02642e-22)
(1.03675 -0.0523802 2.56174e-22)
(1.03802 -0.0631158 -4.14611e-22)
(1.03719 -0.0745349 -3.31457e-22)
(1.02715 -0.0865965 1.39816e-22)
(1.0179 -0.0933709 2.60311e-22)
(1.00238 -0.101112 -1.14535e-23)
(0.974759 -0.105499 -1.40899e-21)
(0.943708 -0.0980783 2.031e-21)
(0.911388 -0.0779821 3.6113e-21)
(0.88726 -0.0422215 -8.26156e-22)
(0.879174 0.00261399 2.64858e-21)
(0.890212 0.0445331 -2.01272e-21)
(0.913013 0.0747966 2.77598e-22)
(0.940448 0.0906674 -2.02989e-22)
(0.964695 0.0965369 -1.429e-21)
(0.985814 0.0927261 1.33185e-21)
(0.999809 0.0852243 -3.83767e-22)
(1.01336 0.079158 -5.83522e-22)
(1.01815 0.0694885 3.33526e-22)
(1.02096 0.0604148 -1.40596e-22)
(1.02279 0.0521766 -1.63352e-22)
(1.02366 0.0446479 4.09344e-23)
(1.02375 0.0376042 6.82658e-23)
(1.02289 0.0310788 0)
(1.02173 0.0251411 0)
(1.02062 0.019796 0)
(1.01966 0.0149184 0)
(1.0189 0.0104273 0)
(1.01839 0.00611622 0)
(1.01817 0.00203533 0)
(1.02034 -0.00145648 0)
(1.02077 -0.00456451 0)
(1.02172 -0.00773926 0)
(1.02319 -0.0111131 0)
(1.02517 -0.0147509 0)
(1.02765 -0.0187846 0)
(1.03067 -0.0233758 2.16511e-24)
(1.03484 -0.0289394 2.43704e-23)
(1.0403 -0.0360249 -2.21255e-23)
(1.04575 -0.0448501 5.66734e-23)
(1.05067 -0.0555059 3.904e-23)
(1.05445 -0.0684378 2.20396e-23)
(1.05593 -0.0858547 3.84337e-23)
(1.04562 -0.101295 -1.02194e-22)
(1.03639 -0.115844 9.71756e-23)
(1.01696 -0.134417 -9.22398e-22)
(0.985129 -0.144453 -2.29013e-22)
(0.937184 -0.149311 -6.72667e-22)
(0.878443 -0.128357 -1.4188e-21)
(0.827387 -0.0756096 4.2314e-22)
(0.807474 0.00281135 -1.04591e-21)
(0.828831 0.0757332 -4.23584e-21)
(0.875264 0.122188 2.99136e-21)
(0.924868 0.139977 -1.25312e-21)
(0.965775 0.137809 -6.28503e-22)
(0.996893 0.12914 1.28684e-23)
(1.01316 0.112848 -2.13529e-22)
(1.02975 0.0974924 -1.50825e-22)
(1.03296 0.0819223 5.50492e-22)
(1.03394 0.0691289 -1.10345e-22)
(1.03425 0.0583188 -4.35527e-22)
(1.03394 0.0491735 7.00754e-23)
(1.03328 0.0410744 6.65317e-23)
(1.03179 0.0336547 1.37513e-23)
(1.02968 0.0269842 0)
(1.02776 0.0210619 0)
(1.02617 0.0157565 0)
(1.02496 0.0109056 0)
(1.02415 0.00647348 0)
(1.02378 0.00207377 0)
(1.02432 -0.00147812 0)
(1.02485 -0.00440415 0)
(1.02599 -0.00740779 0)
(1.02774 -0.0106088 0)
(1.03014 -0.014054 0)
(1.03321 -0.0178902 0)
(1.03721 -0.0223142 -2.91173e-23)
(1.04322 -0.0278572 1.06594e-22)
(1.05071 -0.0350024 3.01085e-23)
(1.05845 -0.0439119 -9.96763e-24)
(1.06626 -0.0548099 -2.17923e-22)
(1.07405 -0.0686404 2.42989e-22)
(1.08107 -0.0883486 -1.23276e-22)
(1.07672 -0.11016 -1.01688e-22)
(1.07151 -0.134594 -7.37296e-24)
(1.05015 -0.170049 5.21959e-23)
(1.01511 -0.201302 4.04764e-22)
(0.950526 -0.236071 -1.09138e-21)
(0.842163 -0.242608 4.84396e-22)
(0.712789 -0.168971 -2.93049e-22)
(0.650539 -0.00506934 5.96072e-22)
(0.711395 0.153588 -1.64778e-21)
(0.82876 0.223603 4.72816e-22)
(0.923929 0.223706 -4.30533e-22)
(0.988804 0.19969 3.06192e-23)
(1.02847 0.168576 -3.32044e-22)
(1.04144 0.137716 -7.2462e-23)
(1.05476 0.112078 -1.92825e-22)
(1.05345 0.0907074 1.45298e-22)
(1.05083 0.0744076 -1.03219e-22)
(1.04838 0.0615483 3.10039e-23)
(1.04596 0.0510084 4.84752e-23)
(1.04387 0.0421738 3.96358e-23)
(1.04154 0.0343728 -2.81774e-23)
(1.03835 0.0273847 0)
(1.03542 0.0212767 0)
(1.03306 0.0159034 0)
(1.03127 0.0110203 0)
(1.03008 0.00644529 0)
(1.02952 0.00220984 0)
(1.0281 -0.00141074 0)
(1.0287 -0.0040558 0)
(1.03002 -0.00687999 0)
(1.03203 -0.00973787 0)
(1.03479 -0.0128283 0)
(1.03839 -0.0162078 0)
(1.04355 -0.0201717 -2.93309e-24)
(1.05136 -0.0251981 7.89929e-24)
(1.06066 -0.0314436 2.62981e-23)
(1.0708 -0.0390715 8.31401e-23)
(1.08211 -0.0487259 -8.93087e-23)
(1.09504 -0.0612249 1.67488e-24)
(1.10883 -0.0774582 -3.93767e-23)
(1.11528 -0.104715 3.43525e-22)
(1.12379 -0.137904 1.80192e-22)
(1.12375 -0.18904 -1.60257e-22)
(1.1062 -0.259465 -2.45296e-24)
(1.05124 -0.3703 8.23633e-23)
(0.878195 -0.498695 -1.09315e-21)
(0.487042 -0.493663 -4.88415e-20)
(0.187046 -0.0099954 -2.23207e-21)
(0.491507 0.447175 -2.95184e-20)
(0.8415 0.452693 1.85389e-21)
(0.998826 0.346529 -1.06277e-22)
(1.05918 0.259729 1.90843e-24)
(1.08366 0.195693 -8.98473e-25)
(1.08336 0.153031 -8.71252e-23)
(1.08687 0.114476 1.79707e-22)
(1.07888 0.0920479 -1.30825e-22)
(1.07124 0.0745951 -8.2598e-23)
(1.06469 0.0605479 3.24144e-23)
(1.0592 0.0492633 5.2961e-23)
(1.05497 0.0402228 -1.68404e-23)
(1.05145 0.0326077 3.22295e-24)
(1.04714 0.0258423 0)
(1.04305 0.0199328 0)
(1.03981 0.0147841 0)
(1.03742 0.0102306 0)
(1.03583 0.0059794 0)
(1.03507 0.00191812 0)
(1.03156 -0.00103873 0)
(1.0322 -0.00353178 0)
(1.0336 -0.00590503 0)
(1.03581 -0.00844518 0)
(1.03889 -0.0111126 0)
(1.04296 -0.0139096 0)
(1.04917 -0.0170938 1.55368e-24)
(1.05828 -0.0209496 6.6562e-24)
(1.06887 -0.025312 1.11105e-23)
(1.08087 -0.0302115 -7.3162e-24)
(1.09527 -0.0363055 4.58702e-23)
(1.11318 -0.0440904 1.89633e-23)
(1.13538 -0.0542143 -1.21678e-22)
(1.1502 -0.0792464 9.98612e-23)
(1.18264 -0.107606 2.40157e-23)
(1.21236 -0.160813 -4.73773e-23)
(1.25332 -0.243611 7.6348e-24)
(1.31457 -0.401298 1.82603e-21)
(1.03125 -0.566484 -1.20174e-19)
(0.988877 0.510372 2.2911e-20)
(1.20023 0.389257 -4.30683e-23)
(1.16986 0.262899 8.67302e-23)
(1.15262 0.187613 8.28855e-23)
(1.13349 0.149679 6.20942e-23)
(1.12201 0.104896 -1.06512e-24)
(1.10688 0.0848942 9.69869e-25)
(1.09338 0.0680375 3.13207e-25)
(1.08193 0.0542594 -4.57981e-24)
(1.07283 0.0434741 -8.12847e-24)
(1.06596 0.0350492 -1.77614e-24)
(1.06084 0.028209 1.63618e-24)
(1.05542 0.0222985 0)
(1.05018 0.0171562 0)
(1.04608 0.0127114 0)
(1.04307 0.00877069 0)
(1.04113 0.00521252 0)
(1.04016 0.00174271 0)
(1.03458 -0.00110275 0)
(1.03532 -0.00308894 0)
(1.03683 -0.0050988 0)
(1.03918 -0.00717812 0)
(1.04242 -0.00923812 0)
(1.04671 -0.0112909 0)
(1.05344 -0.0134126 -2.27522e-24)
(1.06304 -0.0155657 2.3148e-24)
(1.07391 -0.0172729 -5.1873e-24)
(1.08665 -0.0184411 1.63792e-23)
(1.10212 -0.0193721 -1.90755e-24)
(1.12211 -0.0200383 2.01483e-23)
(1.14826 -0.0195664 1.34749e-22)
(1.17524 -0.0349649 -2.8232e-22)
(1.22237 -0.0446519 7.41059e-22)
(1.27698 -0.0741635 -1.73864e-23)
(1.36373 -0.11396 2.31955e-22)
(1.50884 -0.159483 2.98715e-21)
(0.0251095 -0.0185227 5.87162e-19)
(0.02737 -0.0258828 -1.00654e-19)
(1.3266 0.254513 -1.6125e-22)
(1.25746 0.202668 -2.93301e-23)
(1.21223 0.151753 1.93575e-22)
(1.17915 0.122896 4.65446e-22)
(1.15516 0.0844566 4.03849e-23)
(1.13316 0.068239 -7.88871e-24)
(1.11414 0.054152 -5.9105e-24)
(1.09819 0.042626 1.07283e-24)
(1.08554 0.0336222 -4.19257e-24)
(1.07592 0.0266647 4.06224e-24)
(1.06896 0.0212325 6.12875e-24)
(1.06245 0.0167608 0)
(1.05623 0.0129187 0)
(1.05139 0.00960348 0)
(1.04779 0.00659378 0)
(1.04539 0.00382529 0)
(1.04415 0.00117409 0)
(1.03722 -0.000954297 -3.69648e-25)
(1.03798 -0.00254167 0)
(1.03957 -0.0042609 0)
(1.04194 -0.00579987 0)
(1.04517 -0.00728715 0)
(1.04942 -0.00862848 0)
(1.05603 -0.00969829 -1.18188e-23)
(1.06499 -0.00993137 -4.70694e-24)
(1.07479 -0.00890592 3.42096e-23)
(1.08643 -0.00633941 1.29719e-22)
(1.10113 -0.00176472 2.76207e-22)
(1.11983 0.00544726 -7.96207e-22)
(1.14486 0.0180811 2.79441e-22)
(1.17648 0.0175282 9.59108e-22)
(1.22338 0.0295413 1.8011e-22)
(1.2852 0.0316443 -8.46903e-22)
(1.37369 0.0387917 1.06341e-21)
(1.46463 0.0660374 -4.23416e-22)
(0.275456 0.0110657 -5.07426e-21)
(0.025316 -0.0171345 7.46568e-21)
(1.23674 0.119236 -1.09649e-22)
(1.29178 0.131514 -3.05499e-22)
(1.24806 0.104714 -2.17407e-22)
(1.21256 0.0848207 -8.32069e-23)
(1.18031 0.0544919 3.15519e-22)
(1.15378 0.0437444 -1.46195e-22)
(1.13094 0.0342107 -2.68684e-22)
(1.11163 0.0264548 9.65382e-23)
(1.09601 0.0203321 -6.95953e-23)
(1.08385 0.0155992 6.11709e-25)
(1.07498 0.01214 -9.46138e-24)
(1.06732 0.00956191 0)
(1.06043 0.00744909 0)
(1.05511 0.00560771 0)
(1.05125 0.00393883 0)
(1.04872 0.00238178 0)
(1.04758 0.000990227 0)
(1.03966 -0.000403484 -7.42989e-27)
(1.04027 -0.00184677 0)
(1.0417 -0.00305752 0)
(1.04397 -0.00427257 0)
(1.04712 -0.00540388 0)
(1.05118 -0.00631263 0)
(1.0568 -0.00651455 8.14987e-24)
(1.06401 -0.00521784 1.21297e-23)
(1.07173 -0.00202108 -8.04087e-23)
(1.08085 0.00361768 2.46178e-22)
(1.09179 0.0125543 -1.74966e-22)
(1.10453 0.0254335 -1.00009e-21)
(1.12132 0.0450968 6.8516e-22)
(1.14982 0.0624212 -1.83015e-22)
(1.18534 0.0919867 -2.76027e-21)
(1.23961 0.127014 -9.74918e-22)
(1.31853 0.173824 2.60616e-22)
(1.41029 0.240602 -2.65252e-21)
(0.689721 0.112714 2.19036e-22)
(0.211222 -0.198404 3.1048e-21)
(-0.161754 -0.250885 -2.3852e-23)
(-0.19909 -0.0163816 -2.41928e-23)
(0.0282948 0.00625493 -8.27424e-22)
(1.07878 0.0603335 -1.52518e-22)
(1.30509 0.0821903 -1.55181e-21)
(1.27033 0.0584945 1.02021e-21)
(1.23279 0.0425108 -2.83079e-21)
(1.19534 0.0188564 -6.59942e-22)
(1.16639 0.0139673 4.45033e-22)
(1.1413 0.00988983 -9.85846e-23)
(1.12009 0.00688421 5.13853e-24)
(1.10264 0.0044843 -2.55691e-23)
(1.08884 0.00271361 -1.21971e-23)
(1.07847 0.00165448 -7.6196e-24)
(1.0697 0.00134408 0)
(1.06242 0.00121935 0)
(1.0569 0.000992588 0)
(1.053 0.000697566 0)
(1.05056 0.000303316 0)
(1.04924 -0.000122637 0)
(1.04132 -0.000556614 5.83618e-23)
(1.04214 -0.0014623 0)
(1.04364 -0.00236633 0)
(1.04585 -0.0033252 0)
(1.04879 -0.00412173 0)
(1.05237 -0.00471 0)
(1.05622 -0.00448633 -1.06891e-24)
(1.06091 -0.00260386 -1.00083e-23)
(1.06565 0.00135929 -8.4143e-23)
(1.07036 0.00799304 1.95116e-22)
(1.07542 0.0173454 -1.00517e-22)
(1.08026 0.0308358 6.39735e-22)
(1.08489 0.0535762 -4.7934e-22)
(1.10321 0.0812202 1.24045e-21)
(1.11727 0.124317 1.19197e-21)
(1.13529 0.195562 -1.38911e-21)
(1.18335 0.283982 3.14745e-21)
(1.23289 0.449338 7.18741e-22)
(1.01128 0.592475 -3.68705e-21)
(0.363904 0.484115 7.20153e-20)
(-0.251123 0.451659 -9.87638e-22)
(-0.293009 0.393081 -2.51559e-21)
(0.282392 0.244693 2.68044e-21)
(1.08937 0.0865662 2.89482e-21)
(1.33932 0.0392982 6.69418e-22)
(1.29297 0.0027795 -2.56673e-21)
(1.24473 -0.00656719 3.20744e-21)
(1.19946 -0.0225047 -5.26558e-22)
(1.16881 -0.019371 1.86129e-22)
(1.14329 -0.0170534 1.40185e-22)
(1.12172 -0.0145087 1.61629e-23)
(1.10385 -0.0125785 -2.08622e-23)
(1.08972 -0.010979 9.2849e-24)
(1.07835 -0.00923075 -4.11055e-25)
(1.06899 -0.00704124 0)
(1.06184 -0.00514377 0)
(1.05648 -0.00371319 0)
(1.05265 -0.00254254 0)
(1.05011 -0.00144392 0)
(1.04872 -0.000436269 -1.03954e-23)
(1.04296 -0.000632982 -6.24596e-23)
(1.0437 -0.00129488 0)
(1.0452 -0.00202932 0)
(1.04729 -0.00269067 0)
(1.04991 -0.00326421 0)
(1.0528 -0.00376336 0)
(1.05505 -0.00373799 0)
(1.05671 -0.00221919 -1.53383e-23)
(1.05842 0.000639666 3.05485e-23)
(1.05986 0.00482961 8.58809e-23)
(1.05952 0.0113367 3.62437e-24)
(1.05651 0.0209719 -2.75952e-22)
(1.05002 0.0359488 5.61656e-22)
(1.03346 0.0646702 -1.66638e-22)
(1.03475 0.114033 -4.14042e-23)
(1.01281 0.177141 1.32596e-22)
(0.994044 0.289193 -9.8403e-22)
(0.932672 0.443567 -3.39809e-20)
(0.779388 0.660091 4.15235e-21)
(0.326107 0.890725 -1.33339e-20)
(-0.108331 0.88602 6.10123e-21)
(0.0248944 0.598025 -8.16527e-23)
(0.620963 0.292294 -8.19874e-22)
(1.26514 0.0195283 1.34488e-20)
(1.38458 -0.0745027 -2.20433e-22)
(1.30413 -0.0771115 2.75066e-21)
(1.23074 -0.0812847 2.31574e-22)
(1.19028 -0.0676511 -9.87058e-22)
(1.15979 -0.0539901 4.14549e-22)
(1.13567 -0.0441206 -1.57842e-22)
(1.11557 -0.0356367 2.09477e-23)
(1.09912 -0.0290869 -3.4996e-23)
(1.0855 -0.0237409 2.72703e-23)
(1.07389 -0.0188234 0)
(1.06498 -0.0142589 0)
(1.0586 -0.0105293 0)
(1.05385 -0.00753242 0)
(1.05043 -0.00499302 0)
(1.04822 -0.00274526 0)
(1.04708 -0.000830884 2.11358e-23)
(1.04399 -0.000124819 3.63089e-24)
(1.04466 -0.000796793 0)
(1.04591 -0.00140064 0)
(1.04786 -0.00193455 0)
(1.05039 -0.00246827 0)
(1.05299 -0.00310537 0)
(1.05435 -0.00375257 0)
(1.05441 -0.00398738 0)
(1.05442 -0.00370035 -1.12786e-23)
(1.05414 -0.00334394 3.5966e-23)
(1.05147 -0.00267031 -7.98761e-23)
(1.04373 -0.00162403 2.05327e-22)
(1.02807 0.0015132 -4.7995e-22)
(0.997908 0.002858 -4.33882e-23)
(0.971115 0.0468537 4.56297e-22)
(0.906568 0.0899269 -5.58719e-22)
(0.847145 0.172442 -1.19251e-21)
(0.715271 0.271425 1.09385e-21)
(0.402168 0.508155 -2.99063e-21)
(0.130704 0.689887 3.87281e-21)
(0.159255 0.606992 3.17731e-21)
(0.513509 0.29278 -2.78565e-21)
(1.03871 -0.0525447 1.55228e-21)
(1.44053 -0.231927 4.82239e-21)
(1.36107 -0.220409 -3.3375e-23)
(1.27736 -0.172806 2.37027e-22)
(1.19912 -0.142544 -3.70293e-22)
(1.16333 -0.110017 5.58549e-22)
(1.13802 -0.0855212 2.35849e-22)
(1.11801 -0.0675427 9.88307e-23)
(1.1017 -0.0531312 -6.12853e-23)
(1.08809 -0.0421862 1.16293e-23)
(1.07608 -0.0332727 0)
(1.06566 -0.0257838 0)
(1.05818 -0.0194473 0)
(1.05316 -0.0143474 0)
(1.04946 -0.0102331 8.33976e-24)
(1.04677 -0.00679892 1.15333e-23)
(1.04502 -0.00382521 6.87744e-24)
(1.04415 -0.00117852 0)
(1.04407 5.87948e-05 0)
(1.04496 -0.000141463 0)
(1.04633 -0.000412969 0)
(1.04836 -0.000851117 0)
(1.05101 -0.00143101 0)
(1.05381 -0.0022922 0)
(1.05534 -0.00367742 0)
(1.05546 -0.0056381 0)
(1.05577 -0.00828158 1.76809e-26)
(1.0561 -0.0123675 5.0303e-24)
(1.05455 -0.0185125 -1.10929e-23)
(1.04847 -0.0284889 1.3816e-22)
(1.03338 -0.0400741 -3.04325e-22)
(1.0007 -0.0670302 6.4534e-22)
(0.94824 -0.0539777 1.76758e-21)
(0.859076 -0.0569798 -1.11389e-21)
(0.754768 -0.00439168 9.95547e-23)
(0.484546 0.128177 2.01982e-21)
(0.230578 0.168432 -1.8739e-21)
(0.215827 0.0456626 1.1947e-21)
(0.503949 -0.184698 1.62624e-21)
(0.923544 -0.415236 3.59678e-21)
(1.28964 -0.527217 -1.33387e-21)
(1.37126 -0.461263 -2.50046e-21)
(1.24556 -0.327413 8.85305e-22)
(1.20119 -0.249607 -9.49693e-22)
(1.13919 -0.182362 3.70572e-22)
(1.11853 -0.138886 -2.04467e-22)
(1.10375 -0.106761 3.366e-23)
(1.09173 -0.082549 -2.31579e-23)
(1.08155 -0.0635577 6.59775e-24)
(1.07227 -0.0492986 -8.61195e-27)
(1.06322 -0.0381207 0)
(1.05508 -0.0292253 0)
(1.04962 -0.0220336 0)
(1.04627 -0.0162966 0)
(1.04383 -0.011641 0)
(1.04204 -0.00777593 0)
(1.0409 -0.00441489 0)
(1.04041 -0.00141908 -1.23864e-24)
(1.04384 0.00016667 0)
(1.04487 0.000502345 0)
(1.04649 0.000719769 0)
(1.04879 0.000652464 0)
(1.05182 0.000287311 0)
(1.05524 -0.000514658 0)
(1.05786 -0.0021755 0)
(1.0594 -0.00523787 0)
(1.06194 -0.010033 0)
(1.06576 -0.0174841 0)
(1.06966 -0.028856 -1.8848e-24)
(1.07242 -0.0473649 -2.70296e-23)
(1.06986 -0.0722222 -9.17095e-23)
(1.05228 -0.115906 1.53819e-22)
(0.990687 -0.149602 2.92029e-21)
(0.884883 -0.209295 1.21175e-21)
(0.611371 -0.167203 2.60034e-21)
(0.479318 -0.166353 2.40209e-21)
(0.467223 -0.33747 7.64812e-22)
(0.558509 -0.587346 1.62257e-20)
(0.777447 -0.776129 -3.39695e-21)
(1.00397 -0.819502 -3.11293e-21)
(1.13194 -0.70071 2.31322e-21)
(1.13394 -0.50432 -1.685e-21)
(1.11193 -0.354348 -1.92451e-21)
(1.09846 -0.275092 2.39201e-22)
(1.06556 -0.193862 3.33298e-23)
(1.06372 -0.146993 1.66307e-24)
(1.06156 -0.11284 -1.25476e-23)
(1.0598 -0.0861775 1.00537e-24)
(1.0572 -0.0655526 0)
(1.05351 -0.0500311 0)
(1.04862 -0.0380441 0)
(1.0436 -0.0288291 0)
(1.04046 -0.0217581 0)
(1.03887 -0.0161894 0)
(1.03775 -0.0116146 0)
(1.03693 -0.00781806 0)
(1.03645 -0.00450805 0)
(1.03633 -0.00145847 0)
(1.04316 0.000342621 0)
(1.04421 0.00117905 0)
(1.04602 0.00195943 0)
(1.04867 0.00255591 0)
(1.05223 0.00285558 0)
(1.05662 0.00272768 0)
(1.06106 0.00170575 0)
(1.0653 -0.00112709 0)
(1.07144 -0.00623144 0)
(1.08046 -0.0142564 0)
(1.09241 -0.0264008 0)
(1.10766 -0.0457212 2.02943e-24)
(1.12616 -0.0747203 1.26126e-23)
(1.13838 -0.117155 -7.41912e-23)
(1.10328 -0.188374 1.07195e-21)
(0.962453 -0.288209 -1.75965e-22)
(0.648421 -0.36761 1.33197e-21)
(0.648687 -0.505986 2.81349e-21)
(0.699971 -0.612833 3.20146e-22)
(0.755138 -0.685092 8.24204e-21)
(0.83036 -0.691596 3.67179e-22)
(0.897023 -0.629165 6.79194e-22)
(0.926524 -0.528324 -2.4838e-22)
(0.948321 -0.437313 -2.29137e-21)
(0.988127 -0.341368 3.55075e-22)
(0.998455 -0.256951 3.6241e-22)
(0.99281 -0.180253 -3.46742e-23)
(1.00805 -0.134217 -3.32665e-23)
(1.01883 -0.102931 -1.87932e-24)
(1.02671 -0.0778417 0)
(1.03166 -0.0586144 0)
(1.03388 -0.0439338 0)
(1.0337 -0.0326541 0)
(1.03244 -0.0243371 0)
(1.03192 -0.0184007 0)
(1.03203 -0.0138415 0)
(1.03208 -0.0100745 0)
(1.03206 -0.00689049 0)
(1.03208 -0.00405275 0)
(1.03222 -0.00135643 0)
(1.04181 0.000656782 0)
(1.04274 0.00206171 0)
(1.0446 0.00349825 0)
(1.04746 0.00490813 0)
(1.05145 0.00623067 0)
(1.05671 0.00739963 0)
(1.06297 0.00810454 0)
(1.07016 0.007371 0)
(1.07992 0.00469991 0)
(1.09366 -0.000128824 0)
(1.11274 -0.00764834 1.2928e-22)
(1.13882 -0.0189152 0)
(1.17605 -0.038704 0)
(1.22223 -0.0607019 1.09346e-21)
(1.27304 -0.12526 2.23384e-21)
(1.13929 -0.251967 1.62818e-21)
(0.917956 -0.43935 3.88263e-23)
(0.817093 -0.61716 -2.88378e-23)
(0.76409 -0.713057 -1.79234e-22)
(0.730582 -0.728758 -1.56885e-21)
(0.728615 -0.678964 -6.92286e-22)
(0.750911 -0.572855 -3.88533e-21)
(0.802945 -0.461764 -1.60025e-22)
(0.859671 -0.367305 -9.42843e-23)
(0.881703 -0.289113 1.88785e-23)
(0.892785 -0.183527 -3.08241e-21)
(0.93149 -0.137704 1.25062e-21)
(0.959958 -0.101406 0)
(0.982106 -0.0765104 0)
(0.998141 -0.0567816 8.01393e-25)
(1.0095 -0.0418892 0)
(1.01683 -0.0305739 0)
(1.02108 -0.0220241 0)
(1.02359 -0.0161267 0)
(1.02557 -0.012287 0)
(1.02703 -0.00939691 0)
(1.02787 -0.00696895 0)
(1.02828 -0.00484626 -1.37258e-24)
(1.02848 -0.00289015 -9.84701e-25)
(1.02864 -0.000990053 0)
(1.03945 0.000993875 0)
(1.04029 0.00299771 0)
(1.04206 0.00512021 0)
(1.04486 0.00741148 0)
(1.04885 0.00995417 0)
(1.05428 0.0127858 0)
(1.06139 0.0158662 0)
(1.07041 0.0185478 0)
(1.08229 0.020476 0)
(1.09826 0.0218778 0)
(1.12018 0.0230075 7.02066e-22)
(1.15049 0.0255556 0)
(1.1935 0.0260943 0)
(1.2571 0.0330944 3.07454e-22)
(1.34285 0.0372396 -2.30848e-20)
(1.34957 0.00187317 -3.07165e-22)
(1.22543 -0.104224 0)
(1.07794 -0.228444 -2.46039e-21)
(0.916079 -0.34722 2.02424e-20)
(0.754172 -0.37926 3.4266e-20)
(0.620944 -0.406205 -1.6079e-22)
(0.566838 -0.380593 -1.06905e-21)
(0.588902 -0.320395 4.45713e-22)
(0.658693 -0.236706 0)
(0.739793 -0.151839 -1.63532e-21)
(0.829344 -0.101015 1.53221e-21)
(0.888945 -0.0711518 1.92467e-21)
(0.925907 -0.0483884 0)
(0.957034 -0.0342717 0)
(0.979594 -0.0241964 -6.60365e-23)
(0.995388 -0.0170174 0)
(1.00621 -0.0117304 0)
(1.01361 -0.00795933 0)
(1.01882 -0.00577213 0)
(1.02241 -0.00465051 0)
(1.02454 -0.00379206 2.48318e-24)
(1.02571 -0.00295076 -3.22685e-24)
(1.0263 -0.00209282 0)
(1.02655 -0.00124803 0)
(1.02667 -0.00035861 -7.58299e-24)
(1.03626 0.00112783 0)
(1.03701 0.00368696 0)
(1.03849 0.00642945 0)
(1.04082 0.00959063 0)
(1.04416 0.0133142 0)
(1.04884 0.0177534 0)
(1.05543 0.0230819 -1.221e-24)
(1.0644 0.0291037 0)
(1.07606 0.035879 0)
(1.09093 0.0440418 0)
(1.11028 0.0546039 0)
(1.13655 0.0704546 0)
(1.17118 0.0922304 0)
(1.22443 0.125555 1.73636e-22)
(1.30661 0.180477 1.66228e-23)
(1.3518 0.242232 6.62693e-23)
(1.29568 0.259186 0)
(1.17528 0.248247 0)
(1.01093 0.196436 -1.40997e-20)
(0.835589 0.18475 -2.07304e-19)
(0.678746 0.12703 -1.12747e-20)
(0.593844 0.0782464 -4.13022e-22)
(0.581339 0.0325145 0)
(0.61145 0.00232417 0)
(0.683023 -0.00779967 0)
(0.779216 0.0110693 -3.1829e-23)
(0.858158 0.0243636 5.35249e-21)
(0.910863 0.0248045 1.4126e-22)
(0.950017 0.0200379 0)
(0.975689 0.0150503 0)
(0.99284 0.0113111 0)
(1.00455 0.00871969 0)
(1.01288 0.00661102 1.0897e-23)
(1.01892 0.00464509 4.46558e-24)
(1.02273 0.00290494 2.24971e-25)
(1.02464 0.00164696 0)
(1.02554 0.000852691 0)
(1.02598 0.000418106 0)
(1.0262 0.00016168 0)
(1.02636 8.18209e-05 0)
(1.03274 0.00126439 0)
(1.0331 0.00414895 0)
(1.03397 0.00733148 0)
(1.03548 0.0110864 0)
(1.03773 0.0155558 0)
(1.04101 0.0210104 0)
(1.04604 0.0277464 0)
(1.05333 0.0358776 0)
(1.06253 0.0459592 4.53103e-24)
(1.0733 0.0588775 0)
(1.08601 0.0761565 0)
(1.10205 0.099978 0)
(1.1208 0.133881 4.39643e-22)
(1.14579 0.179916 4.81706e-22)
(1.18621 0.250921 0)
(1.22568 0.347661 0)
(1.21175 0.43729 0)
(1.1412 0.504724 0)
(1.02362 0.522831 1.30474e-20)
(0.890389 0.530074 4.45317e-20)
(0.763612 0.487579 -2.13026e-20)
(0.704606 0.427004 8.32099e-21)
(0.696578 0.34611 0)
(0.710596 0.265239 0)
(0.732208 0.185156 0)
(0.786494 0.148882 0)
(0.859249 0.132803 -1.38427e-20)
(0.928449 0.10192 -3.03298e-21)
(0.970117 0.0744172 0)
(0.991308 0.0521707 -3.12288e-25)
(1.00422 0.0367899 -3.21108e-24)
(1.01275 0.0261691 -5.00657e-24)
(1.019 0.0185434 0)
(1.0237 0.0129458 0)
(1.02637 0.00875897 0)
(1.02719 0.00572712 0)
(1.02723 0.00359135 0)
(1.0271 0.00210023 0)
(1.02697 0.00101446 0)
(1.02692 0.000232945 0)
(1.02884 0.00157948 0)
(1.02874 0.00446484 0)
(1.02895 0.00773144 0)
(1.02957 0.0114808 0)
(1.03059 0.0159552 0)
(1.03221 0.0214788 0)
(1.03519 0.0284545 0)
(1.03988 0.0371665 0)
(1.04524 0.0484158 0)
(1.05034 0.0630693 0)
(1.05499 0.0827143 -2.70153e-23)
(1.05929 0.108498 7.07156e-23)
(1.06158 0.143481 -2.13319e-21)
(1.06284 0.188692 -8.91055e-22)
(1.06606 0.247779 0)
(1.0767 0.327498 0)
(1.06693 0.419698 0)
(1.0327 0.503147 0)
(0.96356 0.559321 -2.17687e-20)
(0.885271 0.587201 3.02762e-20)
(0.815481 0.578883 -3.55595e-21)
(0.795601 0.539996 7.61818e-21)
(0.798903 0.486129 0)
(0.822182 0.423884 0)
(0.833157 0.344966 0)
(0.853567 0.274099 0)
(0.91716 0.215707 9.50717e-22)