/*--------------------------------*- C++ -*----------------------------------*\
| =========                 |                                                 |
| \\      /  F ield         | OpenFOAM: The Open Source CFD Toolbox           |
|  \\    /   O peration     | Version:  v2106                                 |
|   \\  /    A nd           | Website:  www.openfoam.com                      |
|    \\/     M anipulation  |                                                 |
\*---------------------------------------------------------------------------*/
FoamFile
{
    version     2.0;
    format      ascii;
    arch        "LSB;label=32;scalar=64";
    class       pointVectorField;
    location    "0";
    object      pointDisplacement;
}
// * * * * * * * * * * * * * * * * * * * * * * * * * * * * * * * * * * * * * //

dimensions      [0 1 0 0 0 0 0];

internalField   nonuniform List<vector> 
24440
(
(0 0 0)
(0 0 0)
(0 0 0)
(0 0 0)
(0 0 0)
(0 0 0)
(0 0 0)
(0 0 0)
(0 0 0)
(0 0 0)
(0 0 0)
(0 0 0)
(0 0 0)
(0 0 0)
(0 0 0)
(0 0 0)
(0 0 0)
(0 0 0)
(0 0 0)
(0 0 0)
(0 0 0)
(0 0 0)
(0 0 0)
(0 0 0)
(0 0 0)
(0 0 0)
(0 0 0)
(0 0 0)
(0 0 0)
(0 0 0)
(0 0 0)
(0 0 0)
(0 0 0)
(0 0 0)
(0 0 0)
(0 0 0)
(0 0 0)
(0 0 0)
(0 0 0)
(0 0 0)
(0 0 0)
(0 0 0)
(0 0 0)
(0 0 0)
(0 0 0)
(0 0 0)
(0 0 0)
(0 0 0)
(0 0 0)
(0 0 0)
(0 0 0)
(0 0 0)
(0 0 0)
(0 0 0)
(0 0 0)
(0 0 0)
(0 0 0)
(0 0 0)
(0 0 0)
(0 0 0)
(0 0 0)
(0 0 0)
(0 0 0)
(0 0 0)
(0 0 0)
(0 0 0)
(0 0 0)
(0 0 0)
(0 0 0)
(0 0 0)
(0 0 0)
(0 0 0)
(0 0 0)
(0 0 0)
(0 0 0)
(0 0 0)
(0 0 0)
(0 0 0)
(0 0 0)
(0 0 0)
(0 0 0)
(0 0 0)
(0 0 0)
(0 0 0)
(0 0 0)
(0 0 0)
(0 0 0)
(0 0 0)
(0 0 0)
(0 0 0)
(0 0 0)
(0 0 0)
(0 0 0)
(0 0 0)
(0 0 0)
(0 0 0)
(0 0 0)
(0 0 0)
(0 5.1533e-06 0)
(0 3.2497e-05 0)
(0 8.93598e-05 0)
(0 0.000137699 0)
(0 0.00015625 0)
(0 0.000137699 0)
(0 8.93598e-05 0)
(0 3.2497e-05 0)
(0 5.1533e-06 0)
(0 0 0)
(0 0 0)
(0 0 0)
(0 0 0)
(0 0 0)
(0 0 0)
(0 0 0)
(0 0 0)
(0 0 0)
(0 0 0)
(0 0 0)
(0 0 0)
(0 0 0)
(0 0 0)
(0 0 0)
(0 0 0)
(0 0 0)
(0 0 0)
(0 0 0)
(0 0 0)
(0 0 0)
(0 0 0)
(0 0 0)
(0 0 0)
(0 0 0)
(0 0 0)
(0 0 0)
(0 0 0)
(0 0 0)
(0 8.63038e-06 0)
(0 0.000114165 0)
(0 0.000335981 0)
(0 0.000605247 0)
(0 0.000863328 0)
(0 0.00104325 0)
(0 0.0012105 0)
(0 0.00126935 0)
(0 0.0012105 0)
(0 0.00104325 0)
(0 0.000863328 0)
(0 0.000605247 0)
(0 0.000335981 0)
(0 0.000114165 0)
(0 8.63038e-06 0)
(0 0 0)
(0 0 0)
(0 0 0)
(0 0 0)
(0 0 0)
(0 0 0)
(0 0 0)
(0 0 0)
(0 0 0)
(0 0 0)
(0 0 0)
(0 0 0)
(0 0 0)
(0 0 0)
(0 0 0)
(0 0 0)
(0 0 0)
(0 0 0)
(0 0 0)
(0 0 0)
(0 0 0)
(0 0 0)
(0 0 0)
(0 0 0)
(0 3.62353e-06 0)
(0 0.000150138 0)
(0 0.000512019 0)
(0 0.0010097 0)
(0 0.0015223 0)
(0 0.00209418 0)
(0 0.00258947 0)
(0 0.00289622 0)
(0 0.00318953 0)
(0 0.0032909 0)
(0 0.00318953 0)
(0 0.00289622 0)
(0 0.00258947 0)
(0 0.00209418 0)
(0 0.0015223 0)
(0 0.0010097 0)
(0 0.000512019 0)
(0 0.000150138 0)
(0 3.62353e-06 0)
(0 0 0)
(0 0 0)
(0 0 0)
(0 0 0)
(0 0 0)
(0 0 0)
(0 0 0)
(0 0 0)
(0 0 0)
(0 0 0)
(0 0 0)
(0 0 0)
(0 0 0)
(0 0 0)
(0 0 0)
(0 0 0)
(0 0 0)
(0 0 0)
(0 0 0)
(0 0 0)
(0 0 0)
(0 3.42622e-05 0)
(0 0.000356308 0)
(0 0.000946907 0)
(0 0.00166136 0)
(0 0.00254843 0)
(0 0.00344312 0)
(0 0.0042182 0)
(0 0.00494427 0)
(0 0.0054595 0)
(0 0.00576733 0)
(0 0.00590863 0)
(0 0.00576733 0)
(0 0.0054595 0)
(0 0.00494427 0)
(0 0.0042182 0)
(0 0.00344312 0)
(0 0.00254843 0)
(0 0.00166136 0)
(0 0.000946907 0)
(0 0.000356308 0)
(0 3.62724e-05 0)
(0 0 0)
(0 0 0)
(0 0 0)
(0 0 0)
(0 0 0)
(0 0 0)
(0 0 0)
(0 0 0)
(0 0 0)
(0 0 0)
(0 0 0)
(0 0 0)
(0 0 0)
(0 0 0)
(0 0 0)
(0 0 0)
(0 0 0)
(0 0 0)
(0 0 0)
(0 6.73861e-05 0)
(0 0.000472511 0)
(0 0.00117933 0)
(0 0.00216506 0)
(0 0.00333658 0)
(0 0.00455396 0)
(0 0.00567112 0)
(0 0.00673021 0)
(0 0.00712817 0)
(0 0.00755854 0)
(0 0.00791852 0)
(0 0.00820215 0)
(0 0.00840496 0)
(0 0.00854521 0)
(0 0.00867478 0)
(0 0.00871816 0)
(0 0.00867478 0)
(0 0.00854521 0)
(0 0.00840496 0)
(0 0.00820215 0)
(0 0.00791852 0)
(0 0.00755854 0)
(0 0.00712817 0)
(0 0.00673021 0)
(0 0.00567112 0)
(0 0.00455396 0)
(0 0.00333658 0)
(0 0.00216506 0)
(0 0.00115485 0)
(0 0.000426961 0)
(0 5.38459e-05 0)
(0 0 0)
(0 0 0)
(0 0 0)
(0 0 0)
(0 0 0)
(0 0 0)
(0 0 0)
(0 0 0)
(0 0 0)
(0 0 0)
(0 0 0)
(0 0 0)
(0 0 0)
(0 0 0)
(0 0 0)
(0 0 0)
(0 0 0)
(0 3.96354e-05 0)
(0 0.000453585 0)
(0 0.00126377 0)
(0 0.00237804 0)
(0 0.00368324 0)
(0 0.00521888 0)
(0 0.00595315 0)
(0 0.00660399 0)
(0 0.00732433 0)
(0 0.00799952 0)
(0 0.00861726 0)
(0 0.00914207 0)
(0 0.00796745 0)
(0 0.00845391 0)
(0 0.00883783 0)
(0 0.00922506 0)
(0 0.00952883 0)
(0 0.00974531 0)
(0 0.00987508 0)
(0 0.0100126 0)
(0 0.0100586 0)
(0 0.0100126 0)
(0 0.00987508 0)
(0 0.00974531 0)
(0 0.00952883 0)
(0 0.00922506 0)
(0 0.00883783 0)
(0 0.00845391 0)
(0 0.00796745 0)
(0 0.00914207 0)
(0 0.00861726 0)
(0 0.00799952 0)
(0 0.00732433 0)
(0 0.00660399 0)
(0 0.00595315 0)
(0 0.00521888 0)
(0 0.00368324 0)
(0 0.00237804 0)
(0 0.00121767 0)
(0 0.000433851 0)
(0 3.59947e-05 0)
(0 0 0)
(0 0 0)
(0 0 0)
(0 0 0)
(0 0 0)
(0 0 0)
(0 0 0)
(0 0 0)
(0 0 0)
(0 0 0)
(0 0 0)
(0 0 0)
(0 0 0)
(0 0 0)
(0 0 0)
(0 0 0)
(0 0.00025078 0)
(0 0.00102485 0)
(0 0.00219099 0)
(0 0.00365579 0)
(0 0.00528725 0)
(0 0.00694499 0)
(0 0.00611286 0)
(0 0.00691134 0)
(0 0.00767969 0)
(0 0.00840316 0)
(0 0.00904593 0)
(0 0.0096978 0)
(0 0.0102738 0)
(0 0.0107497 0)
(0 0.00965896 0)
(0 0.0100943 0)
(0 0.0111985 0)
(0 0.0115216 0)
(0 0.0104407 0)
(0 0.0107576 0)
(0 0.011843 0)
(0 0.0120691 0)
(0 0.0109825 0)
(0 0.0110964 0)
(0 0.0122002 0)
(0 0.0123043 0)
(0 0.0112382 0)
(0 0.0112856 0)
(0 0.0123513 0)
(0 0.0123043 0)
(0 0.0112382 0)
(0 0.0110964 0)
(0 0.0122002 0)
(0 0.0120691 0)
(0 0.0109825 0)
(0 0.0107576 0)
(0 0.011843 0)
(0 0.0115216 0)
(0 0.0104407 0)
(0 0.0100943 0)
(0 0.0111985 0)
(0 0.0107497 0)
(0 0.00965896 0)
(0 0.0102738 0)
(0 0.0096978 0)
(0 0.00904593 0)
(0 0.00840316 0)
(0 0.00767969 0)
(0 0.00691134 0)
(0 0.00611286 0)
(0 0.00694499 0)
(0 0.00528725 0)
(0 0.00361179 0)
(0 0.0021737 0)
(0 0.00102376 0)
(0 0.000272638 0)
(0 0 0)
(0 0 0)
(0 0 0)
(0 0 0)
(0 0 0)
(0 0 0)
(0 0 0)
(0 0 0)
(0 0 0)
(0 0 0)
(0 0 0)
(0 0 0)
(0 0 0)
(0 0 0)
(0 0 0)
(0 5.47075e-05 0)
(0 0.000562048 0)
(0 0.00162009 0)
(0 0.00303541 0)
(0 0.00471796 0)
(0 0.00664566 0)
(0 0.00850248 0)
(0 0.00777987 0)
(0 0.00862104 0)
(0 0.00774097 0)
(0 0.00860674 0)
(0 0.00941172 0)
(0 0.0102049 0)
(0 0.00936868 0)
(0 0.0100645 0)
(0 0.01092 0)
(0 0.0112461 0)
(0 0.0115497 0)
(0 0.0111369 0)
(0 0.0106519 0)
(0 0.011243 0)
(0 0.0116669 0)
(0 0.0119288 0)
(0 0.0115047 0)
(0 0.0121414 0)
(0 0.0125435 0)
(0 0.0127296 0)
(0 0.0123303 0)
(0 0.0127466 0)
(0 0.01314 0)
(0 0.013238 0)
(0 0.0128677 0)
(0 0.0130904 0)
(0 0.0134509 0)
(0 0.0135022 0)
(0 0.01315 0)
(0 0.0132142 0)
(0 0.0135587 0)
(0 0.0135483 0)
(0 0.0132031 0)
(0 0.0130904 0)
(0 0.0134509 0)
(0 0.0134022 0)
(0 0.0130393 0)
(0 0.0127466 0)
(0 0.01314 0)
(0 0.0130273 0)
(0 0.0126349 0)
(0 0.0121414 0)
(0 0.0125435 0)
(0 0.0123792 0)
(0 0.0119281 0)
(0 0.011243 0)
(0 0.0116669 0)
(0 0.0113813 0)
(0 0.0109585 0)
(0 0.0100645 0)
(0 0.01092 0)
(0 0.0102049 0)
(0 0.00936868 0)
(0 0.00860674 0)
(0 0.00941172 0)
(0 0.00862104 0)
(0 0.00774097 0)
(0 0.00777987 0)
(0 0.00846418 0)
(0 0.00664107 0)
(0 0.00479401 0)
(0 0.00300992 0)
(0 0.00160432 0)
(0 0.000590218 0)
(0 6.25608e-05 0)
(0 0 0)
(0 0 0)
(0 0 0)
(0 0 0)
(0 0 0)
(0 0 0)
(0 0 0)
(0 0 0)
(0 0 0)
(0 0 0)
(0 0 0)
(0 0 0)
(0 0 0)
(0 0 0)
(0 0.00017899 0)
(0 0.00090588 0)
(0 0.00212841 0)
(0 0.0037399 0)
(0 0.00560221 0)
(0 0.00765056 0)
(0 0.00956229 0)
(0 0.0090906 0)
(0 0.00999022 0)
(0 0.00937796 0)
(0 0.0101954 0)
(0 0.0108245 0)
(0 0.0115781 0)
(0 0.0109399 0)
(0 0.0115995 0)
(0 0.0119411 0)
(0 0.012235 0)
(0 0.0119407 0)
(0 0.0127709 0)
(0 0.0129123 0)
(0 0.0130263 0)
(0 0.0128863 0)
(0 0.0135193 0)
(0 0.0136323 0)
(0 0.0137057 0)
(0 0.013595 0)
(0 0.0139623 0)
(0 0.0140447 0)
(0 0.0140821 0)
(0 0.0139991 0)
(0 0.0141564 0)
(0 0.0142169 0)
(0 0.0142255 0)
(0 0.0141668 0)
(0 0.0142061 0)
(0 0.0142548 0)
(0 0.014254 0)
(0 0.0142049 0)
(0 0.0141564 0)
(0 0.0142169 0)
(0 0.0142049 0)
(0 0.0141423 0)
(0 0.0139623 0)
(0 0.0140447 0)
(0 0.0140133 0)
(0 0.013918 0)
(0 0.0135193 0)
(0 0.0136323 0)
(0 0.0135685 0)
(0 0.0134369 0)
(0 0.0127709 0)
(0 0.0129123 0)
(0 0.0130416 0)
(0 0.0127955 0)
(0 0.0125203 0)
(0 0.0115995 0)
(0 0.0119411 0)
(0 0.0122379 0)
(0 0.0115781 0)
(0 0.0109399 0)
(0 0.0101954 0)
(0 0.0107998 0)
(0 0.00998378 0)
(0 0.00937796 0)
(0 0.00910148 0)
(0 0.00959061 0)
(0 0.00763133 0)
(0 0.00565802 0)
(0 0.00377911 0)
(0 0.00215307 0)
(0 0.000918806 0)
(0 0.000183406 0)
(0 0 0)
(0 0 0)
(0 0 0)
(0 0 0)
(0 0 0)
(0 0 0)
(0 0 0)
(0 0 0)
(0 0 0)
(0 0 0)
(0 0 0)
(0 0 0)
(0 0 0)
(0 0 0)
(0 0.000275998 0)
(0 0.00112535 0)
(0 0.00247647 0)
(0 0.00421525 0)
(0 0.00619526 0)
(0 0.00825013 0)
(0 0.0102078 0)
(0 0.00996529 0)
(0 0.0108578 0)
(0 0.0104434 0)
(0 0.0112514 0)
(0 0.0116709 0)
(0 0.0123886 0)
(0 0.012042 0)
(0 0.0126953 0)
(0 0.0128567 0)
(0 0.0131379 0)
(0 0.0129803 0)
(0 0.0136573 0)
(0 0.0137319 0)
(0 0.013816 0)
(0 0.0137438 0)
(0 0.0141763 0)
(0 0.0142123 0)
(0 0.0142423 0)
(0 0.0142106 0)
(0 0.0143005 0)
(0 0.0143005 0)
(0 0.0143005 0)
(0 0.0143005 0)
(0 0.0143005 0)
(0 0.0143005 0)
(0 0.0143005 0)
(0 0.0143005 0)
(0 0.0143005 0)
(0 0.0143005 0)
(0 0.0143005 0)
(0 0.0143005 0)
(0 0.0143005 0)
(0 0.0143005 0)
(0 0.0143005 0)
(0 0.0143005 0)
(0 0.0143005 0)
(0 0.0143005 0)
(0 0.0143005 0)
(0 0.0143005 0)
(0 0.0141763 0)
(0 0.0142123 0)
(0 0.0141726 0)
(0 0.014135 0)
(0 0.0136573 0)
(0 0.0137319 0)
(0 0.0137956 0)
(0 0.0136011 0)
(0 0.0134618 0)
(0 0.012688 0)
(0 0.0128755 0)
(0 0.0130187 0)
(0 0.0123714 0)
(0 0.0120527 0)
(0 0.0113155 0)
(0 0.0116564 0)
(0 0.0108463 0)
(0 0.0104896 0)
(0 0.00995682 0)
(0 0.0102129 0)
(0 0.00824674 0)
(0 0.00618541 0)
(0 0.00420173 0)
(0 0.00246237 0)
(0 0.00111369 0)
(0 0.000269372 0)
(0 0 0)
(0 0 0)
(0 0 0)
(0 0 0)
(0 0 0)
(0 0 0)
(0 0 0)
(0 0 0)
(0 0 0)
(0 0 0)
(0 0 0)
(0 0 0)
(0 0 0)
(0 0 0)
(0 0.00029262 0)
(0 0.00116133 0)
(0 0.00253318 0)
(0 0.00429289 0)
(0 0.00629262 0)
(0 0.00836435 0)
(0 0.010334 0)
(0 0.0103376 0)
(0 0.011231 0)
(0 0.0110986 0)
(0 0.0119057 0)
(0 0.0120383 0)
(0 0.0127423 0)
(0 0.0126126 0)
(0 0.013228 0)
(0 0.0132874 0)
(0 0.0135342 0)
(0 0.0134805 0)
(0 0.0140374 0)
(0 0.0140603 0)
(0 0.0141212 0)
(0 0.0141001 0)
(0 0.0143005 0)
(0 0.0143005 0)
(0 0.0143005 0)
(0 0.0143005 0)
(0 0.0143005 0)
(0 0.0143005 0)
(0 0.0143005 0)
(0 0.0143005 0)
(0 0.0143005 0)
(0 0.0143005 0)
(0 0.0143005 0)
(0 0.0143005 0)
(0 0.0143005 0)
(0 0.0143005 0)
(0 0.0143005 0)
(0 0.0143005 0)
(0 0.0143005 0)
(0 0.0142999 0)
(0 0.0142979 0)
(0 0.0140374 0)
(0 0.0140603 0)
(0 0.0140755 0)
(0 0.0139325 0)
(0 0.013882 0)
(0 0.0132272 0)
(0 0.0132883 0)
(0 0.0133283 0)
(0 0.0127423 0)
(0 0.012631 0)
(0 0.0119199 0)
(0 0.012008 0)
(0 0.0111962 0)
(0 0.0111083 0)
(0 0.0102991 0)
(0 0.0103109 0)
(0 0.00833863 0)
(0 0.0062665 0)
(0 0.00426864 0)
(0 0.00251289 0)
(0 0.00114677 0)
(0 0.000285079 0)
(0 0 0)
(0 0 0)
(0 0 0)
(0 0 0)
(0 0 0)
(0 0 0)
(0 0 0)
(0 0 0)
(0 0 0)
(0 0 0)
(0 0 0)
(0 0 0)
(0 0 0)
(0 0 0)
(0 0.000239138 0)
(0 0.00104513 0)
(0 0.00235131 0)
(0 0.00404624 0)
(0 0.00598643 0)
(0 0.00800877 0)
(0 0.00994486 0)
(0 0.0102243 0)
(0 0.0111162 0)
(0 0.0112281 0)
(0 0.0120361 0)
(0 0.0119241 0)
(0 0.0126315 0)
(0 0.012741 0)
(0 0.0133278 0)
(0 0.0132964 0)
(0 0.013543 0)
(0 0.0135729 0)
(0 0.0141006 0)
(0 0.0140931 0)
(0 0.0141502 0)
(0 0.014157 0)
(0 0.0143005 0)
(0 0.0143005 0)
(0 0.0143005 0)
(0 0.0143005 0)
(0 0.0143005 0)
(0 0.0143005 0)
(0 0.0143005 0)
(0 0.0143005 0)
(0 0.0143005 0)
(0 0.0143005 0)
(0 0.0143005 0)
(0 0.0143005 0)
(0 0.0143005 0)
(0 0.0143005 0)
(0 0.0143005 0)
(0 0.0143005 0)
(0 0.0141006 0)
(0 0.014087 0)
(0 0.0140796 0)
(0 0.0139369 0)
(0 0.0139531 0)
(0 0.0133154 0)
(0 0.0132954 0)
(0 0.0132347 0)
(0 0.0126401 0)
(0 0.0127254 0)
(0 0.0120176 0)
(0 0.0119304 0)
(0 0.01112 0)
(0 0.0112071 0)
(0 0.0102255 0)
(0 0.00997014 0)
(0 0.00802734 0)
(0 0.00599856 0)
(0 0.00405292 0)
(0 0.00235396 0)
(0 0.00104539 0)
(0 0.000238616 0)
(0 0 0)
(0 0 0)
(0 0 0)
(0 0 0)
(0 0 0)
(0 0 0)
(0 0 0)
(0 0 0)
(0 0 0)
(0 0 0)
(0 0 0)
(0 0 0)
(0 0 0)
(0 0 0)
(0 0.000120953 0)
(0 0.000759726 0)
(0 0.00188966 0)
(0 0.00340929 0)
(0 0.00530049 0)
(0 0.00723434 0)
(0 0.00912066 0)
(0 0.00962089 0)
(0 0.0105151 0)
(0 0.0108303 0)
(0 0.0116895 0)
(0 0.0113356 0)
(0 0.0120669 0)
(0 0.0124184 0)
(0 0.0130374 0)
(0 0.012889 0)
(0 0.0131581 0)
(0 0.0133021 0)
(0 0.0139062 0)
(0 0.013864 0)
(0 0.0139408 0)
(0 0.0139858 0)
(0 0.0142832 0)
(0 0.0142686 0)
(0 0.0142861 0)
(0 0.0142951 0)
(0 0.0143005 0)
(0 0.0143005 0)
(0 0.0143005 0)
(0 0.0143005 0)
(0 0.0143005 0)
(0 0.0143005 0)
(0 0.0143005 0)
(0 0.0143005 0)
(0 0.0142832 0)
(0 0.0142664 0)
(0 0.0142432 0)
(0 0.0142639 0)
(0 0.0139062 0)
(0 0.013864 0)
(0 0.0138067 0)
(0 0.0136248 0)
(0 0.0137371 0)
(0 0.0130374 0)
(0 0.012889 0)
(0 0.0127206 0)
(0 0.0120669 0)
(0 0.0124184 0)
(0 0.0116677 0)
(0 0.0113356 0)
(0 0.0105151 0)
(0 0.0108587 0)
(0 0.00962089 0)
(0 0.00912066 0)
(0 0.00723434 0)
(0 0.00523218 0)
(0 0.0034428 0)
(0 0.00191164 0)
(0 0.000771756 0)
(0 0.000125017 0)
(0 0 0)
(0 0 0)
(0 0 0)
(0 0 0)
(0 0 0)
(0 0 0)
(0 0 0)
(0 0 0)
(0 0 0)
(0 0 0)
(0 0 0)
(0 0 0)
(0 0 0)
(0 0 0)
(0 1.49661e-05 0)
(0 0.000444265 0)
(0 0.00135284 0)
(0 0.00266023 0)
(0 0.00424692 0)
(0 0.00597365 0)
(0 0.00778559 0)
(0 0.00847263 0)
(0 0.00939393 0)
(0 0.00999804 0)
(0 0.0108515 0)
(0 0.0102005 0)
(0 0.0110083 0)
(0 0.0115937 0)
(0 0.0122756 0)
(0 0.0120022 0)
(0 0.0123034 0)
(0 0.0125745 0)
(0 0.0133063 0)
(0 0.0131846 0)
(0 0.0132953 0)
(0 0.0133965 0)
(0 0.0139531 0)
(0 0.0138731 0)
(0 0.0139315 0)
(0 0.0140085 0)
(0 0.0142424 0)
(0 0.0141976 0)
(0 0.0142172 0)
(0 0.0142582 0)
(0 0.0143005 0)
(0 0.0142926 0)
(0 0.0142957 0)
(0 0.0143005 0)
(0 0.0143005 0)
(0 0.0143005 0)
(0 0.0143005 0)
(0 0.0143005 0)
(0 0.0143005 0)
(0 0.0143005 0)
(0 0.0142926 0)
(0 0.0142882 0)
(0 0.0143 0)
(0 0.0143004 0)
(0 0.0142424 0)
(0 0.0141976 0)
(0 0.0141733 0)
(0 0.014222 0)
(0 0.0139531 0)
(0 0.0138731 0)
(0 0.0138079 0)
(0 0.0138909 0)
(0 0.0133162 0)
(0 0.0132044 0)
(0 0.01307 0)
(0 0.0128479 0)
(0 0.0130894 0)
(0 0.0122419 0)
(0 0.0119882 0)
(0 0.011692 0)
(0 0.0109932 0)
(0 0.0115937 0)
(0 0.0108515 0)
(0 0.0102005 0)
(0 0.00939393 0)
(0 0.00999804 0)
(0 0.00847263 0)
(0 0.00778559 0)
(0 0.00597365 0)
(0 0.00424692 0)
(0 0.00266023 0)
(0 0.00135284 0)
(0 0.00041441 0)
(0 1.7977e-05 0)
(0 0 0)
(0 0 0)
(0 0 0)
(0 0 0)
(0 0 0)
(0 0 0)
(0 0 0)
(0 0 0)
(0 0 0)
(0 0 0)
(0 0 0)
(0 0 0)
(0 0 0)
(0 0 0)
(0 0 0)
(0 0.000136554 0)
(0 0.00071959 0)
(0 0.00169303 0)
(0 0.00295535 0)
(0 0.00453253 0)
(0 0.00616325 0)
(0 0.00693252 0)
(0 0.00784027 0)
(0 0.00861651 0)
(0 0.00945806 0)
(0 0.00865747 0)
(0 0.00942154 0)
(0 0.010249 0)
(0 0.0109652 0)
(0 0.0101191 0)
(0 0.010703 0)
(0 0.0111878 0)
(0 0.0115954 0)
(0 0.0112916 0)
(0 0.0121373 0)
(0 0.0117136 0)
(0 0.0119755 0)
(0 0.0123769 0)
(0 0.0129768 0)
(0 0.0126135 0)
(0 0.0127588 0)
(0 0.0131354 0)
(0 0.0135084 0)
(0 0.0131864 0)
(0 0.013281 0)
(0 0.0135976 0)
(0 0.0137841 0)
(0 0.013487 0)
(0 0.0135394 0)
(0 0.0138206 0)
(0 0.0138695 0)
(0 0.0135951 0)
(0 0.0135809 0)
(0 0.0138582 0)
(0 0.0137841 0)
(0 0.013487 0)
(0 0.0134126 0)
(0 0.0137268 0)
(0 0.0135084 0)
(0 0.0131864 0)
(0 0.0130682 0)
(0 0.0133959 0)
(0 0.0129768 0)
(0 0.0126135 0)
(0 0.0124257 0)
(0 0.0127929 0)
(0 0.0121373 0)
(0 0.0117136 0)
(0 0.0114676 0)
(0 0.0118755 0)
(0 0.0109652 0)
(0 0.0101191 0)
(0 0.00942154 0)
(0 0.010249 0)
(0 0.00945806 0)
(0 0.00865747 0)
(0 0.00784027 0)
(0 0.00861651 0)
(0 0.00693252 0)
(0 0.00616325 0)
(0 0.00453253 0)
(0 0.00295535 0)
(0 0.00169303 0)
(0 0.00071959 0)
(0 0.000136554 0)
(0 0 0)
(0 0 0)
(0 0 0)
(0 0 0)
(0 0 0)
(0 0 0)
(0 0 0)
(0 0 0)
(0 0 0)
(0 0 0)
(0 0 0)
(0 0 0)
(0 0 0)
(0 0 0)
(0 0 0)
(0 0 0)
(0 0 0)
(0 0.000205781 0)
(0 0.000849722 0)
(0 0.00182156 0)
(0 0.00302683 0)
(0 0.004347 0)
(0 0.00565021 0)
(0 0.00666153 0)
(0 0.00773691 0)
(0 0.00696535 0)
(0 0.00738526 0)
(0 0.00846315 0)
(0 0.00910373 0)
(0 0.00806341 0)
(0 0.00868364 0)
(0 0.00975746 0)
(0 0.0103349 0)
(0 0.00980056 0)
(0 0.0100068 0)
(0 0.0105925 0)
(0 0.0112496 0)
(0 0.0107242 0)
(0 0.0109192 0)
(0 0.0114461 0)
(0 0.0118938 0)
(0 0.0113654 0)
(0 0.0114525 0)
(0 0.0119955 0)
(0 0.0122801 0)
(0 0.0117726 0)
(0 0.0118319 0)
(0 0.0123389 0)
(0 0.012408 0)
(0 0.0119037 0)
(0 0.0118793 0)
(0 0.0123858 0)
(0 0.0122801 0)
(0 0.0117726 0)
(0 0.0116896 0)
(0 0.0121976 0)
(0 0.0118938 0)
(0 0.0113654 0)
(0 0.01124 0)
(0 0.0117683 0)
(0 0.0112496 0)
(0 0.0107242 0)
(0 0.0105068 0)
(0 0.01103 0)
(0 0.0103349 0)
(0 0.00980056 0)
(0 0.00918298 0)
(0 0.00868364 0)
(0 0.00975746 0)
(0 0.00910373 0)
(0 0.00806341 0)
(0 0.00738526 0)
(0 0.00846315 0)
(0 0.00773691 0)
(0 0.00666153 0)
(0 0.00565021 0)
(0 0.004347 0)
(0 0.00696535 0)
(0 0.00302683 0)
(0 0.00182156 0)
(0 0.000849722 0)
(0 0.000205781 0)
(0 0 0)
(0 0 0)
(0 0 0)
(0 0 0)
(0 0 0)
(0 0 0)
(0 0 0)
(0 0 0)
(0 0 0)
(0 0 0)
(0 0 0)
(0 0 0)
(0 0 0)
(0 0 0)
(0 0 0)
(0 0 0)
(0 0 0)
(0 0 0)
(0 2.60957e-06 0)
(0 0.000233775 0)
(0 0.000792186 0)
(0 0.0015524 0)
(0 0.00254095 0)
(0 0.00359522 0)
(0 0.00461456 0)
(0 0.00520962 0)
(0 0.00631415 0)
(0 0.00694036 0)
(0 0.00571123 0)
(0 0.00627716 0)
(0 0.00745634 0)
(0 0.00802209 0)
(0 0.00741416 0)
(0 0.007663 0)
(0 0.00828079 0)
(0 0.00894767 0)
(0 0.00830616 0)
(0 0.00848318 0)
(0 0.00913074 0)
(0 0.00954553 0)
(0 0.00890315 0)
(0 0.00904617 0)
(0 0.00969272 0)
(0 0.0100011 0)
(0 0.00934633 0)
(0 0.00940237 0)
(0 0.0100586 0)
(0 0.0101343 0)
(0 0.00947816 0)
(0 0.00944732 0)
(0 0.0101047 0)
(0 0.0100011 0)
(0 0.00934633 0)
(0 0.00926811 0)
(0 0.00992082 0)
(0 0.00954553 0)
(0 0.00890315 0)
(0 0.00873939 0)
(0 0.00943406 0)
(0 0.00894767 0)
(0 0.00830616 0)
(0 0.00810993 0)
(0 0.00874448 0)
(0 0.00802209 0)
(0 0.00741416 0)
(0 0.00679523 0)
(0 0.00627716 0)
(0 0.00745634 0)
(0 0.00694036 0)
(0 0.00571123 0)
(0 0.00520962 0)
(0 0.00631415 0)
(0 0.00461456 0)
(0 0.00359522 0)
(0 0.00254095 0)
(0 0.0015524 0)
(0 0.000792186 0)
(0 0.000233775 0)
(0 2.60957e-06 0)
(0 0 0)
(0 0 0)
(0 0 0)
(0 0 0)
(0 0 0)
(0 0 0)
(0 0 0)
(0 0 0)
(0 0 0)
(0 0 0)
(0 0 0)
(0 0 0)
(0 0 0)
(0 0 0)
(0 0 0)
(0 0 0)
(0 0 0)
(0 0 0)
(0 0 0)
(0 0 0)
(0 0.00012277 0)
(0 0.000511334 0)
(0 0.00103586 0)
(0 0.0017442 0)
(0 0.00257906 0)
(0 0.00304114 0)
(0 0.0040523 0)
(0 0.00458298 0)
(0 0.00349396 0)
(0 0.00392614 0)
(0 0.00508511 0)
(0 0.0055477 0)
(0 0.00493106 0)
(0 0.00513099 0)
(0 0.00576107 0)
(0 0.00631663 0)
(0 0.00565287 0)
(0 0.00574811 0)
(0 0.00640245 0)
(0 0.00688553 0)
(0 0.00620427 0)
(0 0.0063236 0)
(0 0.00701166 0)
(0 0.00727746 0)
(0 0.00657535 0)
(0 0.00662256 0)
(0 0.00732725 0)
(0 0.0073998 0)
(0 0.00669299 0)
(0 0.00666047 0)
(0 0.00736722 0)
(0 0.00727746 0)
(0 0.00657535 0)
(0 0.00650957 0)
(0 0.00720806 0)
(0 0.00688553 0)
(0 0.00620427 0)
(0 0.00606813 0)
(0 0.0067415 0)
(0 0.00631663 0)
(0 0.00565287 0)
(0 0.00549285 0)
(0 0.00614649 0)
(0 0.0055477 0)
(0 0.00493106 0)
(0 0.0043272 0)
(0 0.00392614 0)
(0 0.00508511 0)
(0 0.00458298 0)
(0 0.00349396 0)
(0 0.00304114 0)
(0 0.0040523 0)
(0 0.00257906 0)
(0 0.0017442 0)
(0 0.00103586 0)
(0 0.000511334 0)
(0 0.00012277 0)
(0 0 0)
(0 0 0)
(0 0 0)
(0 0 0)
(0 0 0)
(0 0 0)
(0 0 0)
(0 0 0)
(0 0 0)
(0 0 0)
(0 0 0)
(0 0 0)
(0 0 0)
(0 0 0)
(0 0 0)
(0 0 0)
(0 0 0)
(0 0 0)
(0 0 0)
(0 0 0)
(0 0 0)
(0 0 0)
(0 0 0)
(0 1.04549e-05 0)
(0 0.000177339 0)
(0 0.000494929 0)
(0 0.00103825 0)
(0 0.00132092 0)
(0 0.00211738 0)
(0 0.00248828 0)
(0 0.00160794 0)
(0 0.00188962 0)
(0 0.00284631 0)
(0 0.00318163 0)
(0 0.00265141 0)
(0 0.00279246 0)
(0 0.00333795 0)
(0 0.00371445 0)
(0 0.00314365 0)
(0 0.00327599 0)
(0 0.00385987 0)
(0 0.0042263 0)
(0 0.0036104 0)
(0 0.00369862 0)
(0 0.00432273 0)
(0 0.00452697 0)
(0 0.00388573 0)
(0 0.00392096 0)
(0 0.00456537 0)
(0 0.00462672 0)
(0 0.00397846 0)
(0 0.00394928 0)
(0 0.00459624 0)
(0 0.00452697 0)
(0 0.00388573 0)
(0 0.00383671 0)
(0 0.0044735 0)
(0 0.0042263 0)
(0 0.0036104 0)
(0 0.00351012 0)
(0 0.00411656 0)
(0 0.00371445 0)
(0 0.00314365 0)
(0 0.00300227 0)
(0 0.00355882 0)
(0 0.00318163 0)
(0 0.00265141 0)
(0 0.00215686 0)
(0 0.00188962 0)
(0 0.00284631 0)
(0 0.00248828 0)
(0 0.00160794 0)
(0 0.00132092 0)
(0 0.00211738 0)
(0 0.00103825 0)
(0 0.000494929 0)
(0 0.000177339 0)
(0 1.04549e-05 0)
(0 0 0)
(0 0 0)
(0 0 0)
(0 0 0)
(0 0 0)
(0 0 0)
(0 0 0)
(0 0 0)
(0 0 0)
(0 0 0)
(0 0 0)
(0 0 0)
(0 0 0)
(0 0 0)
(0 0 0)
(0 0 0)
(0 0 0)
(0 0 0)
(0 0 0)
(0 0 0)
(0 0 0)
(0 0 0)
(0 0 0)
(0 0 0)
(0 0 0)
(0 0 0)
(0 1.89516e-06 0)
(0 0.000142382 0)
(0 0.000248004 0)
(0 0.000687689 0)
(0 0.000890994 0)
(0 0.000369802 0)
(0 0.000500053 0)
(0 0.0010961 0)
(0 0.00129477 0)
(0 0.000891269 0)
(0 0.000982509 0)
(0 0.0013437 0)
(0 0.00164983 0)
(0 0.00124164 0)
(0 0.00132029 0)
(0 0.00174193 0)
(0 0.00197744 0)
(0 0.00152268 0)
(0 0.00157687 0)
(0 0.00204019 0)
(0 0.00217408 0)
(0 0.00169286 0)
(0 0.00171485 0)
(0 0.00219941 0)
(0 0.00224345 0)
(0 0.00175389 0)
(0 0.00173256 0)
(0 0.0022198 0)
(0 0.00217408 0)
(0 0.00169286 0)
(0 0.00166234 0)
(0 0.0021389 0)
(0 0.00197744 0)
(0 0.00152268 0)
(0 0.00146147 0)
(0 0.00190641 0)
(0 0.00164983 0)
(0 0.00124164 0)
(0 0.00115857 0)
(0 0.00155219 0)
(0 0.00129477 0)
(0 0.000891269 0)
(0 0.000599341 0)
(0 0.000500053 0)
(0 0.0010961 0)
(0 0.000890994 0)
(0 0.000369802 0)
(0 0.000248004 0)
(0 0.000687689 0)
(0 0.000142382 0)
(0 1.89516e-06 0)
(0 0 0)
(0 0 0)
(0 0 0)
(0 0 0)
(0 0 0)
(0 0 0)
(0 0 0)
(0 0 0)
(0 0 0)
(0 0 0)
(0 0 0)
(0 0 0)
(0 0 0)
(0 0 0)
(0 0 0)
(0 0 0)
(0 0 0)
(0 0 0)
(0 0 0)
(0 0 0)
(0 0 0)
(0 0 0)
(0 0 0)
(0 0 0)
(0 0 0)
(0 0 0)
(0 0 0)
(0 0 0)
(0 0 0)
(0 0 0)
(0 0 0)
(0 6.96017e-05 0)
(0 2.51741e-05 0)
(0 0 0)
(0 0.000109448 0)
(0 0.000182848 0)
(0 5.59786e-06 0)
(0 2.4468e-05 0)
(0 0.000263498 0)
(0 0.000345221 0)
(0 5.1594e-05 0)
(0 8.21525e-05 0)
(0 0.00042244 0)
(0 0.000490314 0)
(0 0.000111932 0)
(0 0.000137438 0)
(0 0.000544837 0)
(0 0.000582931 0)
(0 0.000155974 0)
(0 0.000165707 0)
(0 0.000602509 0)
(0 0.000618173 0)
(0 0.000174021 0)
(0 0.000165707 0)
(0 0.000602509 0)
(0 0.000582931 0)
(0 0.000155974 0)
(0 0.000137438 0)
(0 0.000544837 0)
(0 0.000490314 0)
(0 0.000111932 0)
(0 8.21525e-05 0)
(0 0.00042244 0)
(0 0.000345221 0)
(0 5.1594e-05 0)
(0 2.4468e-05 0)
(0 0.000263498 0)
(0 0.000182848 0)
(0 5.59786e-06 0)
(0 0 0)
(0 0.000109448 0)
(0 6.96017e-05 0)
(0 0 0)
(0 0 0)
(0 0 0)
(0 2.51741e-05 0)
(0 0 0)
(0 0 0)
(0 0 0)
(0 0 0)
(0 0 0)
(0 0 0)
(0 0 0)
(0 0 0)
(0 0 0)
(0 0 0)
(0 0 0)
(0 0 0)
(0 0 0)
(0 0 0)
(0 0 0)
(0 0 0)
(0 0 0)
(0 0 0)
(0 0 0)
(0 0 0)
(0 0 0)
(0 0 0)
(0 0 0)
(0 0 0)
(0 0 0)
(0 0 0)
(0 0 0)
(0 0 0)
(0 0 0)
(0 0 0)
(0 0 0)
(0 0 0)
(0 0 0)
(0 0 0)
(0 0 0)
(0 0 0)
(0 0 0)
(0 0 0)
(0 0 0)
(0 0 0)
(0 5.03075e-07 0)
(0 0 0)
(0 0 0)
(0 1.936e-06 0)
(0 1.15189e-06 0)
(0 0 0)
(0 5.03075e-07 0)
(0 1.15189e-06 0)
(0 0 0)
(0 0 0)
(0 0 0)
(0 0 0)
(0 0 0)
(0 0 0)
(0 0 0)
(0 0 0)
(0 0 0)
(0 0 0)
(0 0 0)
(0 0 0)
(0 0 0)
(0 0 0)
(0 0 0)
(0 0 0)
(0 0 0)
(0 0 0)
(0 0 0)
(0 0 0)
(0 0 0)
(0 0 0)
(0 0 0)
(0 0 0)
(0 0 0)
(0 0 0)
(0 0 0)
(0 0 0)
(0 0 0)
(0 0 0)
(0 0 0)
(0 0 0)
(0 0 0)
(0 0 0)
(0 0 0)
(0 0 0)
(0 0 0)
(0 0 0)
(0 0 0)
(0 0 0)
(0 0 0)
(0 0 0)
(0 0 0)
(0 0 0)
(0 0 0)
(0 0 0)
(0 0 0)
(0 0 0)
(0 0 0)
(0 0 0)
(0 0 0)
(0 0 0)
(0 0 0)
(0 0 0)
(0 0 0)
(0 0 0)
(0 0 0)
(0 0 0)
(0 0 0)
(0 0 0)
(0 0 0)
(0 0 0)
(0 0 0)
(0 0 0)
(0 0 0)
(0 0 0)
(0 0 0)
(0 0 0)
(0 0 0)
(0 0 0)
(0 0 0)
(0 0 0)
(0 0 0)
(0 0 0)
(0 0 0)
(0 0 0)
(0 0 0)
(0 0 0)
(0 0 0)
(0 0 0)
(0 0 0)
(0 0 0)
(0 0 0)
(0 0 0)
(0 0 0)
(0 0 0)
(0 0 0)
(0 0 0)
(0 0 0)
(0 0 0)
(0 0 0)
(0 0 0)
(0 0 0)
(0 0 0)
(0 0 0)
(0 0 0)
(0 0 0)
(0 0 0)
(0 0 0)
(0 0 0)
(0 0 0)
(0 0 0)
(0 0 0)
(0 0 0)
(0 0 0)
(0 0 0)
(0 0 0)
(0 0 0)
(0 0 0)
(0 0 0)
(0 0 0)
(0 0 0)
(0 0 0)
(0 0 0)
(0 0 0)
(0 0 0)
(0 0 0)
(0 0 0)
(0 0 0)
(0 0 0)
(0 0 0)
(0 0 0)
(0 0 0)
(0 0 0)
(0 0 0)
(0 0 0)
(0 0 0)
(0 0 0)
(0 0 0)
(0 0 0)
(0 0 0)
(0 0 0)
(0 0 0)
(0 0 0)
(0 0 0)
(0 0 0)
(0 0 0)
(0 0 0)
(0 0 0)
(0 0 0)
(0 0 0)
(0 0 0)
(0 0 0)
(0 0 0)
(0 0 0)
(0 0 0)
(0 0 0)
(0 0 0)
(0 0 0)
(0 0 0)
(0 0 0)
(0 0 0)
(0 0 0)
(0 0 0)
(0 0 0)
(0 0 0)
(0 0 0)
(0 0 0)
(0 0 0)
(0 0 0)
(0 0 0)
(0 0 0)
(0 0 0)
(0 0 0)
(0 0 0)
(0 0 0)
(0 0 0)
(0 0 0)
(0 0 0)
(0 0 0)
(0 0 0)
(0 0 0)
(0 0 0)
(0 0 0)
(0 0 0)
(0 0 0)
(0 0 0)
(0 0 0)
(0 0 0)
(0 0 0)
(0 0 0)
(0 0 0)
(0 0 0)
(0 0 0)
(0 0 0)
(0 0 0)
(0 0 0)
(0 0 0)
(0 0 0)
(0 0 0)
(0 0 0)
(0 0 0)
(0 0 0)
(0 0 0)
(0 0 0)
(0 0 0)
(0 0 0)
(0 0 0)
(0 0 0)
(0 0 0)
(0 0 0)
(0 0 0)
(0 0 0)
(0 0 0)
(0 0 0)
(0 0 0)
(0 0 0)
(0 0 0)
(0 0 0)
(0 0 0)
(0 0 0)
(0 0 0)
(0 0 0)
(0 0 0)
(0 0 0)
(0 0 0)
(0 0 0)
(0 0 0)
(0 0 0)
(0 0 0)
(0 0 0)
(0 0 0)
(0 0 0)
(0 0 0)
(0 0 0)
(0 0 0)
(0 0 0)
(0 0 0)
(0 0 0)
(0 0 0)
(0 0 0)
(0 0 0)
(0 0 0)
(0 0 0)
(0 0 0)
(0 0 0)
(0 0 0)
(0 0 0)
(0 0 0)
(0 0 0)
(0 0 0)
(0 0 0)
(0 0 0)
(0 0 0)
(0 0 0)
(0 0 0)
(0 0 0)
(0 0 0)
(0 0 0)
(0 0 0)
(0 0 0)
(0 0 0)
(0 0 0)
(0 0 0)
(0 0 0)
(0 0 0)
(0 0 0)
(0 0 0)
(0 0 0)
(0 0 0)
(0 0 0)
(0 0 0)
(0 0 0)
(0 0 0)
(0 0 0)
(0 0 0)
(0 0 0)
(0 0 0)
(0 0 0)
(0 0 0)
(0 0 0)
(0 0 0)
(0 0 0)
(0 0 0)
(0 0 0)
(0 0 0)
(0 0 0)
(0 0 0)
(0 0 0)
(0 0 0)
(0 0 0)
(0 0 0)
(0 0 0)
(0 0 0)
(0 0 0)
(0 0 0)
(0 0 0)
(0 0 0)
(0 0 0)
(0 0 0)
(0 0 0)
(0 0 0)
(0 0 0)
(0 0 0)
(0 0 0)
(0 0 0)
(0 0 0)
(0 0 0)
(0 0 0)
(0 0 0)
(0 0 0)
(0 0 0)
(0 0 0)
(0 0 0)
(0 0 0)
(0 0 0)
(0 0 0)
(0 0 0)
(0 0 0)
(0 0 0)
(0 0 0)
(0 0 0)
(0 0 0)
(0 0 0)
(0 0 0)
(0 0 0)
(0 0 0)
(0 0 0)
(0 0 0)
(0 0 0)
(0 0 0)
(0 0 0)
(0 0 0)
(0 0 0)
(0 0 0)
(0 0 0)
(0 0 0)
(0 0 0)
(0 0 0)
(0 0 0)
(0 0 0)
(0 0 0)
(0 0 0)
(0 0 0)
(0 0 0)
(0 0 0)
(0 0 0)
(0 0 0)
(0 0 0)
(0 0 0)
(0 0 0)
(0 0 0)
(0 0 0)
(0 0 0)
(0 0 0)
(0 0 0)
(0 0 0)
(0 0 0)
(0 0 0)
(0 0 0)
(0 0 0)
(0 0 0)
(0 0 0)
(0 0 0)
(0 0 0)
(0 0 0)
(0 0 0)
(0 0 0)
(0 0 0)
(0 0 0)
(0 0 0)
(0 0 0)
(0 0 0)
(0 0 0)
(0 0 0)
(0 0 0)
(0 0 0)
(0 0 0)
(0 0 0)
(0 0 0)
(0 0 0)
(0 0 0)
(0 0 0)
(0 0 0)
(0 0 0)
(0 0 0)
(0 0 0)
(0 0 0)
(0 0 0)
(0 0 0)
(0 0 0)
(0 0 0)
(0 0 0)
(0 0 0)
(0 0 0)
(0 0 0)
(0 0 0)
(0 0 0)
(0 0 0)
(0 0 0)
(0 0 0)
(0 0 0)
(0 0 0)
(0 0 0)
(0 0 0)
(0 0 0)
(0 0 0)
(0 0 0)
(0 0 0)
(0 0 0)
(0 0 0)
(0 0 0)
(0 0 0)
(0 0 0)
(0 0 0)
(0 0 0)
(0 0 0)
(0 0 0)
(0 0 0)
(0 0 0)
(0 0 0)
(0 0 0)
(0 0 0)
(0 0 0)
(0 0 0)
(0 0 0)
(0 0 0)
(0 0 0)
(0 0 0)
(0 0 0)
(0 0 0)
(0 0 0)
(0 0 0)
(0 0 0)
(0 0 0)
(0 0 0)
(0 0 0)
(0 0 0)
(0 0 0)
(0 0 0)
(0 0 0)
(0 0 0)
(0 0 0)
(0 0 0)
(0 0 0)
(0 0 0)
(0 0 0)
(0 0 0)
(0 0 0)
(0 0 0)
(0 0 0)
(0 0 0)
(0 0 0)
(0 0 0)
(0 0 0)
(0 0 0)
(0 0 0)
(0 0 0)
(0 0 0)
(0 0 0)
(0 0 0)
(0 0 0)
(0 0 0)
(0 0 0)
(0 0 0)
(0 0 0)
(0 0 0)
(0 0 0)
(0 0 0)
(0 0 0)
(0 0 0)
(0 0 0)
(0 0 0)
(0 0 0)
(0 0 0)
(0 0 0)
(0 0 0)
(0 0 0)
(0 0 0)
(0 0 0)
(0 0 0)
(0 0 0)
(0 0 0)
(0 0 0)
(0 0 0)
(0 0 0)
(0 0 0)
(0 0 0)
(0 0 0)
(0 0 0)
(0 0 0)
(0 0 0)
(0 0 0)
(0 0 0)
(0 0 0)
(0 0 0)
(0 0 0)
(0 0 0)
(0 0 0)
(0 0 0)
(0 0 0)
(0 0 0)
(0 0 0)
(0 0 0)
(0 0 0)
(0 0 0)
(0 0 0)
(0 0 0)
(0 0 0)
(0 0 0)
(0 0 0)
(0 0 0)
(0 0 0)
(0 0 0)
(0 0 0)
(0 0 0)
(0 0 0)
(0 0 0)
(0 0 0)
(0 0 0)
(0 0 0)
(0 0 0)
(0 0 0)
(0 0 0)
(0 0 0)
(0 0 0)
(0 0 0)
(0 0 0)
(0 0 0)
(0 0 0)
(0 0 0)
(0 0 0)
(0 0 0)
(0 0 0)
(0 0 0)
(0 0 0)
(0 0 0)
(0 0 0)
(0 0 0)
(0 0 0)
(0 0 0)
(0 0 0)
(0 0 0)
(0 0 0)
(0 0 0)
(0 0 0)
(0 0 0)
(0 0 0)
(0 0 0)
(0 0 0)
(0 0 0)
(0 0 0)
(0 0 0)
(0 0 0)
(0 0 0)
(0 0 0)
(0 0 0)
(0 0 0)
(0 0 0)
(0 0 0)
(0 0 0)
(0 0 0)
(0 0 0)
(0 0 0)
(0 0 0)
(0 0 0)
(0 0 0)
(0 0 0)
(0 0 0)
(0 0 0)
(0 0 0)
(0 0 0)
(0 0 0)
(0 0 0)
(0 0 0)
(0 0 0)
(0 0 0)
(0 0 0)
(0 0 0)
(0 0 0)
(0 0 0)
(0 0 0)
(0 0 0)
(0 0 0)
(0 0 0)
(0 0 0)
(0 0 0)
(0 0 0)
(0 0 0)
(0 0 0)
(0 0 0)
(0 0 0)
(0 0 0)
(0 0 0)
(0 0 0)
(0 0 0)
(0 0 0)
(0 0 0)
(0 0 0)
(0 0 0)
(0 0 0)
(0 0 0)
(0 0 0)
(0 0 0)
(0 0 0)
(0 0 0)
(0 0 0)
(0 0 0)
(0 0 0)
(0 0 0)
(0 0 0)
(0 0 0)
(0 0 0)
(0 0 0)
(0 0 0)
(0 0 0)
(0 0 0)
(0 0 0)
(0 0 0)
(0 0 0)
(0 0 0)
(0 0 0)
(0 0 0)
(0 0 0)
(0 0 0)
(0 0 0)
(0 0 0)
(0 0 0)
(0 0 0)
(0 0 0)
(0 0 0)
(0 0 0)
(0 0 0)
(0 0 0)
(0 0 0)
(0 0 0)
(0 0 0)
(0 0 0)
(0 0 0)
(0 0 0)
(0 0 0)
(0 0 0)
(0 0 0)
(0 0 0)
(0 0 0)
(0 0 0)
(0 0 0)
(0 0 0)
(0 0 0)
(0 0 0)
(0 0 0)
(0 0 0)
(0 0 0)
(0 0 0)
(0 0 0)
(0 0 0)
(0 0 0)
(0 0 0)
(0 0 0)
(0 0 0)
(0 0 0)
(0 0 0)
(0 0 0)
(0 0 0)
(0 0 0)
(0 0 0)
(0 0 0)
(0 0 0)
(0 0 0)
(0 0 0)
(0 0 0)
(0 0 0)
(0 0 0)
(0 0 0)
(0 0 0)
(0 0 0)
(0 0 0)
(0 0 0)
(0 0 0)
(0 0 0)
(0 0 0)
(0 0 0)
(0 0 0)
(0 0 0)
(0 0 0)
(0 0 0)
(0 0 0)
(0 0 0)
(0 0 0)
(0 0 0)
(0 0 0)
(0 0 0)
(0 0 0)
(0 0 0)
(0 0 0)
(0 0 0)
(0 0 0)
(0 0 0)
(0 0 0)
(0 0 0)
(0 0 0)
(0 0 0)
(0 0 0)
(0 0 0)
(0 0 0)
(0 0 0)
(0 0 0)
(0 0 0)
(0 0 0)
(0 0 0)
(0 0 0)
(0 0 0)
(0 0 0)
(0 0 0)
(0 0 0)
(0 0 0)
(0 0 0)
(0 0 0)
(0 0 0)
(0 0 0)
(0 0 0)
(0 0 0)
(0 0 0)
(0 0 0)
(0 0 0)
(0 0 0)
(0 0 0)
(0 0 0)
(0 0 0)
(0 0 0)
(0 0 0)
(0 0 0)
(0 0 0)
(0 0 0)
(0 0 0)
(0 0 0)
(0 0 0)
(0 0 0)
(0 0 0)
(0 0 0)
(0 0 0)
(0 0 0)
(0 0 0)
(0 0 0)
(0 0 0)
(0 0 0)
(0 0 0)
(0 0 0)
(0 0 0)
(0 0 0)
(0 0 0)
(0 0 0)
(0 0 0)
(0 0 0)
(0 0 0)
(0 0 0)
(0 0 0)
(0 0 0)
(0 0 0)
(0 0 0)
(0 0 0)
(0 0 0)
(0 0 0)
(0 0 0)
(0 0 0)
(0 0 0)
(0 0 0)
(0 0 0)
(0 0 0)
(0 0 0)
(0 0 0)
(0 0 0)
(0 0 0)
(0 0 0)
(0 0 0)
(0 0 0)
(0 0 0)
(0 0 0)
(0 0 0)
(0 0 0)
(0 0 0)
(0 0 0)
(0 0 0)
(0 0 0)
(0 0 0)
(0 0 0)
(0 0 0)
(0 0 0)
(0 0 0)
(0 0 0)
(0 0 0)
(0 0 0)
(0 0 0)
(0 0 0)
(0 0 0)
(0 0 0)
(0 0 0)
(0 0 0)
(0 0 0)
(0 0 0)
(0 0 0)
(0 0 0)
(0 0 0)
(0 0 0)
(0 0 0)
(0 0 0)
(0 0 0)
(0 0 0)
(0 0 0)
(0 0 0)
(0 0 0)
(0 0 0)
(0 0 0)
(0 0 0)
(0 0 0)
(0 0 0)
(0 0 0)
(0 0 0)
(0 0 0)
(0 0 0)
(0 0 0)
(0 0 0)
(0 0 0)
(0 0 0)
(0 0 0)
(0 0 0)
(0 0 0)
(0 0 0)
(0 0 0)
(0 0 0)
(0 0 0)
(0 0 0)
(0 0 0)
(0 0 0)
(0 0 0)
(0 0 0)
(0 0 0)
(0 0 0)
(0 0 0)
(0 0 0)
(0 0 0)
(0 0 0)
(0 0 0)
(0 0 0)
(0 0 0)
(0 0 0)
(0 0 0)
(0 0 0)
(0 0 0)
(0 0 0)
(0 0 0)
(0 0 0)
(0 0 0)
(0 0 0)
(0 0 0)
(0 0 0)
(0 0 0)
(0 0 0)
(0 0 0)
(0 0 0)
(0 0 0)
(0 0 0)
(0 0 0)
(0 0 0)
(0 0 0)
(0 0 0)
(0 0 0)
(0 0 0)
(0 0 0)
(0 0 0)
(0 0 0)
(0 0 0)
(0 0 0)
(0 0 0)
(0 0 0)
(0 0 0)
(0 0 0)
(0 0 0)
(0 0 0)
(0 0 0)
(0 0 0)
(0 0 0)
(0 0 0)
(0 0 0)
(0 0 0)
(0 0 0)
(0 0 0)
(0 0 0)
(0 0 0)
(0 0 0)
(0 0 0)
(0 0 0)
(0 0 0)
(0 0 0)
(0 0 0)
(0 0 0)
(0 0 0)
(0 0 0)
(0 0 0)
(0 0 0)
(0 0 0)
(0 0 0)
(0 0 0)
(0 0 0)
(0 0 0)
(0 0 0)
(0 0 0)
(0 0 0)