/*--------------------------------*- C++ -*----------------------------------*\
| =========                 |                                                 |
| \\      /  F ield         | OpenFOAM: The Open Source CFD Toolbox           |
|  \\    /   O peration     | Version:  v2106                                 |
|   \\  /    A nd           | Website:  www.openfoam.com                      |
|    \\/     M anipulation  |                                                 |
\*---------------------------------------------------------------------------*/
FoamFile
{
    version     2.0;
    format      ascii;
    arch        "LSB;label=32;scalar=64";
    class       volVectorField;
    location    "0";
    object      U;
}
// * * * * * * * * * * * * * * * * * * * * * * * * * * * * * * * * * * * * * //

dimensions      [0 1 -1 0 0 0 0];

internalField   nonuniform List<vector> 
11644
(
(0.995215 -0.000211016 8.24448e-24)
(0.995113 -0.000553415 2.27358e-23)
(0.995052 -0.000811653 1.21983e-23)
(0.995036 -0.00107158 0)
(0.995031 -0.00134029 0)
(0.99503 -0.00161136 0)
(0.99503 -0.0018791 0)
(0.995031 -0.00213535 0)
(0.995033 -0.00236875 0)
(0.995036 -0.00256254 0)
(0.995016 -0.0027062 0)
(0.99501 -0.00277401 0)
(0.995087 -0.00274658 0)
(0.995227 -0.00265411 0)
(0.995082 -0.00236135 0)
(0.995081 -0.0020914 0)
(0.994847 -0.00164528 0)
(0.99447 -0.00073629 0)
(0.99443 0.000452112 0)
(0.994676 0.00139033 3.27106e-30)
(0.9948 0.00210539 -3.28264e-30)
(0.9949 0.00278665 0)
(0.995037 0.00336834 0)
(0.995148 0.00383389 0)
(0.995052 0.00412286 0)
(0.995016 0.00429233 0)
(0.995157 0.00432682 0)
(0.99498 0.00425017 0)
(0.994987 0.00406086 0)
(0.995021 0.0037862 0)
(0.995013 0.00346332 0)
(0.995021 0.00309978 0)
(0.995024 0.00272196 0)
(0.995028 0.00234048 0)
(0.995031 0.00196664 0)
(0.995035 0.00160827 0)
(0.995039 0.00126945 0)
(0.995056 0.00095389 0)
(0.995127 0.000648297 0)
(0.995246 0.000244973 1.59852e-24)
(0.995937 -0.000427565 1.059e-23)
(0.995862 -0.00129101 9.80972e-24)
(0.995808 -0.00214798 5.26849e-24)
(0.995795 -0.00299106 0)
(0.995799 -0.00382536 0)
(0.995802 -0.00465255 0)
(0.995793 -0.00546347 0)
(0.995763 -0.00623578 0)
(0.995705 -0.00693842 0)
(0.995595 -0.00753248 0)
(0.995483 -0.00795215 0)
(0.995286 -0.00815835 0)
(0.994913 -0.0080564 0)
(0.994391 -0.00754962 0)
(0.994225 -0.00670348 0)
(0.993682 -0.0053117 -3.98871e-24)
(0.992931 -0.00335247 1.31708e-23)
(0.992374 -0.000996656 -2.14502e-23)
(0.992286 0.00160454 -6.84377e-23)
(0.9925 0.00431594 7.97458e-22)
(0.992738 0.00679011 -7.39191e-22)
(0.992868 0.00889809 4.98947e-24)
(0.993123 0.0107333 2.13216e-23)
(0.993581 0.0122272 -1.06107e-23)
(0.994319 0.0132457 1.49956e-24)
(0.994866 0.0136813 0)
(0.995082 0.0137077 0)
(0.995675 0.0132414 0)
(0.995893 0.0125235 0)
(0.996008 0.0115939 0)
(0.996121 0.0104892 0)
(0.996135 0.00932218 0)
(0.996125 0.00812206 0)
(0.996088 0.00693233 0)
(0.99604 0.005776 0)
(0.995989 0.0046666 0)
(0.99595 0.00360109 0)
(0.995947 0.00255886 0)
(0.996003 0.00151657 0)
(0.996084 0.000500498 0)
(0.997394 -0.000675919 0)
(0.997341 -0.00205746 0)
(0.997307 -0.00348205 0)
(0.997305 -0.00490136 0)
(0.997319 -0.006313 9.67375e-24)
(0.997323 -0.00771482 0)
(0.997294 -0.00909219 0)
(0.997205 -0.0104134 0)
(0.997023 -0.0116326 0)
(0.996736 -0.0126734 0)
(0.996227 -0.013469 0)
(0.995538 -0.0138739 0)
(0.994769 -0.0137446 -5.37643e-25)
(0.993882 -0.0130166 9.71201e-23)
(0.992317 -0.0113739 1.45238e-22)
(0.9908 -0.00886557 -5.2948e-22)
(0.98925 -0.00556178 4.81825e-22)
(0.987964 -0.00171558 3.18423e-22)
(0.987251 0.00275591 -1.10329e-22)
(0.987244 0.00777914 9.29524e-23)
(0.987892 0.012736 -4.59717e-22)
(0.988987 0.0170021 8.62777e-22)
(0.990292 0.0202493 -6.68199e-22)
(0.991808 0.0225767 -1.39618e-22)
(0.993252 0.0240088 1.31341e-22)
(0.994781 0.0245543 -1.29294e-22)
(0.996422 0.0241836 -9.3617e-23)
(0.997088 0.0232611 5.30473e-25)
(0.997828 0.0217461 0)
(0.998293 0.01987 0)
(0.998452 0.0178428 0)
(0.998499 0.0157046 0)
(0.998419 0.0135847 0)
(0.998282 0.0115169 0)
(0.998122 0.00953203 0)
(0.997968 0.00763692 0)
(0.99784 0.00582278 0)
(0.997761 0.00407343 0)
(0.997741 0.00238555 0)
(0.997771 0.00077121 0)
(0.999612 -0.000937445 0)
(0.99957 -0.00285977 0)
(0.999563 -0.00481719 0)
(0.999584 -0.00680353 0)
(0.999614 -0.00880995 0)
(0.999622 -0.010829 0)
(0.999568 -0.0128385 0)
(0.999403 -0.0148036 0)
(0.999074 -0.0166597 0)
(0.998467 -0.0183366 0)
(0.99762 -0.0196541 -6.90399e-25)
(0.996399 -0.0204634 1.35866e-22)
(0.994539 -0.0205695 -2.09563e-22)
(0.991816 -0.0196742 2.05024e-22)
(0.989287 -0.0175962 -1.97222e-22)
(0.986248 -0.0141605 -5.99438e-22)
(0.983211 -0.00943216 1.16657e-22)
(0.980536 -0.00362158 1.91344e-21)
(0.97864 0.00336863 -1.05276e-21)
(0.978274 0.0111113 -9.86067e-22)
(0.979422 0.0187553 3.53728e-22)
(0.981808 0.025663 -1.33805e-21)
(0.984891 0.0311969 1.23907e-21)
(0.988362 0.0347937 -4.00928e-22)
(0.991929 0.0367168 7.46494e-22)
(0.995243 0.0371086 1.75932e-22)
(0.997447 0.0363691 -1.42702e-22)
(0.999866 0.0341696 8.89162e-23)
(1.00117 0.0314829 -4.50651e-23)
(1.00188 0.0284232 4.2701e-25)
(1.00222 0.0251781 0)
(1.00217 0.0219698 0)
(1.00196 0.0188313 0)
(1.00163 0.0158437 0)
(1.00128 0.0130235 0)
(1.00094 0.0103714 0)
(1.00065 0.00787618 0)
(1.00044 0.00550555 0)
(1.00032 0.00323654 0)
(1.0003 0.00107371 0)
(1.00256 -0.00122387 0)
(1.00254 -0.00368595 0)
(1.00256 -0.00619273 0)
(1.00263 -0.00874796 0)
(1.00271 -0.011357 0)
(1.00276 -0.0140322 0)
(1.00272 -0.0167573 0)
(1.00251 -0.0194973 0)
(1.00204 -0.0222013 0)
(1.00122 -0.0247218 -5.7913e-24)
(0.999825 -0.0269057 -1.41468e-22)
(0.997516 -0.0285634 -2.68004e-22)
(0.994451 -0.0292998 -3.75806e-24)
(0.990862 -0.0287852 -1.11021e-21)
(0.985608 -0.0267492 2.42956e-21)
(0.980162 -0.0227079 -2.131e-22)
(0.975014 -0.0167613 6.97923e-22)
(0.969957 -0.00877753 -1.0646e-21)
(0.965908 0.00141777 1.07724e-22)
(0.964516 0.0132209 -2.63454e-21)
(0.966455 0.0253155 3.76092e-21)
(0.971294 0.0362157 -7.92931e-22)
(0.977626 0.0446604 4.98314e-22)
(0.98524 0.0497627 -6.5903e-22)
(0.991354 0.0518173 -9.89733e-23)
(0.996785 0.0517853 -1.72455e-21)
(1.00207 0.0493277 1.00297e-21)
(1.0044 0.046135 8.96193e-23)
(1.00629 0.0417474 -8.78907e-23)
(1.00719 0.0369818 2.07356e-22)
(1.00743 0.0322679 9.25705e-24)
(1.00725 0.0277694 0)
(1.00675 0.0235733 0)
(1.00611 0.019667 0)
(1.00545 0.0160554 0)
(1.00483 0.0127143 0)
(1.0043 0.0096104 0)
(1.0039 0.00670731 0)
(1.00365 0.00394473 0)
(1.00356 0.0012791 0)
(1.00622 -0.00148731 0)
(1.00623 -0.00447512 0)
(1.00632 -0.00755368 0)
(1.00648 -0.010682 0)
(1.00667 -0.0139354 0)
(1.00683 -0.0173191 0)
(1.0069 -0.020847 0)
(1.00675 -0.0245112 0)
(1.00629 -0.0282414 5.54687e-24)
(1.00521 -0.0319105 2.49845e-22)
(1.00309 -0.0353682 -1.17459e-22)
(0.999975 -0.0382744 -6.60658e-22)
(0.995639 -0.0404487 7.41866e-22)
(0.988957 -0.0416724 -7.30174e-22)
(0.982287 -0.0402752 -6.77559e-22)
(0.973804 -0.0364697 1.16624e-21)
(0.963716 -0.0299142 5.89962e-22)
(0.954348 -0.0192286 -7.76092e-22)
(0.946863 -0.00425132 -4.71043e-21)
(0.943805 0.013118 1.03389e-20)
(0.946413 0.0310048 -8.82806e-21)
(0.953978 0.0474379 2.92281e-21)
(0.965166 0.0608042 7.09278e-22)
(0.978356 0.0682185 3.30003e-22)
(0.99027 0.0700174 -1.64663e-21)
(1.00044 0.0691037 1.08782e-21)
(1.00678 0.0657175 -1.02661e-23)
(1.01215 0.0585639 -8.08594e-22)
(1.01437 0.0518132 7.46626e-22)
(1.0149 0.0450604 1.70057e-23)
(1.01452 0.0386356 7.36531e-23)
(1.01376 0.0327696 -8.13011e-24)
(1.01277 0.0274799 0)
(1.01164 0.0227176 0)
(1.01052 0.0184156 0)
(1.00949 0.014519 0)
(1.00864 0.0109525 0)
(1.00798 0.00764739 0)
(1.00755 0.00452339 0)
(1.00737 0.00152067 0)
(1.01055 -0.00170703 0)
(1.01061 -0.00524107 0)
(1.01083 -0.00877752 0)
(1.01115 -0.0124985 0)
(1.01154 -0.0163991 0)
(1.01194 -0.0205427 0)
(1.01226 -0.0249655 0)
(1.01238 -0.0296832 -5.7619e-24)
(1.01197 -0.0346042 -6.25063e-23)
(1.01058 -0.03969 -8.94726e-24)
(1.00811 -0.0447453 -7.17569e-22)
(1.00437 -0.0497007 1.25122e-21)
(0.99914 -0.0544625 2.63016e-22)
(0.992845 -0.0579994 -4.2219e-22)
(0.981344 -0.0606031 7.59635e-22)
(0.967472 -0.0590299 -1.04056e-21)
(0.958394 -0.0466402 -2.47267e-21)
(0.943902 -0.0354215 -4.89308e-21)
(0.930784 -0.0169286 -3.32342e-21)
(0.923299 0.00723703 7.35616e-21)
(0.925 0.0334659 1.35077e-21)
(0.934879 0.0567518 -4.49854e-21)
(0.950415 0.0742586 -4.93819e-21)
(0.968108 0.0835955 -5.28417e-21)
(0.992024 0.0953559 6.76821e-22)
(1.00701 0.0911806 -5.97917e-22)
(1.01907 0.0809639 7.79908e-22)
(1.02295 0.0725855 -1.35634e-21)
(1.02538 0.0620157 -6.40475e-23)
(1.02536 0.0523662 7.08746e-22)
(1.02383 0.043897 -1.22926e-22)
(1.02186 0.0365908 5.48695e-23)
(1.0199 0.030295 -3.1492e-24)
(1.01804 0.0248223 0)
(1.01628 0.0199995 0)
(1.01473 0.0156951 0)
(1.01346 0.0118053 0)
(1.01248 0.00821508 0)
(1.01184 0.00482549 0)
(1.01155 0.00155993 0)
(1.01548 -0.0019996 0)
(1.01563 -0.00588524 0)
(1.01601 -0.00997787 0)
(1.01658 -0.0142085 0)
(1.0173 -0.0187027 0)
(1.01812 -0.0235692 0)
(1.01893 -0.0288933 0)
(1.01947 -0.0346758 6.91888e-23)
(1.01909 -0.0408685 -4.1351e-22)
(1.01784 -0.0473702 1.11403e-22)
(1.01571 -0.0542886 2.87175e-23)
(1.01241 -0.0618053 6.65632e-22)
(1.00742 -0.0695402 -5.96492e-22)
(0.997369 -0.0740777 -1.57135e-21)
(0.988115 -0.0775823 -5.1816e-22)
(0.971234 -0.0823802 2.18249e-21)
(0.947471 -0.0802313 -1.88681e-21)
(0.922807 -0.0681298 1.52048e-21)
(0.896753 -0.0438358 -1.06435e-21)
(0.879053 -0.00578561 1.47676e-21)
(0.879169 0.0392791 4.09745e-21)
(0.897297 0.0793424 8.94877e-21)
(0.927674 0.105947 1.89646e-21)
(0.960377 0.117475 -7.78659e-22)
(0.990313 0.118911 1.94514e-21)
(1.01237 0.109883 7.67579e-22)
(1.02554 0.0980821 -1.69041e-21)
(1.03963 0.0839078 -1.96393e-22)
(1.04037 0.0706847 -2.23948e-22)
(1.03874 0.0583657 5.74642e-22)
(1.03541 0.0476739 -9.35462e-23)
(1.03164 0.0388326 9.85129e-24)
(1.02803 0.0316335 -7.57904e-24)
(1.02506 0.0256739 0)
(1.0225 0.0205535 0)
(1.02031 0.0160518 0)
(1.01853 0.012026 0)
(1.01719 0.00834993 0)
(1.01631 0.0049403 0)
(1.0159 0.00164107 0)
(1.02091 -0.00203252 0)
(1.02117 -0.00632711 0)
(1.02179 -0.0107192 0)
(1.02272 -0.0153578 0)
(1.02393 -0.0204068 0)
(1.02536 -0.0259389 0)
(1.02692 -0.0320782 7.09642e-24)
(1.02795 -0.0388257 -4.36525e-23)
(1.02788 -0.0460818 1.54322e-23)
(1.02739 -0.0539337 2.16302e-22)
(1.02637 -0.0629181 -2.40399e-22)
(1.02454 -0.0734503 -4.71542e-22)
(1.02074 -0.0869271 7.84252e-22)
(1.00937 -0.0969261 3.43608e-22)
(0.998383 -0.107527 -9.76298e-22)
(0.97939 -0.121725 3.66845e-22)
(0.951301 -0.123294 -3.28562e-21)
(0.9073 -0.119636 1.13993e-21)
(0.858144 -0.0935971 -5.50337e-22)
(0.815936 -0.0362867 3.86493e-21)
(0.807436 0.0431015 -1.4982e-21)
(0.839169 0.113266 -2.16123e-21)
(0.893838 0.153377 3.89282e-21)
(0.952598 0.16508 3.72311e-21)
(0.996299 0.155742 -2.04156e-21)
(1.03195 0.139246 -1.05907e-21)
(1.04666 0.117932 1.97035e-21)
(1.06142 0.0961198 -1.55903e-22)
(1.05957 0.0767162 2.05092e-22)
(1.05508 0.0616042 3.13977e-23)
(1.04906 0.0492163 -8.08775e-23)
(1.04284 0.0391916 2.36048e-23)
(1.037 0.0312879 -2.07515e-23)
(1.03238 0.0250839 -5.97574e-24)
(1.02886 0.019972 0)
(1.02593 0.0155649 0)
(1.02361 0.0116548 0)
(1.02188 0.00812302 0)
(1.02074 0.00475544 0)
(1.02021 0.00161098 0)
(1.02665 -0.00224238 0)
(1.02707 -0.00661978 0)
(1.02798 -0.0111547 0)
(1.02937 -0.0160506 0)
(1.03122 -0.0213783 0)
(1.0335 -0.0273163 0)
(1.03597 -0.0339885 -3.93681e-24)
(1.03756 -0.0413668 -5.50292e-23)
(1.03828 -0.0493257 3.59335e-23)
(1.03922 -0.0583128 7.19454e-23)
(1.04032 -0.0692279 -1.03004e-22)
(1.04134 -0.082861 -7.57668e-23)
(1.04188 -0.100451 1.36703e-22)
(1.03437 -0.117221 -1.02287e-22)
(1.02622 -0.137517 -1.2555e-22)
(1.00354 -0.164014 1.26546e-22)
(0.969798 -0.185958 -1.58704e-22)
(0.908663 -0.209279 -5.27455e-22)
(0.810353 -0.203069 4.35079e-21)
(0.695601 -0.120699 2.65738e-21)
(0.650845 0.045757 -1.28134e-21)
(0.728829 0.200366 1.15078e-21)
(0.8596 0.260506 -1.59115e-21)
(0.963182 0.247244 -3.338e-22)
(1.03197 0.210268 -1.80909e-22)
(1.0719 0.169384 -4.38984e-22)
(1.08158 0.130654 2.74468e-22)
(1.09035 0.0988759 -2.79905e-23)
(1.08258 0.0766942 1.86291e-22)
(1.07378 0.0604523 -4.31178e-23)
(1.06414 0.0474685 -1.61053e-22)
(1.05486 0.0370499 4.08619e-23)
(1.04639 0.02901 -7.38256e-25)
(1.03964 0.0229547 1.55281e-23)
(1.03495 0.0181866 0)
(1.03125 0.0141206 0)
(1.02837 0.0105361 0)
(1.02625 0.00727891 0)
(1.0249 0.00430574 0)
(1.02425 0.00132236 0)
(1.03242 -0.0020377 0)
(1.03303 -0.00643348 0)
(1.03431 -0.011004 0)
(1.03628 -0.0158864 0)
(1.03891 -0.0212359 0)
(1.04219 -0.0272725 0)
(1.04558 -0.034068 9.1872e-24)
(1.04786 -0.041493 -3.1935e-23)
(1.04987 -0.0496989 3.17715e-23)
(1.05297 -0.059363 -4.06266e-23)
(1.05724 -0.0712289 2.95419e-23)
(1.06277 -0.0862303 1.01715e-22)
(1.06993 -0.104481 -9.52557e-23)
(1.06944 -0.127627 -1.69132e-22)
(1.0706 -0.157953 -1.99532e-22)
(1.06365 -0.199764 1.72276e-22)
(1.04087 -0.256322 -6.00686e-24)
(0.983866 -0.345989 2.02537e-22)
(0.821615 -0.446614 -2.0102e-21)
(0.457873 -0.419171 -6.11345e-20)
(0.187714 0.0676524 6.70814e-23)
(0.521789 0.519891 -3.65868e-20)
(0.89729 0.501783 1.39535e-21)
(1.06345 0.366504 7.59595e-23)
(1.12035 0.256892 -9.19367e-23)
(1.13682 0.17623 7.70725e-23)
(1.12875 0.132353 4.54316e-23)
(1.12239 0.0872756 -3.33271e-23)
(1.10755 0.0682604 3.8875e-23)
(1.09319 0.0531191 -2.31539e-23)
(1.07932 0.0411924 -9.08155e-24)
(1.0667 0.0318203 1.99694e-24)
(1.05548 0.0246093 3.28826e-23)
(1.04639 0.0192521 -1.52428e-23)
(1.04037 0.0152495 0)
(1.03599 0.0119067 0)
(1.03262 0.00896271 0)
(1.03016 0.00624691 0)
(1.02858 0.00371899 0)
(1.02781 0.00131755 0)
(1.03801 -0.002179 0)
(1.03883 -0.00606625 0)
(1.04051 -0.010239 0)
(1.04303 -0.0146944 0)
(1.04647 -0.0197091 0)
(1.05082 -0.0254275 0)
(1.0551 -0.0318315 -1.93808e-23)
(1.05819 -0.0387368 -1.07635e-23)
(1.06185 -0.0465054 -2.93296e-24)
(1.06756 -0.0558968 4.01819e-23)
(1.07545 -0.0672768 5.39491e-23)
(1.08576 -0.0810625 1.10089e-22)
(1.09991 -0.0979528 -1.65693e-22)
(1.10665 -0.122608 2.42722e-23)
(1.12483 -0.151229 2.77286e-22)
(1.14105 -0.19795 -1.23155e-22)
(1.16351 -0.267579 3.21196e-22)
(1.20053 -0.396858 1.09457e-21)
(0.881433 -0.468465 -7.82416e-20)
(1.1452 0.60293 6.48057e-20)
(1.30984 0.386551 1.0813e-22)
(1.25286 0.231591 2.23681e-22)
(1.21375 0.143479 -8.48033e-23)
(1.17946 0.10522 -6.8516e-23)
(1.1537 0.0624403 3.10251e-22)
(1.13016 0.0488738 -1.28689e-22)
(1.11003 0.0381543 -9.21939e-23)
(1.09226 0.0298655 -6.20965e-23)
(1.07679 0.0233173 -4.1094e-23)
(1.06325 0.0181108 -3.11609e-23)
(1.05204 0.0141803 -1.41279e-23)
(1.04468 0.0113298 0)
(1.03977 0.00899738 0)
(1.03605 0.00685655 0)
(1.03336 0.00487954 0)
(1.03156 0.00285133 0)
(1.03074 0.000971937 0)
(1.04304 -0.00145543 0)
(1.04407 -0.00507114 0)
(1.04611 -0.00866422 0)
(1.04924 -0.0125504 0)
(1.05349 -0.0168648 0)
(1.05885 -0.0217902 0)
(1.06389 -0.0272379 -1.45822e-24)
(1.06785 -0.0331148 2.88316e-24)
(1.07328 -0.0398576 -1.59726e-24)
(1.08145 -0.0480388 4.94385e-23)
(1.09266 -0.0578979 -3.98787e-23)
(1.10696 -0.069179 -3.74949e-23)
(1.12568 -0.0817795 3.17959e-22)
(1.13899 -0.101741 1.25063e-22)
(1.16919 -0.119634 3.94644e-21)
(1.20249 -0.149642 -1.21112e-22)
(1.25989 -0.187676 9.26059e-23)
(1.34283 -0.22514 1.88942e-21)
(0.0129762 0.014078 4.00069e-19)
(0.0613776 0.00420866 -1.94101e-19)
(1.48225 0.186601 -3.47476e-22)
(1.35074 0.123363 1.604e-22)
(1.27085 0.0714906 2.14112e-21)
(1.21842 0.0519214 3.24303e-21)
(1.17301 0.0236783 6.63032e-22)
(1.14404 0.0202414 -2.1429e-22)
(1.12035 0.0169572 1.23243e-23)
(1.10053 0.0144179 -2.4524e-23)
(1.08345 0.0121254 -7.94762e-24)
(1.06843 0.0100029 2.01192e-24)
(1.05582 0.00818611 8.44488e-24)
(1.04752 0.00684352 0)
(1.04223 0.0056418 0)
(1.03829 0.00436473 0)
(1.03551 0.00308905 0)
(1.03379 0.00191038 0)
(1.03295 0.000502307 0)
(1.04715 -0.00134081 2.68345e-25)
(1.04842 -0.00383412 0)
(1.05088 -0.00654427 0)
(1.05451 -0.00949655 0)
(1.05938 -0.0127178 0)
(1.0655 -0.0163852 0)
(1.07118 -0.0204435 -3.10876e-24)
(1.07616 -0.0249858 3.02441e-23)
(1.08332 -0.0303758 1.53701e-23)
(1.09358 -0.0369623 -2.97295e-22)
(1.10709 -0.0447699 3.56866e-22)
(1.12351 -0.0532192 2.69161e-22)
(1.14335 -0.0617769 -4.94267e-22)
(1.15834 -0.0747721 7.17095e-22)
(1.18809 -0.08053 -5.25093e-22)
(1.22231 -0.0882133 1.21905e-21)
(1.27824 -0.0877664 -5.54639e-22)
(1.20412 -0.0459319 -1.42243e-22)
(0.0875863 0.0207549 6.0473e-22)
(0.24444 0.0273164 1.7618e-20)
(1.46418 -0.00292968 -2.58041e-22)
(1.37399 -0.0045476 -5.418e-22)
(1.28676 -0.0170981 -1.77609e-21)
(1.23033 -0.0139672 -5.38558e-22)
(1.17552 -0.0211344 3.56164e-22)
(1.1455 -0.0123002 -8.43013e-23)
(1.12143 -0.00679726 -5.47192e-22)
(1.10173 -0.00268172 7.24504e-23)
(1.08489 -0.000153292 9.53821e-23)
(1.07015 0.00125297 -2.39694e-23)
(1.05732 0.00201639 -4.75402e-24)
(1.04883 0.0023748 0)
(1.04368 0.00240038 0)
(1.03986 0.00214208 0)
(1.03708 0.00166034 0)
(1.03527 0.00106787 0)
(1.03437 0.000454825 0)
(1.05089 -0.000937434 7.96989e-27)
(1.052 -0.00241022 0)
(1.05447 -0.00397991 0)
(1.05829 -0.00565265 0)
(1.06353 -0.00747543 0)
(1.07012 -0.00955303 0)
(1.07662 -0.0120014 -4.95557e-24)
(1.08274 -0.0149729 -9.36889e-24)
(1.09157 -0.0188694 -5.20955e-23)
(1.10342 -0.0237583 6.24638e-23)
(1.11818 -0.02956 5.86448e-22)
(1.13572 -0.0362655 -1.82689e-22)
(1.15472 -0.0436693 -2.85165e-22)
(1.16748 -0.0519983 3.70726e-22)
(1.18674 -0.0538371 1.31964e-21)
(1.20547 -0.0456764 3.85815e-22)
(1.23125 -0.0146572 1.92842e-21)
(1.00902 0.0951878 -3.5432e-22)
(-0.0199514 0.250242 2.5134e-21)
(-0.23136 0.409045 1.62514e-21)
(-0.042293 0.538033 6.03017e-23)
(0.234374 0.398344 -8.80674e-22)
(0.667573 0.0165148 5.42179e-22)
(1.45236 -0.140464 2.39988e-21)
(1.35454 -0.12629 -2.7268e-21)
(1.26461 -0.105075 -1.06854e-21)
(1.21203 -0.0783719 1.17128e-21)
(1.15752 -0.0616092 7.21634e-22)
(1.13229 -0.0425548 1.93946e-22)
(1.11195 -0.0288379 -6.72582e-22)
(1.09506 -0.0184141 7.29654e-24)
(1.08048 -0.0112849 1.52541e-23)
(1.06745 -0.00645424 -7.6722e-23)
(1.05594 -0.0033093 9.85244e-24)
(1.04826 -0.00137971 0)
(1.04358 -0.000317207 0)
(1.04015 0.000208515 0)
(1.03765 0.000378062 0)
(1.03599 0.000250657 0)
(1.03521 0.000134066 0)
(1.05236 0.000139718 3.23492e-23)
(1.05378 -0.00029923 0)
(1.05622 -0.000740417 0)
(1.06009 -0.00115755 0)
(1.06553 -0.00151815 0)
(1.07248 -0.00182814 0)
(1.0799 -0.00240435 1.68115e-25)
(1.08714 -0.00372511 -5.15341e-24)
(1.09727 -0.00592934 1.56123e-22)
(1.11051 -0.00906256 -3.78723e-22)
(1.12638 -0.0131385 4.55198e-22)
(1.14494 -0.0187071 -5.15813e-22)
(1.16351 -0.0254318 3.6828e-22)
(1.17397 -0.0366212 -2.4969e-22)
(1.18515 -0.0459099 3.37842e-22)
(1.18271 -0.0525691 -1.09715e-21)
(1.14551 -0.0339348 -1.01582e-21)
(0.650675 0.094085 -7.78195e-21)
(-0.256003 0.260793 2.43372e-21)
(-0.318406 0.258415 6.07671e-21)
(0.163032 0.0923957 -4.37653e-21)
(0.61454 -0.0872013 -7.32896e-22)
(1.22525 -0.337841 3.22835e-22)
(1.38916 -0.332884 -5.31006e-21)
(1.28412 -0.245368 6.30581e-24)
(1.20485 -0.180629 -1.2689e-21)
(1.16631 -0.127736 -1.60588e-21)
(1.1211 -0.0897344 5.4592e-22)
(1.10564 -0.0629072 -3.08059e-22)
(1.09252 -0.0436113 -9.18239e-22)
(1.08122 -0.0288691 1.00624e-21)
(1.07089 -0.0184716 -4.73269e-22)
(1.06104 -0.0111671 2.9265e-23)
(1.05209 -0.00663099 1.397e-24)
(1.0462 -0.00405548 0)
(1.04245 -0.0024882 0)
(1.0396 -0.00146786 0)
(1.03753 -0.000843073 0)
(1.03618 -0.00036369 0)
(1.03572 -0.000173759 5.93022e-23)
(1.05177 0.000397091 1.46329e-22)
(1.05328 0.00142077 0)
(1.05592 0.0025071 0)
(1.0598 0.00355841 0)
(1.06516 0.00474937 0)
(1.0721 0.00624564 0)
(1.0802 0.00772777 0)
(1.08885 0.00832084 -9.67389e-25)
(1.09981 0.00801686 -2.86057e-23)
(1.11392 0.00712429 3.57914e-24)
(1.13109 0.00548115 1.09934e-23)
(1.15151 0.00172855 1.36298e-22)
(1.17427 -0.00319917 -2.778e-22)
(1.20008 -0.0177024 1.31122e-22)
(1.20635 -0.0380866 2.7558e-22)
(1.21657 -0.0753536 -4.9048e-22)
(1.14709 -0.121644 -1.36094e-23)
(0.460091 -0.107181 -7.73873e-20)
(-0.181808 -0.213423 -6.78841e-22)
(-0.0674011 -0.449905 -3.04116e-21)
(0.393292 -0.598069 -9.70276e-21)
(0.843783 -0.715485 -1.00209e-20)
(1.1996 -0.68522 -6.82499e-22)
(1.19674 -0.464199 2.42427e-21)
(1.12803 -0.310718 1.81043e-21)
(1.11117 -0.220797 -2.73152e-21)
(1.07758 -0.142809 -6.02578e-22)
(1.07427 -0.0972109 1.88704e-22)
(1.07081 -0.0686088 -1.61887e-23)
(1.06677 -0.0476571 -1.44288e-22)
(1.06276 -0.031716 4.06447e-23)
(1.05806 -0.0202024 4.8977e-23)
(1.05247 -0.0121723 3.07037e-23)
(1.04717 -0.00705038 0)
(1.04345 -0.00438319 0)
(1.0408 -0.00283871 0)
(1.03868 -0.00177247 0)
(1.03708 -0.0011007 0)
(1.03604 -0.000563391 0)
(1.03549 -0.000168853 -3.76401e-23)
(1.05009 0.000839225 3.63082e-24)
(1.05134 0.00282493 0)
(1.05372 0.00512323 0)
(1.05731 0.00761102 0)
(1.06228 0.0103856 0)
(1.06881 0.0136478 0)
(1.07712 0.0173194 0)
(1.08702 0.0204965 0)
(1.09896 0.0229746 5.65956e-24)
(1.11348 0.0252154 -1.27189e-23)
(1.1317 0.0275894 -1.18557e-23)
(1.15447 0.0286755 -1.01817e-22)
(1.1829 0.0299393 -2.93802e-23)
(1.21844 0.0272645 2.54155e-22)
(1.24512 -0.00118856 6.47987e-22)
(1.29759 -0.0379246 4.52173e-22)
(1.25884 -0.124173 -1.09398e-21)
(0.652405 -0.289742 1.85428e-21)
(0.200485 -0.579699 9.20896e-21)
(0.179884 -0.809142 -5.22894e-21)
(0.463299 -0.879694 6.4511e-21)
(0.780814 -0.800781 -9.29962e-21)
(0.901007 -0.628388 7.14187e-21)
(0.938255 -0.456032 2.09962e-20)
(0.975401 -0.291914 4.14384e-22)
(1.00635 -0.201586 1.44382e-21)
(1.01161 -0.12085 -4.54389e-22)
(1.02611 -0.0810792 7.17119e-22)
(1.03514 -0.0573119 -4.06395e-23)
(1.04064 -0.0393179 -2.09858e-22)
(1.04353 -0.0259554 7.71876e-23)
(1.04403 -0.0162418 -2.88968e-23)
(1.04321 -0.00932143 0)
(1.04202 -0.00511579 0)
(1.04067 -0.00314124 0)
(1.03915 -0.00203116 0)
(1.0377 -0.00127257 1.52705e-23)
(1.03649 -0.000779325 2.11181e-23)
(1.0356 -0.000442821 1.25929e-23)
(1.0351 -5.35795e-05 0)
(1.04699 0.00131475 0)
(1.048 0.00413669 0)
(1.04996 0.0072395 0)
(1.05297 0.0107464 0)
(1.05717 0.0148024 0)
(1.06282 0.0196233 0)
(1.07062 0.0253521 0)
(1.0808 0.0314258 0)
(1.09308 0.0376273 -3.38416e-26)
(1.10742 0.0443747 1.52864e-24)
(1.12521 0.0526726 -1.39068e-23)
(1.14818 0.0619555 -9.41891e-23)
(1.17802 0.0744049 -4.73427e-22)
(1.21854 0.0906204 -4.24247e-22)
(1.26508 0.0783489 2.32534e-21)
(1.34839 0.079582 -1.06269e-21)
(1.40385 0.0308808 -2.31075e-21)
(1.05317 -0.142579 -3.16478e-21)
(0.587193 -0.451648 6.24038e-22)
(0.385406 -0.70649 3.62663e-21)
(0.410588 -0.790021 1.51628e-21)
(0.540071 -0.677373 -2.2302e-21)
(0.666282 -0.479315 2.14919e-21)
(0.747609 -0.318879 2.74932e-22)
(0.844547 -0.203271 -6.06339e-22)
(0.917494 -0.135728 -7.53486e-23)
(0.957925 -0.0627797 8.74294e-23)
(0.987551 -0.0428539 -1.03001e-22)
(1.0086 -0.0290891 4.29769e-23)
(1.0215 -0.0193664 1.34236e-23)
(1.02923 -0.0121464 -8.46157e-25)
(1.03361 -0.00689567 -3.96066e-26)
(1.0364 -0.0032315 0)
(1.03821 -0.00134942 0)
(1.03869 -0.00071538 0)
(1.03791 -0.00040895 0)
(1.0368 -0.000211613 0)
(1.0358 -8.39402e-05 0)
(1.0351 -6.35999e-05 0)
(1.03477 -5.62317e-05 -2.268e-24)
(1.04279 0.00161566 0)
(1.04349 0.00501466 0)
(1.04493 0.00870293 0)
(1.04718 0.0128655 0)
(1.0503 0.0177747 0)
(1.05458 0.0236891 0)
(1.06101 0.0308767 0)
(1.07014 0.0392024 0)
(1.08116 0.0488199 0)
(1.09357 0.0602685 0)
(1.10828 0.0749625 -2.66868e-24)
(1.12701 0.0930537 -2.2451e-23)
(1.15063 0.117473 2.54826e-24)
(1.18432 0.149368 -7.95806e-23)
(1.2328 0.165837 5.29621e-21)
(1.30524 0.215313 8.49673e-22)
(1.41842 0.258594 5.71427e-21)
(1.33118 0.246369 2.93928e-21)
(1.00784 0.0555717 -1.34074e-21)
(0.688937 -0.194361 8.56004e-21)
(0.46748 -0.364564 -1.60949e-21)
(0.363683 -0.391557 -1.45639e-20)
(0.40686 -0.298678 -5.45336e-22)
(0.569036 -0.167177 1.01688e-21)
(0.782193 -0.0639187 -2.94667e-22)
(0.862983 -0.031254 -6.20507e-23)
(0.931169 0.0187117 1.3391e-22)
(0.972741 0.0110931 -1.43074e-22)
(0.999664 0.00999829 3.09369e-23)
(1.01536 0.00702736 1.08803e-23)
(1.02467 0.00554045 0)
(1.03043 0.00458379 0)
(1.03451 0.00391658 0)
(1.03748 0.00299733 0)
(1.03854 0.00204405 0)
(1.03784 0.00136013 0)
(1.03669 0.000886306 0)
(1.0357 0.000549348 0)
(1.03501 0.000274444 0)
(1.03458 2.46715e-05 0)
(1.03803 0.00167203 0)
(1.03835 0.00529227 0)
(1.03915 0.00924283 0)
(1.04046 0.0137343 0)
(1.04228 0.0190357 0)
(1.0449 0.0254003 0)
(1.04944 0.0331808 0)
(1.05643 0.0425659 0)
(1.06453 0.0541615 0)
(1.07279 0.0686592 0)
(1.08163 0.0876192 0)
(1.09197 0.111679 -1.20102e-24)
(1.10444 0.143447 -4.26724e-24)
(1.12188 0.185092 -1.41123e-23)
(1.15604 0.224344 1.73241e-21)
(1.18775 0.293341 8.1612e-22)
(1.27238 0.390642 9.96561e-23)
(1.31228 0.525782 1.90128e-21)
(1.16983 0.596695 4.1147e-22)
(0.919103 0.556639 -1.14924e-21)
(0.657355 0.437162 -2.08288e-21)
(0.461988 0.280382 5.33305e-21)
(0.415038 0.128864 -8.36302e-22)
(0.506999 0.0334453 -4.27241e-22)
(0.70248 0.0721116 -3.64271e-22)
(0.853926 0.0990183 -1.73812e-21)
(0.949896 0.101356 -1.93899e-22)
(0.991405 0.0661811 -2.04511e-23)
(1.01407 0.0477049 8.44225e-24)
(1.02517 0.031448 0)
(1.03121 0.0211858 0)
(1.03482 0.0142918 0)
(1.03765 0.00965537 0)
(1.03995 0.00630358 0)
(1.04036 0.00397111 0)
(1.03908 0.002417 0)
(1.03752 0.00138601 0)
(1.03626 0.000702138 0)
(1.03538 0.000290299 0)
(1.03478 3.22681e-05 0)
(1.03315 0.00168598 0)
(1.03306 0.00518195 0)
(1.03318 0.00895893 0)
(1.03353 0.0132297 0)
(1.03406 0.0182322 0)
(1.03496 0.0242108 0)
(1.03728 0.0316425 0)
(1.04141 0.0409808 0)
(1.04546 0.0529794 0)
(1.04825 0.06834 0)
(1.04985 0.0884191 3.25874e-23)
(1.05014 0.114381 0)
(1.05012 0.147734 0)
(1.05082 0.191803 1.12071e-22)
(1.04999 0.251855 1.62812e-21)
(1.0621 0.308619 2.96272e-21)
(1.05817 0.403003 5.88671e-22)
(1.0599 0.541791 -6.11162e-22)
(1.02062 0.668745 -6.71448e-22)
(0.923334 0.732343 -5.8216e-21)
(0.809477 0.719325 -6.19722e-21)
(0.723157 0.624958 -8.70288e-22)
(0.69408 0.478797 -3.22627e-22)
(0.691437 0.328871 -2.40975e-23)
(0.692729 0.229663 -2.58968e-23)
(0.909681 0.233146 1.91959e-21)
(1.01101 0.153 2.60209e-21)
(1.04338 0.103433 0)
(1.04992 0.0708291 0)
(1.04913 0.0456278 -3.63352e-23)
(1.04715 0.0298123 0)
(1.04536 0.0191532 0)
(1.04473 0.0119795 0)
(1.04479 0.00713794 0)
(1.04354 0.00409676 0)
(1.04114 0.00222088 0)
(1.03883 0.00107322 0)
(1.03706 0.000414551 -2.51325e-24)
(1.0358 0.000109632 -1.80303e-24)
(1.03496 7.14643e-07 0)
(1.0284 0.00158653 0)
(1.02811 0.00454064 0)
(1.02782 0.00766844 0)
(1.02748 0.0110993 0)
(1.02693 0.0150782 0)
(1.02623 0.0198275 0)
(1.02616 0.0259102 0)
(1.02693 0.0340945 0)
(1.0266 0.045028 0)
(1.02388 0.0592113 0)
(1.01849 0.0776257 9.31432e-23)
(1.00964 0.10183 0)
(0.997455 0.132394 0)
(0.981695 0.173347 -8.28471e-22)
(0.968957 0.22678 -5.67794e-21)
(0.951983 0.287943 9.92566e-22)
(0.921315 0.345486 0)
(0.889531 0.417354 -2.53142e-23)
(0.849189 0.502158 -5.84529e-21)
(0.808523 0.585317 -2.98086e-21)
(0.775982 0.623396 -4.09509e-21)
(0.786499 0.618772 -3.05225e-22)
(0.820926 0.592078 4.70019e-22)
(0.856975 0.522645 0)
(0.885863 0.393675 1.50421e-22)
(1.03731 0.259678 2.31664e-23)
(1.11118 0.157244 -2.69552e-21)
(1.11468 0.106123 0)
(1.09603 0.0691142 0)
(1.07984 0.0435961 1.51398e-22)
(1.0676 0.0275795 0)
(1.059 0.0165729 0)
(1.05377 0.00917244 0)
(1.0505 0.00445981 0)
(1.04692 0.00187739 0)
(1.04308 0.000506888 4.54682e-24)
(1.0399 -0.000158205 -5.90852e-24)
(1.03755 -0.000362846 0)
(1.03594 -0.000276079 0)
(1.03498 -6.81253e-05 -1.38848e-23)
(1.02463 0.00104022 0)
(1.02441 0.00309404 0)
(1.024 0.00516046 0)
(1.02325 0.00735468 0)
(1.02194 0.00984392 0)
(1.01997 0.0127635 0)
(1.01766 0.0165966 -2.23571e-24)
(1.01509 0.0222962 0)
(1.01074 0.0304337 0)
(1.00332 0.041258 0)
(0.991924 0.0554498 0)
(0.975342 0.0745408 0)
(0.952185 0.0993055 0)
(0.924698 0.13306 -8.28931e-23)
(0.893035 0.17838 7.30874e-23)
(0.85927 0.243292 2.58944e-23)
(0.815172 0.321752 0)
(0.763727 0.406456 0)
(0.728376 0.489742 -1.04503e-21)
(0.727954 0.567422 -2.77086e-20)
(0.760019 0.585273 6.19698e-21)
(0.818873 0.576985 -6.1058e-21)
(0.895228 0.5128 0)
(0.9895 0.420909 0)
(1.08464 0.285862 0)
(1.1963 0.167621 -3.93537e-24)
(1.21348 0.0931139 -9.30604e-22)
(1.17545 0.0626186 1.12706e-23)
(1.13458 0.0385013 0)
(1.10577 0.0232594 0)
(1.08506 0.0128675 0)
(1.07081 0.00563525 0)
(1.06139 0.000893934 1.99529e-23)
(1.05478 -0.00165514 8.1767e-24)
(1.04896 -0.00248909 4.11932e-25)
(1.04389 -0.0025628 0)
(1.03999 -0.00223941 0)
(1.03721 -0.00169293 0)
(1.03542 -0.00100948 0)
(1.03451 -0.000330249 0)
(1.02275 0.000269524 0)
(1.0225 0.00117178 0)
(1.02202 0.00195638 0)
(1.0211 0.00274434 0)
(1.01951 0.00348865 0)
(1.01693 0.00421227 0)
(1.01315 0.00515937 0)
(1.00808 0.00710186 0)
(1.00076 0.0105063 6.83025e-24)
(0.989872 0.0153961 0)
(0.973696 0.0220906 0)
(0.950443 0.0314094 0)
(0.919304 0.0458932 1.73131e-22)
(0.876192 0.0653978 -3.70469e-21)
(0.81364 0.101575 0)
(0.752668 0.156577 0)
(0.700101 0.217593 0)
(0.659694 0.267212 0)
(0.651498 0.303811 -3.97093e-21)
(0.700294 0.329499 -5.86567e-21)
(0.795567 0.310434 -8.5302e-20)
(0.906797 0.303154 3.87812e-20)
(1.02884 0.219106 0)
(1.14787 0.144762 0)
(1.2425 0.0491483 0)
(1.30133 -6.10048e-05 0)
(1.26061 -0.0151933 -1.02642e-21)
(1.19825 -0.0105314 -4.91169e-22)
(1.15011 -0.0109346 0)
(1.11659 -0.0101891 -5.71814e-25)
(1.09263 -0.0108954 -1.60028e-23)
(1.07585 -0.0112063 -5.81424e-24)
(1.06405 -0.0110098 0)
(1.05533 -0.00987959 0)
(1.04831 -0.00811789 0)
(1.04278 -0.00638461 0)
(1.03869 -0.00476153 0)
(1.03582 -0.0032925 0)
(1.03401 -0.0019289 0)
(1.03311 -0.000624804 0)
(1.02266 -0.000157301 0)
(1.02228 -0.000432157 0)
(1.02186 -0.000902982 0)
(1.02114 -0.00156966 0)
(1.01988 -0.00264653 0)
(1.01758 -0.00424257 0)
(1.01363 -0.00639585 0)
(1.00781 -0.00881685 0)
(0.999604 -0.0114925 0)
(0.987805 -0.0148301 0)
(0.970058 -0.0191551 3.27499e-23)
(0.943177 -0.0249594 8.51738e-23)
(0.902604 -0.0289058 -7.69177e-21)
(0.845779 -0.0275351 -1.09405e-20)
(0.770469 -0.0159113 0)
(0.704968 -0.0121211 0)
(0.66863 -0.0207752 0)
(0.647058 -0.0404852 0)
(0.655081 -0.0675265 -1.27618e-20)
(0.725707 -0.0918941 2.12245e-20)
(0.85494 -0.13011 -2.73787e-20)
(0.990411 -0.125961 1.0933e-19)
(1.12369 -0.176776 0)
(1.23217 -0.181863 0)
(1.28805 -0.193018 0)
(1.29333 -0.159797 0)
(1.23193 -0.118292 1.72518e-21)