/*--------------------------------*- C++ -*----------------------------------*\
| =========                 |                                                 |
| \\      /  F ield         | OpenFOAM: The Open Source CFD Toolbox           |
|  \\    /   O peration     | Version:  v2106                                 |
|   \\  /    A nd           | Website:  www.openfoam.com                      |
|    \\/     M anipulation  |                                                 |
\*---------------------------------------------------------------------------*/
FoamFile
{
    version     2.0;
    format      ascii;
    arch        "LSB;label=32;scalar=64";
    class       volScalarField;
    location    "0";
    object      p;
}
// * * * * * * * * * * * * * * * * * * * * * * * * * * * * * * * * * * * * * //

dimensions      [0 2 -2 0 0 0 0];

internalField   nonuniform List<scalar> 
11644
(
0.0745262
0.0749065
0.0757093
0.0769434
0.0785987
0.0806695
0.0831491
0.0860243
0.0892695
0.0928405
0.0966708
0.100666
0.104697
0.108595
0.112157
0.115198
0.117453
0.118706
0.118855
0.117871
0.115711
0.112341
0.107865
0.102544
0.0966615
0.0904723
0.0841962
0.0780221
0.0721335
0.0666512
0.0616506
0.0571848
0.053274
0.0499154
0.047096
0.0447954
0.0429909
0.0416666
0.0408138
0.0404106
0.0738833
0.0742623
0.0750461
0.0762491
0.0778777
0.0799339
0.0824153
0.0853144
0.0886125
0.0922774
0.0962536
0.100449
0.10474
0.10895
0.112885
0.116266
0.118866
0.12045
0.120833
0.119878
0.11756
0.113977
0.10926
0.103564
0.0972071
0.090548
0.083875
0.0774109
0.0713014
0.0656795
0.0606172
0.0561389
0.0522494
0.0489353
0.0461736
0.043937
0.0421987
0.0409329
0.0401158
0.039721
0.0724067
0.072807
0.0735974
0.0747864
0.0763944
0.0784369
0.0809256
0.0838676
0.0872652
0.0911069
0.0953595
0.0999644
0.104809
0.10972
0.114439
0.118689
0.122146
0.124514
0.125442
0.124658
0.122048
0.117825
0.112261
0.105623
0.0982763
0.0906466
0.083132
0.0760227
0.0695006
0.0636427
0.058477
0.0539983
0.050172
0.0469584
0.0443128
0.0421904
0.0405507
0.0393547
0.0385676
0.0381719
0.0701392
0.0705425
0.0713342
0.0725149
0.0741054
0.0761339
0.0786298
0.0816237
0.0851459
0.0892235
0.0938729
0.0990586
0.10469
0.110583
0.116574
0.122276
0.127178
0.130995
0.132991
0.132673
0.129793
0.12454
0.117348
0.108832
0.0997976
0.0906238
0.0817819
0.0737119
0.0665655
0.0603984
0.0551418
0.0507087
0.0470152
0.0439748
0.0415098
0.039554
0.0380495
0.0369493
0.0362181
0.0358486
0.0671204
0.0675077
0.0682719
0.0694167
0.0709663
0.0729558
0.0754316
0.0784517
0.082082
0.0863945
0.0914331
0.0972038
0.103713
0.110963
0.118753
0.126682
0.133963
0.140356
0.144206
0.144804
0.141595
0.134822
0.12511
0.113553
0.101843
0.0902428
0.0795171
0.0701111
0.062193
0.0556834
0.0504131
0.0461547
0.0427175
0.0399614
0.0377714
0.0360576
0.0347498
0.0337969
0.0331692
0.0328529
0.0633924
0.0637423
0.0644407
0.065502
0.0669527
0.0688366
0.0712154
0.0741729
0.0778088
0.0821999
0.0874126
0.0936023
0.101002
0.10969
0.119926
0.131238
0.142438
0.152896
0.160243
0.162877
0.159308
0.149734
0.135785
0.119415
0.103661
0.0884882
0.0752855
0.0645305
0.0558947
0.0491842
0.0440622
0.0401804
0.0372092
0.0349097
0.0331315
0.0317675
0.0307453
0.0300128
0.0295359
0.029301
0.0590109
0.0593002
0.0598913
0.0608009
0.0620639
0.0637312
0.0658753
0.0685943
0.0719844
0.0761131
0.0811571
0.0874404
0.0952964
0.105546
0.118752
0.134165
0.145652
0.161597
0.174853
0.182489
0.181159
0.170155
0.152058
0.130989
0.103415
0.0834409
0.0674819
0.0554764
0.0468453
0.0404787
0.0359086
0.0327078
0.0304736
0.0288629
0.0276755
0.0268013
0.0261673
0.025727
0.0254451
0.0253028
0.054042
0.0542624
0.0547032
0.0553844
0.0563473
0.0576411
0.0593437
0.0615491
0.064317
0.0677439
0.0720986
0.0778204
0.0855638
0.0954244
0.109525
0.127567
0.151947
0.178308
0.203976
0.220781
0.220982
0.202727
0.171809
0.137603
0.104508
0.0796055
0.0613581
0.0415965
0.0339087
0.0289643
0.02577
0.023777
0.022618
0.0219633
0.0215677
0.0213283
0.0211844
0.021099
0.0210517
0.0210329
0.0486283
0.0487494
0.0489868
0.049365
0.0499015
0.0506458
0.0516618
0.0530128
0.0547252
0.0569326
0.0598841
0.0639198
0.069689
0.0817369
0.0954954
0.116444
0.143737
0.18603
0.231335
0.270926
0.280977
0.251563
0.198401
0.141279
0.0970692
0.0596172
0.0407013
0.0206292
0.0165867
0.0144652
0.0136081
0.0135285
0.0138883
0.0144672
0.0150626
0.015591
0.0160282
0.0163576
0.0165743
0.0166746
0.0429677
0.0429578
0.0429485
0.0429277
0.042916
0.0429415
0.0430319
0.0431898
0.043392
0.0437175
0.0443141
0.0452493
0.0464917
0.0565881
0.0649671
0.0846447
0.115158
0.167441
0.250848
0.350558
0.39314
0.32828
0.212862
0.119238
0.0546316
0.0153069
0.00470743
-0.00731133
-0.00517307
-0.00279121
-0.000168595
0.00239423
0.0047201
0.00678217
0.00851771
0.00990234
0.0109667
0.0117388
0.0122347
0.012475
0.0372337
0.0371086
0.0368115
0.0363474
0.0357103
0.0348797
0.0338497
0.0325413
0.0308446
0.0286586
0.0258816
0.0224056
0.0178166
0.0206206
0.0180722
0.0218444
0.0319833
0.0571189
0.15138
0.386311
0.583259
0.364724
0.107235
-0.00927744
-0.048017
-0.0561402
-0.0457921
-0.0407218
-0.0300695
-0.0213804
-0.0143591
-0.00871223
-0.00416518
-0.00051059
0.00239257
0.00463545
0.00631783
0.00751999
0.00828839
0.00866081
0.0317925
0.0314836
0.0308626
0.029929
0.0286303
0.0269034
0.0246724
0.0217729
0.0180223
0.0131154
0.00660329
-0.00201849
-0.0132515
-0.0176076
-0.0376562
-0.0568408
-0.0967638
-0.189111
-0.44452
-0.552196
-0.304448
-0.199407
-0.142437
-0.101021
-0.0741146
-0.0535504
-0.0383468
-0.0270172
-0.0184084
-0.0117898
-0.00670362
-0.00278403
0.000198152
0.00241597
0.0039833
0.0049906
0.00546158
0.0268659
0.0263711
0.0254514
0.0240685
0.0221513
0.0195936
0.0162313
0.0118605
0.00624536
-0.0010469
-0.0106631
-0.0235865
-0.0406119
-0.0515945
-0.0835185
-0.118111
-0.182372
-0.307922
-0.43554
-0.754533
-0.515009
-0.315496
-0.206409
-0.143477
-0.0958076
-0.0693174
-0.0499517
-0.0356739
-0.0250496
-0.0170669
-0.0110511
-0.00648694
-0.00303998
-0.000484369
0.00133509
0.00251861
0.0031513
0.0225661
0.0219212
0.0207927
0.0190756
0.0166838
0.013486
0.00926348
0.00381491
-0.0031041
-0.0119928
-0.0234816
-0.0387401
-0.0584814
-0.0747918
-0.108463
-0.144319
-0.196783
-0.263278
-0.288437
-0.629113
-0.515767
-0.338958
-0.218526
-0.153922
-0.0987867
-0.072835
-0.0530722
-0.038342
-0.0273835
-0.0191664
-0.0129942
-0.00832553
-0.00477545
-0.00213818
-0.000243354
0.000998036
0.00164677
0.0186912
0.0182191
0.0170355
0.0151672
0.0125394
0.00902448
0.00440736
-0.00153712
-0.0090108
-0.0185329
-0.0305995
-0.0463875
-0.0663234
-0.0847636
-0.118521
-0.154779
-0.201012
-0.240126
-0.235789
-0.3171
-0.460919
-0.674033
-0.684486
-0.469151
-0.285923
-0.178999
-0.12941
-0.0829282
-0.0625806
-0.0467162
-0.0344246
-0.0250757
-0.0178577
-0.0123851
-0.00819079
-0.0049409
-0.00250071
-0.000741717
0.000408115
0.000909212
0.0159401
0.0155143
0.014403
0.0125994
0.0100251
0.006566
0.00208386
-0.00365972
-0.0108845
-0.0200044
-0.0315074
-0.0462981
-0.0652267
-0.0853011
-0.119847
-0.169597
-0.228944
-0.322037
-0.372531
-0.442498
-0.517348
-0.554829
-0.410779
-0.239218
-0.157794
-0.10026
-0.0802527
-0.0513977
-0.0410621
-0.0323223
-0.0249163
-0.0186817
-0.013523
-0.00945241
-0.00619216
-0.00360841
-0.0016536
-0.000251316
0.000647821
0.00112789
0.0147171
0.0142223
0.0131839
0.0115673
0.00928364
0.00624955
0.00234276
-0.0026685
-0.00893846
-0.0167465
-0.0265551
-0.0392479
-0.0559411
-0.0783598
-0.108187
-0.158488
-0.232159
-0.37455
-0.538828
-0.615699
-0.554442
-0.331401
-0.0823819
-0.00118562
0.0028479
-0.0128727
-0.0127602
-0.0146309
-0.0148663
-0.0137748
-0.0118753
-0.00943887
-0.00702562
-0.00470607
-0.00263108
-0.000911327
0.000418127
0.00137932
0.00200589
0.00227885
0.0146791
0.0142231
0.0133536
0.0120619
0.0102667
0.00789347
0.00486158
0.00101192
-0.00377212
-0.00963443
-0.0169298
-0.0264042
-0.0390687
-0.056509
-0.0841994
-0.123276
-0.183358
-0.287959
-0.452959
-0.570707
-0.522279
-0.272823
0.000276275
0.113171
0.0873858
0.049414
0.0255029
0.0152587
0.00751034
0.00348208
0.00144472
0.000598749
0.000520103
0.00107603
0.00189618
0.00272181
0.0034502
0.00402428
0.0043953
0.00446771
0.0155799
0.0152612
0.0146586
0.0137672
0.012548
0.0109683
0.00900943
0.00662748
0.00373509
0.000250629
-0.00398079
-0.00949107
-0.0171191
-0.0275709
-0.0496113
-0.0720241
-0.112414
-0.162433
-0.239238
-0.314505
-0.304647
-0.172699
-0.00579479
0.0983396
0.0922259
0.0654298
0.0430051
0.0292057
0.0201067
0.0145739
0.0109434
0.00870865
0.00740332
0.00680554
0.00664072
0.00670718
0.00687003
0.00702421
0.0071353
0.00721643
0.0171322
0.0169786
0.0166663
0.0161822
0.0155471
0.0147772
0.0139294
0.0130547
0.012143
0.0110954
0.00992567
0.00833349
0.00580533
0.00172231
-0.0137329
-0.0263726
-0.0546918
-0.0898679
-0.130351
-0.167978
-0.174646
-0.131083
-0.0517191
0.0154926
0.0355433
0.0414008
0.0356945
0.0277901
0.022663
0.0187553
0.0158384
0.0138326
0.0124697
0.0115451
0.0108964
0.0104951
0.0102572
0.0101147
0.0100634
0.0101093
0.0190094
0.0189619
0.0188652
0.0187381
0.0186291
0.0185868
0.0186844
0.0190064
0.0196426
0.0206227
0.0220197
0.0237736
0.0254802
0.0260057
0.0160503
0.00777389
-0.013239
-0.0480357
-0.103516
-0.17018
-0.219532
-0.221479
-0.175259
-0.105998
-0.0415608
0.00191808
0.0174915
0.0188404
0.0201551
0.0189634
0.0179409
0.0169244
0.0159781
0.0151232
0.0144087
0.0138782
0.0134933
0.0132354
0.0130978
0.0130548
0.02087
0.0208604
0.020927
0.0210899
0.021394
0.0218961
0.0226584
0.0237814
0.0253898
0.0277514
0.0308797
0.0348885
0.0392425
0.0434322
0.0439739
0.0311986
0.00942123
-0.041388
-0.128917
-0.239854
-0.324514
-0.333039
-0.274578
-0.179482
-0.0879446
-0.017462
0.00153645
0.0117729
0.0173217
0.0189578
0.0194612
0.0192514
0.0186952
0.0180403
0.0174327
0.0169243
0.0165162
0.0162162
0.0160196
0.0159118
0.0225569
0.0226111
0.022805
0.023159
0.0237109
0.0245379
0.0256996
0.0272997
0.0294936
0.032568
0.0365004
0.0414269
0.0469109
0.0527085
0.0488017
0.0324289
-0.00557845
-0.0676226
-0.150652
-0.234131
-0.280139
-0.267204
-0.201379
-0.12631
-0.0613833
-0.0219741
-0.000555006
0.0117747
0.0177274
0.0204898
0.0215044
0.0216172
0.0212865
0.0207816
0.0202282
0.0196964
0.0192424
0.0188924
0.0186568
0.0185443
0.0239993
0.0241359
0.0244039
0.0248439
0.0255006
0.026455
0.0277685
0.0295456
0.0318721
0.0349679
0.0388578
0.0432834
0.0480403
0.0515969
0.0435594
0.0231299
-0.0132975
-0.063858
-0.116043
-0.153298
-0.163827
-0.149716
-0.113459
-0.0706116
-0.0314845
-0.00767682
0.00799412
0.016921
0.0214505
0.0236492
0.024347
0.0243124
0.0239288
0.0233873
0.0227763
0.0221764
0.0216544
0.0212409
0.0209506
0.020825
0.0250915
0.0252494
0.0255526
0.0260199
0.0266842
0.0275885
0.028769
0.0303131
0.0321953
0.0345075
0.0371401
0.0393285
0.0399818
0.0368682
0.0248334
0.00286408
-0.0311823
-0.0700747
-0.102542
-0.114681
-0.104517
-0.0847783
-0.056079
-0.0272116
-0.00382275
0.010536
0.0194613
0.024393
0.0268788
0.027775
0.0276942
0.0271677
0.0264358
0.0256646
0.024915
0.0242461
0.0236836
0.023246
0.0229279
0.0227413
0.0258803
0.0260209
0.026307
0.0267289
0.0272937
0.0279944
0.028828
0.0297852
0.030788
0.0316901
0.032111
0.0311013
0.0266649
0.0165058
-0.00308513
-0.0302358
-0.062546
-0.0955936
-0.118112
-0.121382
-0.10636
-0.07709
-0.042243
-0.0133073
0.00768785
0.020267
0.0272955
0.0306272
0.0319379
0.0317289
0.0309212
0.0298072
0.0286281
0.0275462
0.0266194
0.0258627
0.025263
0.0248141
0.0245081
0.0243006
0.026474
0.0266101
0.0268298
0.027135
0.0275245
0.0279526
0.0283745
0.0287314
0.0287671
0.0284088
0.0267946
0.0230265
0.0148406
-0.000967424
-0.0272963
-0.0611248
-0.103803
-0.139335
-0.165022
-0.164236
-0.13851
-0.0987492
-0.0535321
-0.0190592
0.00584099
0.0221719
0.0311707
0.03495
0.0355507
0.034712
0.0333279
0.0317865
0.0302808
0.0289885
0.0279187
0.0270634
0.0263961
0.0259112
0.0256
0.0254903
0.0269066
0.0270029
0.0271552
0.027353
0.0275808
0.0277894
0.0279207
0.0278689
0.027358
0.0260895
0.0233153
0.0180683
0.00781039
-0.00965087
-0.040183
-0.0788901
-0.126236
-0.166537
-0.1953
-0.196773
-0.158738
-0.113384
-0.0649181
-0.0276131
0.000742802
0.0211088
0.0326182
0.0373367
0.0376569
0.0361077
0.0344679
0.0327519
0.0312045
0.0298863
0.028796
0.0279105
0.0272246
0.0267376
0.026444
0.0263995
0.0272108
0.0272555
0.0273613
0.0275
0.0276488
0.0277548
0.0277476
0.0275355
0.026866
0.0254677
0.0225216
0.0172918
0.00755587
-0.00864502
-0.0354029
-0.0693258
-0.109843
-0.145433
-0.173935
-0.179131
-0.146261
-0.108149
-0.0657157
-0.0296629
-0.00127192
0.0187724
0.0306642
0.036571
0.0377152
0.0360105
0.0344376
0.0328385
0.03143
0.0302353
0.0292472
0.0284532
0.0278527
0.0274368
0.0271831
0.0270715
0.0274723
0.0275134
0.0276133
0.0277418
0.0278739
0.0279591
0.0279312
0.0277237
0.0271588
0.0260054
0.0237223
0.0198223
0.0125012
0.00072315
-0.0184048
-0.042777
-0.0704439
-0.0973919
-0.118852
-0.125833
-0.114263
-0.0915996
-0.0616243
-0.0317995
-0.0064299
0.0123513
0.0253283
0.0326677
0.0351242
0.0345424
0.0334316
0.0322083
0.0310681
0.0300657
0.0292466
0.0285949
0.0281026
0.0277518
0.0275156
0.0273553
0.0277053
0.0277994
0.0278948
0.0280117
0.028133
0.0282414
0.0282851
0.0282063
0.0279145
0.027294
0.0260512
0.0236371
0.0191959
0.0117282
-0.000404859
-0.0176388
-0.0375457
-0.0584952
-0.0747114
-0.0846896
-0.0879428
-0.0796453
-0.0604853
-0.0372556
-0.0152004
0.00311659
0.0170892
0.0257925
0.0300541
0.031259
0.0312401
0.0307379
0.0300424
0.0293439
0.0287407
0.0282372
0.0278342
0.0275291
0.0273243
0.0272208
0.0277817
0.0278616
0.0279621
0.0280922
0.0282431
0.0284199
0.0286058
0.0287719
0.0288521
0.0287804
0.0282831
0.0269798
0.0243084
0.0191859
0.0106662
-0.00294178
-0.0211958
-0.041547
-0.0606089
-0.0748392
-0.0806418
-0.0785568
-0.0652676
-0.0473779
-0.028214
-0.010337
0.00478136
0.0161445
0.0232197
0.0265356
0.0279996
0.0284532
0.0284206
0.0281751
0.027887
0.0275832
0.0273129
0.0270953
0.0269584
0.026918
0.0276566
0.0276599
0.0277538
0.0279144
0.0281383
0.0284252
0.028778
0.0292053
0.029649
0.0300912
0.0301509
0.0295921
0.0275779
0.0230382
0.0148312
0.00147826
-0.0180554
-0.0411009
-0.0667999
-0.0869997
-0.0956953
-0.0949336
-0.0842295
-0.0681691
-0.0480884
-0.0266657
-0.00778769
0.0067918
0.0165156
0.0217726
0.0246507
0.0260044
0.0266636
0.0269375
0.0269984
0.0269385
0.0268406
0.0267367
0.0266563
0.0266019
0.027487
0.0274411
0.0275132
0.0276746
0.0279328
0.0282944
0.0287451
0.0293168
0.0299925
0.0306658
0.0312798
0.031213
0.0288888
0.023783
0.0142032
-9.35609e-05
-0.0205813
-0.0458373
-0.076423
-0.1028
-0.119483
-0.11932
-0.106439
-0.0882748
-0.063417
-0.0376648
-0.0159301
0.000713265
0.0118989
0.0183128
0.0220653
0.0240628
0.025239
0.0258694
0.0261813
0.0263176
0.0263664
0.0263453
0.0262992
0.0262227
0.0272407
0.0272586
0.0273326
0.0274724
0.0277056
0.0280353
0.0284563
0.0289909
0.0296302
0.0303099
0.0311559
0.0307545
0.0280674
0.0223514
0.0120525
-0.00268266
-0.0229507
-0.0474007
-0.0772129
-0.103239
-0.125134
-0.122902
-0.107277
-0.0879243
-0.0607693
-0.0366236
-0.0156303
6.93054e-05
0.0106439
0.0170767
0.0209125
0.0230943
0.0243876
0.0251013
0.0255042
0.0257139
0.0258135
0.025836
0.0258265
0.0257691
0.0267492
0.0268405
0.0269392
0.0270689
0.0272503
0.0274987
0.0278199
0.0282144
0.0286644
0.029111
0.0292921
0.0281283
0.0245806
0.0182359
0.00794062
-0.00655966
-0.0250516
-0.0466895
-0.0699097
-0.0880628
-0.100717
-0.0968058
-0.0820312
-0.0644027
-0.0430353
-0.0241106
-0.00800669
0.00429927
0.0127119
0.0180203
0.0211873
0.0230267
0.0241163
0.024734
0.0250852
0.0252689
0.0253519
0.0253726
0.0253727
0.0253682
0.0260319
0.0260974
0.0261743
0.0262752
0.0264031
0.0265651
0.026752
0.0269387
0.0270387
0.0269393
0.0261779
0.0240213
0.0194572
0.0117637
0.000919596
-0.0125565
-0.0286988
-0.0460064
-0.0609248
-0.068846
-0.0693854
-0.0631944
-0.0523079
-0.0374938
-0.0225455
-0.00879303
0.0027256
0.0113034
0.0169682
0.0204207
0.0223921
0.0235773
0.0242785
0.0247218
0.024954
0.0250689
0.0251151
0.025124
0.0251203
0.0251187
0.0252278
0.0252148
0.0252341
0.0252789
0.0253301
0.0253687
0.0253593
0.0252443
0.0248282
0.0239257
0.0220651
0.018387
0.0124289
0.00386092
-0.00718739
-0.019861
-0.0335437
-0.0469448
-0.0567271
-0.0588452
-0.0533865
-0.0456101
-0.0343276
-0.0206621
-0.00756418
0.00345517
0.0121177
0.0178091
0.021137
0.0229267
0.0238672
0.0243733
0.0246596
0.0248395
0.0249244
0.0249549
0.024964
0.0249556
0.0249356
0.0249062
0.0244699
0.0244291
0.024409
0.024387
0.0243324
0.0242032
0.0239368
0.0234374
0.0224813
0.0207743
0.0177019
0.0123525
0.00429988
-0.00615317
-0.0185406
-0.0313555
-0.0435376
-0.0542646
-0.0615468
-0.0614229
-0.0571651
-0.0451896
-0.0295717
-0.0141778
-0.000384786
0.0105908
0.0180492
0.0222214
0.0241855
0.0249563
0.0251651
0.0251079
0.0250021
0.0248965
0.024794
0.0247116
0.0246506
0.0246061
0.024579
0.0245774
0.0237788
0.0237923
0.0237666
0.0236883
0.0235292
0.0232392
0.0227321
0.0219177
0.0205399
0.0181643
0.0141392
0.00759236
-0.00223952
-0.0151061
-0.0308085
-0.0460771
-0.0600098
-0.0705889
-0.0778141
-0.0769756
-0.0673698
-0.0506146
-0.0306524
-0.0130273
0.00199008
0.0130373
0.0205166
0.0242408
0.0259341
0.0262955
0.0259596
0.0255401
0.0251077
0.0247625
0.0245049
0.0243187
0.02419
0.0241205
0.0241016
0.0241571
0.0231061
0.0231639
0.0231276
0.0230179
0.0227987
0.0224232
0.0218064
0.0208773
0.0193096
0.0167591
0.0124727
0.00553523
-0.00473629
-0.0184138
-0.0352659
-0.052643
-0.0688109
-0.0806491
-0.0898728
-0.0894161
-0.0728079
-0.0526744
-0.0311043
-0.0130311
0.00180677
0.0126316
0.0200264
0.0238865
0.0259343
0.0264831
0.0258679
0.0253467
0.0248381
0.0244317
0.0241353
0.0239228
0.0237792
0.0237058
0.0236879
0.023734
0.022456
0.0224761
0.0224294
0.0223294
0.0221273
0.0217894
0.0212548
0.0203867
0.0189519
0.0166508
0.0128466
0.00684314
-0.00188338
-0.0133927
-0.0278838
-0.0436273
-0.059375
-0.0710037
-0.0816688
-0.0827589
-0.0670175
-0.0505467
-0.0312724
-0.0148802
-0.000842229
0.00966777
0.0171375
0.0216506
0.0240899
0.0250024
0.0248752
0.0245322
0.0241465
0.0238633
0.0236393
0.0234774
0.0233677
0.0233005
0.0232588
0.0232272
0.0219318
0.0219044
0.0218684
0.0218007
0.0216687
0.0214288
0.0210436
0.020415
0.0193965
0.0177304
0.0149447
0.0106191
0.00419546
-0.00409225
-0.0143222
-0.0261752
-0.0387135
-0.0492754
-0.0573891
-0.0600816
-0.0554531
-0.0453813
-0.0322342
-0.018616
-0.00619865
0.00386517
0.011638
0.017068
0.0204847
0.0222995
0.0229647
0.0230748
0.0229945
0.0228985
0.0228049
0.0227324
0.0226804
0.0226387
0.0225984
0.0225447
0.0215871
0.0215805
0.0215616
0.0215203
0.0214417
0.0213046
0.0210835
0.0207277
0.0201803
0.0192287
0.0176999
0.0151092
0.0109355
0.00515922
-0.00220413
-0.0111664
-0.0209868
-0.0304927
-0.0380887
-0.0426621
-0.0445517
-0.0412171
-0.0330916
-0.022607
-0.0120861
-0.00266572
0.00535212
0.0115796
0.0159747
0.0187311
0.0203081
0.0210506
0.0214138
0.0215879
0.0216584
0.0216881
0.0217018
0.0217091
0.0217196
0.021724
0.0212668
0.0212817
0.0212839
0.0212731
0.0212512
0.0212195
0.0211656
0.0210824
0.0209208
0.0206415
0.0200577
0.0188438
0.0163934
0.0121824
0.00589773
-0.00241346
-0.0122522
-0.0224927
-0.0319225
-0.0386205
-0.0410907
-0.0409326
-0.0356876
-0.0276985
-0.0187788
-0.0099658
-0.00171063
0.00511928
0.0106345
0.0147097
0.0173216
0.0188575
0.0197342
0.020213
0.0204802
0.0206352
0.0207207
0.0207807
0.0208329
0.0209018
0.0208381
0.0208194
0.0208219
0.0208442
0.0208927
0.0209736
0.0210892
0.0212625
0.0214497
0.0216671
0.0217824
0.0213795
0.0198814
0.0166824
0.0108138
0.00240745
-0.00867504
-0.0206234
-0.0328251
-0.0422472
-0.0478573
-0.0491528
-0.0451106
-0.0382759
-0.0294982
-0.0200096
-0.0103415
-0.0015496
0.00576783
0.0111969
0.01476
0.0169566
0.0182606
0.0190347
0.0195203
0.0198144
0.0199855
0.0200852
0.0201453
0.0201864
0.0203645
0.0203043
0.0203005
0.0203401
0.0204349
0.0205878
0.0208124
0.0211279
0.0215217
0.0219762
0.0225603
0.0222752
0.0209376
0.0183765
0.0130498
0.00508887
-0.00576423
-0.0187418
-0.0334777
-0.0470423
-0.0584663
-0.0608913
-0.0564208
-0.0494438
-0.0395999
-0.0280568
-0.0163571
-0.00565545
0.00270842
0.00890103
0.0131095
0.0156457
0.0171741
0.018171
0.018803
0.0191957
0.019427
0.0195489
0.0195987
0.0195671
0.0198945
0.0198701
0.0198779
0.0199169
0.0200051
0.0201488
0.0203647
0.0206496
0.0210561
0.0214546
0.0218596
0.0214524
0.0199267
0.0171718
0.0121866
0.00479318
-0.00530869
-0.0177511
-0.032511
-0.0465481
-0.060059
-0.062427
-0.0570936
-0.0497909
-0.0388269
-0.0270869
-0.0152239
-0.00498832
0.00289998
0.00872579
0.0126509
0.0151113
0.0166366
0.0176157
0.0182233
0.0186076
0.0188435
0.0189758
0.0190269
0.0189776
0.0193337
0.0193688
0.0193961
0.0194253
0.019466
0.0195296
0.0196332
0.0197644
0.0199259
0.0199482
0.0196145
0.0186074
0.0164728
0.0128999
0.00749197
0.000238437
-0.00895074
-0.0194713
-0.031019
-0.0407859
-0.048624
-0.0487862
-0.0437584
-0.0365959
-0.0265544
-0.0168691
-0.00764499
-4.24043e-05
0.00595527
0.0105289
0.0135305
0.0154497
0.0166412
0.0173857
0.0178481
0.018134
0.0183051
0.0183962
0.018441
0.0184471
0.0186282
0.0186546
0.0186515
0.0186372
0.0186106
0.0185753
0.0185119
0.0183996
0.01818
0.0176843
0.0165923
0.0146339
0.0115101
0.00707865
0.00115293
-0.00591775
-0.0140276
-0.0221993
-0.0294242
-0.0338737
-0.0344211
-0.0317589
-0.0266086
-0.0199105
-0.0123434
-0.00516376
0.00117264
0.00622672
0.0103605
0.0133103
0.0151675
0.0163408
0.0170389
0.0174677
0.0177307
0.0178951
0.0179838
0.0180301
0.0180573
0.0180875
0.0178392
0.0177958
0.0177419
0.0176771
0.0175871
0.0174498
0.0172226
0.0168315
0.0161642
0.0150272
0.0131561
0.0103298
0.00642704
0.00138039
-0.00478691
-0.0115795
-0.0186544
-0.0247962
-0.0286277
-0.0294337
-0.0274899
-0.0228677
-0.0166399
-0.00975916
-0.0028599
0.00316516
0.00807951
0.0117724
0.0144076
0.0159451
0.0168278
0.0172859
0.0175294
0.0176748
0.0177649
0.017823
0.0178534
0.0178667
0.017867
0.0178588
0.017114
0.0170336
0.0169556
0.0168565
0.0167085
0.0164675
0.0160751
0.0154193
0.0143391
0.0125285
0.0097607
0.00581106
0.000750201
-0.00521906
-0.011983
-0.0188597
-0.0253178
-0.0302986
-0.0325851
-0.0311672
-0.0279428
-0.0216384
-0.0136587
-0.0053736
0.00245056
0.00857144
0.0131008
0.0159483
0.017485
0.0180317
0.0180998
0.0180028
0.0178714
0.0177756
0.0177088
0.0176587
0.0176274
0.017607
0.017592
0.0175762
0.0165202
0.0164988
0.0164363
0.0163167
0.0161094
0.0157646
0.0152205
0.0143568
0.0129383
0.0106576
0.00711216
0.00208548
-0.00455031
-0.0123145
-0.0206731
-0.0285678
-0.0354274
-0.0400645
-0.0417237
-0.0384756
-0.0309255
-0.0218351
-0.0115561
-0.00171763
0.00642434
0.0123903
0.0164113
0.0184126
0.0192916
0.0192895
0.0187563
0.0183408
0.017935
0.0176486
0.0174368
0.0172923
0.017203
0.0171597
0.0171505
0.0171811
0.0160068
0.0160495
0.016004
0.0158826
0.0156425
0.0152501
0.0146232
0.013707
0.012171
0.00976428
0.00600762
0.000689517
-0.00651536
-0.0152195
-0.0246476
-0.0334626
-0.0413183
-0.0461761
-0.0478411
-0.0436135
-0.0326389
-0.0210231
-0.00920214
0.000983471
0.00860459
0.0139136
0.017228
0.0187123
0.0193892
0.0193052
0.0187085
0.0181835
0.0176807
0.0173276
0.0170546
0.0168785
0.0167694
0.0167228
0.0167171
0.0167695
0.0155118
0.0155476
0.0155062
0.0153986
0.0151956
0.01487
0.0143351
0.0135094
0.0121775
0.0100688
0.00692303
0.00250226
-0.00347154
-0.0109918
-0.0193554
-0.0276615
-0.0352177
-0.0402763
-0.0422254
-0.0391247
-0.0307202
-0.020633
-0.010013
-0.00108659
0.00586297
0.0110312
0.0144615
0.0164295
0.017555
0.0178351
0.0176677
0.0173918
0.0170526
0.0167915
0.0166013
0.0164761
0.0163986
0.0163573
0.0163366
0.0163329
0.0150972
0.0150832
0.0150546
0.0149978
0.0148847
0.0146888
0.0143632
0.0138249
0.0129479
0.0115515
0.00936174
0.00628561
0.00232889
-0.00272923
-0.00870692
-0.0150112
-0.0210802
-0.0258719
-0.0289335
-0.0291245
-0.026032
-0.0201775
-0.0131802
-0.00649925
-0.000262327
0.00496325
0.0090619
0.0119924
0.0139371
0.0150989
0.0157011
0.0159227
0.0159333
0.0159084
0.0158816
0.0158634
0.0158541
0.0158429
0.0158225
0.0157857
0.0148517
0.0148376
0.0148312
0.0148184
0.0147847
0.0147156
0.0145919
0.014375
0.0139866
0.0133185
0.0121628
0.0103239
0.00783006
0.00459477
0.000510833
-0.00425244
-0.00935943
-0.0139115
-0.0180377
-0.0209371
-0.0211546
-0.0196874
-0.016289
-0.0115365
-0.00602277
-0.000929747
0.00358264
0.00725302
0.0100032
0.0119784
0.0132858
0.014034
0.0144501
0.0147069
0.0148652
0.0149614
0.0150276
0.0150732
0.0151021
0.0151023
0.0146669
0.0146877
0.0147074
0.0147284
0.0147475
0.0147718
0.0148048
0.0148389
0.0148312
0.0147354
0.0144053
0.0135867
0.0120144
0.00963405
0.00624381
0.00185335
-0.00339246
-0.00871973
-0.0138522
-0.0180492
-0.0199607
-0.0210918
-0.0197398
-0.0160812
-0.0113229
-0.00634424
-0.00155147
0.00271673
0.00616331
0.00885243
0.0108475
0.0121779
0.0130101
0.0135288
0.0138448
0.0140366
0.0141614
0.0142528
0.0143275
0.0143986
0.0143811
0.0143901
0.0144134
0.014456
0.0145263
0.0146343
0.014797
0.0150294
0.0153175
0.0156411
0.0159756
0.0159543
0.0151701
0.0135334
0.0106133
0.00637076
0.00076455
-0.00595084
-0.0125187
-0.0185655
-0.0231722
-0.0264848
-0.0263498
-0.0234135
-0.0188833
-0.0134782
-0.00777489
-0.00237498
0.00234148
0.00609924
0.00884602
0.0107187
0.0119107
0.0126421
0.0130879
0.0133689
0.0135461
0.01366
0.0137392
0.0138037
0.0139971
0.0139611
0.0139708
0.0140204
0.0141275
0.0143012
0.0145558
0.0148968
0.0153664
0.0159159
0.0165956
0.0170324
0.0169151
0.0161477
0.01408
0.0104454
0.00511321
-0.00250994
-0.0110632
-0.0194803
-0.027313
-0.0329056
-0.0334687
-0.0304004
-0.0257436
-0.0195124
-0.0127672
-0.00613064
-0.000249717
0.00428005
0.00755725
0.00978893
0.011173
0.0120565
0.0126115
0.012955
0.0131716
0.013289
0.0133385
0.0133314
0.0136057
0.0135713
0.0135803
0.0136268
0.0137286
0.0138971
0.0141531
0.0144881
0.0149597
0.0154679
0.016003
0.0163474
0.0162873
0.0156565
0.0139092
0.0106574
0.00579285
-0.00138895
-0.0100824
-0.0190083
-0.0268626
-0.0328639
-0.0334228
-0.029563
-0.0251581
-0.0187863
-0.0121203
-0.00560803
-6.33363e-06
0.00428236
0.00738911
0.00950827
0.0108486
0.0117123
0.0122462
0.0125938
0.0128042
0.0129121
0.0129474
0.0129019
0.0131768
0.0131928
0.0132153
0.0132477
0.0133029
0.0133921
0.0135214
0.0136916
0.0139003
0.0140185
0.013991
0.0136338
0.0128
0.0113683
0.00912884
0.00572283
0.00131473
-0.00419171
-0.0105833
-0.016895
-0.0215723
-0.0243887
-0.0234788
-0.0202642
-0.0160781
-0.0109327
-0.00573453
-0.000862517
0.00309741
0.00615642
0.00844451
0.00999367
0.0109831
0.0116272
0.0120266
0.0122694
0.0124056
0.0124835
0.0125155
0.0125007
0.0126304
0.0126588
0.0126619
0.0126512
0.0126278
0.0125977
0.0125546
0.0124647
0.012295
0.011907
0.0111737
0.00995193
0.00823117
0.00591091
0.00295773
-0.000604984
-0.00458295
-0.00863335
-0.0118434
-0.0141841
-0.0152642
-0.0145976
-0.012211
-0.00909148
-0.00552028
-0.00170813
0.00176359
0.00474907
0.00705171
0.00885406
0.0101816
0.0110026
0.0115297
0.0118363
0.0120137
0.0121135
0.0121585
0.0121781
0.0121887
0.0122079
0.0119776
0.0119498
0.0119057
0.0118441
0.0117554
0.0116212
0.0114068
0.0110658
0.0105265
0.00966191
0.00837719
0.00655215
0.00416261
0.00117972
-0.00226362
-0.00586871
-0.00934131
-0.0122036
-0.0132384
-0.01265
-0.0115574
-0.00902155
-0.00582859
-0.00233742
0.00116138
0.00442008
0.00698605
0.00892527
0.0102982
0.011245
0.0117621
0.0120094
0.0121153
0.0121365
0.0121252
0.0121118
0.0120932
0.0120709
0.0120529
0.0120471
0.0113583
0.0112873
0.0112092
0.0111107
0.0109753
0.0107655
0.0104307
0.00988448
0.00901587
0.00769425
0.00579471
0.0033099
0.000134149
-0.00366174
-0.00774335
-0.0116901
-0.0148542
-0.0168194
-0.0165721
-0.0138522
-0.0106758
-0.00705838
-0.00287549
0.00141754
0.00528619
0.00844797
0.0106659
0.0120202
0.0127522
0.0129708
0.0128397
0.012655
0.0124546
0.0122803
0.0121464
0.012051
0.0119874
0.0119392
0.0119032
0.0118724
0.0108649
0.0108271
0.0107614
0.0106553
0.0104864
0.0102148
0.0097848
0.00909081
0.0079511
0.00620256
0.00368104
0.000257293
-0.0041008
-0.00906572
-0.0140859
-0.0186186
-0.0217397
-0.0231742
-0.021815
-0.0171045
-0.0114257
-0.00557383
0.000382996
0.00575137
0.00962763
0.012325
0.0138639
0.0144757
0.0144681
0.0139556
0.013392
0.0128773
0.0124578
0.0121475
0.0119208
0.0117591
0.0116544
0.0115936
0.011566
0.0115678
0.010452
0.0104778
0.0104438
0.0103479
0.0101676
0.00985891
0.00938335
0.00862123
0.00738548
0.00545279
0.00268555
-0.00117893
-0.00609975
-0.0116037
-0.0170737
-0.0219537
-0.0253411
-0.026556
-0.0248137
-0.0187363
-0.0117259
-0.00439833
0.00278341
0.00855064
0.0121875
0.0143735
0.015273
0.015307
0.014795
0.0139917
0.013313
0.0126855
0.0121819
0.0118089
0.0115296
0.0113448
0.0112258
0.0111657
0.0111514
0.0111884
0.0100563
0.0100993
0.0100761
0.00999849
0.00984533
0.00957802
0.0091555
0.00848835
0.00742218
0.00578321
0.00348203
0.0003088
-0.00375112
-0.00840935
-0.0131507
-0.017388
-0.0204952
-0.0218544
-0.0208815
-0.0164296
-0.0108556
-0.00474766
0.00134416
0.00619713
0.00944947
0.0115822
0.0126933
0.0131306
0.0130679
0.0127428
0.0123938
0.0119682
0.0115944
0.0113026
0.011088
0.0109479
0.0108592
0.0108142
0.0107988
0.010814
0.00970029
0.00970495
0.00968904
0.00965354
0.00957734
0.00943529
0.0091898
0.00878695
0.00813704
0.00714055
0.00567705
0.00380574
0.00136593
-0.00158622
-0.00476916
-0.00787155
-0.0103948
-0.0123366
-0.0131096
-0.0117479
-0.00921391
-0.00598487
-0.00257619
0.000648639
0.0034318
0.00578173
0.00752971
0.00882032
0.00972008
0.010283
0.010558
0.0106253
0.0105994
0.0105383
0.0104831
0.010449
0.0104291
0.0104163
0.0104014
0.0103743
0.00944002
0.00942996
0.00943935
0.00945519
0.00946558
0.00946202
0.00942911
0.00933219
0.00912262
0.00875653
0.00810587
0.00724067
0.00600533
0.00433307
0.00230715
-8.53401e-05
-0.00212913
-0.00445378
-0.00633716
-0.0073503
-0.00756301
-0.00730287
-0.00628668
-0.00445136
-0.00209014
0.000396322
0.00266236
0.00464677
0.0062856
0.00752603
0.00840306
0.00895559
0.00930285
0.00950255
0.00962887
0.00971049
0.00976268
0.00979468
0.00980477
0.00979647
0.00925688
0.0092783
0.00931508
0.00936532
0.00942935
0.00951667
0.0096275
0.00975878
0.00987275
0.00995426
0.00989321
0.00963327
0.00905016
0.0080657
0.00657344
0.00446513
0.00212919
-0.00039896
-0.00278446
-0.00522719
-0.00732309
-0.00914686
-0.00970128
-0.00874556
-0.0067737
-0.00413082
-0.00142296
0.00117447
0.00337453
0.00510067
0.0064138
0.00736299
0.00801257
0.00843972
0.00870911
0.00888251
0.00899719
0.00907964
0.00914148
0.00918692
0.00901176