/*--------------------------------*- C++ -*----------------------------------*\
| =========                 |                                                 |
| \\      /  F ield         | OpenFOAM: The Open Source CFD Toolbox           |
|  \\    /   O peration     | Version:  v2106                                 |
|   \\  /    A nd           | Website:  www.openfoam.com                      |
|    \\/     M anipulation  |                                                 |
\*---------------------------------------------------------------------------*/
FoamFile
{
    version     2.0;
    format      ascii;
    arch        "LSB;label=32;scalar=64";
    class       volVectorField;
    location    "0";
    object      U;
}
// * * * * * * * * * * * * * * * * * * * * * * * * * * * * * * * * * * * * * //

dimensions      [0 1 -1 0 0 0 0];

internalField   nonuniform List<vector> 
11644
(
(0.992915 -0.000222853 -2.48493e-23)
(0.992805 -0.000582073 -6.85269e-23)
(0.992743 -0.000848113 -3.67664e-23)
(0.992727 -0.001121 0)
(0.99272 -0.0014063 0)
(0.992716 -0.00169951 0)
(0.992712 -0.00199035 0)
(0.992708 -0.00226812 0)
(0.992704 -0.00251994 0)
(0.992692 -0.00273416 0)
(0.9927 -0.00288606 0)
(0.992671 -0.00296489 0)
(0.992671 -0.00294073 0)
(0.992816 -0.00281039 0)
(0.992656 -0.00252871 0)
(0.992657 -0.0021543 0)
(0.992623 -0.00167156 0)
(0.992403 -0.0010253 0)
(0.992165 -0.000140969 0)
(0.99212 0.000960781 3.35296e-30)
(0.992319 0.00204622 -3.36826e-30)
(0.992642 0.00291634 0)
(0.992839 0.00344754 0)
(0.992806 0.00374473 0)
(0.992712 0.00395502 0)
(0.992724 0.00411071 0)
(0.992916 0.00415892 0)
(0.992754 0.00407535 0)
(0.992684 0.00390506 0)
(0.99271 0.00364058 0)
(0.992734 0.00331993 0)
(0.992727 0.00297505 0)
(0.99273 0.00260904 0)
(0.992729 0.00224387 0)
(0.992728 0.0018862 0)
(0.992729 0.00154287 0)
(0.992733 0.00121672 0)
(0.992752 0.000911065 0)
(0.992819 0.000611691 0)
(0.992924 0.000229881 -4.81802e-24)
(0.993677 -0.000459956 -3.19187e-23)
(0.993592 -0.00138395 -2.9567e-23)
(0.993529 -0.0023093 -1.58795e-23)
(0.993517 -0.00321798 0)
(0.993529 -0.00412505 0)
(0.993538 -0.00503877 0)
(0.993534 -0.00595145 0)
(0.993508 -0.00684114 0)
(0.993449 -0.00767528 0)
(0.993359 -0.00840991 0)
(0.993189 -0.00899988 0)
(0.992988 -0.00935675 0)
(0.992672 -0.00943582 0)
(0.992069 -0.00916027 0)
(0.991872 -0.00844008 0)
(0.991371 -0.00727679 1.10095e-24)
(0.990857 -0.0056311 -5.42428e-24)
(0.99044 -0.00364152 -8.86594e-23)
(0.990045 -0.00141564 -1.74608e-23)
(0.989794 0.00101243 6.831e-22)
(0.989821 0.0036056 -5.82214e-22)
(0.990223 0.0062407 -3.78993e-23)
(0.990976 0.00861525 4.08163e-23)
(0.991713 0.0102964 3.35333e-24)
(0.992218 0.0112974 -4.33014e-25)
(0.992583 0.0117846 0)
(0.992764 0.0119296 0)
(0.993297 0.0116951 0)
(0.993596 0.0111425 0)
(0.993711 0.0103733 0)
(0.993765 0.00945384 0)
(0.9938 0.00843081 0)
(0.993783 0.00737494 0)
(0.993748 0.00631376 0)
(0.993701 0.00527253 0)
(0.993654 0.00426246 0)
(0.993615 0.00328593 0)
(0.993605 0.00233146 0)
(0.993643 0.00138592 0)
(0.993708 0.000456219 0)
(0.99523 -0.000720644 0)
(0.995174 -0.00222634 0)
(0.995146 -0.00378263 0)
(0.99516 -0.00535578 0)
(0.995199 -0.00694547 -2.91571e-23)
(0.99524 -0.00855736 0)
(0.995256 -0.0101882 0)
(0.995223 -0.0118153 0)
(0.995105 -0.013395 0)
(0.994854 -0.014868 0)
(0.994439 -0.0161313 0)
(0.993799 -0.0170793 0)
(0.992994 -0.0175411 1.61568e-24)
(0.992208 -0.0173807 -1.12637e-22)
(0.990548 -0.0165047 2.71074e-22)
(0.989222 -0.0148066 -3.93878e-23)
(0.987879 -0.0122668 -1.22164e-22)
(0.986557 -0.00889268 -3.7505e-22)
(0.985549 -0.00489992 4.5853e-22)
(0.984993 -0.000505218 -2.77429e-22)
(0.985009 0.00401612 4.97982e-22)
(0.985683 0.00842608 -3.77283e-22)
(0.987078 0.0124656 6.09784e-23)
(0.988996 0.0158083 -1.16803e-22)
(0.990753 0.0179891 2.50592e-22)
(0.992213 0.0191084 -2.02627e-22)
(0.993605 0.0193962 8.24448e-23)
(0.994327 0.0190018 -1.3121e-24)
(0.995007 0.0180978 0)
(0.995497 0.0167819 0)
(0.995739 0.0152326 0)
(0.995812 0.0135583 0)
(0.995789 0.0118248 0)
(0.995695 0.0100974 0)
(0.995569 0.00840647 0)
(0.995435 0.0067699 0)
(0.995318 0.00518846 0)
(0.995242 0.00364658 0)
(0.995219 0.00214413 0)
(0.995242 0.00070041 0)
(0.99762 -0.00103567 0)
(0.997592 -0.00312041 0)
(0.997616 -0.00528264 0)
(0.997695 -0.0075063 0)
(0.997813 -0.0097989 0)
(0.997934 -0.0121701 0)
(0.998023 -0.0146198 0)
(0.99803 -0.0171268 0)
(0.997888 -0.0196502 0)
(0.997523 -0.022108 0)
(0.996846 -0.0243773 -1.20146e-24)
(0.995732 -0.0262684 -3.0811e-23)
(0.994005 -0.0275994 -2.42821e-22)
(0.991284 -0.0281971 1.82601e-22)
(0.989051 -0.0273865 -5.97608e-23)
(0.985859 -0.02535 1.5235e-21)
(0.982687 -0.0218665 -1.21069e-21)
(0.979796 -0.0169505 -1.13571e-21)
(0.977707 -0.0107932 9.38225e-22)
(0.976759 -0.00391236 -1.26821e-21)
(0.976895 0.00327751 1.1121e-21)
(0.978231 0.0101978 -9.15265e-22)
(0.980757 0.0163394 1.3369e-21)
(0.984286 0.0212731 -2.3083e-22)
(0.98808 0.0248519 -2.00803e-22)
(0.991325 0.0267382 1.85059e-22)
(0.993634 0.0272261 -2.74114e-22)
(0.995911 0.0264867 2.63074e-22)
(0.997293 0.0250084 2.88378e-23)
(0.998106 0.0230551 6.23314e-25)
(0.998574 0.0207965 0)
(0.998721 0.018405 0)
(0.998658 0.015986 0)
(0.998474 0.0136021 0)
(0.998233 0.0112929 0)
(0.997983 0.0090719 0)
(0.997765 0.00693386 0)
(0.997603 0.0048758 0)
(0.997519 0.00286992 0)
(0.997509 0.000946642 0)
(1.00082 -0.00129742 0)
(1.00084 -0.00397236 0)
(1.00095 -0.00673676 0)
(1.00115 -0.00959698 0)
(1.00141 -0.0125975 0)
(1.0017 -0.0157635 0)
(1.00196 -0.0191054 0)
(1.00211 -0.0226242 0)
(1.00205 -0.0262884 0)
(1.00164 -0.0300307 2.70335e-23)
(1.00064 -0.03372 -1.64192e-23)
(0.998862 -0.037136 -5.87964e-22)
(0.996283 -0.0398458 1.68305e-22)
(0.993395 -0.0413135 8.29571e-22)
(0.987958 -0.0417357 2.62959e-21)
(0.982512 -0.039839 -3.20784e-21)
(0.976905 -0.0359066 5.61328e-22)
(0.971259 -0.0297323 -4.0897e-22)
(0.966698 -0.0208598 -2.51042e-23)
(0.96397 -0.00992883 -5.95016e-22)
(0.963912 0.00189941 -5.93625e-23)
(0.966635 0.013097 1.33375e-21)
(0.971565 0.022372 -2.84022e-22)
(0.978187 0.0291662 -1.19991e-22)
(0.984206 0.0335177 2.12505e-21)
(0.990022 0.0359323 -1.87954e-21)
(0.995228 0.0361109 -7.41508e-22)
(0.998207 0.0348361 8.05276e-22)
(1.00046 0.032446 -5.9565e-22)
(1.00176 0.0294774 3.78906e-23)
(1.00235 0.0263101 5.72214e-24)
(1.00254 0.0230735 0)
(1.00239 0.0199038 0)
(1.00206 0.0168442 0)
(1.00166 0.0139238 0)
(1.00126 0.0111461 0)
(1.0009 0.00850511 0)
(1.00063 0.00597432 0)
(1.00046 0.00354938 0)
(1.00041 0.00115915 0)
(1.00473 -0.00157032 0)
(1.00483 -0.00475086 0)
(1.00509 -0.00801153 0)
(1.00549 -0.0114547 0)
(1.00601 -0.0151201 0)
(1.00659 -0.0190665 0)
(1.00717 -0.023335 0)
(1.00765 -0.0279564 0)
(1.00787 -0.0329283 -2.89302e-23)
(1.00758 -0.0381944 9.3754e-23)
(1.00656 -0.0436109 1.55574e-22)
(1.00465 -0.0488931 5.78182e-22)
(1.00138 -0.0539023 -6.15161e-22)
(0.99517 -0.0588183 6.82529e-22)
(0.988799 -0.0602155 -3.15898e-21)
(0.979543 -0.0592536 2.0049e-22)
(0.969068 -0.0558578 5.06975e-22)
(0.957976 -0.0474663 3.32153e-21)
(0.949009 -0.033655 -3.78715e-21)
(0.943719 -0.0168523 3.20096e-21)
(0.943515 0.000954716 -1.8618e-21)
(0.94833 0.0179117 1.48152e-21)
(0.957318 0.0321929 -2.20448e-21)
(0.968208 0.0413102 1.33625e-21)
(0.979652 0.0460267 -1.80827e-21)
(0.989342 0.0482416 2.54423e-21)
(0.996172 0.0477837 -5.91653e-22)
(1.00206 0.0445013 -6.95202e-22)
(1.00517 0.0406179 5.26944e-22)
(1.0068 0.0362617 3.1388e-22)
(1.00739 0.0318458 -1.68192e-22)
(1.00736 0.0276234 -1.47969e-23)
(1.007 0.0236112 0)
(1.00644 0.0198606 0)
(1.0058 0.0163521 0)
(1.00518 0.0130671 0)
(1.00464 0.00997632 0)
(1.00422 0.00703002 0)
(1.00396 0.00415923 0)
(1.00386 0.00139887 0)
(1.00923 -0.0017822 0)
(1.00943 -0.0053316 0)
(1.0099 -0.00906828 0)
(1.0106 -0.0129725 0)
(1.0115 -0.0171894 0)
(1.01255 -0.0218049 0)
(1.01367 -0.0269216 0)
(1.01475 -0.0326183 -8.58053e-24)
(1.01551 -0.0389093 -4.19001e-23)
(1.01576 -0.0457816 2.33757e-22)
(1.01526 -0.0532893 -1.54873e-22)
(1.01343 -0.0615796 -8.98142e-24)
(1.00959 -0.0702379 2.03122e-22)
(1.00489 -0.0771123 -2.47814e-22)
(0.992873 -0.0846382 -1.7575e-21)
(0.978403 -0.0868504 1.72078e-21)
(0.966307 -0.0757854 -1.88575e-21)
(0.950036 -0.0675834 -4.2674e-22)
(0.934518 -0.0506955 -3.31495e-21)
(0.923902 -0.0272846 -1.24214e-21)
(0.921887 -0.000655555 -3.8892e-21)
(0.928743 0.0237473 -4.71983e-21)
(0.941723 0.0422593 -2.18894e-21)
(0.95703 0.053407 -1.93095e-21)
(0.976733 0.0667367 -1.30459e-21)
(0.990945 0.0664145 1.06125e-21)
(1.00255 0.0612704 2.47401e-22)
(1.0079 0.0563121 -6.49511e-22)
(1.01172 0.0497 5.08562e-22)
(1.01352 0.0433845 -8.68864e-23)
(1.01389 0.0374139 5.30958e-23)
(1.01343 0.0319164 2.00644e-23)
(1.01258 0.0269848 3.46701e-24)
(1.01162 0.022525 0)
(1.01063 0.0184446 0)
(1.00972 0.0146715 0)
(1.00894 0.0111413 0)
(1.00834 0.00782062 0)
(1.00794 0.00463671 0)
(1.00778 0.00149946 0)
(1.01413 -0.00182054 0)
(1.01446 -0.00565935 0)
(1.01518 -0.009595 0)
(1.01627 -0.0138282 0)
(1.01769 -0.0184549 0)
(1.01941 -0.0235971 0)
(1.02134 -0.0293936 0)
(1.0233 -0.0359627 4.03074e-23)
(1.02502 -0.0434078 -5.61606e-23)
(1.02646 -0.0519633 -1.95438e-22)
(1.02723 -0.061927 -9.85204e-23)
(1.02668 -0.0731571 1.01335e-21)
(1.02392 -0.0853108 2.04624e-22)
(1.01315 -0.0947338 -2.86404e-23)
(1.00361 -0.10245 -1.68298e-21)
(0.987284 -0.110796 1.12822e-21)
(0.961498 -0.112856 -9.91305e-23)
(0.932902 -0.103833 1.63286e-21)
(0.90287 -0.0819708 -7.03273e-22)
(0.880832 -0.0451591 -1.8779e-21)
(0.875671 9.80219e-05 5.5613e-21)
(0.889717 0.0416824 -3.36853e-21)
(0.916212 0.0701154 1.23941e-21)
(0.945288 0.0840758 -2.51253e-22)
(0.971428 0.0879275 6.94916e-22)
(0.992056 0.0831034 8.08357e-22)
(1.0051 0.0757159 -1.85095e-21)
(1.01865 0.0673362 -2.5806e-22)
(1.02134 0.0585161 2.17419e-22)
(1.02233 0.0501639 1.70009e-22)
(1.02201 0.0425621 -8.70466e-23)
(1.02082 0.0358021 1.58233e-23)
(1.01918 0.0298982 4.68875e-23)
(1.01756 0.0247403 0)
(1.01609 0.0201539 0)
(1.01478 0.0159859 0)
(1.01368 0.0121446 0)
(1.01285 0.00852538 0)
(1.01231 0.00507282 0)
(1.01208 0.0017285 0)
(1.01917 -0.00192804 0)
(1.01967 -0.00573711 0)
(1.02069 -0.00971449 0)
(1.02225 -0.0140302 0)
(1.02432 -0.0187676 0)
(1.02688 -0.0241261 0)
(1.02986 -0.0302748 1.08172e-25)
(1.033 -0.0373812 -3.59855e-24)
(1.0363 -0.0457213 -1.47514e-22)
(1.03974 -0.0558473 1.52846e-22)
(1.0428 -0.0682272 -6.22885e-23)
(1.04469 -0.0830889 -6.48269e-22)
(1.04399 -0.101521 3.51557e-22)
(1.03225 -0.116481 9.04948e-22)
(1.02155 -0.131596 2.15498e-21)
(1.00159 -0.14951 -1.20197e-21)
(0.969928 -0.156085 1.59453e-21)
(0.921733 -0.15634 -1.70412e-22)
(0.867515 -0.133293 -1.84564e-21)
(0.819828 -0.0784277 4.56578e-21)
(0.804082 0.000499467 3.36976e-21)
(0.829903 0.0722206 -7.48507e-22)
(0.87949 0.114742 1.69876e-21)
(0.933228 0.129786 -2.03725e-22)
(0.973251 0.124366 2.47557e-22)
(1.00472 0.112947 1.16306e-23)
(1.01941 0.0958555 5.86981e-22)
(1.03324 0.0806455 -7.63004e-23)
(1.03429 0.0660205 2.24591e-22)
(1.03347 0.0553248 -9.16789e-23)
(1.03172 0.046428 -1.25582e-22)
(1.02939 0.0387527 5.87868e-23)
(1.02676 0.0320818 -2.27082e-24)
(1.02421 0.0263667 3.17839e-24)
(1.02207 0.0213737 0)
(1.02026 0.0168852 0)
(1.01879 0.0127799 0)
(1.01768 0.00893679 0)
(1.01696 0.00526739 0)
(1.01665 0.00166614 0)
(1.02411 -0.00180349 0)
(1.02476 -0.00538917 0)
(1.02615 -0.00927452 0)
(1.02822 -0.013341 0)
(1.03101 -0.0179029 0)
(1.03453 -0.0231115 0)
(1.03871 -0.029184 -3.68475e-23)
(1.04341 -0.0363406 8.51263e-23)
(1.04902 -0.0452131 8.31235e-23)
(1.05537 -0.0564681 -6.92702e-23)
(1.0619 -0.0704288 -5.17505e-22)
(1.06794 -0.0878372 7.53359e-22)
(1.07266 -0.110916 -2.72232e-22)
(1.06417 -0.132496 -2.34056e-23)
(1.05658 -0.157776 6.8793e-22)
(1.03187 -0.189136 1.15922e-22)
(0.994559 -0.215597 -1.62093e-22)
(0.929576 -0.243778 -8.48177e-22)
(0.825933 -0.24293 -2.04772e-22)
(0.703977 -0.165758 1.27317e-21)
(0.648542 -0.00165135 1.6696e-23)
(0.715954 0.15489 1.58549e-21)
(0.83975 0.219931 -1.4132e-22)
(0.938234 0.212129 -7.91479e-22)
(1.0023 0.180723 -2.4067e-22)
(1.03797 0.145497 1.71089e-21)
(1.04722 0.112198 1.20829e-22)
(1.05467 0.0871916 -3.83177e-24)
(1.05069 0.0697552 6.84622e-23)
(1.0466 0.0576541 -1.04518e-22)
(1.04265 0.0480071 -9.69384e-24)
(1.03878 0.0400008 6.26899e-23)
(1.03503 0.033086 -1.60256e-23)
(1.03143 0.027077 7.60223e-24)
(1.02845 0.0218715 0)
(1.02604 0.0172444 0)
(1.02413 0.0130252 0)
(1.02271 0.00914157 0)
(1.02179 0.0054348 0)
(1.02138 0.00191243 0)
(1.02861 -0.00147423 0)
(1.02944 -0.00475905 0)
(1.03108 -0.00798809 0)
(1.03366 -0.0116083 0)
(1.03721 -0.0156775 0)
(1.04177 -0.0203594 0)
(1.04725 -0.0258346 5.83116e-24)
(1.05395 -0.0325175 -3.8491e-23)
(1.0625 -0.0411926 3.83939e-23)
(1.07248 -0.0524898 6.18311e-23)
(1.08357 -0.0668229 3.28801e-24)
(1.09518 -0.0846467 -6.98672e-23)
(1.10667 -0.106782 -2.20029e-23)
(1.10671 -0.13611 1.25217e-22)
(1.1083 -0.170723 -2.09235e-22)
(1.09909 -0.218004 2.28984e-23)
(1.07327 -0.279395 9.28314e-23)
(1.01358 -0.375198 -6.92342e-23)
(0.848432 -0.484827 -1.07838e-21)
(0.476892 -0.471036 -3.89971e-20)
(0.186549 0.00782204 -1.06569e-20)
(0.499696 0.466614 -9.47103e-21)
(0.866651 0.461778 8.33185e-22)
(1.02924 0.335701 1.40761e-23)
(1.08283 0.233239 -6.97768e-23)
(1.09571 0.159446 -2.20667e-22)
(1.08684 0.119557 -1.49657e-22)
(1.08016 0.0824957 -7.2337e-23)
(1.06958 0.0674892 -7.60589e-23)
(1.06076 0.0556374 1.13498e-22)
(1.05393 0.0464173 4.97418e-24)
(1.04833 0.0390367 -3.86325e-23)
(1.04346 0.0325722 1.0537e-23)
(1.03891 0.0267388 -7.46176e-24)
(1.03503 0.0215989 0)
(1.03196 0.0170251 0)
(1.02955 0.0128528 0)
(1.02779 0.00897554 0)
(1.02665 0.00530641 0)
(1.02613 0.00164592 0)
(1.03241 -0.00135333 0)
(1.0334 -0.00379605 0)
(1.03545 -0.00642952 0)
(1.03854 -0.0092655 0)
(1.04272 -0.0123822 0)
(1.04813 -0.0159914 0)
(1.05489 -0.0203007 1.76746e-23)
(1.06386 -0.025843 1.54707e-23)
(1.0755 -0.0332839 8.22068e-24)
(1.08927 -0.0430528 -1.27804e-23)
(1.10528 -0.0556489 -3.91047e-23)
(1.12328 -0.0714951 -8.76354e-23)
(1.14278 -0.0902134 9.57879e-23)
(1.1504 -0.121219 -2.59376e-23)
(1.17017 -0.155178 7.36087e-23)
(1.1835 -0.207894 7.86395e-23)
(1.20279 -0.282714 4.96796e-23)
(1.23863 -0.416453 9.55915e-22)
(0.913441 -0.4874 -7.80263e-20)
(1.1038 0.578768 1.86651e-20)
(1.26721 0.365142 1.23435e-22)
(1.20802 0.215438 1.79774e-22)
(1.16504 0.134871 7.36806e-23)
(1.12987 0.101427 1.22432e-22)
(1.10538 0.0674586 -3.22728e-22)
(1.08698 0.0565804 9.36622e-23)
(1.07363 0.04805 1.16675e-22)
(1.0642 0.0412259 4.42589e-23)
(1.05704 0.0354761 3.74148e-23)
(1.05131 0.0302038 2.05435e-23)
(1.04616 0.0251298 9.70888e-24)
(1.04152 0.0204018 0)
(1.03779 0.0160984 0)
(1.03488 0.0121675 0)
(1.03275 0.00848496 0)
(1.03138 0.00504939 0)
(1.03073 0.00169168 0)
(1.03511 -0.000798154 0)
(1.03627 -0.00247731 0)
(1.03854 -0.00421378 0)
(1.04193 -0.00599833 0)
(1.0466 -0.00795232 0)
(1.05274 -0.0101486 0)
(1.06079 -0.0128227 2.15463e-24)
(1.07198 -0.0165371 -1.62441e-23)
(1.08643 -0.0217005 1.57807e-23)
(1.10346 -0.0283886 2.27681e-23)
(1.12342 -0.0368932 -4.68744e-23)
(1.14662 -0.0476844 1.36619e-22)
(1.17314 -0.0599852 -2.95043e-22)
(1.18909 -0.0870524 -2.44593e-22)
(1.22385 -0.110977 -2.14905e-21)
(1.2559 -0.15131 9.93533e-23)
(1.30759 -0.198129 6.86302e-23)
(1.38573 -0.241995 1.4961e-21)
(0.007219 0.0134292 1.60713e-19)
(0.0749653 0.00161664 -2.24774e-19)
(1.43713 0.172169 -3.76267e-22)
(1.29814 0.114336 2.77299e-23)
(1.21236 0.0729891 -1.65487e-21)
(1.16072 0.0608175 -2.88e-21)
(1.11986 0.0422613 -3.55677e-22)
(1.09797 0.039589 6.50369e-23)
(1.08262 0.0363902 -6.15225e-24)
(1.07178 0.033042 -1.59031e-24)
(1.06385 0.0296723 3.08197e-23)
(1.05785 0.0261497 -1.5105e-24)
(1.05262 0.0222865 4.69066e-24)
(1.04754 0.0182663 0)
(1.04328 0.014485 0)
(1.03995 0.011021 0)
(1.03752 0.00781461 0)
(1.03589 0.00465424 0)
(1.03508 0.00169436 0)
(1.03722 -0.000348116 -3.84235e-26)
(1.03828 -0.00102504 0)
(1.04046 -0.00168368 0)
(1.04393 -0.002293 0)
(1.04882 -0.00288541 0)
(1.05532 -0.00341354 0)
(1.06438 -0.00409307 8.0149e-25)
(1.07725 -0.00536733 3.47476e-24)
(1.09349 -0.00729899 -3.91911e-24)
(1.11244 -0.00972011 -2.66029e-24)
(1.13454 -0.0125881 1.42568e-22)
(1.16081 -0.0162835 6.09878e-22)
(1.191 -0.0197934 -6.02272e-22)
(1.21517 -0.03964 1.8955e-22)
(1.25634 -0.0522331 -1.05846e-21)
(1.29593 -0.0783736 -5.69439e-22)
(1.34824 -0.101902 -3.24082e-23)
(1.28711 -0.095877 -6.52093e-24)
(0.00737932 -0.033146 -3.57275e-22)
(0.296527 -0.0263281 9.55892e-21)
(1.39941 -0.0316108 -1.84345e-21)
(1.30324 -0.0112777 1.18367e-21)
(1.21267 -0.000637693 -1.43537e-21)
(1.16418 0.0132234 7.13445e-22)
(1.12187 0.0154412 7.83137e-22)
(1.10158 0.0218993 -1.33312e-22)
(1.08656 0.0237811 -1.58758e-22)
(1.07582 0.0238009 1.06733e-22)
(1.06814 0.0227667 -1.17333e-22)
(1.06258 0.0210084 2.8652e-24)
(1.05786 0.018491 7.09116e-24)
(1.05282 0.0153841 0)
(1.04814 0.0122131 0)
(1.04442 0.00923422 0)
(1.04169 0.00642862 0)
(1.03991 0.00375503 0)
(1.03908 0.00100697 0)
(1.03765 0.000297533 -3.37083e-26)
(1.03884 0.000615527 0)
(1.041 0.000960352 0)
(1.04435 0.00146619 0)
(1.04907 0.00223099 0)
(1.05548 0.00342855 0)
(1.06495 0.00501573 -9.23924e-25)
(1.07842 0.00660211 6.12439e-24)
(1.09495 0.0083879 9.47266e-23)
(1.11408 0.0108953 -1.14564e-22)
(1.13634 0.0144793 1.91746e-22)
(1.16286 0.0186116 -5.61753e-22)
(1.1939 0.0247135 4.61764e-22)
(1.22368 0.0141768 -5.86039e-22)
(1.26797 0.0134927 3.84771e-22)
(1.31476 -0.00121044 -1.73966e-22)
(1.37048 -0.0183258 9.03008e-23)
(1.23477 -0.0371219 3.24903e-22)
(0.206356 -0.18065 3.62493e-23)
(-0.0267475 -0.371642 4.21364e-22)
(-0.230733 -0.259867 -5.96929e-23)
(-0.040345 -0.109489 9.8111e-22)
(0.634127 -0.200844 -1.74849e-22)
(1.31069 -0.212014 8.86064e-22)
(1.23682 -0.119594 -3.24049e-21)
(1.16766 -0.0561813 9.68145e-22)
(1.13894 -0.0213945 -5.11343e-22)
(1.10779 -0.000457395 1.16252e-22)
(1.09574 0.00891078 -4.2558e-22)
(1.08533 0.0136452 -6.72791e-23)
(1.07681 0.0156672 2.05715e-22)
(1.07022 0.016134 1.08303e-23)
(1.06545 0.0155526 -3.32978e-23)
(1.06165 0.0141149 -2.10358e-23)
(1.05714 0.0119723 0)
(1.05231 0.00956969 0)
(1.04837 0.00727338 0)
(1.04542 0.00503824 0)
(1.04345 0.00297265 0)
(1.04243 0.00103039 0)
(1.03703 0.000505997 3.33535e-23)
(1.038 0.00165429 0)
(1.03995 0.00301003 0)
(1.04297 0.00460928 0)
(1.04718 0.0066547 0)
(1.05289 0.00939416 0)
(1.06169 0.0130163 1.74998e-25)
(1.07451 0.0173982 -1.23501e-23)
(1.08979 0.0229706 -7.53904e-23)
(1.10717 0.0303922 1.9324e-22)
(1.12727 0.0402137 -2.73214e-22)
(1.15101 0.0523417 -2.33813e-22)
(1.17949 0.068905 2.03277e-22)
(1.21357 0.0713023 8.26728e-22)
(1.25884 0.0858927 1.45017e-21)
(1.32169 0.102323 -1.68163e-21)
(1.39491 0.0956102 2.10127e-22)
(1.31336 0.0582132 2.7055e-21)
(0.635464 -0.206987 -8.34962e-22)
(0.144622 -0.499128 1.14544e-20)
(-0.325947 -0.68725 -6.4296e-22)
(-0.10634 -0.692128 -2.48877e-21)
(0.687012 -0.54115 -1.71877e-21)
(1.0715 -0.317948 1.64322e-21)
(1.10164 -0.161507 -1.62108e-21)
(1.09352 -0.0650317 7.45573e-23)
(1.09842 -0.0239191 3.98945e-22)
(1.09007 0.00208804 2.21054e-22)
(1.08622 0.00713036 7.37474e-22)
(1.08103 0.00943036 3.01567e-22)
(1.07561 0.0104131 -1.87659e-22)
(1.07095 0.0107576 6.68448e-23)
(1.06711 0.0103769 2.08431e-23)
(1.06421 0.00951772 -5.6456e-25)
(1.06021 0.00812485 0)
(1.05548 0.00656285 0)
(1.05151 0.00509272 0)
(1.04851 0.00366368 0)
(1.04647 0.00226554 0)
(1.04551 0.000979347 -1.30931e-23)
(1.03548 0.000691668 5.90064e-24)
(1.03619 0.00239192 0)
(1.03775 0.00439505 0)
(1.04013 0.00676286 0)
(1.0434 0.00971709 0)
(1.04786 0.013494 0)
(1.05509 0.0184723 0)
(1.066 0.0249341 7.38586e-25)
(1.07855 0.033498 4.15954e-23)
(1.09228 0.0449002 6.96715e-23)
(1.10774 0.0601232 8.05244e-23)
(1.12573 0.0793587 -8.09779e-22)
(1.14729 0.105649 1.2809e-21)
(1.17768 0.140317 -1.27533e-22)
(1.22092 0.160688 -1.36687e-21)
(1.27658 0.204557 -3.01815e-21)
(1.35804 0.242286 -5.16521e-21)
(1.4135 0.297409 -6.83644e-21)
(1.02415 0.140048 -3.04749e-21)
(0.542593 -0.108351 -1.803e-20)
(-0.0275732 -0.402895 -5.84823e-21)
(-0.179781 -0.599467 -1.22425e-20)
(0.315545 -0.471434 1.14589e-21)
(0.805116 -0.204492 2.7658e-20)
(0.961798 -0.0538075 5.20149e-22)
(1.02936 -0.0128171 5.48597e-22)
(1.06711 0.0220268 3.20451e-22)
(1.08178 0.017013 -5.73382e-22)
(1.08339 0.0138612 2.25761e-22)
(1.08064 0.0110501 4.13768e-23)
(1.0762 0.00851979 -6.57913e-23)
(1.07164 0.00670556 -3.22595e-23)
(1.06826 0.00565818 5.39074e-24)
(1.06587 0.00478295 0)
(1.062 0.003901 0)
(1.05724 0.00312434 0)
(1.05317 0.00241007 0)
(1.0502 0.0016883 0)
(1.04833 0.000946415 0)
(1.04736 0.000124571 -8.11939e-23)
(1.03329 0.00090702 1.22799e-23)
(1.03371 0.00280615 0)
(1.03473 0.00503806 0)
(1.03632 0.00765031 0)
(1.03849 0.0109227 0)
(1.04147 0.015034 0)
(1.0466 0.0205147 0)
(1.05461 0.0280051 0)
(1.06325 0.0382565 -5.38647e-24)
(1.07177 0.052074 2.04348e-23)
(1.08056 0.0707233 -1.29955e-22)
(1.08987 0.094738 1.83489e-22)
(1.10062 0.126407 2.66662e-22)
(1.11388 0.171778 -8.04567e-22)
(1.15056 0.21185 -3.52705e-23)
(1.18335 0.279222 -2.334e-21)
(1.23401 0.354377 1.07546e-21)
(1.29939 0.482446 -2.90861e-21)
(1.20195 0.590138 -9.71172e-21)
(0.833871 0.537846 1.73908e-21)
(0.376485 0.333344 1.9801e-21)
(0.0551241 0.0475922 1.73407e-21)
(0.115761 -0.123438 3.99883e-22)
(0.539091 -0.0134531 5.70469e-20)
(0.924079 0.107855 2.36011e-22)
(1.02284 0.0772682 1.19099e-21)
(1.0835 0.0584067 -8.417e-23)
(1.09215 0.0334512 2.69298e-22)
(1.09093 0.0214218 7.47031e-23)
(1.08579 0.012576 1.97812e-24)
(1.07959 0.00675005 -1.77536e-23)
(1.07394 0.0031013 5.6995e-24)
(1.06988 0.000901503 0)
(1.06692 -0.000273876 0)
(1.06268 -0.000662475 0)
(1.05778 -0.00068604 0)
(1.05364 -0.00066504 -4.6026e-23)
(1.05059 -0.000614984 -6.36509e-23)
(1.04852 -0.000416394 -3.79557e-23)
(1.04726 -0.000196125 0)
(1.03067 0.000917015 0)
(1.03088 0.00282439 0)
(1.03143 0.00486666 0)
(1.03227 0.00724637 0)
(1.03336 0.0102307 0)
(1.03479 0.0139515 0)
(1.03747 0.0190246 0)
(1.04176 0.0264816 0)
(1.04567 0.0369772 8.90411e-27)
(1.04825 0.0510769 -2.78732e-24)
(1.04937 0.070027 -2.04373e-23)
(1.04843 0.0949505 -8.84347e-23)
(1.04674 0.126786 1.78505e-22)
(1.04226 0.173192 -8.78311e-23)
(1.06039 0.223966 -6.27121e-21)
(1.06331 0.294736 -4.98836e-22)
(1.08673 0.383757 1.9997e-21)
(1.06112 0.511292 2.85382e-21)
(1.00579 0.690758 -3.48779e-21)
(0.867684 0.809457 1.34315e-21)
(0.644308 0.779283 5.35064e-21)
(0.431728 0.603847 -8.87051e-22)
(0.339914 0.37756 1.77854e-21)
(0.426595 0.22823 8.6858e-22)
(0.981152 0.231941 -7.57526e-22)
(1.09895 0.142251 9.3079e-22)
(1.13061 0.0669063 -5.20672e-22)
(1.12162 0.0377524 2.16217e-23)
(1.10895 0.0203188 -6.43493e-24)
(1.09661 0.00853439 -3.86888e-23)
(1.08613 0.00160342 6.26926e-25)
(1.07777 -0.00265463 -1.72643e-26)
(1.07187 -0.00513585 0)
(1.06735 -0.00601708 0)
(1.06224 -0.00556574 0)
(1.05711 -0.00467697 0)
(1.05292 -0.00372658 0)
(1.0498 -0.00269102 0)
(1.04763 -0.00153559 0)
(1.04639 -0.000437292 6.83587e-24)
(1.02809 0.000749003 0)
(1.02816 0.00226479 0)
(1.0284 0.00381778 0)
(1.0287 0.00558182 0)
(1.02892 0.00773187 0)
(1.02894 0.010408 0)
(1.02902 0.0141364 0)
(1.02931 0.0201234 0)
(1.02842 0.0289755 0)
(1.02551 0.0408917 0)
(1.01955 0.0567044 -1.08259e-26)
(1.00923 0.0778125 -9.48946e-24)
(0.99436 0.104759 2.21722e-24)
(0.973907 0.145347 9.25915e-24)
(0.970874 0.196018 -1.58927e-20)
(0.945255 0.25937 -5.71823e-24)
(0.937015 0.360232 -7.20183e-21)
(0.894105 0.455198 -1.12053e-21)
(0.829906 0.543549 -1.27612e-21)
(0.758 0.640814 1.19495e-22)
(0.671718 0.711868 -2.47036e-21)
(0.596439 0.709784 -5.15287e-21)
(0.563991 0.621496 2.54679e-21)
(0.647741 0.441326 1.29096e-21)
(1.10854 0.224913 -1.57394e-21)
(1.21943 0.123305 6.63645e-22)
(1.18802 0.0334225 8.82119e-23)
(1.15591 0.0160378 -5.3132e-24)
(1.12905 0.00224959 4.30567e-23)
(1.10886 -0.00580701 5.38782e-24)
(1.09338 -0.0100713 0)
(1.08177 -0.0125151 0)
(1.07328 -0.0134072 0)
(1.06658 -0.0126536 0)
(1.06039 -0.0107121 0)
(1.05502 -0.00859066 0)
(1.05084 -0.00653928 0)
(1.04778 -0.00453569 0)
(1.04574 -0.00261256 0)
(1.04465 -0.000804465 0)
(1.02618 0.000391478 0)
(1.02623 0.00119478 0)
(1.02636 0.00202401 0)
(1.02641 0.00292435 0)
(1.02619 0.00391424 0)
(1.02532 0.00507955 0)
(1.02342 0.00671345 0)
(1.0205 0.00979076 0)
(1.0159 0.0148394 0)
(1.00882 0.0218166 0)
(0.997528 0.0311305 0)
(0.980016 0.0435777 1.49716e-25)
(0.953869 0.0605047 1.85659e-23)
(0.920105 0.0865729 -3.41282e-23)
(0.896399 0.134722 -5.39682e-21)
(0.841696 0.183959 1.68531e-21)
(0.79887 0.268202 -4.46865e-21)
(0.757303 0.381287 5.47992e-22)
(0.678947 0.518897 -1.32024e-21)
(0.620831 0.642497 7.47782e-22)
(0.614918 0.706575 1.21234e-21)
(0.661969 0.675903 -3.95081e-22)
(0.768039 0.540259 2.53803e-21)
(0.966258 0.32171 1.5695e-22)
(1.29694 0.0759831 -2.43722e-22)
(1.30677 0.0174094 7.54119e-22)
(1.2201 -0.0354053 7.03334e-22)
(1.17268 -0.0309498 -1.77143e-23)
(1.13849 -0.0316695 -9.50417e-25)
(1.11405 -0.0300747 0)
(1.09575 -0.0280184 0)
(1.08206 -0.0259572 0)
(1.07164 -0.0232583 0)
(1.06331 -0.0197308 0)
(1.05652 -0.0158258 0)
(1.05124 -0.0122825 0)
(1.04731 -0.0091291 0)
(1.04451 -0.0062864 0)
(1.04272 -0.00366679 0)
(1.04184 -0.00119549 0)
(1.02557 3.6747e-05 0)
(1.02565 0.000131913 0)
(1.02577 0.000156065 0)
(1.02585 7.64628e-05 0)
(1.02563 -0.000187181 0)
(1.02466 -0.000697302 0)
(1.02205 -0.0014239 0)
(1.01765 -0.00193192 0)
(1.0114 -0.00199926 0)
(1.00258 -0.00197507 0)
(0.989165 -0.0019833 1.19031e-23)
(0.968332 -0.00241452 0)
(0.936064 -0.000274135 0)
(0.892975 0.00368274 -1.13865e-21)
(0.834496 0.0216265 7.98975e-21)
(0.769295 0.0725698 -8.90976e-21)
(0.640331 0.130105 3.35697e-23)
(0.536128 0.212272 -2.59662e-22)
(0.490541 0.272456 1.321e-21)
(0.535709 0.288875 -6.59248e-21)
(0.689225 0.255639 5.56785e-21)
(0.880603 0.157648 -1.00241e-20)
(1.09364 0.0168658 -1.16102e-21)
(1.28017 -0.108671 -3.19758e-22)
(1.37645 -0.156142 7.5802e-23)
(1.27662 -0.148101 -4.96037e-23)
(1.20332 -0.110246 5.40925e-22)
(1.15894 -0.0853826 0)
(1.12866 -0.0694478 0)
(1.10598 -0.056585 2.95121e-23)
(1.08889 -0.0468489 0)
(1.07564 -0.039199 0)
(1.06507 -0.0323577 0)
(1.05659 -0.0260099 0)
(1.05026 -0.0202493 0)
(1.04574 -0.0153699 0)
(1.04246 -0.0112151 0)
(1.04015 -0.00763232 7.57506e-24)
(1.0387 -0.00442389 5.43443e-24)
(1.03799 -0.0014342 0)
(1.02585 -0.000122687 0)
(1.02606 -0.00054397 0)
(1.02637 -0.00117153 0)
(1.02677 -0.00209196 0)
(1.0271 -0.00347696 0)
(1.02682 -0.00549987 0)
(1.02483 -0.00836045 0)
(1.02098 -0.0121502 0)
(1.01575 -0.0171868 0)
(1.00866 -0.0242553 0)
(0.99762 -0.0344367 9.31918e-23)
(0.97967 -0.0501689 0)
(0.947077 -0.0685042 0)
(0.890487 -0.0883104 -4.13941e-21)
(0.802235 -0.106692 -1.65257e-20)
(0.696772 -0.0988369 -3.14429e-21)
(0.620638 -0.161175 0)
(0.59693 -0.262104 -3.57497e-22)
(0.617792 -0.372929 -8.82933e-23)
(0.711652 -0.463918 3.71096e-23)
(0.872392 -0.526454 -9.93026e-22)
(1.03989 -0.538289 1.23216e-20)
(1.18036 -0.509584 -7.3799e-22)
(1.2542 -0.426804 0)
(1.23948 -0.316281 5.67097e-22)
(1.18569 -0.223349 1.11425e-21)
(1.14697 -0.164351 -2.09929e-23)
(1.11965 -0.126058 0)
(1.10044 -0.0974114 0)
(1.08508 -0.0761297 -1.25814e-22)
(1.0729 -0.060212 0)
(1.06274 -0.0481196 0)
(1.05403 -0.0382442 0)
(1.0469 -0.0300248 0)
(1.04197 -0.0230669 0)
(1.03879 -0.0173098 -1.37043e-23)
(1.03657 -0.0124878 1.78086e-23)
(1.03503 -0.00837806 0)
(1.03409 -0.0047902 0)
(1.03365 -0.00148425 4.18495e-23)
(1.02644 -0.00020208 0)
(1.02698 -0.000855226 0)
(1.02775 -0.00179318 0)
(1.02881 -0.003166 0)
(1.0301 -0.00518169 0)
(1.03115 -0.00811819 0)
(1.0309 -0.0123859 6.73854e-24)
(1.02936 -0.0184468 0)
(1.02777 -0.0270769 0)
(1.02616 -0.0395679 0)
(1.02295 -0.0576069 0)
(1.01601 -0.085971 0)
(0.99391 -0.123672 0)
(0.929264 -0.172424 8.05394e-21)
(0.837999 -0.22652 1.47829e-22)
(0.778174 -0.277214 -7.73976e-24)
(0.771207 -0.377318 0)
(0.754133 -0.469387 0)
(0.752104 -0.545265 -1.77231e-21)
(0.785945 -0.597407 -3.44875e-20)
(0.879394 -0.615331 -1.00742e-20)
(0.977821 -0.586434 2.38036e-21)
(1.05476 -0.520956 0)
(1.0887 -0.424193 0)
(1.08623 -0.321209 0)
(1.07874 -0.242612 -6.53921e-24)
(1.07485 -0.185907 -1.4456e-22)
(1.06742 -0.142274 2.7075e-23)
(1.06168 -0.108759 0)
(1.05634 -0.0837579 0)
(1.05116 -0.0648146 0)
(1.04594 -0.0505297 0)
(1.04058 -0.0393462 -6.01389e-23)
(1.0358 -0.030504 -2.4645e-23)
(1.03278 -0.0233197 -1.24158e-24)
(1.03118 -0.0174946 0)
(1.03016 -0.0126575 0)
(1.02951 -0.0085251 0)
(1.02922 -0.00489863 0)
(1.02923 -0.00159011 0)
(1.02721 -0.000259907 0)
(1.02807 -0.000849321 0)
(1.02938 -0.00167411 0)
(1.03122 -0.00293859 0)
(1.03369 -0.00487318 0)
(1.03647 -0.00779759 0)
(1.03873 -0.0122633 0)
(1.04071 -0.0189856 0)
(1.04438 -0.0287746 -1.41179e-24)
(1.05065 -0.0430595 0)
(1.05924 -0.0633342 0)
(1.06909 -0.0948092 0)
(1.06913 -0.138764 -1.46256e-22)
(1.02331 -0.202444 5.91354e-22)
(0.938743 -0.289335 0)
(0.888042 -0.376273 0)
(0.868604 -0.460317 0)
(0.824647 -0.517825 0)
(0.805668 -0.55516 -7.64967e-21)
(0.803452 -0.576695 -1.05526e-20)
(0.839842 -0.566165 9.18756e-21)
(0.887607 -0.51171 -3.6849e-21)
(0.93378 -0.439988 0)
(0.960007 -0.358281 0)
(0.977719 -0.284177 0)
(0.996831 -0.225814 0)
(1.00723 -0.17657 -1.50589e-21)
(1.01423 -0.135312 -1.04893e-22)
(1.02138 -0.103593 0)
(1.02576 -0.0789637 1.72348e-24)
(1.0279 -0.0602475 -1.14568e-24)
(1.0282 -0.0460493 -2.29467e-24)
(1.02685 -0.0351614 0)
(1.025 -0.0268625 0)
(1.02414 -0.020469 0)
(1.02414 -0.0154469 0)
(1.02423 -0.0113115 0)
(1.0243 -0.0077862 0)
(1.02449 -0.00459553 0)
(1.02475 -0.00164797 0)
(1.02791 -0.000109004 0)
(1.02888 -0.000374848 0)
(1.03056 -0.00073793 0)
(1.03311 -0.00142072 0)
(1.03666 -0.00259503 0)
(1.04115 -0.00452951 0)
(1.04611 -0.00773381 0)
(1.05189 -0.0130217 0)
(1.06075 -0.0209474 0)
(1.0744 -0.0323671 0)
(1.09423 -0.0481385 8.21307e-23)
(1.12053 -0.0715327 -1.44859e-23)
(1.14666 -0.105298 1.68536e-21)
(1.13648 -0.160219 -4.81151e-22)
(1.07494 -0.251397 0)
(1.00518 -0.346571 0)
(0.945124 -0.430434 0)
(0.872104 -0.488657 0)
(0.828234 -0.530549 -1.24705e-20)
(0.796867 -0.542521 2.4751e-20)
(0.787628 -0.529785 -2.09004e-21)
(0.798804 -0.466765 1.10598e-20)
(0.828971 -0.398879 0)
(0.861798 -0.322988 0)
(0.894964 -0.255092 0)
(0.928089 -0.196743 0)
(0.949188 -0.14763 6.45375e-22)