/*--------------------------------*- C++ -*----------------------------------*\
| =========                 |                                                 |
| \\      /  F ield         | OpenFOAM: The Open Source CFD Toolbox           |
|  \\    /   O peration     | Version:  v2106                                 |
|   \\  /    A nd           | Website:  www.openfoam.com                      |
|    \\/     M anipulation  |                                                 |
\*---------------------------------------------------------------------------*/
FoamFile
{
    version     2.0;
    format      ascii;
    arch        "LSB;label=32;scalar=64";
    class       volVectorField;
    location    "0";
    object      U;
}
// * * * * * * * * * * * * * * * * * * * * * * * * * * * * * * * * * * * * * //

dimensions      [0 1 -1 0 0 0 0];

internalField   nonuniform List<vector> 
11644
(
(0.999718 -0.000219772 3.12117e-23)
(0.999609 -0.000571592 8.60726e-23)
(0.999546 -0.000830832 4.61801e-23)
(0.99953 -0.00109671 0)
(0.999524 -0.00137327 0)
(0.999521 -0.00165633 0)
(0.999518 -0.0019392 0)
(0.999513 -0.00221192 0)
(0.999511 -0.00246183 0)
(0.9995 -0.00267934 0)
(0.999509 -0.0028417 0)
(0.999491 -0.00293572 0)
(0.999481 -0.00293498 0)
(0.999673 -0.00283602 0)
(0.99951 -0.00258206 0)
(0.99947 -0.00222241 0)
(0.999463 -0.00175864 0)
(0.999251 -0.00113029 0)
(0.998986 -0.000249717 0)
(0.998899 0.000866579 3.2679e-30)
(0.999074 0.00200664 -3.28287e-30)
(0.99942 0.00294206 0)
(0.999671 0.00349933 0)
(0.999657 0.00378469 0)
(0.999535 0.00398402 0)
(0.999559 0.00414312 0)
(0.999773 0.00418186 0)
(0.999568 0.00408031 0)
(0.999506 0.00389626 0)
(0.999525 0.00362423 0)
(0.99954 0.00330087 0)
(0.99953 0.00295518 0)
(0.999534 0.00258927 0)
(0.999533 0.00222604 0)
(0.999532 0.00187172 0)
(0.999533 0.00153056 0)
(0.999537 0.00120748 0)
(0.999554 0.000904015 0)
(0.999621 0.000608348 0)
(0.999728 0.000228353 6.05163e-24)
(1.00047 -0.000451585 4.00912e-23)
(1.00038 -0.00136449 3.71373e-23)
(1.00032 -0.00227536 1.99453e-23)
(1.0003 -0.00316953 0)
(1.00031 -0.0040606 0)
(1.00032 -0.0049558 0)
(1.00031 -0.00585028 0)
(1.00028 -0.0067256 0)
(1.00022 -0.007555 0)
(1.00012 -0.00829513 0)
(0.999954 -0.00890476 0)
(0.999742 -0.00930308 0)
(0.999456 -0.00942931 0)
(0.998817 -0.00922948 0)
(0.998631 -0.00857102 0)
(0.998214 -0.00747706 -6.87315e-24)
(0.997713 -0.00586404 1.94061e-23)
(0.997299 -0.00386476 -5.63089e-23)
(0.996919 -0.00160994 7.11203e-23)
(0.996649 0.000848688 1.61905e-22)
(0.996643 0.00346489 -1.49509e-22)
(0.99701 0.00611222 -1.13301e-22)
(0.997759 0.00853622 8.06544e-23)
(0.998527 0.0102874 -1.65742e-23)
(0.999044 0.0113278 4.72024e-24)
(0.99935 0.0117931 0)
(0.999475 0.0119197 0)
(1.00005 0.0116672 0)
(1.00034 0.0111003 0)
(1.00046 0.0103219 0)
(1.00053 0.00939651 0)
(1.00057 0.00837395 0)
(1.00056 0.00732402 0)
(1.00053 0.00627012 0)
(1.00049 0.00523599 0)
(1.00044 0.00423493 0)
(1.00041 0.00326696 0)
(1.0004 0.00231906 0)
(1.00044 0.00137841 0)
(1.00051 0.000453099 0)
(1.00202 -0.000719546 0)
(1.00196 -0.00220861 0)
(1.00192 -0.00374337 0)
(1.00193 -0.00529627 0)
(1.00196 -0.00686227 3.66226e-23)
(1.00199 -0.00845208 0)
(1.00199 -0.0100614 0)
(1.00194 -0.0116724 0)
(1.00181 -0.0132448 0)
(1.00154 -0.0147261 0)
(1.00113 -0.0160198 0)
(1.00053 -0.0170188 0)
(0.99972 -0.0175732 4.12884e-25)
(0.999043 -0.0175234 -5.80206e-23)
(0.997464 -0.0167899 -2.26402e-23)
(0.996106 -0.0152119 2.97004e-22)
(0.994797 -0.0127422 -3.59072e-22)
(0.993512 -0.00936374 1.46153e-22)
(0.992522 -0.00530859 3.08646e-22)
(0.99196 -0.000877174 3.97423e-22)
(0.991933 0.00365825 -4.97563e-22)
(0.992519 0.00811065 -1.91939e-22)
(0.993829 0.0122141 -9.08121e-23)
(0.99572 0.0156512 -5.05012e-23)
(0.997485 0.0178909 9.83505e-24)
(0.998941 0.0190258 7.90989e-23)
(1.00032 0.0193099 3.35659e-23)
(1.00097 0.0188865 -2.79992e-25)
(1.00164 0.0179736 0)
(1.00214 0.0166585 0)
(1.0024 0.015118 0)
(1.0025 0.013455 0)
(1.0025 0.011735 0)
(1.00243 0.0100243 0)
(1.00232 0.00835144 0)
(1.0022 0.00673148 0)
(1.0021 0.00516295 0)
(1.00203 0.00363241 0)
(1.00202 0.00213605 0)
(1.00205 0.000700348 0)
(1.00442 -0.00102813 0)
(1.00439 -0.00310354 0)
(1.0044 -0.00525364 0)
(1.00447 -0.00745495 0)
(1.00457 -0.00972745 0)
(1.00467 -0.0120783 0)
(1.00473 -0.0145074 0)
(1.0047 -0.0169994 0)
(1.00453 -0.0195183 0)
(1.00413 -0.0219883 0)
(1.00344 -0.0242955 -4.39184e-25)
(1.00233 -0.0262703 3.32282e-23)
(1.00068 -0.0276929 2.28379e-22)
(0.998 -0.02847 -1.69516e-22)
(0.995826 -0.0278579 -9.32444e-23)
(0.992792 -0.0260106 7.33697e-22)
(0.989612 -0.0226207 -6.46699e-22)
(0.986782 -0.0177105 2.27618e-22)
(0.984794 -0.0115914 6.15137e-22)
(0.98384 -0.00469759 -2.18608e-21)
(0.983886 0.00263833 4.06759e-22)
(0.985098 0.00966896 -8.58285e-23)
(0.987468 0.0158851 9.75152e-22)
(0.990861 0.0208814 -1.34321e-21)
(0.994621 0.0245387 1.54561e-21)
(0.997797 0.0264478 -1.45981e-22)
(1.00003 0.0269613 5.8746e-23)
(1.00235 0.0262457 -1.45966e-22)
(1.00374 0.0247946 -8.92485e-24)
(1.0046 0.0228643 4.3645e-25)
(1.00511 0.020627 0)
(1.00531 0.0182583 0)
(1.0053 0.0158657 0)
(1.00516 0.0135067 0)
(1.00496 0.0112181 0)
(1.00474 0.00901416 0)
(1.00455 0.00689085 0)
(1.0044 0.00484693 0)
(1.00432 0.00286226 0)
(1.00433 0.000940263 0)
(1.00764 -0.00129667 0)
(1.00766 -0.00396522 0)
(1.00776 -0.00670031 0)
(1.00795 -0.00954888 0)
(1.00819 -0.012539 0)
(1.00845 -0.0156964 0)
(1.00867 -0.01903 0)
(1.00878 -0.0225426 0)
(1.00868 -0.0262053 0)
(1.00824 -0.029952 2.03436e-23)
(1.00725 -0.0336577 -8.01907e-23)
(1.00554 -0.0371304 -1.31653e-22)
(1.003 -0.040007 1.20739e-21)
(1.00026 -0.0416729 -1.38677e-21)
(0.994968 -0.0423682 1.64235e-21)
(0.989499 -0.040798 -2.57974e-21)
(0.983934 -0.0369811 1.2149e-21)
(0.978485 -0.0308688 1.08591e-21)
(0.973951 -0.022062 -1.32791e-21)
(0.971157 -0.0110888 -1.74886e-21)
(0.970955 0.000856042 1.57812e-21)
(0.973515 0.0122592 2.77286e-21)
(0.978257 0.0216788 -2.09764e-21)
(0.984677 0.0285908 8.96982e-23)
(0.990579 0.0330123 7.46653e-22)
(0.996361 0.035426 -1.24106e-21)
(1.00156 0.0356419 1.0178e-21)
(1.00446 0.0344314 1.82003e-22)
(1.00673 0.0321234 -1.07103e-21)
(1.0081 0.0292217 1.09863e-22)
(1.00878 0.0261031 1.34816e-24)
(1.00904 0.0229103 0)
(1.00897 0.0197797 0)
(1.00872 0.0167525 0)
(1.00838 0.0138611 0)
(1.00802 0.0111063 0)
(1.00769 0.00848502 0)
(1.00744 0.00597049 0)
(1.00728 0.00354835 0)
(1.00724 0.0011748 0)
(1.01158 -0.00157394 0)
(1.01168 -0.00473387 0)
(1.01194 -0.00799653 0)
(1.01233 -0.0114304 0)
(1.01284 -0.0150885 0)
(1.0134 -0.0190291 0)
(1.01395 -0.0232921 0)
(1.01439 -0.0279063 0)
(1.01458 -0.0328708 -1.9224e-23)
(1.01427 -0.0381412 -7.32046e-23)
(1.01324 -0.0436191 -1.57227e-22)
(1.01134 -0.0490531 1.15217e-21)
(1.00809 -0.0541999 -1.64243e-21)
(1.00197 -0.0593174 3.20739e-21)
(0.995653 -0.0610396 -2.92801e-21)
(0.986648 -0.0604454 1.64239e-21)
(0.976338 -0.0571472 -1.75655e-21)
(0.965229 -0.0487683 1.49541e-21)
(0.956239 -0.0351305 -1.94765e-21)
(0.950838 -0.0183531 8.84897e-21)
(0.950455 -0.000275396 -9.57098e-21)
(0.955106 0.0168607 3.24699e-21)
(0.963861 0.0311602 -2.19733e-21)
(0.974535 0.0404156 -5.5109e-22)
(0.985804 0.0453193 8.01466e-22)
(0.995383 0.047562 2.43548e-21)
(1.0021 0.0471359 -2.77572e-21)
(1.00808 0.0439423 2.36854e-22)
(1.01128 0.0402039 5.42501e-22)
(1.013 0.0359747 2.85636e-22)
(1.01372 0.0316534 -2.75525e-22)
(1.01381 0.027486 -5.06133e-24)
(1.01357 0.0235142 0)
(1.0131 0.0197964 0)
(1.01253 0.0163073 0)
(1.01196 0.0130345 0)
(1.01146 0.00994594 0)
(1.01106 0.00700464 0)
(1.01081 0.00415194 0)
(1.01072 0.00137395 0)
(1.01612 -0.00176118 0)
(1.01632 -0.00530713 0)
(1.01679 -0.00902468 0)
(1.0175 -0.0129243 0)
(1.0184 -0.0171454 0)
(1.01945 -0.0217614 0)
(1.02056 -0.0268754 0)
(1.02162 -0.0325652 -6.34641e-24)
(1.02238 -0.0388657 5.4324e-23)
(1.02263 -0.0457882 3.80379e-22)
(1.02214 -0.0533786 -4.31387e-22)
(1.02034 -0.0617752 -8.83184e-22)
(1.01658 -0.0706206 7.82275e-22)
(1.01192 -0.0777147 -6.44462e-23)
(1.00001 -0.0854044 -2.44185e-21)
(0.985679 -0.0879452 2.22864e-21)
(0.973757 -0.0771875 -4.83821e-22)
(0.957254 -0.0690872 1.73212e-21)
(0.941547 -0.0522581 -2.84915e-21)
(0.930743 -0.0288259 -5.05738e-21)
(0.928542 -0.00205595 -4.85922e-21)
(0.935262 0.0225366 4.36504e-22)
(0.94811 0.0411134 -2.86896e-21)
(0.963298 0.0524004 1.65304e-21)
(0.982608 0.0659049 -1.86647e-21)
(0.996705 0.0655622 1.91621e-21)
(1.00845 0.060509 -7.39653e-23)
(1.01379 0.0556862 -4.31311e-22)
(1.01772 0.0492349 3.51018e-22)
(1.01967 0.0430682 1.22962e-22)
(1.02021 0.0372428 1.3514e-22)
(1.01991 0.0318453 -1.79538e-23)
(1.01919 0.0269542 2.65562e-24)
(1.01833 0.0225043 0)
(1.01742 0.0184325 0)
(1.01655 0.014665 0)
(1.0158 0.0111418 0)
(1.01521 0.00782213 0)
(1.01483 0.00463718 0)
(1.01468 0.00154019 0)
(1.02106 -0.00181491 0)
(1.0214 -0.00561541 0)
(1.02214 -0.00951301 0)
(1.02325 -0.0137387 0)
(1.02469 -0.018357 0)
(1.02643 -0.0234993 0)
(1.02838 -0.0292945 0)
(1.03036 -0.035865 5.81527e-23)
(1.03214 -0.0433464 -5.46791e-24)
(1.03363 -0.051994 -6.22627e-22)
(1.03447 -0.0620749 3.1368e-22)
(1.03399 -0.0734258 3.21056e-22)
(1.03124 -0.0857964 -4.5473e-22)
(1.02054 -0.095382 -2.40041e-21)
(1.01103 -0.103322 1.77357e-21)
(0.994521 -0.111998 1.90805e-21)
(0.968678 -0.114229 -1.17701e-21)
(0.939972 -0.105558 1.92694e-22)
(0.909667 -0.0836621 -1.7131e-21)
(0.887268 -0.0468007 5.78217e-21)
(0.881793 -0.00137541 3.3534e-21)
(0.895789 0.040442 4.71202e-21)
(0.922328 0.0689919 2.14754e-21)
(0.951409 0.0830863 4.93977e-22)
(0.977359 0.0869151 1.94435e-21)
(0.997705 0.0822522 -1.30681e-22)
(1.01082 0.0751406 -9.05789e-22)
(1.02445 0.0667993 5.28618e-22)
(1.02735 0.0580713 -4.561e-22)
(1.02852 0.0498553 2.13813e-22)
(1.0284 0.0424305 -1.92946e-23)
(1.02739 0.035798 1.65364e-22)
(1.0259 0.0299496 -2.67591e-23)
(1.02439 0.0247903 0)
(1.02297 0.0201897 0)
(1.02169 0.0160079 0)
(1.02062 0.0121536 0)
(1.01981 0.00852311 0)
(1.01927 0.00506562 0)
(1.01904 0.00167318 0)
(1.02616 -0.00191081 0)
(1.02667 -0.00566145 0)
(1.02772 -0.00963059 0)
(1.02932 -0.0139127 0)
(1.03143 -0.0186233 0)
(1.03403 -0.0239552 0)
(1.03705 -0.0300817 -3.3465e-24)
(1.04029 -0.0371845 -1.49534e-23)
(1.04374 -0.0455903 1.43399e-23)
(1.04734 -0.0558297 3.50215e-22)
(1.05058 -0.0683297 -1.19801e-22)
(1.05263 -0.0833897 -8.07217e-22)
(1.05204 -0.10183 4.80497e-22)
(1.04033 -0.116923 -1.03224e-21)
(1.02955 -0.132635 1.42043e-21)
(1.0096 -0.150894 -9.00896e-22)
(0.977494 -0.157485 4.8677e-22)
(0.928955 -0.158046 -6.65086e-22)
(0.874248 -0.135242 -1.71733e-21)
(0.825988 -0.0801912 2.87756e-21)
(0.809885 -0.000890195 3.77441e-21)
(0.835802 0.0712339 1.09136e-21)
(0.885523 0.113885 -8.5677e-22)
(0.939545 0.12895 1.97948e-22)
(0.979326 0.123467 -6.34785e-22)
(1.01116 0.112116 -6.08326e-22)
(1.02549 0.0953028 5.1802e-22)
(1.03937 0.0800812 -6.62141e-23)
(1.04047 0.0657488 -1.63227e-22)
(1.03981 0.0551292 2.24392e-22)
(1.03828 0.0463559 -2.18261e-23)
(1.03613 0.0387934 -3.57265e-23)
(1.03365 0.0321867 2.50245e-23)
(1.0312 0.0264587 -6.35445e-24)
(1.0291 0.0214285 0)
(1.02731 0.016915 0)
(1.02584 0.0127856 0)
(1.02474 0.0089287 0)
(1.02402 0.00526308 0)
(1.0237 0.00172318 0)
(1.03112 -0.00172107 0)
(1.03179 -0.00525257 0)
(1.03321 -0.00904775 0)
(1.03532 -0.013065 0)
(1.03818 -0.0175973 0)
(1.04177 -0.0227774 0)
(1.04605 -0.0288157 -2.86883e-23)
(1.05094 -0.0359613 1.8909e-22)
(1.05683 -0.0449056 -3.81291e-23)
(1.06348 -0.0562616 -1.6283e-22)
(1.07031 -0.0703562 -3.97336e-22)
(1.07654 -0.0878634 6.27463e-22)
(1.08132 -0.110803 -8.24522e-23)
(1.07293 -0.132896 -2.54993e-22)
(1.06526 -0.158638 5.71657e-22)
(1.04053 -0.190324 -8.10557e-22)
(1.00283 -0.217399 -1.4918e-22)
(0.937157 -0.24608 -2.21255e-22)
(0.832481 -0.245533 -4.52726e-22)
(0.709422 -0.168032 1.14727e-21)
(0.653363 -0.0028353 -8.25636e-22)
(0.721313 0.154703 3.1777e-21)
(0.845967 0.22004 1.00115e-21)
(0.945001 0.211977 -1.22239e-22)
(1.00922 0.18026 7.26168e-24)
(1.04488 0.144764 -1.95968e-21)
(1.05381 0.111521 -2.43581e-22)
(1.06118 0.0863626 1.47876e-22)
(1.05722 0.069382 -1.59583e-23)
(1.0532 0.0574858 1.73309e-23)
(1.04941 0.0479956 -1.94156e-22)
(1.04571 0.0400782 -3.23315e-23)
(1.04211 0.03322 1.09444e-22)
(1.03862 0.0272035 9.93933e-24)
(1.03566 0.0219524 0)
(1.03325 0.0172943 0)
(1.03133 0.0130571 0)
(1.0299 0.00916089 0)
(1.02898 0.00542966 0)
(1.02855 0.00186685 0)
(1.03564 -0.00147962 0)
(1.03649 -0.00460701 0)
(1.03817 -0.00774547 0)
(1.04082 -0.0112969 0)
(1.04444 -0.015282 0)
(1.04909 -0.0198748 0)
(1.05469 -0.0252514 -9.61658e-24)
(1.06168 -0.0318969 9.99652e-24)
(1.0706 -0.0405887 2.72298e-23)
(1.08098 -0.0519212 5.93997e-24)
(1.0925 -0.0664292 -3.9654e-23)
(1.10449 -0.0845248 -1.18512e-22)
(1.11612 -0.106655 1.80891e-22)
(1.11602 -0.136332 -3.14148e-22)
(1.11778 -0.171383 -3.92581e-22)
(1.10828 -0.21936 1.09869e-22)
(1.08227 -0.281488 7.80756e-23)
(1.02208 -0.378502 1.36844e-22)
(0.855471 -0.489393 -1.09107e-21)
(0.480723 -0.47571 -4.49697e-20)
(0.187994 0.00681079 -6.91575e-21)
(0.503647 0.469063 -1.85512e-20)
(0.87362 0.463956 9.29973e-22)
(1.03723 0.336506 1.21376e-22)
(1.09069 0.23292 -6.80285e-23)
(1.10317 0.158443 2.53144e-23)
(1.09395 0.118931 -3.89517e-22)
(1.08697 0.0816696 -4.42226e-23)
(1.07641 0.0671455 -1.15212e-22)
(1.06763 0.0554886 1.21704e-22)
(1.06088 0.0463689 -5.48732e-23)
(1.05541 0.0390807 3.62529e-24)
(1.0507 0.0326966 -1.40848e-23)
(1.04628 0.0268647 -6.97813e-24)
(1.04241 0.021669 0)
(1.03931 0.0170456 0)
(1.03688 0.0128368 0)
(1.0351 0.00892113 0)
(1.03395 0.00526701 0)
(1.03343 0.00163138 0)
(1.03937 -0.00116499 0)
(1.04037 -0.00352736 0)
(1.04246 -0.00606945 0)
(1.04559 -0.00879558 0)
(1.04983 -0.0118055 0)
(1.05533 -0.0152886 0)
(1.06228 -0.0194537 6.33259e-24)
(1.0716 -0.0249023 4.87801e-24)
(1.0837 -0.0323137 2.98222e-24)
(1.09795 -0.0420644 2.12411e-23)
(1.11442 -0.0547261 -2.60199e-23)
(1.13289 -0.0708404 -1.11877e-23)
(1.15272 -0.0896751 1.53043e-23)
(1.16021 -0.120926 -7.5596e-23)
(1.18047 -0.155439 -6.82448e-23)
(1.19384 -0.208706 -8.2991e-23)
(1.21339 -0.284548 2.30025e-22)
(1.24958 -0.419889 1.05012e-21)
(0.922399 -0.493008 -7.35713e-20)
(1.11412 0.58266 3.05644e-20)
(1.2778 0.365776 1.41896e-22)
(1.21725 0.214704 2.87105e-22)
(1.17315 0.133772 2.77469e-23)
(1.13738 0.100248 1.01206e-22)
(1.11224 0.0667595 -8.05605e-23)
(1.09385 0.0561795 -2.0128e-24)
(1.08048 0.0477094 4.5831e-23)
(1.07116 0.0410484 1.14935e-23)
(1.06417 0.0354478 1.24431e-23)
(1.05862 0.0302696 4.96261e-24)
(1.05363 0.0252104 3.73255e-24)
(1.04901 0.0204394 0)
(1.04526 0.016108 0)
(1.04233 0.0121687 0)
(1.04019 0.00848909 0)
(1.03881 0.00502993 0)
(1.03815 0.00172246 0)
(1.04202 -0.000845335 0)
(1.04313 -0.0022751 0)
(1.04537 -0.00384132 0)
(1.04876 -0.00545818 0)
(1.05348 -0.00724101 0)
(1.05969 -0.00925409 0)
(1.0679 -0.0117256 -5.41932e-24)
(1.07947 -0.0152826 -2.49871e-24)
(1.09436 -0.0203233 3.05669e-23)
(1.11187 -0.0269209 -9.40629e-24)
(1.13226 -0.035321 -6.58195e-23)
(1.15603 -0.0462591 -1.4101e-22)
(1.18287 -0.0586873 9.10724e-23)
(1.19898 -0.0859692 -8.12686e-24)
(1.23437 -0.110397 -1.66834e-22)
(1.26684 -0.151209 -9.56123e-23)
(1.31932 -0.198667 1.36469e-22)
(1.39914 -0.243439 1.58393e-21)
(0.00708028 0.0124121 3.47423e-19)
(0.0764113 0.000398236 -2.22804e-19)
(1.44985 0.169736 -3.39115e-22)
(1.30764 0.111725 1.71171e-23)
(1.22003 0.0710907 -4.46955e-22)
(1.16768 0.0590954 -6.95601e-22)
(1.12645 0.0414821 1.15757e-22)
(1.10448 0.0390478 -8.1953e-23)
(1.08916 0.035933 -2.45673e-23)
(1.07847 0.0327782 -2.19334e-23)
(1.07083 0.0295629 3.06405e-23)
(1.0651 0.0261354 -1.63268e-23)
(1.06008 0.022308 3.04807e-24)
(1.05506 0.0182647 0)
(1.05077 0.0144608 0)
(1.04742 0.010974 0)
(1.04498 0.00774548 0)
(1.04336 0.00458689 0)
(1.04256 0.00161961 0)
(1.04392 -0.000166707 3.76678e-25)
(1.04492 -0.000801973 0)
(1.04704 -0.00126774 0)
(1.05044 -0.00168663 0)
(1.05528 -0.00208185 0)
(1.06177 -0.0024073 0)
(1.07095 -0.0028292 1.20132e-23)
(1.08411 -0.00388756 -4.60374e-24)
(1.10067 -0.00556737 -5.22931e-23)
(1.12001 -0.00778775 -6.489e-23)
(1.14244 -0.0103617 4.78954e-23)
(1.16912 -0.0140927 4.69749e-22)
(1.19969 -0.0177944 -3.17444e-22)
(1.22422 -0.0377373 -4.1864e-22)
(1.26621 -0.0503581 -7.96505e-22)
(1.30684 -0.0766243 4.95889e-23)
(1.3605 -0.100467 -6.53425e-22)
(1.30692 -0.0966143 3.71667e-22)
(0.00566754 -0.0380901 2.5565e-21)
(0.305203 -0.0277459 1.17723e-20)
(1.41339 -0.038185 -8.82907e-22)
(1.3109 -0.0165648 7.71508e-22)
(1.21808 -0.00351757 -1.37549e-21)
(1.16929 0.011579 1.31788e-21)
(1.12677 0.0151426 6.75166e-22)
(1.10695 0.0213854 -3.67405e-22)
(1.09231 0.0233519 -4.94387e-22)
(1.08204 0.0235805 -3.66294e-23)
(1.07471 0.0226342 -2.11225e-23)
(1.06951 0.0209211 2.79673e-23)
(1.06514 0.0184502 -1.69648e-23)
(1.06021 0.0153456 0)
(1.05553 0.0121654 0)
(1.0518 0.0091821 0)
(1.04907 0.00637068 0)
(1.04732 0.00372509 0)
(1.0465 0.00100392 0)
(1.04362 0.000304516 1.78301e-26)
(1.04483 0.000775945 0)
(1.04697 0.00133813 0)
(1.05028 0.00204042 0)
(1.05493 0.00302294 0)
(1.06124 0.00442141 0)
(1.07067 0.00624534 -1.48976e-23)
(1.08432 0.00805757 1.32389e-23)
(1.10103 0.0101971 4.58798e-24)
(1.12038 0.0129524 -6.6529e-23)
(1.14277 0.0169038 2.23027e-22)
(1.16947 0.0212527 -6.04633e-23)
(1.20093 0.0274299 1.00608e-24)
(1.2317 0.0171494 -3.73144e-22)
(1.27704 0.0171963 2.27475e-21)
(1.32533 0.00297708 8.99042e-22)
(1.3831 -0.014065 -5.62413e-22)
(1.26541 -0.0360919 -6.60796e-24)
(0.207228 -0.188325 5.56591e-22)
(-0.0173011 -0.396693 -1.29517e-22)
(-0.236266 -0.290448 -1.89796e-22)
(-0.054939 -0.132307 -9.25649e-22)
(0.656319 -0.215386 2.37469e-21)
(1.32376 -0.224577 2.95486e-22)
(1.23962 -0.127017 -3.13126e-21)
(1.16995 -0.0592815 1.11332e-21)
(1.14194 -0.0221987 5.65712e-22)
(1.11116 0.000437101 3.26771e-22)
(1.09976 0.00941784 -6.32888e-22)
(1.0901 0.0140277 2.47478e-23)
(1.08224 0.0158681 -8.07618e-24)
(1.07622 0.0161639 9.17393e-23)
(1.07195 0.0155292 -1.17145e-23)
(1.06859 0.0140552 -5.68368e-24)
(1.06429 0.0119205 0)
(1.05952 0.00954458 0)
(1.0556 0.00728483 0)
(1.05267 0.00508707 0)
(1.0507 0.00304009 0)
(1.04969 0.0011081 0)
(1.04254 0.00051382 -5.78573e-24)
(1.04351 0.00176094 0)
(1.04541 0.00320538 0)
(1.04835 0.00495937 0)
(1.0524 0.00719678 0)
(1.05796 0.0101048 0)
(1.06664 0.013943 5.62948e-25)
(1.0795 0.0185564 1.90503e-23)
(1.09486 0.0244838 -4.33002e-23)
(1.11228 0.0321522 2.03e-23)
(1.13241 0.0424798 2.48193e-22)
(1.15629 0.0551302 -7.00133e-22)
(1.18525 0.0725191 4.88335e-22)
(1.22028 0.075666 -1.63369e-22)
(1.26633 0.0913408 1.16293e-21)
(1.33024 0.109538 -2.20385e-21)
(1.40631 0.10441 -2.09062e-22)
(1.35542 0.0697916 2.42893e-20)
(0.658257 -0.204338 3.30985e-21)
(0.186607 -0.511917 -1.48753e-21)
(-0.325225 -0.723064 -3.43125e-21)
(-0.134448 -0.737115 5.14937e-21)
(0.682447 -0.570486 -3.64883e-22)
(1.07324 -0.329066 2.73603e-21)
(1.0966 -0.166016 -1.12623e-21)
(1.09246 -0.0650649 -1.10347e-21)
(1.10013 -0.0226105 -6.67583e-22)
(1.09338 0.00413301 2.59527e-22)
(1.09036 0.0086332 -9.86093e-22)
(1.0857 0.010567 -3.14666e-22)
(1.08074 0.0111479 -3.5355e-22)
(1.07657 0.0111083 1.28803e-22)
(1.07324 0.0105226 1.60318e-24)
(1.07077 0.00952604 -1.39728e-24)
(1.067 0.0080754 0)
(1.06235 0.00651802 0)
(1.05841 0.00507661 0)
(1.05544 0.00368092 0)
(1.05342 0.00229479 0)
(1.05248 0.000976288 -4.55806e-24)
(1.04074 0.000737344 -8.25197e-24)
(1.0414 0.00248168 0)
(1.04288 0.00450575 0)
(1.04514 0.00693709 0)
(1.04824 0.0100072 0)
(1.05251 0.0139091 0)
(1.05959 0.0190302 0)
(1.07045 0.0256228 6.92799e-24)
(1.08297 0.0345551 5.69674e-23)
(1.09669 0.0462391 1.13626e-22)
(1.11209 0.0621251 -7.95338e-23)
(1.12994 0.0823932 -6.50233e-22)
(1.15162 0.109695 5.68413e-22)
(1.18213 0.145233 3.81885e-22)
(1.22587 0.167102 -6.8199e-22)
(1.28191 0.213003 2.90192e-23)
(1.36372 0.253313 -7.56924e-22)
(1.44069 0.318985 -1.23229e-20)
(1.07313 0.16917 -4.66234e-21)
(0.59387 -0.0802138 -2.90998e-22)
(0.00297318 -0.381332 -1.74978e-20)
(-0.18522 -0.609258 -1.67468e-20)
(0.278286 -0.494936 6.57847e-21)
(0.789091 -0.20562 -2.26353e-20)
(0.952162 -0.0447283 1.53682e-21)
(1.02765 -0.00615318 -2.10504e-21)
(1.07094 0.027224 2.89029e-23)
(1.08665 0.0202529 4.06153e-22)
(1.08888 0.0161119 -2.57642e-22)
(1.08618 0.0125365 -1.41785e-23)
(1.08184 0.00948329 -8.87275e-23)
(1.07747 0.00723626 -5.13028e-23)
(1.07438 0.00590844 -1.03699e-23)
(1.07228 0.00482753 0)
(1.06856 0.00386277 0)
(1.06382 0.00304462 0)
(1.05976 0.00232349 0)
(1.0568 0.0015979 0)
(1.05492 0.000843864 0)
(1.05388 3.26479e-05 -3.44123e-25)
(1.03835 0.000945029 7.19109e-24)
(1.03872 0.00284577 0)
(1.03965 0.00507037 0)
(1.04115 0.00767964 0)
(1.04319 0.0109789 0)
(1.04599 0.0151359 0)
(1.05097 0.0206943 0)
(1.05892 0.0282663 0)
(1.06743 0.0388738 -6.262e-24)
(1.07577 0.0530308 3.96091e-23)
(1.0844 0.0722757 -1.07773e-22)
(1.09325 0.0973466 1.9655e-22)
(1.10361 0.130113 -4.38113e-22)
(1.11617 0.176199 -1.11725e-22)
(1.15325 0.217458 2.91811e-22)
(1.18546 0.286793 9.642e-22)
(1.23552 0.363002 -2.60831e-21)
(1.30543 0.495473 -1.85236e-21)
(1.22627 0.630753 -7.72286e-21)
(0.879032 0.601677 -1.04426e-20)
(0.435651 0.398374 -9.15973e-22)
(0.0921228 0.0959334 -8.68906e-21)
(0.0920232 -0.0965621 -3.21933e-21)
(0.489958 0.0037395 1.24451e-19)
(0.920557 0.130374 1.10527e-21)
(1.02756 0.0904483 7.88614e-22)
(1.09172 0.0645689 7.73965e-23)
(1.09989 0.0372237 2.44731e-22)
(1.09828 0.0236868 7.32881e-23)
(1.09263 0.0138329 -2.45845e-23)
(1.08621 0.00750254 2.18055e-23)
(1.08042 0.00342524 -4.45635e-24)
(1.07639 0.000968008 0)
(1.07349 -0.000373835 0)
(1.06924 -0.000799154 0)
(1.06429 -0.000856099 0)
(1.06011 -0.000825395 5.78105e-23)
(1.05703 -0.000758331 7.99482e-23)
(1.05492 -0.000538373 4.76739e-23)
(1.05362 -0.000244317 0)
(1.03569 0.000898698 0)
(1.03588 0.00278661 0)
(1.03639 0.00480226 0)
(1.03717 0.0071411 0)
(1.03815 0.0100746 0)
(1.03943 0.013754 0)
(1.04192 0.0188363 0)
(1.04603 0.0263365 0)
(1.04971 0.0371306 -6.92982e-26)
(1.05201 0.0515163 3.63427e-24)
(1.05278 0.0708809 -8.74233e-24)
(1.05139 0.0965755 -1.51959e-22)
(1.04898 0.129365 3.88881e-22)
(1.04389 0.17748 -6.74556e-22)
(1.06166 0.228461 6.30801e-21)
(1.06432 0.299882 -3.9784e-22)
(1.08755 0.391447 -5.29033e-22)
(1.0573 0.520412 -3.23511e-21)
(1.01056 0.693008 -2.51364e-21)
(0.897296 0.815087 -1.57465e-20)
(0.689754 0.808691 3.16992e-21)
(0.464762 0.664398 -6.91638e-21)
(0.335643 0.44994 3.22702e-21)
(0.394085 0.280071 6.89007e-22)
(0.991823 0.254529 8.16961e-22)
(1.11521 0.154172 1.98592e-21)
(1.14348 0.0706024 -3.08508e-22)
(1.13203 0.0400155 3.50853e-22)
(1.11793 0.0213117 -5.48656e-23)
(1.10463 0.00884434 -3.92576e-24)
(1.09357 0.00161761 -1.56093e-24)
(1.08484 -0.00294894 -5.59477e-26)
(1.07879 -0.00551389 0)
(1.07412 -0.00643812 0)
(1.06887 -0.00590877 0)
(1.06362 -0.00498262 0)
(1.05935 -0.00394627 0)
(1.05618 -0.00283443 0)
(1.05399 -0.00161233 0)
(1.05274 -0.000455944 -8.58613e-24)
(1.0333 0.00070205 0)
(1.03335 0.00214796 0)
(1.03358 0.00364358 0)
(1.03385 0.00533917 0)
(1.03399 0.00739261 0)
(1.03388 0.00995744 0)
(1.03375 0.0136086 0)
(1.03375 0.0194981 0)
(1.03252 0.0284379 0)
(1.02922 0.0404223 0)
(1.02274 0.0565034 2.31857e-24)
(1.01194 0.0780291 -1.17412e-23)
(0.996113 0.105627 3.44813e-23)
(0.974883 0.148399 -8.22812e-23)
(0.97153 0.199749 2.03005e-20)
(0.942629 0.264202 -7.93932e-22)
(0.931337 0.367725 8.38176e-21)
(0.904276 0.462186 -9.89197e-23)
(0.841144 0.554954 -1.9738e-21)
(0.765128 0.665587 6.14857e-21)
(0.674848 0.756194 1.66608e-21)
(0.594355 0.771742 -6.63807e-21)
(0.559617 0.686673 4.44475e-21)
(0.663696 0.484364 2.15851e-21)
(1.14031 0.231132 -4.2949e-22)
(1.24349 0.124632 3.59895e-23)
(1.2028 0.0316869 2.46273e-23)
(1.16727 0.0147213 -1.04897e-23)
(1.13851 0.00084172 5.17984e-23)
(1.11725 -0.00712902 5.19248e-24)
(1.10108 -0.0112714 0)
(1.08904 -0.0137121 0)
(1.0803 -0.0143905 0)
(1.07334 -0.0134771 0)
(1.06695 -0.0113073 0)
(1.06144 -0.00904918 0)
(1.05718 -0.00683446 0)
(1.05407 -0.0047086 0)
(1.05202 -0.00268965 0)
(1.05093 -0.000824121 0)
(1.03168 0.000340252 0)
(1.03171 0.00104061 0)
(1.03183 0.00176997 0)
(1.03185 0.00257296 0)
(1.03158 0.00344636 0)
(1.03062 0.00446513 0)
(1.02855 0.00595599 0)
(1.02537 0.00878905 0)
(1.02044 0.0136667 0)
(1.01293 0.0203187 0)
(1.00101 0.0295802 0)
(0.982712 0.0418129 -1.50069e-24)
(0.955269 0.0587363 -6.18981e-24)
(0.919919 0.0851333 -4.90308e-23)
(0.896096 0.136621 6.73958e-21)
(0.842379 0.185422 2.8232e-21)
(0.792115 0.268459 5.11789e-21)
(0.746561 0.396693 3.81221e-22)
(0.665848 0.554804 -6.44459e-22)
(0.608675 0.692579 -2.82888e-21)
(0.611528 0.757425 1.89789e-21)
(0.670375 0.712738 2.41031e-21)
(0.794373 0.553071 -1.20443e-21)
(1.01339 0.3131 1.59579e-21)
(1.33828 0.0591073 -1.45709e-21)
(1.32788 0.00629521 9.66915e-22)
(1.23285 -0.0424402 -7.34297e-22)
(1.1826 -0.0359843 -4.42904e-23)
(1.14708 -0.0355049 1.77283e-24)
(1.12183 -0.0330008 0)
(1.10296 -0.0303797 0)
(1.08893 -0.0279121 0)
(1.07829 -0.0247227 0)
(1.06975 -0.0208706 0)
(1.06284 -0.0166291 0)
(1.05749 -0.0128712 0)
(1.0535 -0.0095085 0)
(1.05067 -0.00652103 0)
(1.04886 -0.0037863 0)
(1.04798 -0.00123478 0)
(1.03129 -3.29514e-06 0)
(1.03135 -6.55748e-06 0)
(1.03147 -9.11039e-05 0)
(1.03151 -0.000287357 0)
(1.03128 -0.000676406 0)
(1.03025 -0.00135787 0)
(1.02756 -0.00227007 0)
(1.02303 -0.00308682 0)
(1.01659 -0.00348995 0)
(1.00746 -0.00413094 0)
(0.993469 -0.0047077 6.93729e-23)
(0.971638 -0.00597603 0)
(0.937688 -0.00519004 0)
(0.891534 -0.00208675 -1.72544e-22)
(0.831653 0.0192989 5.24155e-21)
(0.773501 0.0724218 1.11088e-20)
(0.630854 0.126303 9.73876e-23)
(0.516669 0.197582 -7.82743e-22)
(0.473753 0.241742 -1.4765e-21)
(0.531235 0.240873 -1.01821e-20)
(0.70468 0.196068 6.99044e-22)
(0.913467 0.0931593 8.49997e-21)
(1.13962 -0.0429858 -3.46183e-22)
(1.32613 -0.154406 3.3254e-22)
(1.40345 -0.184118 2.75702e-23)
(1.28326 -0.162563 -1.94303e-22)
(1.21126 -0.119507 7.31901e-22)
(1.16615 -0.0925419 0)
(1.13554 -0.0746111 0)
(1.11259 -0.0603609 -4.15767e-23)
(1.0952 -0.0497402 0)
(1.08182 -0.0414035 0)
(1.07115 -0.033966 0)
(1.0626 -0.0272588 0)
(1.05626 -0.0211443 0)
(1.05176 -0.0160207 0)
(1.04849 -0.0116406 0)
(1.04619 -0.00789184 -9.51459e-24)
(1.04474 -0.00455145 -6.82587e-24)
(1.04403 -0.00146625 0)
(1.03163 -0.000136158 0)
(1.03186 -0.000632724 0)
(1.03219 -0.00135063 0)
(1.03259 -0.00238163 0)
(1.03294 -0.00388751 0)
(1.03267 -0.00608554 0)
(1.03067 -0.00916258 0)
(1.02682 -0.013292 0)
(1.02164 -0.0187622 0)
(1.01453 -0.0267169 0)
(1.00338 -0.0379862 6.2107e-23)
(0.984794 -0.0552203 0)
(0.950643 -0.0763955 0)
(0.88814 -0.100761 -3.71442e-21)
(0.795194 -0.12066 -3.00975e-20)
(0.704126 -0.112655 -1.58173e-21)
(0.641837 -0.1848 0)
(0.62125 -0.300628 -2.58415e-22)
(0.641397 -0.42415 -8.58252e-21)
(0.734536 -0.521671 6.53958e-21)
(0.895062 -0.58519 1.19923e-20)
(1.059 -0.593781 -1.27283e-20)
(1.19305 -0.551923 -3.08025e-23)
(1.25806 -0.453847 0)
(1.23556 -0.330475 -1.17003e-21)
(1.18512 -0.233678 3.41738e-22)
(1.15093 -0.173209 -1.59575e-22)
(1.12414 -0.133022 0)
(1.10533 -0.102502 0)
(1.0903 -0.0798947 -2.33912e-22)
(1.0782 -0.0630111 0)
(1.06822 -0.0501536 0)
(1.05959 -0.039723 0)
(1.05252 -0.0311876 0)
(1.04766 -0.0239123 0)
(1.04457 -0.0179362 1.72132e-23)
(1.04243 -0.0129202 -2.23683e-23)
(1.04095 -0.00866452 0)
(1.04007 -0.00494013 0)
(1.03966 -0.00152431 -5.25647e-23)
(1.03223 -0.000221594 0)
(1.03283 -0.000916527 0)
(1.03365 -0.00190303 0)
(1.03476 -0.00334273 0)
(1.03611 -0.00543759 0)
(1.03724 -0.00851196 0)
(1.03709 -0.0129886 -8.46388e-24)
(1.03569 -0.0193963 0)
(1.03442 -0.0285003 0)
(1.03323 -0.041861 0)
(1.03072 -0.0611685 0)
(1.02433 -0.0911966 0)
(1.00238 -0.132297 0)
(0.933985 -0.187779 8.3287e-21)
(0.837301 -0.249482 3.038e-22)
(0.787561 -0.308836 1.35667e-22)
(0.796309 -0.408728 0)
(0.779766 -0.498735 0)
(0.775923 -0.57031 -2.61284e-22)
(0.806286 -0.621514 -2.86306e-20)
(0.895593 -0.634063 -1.67528e-20)
(0.988362 -0.601258 3.11931e-21)
(1.05795 -0.529611 0)
(1.08518 -0.429178 0)
(1.0804 -0.326233 0)
(1.07814 -0.249213 -1.62219e-23)
(1.07669 -0.19264 -5.61769e-23)
(1.06977 -0.147805 2.10239e-23)
(1.06479 -0.113051 0)
(1.06015 -0.0869677 0)
(1.05546 -0.0671833 0)
(1.05072 -0.0521991 0)
(1.04565 -0.0405391 7.5537e-23)
(1.04107 -0.0314054 3.09551e-23)
(1.03821 -0.0239584 1.55948e-24)
(1.03676 -0.0179773 0)
(1.03586 -0.013009 0)
(1.0353 -0.00878552 0)
(1.0351 -0.00505914 0)
(1.03516 -0.00167098 0)
(1.03308 -0.000279796 0)
(1.03398 -0.000889446 0)
(1.03533 -0.00171999 0)
(1.03723 -0.00299874 0)
(1.03979 -0.00495257 0)
(1.04271 -0.00793764 0)
(1.04521 -0.0125262 0)
(1.04753 -0.0194785 0)
(1.05176 -0.0296446 2.16334e-23)
(1.0588 -0.0444197 0)
(1.06877 -0.0655959 0)
(1.08041 -0.0978783 0)
(1.0833 -0.144152 4.12092e-22)
(1.0397 -0.212401 1.98764e-21)
(0.953835 -0.309316 0)
(0.90406 -0.409156 0)
(0.886277 -0.49598 0)
(0.837557 -0.55243 0)
(0.814864 -0.586889 -7.56235e-21)
(0.808108 -0.607151 -1.60472e-20)
(0.841439 -0.590619 5.15244e-21)
(0.887289 -0.527163 -3.11207e-21)
(0.931447 -0.450164 0)
(0.958004 -0.365014 0)
(0.976478 -0.291845 0)
(0.999316 -0.233907 0)
(1.00859 -0.183181 -6.62919e-22)
(1.01509 -0.14006 -1.06634e-21)
(1.02308 -0.107046 0)
(1.02826 -0.081393 -2.16476e-24)
(1.03121 -0.0619324 1.66541e-24)
(1.03224 -0.0471478 -2.31152e-24)
(1.03141 -0.03585 0)
(1.02994 -0.0272967 0)
(1.02938 -0.0207312 0)
(1.02959 -0.0156409 0)
(1.02983 -0.0114503 0)
(1.03 -0.00789907 0)
(1.03024 -0.0046712 0)
(1.03052 -0.00168503 0)
(1.03384 -0.00010353 0)
(1.03481 -0.000376971 0)
(1.03652 -0.000726879 0)
(1.03912 -0.00139183 0)
(1.04276 -0.00253012 0)
(1.04743 -0.00442345 0)
(1.0527 -0.00759069 0)
(1.05894 -0.0128401 0)
(1.06843 -0.020839 0)
(1.08291 -0.0321378 0)
(1.10416 -0.048022 4.39044e-23)
(1.13263 -0.0707848 -1.57158e-23)
(1.16309 -0.104685 1.10093e-21)
(1.1601 -0.159439 -7.81174e-22)
(1.10412 -0.254774 0)
(1.03319 -0.357729 0)
(0.970643 -0.450194 0)
(0.8904 -0.513053 0)
(0.836368 -0.560448 -1.32033e-20)
(0.795862 -0.571455 2.1484e-20)
(0.782843 -0.559783 -2.88382e-21)
(0.790512 -0.490707 1.6287e-20)
(0.82073 -0.420848 0)
(0.855551 -0.340271 0)
(0.89083 -0.268747 0)
(0.926542 -0.206603 0)
(0.947635 -0.15423 3.48941e-21)
(0.966825 -0.115414 -4.67359e-22)
(0.984817 -0.0863857 -8.2967e-22)