/*--------------------------------*- C++ -*----------------------------------*\
| =========                 |                                                 |
| \\      /  F ield         | OpenFOAM: The Open Source CFD Toolbox           |
|  \\    /   O peration     | Version:  v2106                                 |
|   \\  /    A nd           | Website:  www.openfoam.com                      |
|    \\/     M anipulation  |                                                 |
\*---------------------------------------------------------------------------*/
FoamFile
{
    version     2.0;
    format      ascii;
    arch        "LSB;label=32;scalar=64";
    class       volScalarField;
    location    "0";
    object      p;
}
// * * * * * * * * * * * * * * * * * * * * * * * * * * * * * * * * * * * * * //

dimensions      [0 2 -2 0 0 0 0];

internalField   nonuniform List<scalar> 
11644
(
0.0721188
0.0725928
0.0734981
0.0747703
0.0765969
0.0791551
0.0823186
0.0856767
0.0890903
0.092454
0.0956096
0.0980271
0.0991547
0.0981492
0.095282
0.0909301
0.0860659
0.0793376
0.0712075
0.0665516
0.0637967
0.0624647
0.0637376
0.0639766
0.0649845
0.066705
0.066127
0.06494
0.0631871
0.0604978
0.0573776
0.0541062
0.0508445
0.047765
0.0447886
0.0422663
0.040425
0.0390145
0.0380008
0.0374702
0.0701372
0.070455
0.071363
0.0728585
0.0748534
0.0771506
0.0799638
0.0834557
0.0873278
0.091134
0.094582
0.0972402
0.0986895
0.0995525
0.0979014
0.0944159
0.089458
0.0856044
0.0807465
0.0622266
0.0639259
0.0691024
0.0641125
0.0649684
0.0664119
0.0662517
0.0663814
0.0646119
0.0616431
0.0584162
0.0550464
0.0515694
0.0482336
0.0451496
0.0425372
0.0403169
0.0383463
0.0368182
0.0358398
0.0354743
0.0699425
0.0698974
0.0702774
0.0712646
0.0727702
0.0746647
0.0768476
0.0793902
0.0823474
0.0856602
0.0889909
0.0922752
0.0954725
0.0974973
0.0984194
0.0962853
0.0912085
0.087282
0.0817024
0.0730386
0.0709103
0.0673374
0.0611157
0.0620429
0.0639209
0.0632156
0.0608027
0.0583273
0.0554336
0.0522641
0.0491049
0.0461877
0.0434976
0.0411275
0.0390956
0.0373754
0.0359689
0.0349982
0.0345648
0.0345883
0.0705671
0.070569
0.0706872
0.0709612
0.0714889
0.0723551
0.0735079
0.074921
0.0766903
0.0789239
0.0820476
0.086258
0.0902331
0.0948983
0.0987547
0.0974927
0.093697
0.0914877
0.0838164
0.0877476
0.0763425
0.0679334
0.0629793
0.0598096
0.0583336
0.0559686
0.0526349
0.0486824
0.0456731
0.0434748
0.0414246
0.0394828
0.0378696
0.03655
0.0354995
0.0347202
0.034217
0.0339735
0.0339428
0.0340038
0.0713183
0.0714488
0.0715758
0.0715589
0.0713681
0.0712125
0.0712278
0.0715556
0.0723955
0.0740825
0.0768863
0.0803442
0.0849672
0.0888591
0.0934337
0.0957375
0.0920392
0.10101
0.105449
0.084082
0.0785507
0.0784037
0.0655358
0.0542309
0.0507564
0.0466587
0.0406716
0.0372146
0.0344689
0.0330637
0.0327601
0.0324393
0.0322262
0.0322645
0.0324518
0.0327191
0.0330604
0.0333065
0.0333797
0.0333448
0.0725765
0.0727338
0.072917
0.0728619
0.0725581
0.072061
0.0714603
0.0710336
0.071222
0.0719545
0.0727931
0.0742458
0.0756054
0.0815142
0.0899947
0.0997996
0.0983996
0.111755
0.115326
0.105124
0.0942948
0.0854252
0.0680447
0.047894
0.03761
0.0318753
0.0281937
0.0242171
0.0242668
0.0242173
0.024954
0.026549
0.0282115
0.0295967
0.0308508
0.0319085
0.0326737
0.0331511
0.0332122
0.0331779
0.0751109
0.0753802
0.0757017
0.0758067
0.0758283
0.0755709
0.0750683
0.0744205
0.0738555
0.0731117
0.0728456
0.0739902
0.0768234
0.0729862
0.0795543
0.103889
0.134765
0.112155
0.103317
0.103765
0.0816556
0.0748008
0.0568708
0.0430647
0.0142584
0.00559022
0.00612343
0.0131758
0.0178906
0.0202381
0.0223483
0.0247654
0.0277212
0.0300806
0.0318293
0.0331385
0.0339441
0.0343834
0.0345694
0.0345223
0.0792299
0.079722
0.0801844
0.0810219
0.0816742
0.0821976
0.0824409
0.0824116
0.0816371
0.0807554
0.081803
0.0844767
0.0853368
0.0875029
0.0961058
0.0870014
0.0965375
0.103376
0.0986797
0.0860789
0.0649549
0.0486408
0.0334694
0.0260262
0.021597
-0.00639581
0.00734509
0.0108473
0.0192032
0.0236614
0.0275721
0.0300408
0.0325853
0.0349486
0.0363758
0.0372983
0.0378912
0.0380497
0.0380599
0.0380219
0.0848283
0.085135
0.0863334
0.0876574
0.0891119
0.0908571
0.0925831
0.0942786
0.095567
0.097704
0.100781
0.104998
0.109598
0.116107
0.122801
0.133724
0.11615
0.143553
0.120429
0.0997561
0.0818389
0.0551738
0.0375285
0.0535163
0.011565
0.0345651
0.0307884
0.0263702
0.0317933
0.0349891
0.0396044
0.0421783
0.0430689
0.0441373
0.0444691
0.0442788
0.044017
0.0437832
0.0434347
0.0430183
0.089111
0.090538
0.0926402
0.0948165
0.0977436
0.10095
0.104858
0.109369
0.114318
0.121111
0.128683
0.134399
0.136439
0.138914
0.141699
0.162149
0.163097
0.157667
0.138313
0.109469
0.067038
0.0400452
0.0310594
0.0390687
0.0463863
0.0478368
0.0507993
0.062233
0.0587583
0.0582462
0.0588182
0.0581177
0.0565112
0.0554826
0.0540651
0.0526186
0.051364
0.0504858
0.0497115
0.0494227
0.0926291
0.094327
0.0964248
0.100018
0.104373
0.109274
0.115319
0.122804
0.131381
0.140013
0.148647
0.15758
0.159973
0.15008
0.165832
0.157604
0.174451
0.186163
0.190065
0.15335
0.0462118
-0.00493206
0.0305581
0.0613972
0.0683194
0.0803351
0.0896187
0.0916316
0.0909724
0.0856518
0.0787174
0.0737623
0.0695425
0.06598
0.0628756
0.060493
0.0588415
0.0574144
0.056497
0.055323
0.0950487
0.0956687
0.0979198
0.101529
0.106286
0.112424
0.119392
0.127712
0.137266
0.146163
0.150524
0.157121
0.166562
0.146887
0.173971
0.177944
0.192931
0.225664
0.311405
0.211819
0.158078
0.144173
0.14296
0.135857
0.124444
0.110971
0.0975509
0.0895813
0.0823679
0.0759841
0.0712227
0.0678825
0.0653222
0.0636463
0.0621225
0.0613603
0.0614815
0.0916993
0.091506
0.0946745
0.0980588
0.102614
0.107916
0.113417
0.119547
0.125732
0.1341
0.131231
0.106835
0.103163
0.114419
0.119472
0.130084
0.153549
0.206436
0.2796
0.45795
0.285977
0.183273
0.157271
0.140748
0.104331
0.0903927
0.0853363
0.0842763
0.0753805
0.0702601
0.0677305
0.0666795
0.0652312
0.0636571
0.0628536
0.0635209
0.065994
0.0835236
0.0818363
0.0827593
0.0853416
0.0883143
0.090604
0.093079
0.0960486
0.0988623
0.101381
0.134493
-0.0160941
0.000262528
0.00957512
0.0241463
0.0507946
0.0449615
0.106203
0.110807
0.433666
0.297283
0.166507
0.107647
0.138148
-0.00805429
0.0222374
0.0647553
0.0594673
0.0501117
0.0524602
0.0559489
0.0591129
0.0598562
0.0589505
0.0568578
0.0556573
0.0594095
0.0703191
0.0616878
0.0618822
0.0646454
0.0646221
0.0595964
0.055603
0.0597184
0.0797507
0.0670651
0.0162102
-0.0482755
0.011861
0.117635
0.0419595
-0.0662918
-0.0658938
-0.0973049
-0.0825692
0.381771
0.996431
0.424242
0.680529
0.326455
0.132599
0.072609
0.115554
0.000194247
-0.0430432
-0.00304006
0.0427257
0.0145011
0.0203687
0.0400777
0.0452688
0.0444924
0.0462069
0.041084
0.0393854
0.0443115
0.0256923
0.0315711
0.0389995
0.0399381
0.0323015
0.0247998
0.0150411
0.0303777
0.0229638
0.00454501
0.0162827
0.0748806
0.0537104
-0.107856
0.110422
-0.068353
-0.175077
-0.343339
0.150882
0.253663
0.199591
0.164862
0.205146
0.0352423
0.068146
0.0835881
0.0790717
-0.0186422
0.0458922
-0.000529408
-0.0318331
-0.00988677
0.0117801
0.00712001
0.0222557
0.0350182
0.0395466
0.0372425
0.0298327
0.0308392
0.00636053
-0.000863899
0.00752863
0.0100171
0.00615324
-0.00701061
-0.00743704
0.0224881
0.0316037
0.041173
0.00829775
0.0778855
0.0977721
-0.0265009
0.176432
0.351855
0.0271622
-0.451381
-0.439066
0.431957
-3.64032
-0.435923
-0.0640936
0.0595214
0.245811
0.100904
-0.187851
0.0899994
0.046694
-0.0351496
0.0157057
0.0129867
0.0115517
-0.0162282
-0.000603527
0.0197058
0.0290515
0.0340084
0.0270646
0.0376756
-0.0137472
-0.0163175
-0.0187636
-0.0207849
-0.0220246
-0.0151495
-0.0101322
-0.0120657
0.0256785
0.0608538
0.0800944
0.078033
0.061159
0.317307
0.155161
0.191407
0.316827
0.234035
-1.3616
-1.49887
-0.815549
0.0526156
-0.0725294
0.337519
-0.26314
-0.186939
-0.0565751
0.145837
-0.028527
0.00383938
-0.000785033
-0.0144742
-0.012962
-0.00241486
-0.00778818
-0.00365172
0.00634243
0.0159868
0.0275709
0.0294777
-0.0413177
-0.0432623
-0.0416914
-0.0390128
-0.0323662
-0.0127285
0.013077
0.0178278
0.0226936
0.0536761
0.125105
0.252775
0.183134
0.0205648
0.134351
0.367742
0.55524
-0.331582
0.761714
0.290895
-0.293405
0.881008
0.177575
-1.11053
-0.221024
-0.221065
-0.275901
0.120776
-0.0193839
0.0171094
-0.00514509
-0.0110184
-0.00104176
0.00496217
-0.0121152
-0.0130199
-0.00954125
-0.00484277
-0.000383898
0.00241576
-0.0505755
-0.0514431
-0.0583826
-0.0622354
-0.0540651
-0.0397564
-0.00807812
0.00601955
0.0242067
0.035417
0.0677999
0.0222041
0.347352
0.152572
0.385407
0.46887
0.572846
1.19549
-0.336396
0.238342
-0.100849
-0.11792
-1.01792
1.38339
0.0688302
-0.168442
-0.0741344
0.229655
-0.550077
-0.0491742
-0.0198296
-0.00603393
-0.00254349
-0.0149056
-0.022761
-0.0141263
-0.0100879
-0.00412777
0.00354068
0.00672522
-0.0805483
-0.0800754
-0.0742329
-0.0699185
-0.068399
-0.0712892
-0.0678505
-0.0590568
-0.0374541
-0.031728
-0.0828354
0.301471
0.21201
0.0973051
0.351331
0.448292
0.306627
-0.167312
1.6381
-0.324088
-0.61943
0.362514
2.19486
-0.201119
0.440192
0.17062
-0.367036
-0.0900323
-0.0113406
-0.133121
-0.086193
-0.0649572
-0.0642525
-0.0277484
-0.0120196
0.0046476
0.00524165
0.00314688
0.00218167
0.003347
-0.0932467
-0.0953862
-0.0989369
-0.0976185
-0.0968996
-0.0944365
-0.0962516
-0.100832
-0.0720852
-0.0428556
0.025407
-0.0244833
-0.00292244
0.160943
0.072685
1.12213
-0.114248
1.42213
2.00623
-2.89925
-3.50285
-0.618289
1.34884
0.294773
0.706411
-0.450593
-0.369074
-0.117737
-0.131861
-0.112597
-0.10748
-0.0839771
-0.0595471
-0.0248597
-0.00323696
0.00659363
0.00956136
0.00962925
0.0118001
0.0138399
-0.118809
-0.111304
-0.113731
-0.11888
-0.122894
-0.123812
-0.118809
-0.117458
-0.124208
-0.149823
-0.196078
-0.0567177
-0.106022
-0.23811
1.56695
0.80262
1.03349
2.38952
-3.20165
-0.950897
-0.28285
0.205802
0.183089
-0.0299714
0.252496
0.791704
-1.09591
-0.413702
-0.232097
-0.185701
-0.113568
-0.0639423
-0.0257626
-0.00791719
0.0156354
0.021658
0.0273315
0.0329261
0.0333909
0.0219694
-0.14728
-0.152241
-0.146803
-0.145277
-0.145479
-0.150791
-0.159562
-0.166059
-0.175275
-0.175829
-0.147762
-0.116449
-0.107659
0.240325
0.429503
2.26376
3.2446
1.29086
-2.52379
-3.38468
-2.22619
-2.26301
0.432824
1.3972
0.657918
-0.967566
-0.356166
-0.256034
-0.153186
-0.088914
-0.0554971
-0.0423413
0.000970858
0.013868
0.0352435
0.0378013
0.0384106
0.0364523
0.0303553
0.0351059
-0.150774
-0.158434
-0.164021
-0.168082
-0.173443
-0.179942
-0.190306
-0.207221
-0.232988
-0.254392
-0.25729
-0.331397
-0.373529
0.203106
0.462384
-1.30284
-1.18053
-0.00178752
1.46373
3.01887
-0.116614
-0.707557
-1.11342
-1.78312
-1.06067
0.234618
-0.00270548
-0.199989
-0.0552092
0.0599107
0.0146635
0.0159841
0.0292775
0.0383296
0.0429721
0.046845
0.0456557
0.0458189
0.0522012
0.0509097
-0.162686
-0.160059
-0.163895
-0.175926
-0.18885
-0.200624
-0.213083
-0.232396
-0.259962
-0.271432
-0.233084
-0.612741
-0.341956
-0.518444
-0.0800021
0.634223
0.0536126
-0.0194902
-0.948699
-2.01361
-2.63955
-1.96628
0.567669
0.32512
1.01433
0.119244
-0.285493
0.336728
0.0467648
0.223242
0.130817
0.0990947
0.0870049
0.0793009
0.0697308
0.0716718
0.0691773
0.0707694
0.0678179
0.0646311
-0.177061
-0.187579
-0.186425
-0.1935
-0.210382
-0.219783
-0.233309
-0.275698
-0.304489
-0.309398
-0.365677
-0.447397
-0.418264
0.263679
-0.486809
-1.05724
-2.82696
-3.33619
3.67258
2.95913
2.02672
2.12157
-3.79657
-4.11398
0.806331
0.438999
0.870621
0.303168
0.194854
0.199353
0.14688
0.136196
0.110272
0.111025
0.0962484
0.089618
0.0856856
0.0823393
0.0752108
0.0787137
-0.182537
-0.19313
-0.200906
-0.210033
-0.224461
-0.239102
-0.257468
-0.272379
-0.290003
-0.325057
-0.34146
-0.44616
-0.543763
-0.493477
0.0905916
0.656047
0.483392
-0.215939
1.88913
1.71532
0.707123
0.168984
-0.326585
-0.0418189
0.443606
0.241182
-0.0308425
0.133046
0.100243
0.165832
0.13899
0.157286
0.143944
0.118873
0.103126
0.097976
0.0946939
0.091495
0.0918842
0.0863754
-0.192037
-0.18517
-0.191389
-0.202694
-0.216409
-0.231261
-0.253013
-0.279067
-0.284026
-0.337427
-0.337531
-0.288829
-0.199594
-0.4245
-0.609428
-0.523832
0.285517
1.35729
1.92205
1.99899
-2.57755
-0.708336
0.417958
-0.156714
-0.227425
-0.00830205
-0.0216386
0.0635469
0.142563
0.113767
0.038152
0.171068
0.150721
0.131655
0.117988
0.109607
0.104182
0.0982236
0.0938143
0.091374
-0.190417
-0.186129
-0.191888
-0.200356
-0.211235
-0.226299
-0.251728
-0.284918
-0.321281
-0.375594
-0.499722
-0.0828521
-0.113099
0.201963
0.0788982
-0.115843
-0.448197
-0.159833
0.0114479
0.277934
0.566847
-0.126226
-1.0535
-1.11906
0.0689884
0.157181
0.522264
0.275793
0.216402
-0.00746974
0.0358174
0.0797383
0.100776
0.112692
0.109091
0.104095
0.0991044
0.0957051
0.0950813
0.0902139
-0.176327
-0.184881
-0.187982
-0.193945
-0.204679
-0.220057
-0.239519
-0.262146
-0.288175
-0.316904
-0.311955
-0.25017
-0.293755
-0.478057
-0.316695
0.165528
0.369137
0.732941
0.861205
0.773996
0.14488
0.0105536
0.036155
0.274414
0.509074
-0.00374905
-0.278863
-0.00250179
0.102795
0.0491725
0.0762228
0.0914275
0.0965829
0.0999189
0.101192
0.102125
0.101019
0.0981374
0.0966395
0.0987226
-0.177758
-0.172668
-0.176852
-0.182244
-0.189185
-0.198824
-0.217219
-0.233332
-0.261927
-0.305101
-0.308288
-0.293301
-0.146968
0.0607531
-0.0530038
-0.419832
-0.332
0.0594685
1.25759
1.64361
0.564996
0.546477
-0.333114
-0.40452
-0.0309942
0.152338
0.301776
0.190992
0.0112458
0.067509
0.0684847
0.0757235
0.0943029
0.0940838
0.0982279
0.100707
0.101163
0.100712
0.100795
0.0848438
-0.153403
-0.163971
-0.16038
-0.159287
-0.159764
-0.162308
-0.161381
-0.155364
-0.130776
-0.244723
-0.276827
-0.294512
-0.392211
-0.418642
-0.114355
0.0750342
0.1558
-0.288196
0.94394
1.17588
0.283196
0.420334
0.43253
0.316649
0.279777
0.0700521
-0.231447
-0.128018
-0.0212121
0.0434008
0.0898071
0.130889
0.115145
0.107656
0.101203
0.0972467
0.0925253
0.0936953
0.0873264
0.0931369
-0.123886
-0.128976
-0.131915
-0.13254
-0.131356
-0.135207
-0.130756
-0.131819
-0.123646
-0.124849
-0.153232
-0.171517
-0.181732
0.120078
-0.157241
-0.20622
-0.221499
0.0124362
-0.299748
-0.899191
-0.830591
-0.20093
0.296497
-0.227657
0.0803817
0.172841
0.30801
0.201709
0.108036
0.105388
0.0841807
0.0933395
0.0954554
0.0951782
0.0945238
0.0914851
0.0871458
0.0893279
0.089486
0.0963
-0.131312
-0.120666
-0.117358
-0.111426
-0.109853
-0.108498
-0.106381
-0.103582
-0.101354
-0.0887503
-0.0321334
-0.120713
-0.0264926
0.0929396
-0.164127
-0.0300542
0.150494
-0.426909
-0.703338
-0.674681
0.404986
0.0882335
-0.0119938
0.00925766
0.422213
0.268758
0.0948626
0.0851332
0.119629
0.169677
0.0299791
0.0592243
0.0706068
0.079462
0.0823441
0.0834901
0.0834844
0.0813
0.0806913
0.0717866
-0.10363
-0.109008
-0.107591
-0.105903
-0.0993145
-0.0899834
-0.0775508
-0.0651819
-0.0457265
-0.0308789
-0.0249816
0.0107166
-0.00360804
-0.0236819
-0.0671442
0.275825
0.603822
0.5521
-0.640769
-1.05859
0.0475524
0.00315905
0.134322
0.0833825
0.0407696
0.013007
0.0411438
0.0975077
0.11435
0.0894768
0.108629
0.0968156
0.0837471
0.0787488
0.0793679
0.0791766
0.0783381
0.0782152
0.0786359
0.0826084
-0.0999473
-0.0975947
-0.0932656
-0.0887815
-0.0822001
-0.0735492
-0.060821
-0.040566
-0.0143577
0.0245568
0.00514907
-0.0341678
0.13358
0.377026
0.399202
0.338071
0.162694
0.191807
-0.938806
-1.7632
-0.935647
-1.19007
-0.192804
-0.220293
-0.0391845
0.136584
0.136302
-0.0928992
-0.12616
0.0628083
0.106677
0.097968
0.0976085
0.0971938
0.0859397
0.0838626
0.0806449
0.0763797
0.0710547
0.069709
-0.081385
-0.0865251
-0.0852586
-0.0831964
-0.0739548
-0.0621945
-0.048322
-0.029831
-0.0169743
0.0182063
0.0424432
0.149297
0.102007
0.11711
0.437289
0.731105
0.959751
0.792449
0.41918
0.11592
-1.92485
-1.12185
-0.325045
0.00451618
0.00685196
-0.133493
-0.153349
0.00471954
0.0694058
0.0588958
0.104942
0.106854
0.0992779
0.0889697
0.0822397
0.0720773
0.0634415
0.0594572
0.0580214
0.0596487
-0.0809257
-0.0776847
-0.0747437
-0.0705755
-0.0654104
-0.0593203
-0.0573219
-0.0423452
-0.0296816
-0.00625309
0.017326
0.0898884
0.264426
0.467826
0.589468
0.723008
0.96603
1.34819
-1.24233
0.153163
-4.45572
-2.48175
0.565797
0.105141
0.282403
0.18084
0.265376
0.219012
0.117135
0.12009
0.0981556
0.124037
0.113743
0.0860583
0.0709178
0.058201
0.0519402
0.0462969
0.0433787
0.0375003
-0.0825413
-0.0782835
-0.0761383
-0.0762564
-0.0696476
-0.067767
-0.0727027
-0.0709782
-0.0860672
-0.131992
-0.103019
0.207976
0.103481
0.0370805
-0.112717
0.0012906
0.370265
0.041936
-0.20524
-0.527615
-1.59301
-0.972256
-0.454738
-0.0899335
-0.213851
-0.358567
0.190178
0.193907
0.259924
0.128883
0.0869394
0.0908757
0.0686839
0.0615295
0.0587284
0.0320482
0.0354272
0.028831
0.0313511
0.0242902
-0.0686861
-0.0807434
-0.0803211
-0.0798962
-0.0766755
-0.0706056
-0.0602694
-0.0719106
-0.0792022
-0.115663
-0.135087
-0.0912404
0.0424622
0.114305
0.0837611
0.0259599
-0.116004
-0.461325
-0.4643
-0.066541
-0.240566
-0.428998
-0.249759
0.0878476
0.199955
0.249566
0.243111
0.153932
0.072439
0.0233409
0.117303
0.0825386
0.0574973
0.0459203
0.0369875
0.0290185
0.0269419
0.0274928
0.0283588
0.0309904
-0.0841716
-0.0891847
-0.0868981
-0.0859079
-0.0849451
-0.080483
-0.087531
-0.0897031
-0.0897839
-0.0986432
-0.115019
-0.138994
-0.234468
-0.325384
-0.272282
-0.19881
-0.0131807
0.2348
-0.260258
-0.182801
-1.68183
-0.854736
0.544904
0.192941
0.0867921
-0.0182935
-0.0365331
0.054863
0.0444411
0.0467366
0.0507828
0.0218398
0.0217537
0.0113019
0.0117886
0.0107626
0.0121173
0.00740225
0.00265184
0.00254269
-0.0797483
-0.0717911
-0.0776446
-0.0839211
-0.0920512
-0.0966794
-0.105991
-0.129339
-0.109303
-0.129249
-0.108914
-0.0361204
-0.145259
-0.263778
-0.3444
-0.322717
-0.513688
-0.404865
-0.262661
-0.320634
-0.0528866
-0.372359
-0.189726
-0.037204
-0.0825964
-0.0695596
0.00722809
0.0442683
0.128976
0.0735111
-0.00902961
-0.0312057
-0.0195374
-0.0110872
-0.0195822
-0.016892
-0.0148632
-0.00784461
-0.00355237
-0.00971873
-0.0690034
-0.0730449
-0.0716079
-0.074186
-0.0802267
-0.0906162
-0.104149
-0.129562
-0.137778
-0.110035
-0.240088
-0.252854
-0.225301
-0.190058
-0.211827
-0.240745
-0.198514
-0.205614
-0.0346684
0.0970361
-0.158755
-0.0128623
-0.221159
-0.133837
-0.0585767
-0.00206951
0.0470929
-0.051617
-0.102634
-0.0829915
-0.0906592
-0.0674375
-0.0273996
-0.0222036
-0.0258754
-0.0262047
-0.0267459
-0.0257189
-0.0277724
-0.0200362
-0.0703242
-0.0687089
-0.0709556
-0.0752636
-0.0798161
-0.0875686
-0.10044
-0.135811
-0.189662
-0.19286
-0.185954
-0.0817301
-0.142443
-0.296714
-0.496925
-0.512173
-0.383167
-0.286785
0.0547884
0.269115
-0.25069
0.0055976
-0.292061
-0.252214
-0.273928
-0.303498
-0.213469
-0.141859
-0.0434899
-0.0379622
-0.0983293
-0.0964699
-0.0727929
-0.0509097
-0.0412493
-0.0422542
-0.0398562
-0.0370641
-0.0311967
-0.0405275
-0.0548836
-0.0751556
-0.072307
-0.0704278
-0.069591
-0.0715647
-0.0736638
-0.100881
-0.135624
-0.168298
-0.217343
-0.213861
-0.142355
-0.146872
-0.21292
-0.300479
0.0385078
-0.0344303
0.0182043
0.401126
-0.327272
-0.133979
-0.374496
-0.454455
-0.466554
-0.35672
-0.285058
-0.256893
-0.305993
-0.226268
-0.123892
-0.0850959
-0.0812791
-0.0481011
-0.0479576
-0.0422892
-0.0429136
-0.0440092
-0.0440384
-0.0374759
-0.0578674
-0.0554984
-0.057989
-0.058232
-0.0600401
-0.0639729
-0.0681125
-0.077905
-0.0891049
-0.101379
-0.0380614
-0.00810197
-0.144337
-0.0806572
0.00595071
0.152858
0.18204
0.295845
-0.165315
-0.452164
-0.575251
-0.639837
-0.331447
-0.513716
-0.573751
-0.333297
-0.330928
-0.293691
-0.188809
-0.173072
-0.0880472
-0.0896578
-0.0887141
-0.0744699
-0.0643239
-0.056059
-0.0539022
-0.0577383
-0.0514145
-0.0598691
-0.048922
-0.0409589
-0.0384396
-0.0361806
-0.0353292
-0.0380115
-0.0438091
-0.0423777
-0.0621246
-0.0823653
-0.00235782
0.0464657
0.0273391
0.0617862
0.0854931
0.0876056
0.0906483
0.00786096
-0.0700802
-0.138192
-0.423915
-0.298743
-0.301494
-0.426759
-0.482711
-0.317888
-0.217007
-0.217927
-0.229951
-0.180897
-0.143125
-0.0974017
-0.12367
-0.092942
-0.0797613
-0.0701002
-0.0691678
-0.0657198
-0.0650225
-0.0611815
-0.0386167
-0.0421199
-0.0394452
-0.033729
-0.0283534
-0.022239
-0.00110246
-0.0207366
-0.00114867
-0.0169978
-0.0151015
0.0264846
0.00235801
0.0591295
0.0875809
0.113652
-0.125837
-0.297049
-0.128622
-0.179014
0.027104
-0.164726
-0.0477712
-0.093592
-0.103252
-0.203971
-0.233338
-0.279244
-0.261474
-0.203876
-0.139425
-0.11175
-0.0942054
-0.0850677
-0.0784691
-0.0752434
-0.0745294
-0.0701912
-0.0672227
-0.0541379
-0.0440574
-0.0368402
-0.0378021
-0.0337035
-0.0320589
-0.0270701
-0.0187914
-0.0114108
0.00277803
0.048539
0.0589449
0.148261
0.134307
0.13205
0.153414
0.135025
0.0246432
-0.00474281
-0.162338
-0.240331
-0.0258279
-0.153213
-0.177273
-0.211396
-0.222352
-0.234026
-0.22478
-0.218417
-0.19521
-0.219995
-0.157279
-0.110246
-0.0902956
-0.0788206
-0.0703555
-0.0625021
-0.0590556
-0.0552806
-0.0529808
-0.0592294
-0.031184
-0.0458645
-0.0435498
-0.0387523
-0.0320668
-0.0254804
-0.0164832
-0.00849892
0.0145617
0.0402264
0.0652748
0.101265
0.253618
0.407536
0.490832
0.499952
0.653944
0.608163
0.63453
0.366994
-0.359451
-0.247537
-0.314833
-0.30975
-0.211709
-0.180745
-0.197983
-0.23046
-0.188122
-0.130163
-0.117886
-0.0887838
-0.0799499
-0.0679767
-0.0624439
-0.0540223
-0.0534565
-0.0540794
-0.0549392
-0.0544674
-0.0340314
-0.0305128
-0.0316741
-0.0286116
-0.026203
-0.0231495
-0.0216387
-0.0160675
0.0338303
0.049068
0.112226
0.178591
0.248383
0.364705
0.447196
0.631504
0.583119
0.61084
0.373216
0.293854
-0.44625
-0.40331
-0.4052
-0.521287
-0.00554821
-0.0466314
-0.0631468
-0.0610836
-0.0228203
-0.0220387
-0.0656036
-0.0659963
-0.0680034
-0.0635747
-0.0554195
-0.0509857
-0.0514974
-0.0554073
-0.0527958
-0.0636235
-0.0158576
-0.018412
-0.0168264
-0.0165884
-0.0141808
-0.0115955
-0.0180625
-0.0147326
0.00625261
0.0489823
0.0989609
0.114169
0.150402
0.19654
0.447728
0.480219
0.527872
0.481865
0.336646
0.0546247
-0.153455
-0.176117
-0.132937
-0.0321364
0.0776526
0.0614988
-0.0674057
0.011781
0.0092412
0.0239783
-0.0199619
-0.0448772
-0.0749399
-0.0568162
-0.0508664
-0.0474926
-0.0485588
-0.0510332
-0.0517199
-0.041653
-0.020602
-0.023029
-0.0210558
-0.0192623
-0.0146455
-0.00812496
-0.00460754
-0.00130422
0.0107207
0.0208686
0.0737928
0.193449
0.266302
0.25299
0.335513
0.293683
0.220708
0.183482
0.25787
0.361152
0.461796
0.420929
0.227119
0.269806
0.36311
0.247271
0.198522
0.187696
0.115411
0.0181371
-0.0175477
-0.0286262
-0.031555
-0.0195203
-0.0267911
-0.0339682
-0.0377175
-0.0366412
-0.0347531
-0.0285477
-0.0409003
-0.0397774
-0.03691
-0.0319031
-0.0261599
-0.0155713
-0.0144425
0.00197224
0.0300525
0.073705
0.0681992
0.0921659
0.180304
0.33301
0.420911
0.593526
0.584607
0.603064
0.423288
0.107464
-0.129809
-0.137449
0.21573
0.363829
0.378871
0.241033
0.149579
0.0837088
0.0384277
0.0625883
0.0392348
0.0222567
0.0149127
0.00340637
-0.00520709
-0.0166991
-0.0216388
-0.0267905
-0.0316779
-0.0374107
-0.0302716
-0.0353113
-0.0388127
-0.039553
-0.0353032
-0.0297546
-0.0225974
-0.00645493
0.0265457
0.0663551
0.142894
0.151808
0.212322
0.327709
0.454206
0.534302
0.588266
0.618151
0.472168
0.298555
0.0333355
0.0134744
-0.0246076
-0.0675448
0.00407115
0.038119
0.104342
0.0942806
0.105149
0.105499
0.0669876
0.024238
0.00615833
-0.00524951
-0.013269
-0.0209489
-0.0258038
-0.0250817
-0.0266538
-0.0207537
-0.0297803
-0.0280794
-0.0261815
-0.0239106
-0.0224553
-0.0192742
-0.0180197
-0.00720901
-0.00131242
0.000166135
0.0260544
0.0852698
0.152312
0.187792
0.230331
0.272236
0.307063
0.337902
0.204769
0.0923337
0.0302364
-0.0592209
0.0282227
0.0224113
0.071656
0.0998754
0.15782
0.198159
0.154545
0.0628926
0.00530174
0.000971299
0.00284125
-0.00676089
-0.0139988
-0.0236908
-0.0292738
-0.0332395
-0.0368413
-0.0347367
-0.0339714
-0.0314786
-0.0306813
-0.0302261
-0.0283264
-0.0260874
-0.0282492
-0.0359757
-0.016165
-0.00944077
0.00195481
-0.0626429
-0.0951308
-0.112861
-0.166227
-0.254759
-0.333992
-0.362768
-0.244302
-0.0782536
0.0846301
0.0992546
0.162715
0.12409
0.203915
0.20935
0.228372
0.161716
0.129239
0.15819
0.071272
0.0226485
-0.000994757
-0.0120292
-0.0233528
-0.0356958
-0.0409119
-0.0435824
-0.0421761
-0.0368017
-0.0482906
-0.0497859
-0.0486873
-0.0472926
-0.0441968
-0.042766
-0.0324151
-0.0736111
-0.0745382
-0.103767
-0.0879963
-0.0777074
-0.12905
-0.149377
-0.219748
-0.29873
-0.367564
-0.289975
-0.15911
-0.199935
-0.0326206
0.194211
0.114785
0.0246307
0.0639388
0.0426709
0.0614849
0.113916
0.10549
0.0601584
0.029071
0.0269295
0.00232418
-0.00948987
-0.0175738
-0.0286032
-0.0338491
-0.037607
-0.0384935
-0.0369754
-0.0574801
-0.0606187
-0.0635051
-0.0651544
-0.0702189
-0.0676608
-0.0737376
-0.0868103
-0.0872313
-0.102015
-0.0945692
-0.143663
-0.104676
-0.0282811
0.0440752
-0.00665973
0.0969907
-0.20811
-0.272849
-0.105784
-0.287836
-0.104358
-0.174596
-0.132759
-0.0825234
-0.00990074
0.0303257
0.0522
0.0534513
0.0659643
0.0710665
0.0290816
-0.0162998
-0.0228018
-0.0229955
-0.034561
-0.0351959
-0.0339269
-0.0349299
-0.0420207
-0.050242
-0.0553095
-0.0581338
-0.0624619
-0.0673152
-0.0728029
-0.0810065
-0.0979538
-0.103635
-0.122898
-0.155011
-0.184602
-0.212285
-0.243886
-0.233723
-0.165829
-0.144212
-0.0454231
-0.0643195
-0.110035
-0.00352139
0.194752
0.23071
-0.059702
0.0150249
0.000483174
0.0427889
0.0839162
0.0894254
0.0573501
0.0122783
-0.0114853
-0.0283678
-0.0348387
-0.0372798
-0.0422124
-0.0464624
-0.0481345
-0.0494135
-0.0471618
-0.0596248
-0.0551739
-0.0541095
-0.0562717
-0.063939
-0.0743058
-0.0945469
-0.118402
-0.138947
-0.20456
-0.263513
-0.355013
-0.485722
-0.594353
-0.65058
-0.499138
-0.554709
-0.496783
-0.326775
-0.142282
0.164396
0.447097
0.551496
0.493304
0.457872
0.366811
0.279505
0.156226
0.0704335
0.0142634
-0.0304992
-0.0454733
-0.0508354
-0.0536369
-0.0614637
-0.066862
-0.0690692
-0.0686093
-0.0698523
-0.0647611
-0.0586698
-0.0538952
-0.0589059
-0.0703846
-0.083828
-0.10672
-0.110563
-0.146842
-0.16858
-0.213407
-0.30593
-0.43039
-0.542852
-0.652117
-0.729658
-0.750731
-0.686719
-0.771775
-0.461261
-0.0261375
0.214342
0.421621
0.500734
0.483492
0.421551
0.332698
0.232395
0.131505
0.0633963
0.00422929
-0.0440142
-0.0585394
-0.0668836
-0.0680259
-0.0775156
-0.0769517
-0.0746838
-0.0711254
-0.0672169
-0.0689317
-0.0632564
-0.0730408
-0.0762527
-0.0817128
-0.0906202
-0.102857
-0.116351
-0.163141
-0.206093
-0.262757
-0.303941
-0.363432
-0.417389
-0.459441
-0.51065
-0.468498
-0.427044
-0.162769
-0.0173762
-0.030615
-0.00883532
0.0547589
0.108801
0.0212653
0.00848754
0.0151344
0.0173453
-0.000820971
-0.0412283
-0.0537155
-0.0699913
-0.0778575
-0.0794641
-0.0777232
-0.0756604
-0.0734425
-0.0710232
-0.0710182
-0.0736917
-0.0703144
-0.0570541
-0.0618826
-0.0697796
-0.0772535
-0.0859997
-0.096517
-0.112916
-0.143165
-0.180716
-0.234573
-0.302571
-0.277081
-0.352133
-0.389644
-0.385589
-0.397395
-0.280751
-0.179795
-0.120523
0.196239
0.29285
-0.347527
-0.223739
-0.20944
-0.236628
-0.178599
-0.156146
-0.101649
-0.0677333
-0.0632553
-0.125551
-0.116476
-0.110536
-0.0981211
-0.0907013
-0.0865072
-0.0817661
-0.0773957
-0.0751743
-0.0778674
-0.0316063
-0.0322598
-0.0343914
-0.0386954
-0.0464422
-0.0591601
-0.0768866
-0.102013
-0.118973
-0.188206
-0.238226
-0.328472
-0.389192
-0.441867
-0.464456
-0.472708
-0.445847
-0.261753
-0.2358
-0.07658
-0.0222378
-0.0976814
-0.0412992
0.0305422
0.0531367
0.0024445
-0.0584179
-0.0837381
-0.0848945
-0.13037
-0.137808
-0.135709
-0.129969
-0.116088
-0.108809
-0.10223
-0.0989914
-0.0954164
-0.0944656
-0.0831894
-0.0157545
-0.00872252
-0.00765789
-0.0104479
-0.013403
-0.0218154
-0.0432078
-0.0566704
-0.0831475
-0.122494
-0.148506
-0.2258
-0.331044
-0.443486
-0.548984
-0.625003
-0.612751
-0.438982
-0.162675
-0.125216
0.0417764
0.278367
0.360297
0.260767
0.221907
0.121986
0.0508751
-0.00954638
-0.0565968
-0.106503
-0.154224
-0.158386
-0.139731
-0.126088
-0.117584
-0.111713
-0.107446
-0.102476
-0.0978696
-0.0976249
-0.00176528
-0.00446907
-0.00298868
-0.00331938
0.0011429
-0.000904267
-0.0179065
-0.0257043
-0.0458537
-0.0551836
-0.0761431
-0.0614882
-0.0839263
-0.104218
-0.0418012
-0.027097
-0.0274567
-0.0529858
0.033221
0.0834655
-0.0597839
-0.154716
-0.0324564
-0.042744
-0.0557556
-0.0921359
-0.12848
-0.149368
-0.155086
-0.147828
-0.159349
-0.133376
-0.131639
-0.114552
-0.104836
-0.0959099
-0.0918699
-0.0894614
-0.0891579
-0.0930514
0.0113676
0.00397413
0.00332981
0.00443825
0.00857408
0.0149693
0.0202448
0.0275614
0.04038
0.0555557
0.0667501
0.117195
0.206592
0.290525
0.371547
0.428914
0.411624
0.367731
0.331062
0.189256
-0.168905
-0.355096
-0.439938
-0.484841
-0.435495
-0.402878
-0.358601
-0.278406
-0.227999
-0.182423
-0.152212
-0.150797
-0.139121
-0.107233
-0.0993441
-0.0924409
-0.0870934
-0.0845402
-0.084179
-0.0841103
0.0297429
0.0337357
0.0346179
0.0387569
0.0457878
0.0574712
0.0762793
0.0871021
0.10182
0.130225
0.172338
0.203712
0.245357
0.286769
0.33221
0.359987
0.265733
0.214588
0.123567
-0.0777648
-0.212108
-0.314228
-0.345664
-0.318983
-0.371599
-0.333968
-0.309948
-0.264713
-0.209
-0.196711
-0.189159
-0.17042
-0.142523
-0.120162
-0.106226
-0.0986685
-0.0923416
-0.087994
-0.0846491
-0.09305
0.0542748
0.0577791
0.0645501
0.0729914
0.0833621
0.0959328
0.112206
0.134963
0.152673
0.172681
0.170411
0.156606
0.123407
0.0595405
0.000163219
-0.105281
-0.256709
-0.278642
-0.2632
-0.225771
-0.164438
-0.146892
-0.128785
-0.0653439
-0.0663073
-0.0718889
-0.085067
-0.1148
-0.15778
-0.17603
-0.144066
-0.127718
-0.129012
-0.112763
-0.105971
-0.102707
-0.101118
-0.0996042
-0.0971104
-0.0865
0.0634097
0.0721355
0.0764501
0.0818275
0.0900321
0.108815
0.123477
0.140151
0.157738
0.178202
0.200379
0.201086
0.178766
0.137485
0.0805917
-0.0215029
0.0261678
-0.110299
-0.223901
-0.298617
-0.294615
-0.113374
-0.0302442
-0.0476526
-0.130078
-0.154248
-0.185294
-0.195216
-0.163589
-0.135945
-0.131035
-0.127465
-0.112576
-0.0907763
-0.0888137
-0.0859
-0.0841087
-0.0809142
-0.0778399
-0.0811494
0.0678831
0.0579636
0.0630193
0.0702796
0.0853153
0.101403
0.121779
0.14573
0.182732
0.206957
0.242254
0.324487
0.427871
0.513021
0.556705
0.575995
0.477364
0.421818
0.102964
-0.0357308
-0.227624
-0.355311
-0.476681
-0.54576
-0.48555
-0.391349
-0.288423
-0.219647
-0.162953
-0.141298
-0.10591
-0.0816133
-0.0742059
-0.0661867
-0.0633848
-0.0560607
-0.0581198
-0.0565569
-0.0595448
-0.0627089
0.0603544
0.0592635
0.0602765
0.0666613