/*--------------------------------*- C++ -*----------------------------------*\
| =========                 |                                                 |
| \\      /  F ield         | OpenFOAM: The Open Source CFD Toolbox           |
|  \\    /   O peration     | Version:  v2106                                 |
|   \\  /    A nd           | Website:  www.openfoam.com                      |
|    \\/     M anipulation  |                                                 |
\*---------------------------------------------------------------------------*/
FoamFile
{
    version     2.0;
    format      ascii;
    arch        "LSB;label=32;scalar=64";
    class       volVectorField;
    location    "0";
    object      U;
}
// * * * * * * * * * * * * * * * * * * * * * * * * * * * * * * * * * * * * * //

dimensions      [0 1 -1 0 0 0 0];

internalField   nonuniform List<vector> 
11644
(
(-0.000364832 -0.000170402 -2.11672e-20)
(-0.000436993 -0.000355211 -5.83729e-20)
(-0.000406547 -0.000407304 -3.13185e-20)
(-0.000216302 -0.000445859 0)
(-0.000243101 -0.000556016 0)
(-0.000344387 -0.000477022 0)
(-0.000395038 -0.000375051 0)
(-0.000424923 -7.61665e-05 0)
(-0.000555107 0.000541833 0)
(-0.000650374 0.00155884 0)
(-0.00104016 0.00290059 0)
(-0.00129918 0.00469039 0)
(-0.00127025 0.00689356 0)
(-0.00199351 0.00915396 0)
(-0.00188096 0.0118385 0)
(-0.00299695 0.0134343 0)
(-0.00401578 0.0161605 0)
(-0.00220726 0.0167303 0)
(0.000982004 0.0149488 0)
(-0.00146206 0.0115955 -8.61047e-30)
(-0.00339763 0.0110835 8.578e-30)
(-0.00185564 0.00992716 0)
(-0.0014371 0.00892815 0)
(-0.00102227 0.00741616 0)
(-0.0011991 0.00663018 0)
(-0.000998678 0.00579193 0)
(-0.00120339 0.0061173 0)
(-0.000661564 0.00601901 0)
(-0.000330691 0.00590043 0)
(-0.000148688 0.00587315 0)
(-0.000103272 0.00560305 0)
(2.85714e-05 0.00518073 0)
(8.12111e-05 0.00463068 0)
(8.66518e-05 0.00396865 0)
(3.02318e-05 0.00330621 0)
(0.000107212 0.00265727 0)
(2.95622e-05 0.00203949 0)
(0.000183104 0.00144046 0)
(0.000211738 0.001002 0)
(9.30809e-06 0.000349335 -4.1041e-21)
(-0.000206382 -0.000131043 -2.71891e-20)
(-5.06236e-05 -0.000217158 -2.51858e-20)
(-9.70704e-05 -0.000360291 -1.35265e-20)
(-0.000200087 -0.000429692 0)
(-0.00047171 -0.000345941 0)
(-0.00055827 -0.000177222 0)
(-0.00074105 0.000167215 0)
(-0.00113094 0.000843485 0)
(-0.00166216 0.00177681 0)
(-0.00219838 0.00315495 0)
(-0.00248517 0.00516448 0)
(-0.00343297 0.00789711 0)
(-0.00419038 0.0109042 0)
(-0.0046781 0.0147326 0)
(-0.00545206 0.0187224 0)
(-0.00503506 0.0223901 1.78367e-21)
(-0.00255921 0.0235342 -1.16075e-20)
(-1.22849e-06 0.0241343 3.95999e-20)
(-0.00162384 0.0242201 1.73964e-20)
(-0.0012168 0.0233091 -2.68432e-20)
(-0.0010181 0.0204026 2.19548e-20)
(-0.000308425 0.0166067 -2.66083e-20)
(0.00163443 0.0136378 -2.41208e-20)
(0.000349138 0.0124529 1.14619e-20)
(0.000105545 0.0112648 -3.13222e-21)
(0.000712378 0.0103822 0)
(0.00102107 0.00956397 0)
(0.000990943 0.00919072 0)
(0.000976493 0.00876165 0)
(0.00123231 0.00795378 0)
(0.00148042 0.00703889 0)
(0.00144036 0.00616345 0)
(0.00148604 0.00524805 0)
(0.00133287 0.00444425 0)
(0.00126987 0.00360707 0)
(0.00115467 0.00287075 0)
(0.00107404 0.00213376 0)
(0.00105813 0.00156146 0)
(0.00102129 0.000881696 0)
(0.000917611 0.000387723 0)
(-0.00102524 8.96869e-05 0)
(-0.000823275 0.000128542 0)
(-0.000492534 -1.26741e-05 0)
(-0.000573869 6.66344e-05 0)
(-0.000751918 0.000187301 -2.48368e-20)
(-0.000968237 0.00029931 0)
(-0.00130074 0.000573344 0)
(-0.00181495 0.00101872 0)
(-0.00243693 0.00172024 0)
(-0.00339791 0.00270305 0)
(-0.00486618 0.00423013 0)
(-0.00609633 0.00636502 0)
(-0.00796409 0.00948662 -4.67631e-21)
(-0.00915379 0.0131617 -3.10964e-20)
(-0.00916678 0.0175784 1.13188e-19)
(-0.00768973 0.0215113 -5.50188e-20)
(-0.00630351 0.0240081 -2.79335e-19)
(-0.00395881 0.0266742 1.67445e-19)
(-0.00363012 0.0273401 -2.38858e-20)
(0.00026738 0.0268543 2.54367e-19)
(0.00359263 0.0240888 -5.1734e-19)
(0.00459645 0.0208556 2.26281e-19)
(0.00497457 0.0165668 -1.56608e-19)
(0.00318601 0.013581 2.07677e-19)
(0.00207096 0.011061 1.76365e-19)
(0.00191324 0.0109004 -1.0828e-19)
(0.00270587 0.0102777 2.60765e-20)
(0.00326223 0.00917588 4.40858e-21)
(0.00379923 0.00805621 0)
(0.00372856 0.00697314 0)
(0.00353126 0.00584862 0)
(0.00342442 0.00457157 0)
(0.00306265 0.0035133 0)
(0.00262092 0.00257641 0)
(0.00236197 0.00174914 0)
(0.00176045 0.00119353 0)
(0.00154374 0.000742942 0)
(0.00116466 0.000389761 0)
(0.000868892 0.000157673 0)
(0.000701722 -6.46809e-05 0)
(-0.000957291 0.000244747 0)
(-0.00114991 -0.000542933 0)
(-0.00116957 -0.000275747 0)
(-0.00138892 -0.000656729 0)
(-0.00120331 -0.00052489 0)
(-0.00142424 -0.000665341 0)
(-0.00164173 -0.000575664 0)
(-0.00216274 -0.000498859 0)
(-0.00280373 -0.000334906 0)
(-0.00396191 0.00013839 0)
(-0.00542713 0.000759842 -1.30542e-21)
(-0.00737735 0.00233486 -1.65213e-20)
(-0.0088637 0.00456575 7.22446e-20)
(-0.0110135 0.00849253 -3.18247e-19)
(-0.0122328 0.0146396 2.62893e-19)
(-0.0104625 0.0199953 -2.78791e-19)
(-0.010327 0.0259435 2.2204e-19)
(-0.00769673 0.0287961 -3.15023e-19)
(-0.00524968 0.0288672 -1.74382e-19)
(-0.000364973 0.0274824 1.62601e-18)
(0.00343162 0.0223229 -9.06925e-19)
(0.00533325 0.0197869 5.9567e-19)
(0.00611656 0.017637 -7.04817e-19)
(0.00668191 0.0151026 -1.01402e-18)
(0.00686445 0.012406 8.85031e-19)
(0.0068287 0.0106892 -8.06903e-20)
(0.00743341 0.0101698 1.64941e-19)
(0.008377 0.00872862 -5.47507e-21)
(0.00853359 0.00689084 -1.25485e-20)
(0.00815074 0.00510053 5.12113e-22)
(0.00729537 0.00342577 0)
(0.00617551 0.0020398 0)
(0.00516449 0.000837339 0)
(0.0041465 4.42004e-05 0)
(0.0031297 -0.000335137 0)
(0.0023976 -0.00069385 0)
(0.00164595 -0.000574963 0)
(0.0012091 -0.000779592 0)
(0.000775322 -0.000352617 0)
(0.000669252 -0.000297385 0)
(-0.000712375 -0.000865666 0)
(-0.000681185 0.000364715 0)
(-0.0013323 -0.000773941 0)
(-0.00131319 -0.000675457 0)
(-0.00152504 -0.00116288 0)
(-0.00152831 -0.0015802 0)
(-0.00179391 -0.0020323 0)
(-0.00205013 -0.00264057 0)
(-0.00285233 -0.00328189 0)
(-0.00383267 -0.00402169 1.21905e-20)
(-0.00490167 -0.00386425 4.32468e-20)
(-0.00648878 -0.00292536 -1.37665e-19)
(-0.00851958 0.000122952 -9.85664e-20)
(-0.0125017 0.00508165 5.20349e-19)
(-0.0157879 0.0124524 -5.7694e-19)
(-0.0159278 0.0194561 -3.73886e-19)
(-0.0139433 0.0263594 -3.39718e-19)
(-0.0125059 0.0277531 2.85425e-18)
(-0.0102854 0.0258212 -2.10787e-19)
(-0.00615371 0.024892 -2.72016e-18)
(-0.00217031 0.020886 3.83035e-18)
(-5.58976e-05 0.0189769 -5.91391e-19)
(0.00340545 0.0172228 -3.30095e-18)
(0.00815969 0.0141323 3.56829e-19)
(0.0126164 0.0134527 3.47462e-19)
(0.0125082 0.0128767 3.54052e-19)
(0.0133185 0.0108841 -1.35789e-19)
(0.0143929 0.00788956 3.27037e-19)
(0.0135074 0.00491012 -1.32588e-19)
(0.0126615 0.00147315 -4.45414e-20)
(0.0108537 -0.00065898 8.07345e-21)
(0.00855317 -0.00180496 0)
(0.00633553 -0.00239725 0)
(0.00454862 -0.00272767 0)
(0.00292299 -0.0026232 0)
(0.00178099 -0.00233397 0)
(0.00103338 -0.00208765 0)
(0.000258784 -0.00108527 0)
(4.50286e-05 -0.00135447 0)
(-6.78813e-07 0.000228416 0)
(-0.000744735 0.000653486 0)
(-0.000722231 -0.000641139 0)
(-0.000530944 -0.000857736 0)
(-0.000732691 -0.00102534 0)
(-0.000934536 -0.00206057 0)
(-0.00109192 -0.0023854 0)
(-0.00143104 -0.00324188 0)
(-0.00163988 -0.00440977 0)
(-0.00223596 -0.00577219 1.66378e-20)
(-0.002721 -0.0067314 -1.63106e-19)
(-0.00458105 -0.0077902 1.64602e-19)
(-0.00684923 -0.00658833 1.1816e-20)
(-0.0112839 -0.00754696 1.02349e-18)
(-0.0116976 -0.00512647 -1.71877e-18)
(-0.0154324 0.00620163 2.39325e-18)
(-0.0235029 0.0170753 -1.41201e-18)
(-0.023383 0.0203786 -1.68336e-19)
(-0.0175627 0.0237203 1.61849e-19)
(-0.0135958 0.0269785 -3.65388e-19)
(-0.00924232 0.0249676 1.57065e-18)
(-0.00394847 0.0222749 -1.25352e-18)
(0.000312381 0.0201905 9.07155e-19)
(0.00430965 0.0155713 -9.37091e-19)
(0.011861 0.0150861 -1.35652e-18)
(0.0174528 0.0139085 2.65016e-18)
(0.0237785 0.0122344 -2.10292e-18)
(0.0237467 0.0131289 1.84832e-18)
(0.0227698 0.00916833 -1.66581e-18)
(0.0206304 0.00223976 1.60528e-19)
(0.0161611 -0.0012715 2.38749e-19)
(0.012139 -0.00416902 -9.02468e-21)
(0.00880905 -0.00518873 -2.55844e-21)
(0.00576109 -0.00501248 0)
(0.00353793 -0.00460589 0)
(0.00196593 -0.00426189 0)
(0.000747307 -0.00328535 0)
(-2.72444e-05 -0.002822 0)
(-0.000719357 -0.00202605 0)
(-0.00125588 -0.000772562 0)
(-0.00138921 -0.00110016 0)
(-0.000838881 0.000262435 0)
(-0.00115276 -0.00225169 0)
(-0.00121725 -0.000682079 0)
(-0.00145111 -0.00306329 0)
(-0.00135064 -0.00300192 0)
(-0.00148482 -0.00411374 0)
(-0.00146359 -0.00515748 0)
(-0.00162205 -0.0065489 -4.10431e-21)
(-0.00216217 -0.00792052 -3.50836e-21)
(-0.00345274 -0.00843737 -6.16173e-20)
(-0.00528393 -0.00709978 1.4022e-19)
(-0.00741956 -0.0102217 -4.68709e-19)
(-0.0064027 -0.00757108 7.63806e-19)
(-0.0200924 -0.00617354 2.55954e-19)
(-0.0134043 -0.00911564 -1.28978e-18)
(-0.0108597 0.00157942 8.20665e-19)
(-0.0135508 0.0243112 -1.44964e-18)
(-0.0187417 0.0260169 -6.55929e-19)
(-0.0125222 0.0277551 -5.7352e-19)
(-0.00716847 0.0283312 -1.71221e-22)
(0.00109813 0.0268066 4.77638e-19)
(0.0062028 0.0252681 -6.33393e-20)
(0.0124804 0.0169143 -5.71165e-19)
(0.0197647 0.00834137 -5.64933e-19)
(0.0336186 0.0119306 -4.97347e-19)
(0.038567 0.0134097 1.03985e-18)
(0.0298657 0.00910558 -2.48681e-19)
(0.0351243 0.00497496 -4.03233e-19)
(0.0250913 0.000377858 1.32903e-19)
(0.0189338 -0.0040354 3.15756e-19)
(0.0121712 -0.00659668 -3.13544e-19)
(0.00745452 -0.00762011 5.12362e-20)
(0.00409098 -0.00721942 5.14362e-21)
(0.00161939 -0.00571001 0)
(-0.000147454 -0.00477183 0)
(-0.00148094 -0.0044552 0)
(-0.00267007 -0.0028555 0)
(-0.0030213 -0.0031673 0)
(-0.00326941 -0.00104717 0)
(-0.00331166 -0.000743182 0)
(-0.000324219 -0.00326234 0)
(-0.00019718 0.00137173 0)
(-0.000403471 -0.00323733 0)
(-0.00015763 -0.00248872 0)
(-0.000656454 -0.00321014 0)
(-0.0012241 -0.00446322 0)
(-0.00135006 -0.00552091 0)
(-0.0022121 -0.00777221 -2.5475e-20)
(-0.00421392 -0.0080852 2.0027e-20)
(-0.00703506 -0.00758711 9.05692e-20)
(-0.0101602 -0.00853037 -3.33652e-19)
(-0.0126128 -0.00367044 -2.27519e-19)
(-0.00746782 -0.0137904 1.02038e-18)
(-0.0122181 -0.017634 2.28547e-19)
(-0.0116124 0.00232579 8.50375e-19)
(-0.0113135 0.00226328 2.79186e-18)
(-0.0230063 -0.00062104 2.40507e-18)
(-0.0214303 0.0280351 2.11002e-18)
(-0.0208808 0.0349818 1.11496e-18)
(-0.0172195 0.0401815 8.63157e-19)
(-0.00641365 0.0363154 -2.72219e-19)
(0.00731406 0.0252948 3.96302e-18)
(0.0208603 0.0183689 2.66755e-18)
(0.0240578 0.0169515 1.72145e-18)
(0.0373738 0.0189266 2.60178e-19)
(0.0416379 0.00628135 2.10669e-18)
(0.0454485 -0.00480515 6.84952e-19)
(0.0373163 0.00505506 -5.70216e-19)
(0.0278789 -0.00727985 4.9493e-19)
(0.0204054 -0.00599488 -4.53399e-20)
(0.0113663 -0.00924829 8.98846e-20)
(0.0047818 -0.0102456 -4.97472e-20)
(0.00052676 -0.00962657 1.21184e-21)
(-0.00178896 -0.00753582 0)
(-0.00304938 -0.00491296 0)
(-0.00365076 -0.0034891 0)
(-0.00405253 -0.00214087 0)
(-0.00457362 0.000187026 0)
(-0.00467438 -0.00185872 0)
(-0.0049542 0.00159138 0)
(0.000140136 0.00304113 0)
(-0.000516539 -0.00145563 0)
(-0.000136433 -0.00120181 0)
(-0.000672787 -0.000111939 0)
(-0.000672664 -0.00263345 0)
(-0.000859343 -0.00301647 0)
(-0.00134874 -0.00523859 -1.55751e-21)
(-0.00364275 -0.00676951 -5.75844e-20)
(-0.00852 -0.00638979 1.04745e-20)
(-0.0142851 -0.00487862 2.53438e-20)
(-0.0194134 -0.00355596 3.65382e-20)
(-0.0236611 -0.00295122 6.7882e-20)
(-0.0267716 -0.0301043 -4.79932e-20)
(-0.0300583 -0.0180386 -4.21724e-19)
(-0.0225944 -0.00110246 2.61155e-19)
(-0.0436239 -0.00357834 -6.7792e-19)
(-0.0254639 0.00976708 -9.12675e-19)
(-0.0362641 0.00743807 -2.25036e-19)
(-0.0335456 0.0426974 -2.3292e-18)
(-0.0218864 0.0488387 1.11795e-19)
(-0.00167961 0.0574443 -1.09225e-18)
(0.020699 0.0487131 -5.69664e-19)
(0.0326265 0.030775 -6.4519e-19)
(0.0418671 0.0270091 -1.35109e-18)
(0.0488131 0.00406836 -1.35937e-18)
(0.0381048 0.000262727 -1.19481e-18)
(0.0303022 -0.00600876 4.78853e-19)
(0.0276552 0.00693625 -2.15501e-19)
(0.0225611 -0.0103389 1.32747e-19)
(0.0153377 -0.0100628 3.02144e-21)
(0.00801016 -0.0116345 6.18196e-20)
(0.00131771 -0.0113046 -7.06547e-20)
(-0.00380888 -0.0108751 3.16813e-20)
(-0.00638553 -0.00936704 -6.80425e-21)
(-0.00668917 -0.00740122 0)
(-0.00690021 -0.00486104 0)
(-0.00696398 -0.00486799 0)
(-0.00662868 -0.00256771 0)
(-0.00674715 -0.000868898 0)
(-0.00639291 -0.00224535 0)
(0.000340096 0.000953261 0)
(0.00110206 -0.00429301 0)
(6.00016e-05 0.00056403 0)
(-0.000281512 -0.0045752 0)
(-0.000513522 -0.00449259 0)
(-0.00050459 -0.00537843 0)
(-0.00129064 -0.00781341 1.2231e-20)
(-0.00626438 -0.0074885 -8.82243e-20)
(-0.0144278 -0.00514288 1.26431e-20)
(-0.0220023 -0.00504834 3.23504e-20)
(-0.0289526 -0.00424097 -4.82768e-20)
(-0.0378666 0.00086831 -7.80469e-20)
(-0.0401161 -0.0141784 1.53592e-19)
(-0.025487 -0.0142909 7.80507e-20)
(-0.0340114 0.00717262 -1.51442e-19)
(-0.045307 -0.0303536 -9.02632e-20)
(-0.0514389 0.00632682 -1.95011e-19)
(-0.0667236 0.0170447 2.54502e-19)
(-0.0547904 0.0403693 -1.09342e-18)
(-0.0397767 0.0773195 -1.90141e-19)
(0.00515198 0.0885858 2.12247e-19)
(0.0430069 0.0682319 -6.05352e-19)
(0.0634366 0.0397083 1.38488e-19)
(0.0510869 0.014292 5.04836e-19)
(0.0470535 -0.0020433 -1.8299e-19)
(0.0416177 0.00924246 1.64157e-18)
(0.0394108 -0.0307369 1.16758e-19)
(0.0133505 -0.00448114 1.43587e-20)
(0.0083526 -0.0112966 4.98324e-20)
(0.0064327 -0.0095243 -5.53797e-20)
(0.00294704 -0.00864927 4.59374e-20)
(-0.00267044 -0.00877749 -3.91221e-20)
(-0.00812981 -0.00865263 8.61846e-21)
(-0.0109781 -0.00645411 1.42335e-20)
(-0.0113161 -0.00476113 0)
(-0.0110248 -0.00367521 0)
(-0.0104001 -0.00211591 0)
(-0.00938849 -0.00453982 0)
(-0.0080807 -6.57675e-05 0)
(-0.00804084 -0.00169915 0)
(9.63214e-05 -0.00747726 0)
(-5.22397e-05 0.00238675 0)
(0.00180247 -0.00523449 0)
(0.00338085 -0.00527709 0)
(0.00276958 -0.00405026 0)
(0.00204666 -0.0059433 0)
(-0.0008903 -0.00690781 7.9419e-22)
(-0.00861046 -0.00693392 4.13182e-21)
(-0.0193167 -0.0052669 -9.72097e-21)
(-0.0284086 -0.00418767 1.27724e-20)
(-0.0325655 -0.0112116 4.09214e-20)
(-0.0428651 -0.00966691 7.27766e-21)
(-0.0525547 0.00376421 -5.15374e-20)
(-0.0237462 -0.0168882 2.78043e-20)
(-0.0627989 -0.0234191 -1.65217e-19)
(-0.0360361 -0.0217099 -3.61991e-20)
(-0.0456837 -0.0316707 -2.37567e-20)
(-0.0943781 -0.0135567 -8.99772e-20)
(-0.132342 0.0314108 5.26625e-20)
(-0.114896 0.135844 -1.14132e-18)
(0.00717617 0.208233 -1.74108e-18)
(0.124296 0.123466 1.10718e-19)
(0.112519 0.0243494 -4.9634e-20)
(0.0835855 -0.0134272 -9.73807e-21)
(0.0578661 -0.00901542 5.31571e-20)
(0.0239151 -0.0174348 1.61518e-19)
(0.0124213 -0.0100565 -8.67584e-20)
(-0.00569343 -0.0357781 -7.38135e-20)
(-0.00317912 -0.0119806 3.48306e-20)
(0.000713397 -0.0033304 8.21308e-20)
(-0.000683054 -0.00292746 -6.2494e-20)
(-0.00495609 -0.00354425 2.29669e-20)
(-0.010184 -0.00438059 6.36828e-21)
(-0.0139652 -0.00385508 -4.82814e-21)
(-0.01215 -0.000895569 0)
(-0.00963453 0.000227396 0)
(-0.00802751 0.00306866 0)
(-0.00874547 0.00376763 0)
(-0.0101705 0.000255542 0)
(-0.0104635 0.00389392 0)
(0.00250344 0.00210696 0)
(0.0017122 -0.00263929 0)
(0.00143071 -0.00507691 0)
(-0.000557838 -0.00149843 0)
(0.000531865 -0.00356877 0)
(0.00164881 -0.00507082 0)
(-0.000438465 -0.00634691 -2.72339e-23)
(-0.00907581 -0.0063715 3.45385e-21)
(-0.0161744 -0.00959017 4.79438e-22)
(-0.0240039 -0.00942581 -1.2241e-21)
(-0.0239253 -0.0169643 -1.80748e-20)
(-0.0247436 -0.0228741 2.60504e-20)
(-0.0195792 -0.0187796 -1.08142e-20)
(-0.0590393 -0.0312141 2.71066e-20)
(-0.0455588 -0.0459367 -6.64476e-20)
(-0.0639929 -0.0602515 -1.94691e-19)
(-0.0766819 -0.0769729 -9.11768e-20)
(-0.112669 -0.0960994 -2.7642e-20)
(-0.254953 -0.0759931 9.38345e-19)
(0.220008 -0.0777617 -1.64893e-18)
(0.0768063 -0.087761 -1.54112e-20)
(0.0255019 -0.0872387 7.43682e-20)
(-0.00317031 -0.0785641 -1.56081e-20)
(-0.0152652 -0.022376 7.3091e-20)
(-0.00412268 -0.043187 2.793e-20)
(-0.00307391 -0.0145263 -1.31347e-20)
(-0.00445677 -0.00419112 6.30619e-21)
(-0.00285104 -0.000607491 -3.75551e-21)
(-0.00295497 0.00161012 1.30383e-21)
(-0.00829181 0.00136629 -4.09626e-22)
(-0.0159867 -0.000928203 1.58329e-22)
(-0.0179596 -0.00111167 0)
(-0.016286 -0.00035613 0)
(-0.0149497 -0.000956683 0)
(-0.0114277 0.00301016 0)
(-0.00992841 0.000213674 0)
(-0.00908763 0.00235302 0)
(0.00427469 0.010451 0)
(0.00740775 -0.00025049 0)
(0.00531079 0.00598522 0)
(0.00590537 0.00255889 0)
(0.00704061 -0.000930347 0)
(0.00829255 -0.0027271 0)
(0.00614869 -0.00550674 4.68189e-22)
(-0.0011412 -0.00648027 -5.34122e-21)
(-0.00407131 -0.0114385 -6.91014e-21)
(-0.00508846 -0.0151025 2.81728e-20)
(-0.00388408 -0.0213485 1.64088e-20)
(0.00483468 -0.0238475 -8.89682e-20)
(0.0154794 -0.0280856 8.60912e-20)
(0.00513587 -0.0459543 -7.31659e-20)
(0.0176949 -0.0579403 -5.31393e-20)
(0.00465223 -0.086532 4.29712e-20)
(-0.00574494 -0.125162 4.68902e-20)
(-0.0449496 -0.177752 -2.90807e-20)
(0.0244474 -0.208414 -5.03633e-18)
(-0.0347792 -0.21391 -2.65831e-18)
(0.00746564 -0.133212 -2.71779e-20)
(-0.00306733 -0.0814347 2.71707e-20)
(0.00769966 -0.0668074 4.88408e-20)
(-0.00440913 -0.0448518 1.21716e-21)
(0.000507411 -0.0378513 1.70822e-20)
(-0.00433845 -0.0213418 5.31297e-20)
(-0.00445722 -0.00931823 -4.26961e-20)
(-0.00339429 -0.00253633 1.58478e-20)
(-0.00294029 0.00360601 -1.83883e-20)
(-0.00468172 0.00583872 -4.52196e-21)
(-0.00994306 0.00443919 7.15174e-22)
(-0.0135498 0.00215326 0)
(-0.0126329 0.000125931 0)
(-0.0109229 -0.00371267 0)
(-0.00930726 -0.00595849 0)
(-0.0068106 -0.00245983 0)
(-0.00452458 -0.00968387 0)
(-0.00757207 -0.0137964 -2.24262e-22)
(0.000522792 -0.00196622 0)
(0.00467024 -0.00139043 0)
(0.00949702 -0.0028581 0)
(0.0123164 -0.00131454 0)
(0.0132254 -0.000779467 0)
(0.00987891 -0.0010626 2.2266e-21)
(0.00622814 -0.00262078 -4.01081e-21)
(0.00431001 -0.00816033 4.11721e-20)
(0.0088219 -0.0123265 -1.25442e-20)
(0.00934962 -0.0154695 7.09409e-21)
(0.0179082 -0.0102876 -4.05655e-19)
(0.0211688 -0.0235706 4.7461e-19)
(0.0401483 -0.0378638 -2.511e-19)
(0.0393216 -0.0679374 6.44019e-19)
(0.0456739 -0.100459 -6.33445e-19)
(0.0471623 -0.133043 1.3031e-19)
(-0.132567 -0.104918 7.69693e-20)
(-0.037205 0.0513495 8.63992e-19)
(0.00271106 -0.0236492 -3.27706e-19)
(-0.038836 -0.092869 -1.70747e-20)
(-0.0395425 -0.0769641 -1.398e-19)
(-0.0278339 -0.0592412 4.7775e-19)
(-0.0123108 -0.0504839 9.66313e-20)
(-0.00759941 -0.0318124 6.19265e-21)
(-0.00214269 -0.0221979 -1.19547e-21)
(-0.00456591 -0.0105874 4.92986e-19)
(-0.00447206 -0.000286268 -7.53677e-20)
(-0.00292587 0.00174379 -1.50465e-20)
(-0.00325722 0.00566911 -1.51134e-20)
(-0.00588505 0.0078044 5.53523e-21)
(-0.00463981 0.00573604 0)
(-0.00281726 0.00501491 0)
(-0.00213044 0.00524973 0)
(-0.00478341 0.00289721 0)
(-0.0070918 0.00526938 0)
(-0.016622 0.00269826 0)
(0.0188887 0.00121508 1.7395e-23)
(0.00944987 0.00659532 0)
(0.00791716 -0.00132562 0)
(0.00859829 -9.53905e-05 0)
(0.0105576 0.00103495 0)
(0.0124823 0.00161004 0)
(0.0128276 0.00196765 2.20248e-21)
(0.0145263 0.00127005 1.83885e-20)
(0.0165268 -0.000255631 -4.97901e-20)
(0.0232683 -0.00276257 -8.83737e-20)
(0.0370018 -0.00354197 8.33852e-20)
(0.0612501 -0.000329556 1.13731e-20)
(0.0676011 -0.00615111 -2.13718e-19)
(0.0793723 -0.0398344 7.39098e-19)
(0.079423 -0.045647 -9.35012e-19)
(0.0798843 -0.119763 -1.12138e-18)
(0.0792459 -0.133116 1.28833e-18)
(-0.333731 -0.0623806 -3.6931e-19)
(-0.095146 -0.0920085 1.33991e-18)
(0.372595 -0.32388 -9.11185e-19)
(-0.413731 -0.0491137 -7.67916e-20)
(-0.142643 0.234166 1.12005e-19)
(0.617959 0.085982 -9.45219e-19)
(-0.0348994 -0.0861961 -5.32105e-19)
(-0.0474913 -0.0822143 1.12705e-18)
(-0.0355582 -0.072006 -6.26743e-19)
(-0.0291937 -0.0242845 1.575e-19)
(-0.0440083 -0.0209618 -2.16262e-19)
(-0.0164582 -0.0170922 1.00072e-19)
(-0.0127412 -0.000532717 1.35215e-19)
(-0.00611017 0.00212981 -2.65377e-19)
(-0.000509647 0.00332233 3.26131e-20)
(-0.00141204 0.00882721 4.94143e-20)
(-0.00283808 0.00937182 -2.19457e-21)
(-0.00747683 0.00810878 0)
(-0.00542907 0.00650281 0)
(-0.00491503 0.00663534 0)
(-0.00540113 0.00492563 0)
(-0.00304158 -0.000284733 0)
(0.00614204 0.00970623 0)
(0.00674651 0.0115644 1.01544e-20)
(0.00428354 0.00564949 0)
(0.00553184 0.00975645 0)
(0.00611049 0.0122881 0)
(0.00709521 0.0117982 0)
(0.0109889 0.0119851 0)
(0.0186722 0.0104501 -3.87789e-22)
(0.0267399 0.00644021 -9.96298e-21)
(0.0329532 0.00471182 2.12e-20)
(0.0445501 0.000406116 8.96909e-20)
(0.0430903 0.0128183 -1.26877e-19)
(0.0413402 -0.0031459 5.0432e-19)
(0.0429781 0.0148447 -4.16153e-19)
(0.0971032 0.0113988 1.15752e-19)
(0.142318 -0.0419597 1.26278e-18)
(0.143 -0.0671511 -1.63372e-20)
(0.096982 -0.191324 -1.73938e-18)
(-0.637239 -0.00843398 1.24916e-18)
(0.503799 -0.335071 -9.93862e-19)
(-0.918081 -0.156359 2.93537e-18)
(-0.960342 -0.301839 -6.01666e-19)
(0.153274 -0.116806 -3.49408e-18)
(0.656043 -0.196942 -2.13604e-18)
(-0.0164914 -0.212391 -1.95015e-18)
(-0.0586408 -0.075299 -1.50525e-18)
(-0.104956 0.00235679 -8.34356e-20)
(-0.0349765 0.0094224 9.43324e-19)
(-0.0418346 0.0121021 -1.83406e-19)
(-0.0293357 0.0178857 1.11508e-18)
(-0.00284443 -0.00354981 3.00815e-19)
(-0.0110722 0.00754179 -8.58451e-20)
(-0.00129561 0.00667484 -5.81631e-20)
(-0.00178002 0.00741613 1.03117e-20)
(-0.00337243 0.0088219 -1.38009e-22)
(-0.00524596 0.00271615 0)
(-0.0063836 0.000720586 0)
(-0.00675001 -0.00321196 0)
(-0.0061291 -0.00211746 0)
(-0.00584014 -0.00470501 0)
(-0.00674048 -0.011127 2.8406e-21)
(0.00480775 -0.000544957 -1.2367e-20)
(0.00998659 -0.000562228 0)
(0.0118642 0.00184578 0)
(0.0106101 0.00495394 0)
(0.00927825 0.00732199 0)
(0.0145417 0.0102585 0)
(0.0203495 0.0196351 0)
(0.0235792 0.0185159 -6.00811e-22)
(0.0271092 0.0122798 6.23867e-22)
(0.0277967 0.0229469 -1.42879e-20)
(0.0445627 0.0214066 5.15413e-20)
(0.0704992 0.0353799 -2.19283e-21)
(0.085981 0.0374185 1.52272e-19)
(0.113783 0.102792 -8.46839e-20)
(0.191472 0.0912505 -5.7258e-19)
(0.298297 0.0203418 1.15238e-19)
(0.139105 -0.0901423 -9.9289e-19)
(-0.219405 -0.445345 7.68147e-18)
(0.71819 -0.661725 -3.16563e-19)
(0.388264 -0.886476 -2.7077e-18)
(-2.25141 0.124347 3.33752e-18)
(-0.0652824 -0.326518 2.7891e-18)
(0.0786363 -0.0112746 -7.07427e-19)
(0.304764 -0.422339 1.09749e-17)
(-0.272308 0.0376542 3.65768e-21)
(-0.143943 0.0158424 -4.95742e-19)
(-0.0968842 0.0672777 8.14776e-20)
(-0.0182186 0.045097 -1.21321e-19)
(-0.0143883 0.0198701 -4.0308e-20)
(-0.00758941 0.0318817 9.22643e-20)
(-0.00304169 0.019818 -1.8071e-20)
(-0.00168821 0.0251699 3.57534e-20)
(0.00137118 0.0155042 -7.49552e-21)
(0.00500378 0.0163868 0)
(0.0057981 0.00980728 0)
(0.00523376 0.0065205 0)
(0.00704179 0.00259398 0)
(0.00727135 0.00246342 0)
(0.00449982 0.00212631 0)
(0.00157455 0.00074722 1.60016e-20)
(0.00448722 0.00129188 -7.38944e-22)
(0.00474639 0.00348551 0)
(0.00593256 0.00438724 0)
(0.00503898 0.00755772 0)
(0.00512437 0.0107939 0)
(0.00468222 0.0128346 0)
(0.010632 0.0219091 0)
(0.0228694 0.0320587 0)
(0.0283821 0.0404451 -5.59211e-21)
(0.0205454 0.0394845 -1.12208e-20)
(0.022707 0.0478903 2.95371e-20)
(0.0261606 0.0765567 1.48951e-19)
(0.0783577 0.116459 -3.76763e-19)
(0.106073 0.158477 1.95104e-19)
(0.147451 0.184783 2.39749e-19)
(0.31096 0.226743 -1.53925e-18)
(0.598644 0.0809468 -3.60421e-20)
(0.314575 -0.517616 8.59511e-19)
(-0.423672 -0.128357 -5.37019e-18)
(-2.06374 0.641316 8.26321e-18)
(1.5132 -0.0416552 -2.50057e-18)
(-1.21254 -0.454024 -1.00717e-17)
(0.781748 0.233414 6.12761e-18)
(-0.955267 -0.169049 -2.31651e-18)
(-0.333836 0.179991 8.66596e-19)
(-0.170265 0.222698 6.34362e-19)
(-0.0318444 0.115546 2.63811e-20)
(-0.011398 0.0556411 2.70472e-19)
(0.00347907 0.0495775 -3.65785e-19)
(-0.00135525 0.0408548 3.99524e-20)
(0.0181531 0.02286 7.31986e-21)
(0.0131567 0.011154 2.92156e-21)
(0.0140991 0.00983815 0)
(0.00521831 0.00911443 0)
(0.0111927 0.00750449 0)
(0.0113147 0.00470069 0)
(0.00962308 0.00314138 -3.9206e-20)
(0.0111286 0.00381152 -5.42194e-20)
(0.00815219 0.00214293 -3.23315e-20)
(0.00807272 0.00110603 0)
(0.00131369 -0.0015902 0)
(-0.00244434 -0.0017841 0)
(-0.00279956 0.000566333 0)
(-0.00114152 0.0024316 0)
(-0.000793635 0.00612239 0)
(-0.00274336 0.00855387 0)
(-0.00392156 0.00783321 0)
(-0.0063664 0.0184161 0)
(-0.00185829 0.0390497 -2.14068e-24)
(-0.00639548 0.0542835 2.76852e-21)
(-0.00328198 0.0679752 -1.0566e-20)
(-0.0466547 0.0950568 -5.85539e-20)
(-0.0197975 0.159235 6.68085e-20)
(-0.0279649 0.21784 -1.23933e-19)
(-0.00845748 0.307844 -4.26044e-18)
(0.350555 0.460567 -4.16957e-19)
(1.66221 0.00531661 -5.49527e-19)
(-1.06593 0.350181 4.90439e-19)
(0.394363 0.842113 1.1738e-18)
(-0.176666 1.65486 -7.15761e-19)
(-0.965897 -0.0251769 -2.62812e-18)
(0.807572 -1.43622 -8.24467e-19)
(0.710664 0.635796 1.3326e-18)
(-0.950556 0.605766 -3.97234e-19)
(-0.15246 0.48149 4.33083e-19)
(-0.00511779 0.291354 -5.07987e-19)
(0.0842179 0.112501 -1.41273e-19)
(0.0684974 0.0676006 1.32542e-19)
(0.0471141 0.063413 -5.16738e-20)
(0.0354321 0.029924 -8.38524e-22)
(0.0195173 0.0160774 5.60245e-22)
(0.00102949 0.0109667 3.54281e-23)
(-0.00151816 0.0123595 0)
(0.00728523 0.0065299 0)
(0.0128263 0.00290354 0)
(0.0103156 0.00326536 0)
(0.00636895 0.00438121 0)
(0.00405923 0.00355964 0)
(0.00334532 0.00381223 0)
(0.00696794 0.00344679 5.82295e-21)
(0.00605469 4.75736e-05 0)
(0.00255085 -0.000168217 0)
(-0.00214375 -0.00150329 0)
(-0.00252578 -0.00215705 0)
(-0.00192683 -0.000111857 0)
(-0.00398147 0.00322679 0)
(-0.00558529 0.00441502 0)
(-0.0093196 0.00946441 0)
(-0.0147827 0.0166197 0)
(-0.0272875 0.0389944 0)
(-0.0515436 0.0492383 -1.88541e-21)
(-0.0848747 0.0913791 -1.33202e-20)
(-0.12655 0.122426 5.68508e-21)
(-0.191843 0.135746 -4.70697e-20)
(-0.165037 0.351542 -1.36572e-17)
(-0.0202834 0.539282 7.99857e-20)
(1.06996 0.943199 -5.93081e-18)
(0.0902768 1.16434 1.80975e-18)
(0.0400213 0.268203 -2.76455e-18)
(-0.588582 -0.949331 -6.54261e-18)
(-0.166467 0.824071 2.69424e-18)
(-0.422473 2.5931 -7.78885e-18)
(0.35912 1.5057 -1.77301e-19)
(-0.26395 1.12168 -2.66212e-19)
(0.0950821 0.632858 -1.47449e-18)
(0.2748 0.278819 8.40845e-20)
(0.215102 0.0726432 1.26631e-20)
(0.152166 0.0489093 2.01517e-20)
(0.104781 0.0170967 -4.82965e-20)
(0.0634519 0.00325057 -3.82478e-21)
(0.0419236 0.0106086 0)
(0.0233556 0.00528446 0)
(0.0146114 -0.000290268 0)
(0.0162265 -0.00638803 0)
(0.0134887 -0.00310956 0)
(0.00923228 -0.000716025 0)
(0.00464145 0.00268021 0)
(0.00178124 0.00272034 0)
(0.00533451 0.00164389 0)
(0.0108329 0.000112594 0)
(-0.00259555 0.000574293 0)
(0.00106013 0.00221064 0)
(0.000685735 -0.000788017 0)
(-0.00229168 -0.00293308 0)
(-0.00485598 -0.00321984 0)
(-0.0101697 -0.00088359 0)
(-0.0146853 0.000306294 0)
(-0.0240974 0.00597067 0)
(-0.0380885 0.00631501 0)
(-0.0532907 0.0151657 0)
(-0.0830587 0.013903 0)
(-0.109424 0.0232601 -3.21406e-22)
(-0.185198 0.0356347 -1.31825e-22)
(-0.219445 0.0627129 -7.62531e-21)
(-0.368232 0.038836 -4.32676e-18)
(-0.558757 0.359121 -2.2579e-19)
(0.340182 0.528455 -4.27011e-18)
(-0.0963094 0.99894 -3.26362e-19)
(0.0492773 0.930359 2.4879e-18)
(-0.101713 0.588211 -3.76373e-18)
(0.0538108 0.487689 -4.21512e-18)
(-0.339982 0.468331 3.43157e-18)
(-0.0761662 -0.0178851 5.54956e-19)
(-0.341737 0.139095 3.65762e-19)
(0.916087 0.112467 -8.04447e-19)
(0.5044 0.130383 -4.85646e-19)
(0.302024 -0.0879932 5.34179e-19)
(0.198386 -0.0605817 3.34112e-20)
(0.11013 -0.0473578 -1.11325e-21)
(0.0653101 -0.0374659 0)
(0.040379 -0.0238344 0)
(0.0274312 -0.022636 0)
(0.0184477 -0.0208775 0)
(0.0128325 -0.0173576 0)
(0.00686038 -0.0101928 0)
(0.00452617 -0.00647636 0)
(0.00393065 -0.0038938 0)
(0.00410729 -0.00461689 0)
(0.00515261 -0.00604284 0)
(0.0023643 -0.0039925 0)
(-0.000561163 -0.00433961 0)
(0.000149421 -0.00320086 0)
(-0.000756639 -0.00337689 0)
(-0.00246435 -0.00283136 0)
(-0.0073349 -0.00309448 0)
(-0.0137296 -0.00466764 0)
(-0.0229412 -0.00693663 0)
(-0.0317648 -0.00865977 0)
(-0.0416116 -0.0121473 0)
(-0.0481217 -0.0263616 0)
(-0.0819339 -0.0352186 3.49652e-20)
(-0.0881727 -0.0903667 0)
(-0.181494 -0.0669787 0)
(-0.165979 -0.151752 9.01609e-19)
(-0.324788 -0.279856 -7.20134e-19)
(-0.971169 -0.386955 -7.54846e-18)
(0.405871 0.358757 -6.60477e-20)
(1.44215 0.192006 9.01899e-19)
(0.253333 -0.864508 -3.18778e-18)
(-0.647899 -0.842527 2.88357e-17)
(-0.596026 -1.01283 -9.89159e-19)
(-0.394023 -0.56069 1.46999e-18)
(0.645578 -0.960109 -5.25864e-20)
(0.687114 -1.67353 8.28415e-20)
(-0.887121 -0.295431 2.95747e-20)
(0.814699 -0.377305 8.40771e-19)
(0.314506 -0.363779 -9.95227e-19)
(0.119733 -0.19291 0)
(0.0460465 -0.137841 0)
(0.0292729 -0.0754605 1.99093e-20)
(0.0146211 -0.0528083 0)
(0.0109036 -0.0339921 0)
(0.00265287 -0.0227762 0)
(-0.000857352 -0.0152898 0)
(-0.00227707 -0.0105844 0)
(-0.00108313 -0.00793997 0)
(0.00106367 -0.00562527 0)
(8.38715e-05 -0.00375173 6.45262e-21)
(-0.00063509 -0.00133229 4.62918e-21)
(-0.00216748 0.00139421 0)
(0.00648926 -0.000461312 0)
(0.00193916 -0.000593596 0)
(-0.000429727 -0.000997668 0)
(-0.00354584 0.000361041 0)
(-0.00584465 -0.00143931 0)
(-0.00759585 -0.00491431 0)
(-0.0124366 -0.010795 0)
(-0.0157203 -0.0229782 0)
(-0.0189115 -0.0355997 0)
(-0.0105803 -0.0614308 0)
(-0.0229388 -0.0819756 -1.16787e-19)
(-0.0274608 -0.136552 0)
(-0.0371796 -0.195203 0)
(-0.133222 -0.217004 -1.18138e-19)
(-0.390637 -0.336781 3.62111e-18)
(-0.663761 -0.411762 2.64568e-20)
(0.503752 -0.682758 0)
(0.502005 -0.802454 3.64078e-20)
(0.171247 -1.09534 -8.24337e-18)
(-0.170485 0.0178147 -2.14615e-18)
(-0.44192 -0.578054 1.18597e-17)
(-0.238724 0.454988 -3.47678e-18)
(0.159344 0.0705738 -1.1932e-19)
(0.158443 -0.377329 0)
(-0.150968 -0.998818 -2.01445e-19)
(0.392051 -0.834617 7.93506e-19)
(0.0959099 -0.425309 -4.38275e-20)
(-0.0769252 -0.248862 0)
(-0.0670808 -0.153701 0)
(-0.0350481 -0.0757794 -3.84956e-20)
(-0.0248559 -0.0447192 0)
(-0.0130276 -0.0231556 0)
(-0.00608151 -0.0127902 0)
(-0.00274398 -0.00961542 0)
(-0.00407171 -0.00703797 0)
(-0.00309584 -0.0046087 -1.16737e-20)
(-0.0013492 -0.00401459 1.51698e-20)
(0.000385734 -0.00234383 0)
(0.000573203 -0.00206208 0)