/*--------------------------------*- C++ -*----------------------------------*\
| =========                 |                                                 |
| \\      /  F ield         | OpenFOAM: The Open Source CFD Toolbox           |
|  \\    /   O peration     | Version:  v2106                                 |
|   \\  /    A nd           | Website:  www.openfoam.com                      |
|    \\/     M anipulation  |                                                 |
\*---------------------------------------------------------------------------*/
FoamFile
{
    version     2.0;
    format      ascii;
    arch        "LSB;label=32;scalar=64";
    class       pointVectorField;
    location    "0";
    object      pointDisplacement;
}
// * * * * * * * * * * * * * * * * * * * * * * * * * * * * * * * * * * * * * //

dimensions      [0 1 0 0 0 0 0];

internalField   nonuniform List<vector> 
24440
(
(0 0 0)
(0 0 0)
(0 0 0)
(0 0 0)
(0 0 0)
(0 0 0)
(0 0 0)
(0 0 0)
(0 0 0)
(0 0 0)
(0 0 0)
(0 0 0)
(0 0 0)
(0 0 0)
(0 0 0)
(0 0 0)
(0 0 0)
(0 0 0)
(0 0 0)
(0 0 0)
(0 0 0)
(0 0 0)
(0 0 0)
(0 0 0)
(0 0 0)
(0 0 0)
(0 0 0)
(0 0 0)
(0 0 0)
(0 0 0)
(0 0 0)
(0 0 0)
(0 0 0)
(0 0 0)
(0 0 0)
(0 0 0)
(0 0 0)
(0 0 0)
(0 0 0)
(0 0 0)
(0 0 0)
(0 0 0)
(0 0 0)
(0 0 0)
(0 0 0)
(0 0 0)
(0 0 0)
(0 0 0)
(0 0 0)
(0 0 0)
(0 0 0)
(0 0 0)
(0 0 0)
(0 0 0)
(0 0 0)
(0 0 0)
(0 0 0)
(0 0 0)
(0 0 0)
(0 0 0)
(0 0 0)
(0 0 0)
(0 0 0)
(0 0 0)
(0 0 0)
(0 0 0)
(0 0 0)
(0 0 0)
(0 0 0)
(0 0 0)
(0 0 0)
(0 0 0)
(0 0 0)
(0 0 0)
(0 0 0)
(0 0 0)
(0 0 0)
(0 0 0)
(0 0 0)
(0 0 0)
(0 0 0)
(0 0 0)
(0 0 0)
(0 0 0)
(0 0 0)
(0 0 0)
(0 0 0)
(0 0 0)
(0 0 0)
(0 0 0)
(0 0 0)
(0 0 0)
(0 0 0)
(0 0 0)
(0 0 0)
(0 0 0)
(0 0 0)
(0 0 0)
(0 1.26593e-06 0)
(0 7.98302e-06 0)
(0 2.19516e-05 0)
(0 3.38263e-05 0)
(0 3.83835e-05 0)
(0 3.38263e-05 0)
(0 2.19516e-05 0)
(0 7.98302e-06 0)
(0 1.26593e-06 0)
(0 0 0)
(0 0 0)
(0 0 0)
(0 0 0)
(0 0 0)
(0 0 0)
(0 0 0)
(0 0 0)
(0 0 0)
(0 0 0)
(0 0 0)
(0 0 0)
(0 0 0)
(0 0 0)
(0 0 0)
(0 0 0)
(0 0 0)
(0 0 0)
(0 0 0)
(0 0 0)
(0 0 0)
(0 0 0)
(0 0 0)
(0 0 0)
(0 0 0)
(0 0 0)
(0 0 0)
(0 0 0)
(0 0 0)
(0 2.12009e-06 0)
(0 2.80452e-05 0)
(0 8.2535e-05 0)
(0 0.000148681 0)
(0 0.00021208 0)
(0 0.000256278 0)
(0 0.000297364 0)
(0 0.000311821 0)
(0 0.000297364 0)
(0 0.000256278 0)
(0 0.00021208 0)
(0 0.000148681 0)
(0 8.2535e-05 0)
(0 2.80452e-05 0)
(0 2.12009e-06 0)
(0 0 0)
(0 0 0)
(0 0 0)
(0 0 0)
(0 0 0)
(0 0 0)
(0 0 0)
(0 0 0)
(0 0 0)
(0 0 0)
(0 0 0)
(0 0 0)
(0 0 0)
(0 0 0)
(0 0 0)
(0 0 0)
(0 0 0)
(0 0 0)
(0 0 0)
(0 0 0)
(0 0 0)
(0 0 0)
(0 0 0)
(0 0 0)
(0 8.90135e-07 0)
(0 3.68821e-05 0)
(0 0.00012578 0)
(0 0.000248036 0)
(0 0.000373959 0)
(0 0.000514443 0)
(0 0.000636115 0)
(0 0.000711468 0)
(0 0.000783522 0)
(0 0.000808424 0)
(0 0.000783522 0)
(0 0.000711468 0)
(0 0.000636115 0)
(0 0.000514443 0)
(0 0.000373959 0)
(0 0.000248036 0)
(0 0.00012578 0)
(0 3.68821e-05 0)
(0 8.90135e-07 0)
(0 0 0)
(0 0 0)
(0 0 0)
(0 0 0)
(0 0 0)
(0 0 0)
(0 0 0)
(0 0 0)
(0 0 0)
(0 0 0)
(0 0 0)
(0 0 0)
(0 0 0)
(0 0 0)
(0 0 0)
(0 0 0)
(0 0 0)
(0 0 0)
(0 0 0)
(0 0 0)
(0 0 0)
(0 8.41665e-06 0)
(0 8.75286e-05 0)
(0 0.000232612 0)
(0 0.00040812 0)
(0 0.000626032 0)
(0 0.000845817 0)
(0 0.00103622 0)
(0 0.00121458 0)
(0 0.00134115 0)
(0 0.00141677 0)
(0 0.00145148 0)
(0 0.00141677 0)
(0 0.00134115 0)
(0 0.00121458 0)
(0 0.00103622 0)
(0 0.000845817 0)
(0 0.000626032 0)
(0 0.00040812 0)
(0 0.000232612 0)
(0 8.75286e-05 0)
(0 8.91045e-06 0)
(0 0 0)
(0 0 0)
(0 0 0)
(0 0 0)
(0 0 0)
(0 0 0)
(0 0 0)
(0 0 0)
(0 0 0)
(0 0 0)
(0 0 0)
(0 0 0)
(0 0 0)
(0 0 0)
(0 0 0)
(0 0 0)
(0 0 0)
(0 0 0)
(0 0 0)
(0 1.65537e-05 0)
(0 0.000116074 0)
(0 0.000289707 0)
(0 0.000531856 0)
(0 0.000819644 0)
(0 0.0011187 0)
(0 0.00139313 0)
(0 0.0016533 0)
(0 0.00175106 0)
(0 0.00185678 0)
(0 0.00194522 0)
(0 0.00201489 0)
(0 0.00206471 0)
(0 0.00209917 0)
(0 0.00213099 0)
(0 0.00214165 0)
(0 0.00213099 0)
(0 0.00209917 0)
(0 0.00206471 0)
(0 0.00201489 0)
(0 0.00194522 0)
(0 0.00185678 0)
(0 0.00175106 0)
(0 0.0016533 0)
(0 0.00139313 0)
(0 0.0011187 0)
(0 0.000819644 0)
(0 0.000531856 0)
(0 0.000283694 0)
(0 0.000104885 0)
(0 1.32275e-05 0)
(0 0 0)
(0 0 0)
(0 0 0)
(0 0 0)
(0 0 0)
(0 0 0)
(0 0 0)
(0 0 0)
(0 0 0)
(0 0 0)
(0 0 0)
(0 0 0)
(0 0 0)
(0 0 0)
(0 0 0)
(0 0 0)
(0 0 0)
(0 9.7366e-06 0)
(0 0.000111425 0)
(0 0.00031045 0)
(0 0.000584175 0)
(0 0.000904802 0)
(0 0.00128204 0)
(0 0.00146242 0)
(0 0.0016223 0)
(0 0.00179925 0)
(0 0.00196511 0)
(0 0.00211687 0)
(0 0.00224579 0)
(0 0.00195724 0)
(0 0.00207674 0)
(0 0.00217105 0)
(0 0.00226617 0)
(0 0.0023408 0)
(0 0.00239397 0)
(0 0.00242585 0)
(0 0.00245964 0)
(0 0.00247094 0)
(0 0.00245964 0)
(0 0.00242585 0)
(0 0.00239397 0)
(0 0.0023408 0)
(0 0.00226617 0)
(0 0.00217105 0)
(0 0.00207674 0)
(0 0.00195724 0)
(0 0.00224579 0)
(0 0.00211687 0)
(0 0.00196511 0)
(0 0.00179925 0)
(0 0.0016223 0)
(0 0.00146242 0)
(0 0.00128204 0)
(0 0.000904802 0)
(0 0.000584175 0)
(0 0.000299126 0)
(0 0.000106577 0)
(0 8.84224e-06 0)
(0 0 0)
(0 0 0)
(0 0 0)
(0 0 0)
(0 0 0)
(0 0 0)
(0 0 0)
(0 0 0)
(0 0 0)
(0 0 0)
(0 0 0)
(0 0 0)
(0 0 0)
(0 0 0)
(0 0 0)
(0 0 0)
(0 6.16052e-05 0)
(0 0.000251759 0)
(0 0.000538226 0)
(0 0.000898061 0)
(0 0.00129883 0)
(0 0.00170607 0)
(0 0.00150165 0)
(0 0.0016978 0)
(0 0.00188655 0)
(0 0.00206427 0)
(0 0.00222217 0)
(0 0.0023823 0)
(0 0.00252381 0)
(0 0.00264072 0)
(0 0.00237276 0)
(0 0.00247972 0)
(0 0.00275095 0)
(0 0.00283032 0)
(0 0.00256481 0)
(0 0.00264266 0)
(0 0.00290927 0)
(0 0.00296484 0)
(0 0.00269788 0)
(0 0.00272587 0)
(0 0.00299704 0)
(0 0.0030226 0)
(0 0.00276072 0)
(0 0.00277234 0)
(0 0.00303414 0)
(0 0.0030226 0)
(0 0.00276072 0)
(0 0.00272587 0)
(0 0.00299704 0)
(0 0.00296484 0)
(0 0.00269788 0)
(0 0.00264266 0)
(0 0.00290927 0)
(0 0.00283032 0)
(0 0.00256481 0)
(0 0.00247972 0)
(0 0.00275095 0)
(0 0.00264072 0)
(0 0.00237276 0)
(0 0.00252381 0)
(0 0.0023823 0)
(0 0.00222217 0)
(0 0.00206427 0)
(0 0.00188655 0)
(0 0.0016978 0)
(0 0.00150165 0)
(0 0.00170607 0)
(0 0.00129883 0)
(0 0.00088725 0)
(0 0.000533977 0)
(0 0.00025149 0)
(0 6.69747e-05 0)
(0 0 0)
(0 0 0)
(0 0 0)
(0 0 0)
(0 0 0)
(0 0 0)
(0 0 0)
(0 0 0)
(0 0 0)
(0 0 0)
(0 0 0)
(0 0 0)
(0 0 0)
(0 0 0)
(0 0 0)
(0 1.34391e-05 0)
(0 0.000138069 0)
(0 0.000397983 0)
(0 0.00074566 0)
(0 0.00115899 0)
(0 0.00163253 0)
(0 0.00208867 0)
(0 0.00191116 0)
(0 0.00211779 0)
(0 0.0019016 0)
(0 0.00211428 0)
(0 0.00231203 0)
(0 0.00250687 0)
(0 0.00230145 0)
(0 0.00247239 0)
(0 0.00268255 0)
(0 0.00276266 0)
(0 0.00283722 0)
(0 0.00273584 0)
(0 0.00261668 0)
(0 0.00276189 0)
(0 0.00286602 0)
(0 0.00293035 0)
(0 0.00282618 0)
(0 0.00298258 0)
(0 0.00308136 0)
(0 0.00312707 0)
(0 0.00302898 0)
(0 0.00313125 0)
(0 0.00322788 0)
(0 0.00325197 0)
(0 0.00316101 0)
(0 0.00321571 0)
(0 0.00330426 0)
(0 0.00331687 0)
(0 0.00323036 0)
(0 0.00324611 0)
(0 0.00333074 0)
(0 0.00332819 0)
(0 0.0032434 0)
(0 0.00321571 0)
(0 0.00330426 0)
(0 0.00329231 0)
(0 0.00320315 0)
(0 0.00313125 0)
(0 0.00322788 0)
(0 0.00320022 0)
(0 0.00310382 0)
(0 0.00298258 0)
(0 0.00308136 0)
(0 0.003041 0)
(0 0.00293018 0)
(0 0.00276189 0)
(0 0.00286602 0)
(0 0.00279585 0)
(0 0.00269199 0)
(0 0.00247239 0)
(0 0.00268255 0)
(0 0.00250687 0)
(0 0.00230145 0)
(0 0.00211428 0)
(0 0.00231203 0)
(0 0.00211779 0)
(0 0.0019016 0)
(0 0.00191116 0)
(0 0.00207926 0)
(0 0.00163141 0)
(0 0.00117767 0)
(0 0.000739398 0)
(0 0.000394108 0)
(0 0.000144989 0)
(0 1.53683e-05 0)
(0 0 0)
(0 0 0)
(0 0 0)
(0 0 0)
(0 0 0)
(0 0 0)
(0 0 0)
(0 0 0)
(0 0 0)
(0 0 0)
(0 0 0)
(0 0 0)
(0 0 0)
(0 0 0)
(0 4.39696e-05 0)
(0 0.000222533 0)
(0 0.000522853 0)
(0 0.000918721 0)
(0 0.00137621 0)
(0 0.00187939 0)
(0 0.00234901 0)
(0 0.00223314 0)
(0 0.00245414 0)
(0 0.00230373 0)
(0 0.00250453 0)
(0 0.00265909 0)
(0 0.0028442 0)
(0 0.00268744 0)
(0 0.00284946 0)
(0 0.00293338 0)
(0 0.00300557 0)
(0 0.00293328 0)
(0 0.00313723 0)
(0 0.00317195 0)
(0 0.00319997 0)
(0 0.00316556 0)
(0 0.00332107 0)
(0 0.00334884 0)
(0 0.00336687 0)
(0 0.00333967 0)
(0 0.00342989 0)
(0 0.00345013 0)
(0 0.00345932 0)
(0 0.00343893 0)
(0 0.00347759 0)
(0 0.00349243 0)
(0 0.00349455 0)
(0 0.00348014 0)
(0 0.00348978 0)
(0 0.00350174 0)
(0 0.00350154 0)
(0 0.00348949 0)
(0 0.00347759 0)
(0 0.00349243 0)
(0 0.0034895 0)
(0 0.00347411 0)
(0 0.00342989 0)
(0 0.00345013 0)
(0 0.00344243 0)
(0 0.00341902 0)
(0 0.00332107 0)
(0 0.00334884 0)
(0 0.00333315 0)
(0 0.00330083 0)
(0 0.00313723 0)
(0 0.00317195 0)
(0 0.00320372 0)
(0 0.00314326 0)
(0 0.00307565 0)
(0 0.00284946 0)
(0 0.00293338 0)
(0 0.00300629 0)
(0 0.0028442 0)
(0 0.00268744 0)
(0 0.00250453 0)
(0 0.00265302 0)
(0 0.00245256 0)
(0 0.00230373 0)
(0 0.00223581 0)
(0 0.00235597 0)
(0 0.00187467 0)
(0 0.00138991 0)
(0 0.000928355 0)
(0 0.00052891 0)
(0 0.000225708 0)
(0 4.50543e-05 0)
(0 0 0)
(0 0 0)
(0 0 0)
(0 0 0)
(0 0 0)
(0 0 0)
(0 0 0)
(0 0 0)
(0 0 0)
(0 0 0)
(0 0 0)
(0 0 0)
(0 0 0)
(0 0 0)
(0 6.78e-05 0)
(0 0.000276448 0)
(0 0.000608355 0)
(0 0.00103549 0)
(0 0.00152189 0)
(0 0.00202668 0)
(0 0.0025076 0)
(0 0.00244801 0)
(0 0.00266726 0)
(0 0.00256547 0)
(0 0.00276396 0)
(0 0.002867 0)
(0 0.00304332 0)
(0 0.00295816 0)
(0 0.00311866 0)
(0 0.00315831 0)
(0 0.00322739 0)
(0 0.00318866 0)
(0 0.00335498 0)
(0 0.0033733 0)
(0 0.00339397 0)
(0 0.00337622 0)
(0 0.00348246 0)
(0 0.0034913 0)
(0 0.00349868 0)
(0 0.00349088 0)
(0 0.00351298 0)
(0 0.00351298 0)
(0 0.00351298 0)
(0 0.00351298 0)
(0 0.00351298 0)
(0 0.00351298 0)
(0 0.00351298 0)
(0 0.00351298 0)
(0 0.00351298 0)
(0 0.00351298 0)
(0 0.00351298 0)
(0 0.00351298 0)
(0 0.00351298 0)
(0 0.00351298 0)
(0 0.00351298 0)
(0 0.00351298 0)
(0 0.00351298 0)
(0 0.00351298 0)
(0 0.00351298 0)
(0 0.00351298 0)
(0 0.00348246 0)
(0 0.0034913 0)
(0 0.00348156 0)
(0 0.00347233 0)
(0 0.00335498 0)
(0 0.0033733 0)
(0 0.00338895 0)
(0 0.00334117 0)
(0 0.00330694 0)
(0 0.00311685 0)
(0 0.00316292 0)
(0 0.00319809 0)
(0 0.0030391 0)
(0 0.00296079 0)
(0 0.00277971 0)
(0 0.00286344 0)
(0 0.00266443 0)
(0 0.00257681 0)
(0 0.00244593 0)
(0 0.00250884 0)
(0 0.00202584 0)
(0 0.00151947 0)
(0 0.00103217 0)
(0 0.00060489 0)
(0 0.000273582 0)
(0 6.61724e-05 0)
(0 0 0)
(0 0 0)
(0 0 0)
(0 0 0)
(0 0 0)
(0 0 0)
(0 0 0)
(0 0 0)
(0 0 0)
(0 0 0)
(0 0 0)
(0 0 0)
(0 0 0)
(0 0 0)
(0 7.18833e-05 0)
(0 0.000285285 0)
(0 0.000622285 0)
(0 0.00105457 0)
(0 0.00154581 0)
(0 0.00205474 0)
(0 0.00253859 0)
(0 0.00253948 0)
(0 0.00275895 0)
(0 0.00272643 0)
(0 0.00292469 0)
(0 0.00295725 0)
(0 0.0031302 0)
(0 0.00309835 0)
(0 0.00324951 0)
(0 0.00326411 0)
(0 0.00332472 0)
(0 0.00331155 0)
(0 0.00344835 0)
(0 0.00345398 0)
(0 0.00346894 0)
(0 0.00346374 0)
(0 0.00351298 0)
(0 0.00351298 0)
(0 0.00351298 0)
(0 0.00351298 0)
(0 0.00351298 0)
(0 0.00351298 0)
(0 0.00351298 0)
(0 0.00351298 0)
(0 0.00351298 0)
(0 0.00351298 0)
(0 0.00351298 0)
(0 0.00351298 0)
(0 0.00351298 0)
(0 0.00351298 0)
(0 0.00351298 0)
(0 0.00351298 0)
(0 0.00351298 0)
(0 0.00351284 0)
(0 0.00351233 0)
(0 0.00344835 0)
(0 0.00345398 0)
(0 0.0034577 0)
(0 0.00342257 0)
(0 0.00341017 0)
(0 0.00324931 0)
(0 0.00326432 0)
(0 0.00327415 0)
(0 0.0031302 0)
(0 0.00310285 0)
(0 0.00292817 0)
(0 0.0029498 0)
(0 0.0027504 0)
(0 0.0027288 0)
(0 0.00253001 0)
(0 0.00253291 0)
(0 0.00204842 0)
(0 0.00153939 0)
(0 0.00104861 0)
(0 0.000617301 0)
(0 0.00028171 0)
(0 7.00309e-05 0)
(0 0 0)
(0 0 0)
(0 0 0)
(0 0 0)
(0 0 0)
(0 0 0)
(0 0 0)
(0 0 0)
(0 0 0)
(0 0 0)
(0 0 0)
(0 0 0)
(0 0 0)
(0 0 0)
(0 5.87453e-05 0)
(0 0.000256741 0)
(0 0.000577608 0)
(0 0.000993975 0)
(0 0.00147059 0)
(0 0.00196739 0)
(0 0.00244299 0)
(0 0.00251164 0)
(0 0.00273074 0)
(0 0.00275823 0)
(0 0.00295672 0)
(0 0.00292921 0)
(0 0.00310297 0)
(0 0.00312987 0)
(0 0.00327402 0)
(0 0.00326631 0)
(0 0.0033269 0)
(0 0.00333424 0)
(0 0.00346386 0)
(0 0.00346203 0)
(0 0.00347605 0)
(0 0.00347771 0)
(0 0.00351298 0)
(0 0.00351298 0)
(0 0.00351298 0)
(0 0.00351298 0)
(0 0.00351298 0)
(0 0.00351298 0)
(0 0.00351298 0)
(0 0.00351298 0)
(0 0.00351298 0)
(0 0.00351298 0)
(0 0.00351298 0)
(0 0.00351298 0)
(0 0.00351298 0)
(0 0.00351298 0)
(0 0.00351298 0)
(0 0.00351298 0)
(0 0.00346386 0)
(0 0.00346053 0)
(0 0.00345871 0)
(0 0.00342366 0)
(0 0.00342764 0)
(0 0.00327097 0)
(0 0.00326606 0)
(0 0.00325116 0)
(0 0.00310509 0)
(0 0.00312603 0)
(0 0.00295218 0)
(0 0.00293076 0)
(0 0.00273167 0)
(0 0.00275307 0)
(0 0.00251194 0)
(0 0.0024492 0)
(0 0.00197195 0)
(0 0.00147357 0)
(0 0.000995615 0)
(0 0.00057826 0)
(0 0.000256804 0)
(0 5.8617e-05 0)
(0 0 0)
(0 0 0)
(0 0 0)
(0 0 0)
(0 0 0)
(0 0 0)
(0 0 0)
(0 0 0)
(0 0 0)
(0 0 0)
(0 0 0)
(0 0 0)
(0 0 0)
(0 0 0)
(0 2.97125e-05 0)
(0 0.00018663 0)
(0 0.000464203 0)
(0 0.000837506 0)
(0 0.00130209 0)
(0 0.00177715 0)
(0 0.00224053 0)
(0 0.00236341 0)
(0 0.00258308 0)
(0 0.00266051 0)
(0 0.00287158 0)
(0 0.00278464 0)
(0 0.00296429 0)
(0 0.00305062 0)
(0 0.00320269 0)
(0 0.00316625 0)
(0 0.00323234 0)
(0 0.00326772 0)
(0 0.00341612 0)
(0 0.00340575 0)
(0 0.0034246 0)
(0 0.00343567 0)
(0 0.00350873 0)
(0 0.00350513 0)
(0 0.00350943 0)
(0 0.00351166 0)
(0 0.00351298 0)
(0 0.00351298 0)
(0 0.00351298 0)
(0 0.00351298 0)
(0 0.00351298 0)
(0 0.00351298 0)
(0 0.00351298 0)
(0 0.00351298 0)
(0 0.00350873 0)
(0 0.0035046 0)
(0 0.00349889 0)
(0 0.00350399 0)
(0 0.00341612 0)
(0 0.00340575 0)
(0 0.00339166 0)
(0 0.00334699 0)
(0 0.00337457 0)
(0 0.00320269 0)
(0 0.00316625 0)
(0 0.00312486 0)
(0 0.00296429 0)
(0 0.00305062 0)
(0 0.00286623 0)
(0 0.00278464 0)
(0 0.00258308 0)
(0 0.00266749 0)
(0 0.00236341 0)
(0 0.00224053 0)
(0 0.00177715 0)
(0 0.00128531 0)
(0 0.000845739 0)
(0 0.000469602 0)
(0 0.000189585 0)
(0 3.0711e-05 0)
(0 0 0)
(0 0 0)
(0 0 0)
(0 0 0)
(0 0 0)
(0 0 0)
(0 0 0)
(0 0 0)
(0 0 0)
(0 0 0)
(0 0 0)
(0 0 0)
(0 0 0)
(0 0 0)
(0 3.67648e-06 0)
(0 0.000109135 0)
(0 0.00033233 0)
(0 0.000653497 0)
(0 0.00104327 0)
(0 0.00146745 0)
(0 0.00191256 0)
(0 0.00208134 0)
(0 0.00230766 0)
(0 0.00245606 0)
(0 0.00266571 0)
(0 0.0025058 0)
(0 0.00270424 0)
(0 0.00284803 0)
(0 0.00301555 0)
(0 0.00294838 0)
(0 0.00302237 0)
(0 0.00308897 0)
(0 0.00326876 0)
(0 0.00323885 0)
(0 0.00326605 0)
(0 0.00329089 0)
(0 0.00342765 0)
(0 0.00340797 0)
(0 0.00342233 0)
(0 0.00344124 0)
(0 0.00349869 0)
(0 0.00348769 0)
(0 0.00349252 0)
(0 0.00350257 0)
(0 0.00351298 0)
(0 0.00351103 0)
(0 0.00351179 0)
(0 0.00351298 0)
(0 0.00351298 0)
(0 0.00351298 0)
(0 0.00351298 0)
(0 0.00351298 0)
(0 0.00351298 0)
(0 0.00351298 0)
(0 0.00351103 0)
(0 0.00350995 0)
(0 0.00351286 0)
(0 0.00351295 0)
(0 0.00349869 0)
(0 0.00348769 0)
(0 0.00348172 0)
(0 0.0034937 0)
(0 0.00342765 0)
(0 0.00340797 0)
(0 0.00339197 0)
(0 0.00341236 0)
(0 0.00327117 0)
(0 0.0032437 0)
(0 0.00321071 0)
(0 0.00315614 0)
(0 0.00321547 0)
(0 0.00300727 0)
(0 0.00294496 0)
(0 0.00287218 0)
(0 0.00270052 0)
(0 0.00284803 0)
(0 0.00266571 0)
(0 0.0025058 0)
(0 0.00230766 0)
(0 0.00245606 0)
(0 0.00208134 0)
(0 0.00191256 0)
(0 0.00146745 0)
(0 0.00104327 0)
(0 0.000653497 0)
(0 0.00033233 0)
(0 0.000101802 0)
(0 4.41612e-06 0)
(0 0 0)
(0 0 0)
(0 0 0)
(0 0 0)
(0 0 0)
(0 0 0)
(0 0 0)
(0 0 0)
(0 0 0)
(0 0 0)
(0 0 0)
(0 0 0)
(0 0 0)
(0 0 0)
(0 0 0)
(0 3.35451e-05 0)
(0 0.00017677 0)
(0 0.0004159 0)
(0 0.000725993 0)
(0 0.00111343 0)
(0 0.00151403 0)
(0 0.001703 0)
(0 0.00192599 0)
(0 0.00211668 0)
(0 0.00232341 0)
(0 0.00212674 0)
(0 0.00231444 0)
(0 0.00251772 0)
(0 0.00269365 0)
(0 0.00248579 0)
(0 0.00262923 0)
(0 0.00274833 0)
(0 0.00284845 0)
(0 0.00277383 0)
(0 0.00298157 0)
(0 0.00287748 0)
(0 0.00294182 0)
(0 0.00304044 0)
(0 0.0031878 0)
(0 0.00309856 0)
(0 0.00313425 0)
(0 0.00322676 0)
(0 0.00331838 0)
(0 0.0032393 0)
(0 0.00326253 0)
(0 0.0033403 0)
(0 0.00338611 0)
(0 0.00331313 0)
(0 0.00332601 0)
(0 0.00339508 0)
(0 0.00340709 0)
(0 0.00333969 0)
(0 0.00333621 0)
(0 0.00340433 0)
(0 0.00338611 0)
(0 0.00331313 0)
(0 0.00329486 0)
(0 0.00337203 0)
(0 0.00331838 0)
(0 0.0032393 0)
(0 0.00321027 0)
(0 0.00329075 0)
(0 0.0031878 0)
(0 0.00309856 0)
(0 0.00305241 0)
(0 0.00314264 0)
(0 0.00298157 0)
(0 0.00287748 0)
(0 0.00281707 0)
(0 0.00291727 0)
(0 0.00269365 0)
(0 0.00248579 0)
(0 0.00231444 0)
(0 0.00251772 0)
(0 0.00232341 0)
(0 0.00212674 0)
(0 0.00192599 0)
(0 0.00211668 0)
(0 0.001703 0)
(0 0.00151403 0)
(0 0.00111343 0)
(0 0.000725993 0)
(0 0.0004159 0)
(0 0.00017677 0)
(0 3.35451e-05 0)
(0 0 0)
(0 0 0)
(0 0 0)
(0 0 0)
(0 0 0)
(0 0 0)
(0 0 0)
(0 0 0)
(0 0 0)
(0 0 0)
(0 0 0)
(0 0 0)
(0 0 0)
(0 0 0)
(0 0 0)
(0 0 0)
(0 0 0)
(0 5.0551e-05 0)
(0 0.000208738 0)
(0 0.000447474 0)
(0 0.000743554 0)
(0 0.00106786 0)
(0 0.001388 0)
(0 0.00163643 0)
(0 0.0019006 0)
(0 0.00171107 0)
(0 0.00181422 0)
(0 0.00207901 0)
(0 0.00223637 0)
(0 0.00198081 0)
(0 0.00213317 0)
(0 0.00239696 0)
(0 0.00253881 0)
(0 0.00240755 0)
(0 0.00245821 0)
(0 0.00260208 0)
(0 0.00276351 0)
(0 0.00263445 0)
(0 0.00268234 0)
(0 0.00281177 0)
(0 0.00292176 0)
(0 0.00279195 0)
(0 0.00281335 0)
(0 0.00294674 0)
(0 0.00301665 0)
(0 0.002892 0)
(0 0.00290656 0)
(0 0.00303109 0)
(0 0.00304807 0)
(0 0.0029242 0)
(0 0.0029182 0)
(0 0.00304263 0)
(0 0.00301665 0)
(0 0.002892 0)
(0 0.00287161 0)
(0 0.00299639 0)
(0 0.00292176 0)
(0 0.00279195 0)
(0 0.00276116 0)
(0 0.00289093 0)
(0 0.00276351 0)
(0 0.00263445 0)
(0 0.00258104 0)
(0 0.00270956 0)
(0 0.00253881 0)
(0 0.00240755 0)
(0 0.00225584 0)
(0 0.00213317 0)
(0 0.00239696 0)
(0 0.00223637 0)
(0 0.00198081 0)
(0 0.00181422 0)
(0 0.00207901 0)
(0 0.0019006 0)
(0 0.00163643 0)
(0 0.001388 0)
(0 0.00106786 0)
(0 0.00171107 0)
(0 0.000743554 0)
(0 0.000447474 0)
(0 0.000208738 0)
(0 5.0551e-05 0)
(0 0 0)
(0 0 0)
(0 0 0)
(0 0 0)
(0 0 0)
(0 0 0)
(0 0 0)
(0 0 0)
(0 0 0)
(0 0 0)
(0 0 0)
(0 0 0)
(0 0 0)
(0 0 0)
(0 0 0)
(0 0 0)
(0 0 0)
(0 0 0)
(0 6.41051e-07 0)
(0 5.74277e-05 0)
(0 0.000194604 0)
(0 0.000381353 0)
(0 0.000624193 0)
(0 0.000883181 0)
(0 0.00113359 0)
(0 0.00127976 0)
(0 0.0015511 0)
(0 0.00170493 0)
(0 0.00140299 0)
(0 0.00154201 0)
(0 0.00183168 0)
(0 0.00197066 0)
(0 0.00182132 0)
(0 0.00188245 0)
(0 0.00203421 0)
(0 0.00219803 0)
(0 0.00204044 0)
(0 0.00208393 0)
(0 0.002243 0)
(0 0.0023449 0)
(0 0.0021871 0)
(0 0.00222223 0)
(0 0.00238105 0)
(0 0.00245681 0)
(0 0.00229596 0)
(0 0.00230973 0)
(0 0.00247094 0)
(0 0.00248954 0)
(0 0.00232835 0)
(0 0.00232077 0)
(0 0.00248226 0)
(0 0.00245681 0)
(0 0.00229596 0)
(0 0.00227675 0)
(0 0.00243709 0)
(0 0.0023449 0)
(0 0.0021871 0)
(0 0.00214687 0)
(0 0.00231751 0)
(0 0.00219803 0)
(0 0.00204044 0)
(0 0.00199224 0)
(0 0.00214812 0)
(0 0.00197066 0)
(0 0.00182132 0)
(0 0.00166928 0)
(0 0.00154201 0)
(0 0.00183168 0)
(0 0.00170493 0)
(0 0.00140299 0)
(0 0.00127976 0)
(0 0.0015511 0)
(0 0.00113359 0)
(0 0.000883181 0)
(0 0.000624193 0)
(0 0.000381353 0)
(0 0.000194604 0)
(0 5.74277e-05 0)
(0 6.41051e-07 0)
(0 0 0)
(0 0 0)
(0 0 0)
(0 0 0)
(0 0 0)
(0 0 0)
(0 0 0)
(0 0 0)
(0 0 0)
(0 0 0)
(0 0 0)
(0 0 0)
(0 0 0)
(0 0 0)
(0 0 0)
(0 0 0)
(0 0 0)
(0 0 0)
(0 0 0)
(0 0 0)
(0 3.01591e-05 0)
(0 0.000125611 0)
(0 0.000254464 0)
(0 0.00042847 0)
(0 0.000633557 0)
(0 0.000747068 0)
(0 0.000995464 0)
(0 0.00112583 0)
(0 0.000858306 0)
(0 0.000964473 0)
(0 0.00124918 0)
(0 0.00136281 0)
(0 0.00121133 0)
(0 0.00126045 0)
(0 0.00141523 0)
(0 0.0015517 0)
(0 0.00138865 0)
(0 0.00141205 0)
(0 0.00157279 0)
(0 0.00169146 0)
(0 0.0015241 0)
(0 0.00155342 0)
(0 0.00172244 0)
(0 0.00178774 0)
(0 0.00161526 0)
(0 0.00162686 0)
(0 0.00179997 0)
(0 0.00181779 0)
(0 0.00164416 0)
(0 0.00163617 0)
(0 0.00180979 0)
(0 0.00178774 0)
(0 0.00161526 0)
(0 0.0015991 0)
(0 0.00177069 0)
(0 0.00169146 0)
(0 0.0015241 0)
(0 0.00149066 0)
(0 0.00165608 0)
(0 0.0015517 0)
(0 0.00138865 0)
(0 0.00134934 0)
(0 0.00150991 0)
(0 0.00136281 0)
(0 0.00121133 0)
(0 0.001063 0)
(0 0.000964473 0)
(0 0.00124918 0)
(0 0.00112583 0)
(0 0.000858306 0)
(0 0.000747068 0)
(0 0.000995464 0)
(0 0.000633557 0)
(0 0.00042847 0)
(0 0.000254464 0)
(0 0.000125611 0)
(0 3.01591e-05 0)
(0 0 0)
(0 0 0)
(0 0 0)
(0 0 0)
(0 0 0)
(0 0 0)
(0 0 0)
(0 0 0)
(0 0 0)
(0 0 0)
(0 0 0)
(0 0 0)
(0 0 0)
(0 0 0)
(0 0 0)
(0 0 0)
(0 0 0)
(0 0 0)
(0 0 0)
(0 0 0)
(0 0 0)
(0 0 0)
(0 0 0)
(0 2.56828e-06 0)
(0 4.35641e-05 0)
(0 0.000121581 0)
(0 0.000255051 0)
(0 0.000324489 0)
(0 0.000520143 0)
(0 0.000611256 0)
(0 0.000394998 0)
(0 0.000464192 0)
(0 0.000699207 0)
(0 0.00078158 0)
(0 0.00065133 0)
(0 0.000685978 0)
(0 0.000819981 0)
(0 0.00091247 0)
(0 0.00077225 0)
(0 0.000804759 0)
(0 0.000948191 0)
(0 0.00103821 0)
(0 0.00088691 0)
(0 0.00090858 0)
(0 0.0010619 0)
(0 0.00111207 0)
(0 0.000954544 0)
(0 0.000963198 0)
(0 0.0011215 0)
(0 0.00113657 0)
(0 0.000977324 0)
(0 0.000970156 0)
(0 0.00112909 0)
(0 0.00111207 0)
(0 0.000954544 0)
(0 0.000942503 0)
(0 0.00109893 0)
(0 0.00103821 0)
(0 0.00088691 0)
(0 0.000862275 0)
(0 0.00101125 0)
(0 0.00091247 0)
(0 0.00077225 0)
(0 0.00073752 0)
(0 0.000874239 0)
(0 0.00078158 0)
(0 0.00065133 0)
(0 0.000529841 0)
(0 0.000464192 0)
(0 0.000699207 0)
(0 0.000611256 0)
(0 0.000394998 0)
(0 0.000324489 0)
(0 0.000520143 0)
(0 0.000255051 0)
(0 0.000121581 0)
(0 4.35641e-05 0)
(0 2.56828e-06 0)
(0 0 0)
(0 0 0)
(0 0 0)
(0 0 0)
(0 0 0)
(0 0 0)
(0 0 0)
(0 0 0)
(0 0 0)
(0 0 0)
(0 0 0)
(0 0 0)
(0 0 0)
(0 0 0)
(0 0 0)
(0 0 0)
(0 0 0)
(0 0 0)
(0 0 0)
(0 0 0)
(0 0 0)
(0 0 0)
(0 0 0)
(0 0 0)
(0 0 0)
(0 0 0)
(0 4.65553e-07 0)
(0 3.49767e-05 0)
(0 6.09232e-05 0)
(0 0.000168934 0)
(0 0.000218876 0)
(0 9.08434e-05 0)
(0 0.00012284 0)
(0 0.000269262 0)
(0 0.000318067 0)
(0 0.000218944 0)
(0 0.000241357 0)
(0 0.000330084 0)
(0 0.000405288 0)
(0 0.000305013 0)
(0 0.000324336 0)
(0 0.000427911 0)
(0 0.000485766 0)
(0 0.000374052 0)
(0 0.000387365 0)
(0 0.00050118 0)
(0 0.000534071 0)
(0 0.000415857 0)
(0 0.000421259 0)
(0 0.000540293 0)
(0 0.000551114 0)
(0 0.00043085 0)
(0 0.000425611 0)
(0 0.000545302 0)
(0 0.000534071 0)
(0 0.000415857 0)
(0 0.000408361 0)
(0 0.00052543 0)
(0 0.000485766 0)
(0 0.000374052 0)
(0 0.000359016 0)
(0 0.000468318 0)
(0 0.000405288 0)
(0 0.000305013 0)
(0 0.000284609 0)
(0 0.000381302 0)
(0 0.000318067 0)
(0 0.000218944 0)
(0 0.00014723 0)
(0 0.00012284 0)
(0 0.000269262 0)
(0 0.000218876 0)
(0 9.08434e-05 0)
(0 6.09232e-05 0)
(0 0.000168934 0)
(0 3.49767e-05 0)
(0 4.65553e-07 0)
(0 0 0)
(0 0 0)
(0 0 0)
(0 0 0)
(0 0 0)
(0 0 0)
(0 0 0)
(0 0 0)
(0 0 0)
(0 0 0)
(0 0 0)
(0 0 0)
(0 0 0)
(0 0 0)
(0 0 0)
(0 0 0)
(0 0 0)
(0 0 0)
(0 0 0)
(0 0 0)
(0 0 0)
(0 0 0)
(0 0 0)
(0 0 0)
(0 0 0)
(0 0 0)
(0 0 0)
(0 0 0)
(0 0 0)
(0 0 0)
(0 0 0)
(0 1.70979e-05 0)
(0 6.18413e-06 0)
(0 0 0)
(0 2.68864e-05 0)
(0 4.49172e-05 0)
(0 1.37514e-06 0)
(0 6.01065e-06 0)
(0 6.47294e-05 0)
(0 8.48048e-05 0)
(0 1.26743e-05 0)
(0 2.01811e-05 0)
(0 0.000103774 0)
(0 0.000120448 0)
(0 2.74967e-05 0)
(0 3.37623e-05 0)
(0 0.000133841 0)
(0 0.000143199 0)
(0 3.83156e-05 0)
(0 4.07065e-05 0)
(0 0.000148009 0)
(0 0.000151857 0)
(0 4.2749e-05 0)
(0 4.07065e-05 0)
(0 0.000148009 0)
(0 0.000143199 0)
(0 3.83156e-05 0)
(0 3.37623e-05 0)
(0 0.000133841 0)
(0 0.000120448 0)
(0 2.74967e-05 0)
(0 2.01811e-05 0)
(0 0.000103774 0)
(0 8.48048e-05 0)
(0 1.26743e-05 0)
(0 6.01065e-06 0)
(0 6.47294e-05 0)
(0 4.49172e-05 0)
(0 1.37514e-06 0)
(0 0 0)
(0 2.68864e-05 0)
(0 1.70979e-05 0)
(0 0 0)
(0 0 0)
(0 0 0)
(0 6.18413e-06 0)
(0 0 0)
(0 0 0)
(0 0 0)
(0 0 0)
(0 0 0)
(0 0 0)
(0 0 0)
(0 0 0)
(0 0 0)
(0 0 0)
(0 0 0)
(0 0 0)
(0 0 0)
(0 0 0)
(0 0 0)
(0 0 0)
(0 0 0)
(0 0 0)
(0 0 0)
(0 0 0)
(0 0 0)
(0 0 0)
(0 0 0)
(0 0 0)
(0 0 0)
(0 0 0)
(0 0 0)
(0 0 0)
(0 0 0)
(0 0 0)
(0 0 0)
(0 0 0)
(0 0 0)
(0 0 0)
(0 0 0)
(0 0 0)
(0 0 0)
(0 0 0)
(0 0 0)
(0 0 0)
(0 1.23582e-07 0)
(0 0 0)
(0 0 0)
(0 4.75585e-07 0)
(0 2.82966e-07 0)
(0 0 0)
(0 1.23582e-07 0)
(0 2.82966e-07 0)
(0 0 0)
(0 0 0)
(0 0 0)
(0 0 0)
(0 0 0)
(0 0 0)
(0 0 0)
(0 0 0)
(0 0 0)
(0 0 0)
(0 0 0)
(0 0 0)
(0 0 0)
(0 0 0)
(0 0 0)
(0 0 0)
(0 0 0)
(0 0 0)
(0 0 0)
(0 0 0)
(0 0 0)
(0 0 0)
(0 0 0)
(0 0 0)
(0 0 0)
(0 0 0)
(0 0 0)
(0 0 0)
(0 0 0)
(0 0 0)
(0 0 0)
(0 0 0)
(0 0 0)
(0 0 0)
(0 0 0)
(0 0 0)
(0 0 0)
(0 0 0)
(0 0 0)
(0 0 0)
(0 0 0)
(0 0 0)
(0 0 0)
(0 0 0)
(0 0 0)
(0 0 0)
(0 0 0)
(0 0 0)
(0 0 0)
(0 0 0)
(0 0 0)
(0 0 0)
(0 0 0)
(0 0 0)
(0 0 0)
(0 0 0)
(0 0 0)
(0 0 0)
(0 0 0)
(0 0 0)
(0 0 0)
(0 0 0)
(0 0 0)
(0 0 0)
(0 0 0)
(0 0 0)
(0 0 0)
(0 0 0)
(0 0 0)
(0 0 0)
(0 0 0)
(0 0 0)
(0 0 0)
(0 0 0)
(0 0 0)
(0 0 0)
(0 0 0)
(0 0 0)
(0 0 0)
(0 0 0)
(0 0 0)
(0 0 0)
(0 0 0)
(0 0 0)
(0 0 0)
(0 0 0)
(0 0 0)
(0 0 0)
(0 0 0)
(0 0 0)
(0 0 0)
(0 0 0)
(0 0 0)
(0 0 0)
(0 0 0)
(0 0 0)
(0 0 0)
(0 0 0)
(0 0 0)
(0 0 0)
(0 0 0)
(0 0 0)
(0 0 0)
(0 0 0)
(0 0 0)
(0 0 0)
(0 0 0)
(0 0 0)
(0 0 0)
(0 0 0)
(0 0 0)
(0 0 0)
(0 0 0)
(0 0 0)
(0 0 0)
(0 0 0)
(0 0 0)
(0 0 0)
(0 0 0)
(0 0 0)
(0 0 0)
(0 0 0)
(0 0 0)
(0 0 0)
(0 0 0)
(0 0 0)
(0 0 0)
(0 0 0)
(0 0 0)
(0 0 0)
(0 0 0)
(0 0 0)
(0 0 0)
(0 0 0)
(0 0 0)
(0 0 0)
(0 0 0)
(0 0 0)
(0 0 0)
(0 0 0)
(0 0 0)
(0 0 0)
(0 0 0)
(0 0 0)
(0 0 0)
(0 0 0)
(0 0 0)
(0 0 0)
(0 0 0)
(0 0 0)
(0 0 0)
(0 0 0)
(0 0 0)
(0 0 0)
(0 0 0)
(0 0 0)
(0 0 0)
(0 0 0)
(0 0 0)
(0 0 0)
(0 0 0)
(0 0 0)
(0 0 0)
(0 0 0)
(0 0 0)
(0 0 0)
(0 0 0)
(0 0 0)
(0 0 0)
(0 0 0)
(0 0 0)
(0 0 0)
(0 0 0)
(0 0 0)
(0 0 0)
(0 0 0)
(0 0 0)
(0 0 0)
(0 0 0)
(0 0 0)
(0 0 0)
(0 0 0)
(0 0 0)
(0 0 0)
(0 0 0)
(0 0 0)
(0 0 0)
(0 0 0)
(0 0 0)
(0 0 0)
(0 0 0)
(0 0 0)
(0 0 0)
(0 0 0)
(0 0 0)
(0 0 0)
(0 0 0)
(0 0 0)
(0 0 0)
(0 0 0)
(0 0 0)
(0 0 0)
(0 0 0)
(0 0 0)
(0 0 0)
(0 0 0)
(0 0 0)
(0 0 0)
(0 0 0)
(0 0 0)
(0 0 0)
(0 0 0)
(0 0 0)
(0 0 0)
(0 0 0)
(0 0 0)
(0 0 0)
(0 0 0)
(0 0 0)
(0 0 0)
(0 0 0)
(0 0 0)
(0 0 0)
(0 0 0)
(0 0 0)
(0 0 0)
(0 0 0)
(0 0 0)
(0 0 0)
(0 0 0)
(0 0 0)
(0 0 0)
(0 0 0)
(0 0 0)
(0 0 0)
(0 0 0)
(0 0 0)
(0 0 0)
(0 0 0)
(0 0 0)
(0 0 0)
(0 0 0)
(0 0 0)
(0 0 0)
(0 0 0)
(0 0 0)
(0 0 0)
(0 0 0)
(0 0 0)
(0 0 0)
(0 0 0)
(0 0 0)
(0 0 0)
(0 0 0)
(0 0 0)
(0 0 0)
(0 0 0)
(0 0 0)
(0 0 0)
(0 0 0)
(0 0 0)
(0 0 0)
(0 0 0)
(0 0 0)
(0 0 0)
(0 0 0)
(0 0 0)
(0 0 0)
(0 0 0)
(0 0 0)
(0 0 0)
(0 0 0)
(0 0 0)
(0 0 0)
(0 0 0)
(0 0 0)
(0 0 0)
(0 0 0)
(0 0 0)
(0 0 0)
(0 0 0)
(0 0 0)
(0 0 0)
(0 0 0)
(0 0 0)
(0 0 0)
(0 0 0)
(0 0 0)
(0 0 0)
(0 0 0)
(0 0 0)
(0 0 0)
(0 0 0)
(0 0 0)
(0 0 0)
(0 0 0)
(0 0 0)
(0 0 0)
(0 0 0)
(0 0 0)
(0 0 0)
(0 0 0)
(0 0 0)
(0 0 0)
(0 0 0)
(0 0 0)
(0 0 0)
(0 0 0)
(0 0 0)
(0 0 0)
(0 0 0)
(0 0 0)
(0 0 0)
(0 0 0)
(0 0 0)
(0 0 0)
(0 0 0)
(0 0 0)
(0 0 0)
(0 0 0)
(0 0 0)
(0 0 0)
(0 0 0)
(0 0 0)
(0 0 0)
(0 0 0)
(0 0 0)
(0 0 0)
(0 0 0)
(0 0 0)
(0 0 0)
(0 0 0)
(0 0 0)
(0 0 0)
(0 0 0)
(0 0 0)
(0 0 0)
(0 0 0)
(0 0 0)
(0 0 0)
(0 0 0)
(0 0 0)
(0 0 0)
(0 0 0)
(0 0 0)
(0 0 0)
(0 0 0)
(0 0 0)
(0 0 0)
(0 0 0)
(0 0 0)
(0 0 0)
(0 0 0)
(0 0 0)
(0 0 0)
(0 0 0)
(0 0 0)
(0 0 0)
(0 0 0)
(0 0 0)
(0 0 0)
(0 0 0)
(0 0 0)
(0 0 0)
(0 0 0)
(0 0 0)
(0 0 0)
(0 0 0)
(0 0 0)
(0 0 0)
(0 0 0)
(0 0 0)
(0 0 0)
(0 0 0)
(0 0 0)
(0 0 0)
(0 0 0)
(0 0 0)
(0 0 0)
(0 0 0)
(0 0 0)
(0 0 0)
(0 0 0)
(0 0 0)
(0 0 0)
(0 0 0)
(0 0 0)
(0 0 0)
(0 0 0)
(0 0 0)
(0 0 0)
(0 0 0)
(0 0 0)
(0 0 0)
(0 0 0)
(0 0 0)
(0 0 0)
(0 0 0)
(0 0 0)
(0 0 0)
(0 0 0)
(0 0 0)
(0 0 0)
(0 0 0)
(0 0 0)
(0 0 0)
(0 0 0)
(0 0 0)
(0 0 0)
(0 0 0)
(0 0 0)
(0 0 0)
(0 0 0)
(0 0 0)
(0 0 0)
(0 0 0)
(0 0 0)
(0 0 0)
(0 0 0)
(0 0 0)
(0 0 0)
(0 0 0)
(0 0 0)
(0 0 0)
(0 0 0)
(0 0 0)
(0 0 0)
(0 0 0)
(0 0 0)
(0 0 0)
(0 0 0)
(0 0 0)
(0 0 0)
(0 0 0)
(0 0 0)
(0 0 0)
(0 0 0)
(0 0 0)
(0 0 0)
(0 0 0)
(0 0 0)
(0 0 0)
(0 0 0)
(0 0 0)
(0 0 0)
(0 0 0)
(0 0 0)
(0 0 0)
(0 0 0)
(0 0 0)
(0 0 0)
(0 0 0)
(0 0 0)
(0 0 0)
(0 0 0)
(0 0 0)
(0 0 0)
(0 0 0)
(0 0 0)
(0 0 0)
(0 0 0)
(0 0 0)
(0 0 0)
(0 0 0)
(0 0 0)
(0 0 0)
(0 0 0)
(0 0 0)
(0 0 0)
(0 0 0)
(0 0 0)
(0 0 0)
(0 0 0)
(0 0 0)
(0 0 0)
(0 0 0)
(0 0 0)
(0 0 0)
(0 0 0)
(0 0 0)
(0 0 0)
(0 0 0)
(0 0 0)
(0 0 0)
(0 0 0)
(0 0 0)
(0 0 0)
(0 0 0)
(0 0 0)
(0 0 0)
(0 0 0)
(0 0 0)
(0 0 0)
(0 0 0)
(0 0 0)
(0 0 0)
(0 0 0)
(0 0 0)
(0 0 0)
(0 0 0)
(0 0 0)
(0 0 0)
(0 0 0)
(0 0 0)
(0 0 0)
(0 0 0)
(0 0 0)
(0 0 0)
(0 0 0)
(0 0 0)
(0 0 0)
(0 0 0)
(0 0 0)
(0 0 0)
(0 0 0)
(0 0 0)
(0 0 0)
(0 0 0)
(0 0 0)
(0 0 0)
(0 0 0)
(0 0 0)
(0 0 0)
(0 0 0)
(0 0 0)
(0 0 0)
(0 0 0)
(0 0 0)
(0 0 0)
(0 0 0)
(0 0 0)
(0 0 0)
(0 0 0)
(0 0 0)
(0 0 0)
(0 0 0)
(0 0 0)
(0 0 0)
(0 0 0)
(0 0 0)
(0 0 0)
(0 0 0)
(0 0 0)
(0 0 0)
(0 0 0)
(0 0 0)
(0 0 0)
(0 0 0)
(0 0 0)
(0 0 0)
(0 0 0)
(0 0 0)
(0 0 0)
(0 0 0)
(0 0 0)
(0 0 0)
(0 0 0)
(0 0 0)
(0 0 0)
(0 0 0)
(0 0 0)
(0 0 0)
(0 0 0)
(0 0 0)
(0 0 0)
(0 0 0)
(0 0 0)
(0 0 0)
(0 0 0)
(0 0 0)
(0 0 0)
(0 0 0)
(0 0 0)
(0 0 0)
(0 0 0)
(0 0 0)
(0 0 0)
(0 0 0)
(0 0 0)
(0 0 0)
(0 0 0)
(0 0 0)
(0 0 0)
(0 0 0)
(0 0 0)
(0 0 0)
(0 0 0)
(0 0 0)
(0 0 0)
(0 0 0)
(0 0 0)
(0 0 0)
(0 0 0)
(0 0 0)
(0 0 0)
(0 0 0)
(0 0 0)
(0 0 0)
(0 0 0)
(0 0 0)
(0 0 0)
(0 0 0)
(0 0 0)
(0 0 0)
(0 0 0)
(0 0 0)
(0 0 0)
(0 0 0)
(0 0 0)
(0 0 0)
(0 0 0)
(0 0 0)
(0 0 0)
(0 0 0)
(0 0 0)
(0 0 0)
(0 0 0)
(0 0 0)
(0 0 0)
(0 0 0)
(0 0 0)
(0 0 0)
(0 0 0)
(0 0 0)
(0 0 0)
(0 0 0)
(0 0 0)
(0 0 0)
(0 0 0)
(0 0 0)
(0 0 0)
(0 0 0)
(0 0 0)
(0 0 0)
(0 0 0)
(0 0 0)
(0 0 0)
(0 0 0)
(0 0 0)
(0 0 0)
(0 0 0)
(0 0 0)
(0 0 0)
(0 0 0)
(0 0 0)
(0 0 0)
(0 0 0)
(0 0 0)
(0 0 0)
(0 0 0)
(0 0 0)
(0 0 0)
(0 0 0)
(0 0 0)
(0 0 0)
(0 0 0)
(0 0 0)
(0 0 0)
(0 0 0)
(0 0 0)
(0 0 0)
(0 0 0)
(0 0 0)
(0 0 0)
(0 0 0)
(0 0 0)
(0 0 0)
(0 0 0)
(0 0 0)
(0 0 0)
(0 0 0)
(0 0 0)
(0 0 0)
(0 0 0)
(0 0 0)
(0 0 0)
(0 0 0)
(0 0 0)
(0 0 0)
(0 0 0)
(0 0 0)
(0 0 0)
(0 0 0)
(0 0 0)
(0 0 0)
(0 0 0)
(0 0 0)
(0 0 0)
(0 0 0)
(0 0 0)
(0 0 0)
(0 0 0)
(0 0 0)
(0 0 0)
(0 0 0)
(0 0 0)
(0 0 0)
(0 0 0)
(0 0 0)
(0 0 0)
(0 0 0)
(0 0 0)
(0 0 0)
(0 0 0)
(0 0 0)
(0 0 0)
(0 0 0)
(0 0 0)
(0 0 0)
(0 0 0)
(0 0 0)
(0 0 0)
(0 0 0)
(0 0 0)
(0 0 0)
(0 0 0)
(0 0 0)
(0 0 0)
(0 0 0)
(0 0 0)
(0 0 0)
(0 0 0)
(0 0 0)
(0 0 0)
(0 0 0)
(0 0 0)
(0 0 0)
(0 0 0)
(0 0 0)
(0 0 0)
(0 0 0)
(0 0 0)
(0 0 0)
(0 0 0)
(0 0 0)
(0 0 0)
(0 0 0)
(0 0 0)
(0 0 0)
(0 0 0)
(0 0 0)
(0 0 0)
(0 0 0)
(0 0 0)
(0 0 0)
(0 0 0)
(0 0 0)
(0 0 0)
(0 0 0)
(0 0 0)
(0 0 0)
(0 0 0)
(0 0 0)
(0 0 0)
(0 0 0)
(0 0 0)
(0 0 0)
(0 0 0)
(0 0 0)
(0 0 0)
(0 0 0)
(0 0 0)
(0 0 0)
(0 0 0)
(0 0 0)
(0 0 0)
(0 0 0)
(0 0 0)
(0 0 0)
(0 0 0)
(0 0 0)
(0 0 0)
(0 0 0)
(0 0 0)
(0 0 0)
(0 0 0)
(0 0 0)
(0 0 0)
(0 0 0)
(0 0 0)
(0 0 0)
(0 0 0)
(0 0 0)
(0 0 0)
(0 0 0)
(0 0 0)
(0 0 0)
(0 0 0)
(0 0 0)
(0 0 0)
(0 0 0)
(0 0 0)
(0 0 0)
(0 0 0)
(0 0 0)
(0 0 0)
(0 0 0)
(0 0 0)
(0 0 0)
(0 0 0)
(0 0 0)
(0 0 0)
(0 0 0)
(0 0 0)
(0 0 0)
(0 0 0)
(0 0 0)
(0 0 0)
(0 0 0)
(0 0 0)
(0 0 0)
(0 0 0)
(0 0 0)
(0 0 0)
(0 0 0)
(0 0 0)
(0 0 0)
(0 0 0)
(0 0 0)
(0 0 0)