/*--------------------------------*- C++ -*----------------------------------*\
| =========                 |                                                 |
| \\      /  F ield         | OpenFOAM: The Open Source CFD Toolbox           |
|  \\    /   O peration     | Version:  v2106                                 |
|   \\  /    A nd           | Website:  www.openfoam.com                      |
|    \\/     M anipulation  |                                                 |
\*---------------------------------------------------------------------------*/
FoamFile
{
    version     2.0;
    format      ascii;
    arch        "LSB;label=32;scalar=64";
    class       pointVectorField;
    location    "0";
    object      pointDisplacement;
}
// * * * * * * * * * * * * * * * * * * * * * * * * * * * * * * * * * * * * * //

dimensions      [0 1 0 0 0 0 0];

internalField   nonuniform List<vector> 
24440
(
(0 0 0)
(0 0 0)
(0 0 0)
(0 0 0)
(0 0 0)
(0 0 0)
(0 0 0)
(0 0 0)
(0 0 0)
(0 0 0)
(0 0 0)
(0 0 0)
(0 0 0)
(0 0 0)
(0 0 0)
(0 0 0)
(0 0 0)
(0 0 0)
(0 0 0)
(0 0 0)
(0 0 0)
(0 0 0)
(0 0 0)
(0 0 0)
(0 0 0)
(0 0 0)
(0 0 0)
(0 0 0)
(0 0 0)
(0 0 0)
(0 0 0)
(0 0 0)
(0 0 0)
(0 0 0)
(0 0 0)
(0 0 0)
(0 0 0)
(0 0 0)
(0 0 0)
(0 0 0)
(0 0 0)
(0 0 0)
(0 0 0)
(0 0 0)
(0 0 0)
(0 0 0)
(0 0 0)
(0 0 0)
(0 0 0)
(0 0 0)
(0 0 0)
(0 0 0)
(0 0 0)
(0 0 0)
(0 0 0)
(0 0 0)
(0 0 0)
(0 0 0)
(0 0 0)
(0 0 0)
(0 0 0)
(0 0 0)
(0 0 0)
(0 0 0)
(0 0 0)
(0 0 0)
(0 0 0)
(0 0 0)
(0 0 0)
(0 0 0)
(0 0 0)
(0 0 0)
(0 0 0)
(0 0 0)
(0 0 0)
(0 0 0)
(0 0 0)
(0 0 0)
(0 0 0)
(0 0 0)
(0 0 0)
(0 0 0)
(0 0 0)
(0 0 0)
(0 0 0)
(0 0 0)
(0 0 0)
(0 0 0)
(0 0 0)
(0 0 0)
(0 0 0)
(0 0 0)
(0 0 0)
(0 0 0)
(0 0 0)
(0 0 0)
(0 0 0)
(0 0 0)
(0 3.22697e-06 0)
(0 2.03494e-05 0)
(0 5.59566e-05 0)
(0 8.62264e-05 0)
(0 9.78431e-05 0)
(0 8.62264e-05 0)
(0 5.59566e-05 0)
(0 2.03494e-05 0)
(0 3.22697e-06 0)
(0 0 0)
(0 0 0)
(0 0 0)
(0 0 0)
(0 0 0)
(0 0 0)
(0 0 0)
(0 0 0)
(0 0 0)
(0 0 0)
(0 0 0)
(0 0 0)
(0 0 0)
(0 0 0)
(0 0 0)
(0 0 0)
(0 0 0)
(0 0 0)
(0 0 0)
(0 0 0)
(0 0 0)
(0 0 0)
(0 0 0)
(0 0 0)
(0 0 0)
(0 0 0)
(0 0 0)
(0 0 0)
(0 0 0)
(0 5.4043e-06 0)
(0 7.14898e-05 0)
(0 0.000210389 0)
(0 0.000379003 0)
(0 0.000540611 0)
(0 0.000653276 0)
(0 0.000758009 0)
(0 0.00079486 0)
(0 0.000758009 0)
(0 0.000653276 0)
(0 0.000540611 0)
(0 0.000379003 0)
(0 0.000210389 0)
(0 7.14898e-05 0)
(0 5.4043e-06 0)
(0 0 0)
(0 0 0)
(0 0 0)
(0 0 0)
(0 0 0)
(0 0 0)
(0 0 0)
(0 0 0)
(0 0 0)
(0 0 0)
(0 0 0)
(0 0 0)
(0 0 0)
(0 0 0)
(0 0 0)
(0 0 0)
(0 0 0)
(0 0 0)
(0 0 0)
(0 0 0)
(0 0 0)
(0 0 0)
(0 0 0)
(0 0 0)
(0 2.26903e-06 0)
(0 9.40159e-05 0)
(0 0.000320624 0)
(0 0.000632266 0)
(0 0.000953256 0)
(0 0.00131136 0)
(0 0.00162151 0)
(0 0.0018136 0)
(0 0.00199727 0)
(0 0.00206075 0)
(0 0.00199727 0)
(0 0.0018136 0)
(0 0.00162151 0)
(0 0.00131136 0)
(0 0.000953256 0)
(0 0.000632266 0)
(0 0.000320624 0)
(0 9.40159e-05 0)
(0 2.26903e-06 0)
(0 0 0)
(0 0 0)
(0 0 0)
(0 0 0)
(0 0 0)
(0 0 0)
(0 0 0)
(0 0 0)
(0 0 0)
(0 0 0)
(0 0 0)
(0 0 0)
(0 0 0)
(0 0 0)
(0 0 0)
(0 0 0)
(0 0 0)
(0 0 0)
(0 0 0)
(0 0 0)
(0 0 0)
(0 2.14548e-05 0)
(0 0.000223118 0)
(0 0.000592948 0)
(0 0.00104034 0)
(0 0.00159581 0)
(0 0.00215607 0)
(0 0.00264142 0)
(0 0.00309607 0)
(0 0.00341871 0)
(0 0.00361147 0)
(0 0.00369995 0)
(0 0.00361147 0)
(0 0.00341871 0)
(0 0.00309607 0)
(0 0.00264142 0)
(0 0.00215607 0)
(0 0.00159581 0)
(0 0.00104034 0)
(0 0.000592948 0)
(0 0.000223118 0)
(0 2.27135e-05 0)
(0 0 0)
(0 0 0)
(0 0 0)
(0 0 0)
(0 0 0)
(0 0 0)
(0 0 0)
(0 0 0)
(0 0 0)
(0 0 0)
(0 0 0)
(0 0 0)
(0 0 0)
(0 0 0)
(0 0 0)
(0 0 0)
(0 0 0)
(0 0 0)
(0 0 0)
(0 4.21968e-05 0)
(0 0.000295884 0)
(0 0.000738489 0)
(0 0.00135575 0)
(0 0.00208935 0)
(0 0.00285166 0)
(0 0.00355122 0)
(0 0.00421442 0)
(0 0.00446362 0)
(0 0.00473311 0)
(0 0.00495853 0)
(0 0.00513614 0)
(0 0.00526314 0)
(0 0.00535097 0)
(0 0.0054321 0)
(0 0.00545926 0)
(0 0.0054321 0)
(0 0.00535097 0)
(0 0.00526314 0)
(0 0.00513614 0)
(0 0.00495853 0)
(0 0.00473311 0)
(0 0.00446362 0)
(0 0.00421442 0)
(0 0.00355122 0)
(0 0.00285166 0)
(0 0.00208935 0)
(0 0.00135575 0)
(0 0.000723161 0)
(0 0.000267361 0)
(0 3.3718e-05 0)
(0 0 0)
(0 0 0)
(0 0 0)
(0 0 0)
(0 0 0)
(0 0 0)
(0 0 0)
(0 0 0)
(0 0 0)
(0 0 0)
(0 0 0)
(0 0 0)
(0 0 0)
(0 0 0)
(0 0 0)
(0 0 0)
(0 0 0)
(0 2.48195e-05 0)
(0 0.000284033 0)
(0 0.000791365 0)
(0 0.00148912 0)
(0 0.00230642 0)
(0 0.00326804 0)
(0 0.00372783 0)
(0 0.00413538 0)
(0 0.00458646 0)
(0 0.00500926 0)
(0 0.00539608 0)
(0 0.00572471 0)
(0 0.00498917 0)
(0 0.00529379 0)
(0 0.0055342 0)
(0 0.00577668 0)
(0 0.0059669 0)
(0 0.00610246 0)
(0 0.00618372 0)
(0 0.00626985 0)
(0 0.00629865 0)
(0 0.00626985 0)
(0 0.00618372 0)
(0 0.00610246 0)
(0 0.0059669 0)
(0 0.00577668 0)
(0 0.0055342 0)
(0 0.00529379 0)
(0 0.00498917 0)
(0 0.00572471 0)
(0 0.00539608 0)
(0 0.00500926 0)
(0 0.00458646 0)
(0 0.00413538 0)
(0 0.00372783 0)
(0 0.00326804 0)
(0 0.00230642 0)
(0 0.00148912 0)
(0 0.000762498 0)
(0 0.000271675 0)
(0 2.25397e-05 0)
(0 0 0)
(0 0 0)
(0 0 0)
(0 0 0)
(0 0 0)
(0 0 0)
(0 0 0)
(0 0 0)
(0 0 0)
(0 0 0)
(0 0 0)
(0 0 0)
(0 0 0)
(0 0 0)
(0 0 0)
(0 0 0)
(0 0.000157037 0)
(0 0.000641757 0)
(0 0.00137199 0)
(0 0.00228924 0)
(0 0.00331085 0)
(0 0.00434892 0)
(0 0.00382784 0)
(0 0.00432784 0)
(0 0.00480898 0)
(0 0.00526201 0)
(0 0.00566451 0)
(0 0.00607271 0)
(0 0.00643342 0)
(0 0.00673142 0)
(0 0.00604839 0)
(0 0.00632103 0)
(0 0.00701242 0)
(0 0.00721475 0)
(0 0.00653792 0)
(0 0.00673638 0)
(0 0.00741599 0)
(0 0.00755763 0)
(0 0.00687715 0)
(0 0.0069485 0)
(0 0.00763972 0)
(0 0.00770489 0)
(0 0.00703732 0)
(0 0.00706695 0)
(0 0.00773431 0)
(0 0.00770489 0)
(0 0.00703732 0)
(0 0.0069485 0)
(0 0.00763972 0)
(0 0.00755763 0)
(0 0.00687715 0)
(0 0.00673638 0)
(0 0.00741599 0)
(0 0.00721475 0)
(0 0.00653792 0)
(0 0.00632103 0)
(0 0.00701242 0)
(0 0.00673142 0)
(0 0.00604839 0)
(0 0.00643342 0)
(0 0.00607271 0)
(0 0.00566451 0)
(0 0.00526201 0)
(0 0.00480898 0)
(0 0.00432784 0)
(0 0.00382784 0)
(0 0.00434892 0)
(0 0.00331085 0)
(0 0.00226168 0)
(0 0.00136116 0)
(0 0.000641071 0)
(0 0.000170725 0)
(0 0 0)
(0 0 0)
(0 0 0)
(0 0 0)
(0 0 0)
(0 0 0)
(0 0 0)
(0 0 0)
(0 0 0)
(0 0 0)
(0 0 0)
(0 0 0)
(0 0 0)
(0 0 0)
(0 0 0)
(0 3.42575e-05 0)
(0 0.000351951 0)
(0 0.00101449 0)
(0 0.00190075 0)
(0 0.00295436 0)
(0 0.00416148 0)
(0 0.00532421 0)
(0 0.00487171 0)
(0 0.00539845 0)
(0 0.00484735 0)
(0 0.00538949 0)
(0 0.00589356 0)
(0 0.00639025 0)
(0 0.00586662 0)
(0 0.00630235 0)
(0 0.00683807 0)
(0 0.00704226 0)
(0 0.00723233 0)
(0 0.00697389 0)
(0 0.00667017 0)
(0 0.0070403 0)
(0 0.00730575 0)
(0 0.00746974 0)
(0 0.0072042 0)
(0 0.00760287 0)
(0 0.00785466 0)
(0 0.00797118 0)
(0 0.00772116 0)
(0 0.00798183 0)
(0 0.00822817 0)
(0 0.00828956 0)
(0 0.0080577 0)
(0 0.00819714 0)
(0 0.00842286 0)
(0 0.008455 0)
(0 0.00823449 0)
(0 0.00827463 0)
(0 0.00849037 0)
(0 0.00848387 0)
(0 0.00826772 0)
(0 0.00819714 0)
(0 0.00842286 0)
(0 0.0083924 0)
(0 0.00816511 0)
(0 0.00798183 0)
(0 0.00822817 0)
(0 0.00815765 0)
(0 0.00791192 0)
(0 0.00760287 0)
(0 0.00785466 0)
(0 0.0077518 0)
(0 0.0074693 0)
(0 0.0070403 0)
(0 0.00730575 0)
(0 0.00712688 0)
(0 0.00686212 0)
(0 0.00630235 0)
(0 0.00683807 0)
(0 0.00639025 0)
(0 0.00586662 0)
(0 0.00538949 0)
(0 0.00589356 0)
(0 0.00539845 0)
(0 0.00484735 0)
(0 0.00487171 0)
(0 0.00530022 0)
(0 0.0041586 0)
(0 0.00300198 0)
(0 0.00188479 0)
(0 0.00100462 0)
(0 0.000369591 0)
(0 3.91752e-05 0)
(0 0 0)
(0 0 0)
(0 0 0)
(0 0 0)
(0 0 0)
(0 0 0)
(0 0 0)
(0 0 0)
(0 0 0)
(0 0 0)
(0 0 0)
(0 0 0)
(0 0 0)
(0 0 0)
(0 0.000112083 0)
(0 0.000567257 0)
(0 0.0013328 0)
(0 0.0023419 0)
(0 0.00350807 0)
(0 0.00479074 0)
(0 0.00598785 0)
(0 0.00569248 0)
(0 0.00625582 0)
(0 0.00587243 0)
(0 0.00638427 0)
(0 0.00677827 0)
(0 0.00725011 0)
(0 0.00685052 0)
(0 0.00726352 0)
(0 0.00747746 0)
(0 0.00766147 0)
(0 0.0074772 0)
(0 0.00799708 0)
(0 0.00808559 0)
(0 0.00815701 0)
(0 0.0080693 0)
(0 0.0084657 0)
(0 0.0085365 0)
(0 0.00858245 0)
(0 0.00851311 0)
(0 0.00874311 0)
(0 0.0087947 0)
(0 0.00881811 0)
(0 0.00876614 0)
(0 0.00886468 0)
(0 0.00890252 0)
(0 0.00890792 0)
(0 0.00887118 0)
(0 0.00889577 0)
(0 0.00892626 0)
(0 0.00892575 0)
(0 0.00889504 0)
(0 0.00886468 0)
(0 0.00890252 0)
(0 0.00889505 0)
(0 0.00885583 0)
(0 0.00874311 0)
(0 0.0087947 0)
(0 0.00877507 0)
(0 0.0087154 0)
(0 0.0084657 0)
(0 0.0085365 0)
(0 0.00849649 0)
(0 0.00841412 0)
(0 0.00799708 0)
(0 0.00808559 0)
(0 0.00816658 0)
(0 0.00801246 0)
(0 0.00784012 0)
(0 0.00726352 0)
(0 0.00747746 0)
(0 0.0076633 0)
(0 0.00725011 0)
(0 0.00685052 0)
(0 0.00638427 0)
(0 0.00676279 0)
(0 0.00625179 0)
(0 0.00587243 0)
(0 0.00569929 0)
(0 0.00600559 0)
(0 0.0047787 0)
(0 0.00354302 0)
(0 0.00236646 0)
(0 0.00134824 0)
(0 0.000575351 0)
(0 0.000114848 0)
(0 0 0)
(0 0 0)
(0 0 0)
(0 0 0)
(0 0 0)
(0 0 0)
(0 0 0)
(0 0 0)
(0 0 0)
(0 0 0)
(0 0 0)
(0 0 0)
(0 0 0)
(0 0 0)
(0 0.000172828 0)
(0 0.00070469 0)
(0 0.00155075 0)
(0 0.00263957 0)
(0 0.00387944 0)
(0 0.00516618 0)
(0 0.00639209 0)
(0 0.00624021 0)
(0 0.00679909 0)
(0 0.00653963 0)
(0 0.00704558 0)
(0 0.00730824 0)
(0 0.00775769 0)
(0 0.00754061 0)
(0 0.00794975 0)
(0 0.00805082 0)
(0 0.0082269 0)
(0 0.00812817 0)
(0 0.00855215 0)
(0 0.00859884 0)
(0 0.00865153 0)
(0 0.0086063 0)
(0 0.0088771 0)
(0 0.00889963 0)
(0 0.00891846 0)
(0 0.00889857 0)
(0 0.00895491 0)
(0 0.00895491 0)
(0 0.00895491 0)
(0 0.00895491 0)
(0 0.00895491 0)
(0 0.00895491 0)
(0 0.00895491 0)
(0 0.00895491 0)
(0 0.00895491 0)
(0 0.00895491 0)
(0 0.00895491 0)
(0 0.00895491 0)
(0 0.00895491 0)
(0 0.00895491 0)
(0 0.00895491 0)
(0 0.00895491 0)
(0 0.00895491 0)
(0 0.00895491 0)
(0 0.00895491 0)
(0 0.00895491 0)
(0 0.0088771 0)
(0 0.00889963 0)
(0 0.00887481 0)
(0 0.00885128 0)
(0 0.00855215 0)
(0 0.00859884 0)
(0 0.00863874 0)
(0 0.00851694 0)
(0 0.00842968 0)
(0 0.00794514 0)
(0 0.00806256 0)
(0 0.00815223 0)
(0 0.00774693 0)
(0 0.00754732 0)
(0 0.00708573 0)
(0 0.00729916 0)
(0 0.00679187 0)
(0 0.00656853 0)
(0 0.00623491 0)
(0 0.00639527 0)
(0 0.00516406 0)
(0 0.00387327 0)
(0 0.0026311 0)
(0 0.00154192 0)
(0 0.000697384 0)
(0 0.000168679 0)
(0 0 0)
(0 0 0)
(0 0 0)
(0 0 0)
(0 0 0)
(0 0 0)
(0 0 0)
(0 0 0)
(0 0 0)
(0 0 0)
(0 0 0)
(0 0 0)
(0 0 0)
(0 0 0)
(0 0.000183237 0)
(0 0.000727217 0)
(0 0.00158626 0)
(0 0.00268819 0)
(0 0.00394041 0)
(0 0.00523771 0)
(0 0.0064711 0)
(0 0.00647337 0)
(0 0.00703282 0)
(0 0.00694991 0)
(0 0.00745529 0)
(0 0.0075383 0)
(0 0.00797916 0)
(0 0.00789797 0)
(0 0.00828329 0)
(0 0.00832052 0)
(0 0.00847501 0)
(0 0.00844144 0)
(0 0.00879015 0)
(0 0.00880451 0)
(0 0.00884264 0)
(0 0.00882938 0)
(0 0.00895491 0)
(0 0.00895491 0)
(0 0.00895491 0)
(0 0.00895491 0)
(0 0.00895491 0)
(0 0.00895491 0)
(0 0.00895491 0)
(0 0.00895491 0)
(0 0.00895491 0)
(0 0.00895491 0)
(0 0.00895491 0)
(0 0.00895491 0)
(0 0.00895491 0)
(0 0.00895491 0)
(0 0.00895491 0)
(0 0.00895491 0)
(0 0.00895491 0)
(0 0.00895454 0)
(0 0.00895325 0)
(0 0.00879015 0)
(0 0.00880451 0)
(0 0.00881399 0)
(0 0.00872444 0)
(0 0.00869284 0)
(0 0.00828278 0)
(0 0.00832105 0)
(0 0.00834611 0)
(0 0.00797916 0)
(0 0.00790944 0)
(0 0.00746418 0)
(0 0.00751931 0)
(0 0.00701102 0)
(0 0.00695597 0)
(0 0.00644922 0)
(0 0.00645663 0)
(0 0.0052216 0)
(0 0.00392405 0)
(0 0.002673 0)
(0 0.00157356 0)
(0 0.000718103 0)
(0 0.000178515 0)
(0 0 0)
(0 0 0)
(0 0 0)
(0 0 0)
(0 0 0)
(0 0 0)
(0 0 0)
(0 0 0)
(0 0 0)
(0 0 0)
(0 0 0)
(0 0 0)
(0 0 0)
(0 0 0)
(0 0.000149747 0)
(0 0.000654456 0)
(0 0.00147237 0)
(0 0.00253373 0)
(0 0.00374867 0)
(0 0.00501505 0)
(0 0.00622741 0)
(0 0.0064024 0)
(0 0.00696092 0)
(0 0.00703099 0)
(0 0.00753696 0)
(0 0.00746681 0)
(0 0.00790974 0)
(0 0.00797832 0)
(0 0.00834577 0)
(0 0.00832611 0)
(0 0.00848056 0)
(0 0.00849929 0)
(0 0.00882969 0)
(0 0.00882502 0)
(0 0.00886077 0)
(0 0.008865 0)
(0 0.00895491 0)
(0 0.00895491 0)
(0 0.00895491 0)
(0 0.00895491 0)
(0 0.00895491 0)
(0 0.00895491 0)
(0 0.00895491 0)
(0 0.00895491 0)
(0 0.00895491 0)
(0 0.00895491 0)
(0 0.00895491 0)
(0 0.00895491 0)
(0 0.00895491 0)
(0 0.00895491 0)
(0 0.00895491 0)
(0 0.00895491 0)
(0 0.00882969 0)
(0 0.00882121 0)
(0 0.00881656 0)
(0 0.00872722 0)
(0 0.00873738 0)
(0 0.00833801 0)
(0 0.00832549 0)
(0 0.0082875 0)
(0 0.00791516 0)
(0 0.00796855 0)
(0 0.00752536 0)
(0 0.00747076 0)
(0 0.00696328 0)
(0 0.00701782 0)
(0 0.00640317 0)
(0 0.00624325 0)
(0 0.00502667 0)
(0 0.00375627 0)
(0 0.00253791 0)
(0 0.00147404 0)
(0 0.000654618 0)
(0 0.00014942 0)
(0 0 0)
(0 0 0)
(0 0 0)
(0 0 0)
(0 0 0)
(0 0 0)
(0 0 0)
(0 0 0)
(0 0 0)
(0 0 0)
(0 0 0)
(0 0 0)
(0 0 0)
(0 0 0)
(0 7.57398e-05 0)
(0 0.000475736 0)
(0 0.0011833 0)
(0 0.00213488 0)
(0 0.00331914 0)
(0 0.00453011 0)
(0 0.0057113 0)
(0 0.00602455 0)
(0 0.0065845 0)
(0 0.00678187 0)
(0 0.00731992 0)
(0 0.0070983 0)
(0 0.00755624 0)
(0 0.00777632 0)
(0 0.00816394 0)
(0 0.00807105 0)
(0 0.00823952 0)
(0 0.00832972 0)
(0 0.00870801 0)
(0 0.00868158 0)
(0 0.00872963 0)
(0 0.00875784 0)
(0 0.00894408 0)
(0 0.00893489 0)
(0 0.00894586 0)
(0 0.00895154 0)
(0 0.00895491 0)
(0 0.00895491 0)
(0 0.00895491 0)
(0 0.00895491 0)
(0 0.00895491 0)
(0 0.00895491 0)
(0 0.00895491 0)
(0 0.00895491 0)
(0 0.00894408 0)
(0 0.00893355 0)
(0 0.00891899 0)
(0 0.008932 0)
(0 0.00870801 0)
(0 0.00868158 0)
(0 0.00864565 0)
(0 0.00853177 0)
(0 0.0086021 0)
(0 0.00816394 0)
(0 0.00807105 0)
(0 0.00796555 0)
(0 0.00755624 0)
(0 0.00777632 0)
(0 0.00730627 0)
(0 0.0070983 0)
(0 0.0065845 0)
(0 0.00679967 0)
(0 0.00602455 0)
(0 0.0057113 0)
(0 0.00453011 0)
(0 0.00327636 0)
(0 0.00215586 0)
(0 0.00119706 0)
(0 0.000483269 0)
(0 7.82852e-05 0)
(0 0 0)
(0 0 0)
(0 0 0)
(0 0 0)
(0 0 0)
(0 0 0)
(0 0 0)
(0 0 0)
(0 0 0)
(0 0 0)
(0 0 0)
(0 0 0)
(0 0 0)
(0 0 0)
(0 9.37168e-06 0)
(0 0.000278196 0)
(0 0.000847139 0)
(0 0.00166582 0)
(0 0.00265939 0)
(0 0.00374067 0)
(0 0.0048753 0)
(0 0.00530551 0)
(0 0.00588243 0)
(0 0.00626072 0)
(0 0.00679514 0)
(0 0.00638752 0)
(0 0.00689335 0)
(0 0.00725989 0)
(0 0.00768691 0)
(0 0.00751569 0)
(0 0.0077043 0)
(0 0.00787408 0)
(0 0.00833236 0)
(0 0.00825611 0)
(0 0.00832545 0)
(0 0.00838879 0)
(0 0.00873738 0)
(0 0.00868723 0)
(0 0.00872384 0)
(0 0.00877204 0)
(0 0.00891849 0)
(0 0.00889044 0)
(0 0.00890276 0)
(0 0.00892838 0)
(0 0.00895491 0)
(0 0.00894993 0)
(0 0.00895187 0)
(0 0.00895491 0)
(0 0.00895491 0)
(0 0.00895491 0)
(0 0.00895491 0)
(0 0.00895491 0)
(0 0.00895491 0)
(0 0.00895491 0)
(0 0.00894993 0)
(0 0.00894719 0)
(0 0.0089546 0)
(0 0.00895483 0)
(0 0.00891849 0)
(0 0.00889044 0)
(0 0.00887523 0)
(0 0.00890577 0)
(0 0.00873738 0)
(0 0.00868723 0)
(0 0.00864644 0)
(0 0.00869842 0)
(0 0.0083385 0)
(0 0.0082685 0)
(0 0.00818438 0)
(0 0.00804529 0)
(0 0.00819652 0)
(0 0.0076658 0)
(0 0.00750697 0)
(0 0.00732145 0)
(0 0.00688388 0)
(0 0.00725989 0)
(0 0.00679514 0)
(0 0.00638752 0)
(0 0.00588243 0)
(0 0.00626072 0)
(0 0.00530551 0)
(0 0.0048753 0)
(0 0.00374067 0)
(0 0.00265939 0)
(0 0.00166582 0)
(0 0.000847139 0)
(0 0.000259501 0)
(0 1.12571e-05 0)
(0 0 0)
(0 0 0)
(0 0 0)
(0 0 0)
(0 0 0)
(0 0 0)
(0 0 0)
(0 0 0)
(0 0 0)
(0 0 0)
(0 0 0)
(0 0 0)
(0 0 0)
(0 0 0)
(0 0 0)
(0 8.55095e-05 0)
(0 0.000450603 0)
(0 0.00106017 0)
(0 0.00185062 0)
(0 0.00283825 0)
(0 0.00385939 0)
(0 0.0043411 0)
(0 0.00490953 0)
(0 0.00539561 0)
(0 0.00592259 0)
(0 0.00542126 0)
(0 0.00589972 0)
(0 0.00641789 0)
(0 0.00686636 0)
(0 0.0063365 0)
(0 0.00670215 0)
(0 0.00700575 0)
(0 0.00726095 0)
(0 0.00707075 0)
(0 0.00760029 0)
(0 0.00733497 0)
(0 0.00749897 0)
(0 0.00775035 0)
(0 0.00812599 0)
(0 0.00789851 0)
(0 0.00798949 0)
(0 0.00822529 0)
(0 0.00845886 0)
(0 0.00825727 0)
(0 0.00831649 0)
(0 0.00851472 0)
(0 0.0086315 0)
(0 0.00844548 0)
(0 0.0084783 0)
(0 0.00865437 0)
(0 0.00868497 0)
(0 0.00851318 0)
(0 0.0085043 0)
(0 0.00867795 0)
(0 0.0086315 0)
(0 0.00844548 0)
(0 0.0083989 0)
(0 0.00859562 0)
(0 0.00845886 0)
(0 0.00825727 0)
(0 0.00818326 0)
(0 0.00838843 0)
(0 0.00812599 0)
(0 0.00789851 0)
(0 0.00778088 0)
(0 0.00801086 0)
(0 0.00760029 0)
(0 0.00733497 0)
(0 0.00718096 0)
(0 0.00743638 0)
(0 0.00686636 0)
(0 0.0063365 0)
(0 0.00589972 0)
(0 0.00641789 0)
(0 0.00592259 0)
(0 0.00542126 0)
(0 0.00490953 0)
(0 0.00539561 0)
(0 0.0043411 0)
(0 0.00385939 0)
(0 0.00283825 0)
(0 0.00185062 0)
(0 0.00106017 0)
(0 0.000450603 0)
(0 8.55095e-05 0)
(0 0 0)
(0 0 0)
(0 0 0)
(0 0 0)
(0 0 0)
(0 0 0)
(0 0 0)
(0 0 0)
(0 0 0)
(0 0 0)
(0 0 0)
(0 0 0)
(0 0 0)
(0 0 0)
(0 0 0)
(0 0 0)
(0 0 0)
(0 0.000128859 0)
(0 0.000532091 0)
(0 0.00114065 0)
(0 0.00189539 0)
(0 0.00272207 0)
(0 0.00353813 0)
(0 0.00417141 0)
(0 0.00484481 0)
(0 0.00436166 0)
(0 0.00462461 0)
(0 0.00529958 0)
(0 0.0057007 0)
(0 0.00504926 0)
(0 0.00543765 0)
(0 0.00611007 0)
(0 0.00647166 0)
(0 0.00613706 0)
(0 0.00626621 0)
(0 0.00663294 0)
(0 0.00704444 0)
(0 0.00671545 0)
(0 0.00683753 0)
(0 0.00716747 0)
(0 0.00744783 0)
(0 0.00711694 0)
(0 0.00717149 0)
(0 0.0075115 0)
(0 0.00768973 0)
(0 0.00737197 0)
(0 0.00740908 0)
(0 0.00772653 0)
(0 0.0077698 0)
(0 0.00745405 0)
(0 0.00743877 0)
(0 0.00775593 0)
(0 0.00768973 0)
(0 0.00737197 0)
(0 0.00731999 0)
(0 0.00763807 0)
(0 0.00744783 0)
(0 0.00711694 0)
(0 0.00703844 0)
(0 0.00736925 0)
(0 0.00704444 0)
(0 0.00671545 0)
(0 0.0065793 0)
(0 0.00690691 0)
(0 0.00647166 0)
(0 0.00613706 0)
(0 0.00575033 0)
(0 0.00543765 0)
(0 0.00611007 0)
(0 0.0057007 0)
(0 0.00504926 0)
(0 0.00462461 0)
(0 0.00529958 0)
(0 0.00484481 0)
(0 0.00417141 0)
(0 0.00353813 0)
(0 0.00272207 0)
(0 0.00436166 0)
(0 0.00189539 0)
(0 0.00114065 0)
(0 0.000532091 0)
(0 0.000128859 0)
(0 0 0)
(0 0 0)
(0 0 0)
(0 0 0)
(0 0 0)
(0 0 0)
(0 0 0)
(0 0 0)
(0 0 0)
(0 0 0)
(0 0 0)
(0 0 0)
(0 0 0)
(0 0 0)
(0 0 0)
(0 0 0)
(0 0 0)
(0 0 0)
(0 1.6341e-06 0)
(0 0.000146388 0)
(0 0.000496062 0)
(0 0.000972105 0)
(0 0.00159113 0)
(0 0.00225131 0)
(0 0.00288961 0)
(0 0.00326224 0)
(0 0.00395389 0)
(0 0.00434602 0)
(0 0.00357634 0)
(0 0.00393072 0)
(0 0.00466912 0)
(0 0.00502339 0)
(0 0.0046427 0)
(0 0.00479853 0)
(0 0.00518538 0)
(0 0.00560298 0)
(0 0.00520127 0)
(0 0.00531212 0)
(0 0.00571762 0)
(0 0.00597736 0)
(0 0.0055751 0)
(0 0.00566466 0)
(0 0.00606953 0)
(0 0.00626264 0)
(0 0.00585262 0)
(0 0.00588771 0)
(0 0.00629864 0)
(0 0.00634607 0)
(0 0.00593517 0)
(0 0.00591586 0)
(0 0.0063275 0)
(0 0.00626264 0)
(0 0.00585262 0)
(0 0.00580364 0)
(0 0.00621236 0)
(0 0.00597736 0)
(0 0.0055751 0)
(0 0.00547256 0)
(0 0.00590755 0)
(0 0.00560298 0)
(0 0.00520127 0)
(0 0.00507839 0)
(0 0.00547575 0)
(0 0.00502339 0)
(0 0.0046427 0)
(0 0.00425514 0)
(0 0.00393072 0)
(0 0.00466912 0)
(0 0.00434602 0)
(0 0.00357634 0)
(0 0.00326224 0)
(0 0.00395389 0)
(0 0.00288961 0)
(0 0.00225131 0)
(0 0.00159113 0)
(0 0.000972105 0)
(0 0.000496062 0)
(0 0.000146388 0)
(0 1.6341e-06 0)
(0 0 0)
(0 0 0)
(0 0 0)
(0 0 0)
(0 0 0)
(0 0 0)
(0 0 0)
(0 0 0)
(0 0 0)
(0 0 0)
(0 0 0)
(0 0 0)
(0 0 0)
(0 0 0)
(0 0 0)
(0 0 0)
(0 0 0)
(0 0 0)
(0 0 0)
(0 0 0)
(0 7.68782e-05 0)
(0 0.000320195 0)
(0 0.000648652 0)
(0 0.00109221 0)
(0 0.00161499 0)
(0 0.00190434 0)
(0 0.00253753 0)
(0 0.00286983 0)
(0 0.0021879 0)
(0 0.00245853 0)
(0 0.00318426 0)
(0 0.00347394 0)
(0 0.0030878 0)
(0 0.003213 0)
(0 0.00360755 0)
(0 0.00395544 0)
(0 0.0035398 0)
(0 0.00359944 0)
(0 0.00400918 0)
(0 0.00431168 0)
(0 0.00388508 0)
(0 0.0039598 0)
(0 0.00439066 0)
(0 0.00455711 0)
(0 0.00411745 0)
(0 0.00414701 0)
(0 0.00458829 0)
(0 0.00463372 0)
(0 0.00419111 0)
(0 0.00417075 0)
(0 0.00461331 0)
(0 0.00455711 0)
(0 0.00411745 0)
(0 0.00407626 0)
(0 0.00451364 0)
(0 0.00431168 0)
(0 0.00388508 0)
(0 0.00379983 0)
(0 0.00422149 0)
(0 0.00395544 0)
(0 0.0035398 0)
(0 0.00343959 0)
(0 0.0038489 0)
(0 0.00347394 0)
(0 0.0030878 0)
(0 0.00270967 0)
(0 0.00245853 0)
(0 0.00318426 0)
(0 0.00286983 0)
(0 0.0021879 0)
(0 0.00190434 0)
(0 0.00253753 0)
(0 0.00161499 0)
(0 0.00109221 0)
(0 0.000648652 0)
(0 0.000320195 0)
(0 7.68782e-05 0)
(0 0 0)
(0 0 0)
(0 0 0)
(0 0 0)
(0 0 0)
(0 0 0)
(0 0 0)
(0 0 0)
(0 0 0)
(0 0 0)
(0 0 0)
(0 0 0)
(0 0 0)
(0 0 0)
(0 0 0)
(0 0 0)
(0 0 0)
(0 0 0)
(0 0 0)
(0 0 0)
(0 0 0)
(0 0 0)
(0 0 0)
(0 6.54678e-06 0)
(0 0.000111049 0)
(0 0.000309922 0)
(0 0.000650149 0)
(0 0.000827153 0)
(0 0.00132589 0)
(0 0.00155815 0)
(0 0.00100688 0)
(0 0.00118327 0)
(0 0.00178234 0)
(0 0.00199232 0)
(0 0.0016603 0)
(0 0.00174862 0)
(0 0.00209021 0)
(0 0.00232597 0)
(0 0.00196854 0)
(0 0.00205141 0)
(0 0.00241703 0)
(0 0.00264649 0)
(0 0.00226081 0)
(0 0.00231605 0)
(0 0.00270687 0)
(0 0.00283476 0)
(0 0.00243322 0)
(0 0.00245528 0)
(0 0.00285881 0)
(0 0.00289722 0)
(0 0.00249129 0)
(0 0.00247302 0)
(0 0.00287814 0)
(0 0.00283476 0)
(0 0.00243322 0)
(0 0.00240253 0)
(0 0.00280128 0)
(0 0.00264649 0)
(0 0.00226081 0)
(0 0.00219802 0)
(0 0.00257777 0)
(0 0.00232597 0)
(0 0.00196854 0)
(0 0.00188 0)
(0 0.00222852 0)
(0 0.00199232 0)
(0 0.0016603 0)
(0 0.00135061 0)
(0 0.00118327 0)
(0 0.00178234 0)
(0 0.00155815 0)
(0 0.00100688 0)
(0 0.000827153 0)
(0 0.00132589 0)
(0 0.000650149 0)
(0 0.000309922 0)
(0 0.000111049 0)
(0 6.54678e-06 0)
(0 0 0)
(0 0 0)
(0 0 0)
(0 0 0)
(0 0 0)
(0 0 0)
(0 0 0)
(0 0 0)
(0 0 0)
(0 0 0)
(0 0 0)
(0 0 0)
(0 0 0)
(0 0 0)
(0 0 0)
(0 0 0)
(0 0 0)
(0 0 0)
(0 0 0)
(0 0 0)
(0 0 0)
(0 0 0)
(0 0 0)
(0 0 0)
(0 0 0)
(0 0 0)
(0 1.18674e-06 0)
(0 8.91589e-05 0)
(0 0.000155299 0)
(0 0.000430627 0)
(0 0.000557935 0)
(0 0.000231568 0)
(0 0.000313131 0)
(0 0.000686373 0)
(0 0.00081078 0)
(0 0.000558108 0)
(0 0.000615242 0)
(0 0.000841415 0)
(0 0.00103312 0)
(0 0.000777506 0)
(0 0.000826761 0)
(0 0.00109079 0)
(0 0.00123826 0)
(0 0.000953493 0)
(0 0.000987429 0)
(0 0.00127755 0)
(0 0.0013614 0)
(0 0.00106006 0)
(0 0.00107383 0)
(0 0.00137726 0)
(0 0.00140484 0)
(0 0.00109828 0)
(0 0.00108492 0)
(0 0.00139002 0)
(0 0.0013614 0)
(0 0.00106006 0)
(0 0.00104095 0)
(0 0.00133937 0)
(0 0.00123826 0)
(0 0.000953493 0)
(0 0.000915164 0)
(0 0.00119379 0)
(0 0.00103312 0)
(0 0.000777506 0)
(0 0.000725493 0)
(0 0.000971973 0)
(0 0.00081078 0)
(0 0.000558108 0)
(0 0.000375304 0)
(0 0.000313131 0)
(0 0.000686373 0)
(0 0.000557935 0)
(0 0.000231568 0)
(0 0.000155299 0)
(0 0.000430627 0)
(0 8.91589e-05 0)
(0 1.18674e-06 0)
(0 0 0)
(0 0 0)
(0 0 0)
(0 0 0)
(0 0 0)
(0 0 0)
(0 0 0)
(0 0 0)
(0 0 0)
(0 0 0)
(0 0 0)
(0 0 0)
(0 0 0)
(0 0 0)
(0 0 0)
(0 0 0)
(0 0 0)
(0 0 0)
(0 0 0)
(0 0 0)
(0 0 0)
(0 0 0)
(0 0 0)
(0 0 0)
(0 0 0)
(0 0 0)
(0 0 0)
(0 0 0)
(0 0 0)
(0 0 0)
(0 0 0)
(0 4.35842e-05 0)
(0 1.57639e-05 0)
(0 0 0)
(0 6.8536e-05 0)
(0 0.000114498 0)
(0 3.50535e-06 0)
(0 1.53217e-05 0)
(0 0.000165001 0)
(0 0.000216175 0)
(0 3.23079e-05 0)
(0 5.14434e-05 0)
(0 0.00026453 0)
(0 0.000307032 0)
(0 7.00915e-05 0)
(0 8.60631e-05 0)
(0 0.000341174 0)
(0 0.000365028 0)
(0 9.767e-05 0)
(0 0.000103765 0)
(0 0.000377288 0)
(0 0.000387096 0)
(0 0.000108971 0)
(0 0.000103765 0)
(0 0.000377288 0)
(0 0.000365028 0)
(0 9.767e-05 0)
(0 8.60631e-05 0)
(0 0.000341174 0)
(0 0.000307032 0)
(0 7.00915e-05 0)
(0 5.14434e-05 0)
(0 0.00026453 0)
(0 0.000216175 0)
(0 3.23079e-05 0)
(0 1.53217e-05 0)
(0 0.000165001 0)
(0 0.000114498 0)
(0 3.50535e-06 0)
(0 0 0)
(0 6.8536e-05 0)
(0 4.35842e-05 0)
(0 0 0)
(0 0 0)
(0 0 0)
(0 1.57639e-05 0)
(0 0 0)
(0 0 0)
(0 0 0)
(0 0 0)
(0 0 0)
(0 0 0)
(0 0 0)
(0 0 0)
(0 0 0)
(0 0 0)
(0 0 0)
(0 0 0)
(0 0 0)
(0 0 0)
(0 0 0)
(0 0 0)
(0 0 0)
(0 0 0)
(0 0 0)
(0 0 0)
(0 0 0)
(0 0 0)
(0 0 0)
(0 0 0)
(0 0 0)
(0 0 0)
(0 0 0)
(0 0 0)
(0 0 0)
(0 0 0)
(0 0 0)
(0 0 0)
(0 0 0)
(0 0 0)
(0 0 0)
(0 0 0)
(0 0 0)
(0 0 0)
(0 0 0)
(0 0 0)
(0 3.15023e-07 0)
(0 0 0)
(0 0 0)
(0 1.21231e-06 0)
(0 7.21305e-07 0)
(0 0 0)
(0 3.15023e-07 0)
(0 7.21305e-07 0)
(0 0 0)
(0 0 0)
(0 0 0)
(0 0 0)
(0 0 0)
(0 0 0)
(0 0 0)
(0 0 0)
(0 0 0)
(0 0 0)
(0 0 0)
(0 0 0)
(0 0 0)
(0 0 0)
(0 0 0)
(0 0 0)
(0 0 0)
(0 0 0)
(0 0 0)
(0 0 0)
(0 0 0)
(0 0 0)
(0 0 0)
(0 0 0)
(0 0 0)
(0 0 0)
(0 0 0)
(0 0 0)
(0 0 0)
(0 0 0)
(0 0 0)
(0 0 0)
(0 0 0)
(0 0 0)
(0 0 0)
(0 0 0)
(0 0 0)
(0 0 0)
(0 0 0)
(0 0 0)
(0 0 0)
(0 0 0)
(0 0 0)
(0 0 0)
(0 0 0)
(0 0 0)
(0 0 0)
(0 0 0)
(0 0 0)
(0 0 0)
(0 0 0)
(0 0 0)
(0 0 0)
(0 0 0)
(0 0 0)
(0 0 0)
(0 0 0)
(0 0 0)
(0 0 0)
(0 0 0)
(0 0 0)
(0 0 0)
(0 0 0)
(0 0 0)
(0 0 0)
(0 0 0)
(0 0 0)
(0 0 0)
(0 0 0)
(0 0 0)
(0 0 0)
(0 0 0)
(0 0 0)
(0 0 0)
(0 0 0)
(0 0 0)
(0 0 0)
(0 0 0)
(0 0 0)
(0 0 0)
(0 0 0)
(0 0 0)
(0 0 0)
(0 0 0)
(0 0 0)
(0 0 0)
(0 0 0)
(0 0 0)
(0 0 0)
(0 0 0)
(0 0 0)
(0 0 0)
(0 0 0)
(0 0 0)
(0 0 0)
(0 0 0)
(0 0 0)
(0 0 0)
(0 0 0)
(0 0 0)
(0 0 0)
(0 0 0)
(0 0 0)
(0 0 0)
(0 0 0)
(0 0 0)
(0 0 0)
(0 0 0)
(0 0 0)
(0 0 0)
(0 0 0)
(0 0 0)
(0 0 0)
(0 0 0)
(0 0 0)
(0 0 0)
(0 0 0)
(0 0 0)
(0 0 0)
(0 0 0)
(0 0 0)
(0 0 0)
(0 0 0)
(0 0 0)
(0 0 0)
(0 0 0)
(0 0 0)
(0 0 0)
(0 0 0)
(0 0 0)
(0 0 0)
(0 0 0)
(0 0 0)
(0 0 0)
(0 0 0)
(0 0 0)
(0 0 0)
(0 0 0)
(0 0 0)
(0 0 0)
(0 0 0)
(0 0 0)
(0 0 0)
(0 0 0)
(0 0 0)
(0 0 0)
(0 0 0)
(0 0 0)
(0 0 0)
(0 0 0)
(0 0 0)
(0 0 0)
(0 0 0)
(0 0 0)
(0 0 0)
(0 0 0)
(0 0 0)
(0 0 0)
(0 0 0)
(0 0 0)
(0 0 0)
(0 0 0)
(0 0 0)
(0 0 0)
(0 0 0)
(0 0 0)
(0 0 0)
(0 0 0)
(0 0 0)
(0 0 0)
(0 0 0)
(0 0 0)
(0 0 0)
(0 0 0)
(0 0 0)
(0 0 0)
(0 0 0)
(0 0 0)
(0 0 0)
(0 0 0)
(0 0 0)
(0 0 0)
(0 0 0)
(0 0 0)
(0 0 0)
(0 0 0)
(0 0 0)
(0 0 0)
(0 0 0)
(0 0 0)
(0 0 0)
(0 0 0)
(0 0 0)
(0 0 0)
(0 0 0)
(0 0 0)
(0 0 0)
(0 0 0)
(0 0 0)
(0 0 0)
(0 0 0)
(0 0 0)
(0 0 0)
(0 0 0)
(0 0 0)
(0 0 0)
(0 0 0)
(0 0 0)
(0 0 0)
(0 0 0)
(0 0 0)
(0 0 0)
(0 0 0)
(0 0 0)
(0 0 0)
(0 0 0)
(0 0 0)
(0 0 0)
(0 0 0)
(0 0 0)
(0 0 0)
(0 0 0)
(0 0 0)
(0 0 0)
(0 0 0)
(0 0 0)
(0 0 0)
(0 0 0)
(0 0 0)
(0 0 0)
(0 0 0)
(0 0 0)
(0 0 0)
(0 0 0)
(0 0 0)
(0 0 0)
(0 0 0)
(0 0 0)
(0 0 0)
(0 0 0)
(0 0 0)
(0 0 0)
(0 0 0)
(0 0 0)
(0 0 0)
(0 0 0)
(0 0 0)
(0 0 0)
(0 0 0)
(0 0 0)
(0 0 0)
(0 0 0)
(0 0 0)
(0 0 0)
(0 0 0)
(0 0 0)
(0 0 0)
(0 0 0)
(0 0 0)
(0 0 0)
(0 0 0)
(0 0 0)
(0 0 0)
(0 0 0)
(0 0 0)
(0 0 0)
(0 0 0)
(0 0 0)
(0 0 0)
(0 0 0)
(0 0 0)
(0 0 0)
(0 0 0)
(0 0 0)
(0 0 0)
(0 0 0)
(0 0 0)
(0 0 0)
(0 0 0)
(0 0 0)
(0 0 0)
(0 0 0)
(0 0 0)
(0 0 0)
(0 0 0)
(0 0 0)
(0 0 0)
(0 0 0)
(0 0 0)
(0 0 0)
(0 0 0)
(0 0 0)
(0 0 0)
(0 0 0)
(0 0 0)
(0 0 0)
(0 0 0)
(0 0 0)
(0 0 0)
(0 0 0)
(0 0 0)
(0 0 0)
(0 0 0)
(0 0 0)
(0 0 0)
(0 0 0)
(0 0 0)
(0 0 0)
(0 0 0)
(0 0 0)
(0 0 0)
(0 0 0)
(0 0 0)
(0 0 0)
(0 0 0)
(0 0 0)
(0 0 0)
(0 0 0)
(0 0 0)
(0 0 0)
(0 0 0)
(0 0 0)
(0 0 0)
(0 0 0)
(0 0 0)
(0 0 0)
(0 0 0)
(0 0 0)
(0 0 0)
(0 0 0)
(0 0 0)
(0 0 0)
(0 0 0)
(0 0 0)
(0 0 0)
(0 0 0)
(0 0 0)
(0 0 0)
(0 0 0)
(0 0 0)
(0 0 0)
(0 0 0)
(0 0 0)
(0 0 0)
(0 0 0)
(0 0 0)
(0 0 0)
(0 0 0)
(0 0 0)
(0 0 0)
(0 0 0)
(0 0 0)
(0 0 0)
(0 0 0)
(0 0 0)
(0 0 0)
(0 0 0)
(0 0 0)
(0 0 0)
(0 0 0)
(0 0 0)
(0 0 0)
(0 0 0)
(0 0 0)
(0 0 0)
(0 0 0)
(0 0 0)
(0 0 0)
(0 0 0)
(0 0 0)
(0 0 0)
(0 0 0)
(0 0 0)
(0 0 0)
(0 0 0)
(0 0 0)
(0 0 0)
(0 0 0)
(0 0 0)
(0 0 0)
(0 0 0)
(0 0 0)
(0 0 0)
(0 0 0)
(0 0 0)
(0 0 0)
(0 0 0)
(0 0 0)
(0 0 0)
(0 0 0)
(0 0 0)
(0 0 0)
(0 0 0)
(0 0 0)
(0 0 0)
(0 0 0)
(0 0 0)
(0 0 0)
(0 0 0)
(0 0 0)
(0 0 0)
(0 0 0)
(0 0 0)
(0 0 0)
(0 0 0)
(0 0 0)
(0 0 0)
(0 0 0)
(0 0 0)
(0 0 0)
(0 0 0)
(0 0 0)
(0 0 0)
(0 0 0)
(0 0 0)
(0 0 0)
(0 0 0)
(0 0 0)
(0 0 0)
(0 0 0)
(0 0 0)
(0 0 0)
(0 0 0)
(0 0 0)
(0 0 0)
(0 0 0)
(0 0 0)
(0 0 0)
(0 0 0)
(0 0 0)
(0 0 0)
(0 0 0)
(0 0 0)
(0 0 0)
(0 0 0)
(0 0 0)
(0 0 0)
(0 0 0)
(0 0 0)
(0 0 0)
(0 0 0)
(0 0 0)
(0 0 0)
(0 0 0)
(0 0 0)
(0 0 0)
(0 0 0)
(0 0 0)
(0 0 0)
(0 0 0)
(0 0 0)
(0 0 0)
(0 0 0)
(0 0 0)
(0 0 0)
(0 0 0)
(0 0 0)
(0 0 0)
(0 0 0)
(0 0 0)
(0 0 0)
(0 0 0)
(0 0 0)
(0 0 0)
(0 0 0)
(0 0 0)
(0 0 0)
(0 0 0)
(0 0 0)
(0 0 0)
(0 0 0)
(0 0 0)
(0 0 0)
(0 0 0)
(0 0 0)
(0 0 0)
(0 0 0)
(0 0 0)
(0 0 0)
(0 0 0)
(0 0 0)
(0 0 0)
(0 0 0)
(0 0 0)
(0 0 0)
(0 0 0)
(0 0 0)
(0 0 0)
(0 0 0)
(0 0 0)
(0 0 0)
(0 0 0)
(0 0 0)
(0 0 0)
(0 0 0)
(0 0 0)
(0 0 0)
(0 0 0)
(0 0 0)
(0 0 0)
(0 0 0)
(0 0 0)
(0 0 0)
(0 0 0)
(0 0 0)
(0 0 0)
(0 0 0)
(0 0 0)
(0 0 0)
(0 0 0)
(0 0 0)
(0 0 0)
(0 0 0)
(0 0 0)
(0 0 0)
(0 0 0)
(0 0 0)
(0 0 0)
(0 0 0)
(0 0 0)
(0 0 0)
(0 0 0)
(0 0 0)
(0 0 0)
(0 0 0)
(0 0 0)
(0 0 0)
(0 0 0)
(0 0 0)
(0 0 0)
(0 0 0)
(0 0 0)
(0 0 0)
(0 0 0)
(0 0 0)
(0 0 0)
(0 0 0)
(0 0 0)
(0 0 0)
(0 0 0)
(0 0 0)
(0 0 0)
(0 0 0)
(0 0 0)
(0 0 0)
(0 0 0)
(0 0 0)
(0 0 0)
(0 0 0)
(0 0 0)
(0 0 0)
(0 0 0)
(0 0 0)
(0 0 0)
(0 0 0)
(0 0 0)
(0 0 0)
(0 0 0)
(0 0 0)
(0 0 0)
(0 0 0)
(0 0 0)
(0 0 0)
(0 0 0)
(0 0 0)
(0 0 0)
(0 0 0)
(0 0 0)
(0 0 0)
(0 0 0)
(0 0 0)
(0 0 0)
(0 0 0)
(0 0 0)
(0 0 0)
(0 0 0)
(0 0 0)
(0 0 0)
(0 0 0)
(0 0 0)
(0 0 0)
(0 0 0)
(0 0 0)
(0 0 0)
(0 0 0)
(0 0 0)
(0 0 0)
(0 0 0)
(0 0 0)
(0 0 0)
(0 0 0)
(0 0 0)
(0 0 0)
(0 0 0)
(0 0 0)
(0 0 0)
(0 0 0)
(0 0 0)
(0 0 0)
(0 0 0)
(0 0 0)
(0 0 0)
(0 0 0)
(0 0 0)
(0 0 0)
(0 0 0)
(0 0 0)
(0 0 0)
(0 0 0)
(0 0 0)
(0 0 0)
(0 0 0)
(0 0 0)
(0 0 0)
(0 0 0)
(0 0 0)
(0 0 0)
(0 0 0)
(0 0 0)
(0 0 0)
(0 0 0)
(0 0 0)
(0 0 0)
(0 0 0)
(0 0 0)
(0 0 0)
(0 0 0)
(0 0 0)
(0 0 0)
(0 0 0)
(0 0 0)
(0 0 0)
(0 0 0)
(0 0 0)
(0 0 0)
(0 0 0)
(0 0 0)
(0 0 0)
(0 0 0)
(0 0 0)
(0 0 0)
(0 0 0)
(0 0 0)
(0 0 0)
(0 0 0)
(0 0 0)
(0 0 0)
(0 0 0)
(0 0 0)
(0 0 0)
(0 0 0)
(0 0 0)
(0 0 0)
(0 0 0)
(0 0 0)
(0 0 0)
(0 0 0)
(0 0 0)
(0 0 0)
(0 0 0)
(0 0 0)
(0 0 0)
(0 0 0)
(0 0 0)
(0 0 0)
(0 0 0)
(0 0 0)
(0 0 0)
(0 0 0)
(0 0 0)
(0 0 0)
(0 0 0)
(0 0 0)
(0 0 0)
(0 0 0)
(0 0 0)
(0 0 0)
(0 0 0)
(0 0 0)
(0 0 0)
(0 0 0)
(0 0 0)
(0 0 0)
(0 0 0)
(0 0 0)
(0 0 0)
(0 0 0)
(0 0 0)
(0 0 0)
(0 0 0)
(0 0 0)
(0 0 0)
(0 0 0)
(0 0 0)
(0 0 0)
(0 0 0)
(0 0 0)
(0 0 0)
(0 0 0)
(0 0 0)
(0 0 0)
(0 0 0)
(0 0 0)
(0 0 0)
(0 0 0)
(0 0 0)
(0 0 0)
(0 0 0)
(0 0 0)
(0 0 0)
(0 0 0)
(0 0 0)
(0 0 0)
(0 0 0)
(0 0 0)
(0 0 0)
(0 0 0)
(0 0 0)
(0 0 0)
(0 0 0)
(0 0 0)
(0 0 0)
(0 0 0)
(0 0 0)
(0 0 0)
(0 0 0)
(0 0 0)
(0 0 0)
(0 0 0)
(0 0 0)
(0 0 0)
(0 0 0)
(0 0 0)
(0 0 0)
(0 0 0)
(0 0 0)
(0 0 0)
(0 0 0)
(0 0 0)
(0 0 0)
(0 0 0)
(0 0 0)
(0 0 0)
(0 0 0)
(0 0 0)
(0 0 0)
(0 0 0)
(0 0 0)
(0 0 0)
(0 0 0)
(0 0 0)
(0 0 0)
(0 0 0)
(0 0 0)
(0 0 0)
(0 0 0)
(0 0 0)
(0 0 0)
(0 0 0)
(0 0 0)
(0 0 0)
(0 0 0)
(0 0 0)
(0 0 0)
(0 0 0)
(0 0 0)
(0 0 0)
(0 0 0)
(0 0 0)
(0 0 0)
(0 0 0)
(0 0 0)
(0 0 0)
(0 0 0)
(0 0 0)
(0 0 0)
(0 0 0)
(0 0 0)
(0 0 0)
(0 0 0)
(0 0 0)
(0 0 0)
(0 0 0)
(0 0 0)
(0 0 0)
(0 0 0)
(0 0 0)
(0 0 0)
(0 0 0)
(0 0 0)
(0 0 0)
(0 0 0)
(0 0 0)
(0 0 0)
(0 0 0)
(0 0 0)
(0 0 0)
(0 0 0)
(0 0 0)
(0 0 0)
(0 0 0)
(0 0 0)
(0 0 0)
(0 0 0)
(0 0 0)
(0 0 0)
(0 0 0)
(0 0 0)
(0 0 0)
(0 0 0)
(0 0 0)
(0 0 0)
(0 0 0)
(0 0 0)
(0 0 0)
(0 0 0)
(0 0 0)
(0 0 0)
(0 0 0)
(0 0 0)
(0 0 0)
(0 0 0)
(0 0 0)
(0 0 0)
(0 0 0)
(0 0 0)
(0 0 0)
(0 0 0)
(0 0 0)
(0 0 0)
(0 0 0)
(0 0 0)
(0 0 0)