/*--------------------------------*- C++ -*----------------------------------*\
| =========                 |                                                 |
| \\      /  F ield         | OpenFOAM: The Open Source CFD Toolbox           |
|  \\    /   O peration     | Version:  v2106                                 |
|   \\  /    A nd           | Website:  www.openfoam.com                      |
|    \\/     M anipulation  |                                                 |
\*---------------------------------------------------------------------------*/
FoamFile
{
    version     2.0;
    format      ascii;
    arch        "LSB;label=32;scalar=64";
    class       volScalarField;
    location    "0";
    object      p;
}
// * * * * * * * * * * * * * * * * * * * * * * * * * * * * * * * * * * * * * //

dimensions      [0 2 -2 0 0 0 0];

internalField   nonuniform List<scalar> 
11644
(
0.0144519
0.0153787
0.017102
0.0195242
0.0227247
0.0266048
0.0310472
0.0358884
0.0408963
0.0456524
0.049505
0.0522042
0.0532718
0.0523119
0.049328
0.0447359
0.0387108
0.0325756
0.0231324
0.0194072
0.0175055
0.0147072
0.0087556
0.00779964
0.0080304
0.00842112
0.00713448
0.00554279
0.00363006
0.00121689
-0.00129369
-0.00370286
-0.00615171
-0.00857976
-0.0108677
-0.0127997
-0.0142661
-0.0153707
-0.0161688
-0.0166686
0.0117454
0.0126703
0.014558
0.0173533
0.0209003
0.0251573
0.029982
0.0351311
0.0403993
0.0454465
0.0500641
0.0536054
0.0554291
0.0556829
0.0531375
0.0486216
0.0431472
0.0354356
0.0280019
0.024403
0.0150245
0.0158759
0.0135049
0.0106155
0.00956506
0.00867601
0.00753327
0.00573287
0.00345493
0.00100045
-0.00166407
-0.00454682
-0.00733041
-0.00995207
-0.0122479
-0.0141632
-0.0158273
-0.0171398
-0.0181178
-0.018689
0.00920163
0.00996025
0.0115991
0.0141984
0.0177359
0.0221496
0.0272997
0.0330068
0.0389688
0.0449191
0.0504326
0.0549357
0.0582771
0.0595566
0.0590471
0.0551917
0.0478169
0.0384861
0.0303672
0.0242993
0.0183879
0.0186862
0.012151
0.0102614
0.00845716
0.00692952
0.00533302
0.00348232
0.000923411
-0.00208297
-0.00497434
-0.00781919
-0.010494
-0.0128114
-0.0148256
-0.0165888
-0.0180902
-0.0192597
-0.0199223
-0.0200741
0.005844
0.00653058
0.00804429
0.0104714
0.0137947
0.0179817
0.023049
0.0289279
0.0354985
0.0424262
0.0495384
0.0565187
0.0620043
0.0668101
0.0681524
0.0646357
0.0570322
0.047516
0.0353425
0.0283365
0.0221955
0.0181539
0.0111415
0.00935506
0.0065034
0.0033449
0.000881751
-0.00221738
-0.00491919
-0.00758659
-0.0105076
-0.0131379
-0.0153186
-0.0171942
-0.0187014
-0.0199316
-0.0207613
-0.021173
-0.0212808
-0.0212095
0.00252833
0.00291037
0.00415715
0.00617202
0.00901175
0.0128323
0.0176862
0.0236054
0.0306666
0.0389589
0.048799
0.0589013
0.068305
0.073263
0.0752841
0.0731092
0.065545
0.0575201
0.0426805
0.0403451
0.0265567
0.0198014
0.00904462
0.00676849
0.00404968
-0.000527665
-0.00598794
-0.00987681
-0.0137319
-0.0163818
-0.0182307
-0.0201452
-0.0216059
-0.0224958
-0.0229437
-0.023019
-0.0228833
-0.0227003
-0.02251
-0.022489
-0.00243473
-0.00142268
-0.000116625
0.0016961
0.00417275
0.00746105
0.0118588
0.0176199
0.0252598
0.0349734
0.0457187
0.0569228
0.0666483
0.0792809
0.0870337
0.087209
0.0787972
0.0796905
0.0691407
0.0564179
0.0398722
0.0271436
0.0158468
0.0118445
0.00117152
-0.00416797
-0.010983
-0.0199329
-0.0245944
-0.0282225
-0.0292484
-0.0290108
-0.0285006
-0.0277713
-0.0267952
-0.0256595
-0.0245588
-0.0236929
-0.0230402
-0.0224246
-0.00692682
-0.00673417
-0.00547311
-0.00347496
-0.000891079
0.00229641
0.00632811
0.0117078
0.0190552
0.0275487
0.0370445
0.047571
0.0634429
0.0758208
0.0906971
0.112856
0.117243
0.0885861
0.083623
0.0732354
0.0486798
0.0391749
0.0261163
0.0102988
-0.0140859
-0.0201886
-0.0283533
-0.0338765
-0.0389032
-0.0418285
-0.0416633
-0.0391159
-0.0355087
-0.0323774
-0.0294894
-0.0269482
-0.0248645
-0.0231932
-0.0223964
-0.0222169
-0.0118667
-0.0109306
-0.00977573
-0.00821844
-0.00612723
-0.00311996
0.000667931
0.00564335
0.0118153
0.0185785
0.0275738
0.0403337
0.0481164
0.0747517
0.0893264
0.101497
0.11177
0.107889
0.0986191
0.0835842
0.059461
0.0392655
0.0218039
0.00705104
-0.0119834
-0.0372952
-0.0382521
-0.0575536
-0.0543936
-0.0534944
-0.049992
-0.0456415
-0.0398134
-0.0341596
-0.029664
-0.0260205
-0.0233875
-0.0218528
-0.0205421
-0.0201179
-0.0168969
-0.0157918
-0.0143831
-0.01248
-0.0101961
-0.0075253
-0.00430073
0.000349539
0.0056204
0.0115301
0.0196179
0.0313494
0.0464959
0.0738804
0.0893778
0.100335
0.117831
0.147193
0.126311
0.115858
0.0805301
0.0502612
0.0139641
-0.0225457
-0.0322305
-0.0536185
-0.0567691
-0.0756896
-0.068626
-0.0607322
-0.0523461
-0.0452491
-0.0382496
-0.0315386
-0.0266932
-0.0227659
-0.0194552
-0.0168724
-0.0153127
-0.0138051
-0.019248
-0.0196233
-0.0184321
-0.0168461
-0.014572
-0.0118134
-0.00823361
-0.00334295
0.00214903
0.00851393
0.0159468
0.0283429
0.040978
0.071961
0.0887647
0.121371
0.134586
0.151854
0.163988
0.14827
0.108868
0.0527448
0.00218907
-0.0374406
-0.0626101
-0.0807059
-0.0720551
-0.0670234
-0.062144
-0.0546985
-0.0451737
-0.0369039
-0.029899
-0.0230788
-0.0179424
-0.0141336
-0.0113954
-0.00931474
-0.00864449
-0.00914058
-0.0258515
-0.0223461
-0.0207812
-0.0194272
-0.0177465
-0.0150338
-0.0106594
-0.00516767
0.000440982
0.00832313
0.0155945
0.0283875
0.0435074
0.0700493
0.0921334
0.121511
0.154443
0.178659
0.193159
0.187033
0.139673
0.0382484
-0.0363704
-0.0707954
-0.0816418
-0.0854387
-0.0834501
-0.0483817
-0.0395791
-0.0340645
-0.0271841
-0.0211741
-0.0161116
-0.0106487
-0.0066097
-0.00409426
-0.00236314
-0.00141289
-1.1662e-07
0.000989233
-0.0259441
-0.0274167
-0.0275943
-0.0262545
-0.0237673
-0.020082
-0.0144081
-0.00733508
-0.00210042
0.00407753
0.0113403
0.0211781
0.0315754
0.0623
0.08556
0.104245
0.143634
0.188654
0.212017
-0.113727
-0.102958
-0.0883426
-0.0668561
-0.0642572
-0.0193785
-0.0075943
-0.00279569
-0.00144586
-0.000521554
0.00144613
0.0046483
0.00739419
0.00889064
0.0102084
0.0107458
0.01062
0.0102833
-0.0288573
-0.0328947
-0.0348168
-0.0351917
-0.0333498
-0.0298502
-0.023938
-0.0164837
-0.0112109
-0.00928808
-0.00808552
-0.00283993
0.0105542
0.0258923
0.0466092
0.0682882
0.112541
0.188231
0.327437
-0.161214
-0.0848626
-0.0609984
-0.0285543
-0.0143919
0.00303533
0.0284576
0.0281945
0.0225131
0.0176328
0.0171681
0.0191899
0.0220223
0.0234037
0.0232798
0.0219967
0.0188384
0.0170403
-0.0452528
-0.0472115
-0.0483219
-0.0483661
-0.0483444
-0.0471038
-0.0441662
-0.0379789
-0.0376564
-0.035418
-0.0564766
-0.0819421
-0.0604464
-0.054291
-0.0404485
-0.0633628
-0.00330262
0.107643
0.126589
0.0280475
0.00120431
0.000576892
0.0283387
-0.00844916
0.0381369
0.0692285
0.0523492
0.03082
0.0263645
0.025323
0.0296038
0.0335242
0.034307
0.0341856
0.0336018
0.03219
0.0252955
-0.0782712
-0.0718518
-0.0719058
-0.0707641
-0.071901
-0.0735493
-0.072433
-0.0684248
-0.07877
-0.104447
-0.1152
-0.0849221
-0.0999518
-0.116644
-0.223467
-0.297744
-0.266825
-0.177022
-0.26462
-0.722519
0.342338
0.291777
0.20844
0.0985977
0.108837
0.0977071
0.0131861
-0.0152335
-0.0082855
0.0473347
0.0458839
0.0180701
0.0200785
0.0348612
0.042772
0.0457485
0.047598
0.0498882
0.0490343
0.0623377
-0.0843842
-0.0865626
-0.0907666
-0.0952224
-0.0988554
-0.105017
-0.10553
-0.112519
-0.140096
-0.162704
-0.188209
-0.216287
-0.177321
-0.196347
-0.34508
-0.469337
-0.781135
-0.643208
0.651587
0.78829
-0.336572
-1.83462
-0.82652
0.0872834
0.287579
0.0245528
0.0739365
-0.046548
0.0384578
0.0401928
0.0379094
0.0368026
0.0338904
0.038364
0.0496028
0.0552925
0.0622124
0.0653777
0.0637486
0.0646375
-0.0896062
-0.100833
-0.104817
-0.113736
-0.120989
-0.124913
-0.133955
-0.144449
-0.163749
-0.192058
-0.224885
-0.301248
-0.390582
-0.28798
-0.32304
-0.349539
-0.722006
-1.85791
-1.83618
4.67523
-0.733481
-3.91628
1.50605
0.739444
-0.0614073
-0.100791
-0.0820777
0.121112
0.0725867
0.0387129
0.0293427
0.028671
0.0336408
0.0396354
0.0468621
0.056156
0.0604201
0.061221
0.0626774
0.0490586
-0.129529
-0.122638
-0.123848
-0.127612
-0.131168
-0.140293
-0.165486
-0.188256
-0.181104
-0.171348
-0.19828
-0.25638
-0.43073
-0.315567
-0.582936
-0.280218
-0.142124
0.669466
-2.93175
-2.95917
0.406082
3.50937
1.91548
-1.06722
-0.296704
-0.0619558
-0.0492855
0.151194
0.00738027
-0.00649766
-0.00446471
0.0218786
0.0498949
0.0517743
0.0443856
0.0466564
0.0517237
0.0554521
0.0583915
0.0614873
-0.143006
-0.142939
-0.138727
-0.137672
-0.144316
-0.161032
-0.189855
-0.231687
-0.260451
-0.271588
-0.260496
-0.297892
-0.23363
-0.394308
-0.14226
-0.418326
-0.719142
1.00175
3.44747
1.37986
0.350764
-0.841962
-2.82434
-0.0266664
0.189455
-0.145706
0.0398089
-0.0330911
0.0383897
0.0501867
0.090902
0.0928946
0.0898061
0.0657675
0.0531108
0.0469514
0.0466352
0.0514185
0.0594791
0.061892
-0.137153
-0.14195
-0.14232
-0.144451
-0.15237
-0.165139
-0.187566
-0.213544
-0.265267
-0.31575
-0.339372
-0.255888
-0.410259
-0.422418
-0.321573
0.0892939
0.370696
-2.04004
-1.10331
0.60252
0.638433
0.700345
2.31137
1.91166
-0.653171
-0.110384
0.105907
0.0852391
-0.00322724
0.105656
0.119375
0.0977483
0.0683914
0.0563145
0.0485513
0.0475327
0.0464139
0.0491412
0.0529109
0.0525828
-0.131148
-0.133106
-0.138281
-0.148161
-0.156804
-0.166236
-0.174589
-0.180827
-0.210096
-0.261698
-0.327699
-0.240856
-0.304677
-0.0409998
-0.359008
-0.310707
0.793996
3.13816
1.59644
0.250392
0.600628
0.706968
-0.890924
-2.24173
0.169168
0.146155
-0.305003
-0.0129751
-0.00588619
0.0904102
0.0612363
0.0418766
0.0355779
0.0412652
0.0492411
0.0511978
0.0507937
0.0469415
0.0453077
0.0456038
-0.120018
-0.117817
-0.122637
-0.134837
-0.147902
-0.158612
-0.172188
-0.180804
-0.184091
-0.211039
-0.238906
-0.311889
-0.444622
-0.741614
-0.277766
-0.044973
-1.40335
-1.01941
1.0175
1.62972
0.230134
-1.31361
0.420426
1.45521
0.811035
0.0511598
0.456593
0.185764
0.0869892
0.0374605
0.0336556
0.03188
0.0440059
0.0543703
0.0536858
0.0501966
0.043739
0.0372342
0.0361294
0.0407586
-0.120387
-0.124004
-0.123742
-0.122639
-0.124461
-0.128374
-0.143619
-0.163876
-0.183969
-0.1898
-0.186205
-0.176411
-0.142807
-0.320771
-1.23178
-0.531255
-0.680486
-2.62505
1.15762
0.743783
0.872634
0.445511
2.16546
0.742034
0.726194
1.39497
0.135911
-0.056696
0.0251334
0.0224579
0.0527213
0.0671287
0.0639142
0.0521946
0.0402906
0.0432772
0.0476248
0.0524399
0.0540405
0.0504734
-0.105664
-0.111168
-0.115957
-0.119057
-0.118781
-0.115409
-0.112175
-0.114235
-0.131092
-0.142524
-0.150098
-0.121446
0.0371791
0.485477
1.39487
0.884432
-0.790471
-2.59505
-1.14548
0.722209
0.31472
2.33709
3.45472
1.77383
-0.264763
-1.27604
-0.403054
0.00688255
0.0846639
0.104353
0.086037
0.073409
0.0565502
0.0543432
0.0569958
0.0611378
0.0635118
0.0614369
0.0571011
0.0515337
-0.0832296
-0.0751255
-0.0769935
-0.0799887
-0.08334
-0.0839307
-0.080876
-0.0678613
-0.0654898
-0.0409605
-0.0110653
0.0332453
0.0881145
-0.100576
0.272597
1.73241
2.91405
2.20121
0.558029
-0.736267
2.24294
0.888473
-1.25217
-2.3321
-1.30972
0.144661
0.47911
0.0765016
0.0462886
0.0564136
0.0515018
0.0605398
0.0530397
0.0599785
0.0562677
0.0496689
0.0454075
0.0400105
0.0371883
0.0458656
-0.0759445
-0.0744994
-0.0694993
-0.0654441
-0.0623497
-0.0591361
-0.0530202
-0.043863
-0.0242061
0.0132558
0.0761052
0.111348
0.253129
0.483648
-0.187584
-0.89513
-0.204589
0.149171
1.009
0.86664
-0.0934841
-0.0997194
0.588542
1.14277
1.71344
0.681285
-0.225211
-0.0799363
-0.0103574
0.0219217
0.0450473
0.0555874
0.0610786
0.057967
0.0532016
0.0497027
0.049711
0.0502066
0.0540353
0.0552541
-0.0713699
-0.0699045
-0.0706239
-0.0644555
-0.0562407
-0.0437379
-0.0264629
-0.0101799
0.00323799
0.032352
0.0408045
0.102079
0.166088
0.723556
1.21457
0.770329
-0.173429
0.0252097
-0.466158
-0.0930545
0.89976
1.61638
0.622275
0.928728
-0.628124
-1.11259
-0.559382
-0.010559
0.048312
0.0750003
0.055757
0.0519662
0.0488419
0.0528894
0.0585322
0.0626334
0.0648849
0.066179
0.0637535
0.0627466
-0.0515566
-0.0562009
-0.0493932
-0.0414735
-0.034191
-0.0265941
-0.0184763
-0.00744432
0.019003
0.0761347
0.130419
0.1337
0.136522
-0.184383
0.542344
1.94854
2.28082
1.89457
1.55638
0.761949
-0.452193
-1.23511
-1.64975
-1.94464
-1.69806
-0.236216
0.336849
-0.0198336
0.0203693
0.00313145
0.0404389
0.065445
0.0719403
0.0665181
0.0604049
0.0571355
0.0548217
0.0559674
0.0585621
0.0520578
-0.0360351
-0.0240848
-0.0279451
-0.0310848
-0.027585
-0.0174571
-0.00627578
0.00444517
0.0133934
0.0606301
0.0984447
0.214083
0.41712
0.395419
-0.365317
-0.945583
-0.312831
0.327995
1.06963
1.50627
-1.64086
-1.10925
-0.234824
0.50029
1.05685
0.443899
-0.314456
-0.271806
-0.0472264
0.0437058
0.0666197
0.0897415
0.0772673
0.0666371
0.0657842
0.0627122
0.0555214
0.0458282
0.0377962
0.0476945
-0.0468651
-0.051987
-0.041476
-0.029076
-0.0177933
-0.00620045
0.00941767
0.0255346
0.0463871
0.058901
0.0533242
0.0144965
-0.0169483
0.344047
0.916255
0.848322
0.261583
-0.0826493
-1.11029
-0.787277
0.594686
0.98984
-0.141975
-0.35337
-0.808576
-0.793515
-0.162017
0.179442
0.151192
0.0791226
0.0646789
0.0634385
0.0631722
0.0559664
0.0572472
0.0569468
0.0593261
0.0662987
0.073615
0.0677267
-0.037205
-0.0393348
-0.0415125
-0.0395733
-0.0324695
-0.0226181
-0.0105409
0.00677682
0.0339766
0.0742422
0.10364
0.137012
0.0339892
-0.276977
-0.212649
0.337198
0.634955
0.594467
0.669465
0.359771
-0.783531
-1.06301
-0.971556
-0.839474
-0.428831
0.229581
0.306798
0.0450185
-0.0153923
0.0379343
0.0478587
0.0713238
0.0779633
0.0775825
0.0742472
0.0727154
0.0709282
0.0665297
0.059725
0.0586273
-0.0297885
-0.0212585
-0.0218342
-0.0216928
-0.0197055
-0.0140001
-0.000995812
0.00516153
0.00584132
-0.00378596
-0.0201023
0.0290398
0.181865
0.140138
-0.432145
-0.854585
-0.785373
-0.511999
-0.682049
-0.913365
-0.0616702
-0.176569
-0.199676
0.157277
0.421442
0.269849
-0.117006
-0.0953002
0.0752555
0.114962
0.095031
0.0777325
0.0630113
0.0584849
0.0566813
0.0545672
0.0495848
0.0452377
0.0434245
0.0490214
-0.0389687
-0.0420614
-0.0333297
-0.0247927
-0.0178734
-0.0148306
-0.0124614
-0.0139217
-0.0184259
-0.0256799
-0.0746338
-0.190604
-0.301316
-0.121801
0.291245
0.143337
-0.416324
-0.767409
-1.02162
-0.821275
-0.154772
0.177773
-0.0328476
-0.130019
-0.456238
-0.475617
-0.0165435
0.245469
0.188511
0.117875
0.0768396
0.0727741
0.0648118
0.0555851
0.0486095
0.0455126
0.0478544
0.053715
0.0598825
0.0561109
-0.0300707
-0.0257177
-0.0305857
-0.0382421
-0.0417639
-0.0442575
-0.0462162
-0.0496582
-0.0517112
-0.0488262
-0.0553329
-0.0534997
-0.258394
-0.659513
-1.02053
-0.927582
-0.721232
-0.550708
-0.29904
-0.282408
-0.298754
-0.186787
0.0366855
0.263242
0.570359
0.787225
0.512858
0.162209
0.0235081
0.0429877
0.0667358
0.0787036
0.080106
0.0722428
0.0653764
0.0593852
0.0522212
0.043636
0.0361882
0.0406526
-0.0459848
-0.0436986
-0.038255
-0.0324796
-0.0291383
-0.0287909
-0.0306961
-0.0371811
-0.0608372
-0.0963594
-0.192379
-0.185843
-0.0952824
-0.0526998
-0.39977
-0.771638
-1.2632
-1.29436
-1.34233
-1.1523
0.866359
0.937175
0.881647
0.881342
0.492033
0.199684
-0.102894
-0.0123468
0.133637
0.150008
0.0713178
0.057069
0.0389272
0.0337527
0.0329732
0.0332255
0.0356976
0.0414727
0.0453715
0.0454572
-0.0465229
-0.0526983
-0.0534968
-0.0522612
-0.0494069
-0.0503391
-0.0592152
-0.0694323
-0.0842058
-0.106516
-0.14448
-0.276885
-0.433178
-0.395096
-0.210726
-0.167562
-0.396988
-0.645405
0.0646819
0.302517
-0.364291
0.0229501
0.488184
0.259817
0.0225801
0.00675904
0.184269
0.264287
0.152531
0.0623251
0.0558235
0.047833
0.040275
0.0356025
0.0354222
0.0369369
0.0407769
0.0436219
0.0438893
0.0368189
-0.0371558
-0.0326072
-0.0375717
-0.0452663
-0.0531512
-0.0632521
-0.0747378
-0.0925284
-0.119385
-0.152122
-0.154618
-0.153658
-0.236265
-0.623608
-0.938017
-0.888719
-0.649896
-0.40446
-0.174977
-0.0997246
0.270617
0.264705
0.46523
0.605737
0.681514
0.697489
0.376135
0.0135416
-0.0247868
0.0306696
0.0704123
0.0546472
0.0347357
0.0353462
0.0303774
0.0248756
0.0196326
0.0138884
0.0102136
0.0167731
-0.0512704
-0.0515138
-0.0460121
-0.0406755
-0.0401703
-0.0449337
-0.0556832
-0.072064
-0.0966439
-0.140085
-0.201077
-0.237577
-0.150345
-0.0879979
-0.231615
-0.512217
-0.971687
-1.00605
-0.909462
-0.732454
0.738189
0.884268
0.724729
0.584415
0.0748353
-0.247272
-0.297496
-0.101331
0.0732473
0.0687448
0.0243294
0.00910937
-0.000346708
-0.00108989
-0.00151134
-0.000552846
0.00490679
0.0134533
0.0210879
0.0234063
-0.0499309
-0.0530671
-0.0585231
-0.0658961
-0.0711206
-0.0776918
-0.085059
-0.0915522
-0.0909503
-0.0988328
-0.103825
-0.184742
-0.335986
-0.407666
-0.352467
-0.26044
-0.315425
-0.36158
-0.271117
0.0515644
-0.520546
-0.148764
0.0710786
-0.10856
-0.212541
-0.0566358
0.108013
0.0768683
-0.0373229
-0.063163
-0.0349013
-0.0125982
0.0104988
0.020119
0.0242576
0.0278199
0.0281794
0.0234834
0.0205706
0.0172559
-0.0508909
-0.0498962
-0.0525432
-0.0563815
-0.0579205
-0.0604599
-0.0634829
-0.0711032
-0.0906223
-0.11366
-0.0940724
-0.0345561
-0.0317987
-0.175537
-0.324506
-0.268975
-0.124674
0.0386752
-0.0254763
-0.124692
-0.0518158
-0.134238
-0.128823
-0.0747731
-0.0514416
0.00372318
-0.203602
-0.264987
-0.220041
-0.0696798
-0.0128876
-0.00525865
-0.0073377
-0.000820515
0.00555091
0.0147775
0.0153773
0.0146945
0.0128488
0.013957
-0.0546138
-0.0587157
-0.0547093
-0.0486013
-0.0453014
-0.045992
-0.0481084
-0.050656
-0.0494966
-0.0830697
-0.0985899
-0.12135
-0.000385587
0.169551
0.206381
0.143286
0.0686241
0.10784
0.155091
0.211881
-0.146125
-0.237975
-0.234959
-0.312733
-0.440027
-0.514626
-0.433025
-0.213545
-0.0347699
-0.0317011
-0.0445733
-0.0215366
-0.0143219
-0.0101052
-0.00468734
-0.000205806
0.00650152
0.013714
0.018321
0.0132205
-0.0431536
-0.0395626
-0.0443461
-0.0526408
-0.0591383
-0.0655665
-0.0710868
-0.0755732
-0.0789971
-0.0625586
-0.0385105
-0.0764147
-0.224099
-0.336643
-0.267301
-0.104151
-0.00496633
0.0690819
0.311031
0.482767
-0.654095
-0.510805
-0.21011
-0.249991
-0.166356
0.011017
0.109369
0.0197038
-0.0917981
-0.0774846
-0.0341885
0.00740218
0.0113377
0.0160821
0.0154632
0.013318
0.00808552
-0.000202533
-0.00422647
0.00122024
-0.0527974
-0.0498498
-0.0478738
-0.045174
-0.0444011
-0.0446266
-0.0463627
-0.0554401
-0.075734
-0.102063
-0.0957226
-0.0394279
0.0463463
-0.00284667
-0.162128
-0.278149
-0.459747
-0.436743
-0.430662
-0.339318
0.0334005
0.0805958
0.0837094
0.128785
-0.0247289
-0.0908133
-0.206285
-0.22844
-0.106033
-0.021462
-0.00164598
-0.00152089
-0.00993891
-0.0129996
-0.00793573
-0.00621325
-0.00282485
0.00194946
0.00559072
0.00821498
-0.0588126
-0.0669248
-0.0657084
-0.0637067
-0.0616924
-0.0625286
-0.0608924
-0.0581516
-0.0711956
-0.11097
-0.115694
-0.207898
-0.227332
-0.115476
-0.11038
-0.15046
-0.2588
-0.369127
-0.385497
-0.327504
-0.385195
-0.264193
-0.322611
-0.350476
-0.390223
-0.333877
-0.197579
-0.0354675
0.016776
-0.0226055
0.000785571
0.00880458
-0.0023781
0.00329653
0.00778677
0.0106322
0.0128669
0.0136088
0.0140707
0.00958117
-0.0486398
-0.0458825
-0.0526175
-0.0606253
-0.0657769
-0.0685842
-0.0756099
-0.0791105
-0.0949847
-0.105245
-0.102362
-0.154551
-0.360077
-0.505189
-0.597769
-0.515252
-0.435519
-0.391256
-0.383649
-0.572264
-0.500522
-0.60416
-0.568865
-0.407019
-0.243242
-0.0467884
0.0643569
0.0584252
-0.0391004
-0.0338192
0.00549461
0.0141459
0.0119741
0.0104029
0.00906988
0.0117445
0.00710384
0.00125237
-0.00366462
0.000292521
-0.0519453
-0.051216
-0.0454031
-0.0392485
-0.0366899
-0.0378492
-0.0452373
-0.0605607
-0.0900346
-0.135988
-0.188179
-0.20015
-0.165098
-0.274387
-0.491903
-0.694294
-0.859977
-0.852251
-0.804193
-0.719316
-0.251951
-0.106911
0.0394803
0.14251
0.0134628
-0.012215
-0.0928112
-0.105375
-0.00516254
0.0397886
0.0249831
-0.00272531
-0.0134559
-0.0141152
-0.0169853
-0.0146326
-0.00966348
-0.00161946
0.00509011
0.00485776
-0.0487028
-0.0464511
-0.0469968
-0.0529972
-0.057846
-0.0628248
-0.0696107
-0.0764402
-0.0904174
-0.128446
-0.165167
-0.305292
-0.479025
-0.53199
-0.577718
-0.634796
-0.686984
-0.678065
-0.500617
-0.297232
-0.160127
0.0332012
0.135412
0.182492
0.133667
0.217714
0.23477
0.24134
0.126253
0.0383288
0.0100654
0.00733901
0.00775139
0.00981931
0.0090782
0.00648283
0.00283284
-0.00375923
-0.00494935
-0.00254173
-0.0481692
-0.0450636
-0.0483409
-0.0519676
-0.0550137
-0.0574143
-0.0640136
-0.0661216
-0.0869378
-0.10417
-0.115085
-0.13577
-0.250474
-0.394934
-0.500533
-0.549493
-0.50342
-0.416058
-0.25306
-0.172234
0.167115
0.153938
0.124482
0.182199
0.205348
0.156254
0.0916231
0.0154432
-0.0479685
-0.0222573
0.00301063
0.00824972
-0.00304366
-0.0071265
-0.00319227
-0.00175234
-0.00125243
-0.00395091
-0.0065239
-0.00341557
-0.0527151
-0.0610311
-0.0572344
-0.0522961
-0.0484413
-0.0471942
-0.0418224
-0.056258
-0.0733927
-0.11898
-0.148754
-0.146493
-0.0816834
-0.0611036
-0.118483
-0.2198
-0.154162
-0.11923
-0.00820613
0.315729
-0.178421
0.0501234
-0.0850519
-0.12749
-0.0121155
-0.0903418
-0.156676
-0.117923
-0.0249584
0.00213532
-0.0170023
-0.0226058
-0.022356
-0.0222076
-0.0168814
-0.0105627
-0.00286166
0.00335005
0.00913204
0.00164176
-0.0430409
-0.0386086
-0.0431779
-0.050783
-0.0564356
-0.0605669
-0.0636407
-0.0707946
-0.0760463
-0.0795931
-0.0985731
-0.173433
-0.301345
-0.291645
-0.222627
-0.156903
-0.0692762
-0.0339647
0.102698
0.110874
-0.10121
-0.17771
-0.24958
-0.247693
-0.1586
-0.0524233
0.0505889
0.0758278
-0.0187762
-0.0734145
-0.0632631
-0.034932
-0.017213
-0.00839323
-0.00523188
-0.00443875
-0.00768234
-0.0139736
-0.017938
-0.0131122
-0.0419381
-0.0364959
-0.0343966
-0.032047
-0.0311056
-0.0318109
-0.0365484
-0.0437354
-0.0571684
-0.0595028
-0.0600357
-0.0279129
-0.0495668
-0.160491
-0.257787
-0.329253
-0.396138
-0.392246
-0.348329
-0.29795
-0.130694
-0.0956337
-0.0978847
-0.109855
-0.143094
-0.199147
-0.254489
-0.293882
-0.226896
-0.122358
-0.0732971
-0.0505644
-0.0478501
-0.0427684
-0.0380142
-0.031469
-0.0270259
-0.0216334
-0.0171
-0.0108396
-0.0426469
-0.0457559
-0.0438762
-0.0430749
-0.0434101
-0.0444365
-0.0448849
-0.0438352
-0.0552327
-0.0776069
-0.0866076
-0.115843
-0.11443
-0.110374
-0.131028
-0.197159
-0.26678
-0.327922
-0.391523
-0.329534
-0.393501
-0.277963
-0.345018
-0.364498
-0.324052
-0.344056
-0.310181
-0.204162
-0.12516
-0.098174
-0.0719079
-0.0541345
-0.0426134
-0.0283139
-0.0180302
-0.0113446
-0.00833908
-0.00373072
0.000201831
-0.00302942
-0.0360901
-0.0343622
-0.0407856
-0.0475763
-0.0521924
-0.0539342
-0.054357
-0.0508056
-0.0468433
-0.0464068
-0.0312524
-0.0582859
-0.0791648
-0.0210828
0.0570515
0.136918
0.196389
0.136077
0.117487
-0.059311
-0.441488
-0.63338
-0.650599
-0.637698
-0.533957
-0.387429
-0.260162
-0.181631
-0.165363
-0.144663
-0.0877411
-0.0422131
-0.0211068
-0.00857964
0.000768382
0.00503975
0.00429602
-0.00174182
-0.00784984
-0.00571403
-0.0397933
-0.043233
-0.0393321
-0.0333359
-0.0278113
-0.0246499
-0.0250834
-0.0286754
-0.0365659
-0.0486956
-0.0440432
0.0249522
0.0745465
0.049529
0.0601792
0.0444419
0.0781386
0.0937464
0.0633954
-0.0315681
-0.222266
-0.357043
-0.388875
-0.38435
-0.359128
-0.289414
-0.284826
-0.27148
-0.182807
-0.0874696
-0.0402592
-0.0312913
-0.024613
-0.0280023
-0.0193671
-0.0129308
-0.00537146
0.00213267
0.00714665
0.00282462
-0.03187
-0.0303302
-0.0308754
-0.0357752
-0.0395164
-0.0448941
-0.0489139
-0.0539591
-0.059435
-0.0838832
-0.115324
-0.204552
-0.240923
-0.241749
-0.20143
-0.154836
-0.127055
-0.0488667
-0.0457887
-0.167611
-0.162274
-0.189673
-0.201498
-0.109366
-0.0589172
0.00594589
0.0575157
0.0958539
0.0798664
0.0083677
-0.0116617
-0.00244002
0.00561587
0.00940406
0.0109088
0.00597311
0.00335767
0.00041009
-2.5502e-06
0.00157161
-0.0288277
-0.0210729
-0.0248312
-0.0306441
-0.0354507
-0.0408369
-0.0511414
-0.0644497
-0.0836378
-0.101196
-0.110252
-0.120986
-0.169218
-0.284482
-0.335013
-0.39049
-0.42686
-0.4407
-0.31599
-0.190082
-0.141184
-0.0393312
0.0854818
0.106654
0.169505
0.195181
0.128278
0.0603119
0.0124572
0.0226359
0.0293688
0.0246593
0.0186675
0.0128996
0.0104966
0.00865227
0.00491748
0.00238186
0.000924032
0.0074495
-0.0372003
-0.0440652
-0.0414
-0.0370384
-0.035678
-0.0380504
-0.0449809
-0.0593772
-0.0976078
-0.136786
-0.171705
-0.187674
-0.215098
-0.307543
-0.416857
-0.523737
-0.595174
-0.572902
-0.530759
-0.395577
-0.206889
-0.0689611
-0.011458
0.139154
0.146753
0.13971
0.0931832
0.0646622
0.0711776
0.0745631
0.0636129
0.0444674
0.0248848
0.0181535
0.0180012
0.0182478
0.0206783
0.0246953
0.0273942
0.0214623
-0.0257556
-0.0270667
-0.0338365
-0.0426485
-0.0506026
-0.058618
-0.0654485
-0.0722517
-0.101745
-0.12374
-0.185681
-0.312073
-0.400126
-0.419697
-0.417797
-0.439806
-0.427251
-0.435022
-0.400021
-0.362677
-0.433831
-0.325445
-0.24121
-0.103459
-0.016143
0.0732462
0.113933
0.167546
0.158008
0.0883549
0.051332
0.0495637
0.0452256
0.0444606
0.041887
0.0378042
0.0322341
0.0253907
0.0201424
0.019122
-0.0165007
-0.0141235
-0.0136643
-0.0133049
-0.0151042
-0.0202513
-0.0280589
-0.0430062
-0.0714905
-0.10678
-0.130325
-0.147055
-0.242936
-0.403767
-0.543962
-0.665285
-0.736234
-0.757278
-0.695606
-0.413413
-0.211391
0.097147
0.267719
0.297085
0.320598
0.275717
0.18864
0.0851751
0.0242668
0.0375311
0.0450827
0.035811
0.0238877
0.0126887
0.0142061
0.014019
0.016306
0.0208968
0.023537
0.0238369
-0.010869
-0.0118294
-0.00797739
-0.00512255
-0.00595939
-0.0117871
-0.0192592
-0.0304945
-0.0536688
-0.0935515
-0.144412
-0.233734
-0.310832
-0.409519
-0.525643
-0.609332
-0.679179
-0.512272
-0.406298
-0.342757
-0.0599474
0.200424
0.303659
0.406667
0.395033
0.343931
0.280117
0.218658
0.1593
0.0982514
0.0673627
0.0430132
0.02288
0.0227702
0.024102
0.0211587
0.0221298
0.0246303
0.02766
0.027554
0.00143788
0.00559686
0.00143462
-0.00494838
-0.0103606
-0.0145992
-0.0210127
-0.0262862
-0.017507
-0.0250063
-0.0392633
-0.0840755
-0.106726
-0.0921104
-0.0796492
-0.0809299
-0.062958
-0.131387
-0.097727
-0.035404
-0.0718596
0.084535
0.156985
0.0218412
0.0357309
0.00899687
0.0104984
0.0215589
0.0197607
0.00487611
0.00964859
0.0198063
0.0255795
0.0298809
0.0338672
0.0339022
0.0306867
0.0260307
0.0226378
0.028102
0.00355189
-0.00117648
0.00156248
0.00754889
0.0140217
0.0191449
0.0207428
0.0236825
0.0220177
0.0266909
0.0614546
0.132409
0.160078
0.154479
0.148514
0.16306
0.142221
0.0535783
0.0264461
-0.0469544
0.0115488
-0.0179324
-0.08264
-0.161034
-0.153666
-0.167392
-0.181501
-0.177513
-0.15674
-0.0758558
-0.0232059
-0.00817342
-0.00805148
0.000211099
0.0107395
0.0207688
0.0312932
0.0405013
0.0450647
0.0405793
0.015472
0.0137302
0.0142981
0.0144698
0.0157571
0.0180994
0.0252009
0.0334341
0.0415442
0.0549438
0.0502547
0.0391563
0.0861892
0.159182
0.225289
0.273139
0.267567
0.283349
0.226201
-0.00848703
-0.165314
-0.362549
-0.465381
-0.459365
-0.404742
-0.322643
-0.2152
-0.110808
-0.0459101
-0.0414751
-0.0453451
-0.0214864
-0.00262724
0.0168817
0.0285568
0.0355746
0.0382735
0.0387694
0.0385221
0.0379288
0.0289055
0.0350378
0.0356043
0.0351667
0.035281
0.0367672
0.0389439
0.0544556
0.063958
0.0804748
0.115522
0.140678
0.158681
0.164612
0.173852
0.148126
0.134918
-0.0977482
-0.182832
-0.175123
-0.242161
-0.279375
-0.305313
-0.394553
-0.380096
-0.360288
-0.307699
-0.252468
-0.200934
-0.135596
-0.0699003
-0.0371284
-0.0104253
0.00949477
0.0218223
0.0267875
0.0301005
0.0318604
0.0331453
0.0395385
0.0292109
0.0282178
0.0321282
0.036858
0.0409972
0.0442349
0.0464514
0.0472787
0.0496268
0.0549648
0.0586291
0.0824401
0.0750588
0.058444
0.0664539
0.0437415
0.00110195
-0.0975724
-0.170946
-0.251633
-0.276217
-0.476831
-0.426666
-0.390922
-0.324817
-0.274647
-0.224452
-0.179303
-0.127776
-0.063062
-0.0353321
-0.00774667
0.0036588
0.0182974
0.029912
0.0371353
0.0453933
0.0544259
0.0605937
0.057124
0.0333527
0.0322698
0.0280652
0.0225639
0.0187038
0.0173359
0.0174071
0.0201698
0.031869
0.0366203
0.0287774
0.0446012
0.119617
0.217491
0.302543
0.342241
0.295405
0.22754
0.0963367
-0.0987186
-0.365922
-0.576262
-0.626165
-0.610137
-0.539791
-0.417429
-0.279186
-0.147071
-0.0513247
-0.00567883
0.00933232
0.0351971
0.0546868
0.068725
0.0759761
0.0777744
0.0751117
0.0693988
0.0645201
0.0651975
0.0339707
0.0303261
0.0293175
0.0298114
0.0326184
0.0339429
0.0308363
0.0341606
0.0373479
0.0414172
0.0745686
0.100301
0.110518
0.103542
0.0835065
0.0629099
0.0264423
-0.0272182
-0.11415
-0.142862
-0.1417
-0.140792
-0.133362
-0.148827
-0.0740561
-0.0748108
-0.0766655
-0.0759344
-0.0576923
-0.0123544
0.0428393
0.0620248
0.0676186
0.0707118
0.0727673
0.075196
0.0789981
0.0813471
0.0821556
0.0812694
0.0407587
0.0378268
0.0378348
0.0374998
0.0358163
0.0328741
0.0273132
0.0189597
0.00321493
-0.0192401
-0.0761018
-0.141716
-0.183844
-0.213862
-0.226806
-0.248674
-0.245894
-0.175054
-0.0989692
-0.113682
-0.0796616
-0.0247701
0.114317
0.248999
0.320107
0.322393
0.311892
0.27146
0.228011
0.180687
0.139213
0.117822
0.104764
0.100718
0.0967117
0.0933947
0.0929547
0.0939809
0.0956174
0.0943172
0.0511681
0.0555304
0.0517603
0.0442551
0.0350139
0.0256182
0.0137133
-0.000823603
-0.0206588
-0.0498463
-0.0852069
-0.134921
-0.188666
-0.234483
-0.288227
-0.346488
-0.416655
-0.378043
-0.271223
-0.135908
0.0799709
0.236141
0.371551
0.440684
0.403526
0.394699
0.362918
0.314064
0.263637
0.211469
0.192022
0.163516
0.141798
0.138604
0.126221
0.116345
0.108103
0.0996174
0.0955316
0.102358
0.0506458
0.0474267
0.0479189
0.0488282
0.0473981
0.0415234
0.0302156
0.00898609
-0.0127288
-0.0410589
-0.0662987
-0.10425
-0.197765
-0.316556
-0.435386
-0.541386
-0.469715
-0.469474
-0.381305
-0.225771
0.0106758
0.24213
0.38862
0.475573
0.517101
0.486466
0.409823
0.315683
0.243618
0.207903
0.195139
0.172936
0.148354
0.137219
0.129059
0.125437
0.125537
0.126499
0.127252
0.121828
0.0595159
0.0570635
0.0541949
0.049511
0.0438475
0.036713
0.0284349
0.0126067
-0.00433451
-0.0412188
-0.108297
-0.157252
-0.193898
-0.215806
-0.24124
-0.255401
-0.255895
-0.217547
-0.208947
-0.157461
-0.121903
-0.0260923
0.049846
0.165347
0.21656
0.249362
0.275424
0.286508
0.278503
0.24626
0.199329
0.173963
0.164481
0.156462
0.152156
0.148588
0.144404
0.139571
0.135297
0.130293
0.0744619
0.0778323
0.0763336
0.0739634
0.0698159
0.0660288
0.0599384
0.0522166
0.0385097
0.0266927
0.0269815
0.00337769
-0.060505
-0.135137
-0.223324
-0.296428
-0.384387
-0.435382
-0.39412
-0.248858
-0.024645
0.223148
0.3413
0.372922
0.347286
0.323616
0.266296
0.195601
0.142561
0.12844
0.140965
0.144023
0.138987
0.13891
0.134404
0.134699
0.131812
0.129898
0.128892
0.130563