/*--------------------------------*- C++ -*----------------------------------*\
| =========                 |                                                 |
| \\      /  F ield         | OpenFOAM: The Open Source CFD Toolbox           |
|  \\    /   O peration     | Version:  v2106                                 |
|   \\  /    A nd           | Website:  www.openfoam.com                      |
|    \\/     M anipulation  |                                                 |
\*---------------------------------------------------------------------------*/
FoamFile
{
    version     2.0;
    format      ascii;
    arch        "LSB;label=32;scalar=64";
    class       volVectorField;
    location    "0";
    object      U;
}
// * * * * * * * * * * * * * * * * * * * * * * * * * * * * * * * * * * * * * //

dimensions      [0 1 -1 0 0 0 0];

internalField   nonuniform List<vector> 
11644
(
(-0.000258956 6.96393e-05 -4.02401e-22)
(-0.000238215 0.000216057 -1.1097e-21)
(-0.000207907 0.000339851 -5.95383e-22)
(-0.000192193 0.000459754 0)
(-0.000199826 0.000569975 0)
(-0.000201214 0.000724454 0)
(-0.000188798 0.000875547 0)
(-0.000206704 0.00102079 0)
(-0.000186416 0.00114501 0)
(-0.000116355 0.00124398 0)
(-0.000129785 0.00126088 0)
(3.34308e-05 0.00125351 0)
(-8.66106e-05 0.00113953 0)
(0.000518975 0.000903638 0)
(0.000455606 0.000749156 0)
(-0.000156567 0.000729212 0)
(0.000159437 0.000426039 0)
(-0.000358721 0.000244751 0)
(-0.00116101 0.000993764 0)
(-0.000580075 0.00172225 1.07808e-30)
(0.000443548 0.0014928 -1.09396e-30)
(0.000786374 0.000706368 0)
(0.000201055 -5.12411e-07 0)
(-0.00041041 0.000129453 0)
(-0.000467343 0.000250501 0)
(7.98721e-05 0.000326705 0)
(0.000396186 0.000234535 0)
(-0.000165177 4.65336e-05 0)
(7.41061e-05 -0.000113876 0)
(1.75972e-05 -0.000182068 0)
(-0.000185806 -0.00017167 0)
(-0.000216367 -0.000175719 0)
(-0.000196347 -0.00017752 0)
(-0.000188627 -0.000169409 0)
(-0.000210366 -0.000130893 0)
(-0.000199537 -0.000120829 0)
(-0.000218889 -7.79726e-05 0)
(-0.000210583 -7.16553e-05 0)
(-0.000210524 -4.5389e-05 0)
(-0.000218721 -1.71131e-05 -7.80214e-23)
(-0.000468475 0.000119108 -5.16882e-22)
(-0.000481073 0.000396177 -4.78798e-22)
(-0.000497988 0.000762541 -2.57147e-22)
(-0.000559274 0.00110726 0)
(-0.000579529 0.00152389 0)
(-0.000608721 0.00195791 0)
(-0.000693529 0.0023967 0)
(-0.000796243 0.00284325 0)
(-0.000916485 0.00322586 0)
(-0.00106535 0.00351889 0)
(-0.00105155 0.00373932 0)
(-0.00131644 0.00373404 0)
(-0.000938611 0.0037141 0)
(-0.00142601 0.00333297 0)
(-0.00126977 0.0030657 0)
(0.000141592 0.00257498 -1.56999e-22)
(-6.71204e-05 0.00261097 -3.79667e-22)
(-0.000332051 0.00310903 2.41699e-21)
(0.000378186 0.00287193 -1.23741e-20)
(0.000897918 0.00229712 -2.95735e-20)
(0.000878436 0.00258232 4.40727e-20)
(0.000946664 0.00300497 -3.80629e-21)
(0.000786009 0.00305662 -6.17275e-22)
(0.000320567 0.00240008 2.35087e-22)
(-0.000151278 0.00184328 2.88139e-22)
(-0.00101655 0.00118858 0)
(-0.00166327 0.000673964 0)
(-0.00102102 0.000148995 0)
(-0.00121705 -0.000217878 0)
(-0.00113137 -0.000478571 0)
(-0.000793856 -0.000704867 0)
(-0.000662889 -0.000781624 0)
(-0.000571948 -0.000767143 0)
(-0.000519069 -0.000697603 0)
(-0.000433065 -0.000632424 0)
(-0.000410003 -0.000515431 0)
(-0.000345265 -0.000420718 0)
(-0.000337387 -0.000303596 0)
(-0.000310068 -0.000181827 0)
(-0.000273005 -7.72184e-05 0)
(-0.000794139 0.000257499 0)
(-0.00082896 0.000745471 0)
(-0.000954865 0.00117726 0)
(-0.00113842 0.00172985 0)
(-0.00127849 0.00237973 -4.72162e-22)
(-0.00150199 0.00304706 0)
(-0.00177747 0.0038055 0)
(-0.00213922 0.00454971 0)
(-0.00250036 0.00524496 0)
(-0.0027974 0.00586507 0)
(-0.00297598 0.00628011 0)
(-0.00258552 0.00657308 0)
(-0.00271581 0.00634662 -1.39899e-22)
(-0.00110232 0.00591698 1.8553e-21)
(0.000242098 0.00525415 -1.17291e-20)
(-0.000365226 0.00471797 3.63718e-21)
(0.000794888 0.00455796 -2.44331e-20)
(0.00251857 0.00416133 -3.44698e-20)
(0.0030479 0.00415733 4.96254e-20)
(0.00281229 0.00438092 1.95557e-19)
(0.00208599 0.00460482 -1.21603e-19)
(0.00134286 0.00496715 -6.4549e-20)
(0.0012222 0.00521869 -2.18775e-20)
(0.00124226 0.00486372 3.84627e-20)
(0.000294766 0.00350218 -2.21951e-20)
(-0.000545189 0.00227094 1.38929e-20)
(-0.000705137 0.00100689 -2.49672e-21)
(-0.00184546 -0.000264959 2.65784e-22)
(-0.00188785 -0.00113982 0)
(-0.0018838 -0.00169106 0)
(-0.00181992 -0.00193343 0)
(-0.00156665 -0.00207356 0)
(-0.00133778 -0.00206711 0)
(-0.00110171 -0.00194497 0)
(-0.000903825 -0.00174194 0)
(-0.00077903 -0.00146012 0)
(-0.000643605 -0.00114966 0)
(-0.000602942 -0.000823973 0)
(-0.000538255 -0.00047286 0)
(-0.00046847 -0.00013207 0)
(-0.00109596 0.000185274 0)
(-0.00121849 0.000590609 0)
(-0.00138733 0.0014259 0)
(-0.0016418 0.00220094 0)
(-0.00191511 0.00295546 0)
(-0.00233763 0.00374868 0)
(-0.00291743 0.00460025 0)
(-0.00359939 0.00551534 0)
(-0.00429933 0.00646215 0)
(-0.00501181 0.00733172 0)
(-0.00549159 0.00800723 7.24827e-23)
(-0.00571916 0.0082763 1.20873e-21)
(-0.004499 0.00867611 -2.16156e-20)
(-0.00419669 0.00810927 -5.42927e-20)
(-0.0034948 0.00723069 5.53337e-20)
(-5.25865e-05 0.00626388 5.58795e-21)
(0.000892051 0.006111 2.01291e-19)
(0.00296536 0.00672081 -9.43314e-20)
(0.00488149 0.00684315 -3.67161e-20)
(0.00490268 0.00709373 -2.01453e-19)
(0.00411055 0.00753333 1.54282e-19)
(0.00323003 0.0072723 -1.30101e-19)
(0.00248886 0.00631159 3.00401e-19)
(0.00139283 0.00524156 -5.30214e-20)
(0.000601131 0.00405951 -1.37583e-19)
(-0.00134777 0.00186369 -7.44897e-20)
(-0.00334449 0.000305983 6.67491e-20)
(-0.00298373 -0.00125806 2.09601e-20)
(-0.00314219 -0.00228822 -1.75931e-21)
(-0.00296322 -0.00305565 -1.7595e-22)
(-0.00268907 -0.00353775 0)
(-0.0024477 -0.0036692 0)
(-0.00215489 -0.00352294 0)
(-0.00182872 -0.0031798 0)
(-0.00155996 -0.00272326 0)
(-0.00128377 -0.00225883 0)
(-0.00106179 -0.00175501 0)
(-0.000984017 -0.00119828 0)
(-0.000887232 -0.000679291 0)
(-0.000764872 -0.000169446 0)
(-0.00134935 0.000157704 0)
(-0.00146471 0.000841393 0)
(-0.00176854 0.00129123 0)
(-0.002131 0.00193839 0)
(-0.00252545 0.00271838 0)
(-0.00310601 0.00354925 0)
(-0.00386965 0.00450043 0)
(-0.00473385 0.00556194 0)
(-0.00572866 0.00669149 0)
(-0.0065767 0.00801687 3.25903e-22)
(-0.00677074 0.0096422 -2.19376e-21)
(-0.00642199 0.0109431 -4.70027e-21)
(-0.00653623 0.0110134 -2.04718e-20)
(-0.00522868 0.0107893 1.20156e-20)
(-0.00293098 0.0101149 1.19115e-19)
(-0.00254828 0.00794111 -3.85952e-20)
(-0.000500699 0.00886028 -3.0548e-20)
(0.00367069 0.0104918 -1.61168e-19)
(0.00571556 0.0103219 -2.72946e-19)
(0.00685655 0.010179 5.91953e-19)
(0.00700749 0.00981418 -3.63934e-19)
(0.00686331 0.00938674 5.2018e-20)
(0.00551169 0.00787945 1.5624e-19)
(0.00385138 0.00649019 -2.84078e-19)
(0.00243876 0.00491415 3.33524e-19)
(0.00114004 0.00178015 -1.03669e-19)
(9.66443e-05 -0.000991614 -6.35548e-21)
(-0.00250377 -0.00267242 2.62307e-20)
(-0.00344769 -0.00369331 -1.24877e-20)
(-0.00353084 -0.00440334 1.23565e-20)
(-0.00326867 -0.00479771 -1.60097e-21)
(-0.00308117 -0.00475497 0)
(-0.00277748 -0.00443198 0)
(-0.00233826 -0.00400545 0)
(-0.00200605 -0.00347518 0)
(-0.00168476 -0.0029231 0)
(-0.00147274 -0.00230593 0)
(-0.00140495 -0.00163986 0)
(-0.00135489 -0.000827283 0)
(-0.00123493 -0.000375093 0)
(-0.00156101 0.000353975 0)
(-0.00169 0.000545443 0)
(-0.00191715 0.00120029 0)
(-0.00225349 0.00177697 0)
(-0.00274139 0.00227668 0)
(-0.00341097 0.00300842 0)
(-0.0042919 0.00391873 0)
(-0.00529734 0.00503669 0)
(-0.0063602 0.00652833 -4.00786e-21)
(-0.00740665 0.00831876 2.72433e-20)
(-0.00877415 0.00969346 -3.55557e-21)
(-0.0102204 0.0106904 -6.4898e-20)
(-0.0113582 0.0119027 -6.98385e-20)
(-0.0104355 0.0136199 1.21162e-19)
(-0.00960215 0.0132464 5.00946e-20)
(-0.00567511 0.0121718 -1.84734e-20)
(-0.00263868 0.0148439 -2.09666e-19)
(0.00174503 0.0172459 3.69672e-20)
(0.00495147 0.0148705 2.74041e-19)
(0.00777089 0.0129421 -1.77527e-19)
(0.00953659 0.0139335 7.4166e-22)
(0.0100493 0.0125283 -1.08636e-19)
(0.00803112 0.0085758 1.54329e-20)
(0.0066492 0.00715043 3.62095e-19)
(0.00372284 0.00549594 -1.77366e-19)
(0.00268276 0.00222404 -3.24798e-20)
(-6.88804e-05 -0.000536817 -1.49219e-19)
(-0.000821986 -0.00354565 1.82579e-19)
(-0.00207349 -0.00494679 -5.18072e-20)
(-0.00343385 -0.00536057 -1.66251e-20)
(-0.00359184 -0.00554992 1.37668e-20)
(-0.00310498 -0.00559669 4.06179e-22)
(-0.00279504 -0.00519471 0)
(-0.00246342 -0.00462088 0)
(-0.00221901 -0.00401009 0)
(-0.00203648 -0.00328442 0)
(-0.00192423 -0.00259737 0)
(-0.00192216 -0.00182906 0)
(-0.00192321 -0.00115231 0)
(-0.00191054 -6.49617e-05 0)
(-0.00164047 -0.000153593 0)
(-0.00175772 0.000609114 0)
(-0.00194463 0.00103867 0)
(-0.00223418 0.00134935 0)
(-0.0026674 0.00181195 0)
(-0.00332566 0.00240417 0)
(-0.00418795 0.00322235 0)
(-0.0052867 0.00441163 2.06473e-21)
(-0.00655811 0.00577804 1.46877e-21)
(-0.00843366 0.00731054 -4.27971e-20)
(-0.0108963 0.00957973 6.08992e-20)
(-0.0129737 0.0120596 4.69556e-20)
(-0.0131422 0.015259 -1.8039e-19)
(-0.0154354 0.0165753 4.67514e-20)
(-0.011067 0.0203826 2.29232e-19)
(-0.00711957 0.0216124 -1.9958e-19)
(-0.00111028 0.0195161 -1.04358e-19)
(-0.000861874 0.0207638 2.82449e-19)
(0.00192448 0.0198336 5.00382e-20)
(0.00548853 0.0183465 -1.46787e-19)
(0.00942151 0.0174864 -8.14768e-20)
(0.010499 0.013729 -1.00782e-19)
(0.0101618 0.01065 3.46835e-19)
(0.00963242 0.00757906 -2.28416e-20)
(0.00898027 0.007003 2.3704e-19)
(0.00657389 0.00272112 -2.67739e-19)
(0.00612712 -0.00139774 -1.086e-20)
(0.00391175 -0.00374162 1.09307e-19)
(0.00126705 -0.00562086 5.2759e-21)
(-0.000706428 -0.00697009 2.05926e-20)
(-0.00223664 -0.00685312 -4.22185e-20)
(-0.00265396 -0.00630016 1.54035e-20)
(-0.00240657 -0.00591739 -5.34154e-22)
(-0.00228333 -0.00533655 0)
(-0.0022649 -0.00467781 0)
(-0.00228467 -0.00396935 0)
(-0.00239114 -0.00314222 0)
(-0.00250105 -0.00230058 0)
(-0.00256389 -0.00129528 0)
(-0.00258285 -0.00084599 0)
(-0.0013273 0.000569648 0)
(-0.00147182 0.000346505 0)
(-0.00165556 0.000510299 0)
(-0.0018858 0.000652517 0)
(-0.00228075 0.000999306 0)
(-0.00290951 0.00143889 0)
(-0.00379085 0.00218161 0)
(-0.00491183 0.00302287 -2.70167e-21)
(-0.00669385 0.00408311 -2.12777e-20)
(-0.00955688 0.0056731 2.54647e-20)
(-0.0128916 0.00850357 5.08441e-20)
(-0.0157993 0.0130873 -6.64018e-21)
(-0.0169028 0.0165462 -1.36959e-20)
(-0.0147235 0.0194895 6.63338e-20)
(-0.0131012 0.0238787 -5.81742e-20)
(-0.0138444 0.0253256 -2.02553e-19)
(-0.00982471 0.0274189 2.77181e-20)
(-0.00453693 0.026624 4.38855e-19)
(-0.000636923 0.027615 2.71282e-19)
(0.00174664 0.0261137 2.52194e-19)
(0.00608146 0.0224862 1.55271e-19)
(0.00961555 0.0180714 2.22119e-19)
(0.0128925 0.014163 2.5778e-19)
(0.0135574 0.0118196 3.995e-19)
(0.0155937 0.00690944 9.02473e-20)
(0.0106215 0.00284128 -6.74636e-20)
(0.0099465 0.00185171 3.16848e-20)
(0.00828867 -0.002157 1.58569e-20)
(0.00685383 -0.0068987 4.60224e-20)
(0.00414302 -0.00855172 -4.76376e-20)
(0.00123533 -0.00877185 7.64092e-21)
(-0.000778875 -0.00804672 1.81408e-21)
(-0.00164675 -0.00721234 3.52119e-21)
(-0.00195141 -0.00659465 0)
(-0.00231547 -0.00579073 0)
(-0.00259284 -0.00491665 0)
(-0.00285993 -0.00393931 0)
(-0.00304127 -0.00302534 0)
(-0.00316626 -0.0018816 0)
(-0.00324473 -0.000137256 0)
(-0.000627465 -0.000498769 0)
(-0.000656052 0.000268889 0)
(-0.000751057 0.000416326 0)
(-0.00102671 0.000693437 0)
(-0.0014288 0.000677544 0)
(-0.00205013 0.000855715 0)
(-0.00284497 0.00101429 -2.23812e-21)
(-0.00403744 0.00143158 2.87073e-21)
(-0.0067262 0.00259757 -4.52848e-21)
(-0.0104438 0.00516526 1.23411e-20)
(-0.0140222 0.00956023 -1.22413e-20)
(-0.0171355 0.0138201 2.0061e-20)
(-0.018837 0.0179533 -1.32188e-20)
(-0.015126 0.0261054 7.82862e-21)
(-0.0159299 0.026193 2.45761e-19)
(-0.0134525 0.0284214 -3.71701e-20)
(-0.00985803 0.0342447 3.68213e-20)
(-0.00521892 0.033293 -5.05476e-20)
(-0.00111722 0.0328986 -3.29609e-20)
(0.00250173 0.0321071 -1.57076e-21)
(0.00892026 0.0300941 -3.99878e-20)
(0.0156554 0.0267262 9.37897e-20)
(0.0196748 0.0203352 1.28982e-19)
(0.0263001 0.0141947 -6.18222e-20)
(0.0208566 0.00742093 -9.94582e-20)
(0.0257707 0.00245248 1.60969e-19)
(0.01935 0.00155321 1.24741e-19)
(0.0187158 -0.00285756 9.16921e-20)
(0.0140991 -0.00534373 -4.89049e-20)
(0.010186 -0.00832986 -3.86802e-20)
(0.00609651 -0.0101901 1.58557e-21)
(0.00230532 -0.0101172 1.14106e-20)
(-0.000430768 -0.00909096 -5.58816e-21)
(-0.00151476 -0.00812603 -5.76227e-22)
(-0.00226394 -0.00706526 0)
(-0.00285809 -0.00574145 0)
(-0.00332542 -0.00447252 0)
(-0.00363093 -0.00299847 0)
(-0.00383899 -0.00176934 0)
(-0.00397461 -0.00108152 0)
(0.000317291 0.000484543 0)
(0.000288431 -1.65875e-05 0)
(0.000221784 -0.000137817 0)
(4.21779e-05 -0.000404797 0)
(-0.000241292 -0.000593982 0)
(-0.00060134 -0.000713246 0)
(-0.00117992 -0.000634237 -8.22971e-22)
(-0.00317275 0.000186423 5.55201e-21)
(-0.00721718 0.00207791 -3.64407e-21)
(-0.0112077 0.00530912 2.03929e-20)
(-0.0150216 0.00993529 2.28185e-21)
(-0.0198851 0.0183667 -2.71384e-20)
(-0.0234623 0.0282094 9.02802e-21)
(-0.0188057 0.0296538 -3.0035e-20)
(-0.0183694 0.0341216 -1.10689e-20)
(-0.0129515 0.0335256 -3.79956e-20)
(-0.00967139 0.0342809 -7.31442e-20)
(-0.00803931 0.0345898 2.02967e-20)
(-0.00509624 0.0356893 4.02222e-20)
(-0.00108226 0.0398735 3.1177e-20)
(0.0096427 0.0422279 -1.7091e-19)
(0.0240479 0.0379719 -9.27946e-20)
(0.0333157 0.0288858 -5.46433e-20)
(0.0366301 0.0177217 2.89008e-20)
(0.0374274 0.00870741 -4.16615e-20)
(0.0378401 0.00252747 -5.4329e-21)
(0.032519 -0.00533509 3.25003e-20)
(0.0290763 -0.00925639 9.92679e-21)
(0.0233633 -0.00863976 -2.07661e-20)
(0.0178208 -0.0101407 -3.33719e-21)
(0.0118566 -0.0111513 8.06805e-21)
(0.00600205 -0.0119926 1.22177e-20)
(0.00107169 -0.0114303 -7.0657e-21)
(-0.00150595 -0.0100625 -3.379e-22)
(-0.00265488 -0.0086985 0)
(-0.00348193 -0.00722286 0)
(-0.00409392 -0.00579451 0)
(-0.00451261 -0.00451827 0)
(-0.0046856 -0.00304114 0)
(-0.0047933 -0.000434339 0)
(0.00130353 8.54421e-05 0)
(0.0014879 -9.48283e-05 0)
(0.00112318 -0.000168402 0)
(0.00121877 -0.00106299 0)
(0.00105219 -0.00151484 0)
(0.0007713 -0.00179965 0)
(-1.26306e-05 -0.00169954 3.01847e-22)
(-0.00295576 -0.000942522 3.42216e-21)
(-0.00871439 0.00153188 -3.56005e-21)
(-0.0145277 0.00658455 1.03205e-21)
(-0.0187607 0.0104671 6.52666e-21)
(-0.0236453 0.0163204 -1.63205e-20)
(-0.0289487 0.0284933 2.86505e-21)
(-0.0240661 0.0316671 4.18061e-20)
(-0.0230075 0.0356698 2.19806e-20)
(-0.0170182 0.0356829 -4.06913e-21)
(-0.0107746 0.0333521 2.53828e-21)
(-0.00896116 0.0296084 1.20967e-22)
(-0.0129472 0.0297568 -1.52261e-20)
(-0.0158871 0.043728 1.14529e-19)
(0.00475725 0.0620755 -1.88708e-19)
(0.0390013 0.0564004 -1.48485e-19)
(0.0551295 0.0338634 -2.94221e-23)
(0.0562927 0.0150458 -2.23635e-21)
(0.0517263 0.00149993 -5.86782e-22)
(0.0471207 -0.0079486 3.27283e-21)
(0.0420277 -0.00552709 -3.01381e-21)
(0.0362654 -0.01447 2.31523e-20)
(0.03195 -0.011365 -6.38955e-21)
(0.0259313 -0.0114842 -1.03638e-20)
(0.0172271 -0.0135818 3.79616e-21)
(0.00925391 -0.0146584 -2.36289e-21)
(0.00233103 -0.0138246 7.33234e-22)
(-0.00218568 -0.0121626 4.10969e-22)
(-0.00386548 -0.0103194 0)
(-0.00465376 -0.00835605 0)
(-0.00511573 -0.00620093 0)
(-0.00546316 -0.00437613 0)
(-0.00579724 -0.00227378 0)
(-0.00605485 -0.0016408 0)
(0.00257147 -0.000963012 0)
(0.0023509 -3.05361e-05 0)
(0.00259134 -0.00120361 0)
(0.00222453 -0.00156675 0)
(0.00186607 -0.00214441 0)
(0.00168255 -0.00272823 0)
(0.000205408 -0.00269735 -1.74854e-22)
(-0.00514665 -0.0015348 -3.36628e-22)
(-0.0119145 0.000661578 8.9085e-22)
(-0.0190926 0.00573491 1.02838e-23)
(-0.0253508 0.0112726 9.69985e-22)
(-0.0301433 0.0158775 -1.29133e-21)
(-0.0339435 0.0263612 -2.86839e-21)
(-0.0372971 0.0339275 1.90613e-20)
(-0.0272621 0.0380456 1.56396e-20)
(-0.0188584 0.0408316 -2.64164e-21)
(-0.00595796 0.0364125 5.03833e-21)
(0.00406187 0.0235171 -7.15355e-22)
(0.0167898 -0.0225037 2.86574e-20)
(0.0971647 0.0233365 4.60668e-20)
(0.0769639 -0.00528898 -1.04039e-20)
(0.0615854 -0.0142875 -3.63624e-21)
(0.0525393 -0.0177097 1.82487e-20)
(0.0496177 -0.0133054 -2.12688e-21)
(0.0437287 -0.0166523 6.10276e-21)
(0.0401124 -0.0130074 -9.65936e-22)
(0.0311101 -0.0157157 -7.21593e-22)
(0.0206028 -0.0172257 -2.13609e-21)
(0.0111343 -0.0170821 -1.34134e-22)
(0.00251097 -0.015857 -1.15982e-22)
(-0.00405781 -0.0141381 -1.97532e-22)
(-0.00647252 -0.0119212 0)
(-0.00711194 -0.00934655 0)
(-0.00747678 -0.00708298 0)
(-0.00766446 -0.00492926 0)
(-0.00781764 -0.00353716 0)
(-0.00764649 -0.000400637 0)
(0.00464879 0.000954945 0)
(0.00358128 -0.00120048 0)
(0.00289113 -0.00203572 0)
(0.0024238 -0.00265281 0)
(0.00221145 -0.00335685 0)
(0.00131987 -0.00400393 0)
(-0.00150892 -0.00401496 -5.86721e-22)
(-0.00879046 -0.00263217 1.80084e-21)
(-0.0187122 0.000507752 -6.76042e-21)
(-0.0285074 0.0052413 7.14726e-21)
(-0.0397987 0.0122372 -1.02129e-20)
(-0.04589 0.0187484 1.07877e-20)
(-0.0495179 0.0285605 -2.43822e-21)
(-0.0511517 0.0385655 1.40219e-20)
(-0.0383005 0.0456321 2.06895e-20)
(-0.0251777 0.053556 9.19506e-21)
(-0.000387681 0.0558218 -1.70043e-20)
(0.037866 0.0462971 -1.03518e-21)
(0.00899239 -0.0231514 5.92922e-18)
(0.00719341 -0.0257274 3.00477e-19)
(0.0821352 -0.0483457 6.46026e-21)
(0.0567751 -0.0385767 -5.46599e-21)
(0.0509257 -0.0276963 2.93918e-21)
(0.0483373 -0.0262044 1.69105e-20)
(0.0469941 -0.0187194 -1.34095e-20)
(0.0411283 -0.0179459 8.11922e-21)
(0.0322021 -0.020298 2.07046e-21)
(0.0205494 -0.0202102 3.40028e-21)
(0.0103481 -0.0190651 -1.14842e-21)
(0.000243714 -0.0176614 1.3194e-22)
(-0.00786589 -0.0154707 -3.26003e-23)
(-0.0107609 -0.0128272 0)
(-0.0111927 -0.0101029 0)
(-0.0111908 -0.00806574 0)
(-0.0109996 -0.0061828 0)
(-0.0103438 -0.00381076 0)
(-0.0100883 -0.00193315 0)
(0.00174755 -0.000318436 3.36036e-23)
(0.00312717 -0.00156054 0)
(0.00224124 -0.00249112 0)
(0.00107701 -0.00406716 0)
(-0.000214613 -0.00539073 0)
(-0.00118064 -0.00613491 0)
(-0.00662256 -0.00619636 -1.74739e-21)
(-0.0181099 -0.00522334 4.15391e-21)
(-0.0334977 -0.00183482 -1.90295e-21)
(-0.0463095 0.00214905 -8.08385e-21)
(-0.0605395 0.0106961 -4.03777e-21)
(-0.072046 0.0185957 2.33212e-20)
(-0.0803008 0.0259367 -5.13155e-21)
(-0.080588 0.0368747 -2.92085e-20)
(-0.0747041 0.0545491 -1.48295e-19)
(-0.0502775 0.0750225 -2.74613e-20)
(-0.0164459 0.0960506 -6.04954e-20)
(0.0980854 0.101306 1.71454e-20)
(0.148675 -0.00184502 -1.74423e-19)
(0.069525 -0.0335756 -4.5354e-20)
(0.073758 -0.0921969 2.52409e-20)
(0.0300094 -0.0646141 -2.78566e-20)
(0.0217508 -0.0402099 -9.99761e-20)
(0.0279725 -0.0314203 1.99707e-20)
(0.0281617 -0.0202274 6.46281e-20)
(0.0296721 -0.0246813 -2.23734e-20)
(0.0242277 -0.023625 -2.12947e-20)
(0.015804 -0.0209353 -5.22428e-21)
(0.00522644 -0.0196033 3.63799e-21)
(-0.00585117 -0.0180947 1.62258e-21)
(-0.0143066 -0.0153135 -1.1609e-21)
(-0.0171614 -0.01185 0)
(-0.0161691 -0.00860474 0)
(-0.0151324 -0.00580148 0)
(-0.0147477 -0.003913 0)
(-0.0147416 -0.00204612 0)
(-0.0142878 0.000328589 0)
(0.00520352 -0.00283468 -1.23181e-23)
(0.00270151 -0.00434268 0)
(0.00148694 -0.00516187 0)
(0.000629096 -0.00646759 0)
(-0.00148144 -0.00815109 0)
(-0.00490111 -0.0106011 0)
(-0.0129812 -0.0121343 -3.98412e-23)
(-0.0289649 -0.0125931 -2.04931e-21)
(-0.0493001 -0.00950982 -1.96655e-21)
(-0.0681298 -0.00747973 -8.18664e-21)
(-0.0901872 -0.00308275 3.33679e-20)
(-0.108445 0.00538313 2.62063e-20)
(-0.123946 0.0089922 -4.11723e-20)
(-0.113089 0.0283422 -9.21622e-20)
(-0.112374 0.0558456 2.42002e-19)
(-0.0988181 0.0927976 -1.92149e-19)
(-0.0733983 0.135959 2.31066e-20)
(0.120677 0.183778 -1.98253e-19)
(0.172732 0.196661 -5.36682e-20)
(-0.194067 0.310721 -1.3471e-19)
(0.00200503 0.346947 5.73578e-21)
(0.29723 0.142422 2.43475e-19)
(0.215638 -0.127554 -1.12215e-19)
(0.0437325 -0.123788 -8.9322e-21)
(-0.0106728 -0.0792093 7.04928e-20)
(-0.00524602 -0.0512236 4.71836e-20)
(0.00498288 -0.0301799 2.28745e-19)
(0.00193108 -0.0125173 -1.86957e-20)
(0.00307042 -0.0147534 9.27901e-20)
(0.00652359 -0.0158009 -7.40866e-20)
(0.00487193 -0.0152329 3.1643e-20)
(-0.00370589 -0.0157694 -1.66109e-20)
(-0.0139813 -0.0151492 -4.60342e-21)
(-0.0231897 -0.0125798 -8.1687e-22)
(-0.0252861 -0.0100627 0)
(-0.0231164 -0.00675487 0)
(-0.0211938 -0.00444734 0)
(-0.0196765 -0.0027216 0)
(-0.0186818 -0.00163192 0)
(-0.0190357 -0.00083122 0)
(0.00463252 -0.00162752 4.23686e-22)
(0.00416926 -0.00499957 0)
(0.00316916 -0.0080921 0)
(0.0014451 -0.0109232 0)
(-0.0012364 -0.0138733 0)
(-0.00519856 -0.0174943 0)
(-0.0150039 -0.0206612 4.76193e-24)
(-0.0341411 -0.0245578 2.72892e-21)
(-0.0596397 -0.0228789 3.16061e-21)
(-0.084 -0.0246943 2.36964e-20)
(-0.10462 -0.0224001 -4.65118e-20)
(-0.124877 -0.0174245 1.92116e-20)
(-0.141815 -0.00996763 1.66154e-21)
(-0.14586 0.00749193 -1.92205e-20)
(-0.157012 0.0292596 7.09399e-20)
(-0.175588 0.0650441 -1.74837e-19)
(-0.167106 0.125158 2.24702e-20)
(0.0933858 0.163734 -1.86662e-19)
(0.0430822 0.368272 7.23592e-19)
(-0.129353 0.172288 3.41602e-18)
(0.257187 0.000899792 8.05821e-19)
(0.599788 -0.0977228 -1.30598e-21)
(0.3662 -0.0743976 5.31451e-19)
(-0.0635324 -0.108252 1.22674e-19)
(-0.0501021 -0.0797191 9.09001e-21)
(-0.0322251 -0.0518537 9.19453e-20)
(-0.0149186 -0.0286597 -1.81324e-19)
(-0.00739776 -0.00840921 4.62407e-20)
(0.000860285 -0.000635971 -7.75789e-21)
(0.000605862 -0.000439911 1.81484e-20)
(-0.00645255 -0.00427726 -1.10638e-20)
(-0.0130514 -0.00604585 -6.71097e-21)
(-0.0218316 -0.0072687 -2.95599e-21)
(-0.0309895 -0.00660773 5.55971e-23)
(-0.0327139 -0.0041522 0)
(-0.0305319 -0.00296381 0)
(-0.0278046 -0.00253835 0)
(-0.0253376 -0.00197603 0)
(-0.0228077 -0.000941466 0)
(-0.0208359 -0.00039061 3.09078e-22)
(0.00886041 -0.00225895 -4.34954e-23)
(0.00885034 -0.0062378 0)
(0.00774039 -0.010868 0)
(0.0052424 -0.0153704 0)
(0.00204598 -0.0196545 0)
(-0.00172932 -0.0249089 0)
(-0.012099 -0.0290499 0)
(-0.032765 -0.0353072 1.08338e-21)
(-0.0581541 -0.0375353 -1.31806e-21)
(-0.0848962 -0.0409696 -1.15536e-20)
(-0.108933 -0.0383189 1.2945e-20)
(-0.130732 -0.035036 3.21994e-20)
(-0.14887 -0.0326802 -9.71909e-20)
(-0.166841 -0.0302342 3.2236e-20)
(-0.185699 -0.0169188 3.14437e-20)
(-0.227202 -0.0092926 5.63574e-21)
(-0.241194 0.0352915 1.67217e-19)
(-0.230111 0.19197 4.64606e-19)
(0.123514 0.400695 1.24278e-18)
(0.351165 0.0616494 -1.02975e-18)
(0.401412 -0.136184 -1.0129e-18)
(0.412071 0.0379013 2.83818e-20)
(0.380991 0.0108819 6.47754e-19)
(-0.0539459 -0.0485119 2.56575e-18)
(-0.0917273 -0.0783468 1.04422e-19)
(-0.0709481 -0.0358709 -1.52421e-19)
(-0.0387557 -0.00124327 -4.20649e-20)
(-0.0120382 0.00509556 7.49587e-20)
(0.00309642 0.0126162 -3.35514e-20)
(0.00454519 0.0130647 -3.0688e-20)
(-0.000659757 0.0109197 8.00184e-21)
(-0.011911 0.006261 1.90137e-21)
(-0.0250708 0.00354695 1.121e-21)
(-0.0347256 0.00267365 0)
(-0.0347469 0.00324783 0)
(-0.0310744 0.0032515 0)
(-0.0278616 0.00273487 0)
(-0.0257272 0.00211206 0)
(-0.0245554 0.0015241 0)
(-0.0247268 0.000450169 3.96374e-22)
(0.0135556 -0.0022275 -1.94419e-22)
(0.013627 -0.00749714 0)
(0.0131114 -0.0128098 0)
(0.0117395 -0.0180905 0)
(0.00971738 -0.0236051 0)
(0.00645737 -0.0302508 0)
(-0.00303298 -0.0369461 0)
(-0.0251821 -0.0452675 0)
(-0.0515272 -0.0500233 1.87522e-21)
(-0.0782763 -0.0539577 3.50852e-21)
(-0.101396 -0.0575895 -1.75788e-20)
(-0.127012 -0.0570031 9.7064e-21)
(-0.1454 -0.059614 4.27218e-20)
(-0.157591 -0.0771664 -4.38677e-20)
(-0.187237 -0.0808729 8.09696e-20)
(-0.213357 -0.102161 8.84675e-20)
(-0.332174 -0.0918217 1.55637e-19)
(-0.475937 0.0677879 -6.94514e-20)
(0.229645 -0.0555335 -1.90323e-19)
(0.826939 0.00817399 1.9358e-18)
(0.388621 -0.0421763 6.25831e-19)
(0.0625103 0.0306182 1.67329e-18)
(0.491117 0.0840479 -1.17612e-18)
(0.0459808 -0.0819065 3.12686e-18)
(-0.180572 -0.0356922 -1.88226e-19)
(-0.113433 0.00434439 1.27158e-19)
(-0.0501382 0.0398227 9.64986e-21)
(-0.0100677 0.0345794 -5.39319e-20)
(0.012784 0.0328247 -1.30958e-20)
(0.01549 0.0279802 1.17839e-20)
(0.00819519 0.0244728 -2.28521e-21)
(-0.00485411 0.0199373 -1.24704e-22)
(-0.0197756 0.0172394 0)
(-0.0314656 0.0145648 0)
(-0.0329055 0.0124549 0)
(-0.0296228 0.0102591 0)
(-0.026196 0.00816549 -7.45331e-22)
(-0.0235057 0.00600492 -1.03074e-21)
(-0.0218806 0.00319493 -6.14642e-22)
(-0.0217986 0.00054533 0)
(0.020377 -0.00209056 0)
(0.0206614 -0.00828863 0)
(0.0210153 -0.0141832 0)
(0.0212951 -0.0206351 0)
(0.0210509 -0.0272803 0)
(0.0191261 -0.0346771 0)
(0.010738 -0.0421258 0)
(-0.00949125 -0.0512361 0)
(-0.0337725 -0.0595019 7.6147e-24)
(-0.0603198 -0.06813 3.42388e-22)
(-0.081465 -0.0786588 -1.87792e-21)
(-0.10431 -0.0882471 -3.66898e-21)
(-0.126795 -0.0933362 -2.05903e-20)
(-0.147311 -0.108494 1.60306e-20)
(-0.141588 -0.116618 -3.24403e-20)
(-0.169084 -0.12709 3.56804e-20)
(-0.410884 -0.137188 -2.21911e-19)
(-0.275581 -0.322444 -2.95454e-19)
(-0.0255653 -0.14008 -6.85369e-20)
(0.308569 0.344804 -2.09293e-20)
(0.475084 0.55244 -7.20692e-20)
(0.531182 0.238645 1.28944e-18)
(0.564401 -0.1061 9.11869e-21)
(0.131871 -0.0797874 4.53962e-19)
(-0.36529 0.0716376 1.1014e-20)
(-0.136845 0.0984003 6.19984e-21)
(-0.0267813 0.0756827 4.75216e-20)
(0.00559295 0.0590327 -7.50532e-20)
(0.0240437 0.0502462 5.00394e-21)
(0.0266861 0.0418882 5.82807e-21)
(0.0195469 0.0374545 -7.42087e-24)
(0.00459971 0.0315187 1.50576e-23)
(-0.0120765 0.0284962 0)
(-0.0254126 0.0249751 0)
(-0.0282487 0.0210256 0)
(-0.0257267 0.0167211 0)
(-0.0229242 0.0131669 0)
(-0.0205448 0.00970489 0)
(-0.0192194 0.00559762 0)
(-0.0187341 0.00162242 1.10698e-22)
(0.0290204 -0.00275614 0)
(0.0295041 -0.00853053 0)
(0.0306705 -0.0142129 0)
(0.0321139 -0.0208427 0)
(0.0334345 -0.027748 0)
(0.0333235 -0.0353278 0)
(0.0265863 -0.043012 0)
(0.00858015 -0.051693 0)
(-0.0133572 -0.0612452 0)
(-0.0358503 -0.0745345 0)
(-0.0547697 -0.091864 4.31848e-22)
(-0.0720101 -0.107581 -7.22982e-22)
(-0.0873245 -0.123156 -5.91465e-21)
(-0.115486 -0.133611 6.12019e-21)
(-0.122799 -0.129472 -3.07098e-19)
(-0.153364 -0.126866 1.09556e-19)
(-0.211207 -0.139679 -2.92986e-19)
(-0.281821 -0.176103 -5.71763e-20)
(-0.289958 -0.342025 -2.06591e-19)
(0.0768689 -0.455021 -4.21053e-19)
(0.494711 -0.418846 -6.36141e-19)
(0.734902 -0.274275 -6.19786e-19)
(0.603998 -0.0341155 2.43511e-19)
(-0.101782 0.200756 -1.02863e-19)
(-0.450123 0.218732 -1.81827e-19)
(-0.0770439 0.16229 6.4338e-20)
(0.000158879 0.0988963 3.38861e-21)
(0.0187537 0.0844476 -1.02257e-20)
(0.0317379 0.0694718 5.18861e-21)
(0.0327341 0.0589335 1.24728e-21)
(0.0259064 0.0533745 0)
(0.0105573 0.0450504 0)
(-0.00543113 0.0404097 0)
(-0.0179763 0.0339405 0)
(-0.021088 0.0277732 0)
(-0.0192034 0.0217459 0)
(-0.0168638 0.017147 0)
(-0.0151248 0.0125753 0)
(-0.0141189 0.00765823 0)
(-0.0134682 0.00259563 0)
(0.0375653 -0.0019777 0)
(0.0376114 -0.00663022 0)
(0.0388673 -0.0115364 0)
(0.0409719 -0.0174281 0)
(0.0438253 -0.0239785 0)
(0.0449015 -0.0313079 0)
(0.0396005 -0.0391987 0)
(0.0236274 -0.0485321 0)
(0.00458981 -0.0594225 0)
(-0.0119892 -0.0750143 0)
(-0.0265986 -0.0951518 0)
(-0.0349077 -0.116111 -1.4689e-22)
(-0.0493868 -0.145913 7.00688e-22)
(-0.0662317 -0.165643 2.25251e-21)
(-0.131259 -0.184035 -1.00477e-19)
(-0.312801 -0.0977932 1.09883e-19)
(-0.242139 -0.0176078 9.02177e-20)
(0.0580014 -0.128082 2.4243e-19)
(0.116492 -0.317084 4.46243e-21)
(0.232975 -0.465087 -3.75485e-19)
(0.32218 -0.438493 -6.65549e-19)
(0.260981 -0.207397 -6.47452e-19)
(0.025378 0.13384 -2.13752e-19)
(-0.285342 0.346439 -1.83593e-19)
(-0.300713 0.26104 8.5301e-21)
(0.034745 0.160058 -7.49879e-20)
(0.031846 0.11501 1.06934e-20)
(0.0409469 0.10639 -3.89348e-21)
(0.0446865 0.0895064 7.15874e-23)
(0.0436303 0.0786069 0)
(0.0354955 0.0695108 0)
(0.0208553 0.0584041 0)
(0.00547689 0.050916 0)
(-0.00762811 0.0409746 0)
(-0.0116478 0.0332362 0)
(-0.0105252 0.0260781 0)
(-0.00872157 0.020344 0)
(-0.00770542 0.0146104 0)
(-0.00700332 0.00873307 0)
(-0.00618562 0.00312172 0)
(0.0418323 -0.00186923 0)
(0.0434013 -0.00556397 0)
(0.0455694 -0.00936766 0)
(0.0484752 -0.0137299 0)
(0.0523906 -0.0187665 0)
(0.0550313 -0.0252009 0)
(0.0512345 -0.0329857 0)
(0.0382061 -0.0433477 0)
(0.0244408 -0.0557481 0)
(0.0154287 -0.0750207 0)
(0.00800834 -0.096034 -3.06143e-21)
(0.00905991 -0.124694 0)
(0.00182692 -0.163202 0)
(-0.0199019 -0.197494 -1.5118e-19)
(-0.246797 -0.265077 -2.15936e-19)
(-0.43821 -0.165451 -1.47173e-19)
(-0.115365 -0.317575 3.0956e-20)
(0.0846613 -0.273951 -6.77153e-20)
(0.132116 -0.0927403 -3.6185e-19)
(0.136543 0.151136 -3.48179e-18)
(0.123461 0.344616 1.32477e-19)
(-0.0120064 0.447038 -2.91819e-19)
(-0.163776 0.497489 -7.71024e-20)
(-0.257577 0.440694 1.62449e-20)
(-0.0243211 0.226973 7.75719e-21)
(0.0743925 0.0856315 -1.26708e-19)
(0.057645 0.120998 -6.7508e-20)
(0.0635777 0.107136 0)
(0.0656815 0.0937267 0)
(0.0615664 0.0857332 -2.79349e-21)
(0.0505123 0.074878 0)
(0.0357306 0.064617 0)
(0.019299 0.0560783 0)
(0.00481197 0.0457376 0)
(-0.00025627 0.0372765 0)
(-7.11855e-05 0.0289688 0)
(0.000982384 0.0218001 0)
(0.00153237 0.0150947 1.22668e-22)
(0.00211969 0.00872559 8.80035e-23)
(0.00296326 0.00241809 0)
(0.0467057 -0.00167149 0)
(0.0483658 -0.00337392 0)
(0.0511528 -0.00542231 0)
(0.0548927 -0.00805682 0)
(0.0598796 -0.0113186 0)
(0.0642641 -0.0157701 0)
(0.063219 -0.0221282 0)
(0.0550052 -0.032399 0)
(0.0474922 -0.0461414 0)
(0.046184 -0.0701187 0)
(0.0492458 -0.0955913 -1.22016e-20)
(0.0559077 -0.126832 0)
(0.0617756 -0.175285 0)
(0.0279911 -0.262103 1.24293e-19)
(-0.13543 -0.285212 4.19569e-19)
(-0.136327 -0.506277 1.37668e-19)
(-0.0883296 -0.615327 0)
(-0.24331 -0.541826 1.21885e-19)
(-0.291939 -0.414371 8.14305e-19)
(-0.325179 -0.27053 1.48409e-18)
(-0.28738 -0.10205 2.7972e-20)
(-0.173465 0.0514087 -4.9993e-19)
(-0.00970793 0.0506738 -9.85414e-20)
(0.17808 -0.00267391 0)
(0.241046 0.0123348 -7.52834e-20)
(0.0183985 0.117719 -4.9509e-20)
(0.0479978 0.121358 -3.00902e-20)
(0.0868572 0.102462 0)
(0.089298 0.0890582 0)
(0.0806565 0.0815746 5.39831e-21)
(0.0660053 0.0731614 0)
(0.0504624 0.0668574 0)
(0.032894 0.0595308 0)
(0.018879 0.0501938 0)
(0.0132096 0.0406738 0)
(0.0122283 0.0312598 -2.21924e-22)
(0.0119173 0.0229631 2.88386e-22)
(0.0114746 0.0153032 0)