/*--------------------------------*- C++ -*----------------------------------*\
| =========                 |                                                 |
| \\      /  F ield         | OpenFOAM: The Open Source CFD Toolbox           |
|  \\    /   O peration     | Version:  v2106                                 |
|   \\  /    A nd           | Website:  www.openfoam.com                      |
|    \\/     M anipulation  |                                                 |
\*---------------------------------------------------------------------------*/
FoamFile
{
    version     2.0;
    format      ascii;
    arch        "LSB;label=32;scalar=64";
    class       volScalarField;
    location    "0";
    object      p;
}
// * * * * * * * * * * * * * * * * * * * * * * * * * * * * * * * * * * * * * //

dimensions      [0 2 -2 0 0 0 0];

internalField   nonuniform List<scalar> 
11644
(
0.0821829
0.0817694
0.0809964
0.0799061
0.078238
0.0760185
0.0733144
0.0700212
0.0661596
0.0619276
0.0575886
0.0535768
0.0501708
0.0484249
0.0478023
0.0466678
0.0466485
0.0469354
0.0419752
0.0367278
0.0354131
0.0250918
0.0140055
0.00733071
0.00181526
-0.00327892
-0.00554352
-0.00618134
-0.00563058
-0.00383018
-0.00113163
0.00223433
0.0059274
0.00962064
0.0129753
0.0157823
0.0179891
0.0197434
0.0210534
0.021722
0.0843812
0.0840769
0.0832691
0.0819535
0.0801893
0.0780103
0.0752082
0.071893
0.0681486
0.0642174
0.0600792
0.0560072
0.0524355
0.0484783
0.0456659
0.0440674
0.0423022
0.043352
0.0373278
0.0347083
0.0283297
0.0216029
0.0105058
0.00406027
-0.00226939
-0.00601501
-0.00841478
-0.00844838
-0.00643543
-0.00332133
0.000308253
0.00417288
0.00799081
0.0115292
0.014706
0.0176331
0.0202267
0.022321
0.0236468
0.0240781
0.0842609
0.0844748
0.0842685
0.0833969
0.0821367
0.0805443
0.0785362
0.0761362
0.0733661
0.070128
0.0664888
0.0623021
0.0574458
0.0530252
0.0486974
0.0456374
0.0430906
0.0393144
0.0350611
0.0332748
0.0207883
0.0200142
0.0131516
0.00410273
-0.00348808
-0.00765559
-0.00843073
-0.00752028
-0.00487514
-0.00105183
0.0032878
0.00747473
0.0112694
0.0147327
0.0179108
0.0206604
0.0228587
0.0243255
0.025056
0.0251536
0.0827853
0.0831077
0.0833732
0.0836282
0.0836389
0.0832311
0.0825334
0.081531
0.080155
0.0782754
0.0753265
0.0705744
0.0652373
0.0575891
0.0507772
0.0464615
0.0411664
0.0346977
0.0324091
0.0261123
0.0185988
0.0135821
0.00942305
0.00422529
-0.00156836
-0.00459208
-0.00541686
-0.00299399
0.000641784
0.00456875
0.00858523
0.0125735
0.0161782
0.0192796
0.0218535
0.023825
0.0252338
0.0261657
0.0266954
0.0270344
0.0820657
0.0819123
0.0822277
0.0830148
0.0840987
0.0852125
0.0861459
0.0867982
0.0870198
0.0865497
0.0850147
0.0818273
0.0751431
0.06706
0.0572554
0.0491762
0.0442903
0.0311074
0.0227962
0.0078835
0.0106656
-0.000173503
0.0068193
0.0121682
0.00886171
0.00795069
0.00931887
0.00992256
0.0120989
0.0146953
0.0171923
0.0199451
0.0225241
0.0246151
0.0262441
0.027491
0.0283119
0.0288259
0.0291628
0.0291751
0.079416
0.080067
0.0807532
0.0816492
0.0831236
0.0850853
0.0874762
0.0900157
0.0922877
0.0940705
0.0945421
0.0921392
0.0874763
0.0750843
0.0573355
0.0409217
0.0342551
0.00728937
-0.00848065
-0.0103748
-0.00700346
0.000104774
0.0102533
0.0238775
0.0348535
0.0345359
0.0323287
0.0322079
0.0287673
0.0271612
0.0273893
0.0282876
0.0293246
0.0302731
0.0308337
0.0310858
0.0311527
0.031079
0.03134
0.0318795
0.0745287
0.0748204
0.0758072
0.077708
0.0799044
0.0825551
0.0858531
0.0898398
0.0939108
0.0965529
0.0959775
0.092465
0.0869377
0.0854277
0.072183
0.0408737
0.0057113
0.00918028
0.00320057
-0.00260317
0.00224472
0.0186634
0.0332527
0.0486719
0.080423
0.0811642
0.0732216
0.0585194
0.0469615
0.0397205
0.0360821
0.034978
0.0344324
0.0340023
0.0335048
0.0329944
0.0328117
0.032988
0.0329182
0.0328424
0.0682944
0.0682889
0.0690835
0.0700833
0.0718905
0.0747213
0.0784111
0.0827621
0.0871032
0.0888083
0.0856401
0.0797753
0.077087
0.0760979
0.0560233
0.0525063
0.0181725
0.00237999
-0.00384831
0.000398372
0.0189978
0.046525
0.0704827
0.0786438
0.0821511
0.104479
0.0891377
0.0782589
0.0604562
0.0498182
0.0424872
0.0384314
0.0361812
0.0347375
0.033824
0.0330925
0.0323514
0.0316808
0.0314163
0.0308199
0.0567937
0.0586028
0.0595514
0.0604975
0.0619645
0.0635582
0.065635
0.068164
0.0698099
0.067645
0.0618871
0.0521227
0.0387058
0.030004
0.0180703
-0.0076851
-0.00024398
-0.0267187
-0.045314
-0.0281214
0.00585133
0.0561076
0.0920741
0.11482
0.125749
0.0981995
0.0890866
0.0750636
0.062004
0.0532829
0.0437179
0.0370092
0.0336735
0.0314167
0.0299639
0.0291858
0.028818
0.0287044
0.0290612
0.0306129
0.0501138
0.048121
0.0475038
0.0478613
0.0481746
0.0483238
0.0479961
0.0470254
0.0446681
0.0380285
0.0262104
0.0148527
0.00531452
0.00345376
-0.0142303
-0.049867
-0.07451
-0.100743
-0.108138
-0.0831433
0.00754305
0.106882
0.157776
0.158131
0.13955
0.116041
0.0917626
0.0639782
0.0509557
0.0414879
0.0347696
0.0303603
0.0276018
0.0257681
0.0252168
0.025254
0.0255347
0.0258456
0.0255499
0.0241057
0.0390699
0.0406652
0.0399973
0.0379999
0.0353351
0.032804
0.0299336
0.025454
0.0191574
0.0125424
0.00196985
-0.0142922
-0.025744
-0.0192554
-0.0533371
-0.0535139
-0.0914384
-0.153324
-0.236139
-0.267057
-0.0149924
0.28475
0.311607
0.239309
0.172478
0.107493
0.0643589
0.0500777
0.0260946
0.0209442
0.021312
0.0206441
0.0198358
0.0196981
0.0199402
0.0196355
0.0188359
0.0183676
0.0188604
0.0207923
0.0321475
0.03005
0.0286804
0.0272778
0.0247037
0.0207902
0.0164137
0.0109524
0.0039973
-0.00149561
-0.00549213
-0.0217465
-0.0414509
-0.0524965
-0.0652564
-0.0695785
-0.0884206
-0.136124
-0.283923
0.57815
0.284639
0.137342
0.0572984
0.020554
0.00403011
0.00210979
0.00829715
0.011951
0.0150854
0.0166886
0.0163427
0.0155053
0.0147187
0.0140359
0.0141934
0.0143115
0.0145974
0.0297799
0.0250539
0.0213219
0.0182374
0.0155676
0.011912
0.00785357
0.00359734
0.00130277
0.00290054
0.00861569
0.0129147
-0.00764618
0.00160841
0.017154
0.0170016
0.0144112
0.0141129
0.0163778
0.286437
0.200663
0.0919532
0.0340692
0.0206424
-0.000700777
0.000342878
0.0102478
0.0147027
0.0214346
0.0220527
0.0183706
0.0152831
0.0133994
0.0116303
0.00917987
0.00586411
0.000502026
0.013078
0.0179862
0.0198747
0.0176542
0.015025
0.010617
0.00695382
0.00395055
0.00138884
0.0162836
0.0372209
0.0971051
0.0703899
0.0780425
0.0936686
0.11396
0.129492
0.194431
0.148961
0.0855432
0.0665754
0.0159763
0.00833201
0.0350332
0.0233308
-0.0136811
0.0198804
0.0303131
0.0388477
0.0312452
0.021886
0.0154494
0.0101434
0.00669412
0.00362215
0.0031042
0.00255035
0.00944159
0.00802922
0.0140599
0.015746
0.01784
0.0150693
0.0125524
0.00331774
-0.00684718
0.0204539
0.0450835
0.0551369
0.0639189
0.0633331
0.0730611
0.15
0.197837
0.267813
-0.147014
0.209804
0.346356
-0.0718639
0.137205
-0.0348742
-0.0704133
-0.0336347
0.0622403
0.0654537
0.0633738
0.0421019
0.0448364
0.0539999
0.0403166
0.0203041
0.0138204
0.011276
0.0107412
0.0100597
0.0124333
0.00965028
0.0228458
0.01459
0.0170079
0.0190424
0.0219688
0.0253559
0.01987
0.0105194
0.00919963
0.0137554
0.0123914
0.0165762
0.0894332
0.118766
0.0526166
0.0697618
0.127505
-0.0821975
-0.172911
-1.67417
0.949584
1.12555
-0.403502
-0.25579
-0.144117
0.0304117
-0.00504696
0.00772883
0.0720535
0.0610134
0.0442319
0.0372507
0.0320931
0.012798
0.00574007
0.010371
0.0129081
0.0152879
0.0176218
0.0136933
0.0288593
0.0339841
0.0308067
0.0309453
0.0350134
0.0380116
0.0346295
0.0234316
0.019568
0.0101049
-0.00813934
-0.0316611
0.0205725
0.0935195
0.0409431
-0.187832
-0.540144
0.0447156
1.35154
-1.72199
0.384996
0.301454
-0.935036
-0.0875283
0.170049
0.0890478
-0.0544238
0.044466
0.1041
0.0743915
0.0419296
0.0274105
0.0162971
-0.000237214
-0.00496145
-0.00144768
0.00408237
0.0059581
0.00625594
0.0167462
0.0355995
0.0411111
0.0426777
0.0437602
0.0416098
0.0382597
0.048287
0.0543787
0.0507888
0.0310198
0.00846614
0.00289805
0.0394555
-0.0726405
0.162773
-0.0148535
-0.366146
-2.2144
-0.127138
1.58202
-0.297125
-1.97674
0.116884
1.31684
0.175122
-0.226543
0.0616725
-0.0270547
0.0262321
0.0340995
0.013594
-0.0110836
-0.0171566
-0.00570727
0.00261815
-2.49663e-05
-0.00175119
0.000863616
0.00485368
0.00906888
0.0362964
0.0373737
0.0365208
0.035437
0.0319865
0.0308978
0.0428945
0.0664416
0.0841123
0.0968618
0.085558
0.0658429
-0.0165172
0.16786
-0.0859597
0.0905211
0.467145
0.940198
-2.55113
-1.70643
0.0264258
1.97604
1.90167
-1.41703
-0.56565
-0.0158179
-0.322474
-0.0311912
-0.087895
-0.0830531
-0.0739649
-0.0524595
-0.0242397
0.00622425
0.0220865
0.023545
0.0204288
0.0194277
0.0184674
0.0186219
0.0321844
0.0299643
0.0309583
0.0315287
0.0319437
0.0334996
0.0402298
0.0404971
0.0582352
0.0873528
0.115918
0.0611379
0.152308
0.0122447
0.243674
-0.130216
-1.13541
0.831989
2.85412
1.4253
-0.0177329
-1.47634
-2.67818
-0.153534
0.681526
-0.414266
-0.211411
-0.320366
-0.0862754
-0.132373
-0.0751396
-0.022061
0.0113251
0.0148164
0.0257074
0.0319083
0.0336028
0.0346829
0.0357403
0.0336655
0.0278161
0.0282397
0.0311518
0.0348494
0.0421128
0.0481802
0.0502163
0.0464733
0.0503578
0.0697836
0.115396
0.146805
0.208994
0.182422
0.360092
0.727376
0.529358
-2.34257
-2.6337
-1.17276
0.022543
1.32358
2.89529
1.84694
-1.4712
-0.757593
-0.426503
-0.454315
-0.280644
-0.16236
-0.0773853
-0.0253187
-0.00472046
0.00628649
0.0161689
0.0265355
0.0367949
0.0420795
0.0440608
0.0437317
0.0305358
0.0276663
0.0279637
0.0291818
0.0339354
0.0417746
0.0506904
0.0577736
0.0580007
0.0624473
0.0791269
0.146489
0.248457
0.719094
1.20536
0.887768
2.08973
2.8928
2.29279
0.860399
-0.310759
-1.45454
-2.88837
-2.87425
-1.25017
-1.52389
-1.00334
-0.451117
-0.253889
-0.149804
-0.09185
-0.0511295
-0.0281625
-0.000167571
0.0228887
0.0376886
0.0467075
0.0508228
0.0518853
0.0487738
0.0247195
0.0312454
0.0296188
0.026127
0.0232192
0.0239722
0.0267678
0.0347593
0.0540589
0.0579121
0.067763
0.0477467
0.00419887
0.00484211
0.598447
1.40505
1.61354
2.85755
-0.706359
-0.519902
1.11772
0.55884
-2.2673
-1.35962
-1.2589
-0.316365
-0.112868
-0.10205
-0.0759402
-0.123446
-0.0724745
-0.0377021
0.00315163
0.0282413
0.0433449
0.0504699
0.0544276
0.055397
0.0562483
0.0629923
0.000599956
-0.000164029
0.00603262
0.0122139
0.0157959
0.0182651
0.0136284
0.0101626
0.00750157
0.0237888
0.0471541
0.0776383
0.0864136
0.0012512
-0.758235
-0.867406
-0.838607
0.122384
0.674295
1.47238
-1.1116
-0.453657
0.400736
1.64214
1.47253
1.05224
0.117542
0.0137824
-0.0138395
-0.00080218
0.0235908
0.0474443
0.057782
0.0616501
0.0610275
0.069466
0.0773241
0.0853983
0.0923487
0.0930446
-0.00382545
-0.00875604
-0.0120195
-0.0121574
-0.00870569
-0.00302828
0.00251905
0.00370067
-0.00876886
-0.0206856
-0.0250195
-0.0504654
0.0579734
0.507226
0.88156
0.144433
-1.32588
-1.46686
-0.460376
0.365167
0.941847
1.70818
2.35856
1.93921
0.253646
-0.545865
-0.163927
0.182213
0.199259
0.144155
0.122289
0.104046
0.0919109
0.0948867
0.102528
0.108691
0.113409
0.113531
0.110438
0.106704
-0.00174461
0.000554142
0.000902017
-0.000467066
-0.00257437
-0.00467577
-0.00825935
-0.00345703
-0.00313329
0.0232552
0.0612235
-0.0263312
-0.0205248
-0.271876
0.262183
1.66679
2.26141
1.82225
0.935742
0.112913
1.32541
0.237256
-0.997869
-1.43822
-0.768088
0.472114
0.724269
0.320159
0.25551
0.112402
0.118428
0.129153
0.125551
0.12695
0.121499
0.116834
0.113976
0.11334
0.113879
0.116718
-0.0110684
-0.00856515
-0.00865693
-0.0117838
-0.0125046
-0.0132997
-0.016313
-0.011892
-0.015651
0.0232408
0.0448236
0.0728665
0.213082
0.181074
-0.560669
-1.24014
-0.273489
0.0568137
1.46017
1.11268
-0.0856171
-0.393066
0.737055
1.04002
2.17061
1.17279
0.235158
0.120975
0.194786
0.166241
0.154495
0.169661
0.15415
0.151059
0.143163
0.137373
0.13427
0.129194
0.128325
0.12847
-0.0330021
-0.0339982
-0.0324983
-0.0288009
-0.0255085
-0.0206066
-0.0120773
-0.00148998
0.00348463
0.00874625
-0.00838379
-0.0383152
-0.0817294
0.337831
0.695752
0.306787
-0.0994022
-0.463912
-0.62212
-0.691047
1.60672
1.47802
1.16957
0.741948
0.200448
-0.264073
0.0413007
0.364204
0.293771
0.237076
0.198661
0.176629
0.162508
0.159237
0.157978
0.154876
0.153148
0.153357
0.153
0.150451
-0.0377346
-0.043158
-0.0408403
-0.0378994
-0.0348888
-0.0324539
-0.028745
-0.017645
0.00688842
0.0338033
0.0450638
0.0231003
-0.032547
-0.353494
0.0154331
0.965158
1.32165
1.18889
1.02218
0.524649
0.113394
-0.469877
-0.617971
-0.819016
-0.618939
0.205957
0.514063
0.305608
0.221789
0.207318
0.203599
0.197528
0.194856
0.186568
0.176806
0.168753
0.165217
0.16327
0.162856
0.156463
-0.0414994
-0.0333595
-0.0379261
-0.0431177
-0.0442191
-0.0411765
-0.0318813
-0.0143167
-0.00799947
-0.000937912
0.0291417
0.0601792
0.228549
0.253266
-0.459276
-0.871544
-0.471465
-0.0324983
0.43426
0.330347
-0.355719
-0.387118
0.0579271
0.517189
0.931675
0.625719
0.0232744
0.0370461
0.199486
0.199463
0.219938
0.214183
0.197118
0.19507
0.187091
0.179568
0.170746
0.160959
0.153547
0.160784
-0.0649554
-0.0683974
-0.0613654
-0.0529973
-0.046382
-0.0412429
-0.0328281
-0.0224829
-0.0143172
-0.013419
-0.0261627
-0.0854498
-0.155193
0.0706288
0.558574
0.498072
0.0459991
-0.532774
-0.736828
-0.862377
0.0959032
0.13059
0.0108251
-0.212545
-0.519049
-0.470651
0.0649431
0.349239
0.320652
0.259513
0.228028
0.20921
0.199101
0.191966
0.185561
0.179607
0.178319
0.182481
0.187246
0.183094
-0.0670292
-0.0645416
-0.0705462
-0.0747861
-0.0749589
-0.0727941
-0.0675763
-0.0664679
-0.0585721
-0.0427339
-0.0034721
-0.0140736
-0.13387
-0.425458
-0.544114
-0.272463
0.0841445
0.107634
0.0971507
-0.124092
-0.908945
-0.985591
-0.872596
-0.560655
0.000288374
0.457729
0.52195
0.290671
0.201873
0.213682
0.22957
0.234039
0.228613
0.220314
0.210658
0.203006
0.195523
0.187081
0.179439
0.179363
-0.0831092
-0.0785832
-0.0769975
-0.0750659
-0.0758815
-0.0768319
-0.0776532
-0.0830787
-0.0898855
-0.133145
-0.153684
-0.161935
-0.0752813
-0.0899226
-0.491269
-0.806545
-0.776737
-0.65879
-0.995358
-0.78664
-0.247885
0.00845924
-0.170293
0.218667
0.526258
0.424028
0.148628
0.169577
0.312933
0.328638
0.274986
0.247562
0.226168
0.21214
0.202335
0.193586
0.187178
0.18442
0.183314
0.187257
-0.103958
-0.10905
-0.105763
-0.101247
-0.0982074
-0.10115
-0.110301
-0.123959
-0.128734
-0.159494
-0.223036
-0.315003
-0.453334
-0.322074
-0.0618667
-0.121845
-0.409813
-0.6208
-0.659863
-0.538112
-0.135814
0.0827254
0.112756
0.0506991
-0.0651127
0.0216232
0.343762
0.519685
0.414526
0.323828
0.275498
0.248514
0.240401
0.22184
0.206949
0.199217
0.198727
0.20054
0.201871
0.196103
-0.106103
-0.103658
-0.110511
-0.120436
-0.130646
-0.140148
-0.151734
-0.16691
-0.186163
-0.214355
-0.225823
-0.236618
-0.404389
-0.767198
-1.02674
-0.974624
-0.593155
-0.430924
-0.349104
-0.178851
-0.012579
0.0923226
0.270643
0.466816
1.00177
1.08153
0.788197
0.414617
0.27757
0.270435
0.284365
0.269603
0.251336
0.234031
0.222108
0.211978
0.20123
0.189659
0.181388
0.183905
-0.124694
-0.125542
-0.123996
-0.123241
-0.128142
-0.138274
-0.150425
-0.168788
-0.204411
-0.253043
-0.342464
-0.389315
-0.360322
-0.344481
-0.508019
-0.807013
-0.987151
-0.863847
-1.10925
-0.825832
1.03513
1.15163
0.852032
0.917951
0.730458
0.430982
0.260214
0.327197
0.395396
0.357908
0.284033
0.246426
0.217684
0.205227
0.196268
0.189984
0.187518
0.188856
0.191138
0.190835
-0.13077
-0.136474
-0.140783
-0.146686
-0.15384
-0.167315
-0.18233
-0.200726
-0.22034
-0.250031
-0.30535
-0.417803
-0.597213
-0.620024
-0.508926
-0.515744
-0.544543
-0.523568
-0.39042
-0.109521
0.307306
0.428131
0.548651
0.463266
0.417434
0.39582
0.517719
0.51491
0.362955
0.255326
0.23403
0.224465
0.219176
0.216605
0.207506
0.201799
0.198502
0.193824
0.191864
0.186071
-0.128712
-0.127356
-0.133126
-0.142895
-0.155197
-0.166137
-0.182086
-0.203635
-0.230677
-0.266498
-0.28883
-0.292939
-0.400699
-0.685314
-0.909178
-0.84815
-0.760328
-0.568465
-0.391271
-0.360214
0.783226
0.70897
0.629343
0.753041
0.759412
0.675334
0.473318
0.230155
0.198601
0.224434
0.227557
0.214079
0.200705
0.194554
0.190398
0.189022
0.182036
0.174985
0.17138
0.175028
-0.134646
-0.138557
-0.135957
-0.133506
-0.135965
-0.143331
-0.154933
-0.170793
-0.194679
-0.234159
-0.284112
-0.304537
-0.207168
-0.092113
-0.182916
-0.429086
-0.597432
-0.595164
-0.607818
-0.844967
1.50024
0.962471
0.825944
0.635157
0.349534
0.0174618
-0.0179298
0.123259
0.231069
0.224721
0.189875
0.167801
0.158998
0.159908
0.160413
0.162317
0.166561
0.171635
0.176495
0.173411
-0.12412
-0.12607
-0.13114
-0.138584
-0.146475
-0.152479
-0.157004
-0.166887
-0.168809
-0.16868
-0.158755
-0.174525
-0.292904
-0.318038
-0.206765
-0.129938
0.184968
0.184839
0.242489
0.309279
0.471397
0.376022
0.332375
0.200848
0.194742
0.193632
0.289105
0.253372
0.124298
0.125772
0.132795
0.147992
0.158865
0.167506
0.171782
0.170125
0.169555
0.163056
0.159418
0.15868
-0.1222
-0.117871
-0.118961
-0.120021
-0.121521
-0.122641
-0.123951
-0.121668
-0.121725
-0.125609
-0.0963709
0.0112987
0.102522
0.0819432
0.0558179
0.100185
0.18844
0.289133
0.235127
0.234201
0.753479
0.552635
0.327179
0.249598
0.195996
0.119597
0.0286659
-0.0593473
0.0058974
0.0951696
0.104753
0.120297
0.124835
0.136876
0.141457
0.145732
0.148807
0.150927
0.15184
0.155454
-0.121777
-0.125844
-0.121785
-0.116993
-0.111979
-0.106055
-0.103155
-0.0922976
-0.0707574
-0.0667453
-0.0590193
-0.0368327
0.105602
0.343001
0.491162
0.520517
0.428228
0.441514
0.341699
0.250667
0.373543
0.169269
0.033842
-0.142548
-0.26105
-0.307721
-0.210902
-0.0373928
0.0753922
0.0870797
0.0813392
0.0936492
0.116802
0.124321
0.134453
0.140778
0.146141
0.151906
0.155889
0.153086
-0.10986
-0.105722
-0.110182
-0.11615
-0.1185
-0.114197
-0.106732
-0.0946992
-0.0791696
-0.0545547
0.0132826
0.0474961
-0.0402856
-0.060778
0.0459951
0.198407
0.321906
0.331349
0.262962
0.0755705
-0.175251
-0.287545
-0.364947
-0.361808
-0.187381
-0.0234766
0.117249
0.105598
0.0276555
0.0460374
0.0854438
0.116721
0.13205
0.142736
0.148209
0.148985
0.14684
0.141979
0.138854
0.142309
-0.111283
-0.11043
-0.106331
-0.0997666
-0.0937354
-0.0868285
-0.0787466
-0.0685539
-0.0612994
-0.0756505
-0.0513415
0.0160759
0.131674
0.150683
0.0818185
-0.0233957
-0.137969
-0.198109
-0.405837
-0.524006
-0.291036
-0.311773
-0.217977
-0.182006
-0.127778
-0.161455
-0.152924
-0.0999779
0.030865
0.100622
0.138124
0.128404
0.123636
0.125931
0.128864
0.131772
0.135507
0.142231
0.145957
0.146816
-0.110454
-0.113473
-0.112471
-0.110196
-0.107609
-0.104437
-0.100446
-0.0907453
-0.0762209
-0.0575684
-0.0780814
-0.157572
-0.177958
-0.149794
-0.000840765
-0.057474
-0.169581
-0.294159
-0.386077
-0.441633
-0.624777
-0.511512
-0.373749
-0.284211
-0.212659
-0.113725
0.0700247
0.189458
0.23008
0.168506
0.157766
0.137474
0.148804
0.153709
0.153301
0.150802
0.148392
0.146955
0.146565
0.145309
-0.107435
-0.102573
-0.105967
-0.110369
-0.112929
-0.113989
-0.111493
-0.111224
-0.108311
-0.0959349
-0.0859275
-0.108062
-0.222807
-0.324564
-0.349594
-0.333816
-0.311726
-0.276504
-0.330474
-0.473307
-0.386671
-0.352856
-0.183156
0.0185895
0.0872978
0.247847
0.344907
0.297093
0.204142
0.180223
0.186703
0.184115
0.16873
0.169211
0.160156
0.153987
0.147522
0.140931
0.13609
0.13927
-0.115865
-0.117384
-0.11198
-0.107237
-0.103275
-0.102416
-0.102923
-0.106232
-0.126666
-0.163222
-0.15997
-0.157182
-0.11201
-0.13488
-0.266615
-0.380471
-0.49531
-0.506029
-0.55274
-0.405808
0.0470029
0.219106
0.411024
0.484253
0.423497
0.357345
0.261296
0.237125
0.273459
0.266217
0.249988
0.199479
0.163868
0.153069
0.145276
0.140422
0.140902
0.144158
0.148261
0.145486
-0.111873
-0.110926
-0.113769
-0.118828
-0.12344
-0.128872
-0.135393
-0.136347
-0.140572
-0.161014
-0.173074
-0.267845
-0.379664
-0.395807
-0.371649
-0.365439
-0.405382
-0.391711
-0.283454
-0.122914
0.166602
0.323588
0.517109
0.544766
0.523216
0.509224
0.557007
0.522159
0.375821
0.257763
0.228445
0.196249
0.188288
0.175596
0.164422
0.153266
0.144343
0.137615
0.133039
0.134324
-0.110293
-0.107956
-0.109859
-0.111323
-0.113319
-0.11568
-0.122738
-0.133067
-0.147964
-0.155509
-0.161074
-0.16282
-0.204556
-0.29376
-0.366975
-0.400606
-0.490377
-0.408549
-0.289389
-0.309622
0.4437
0.389548
0.588229
0.646781
0.476559
0.418551
0.345481
0.244055
0.204852
0.205483
0.193745
0.178232
0.158164
0.145645
0.136615
0.1304
0.12579
0.126166
0.123637
0.127054
-0.113388
-0.116536
-0.114069
-0.110719
-0.109279
-0.110516
-0.113188
-0.121049
-0.128384
-0.163987
-0.18113
-0.189904
-0.153375
-0.153492
-0.196233
-0.286348
-0.359939
-0.384112
-0.286531
-0.0774452
0.145257
0.274158
0.292475
0.281583
0.194125
0.116536
0.0933859
0.119074
0.181394
0.18324
0.159055
0.131735
0.122639
0.124061
0.12273
0.118869
0.120376
0.124444
0.127922
0.122851
-0.102659
-0.100019
-0.104224
-0.109912
-0.114793
-0.117999
-0.12029
-0.120565
-0.113726
-0.112034
-0.112162
-0.162863
-0.230756
-0.202423
-0.135362
-0.0730661
-0.0485754
-0.0499674
-0.0349755
-0.0851018
0.0313668
-0.0538448
-0.0716272
-0.0766927
-0.0693138
-0.0255048
0.0591303
0.117391
0.0818361
0.057666
0.0827187
0.100666
0.111257
0.117368
0.119415
0.116606
0.112294
0.106397
0.101786
0.105269
-0.101938
-0.100951
-0.0982352
-0.0919587
-0.0885655
-0.0856173
-0.0839541
-0.0824421
-0.0785936
-0.0682115
-0.0354004
0.0424595
0.0932239
0.0999616
0.0809339
0.089521
0.0280063
0.00963392
-0.0428313
-0.129495
0.234894
0.0504163
-0.0300225
-0.108682
-0.195006
-0.220519
-0.239865
-0.214164
-0.118153
-0.0126875
0.0326436
0.0538235
0.0673599
0.0719425
0.0769362
0.0821815
0.0873386
0.0950586
0.0985287
0.0982377
-0.0981577
-0.0996791
-0.0974105
-0.0955014
-0.0933183
-0.0897148
-0.0843584
-0.0727039
-0.054046
-0.0584139
-0.0351319
-0.0138777
0.0605289
0.171718
0.282261
0.345546
0.386205
0.36593
0.295779
0.18742
0.103953
-0.0257507
-0.197634
-0.260442
-0.306079
-0.298443
-0.229446
-0.110513
-0.0373723
-0.0200455
0.0196188
0.033086
0.0550043
0.0708516
0.0779522
0.0837798
0.0861228
0.0891761
0.0908427
0.0873237
-0.0898756
-0.0851392
-0.0886606
-0.0923737
-0.0928791
-0.0900774
-0.0864526
-0.070566
-0.0481803
-0.00735771
0.0385773
0.0787559
0.126604
0.237169
0.38196
0.526163
0.58475
0.596689
0.557992
0.377454
0.126049
-0.1197
-0.258434
-0.354552
-0.351091
-0.273592
-0.178646
-0.11803
-0.0884612
-0.0620396
-0.0156423
0.0201284
0.0458121
0.066048
0.0718228
0.0753388
0.075579
0.0744838
0.0718184
0.0758468
-0.0959047
-0.098504
-0.093029
-0.0868308
-0.0792906
-0.0715917
-0.0603342
-0.0609035
-0.0509157
-0.0330264
0.00419277
0.0937375
0.180449
0.240961
0.258542
0.349491
0.32516
0.404331
0.356673
0.177281
0.119328
0.00585002
-0.107882
-0.177145
-0.201029
-0.203389
-0.190031
-0.167257
-0.097718
-0.0154368
0.0171364
0.0183187
0.0355345
0.0454453
0.0530215
0.0576487
0.0656566
0.0739338
0.0791701
0.0767023
-0.0929188
-0.0927106
-0.0942773
-0.0971923
-0.0983659
-0.0982708
-0.0943748
-0.0872989
-0.0743145
-0.0603579
-0.0660467
-0.118347
-0.116605
-0.0462165
0.0109265
0.0646501
0.0811026
0.144144
0.0772621
-0.000645305
-0.0322932
-0.151025
-0.186164
-0.131645
-0.115236
-0.0440809
0.0472935
0.112288
0.111726
0.0565164
0.0392607
0.0494391
0.0609911
0.0705143
0.0737315
0.0729248
0.0712878
0.0693908
0.0680072
0.069477
-0.0931708
-0.0903774
-0.0914398
-0.092142
-0.0928827
-0.0935999
-0.0953257
-0.0991908
-0.0995794
-0.100606
-0.0996675
-0.0813015
-0.110653
-0.174237
-0.22121
-0.248002
-0.281355
-0.286846
-0.278971
-0.222814
-0.182484
-0.0456664
0.0793786
0.086998
0.108734
0.130989
0.121448
0.0845849
0.0619839
0.0730239
0.0753122
0.0696234
0.0709095
0.0677859
0.0648851
0.0640245
0.0643321
0.0650709
0.0643746
0.0667031
-0.101668
-0.105139
-0.102735
-0.0985878
-0.0972294
-0.0978981
-0.10111
-0.107799
-0.125129
-0.146749
-0.181351
-0.215115
-0.261823
-0.346323
-0.442559
-0.492553
-0.575462
-0.439526
-0.395153
-0.312751
-0.0739993
0.0854895
0.188278
0.317849
0.334248
0.319602
0.268314
0.225337
0.205326
0.175652
0.125665
0.0928239
0.0854161
0.0750385
0.0702279
0.0673852
0.0684246
0.0716019
0.0734983
0.0691622
-0.0979058
-0.09486
-0.0999554
-0.10748
-0.114917
-0.119011
-0.125351
-0.132314
-0.135375
-0.14864
-0.192086
-0.269762
-0.341664
-0.37197
-0.387057
-0.429991
-0.410919
-0.396455
-0.287043
0.0149654
0.043722
0.141136
0.262601
0.362377
0.383379
0.38835
0.367412
0.344521
0.278895
0.188173
0.132175
0.117113
0.0992617
0.090845
0.0859202
0.0783153
0.0705892
0.0630626
0.0577532
0.0597567
-0.099697
-0.0994914
-0.0987392
-0.0968364
-0.0958994
-0.0960351
-0.100664
-0.108595
-0.115116
-0.13385
-0.124223
-0.121946
-0.168308
-0.260297
-0.353615
-0.451955
-0.460316
-0.473596
-0.336129
0.00245383
0.270113
0.541004
0.640686
0.635774
0.619994
0.521326
0.390798
0.252115
0.156296
0.136319
0.134621
0.101076
0.0723147
0.0610068
0.0545162
0.0528776
0.054201
0.0571214
0.0585967
0.059251
-0.0969839
-0.100045
-0.0994599
-0.0985869
-0.0990177
-0.0990991
-0.0996263
-0.103745
-0.100895
-0.110359
-0.133694
-0.171439
-0.19048
-0.202826
-0.224346
-0.232002
-0.246925
-0.0823641
0.0220124
0.119257
0.283068
0.344176
0.3646
0.506795
0.446959
0.394886
0.332556
0.280849
0.226462
0.154646
0.108879
0.0823514
0.0669498
0.061061
0.0542596
0.0519041
0.0507236
0.0507149
0.0514587
0.0495788
-0.087838
-0.0856288
-0.0883765
-0.0918054
-0.0935006
-0.0929653
-0.0899793
-0.0865796
-0.0687026
-0.0556333
-0.0334633
-0.0237771
-0.00180465
0.0438947
0.0724088
0.116579
0.138632
0.128754
0.132862
0.174428
0.103589
0.120581
0.0750587
0.0506719
0.0457396
0.0316253
0.0294925
0.0200141
0.0222159
0.0137921
0.0263342
0.0305046
0.0412559
0.0420826
0.0399094
0.0386854
0.0361833
0.0336841
0.0308715
0.035136
-0.0869483
-0.0896305
-0.0858296
-0.0792182
-0.0724894
-0.0643012
-0.0576434
-0.0528614
-0.0354138
-0.0138498
0.0352978
0.105967
0.14669
0.15769
0.164495
0.164007
0.161401
0.134187
0.0995403
-0.000851416
0.00072226
-0.067909
-0.175527
-0.24004
-0.240465
-0.221622
-0.204879
-0.184568
-0.142709
-0.0751222
-0.0342824
-0.0175393
-0.00737768
0.00144369
0.00626963
0.0130262
0.0213125
0.0295816
0.0342748
0.0311516
-0.0808209
-0.0791272
-0.0785433
-0.0789121
-0.0769714
-0.0714478
-0.061509
-0.0429953
-0.0271301
0.00411744
0.0225981
0.0528357
0.132704
0.234945
0.339242
0.406335
0.422879
0.398796
0.261553
0.0534682
-0.243543
-0.500376
-0.625472
-0.655322
-0.618517
-0.511031
-0.383654
-0.24964
-0.144256
-0.0999686
-0.0775623
-0.0463296
-0.0194991
0.000470253
0.0113147
0.0171437
0.018654
0.017586
0.0164918
0.0180344
-0.0774525
-0.0736205
-0.0722421
-0.0707462
-0.0674328
-0.0595356
-0.049655
-0.0334969
-0.00712099
0.0332406
0.0946735
0.161566
0.230411
0.300337
0.376648
0.423351
0.401953
0.26292
0.0692007
0.0288551
-0.215709
-0.3322
-0.493682
-0.618343
-0.624021
-0.547329
-0.477209
-0.391983
-0.294766
-0.200652
-0.114214
-0.0676053
-0.0425048
-0.024702
-0.0138444
-0.00351203
0.0015053
0.00422628
0.00592587
0.00904749
-0.0808351
-0.0840679
-0.0808114
-0.0754225
-0.0696202
-0.063936
-0.0557845
-0.0430894
-0.0321224
-0.011359
0.0161138
0.0670513
0.134111
0.196704
0.271834
0.32349
0.33913
0.336896
0.213362
0.0265315
-0.190179
-0.384343
-0.478797
-0.514429
-0.457152
-0.392973
-0.320192
-0.253778
-0.180456
-0.108793
-0.0801467
-0.051685
-0.0351975
-0.0241969
-0.0154663
-0.00689578
0.000406696
0.00640351
0.0108551
0.00772816
-0.0794479
-0.0795633
-0.0829096
-0.0878071
-0.0905817
-0.0907672
-0.0887064
-0.0811091
-0.067496
-0.0540065
-0.0439831
-0.0165499
0.0621435
0.159906
0.253805
0.312425
0.315247
0.310636
0.229543
0.140317
-0.0903473
-0.251553
-0.336666
-0.390934
-0.376944
-0.325224
-0.244201
-0.152277
-0.0705171
-0.0461951
-0.0373913
-0.0213764
-0.00498562
0.00443761
0.00634967
0.00789644
0.0055327
0.00129886
-0.00107525
0.00189495
-0.0869248
-0.0883144
-0.0885825
-0.0875759
-0.0866503
-0.0861308
-0.0908014
-0.0968673
-0.100775
-0.102451
-0.0854938
-0.0688338
-0.0864984
-0.122616
-0.143895
-0.158283
-0.116819
-0.125896
-0.110739
-0.0117181
0.0650297
0.130603
0.129552
0.120056
0.121436
0.0881766
0.0386104
-0.00379482
-0.0163219
-0.0120025
0.000720582
0.00790272
0.00481282
0.0029028
0.00175252
0.00141962
0.00370245
0.00677616
0.00913645
0.00808533
-0.0922212
-0.0939529
-0.0946592
-0.096901
-0.10048
-0.106922
-0.115705
-0.129777
-0.152526
-0.186183
-0.251481
-0.319147
-0.378304
-0.441256
-0.486764
-0.514735
-0.481434
-0.337397
-0.200886
-0.0762548
0.0698878
0.143053
0.236898
0.338815
0.366175
0.344358
0.3153
0.261413
0.212819
0.149998
0.0847229
0.0547011
0.0396032
0.0293001
0.0239053
0.0197103
0.0165119
0.0147765
0.0139966
0.0116483
-0.0929725
-0.0899077
-0.0933989
-0.0994514
-0.108341
-0.119807
-0.136008
-0.155772
-0.186114
-0.221136
-0.262472
-0.334108
-0.428853
-0.524091
-0.612087
-0.691823
-0.680387
-0.625044
-0.469981
-0.191957
0.0856894
0.339814
0.50611
0.580006
0.470867
0.420555
0.341139
0.271263
0.198773
0.142114
0.105984
0.078135
0.0573705
0.0437764
0.0334566
0.0263187
0.0197479
0.0140691
0.0101801
0.0109073
-0.0986803
-0.100633
-0.100528
-0.100035
-0.102518
-0.110774
-0.1245
-0.149525
-0.180785
-0.221985
-0.27676
-0.35666
-0.486125
-0.628519
-0.74309
-0.817902
-0.790921
-0.686245
-0.49821
-0.236768
0.0696859
0.327328
0.52913
0.631271
0.635955
0.578527
0.46113
0.330764
0.219605
0.149046
0.107607
0.0738749
0.0483634
0.0303477
0.0212006
0.018028
0.0182817
0.0199946
0.0197585
0.0146297
-0.0964315
-0.0973663
-0.0996788
-0.104384
-0.10972
-0.120406
-0.130274
-0.146283
-0.170684
-0.209998
-0.271412
-0.332681
-0.390264
-0.429462
-0.448194
-0.438834
-0.455184
-0.366891
-0.247925
-0.113818
0.0254733
0.258256
0.354442
0.412511
0.384546
0.361238
0.305829
0.254995
0.201687
0.148066
0.0906027
0.0580529
0.0428018
0.0310385
0.0244547
0.0208883
0.0159416
0.01212
0.0102371
0.00981034
-0.09225
-0.0912205
-0.0919828
-0.0932848
-0.0956915
-0.0969831
-0.101581
-0.10542
-0.113169
-0.116169
-0.106953
-0.109245
-0.143991
-0.184144
-0.236379
-0.261231
-0.268552
-0.258653
-0.176138
-0.0151907
0.19803
0.372651
0.428391
0.387673
0.346885
0.292425
0.186015
0.095302
0.0201719
-0.00169197
0.00601496
0.00619069
0.00029638
-0.00187826
-0.00264458
-0.00163519
-0.00190523
0.000569591
0.00237879
0.00646059
-0.0867507
-0.0893733
-0.0869124
-0.0824421
-0.0780683
-0.0725756
-0.0659562
-0.0614684
-0.0552993
-0.0455199
-0.0442305
-0.0383133
-0.0230595
-0.00749488
0.0351879
0.0876831
0.181204
0.214577
0.220536
0.199635
0.144369
0.11421
0.071882
0.0366455
0.0989503
0.0647999
0.0375087
0.0184462
-0.00319855
-0.0182658
-0.0366233
-0.0337417
-0.0299518
-0.0263957
-0.0193234
-0.0138051
-0.00886221
-0.00231533