/*--------------------------------*- C++ -*----------------------------------*\
| =========                 |                                                 |
| \\      /  F ield         | OpenFOAM: The Open Source CFD Toolbox           |
|  \\    /   O peration     | Version:  v2106                                 |
|   \\  /    A nd           | Website:  www.openfoam.com                      |
|    \\/     M anipulation  |                                                 |
\*---------------------------------------------------------------------------*/
FoamFile
{
    version     2.0;
    format      ascii;
    arch        "LSB;label=32;scalar=64";
    class       volVectorField;
    location    "0";
    object      U;
}
// * * * * * * * * * * * * * * * * * * * * * * * * * * * * * * * * * * * * * //

dimensions      [0 1 -1 0 0 0 0];

internalField   nonuniform List<vector> 
11644
(
(-2.45606e-05 2.29692e-05 3.35621e-21)
(-1.46765e-05 3.96465e-05 9.25545e-21)
(-2.3915e-05 2.89244e-05 4.96578e-21)
(-4.53791e-05 2.86742e-05 0)
(-4.68475e-05 2.03513e-05 0)
(-5.39882e-05 -1.06976e-05 0)
(-4.1311e-05 -5.99524e-05 0)
(-2.52719e-06 -0.000156824 0)
(3.10417e-05 -0.000316198 0)
(4.62276e-05 -0.000530342 0)
(8.45579e-05 -0.000792151 0)
(0.000170823 -0.00110714 0)
(0.000147435 -0.00147581 0)
(0.000170619 -0.00185583 0)
(0.000179411 -0.00222941 0)
(-0.000205353 -0.00253085 0)
(0.000191966 -0.00244554 0)
(0.00199253 -0.00279858 0)
(0.00237877 -0.00437666 0)
(0.00014352 -0.00476578 -1.7414e-31)
(-0.00120132 -0.00372808 2.53946e-31)
(-0.00144254 -0.00305228 0)
(-0.000955536 -0.00244223 0)
(-0.000114158 -0.00211815 0)
(0.000196454 -0.00170938 0)
(0.000224726 -0.00163854 0)
(0.000274958 -0.00153457 0)
(0.000133236 -0.00139531 0)
(3.89555e-05 -0.00130654 0)
(-7.6163e-06 -0.00118217 0)
(-4.29798e-05 -0.00102703 0)
(-5.66574e-05 -0.000886733 0)
(-7.3836e-05 -0.000741688 0)
(-6.63251e-05 -0.000615233 0)
(-7.30768e-05 -0.000499455 0)
(-8.85025e-05 -0.00038153 0)
(-8.57596e-05 -0.000275954 0)
(-0.000103 -0.000176732 0)
(-0.000101027 -0.000109739 0)
(-6.72755e-05 -3.55016e-05 6.50735e-22)
(-5.80722e-05 9.5352e-06 4.31103e-21)
(-5.47704e-05 2.40297e-05 3.9934e-21)
(-1.17443e-05 3.29367e-05 2.14473e-21)
(6.80462e-05 2.4083e-05 0)
(0.000119809 -7.40628e-05 0)
(0.000177644 -0.000176373 0)
(0.000258677 -0.000346313 0)
(0.000371784 -0.000561546 0)
(0.000513387 -0.000802827 0)
(0.000690687 -0.00109349 0)
(0.000770251 -0.00151212 0)
(0.000877647 -0.0019832 0)
(0.00104094 -0.00248998 0)
(0.00107087 -0.00301663 0)
(0.000838902 -0.00366872 0)
(0.00100054 -0.00448855 5.53005e-22)
(0.00123318 -0.00581863 1.20243e-22)
(-2.15797e-05 -0.00589418 3.5298e-21)
(-0.00147646 -0.00401178 9.39439e-22)
(-0.000909992 -0.00305627 -4.72132e-20)
(0.000323922 -0.00390299 5.37924e-20)
(0.000820942 -0.00504158 -1.36893e-20)
(-0.000208709 -0.00590589 2.41722e-21)
(-0.00124947 -0.00530138 4.61027e-23)
(-0.00103808 -0.00423894 -5.41771e-22)
(-0.00066162 -0.00327731 0)
(-0.000668205 -0.00244227 0)
(-0.000460301 -0.0019427 0)
(-0.000323131 -0.0013912 0)
(-0.000298967 -0.000954959 0)
(-0.000335393 -0.000622509 0)
(-0.00032775 -0.000342385 0)
(-0.000308983 -0.00014434 0)
(-0.000289564 -7.813e-06 0)
(-0.000278417 0.00011087 0)
(-0.000212212 0.000135647 0)
(-0.000191154 0.00015829 0)
(-0.000131196 0.000118169 0)
(-0.000108123 6.56409e-05 0)
(-0.000117658 2.28523e-05 0)
(-2.66188e-05 -1.38715e-06 0)
(-3.21289e-07 5.43922e-05 0)
(2.74029e-05 4.8377e-05 0)
(0.00011688 7.43523e-06 0)
(0.000210648 -1.74665e-05 3.93805e-21)
(0.000364114 -5.88149e-05 0)
(0.000545531 -0.000157925 0)
(0.00075175 -0.000276451 0)
(0.000965214 -0.000451169 0)
(0.00123166 -0.000663957 0)
(0.0016685 -0.000819921 0)
(0.00178906 -0.00111473 0)
(0.00185341 -0.00139798 -4.18784e-22)
(0.0016576 -0.00197954 -6.81707e-21)
(0.00182977 -0.00272165 -1.15753e-20)
(0.00189702 -0.00343971 1.11874e-19)
(0.000623135 -0.00395342 -1.46904e-19)
(-0.00130594 -0.00352487 1.19054e-19)
(-0.00187913 -0.00380657 -5.90296e-20)
(-0.00072749 -0.00515277 -2.62023e-20)
(-0.000257185 -0.00549491 -4.66357e-20)
(0.000355867 -0.00517047 8.81729e-20)
(-0.000303862 -0.00455003 -7.1782e-20)
(-0.00141832 -0.00424989 6.54846e-20)
(-0.00198225 -0.00385775 -3.72135e-20)
(-0.00175592 -0.00306883 1.41022e-20)
(-0.00144462 -0.00217068 7.46632e-21)
(-0.00140896 -0.00108905 4.09016e-22)
(-0.00138592 -0.000294269 0)
(-0.00114334 0.000331962 0)
(-0.000823147 0.000741244 0)
(-0.000622321 0.000981183 0)
(-0.000427968 0.00107142 0)
(-0.00028199 0.00106106 0)
(-0.000132289 0.000937463 0)
(-2.77685e-05 0.000810527 0)
(2.3351e-05 0.000628589 0)
(0.000104546 0.000449886 0)
(0.000119729 0.000283222 0)
(9.65988e-05 6.07544e-05 0)
(-0.000259424 0.000135617 0)
(-0.000173614 0.000255839 0)
(-3.20898e-05 0.000370841 0)
(9.5727e-05 0.000455068 0)
(0.000187139 0.000571138 0)
(0.000343697 0.000648563 0)
(0.000548858 0.000741018 0)
(0.000777674 0.000791082 0)
(0.00108268 0.000843084 0)
(0.0014494 0.000837993 0)
(0.00154121 0.000653236 1.04509e-22)
(0.00191767 0.000588672 5.46371e-22)
(0.00198209 0.000196216 -3.41427e-20)
(0.00293179 9.5517e-07 7.26339e-20)
(0.00331622 -0.000528223 -1.67699e-19)
(0.00233773 -0.00119111 1.7661e-19)
(0.00178317 -0.00166208 1.88221e-19)
(0.001513 -0.00340306 -4.18123e-19)
(0.00027281 -0.00445488 8.03374e-20)
(0.00013974 -0.00541621 2.85276e-19)
(-0.000782769 -0.00598763 -1.94606e-19)
(-0.00178214 -0.00544558 -7.7551e-21)
(-0.00202437 -0.00415863 2.65504e-19)
(-0.00216396 -0.00307234 -2.57205e-19)
(-0.0030091 -0.0030278 -1.10834e-19)
(-0.00335252 -0.00196283 1.52746e-19)
(-0.00306544 -0.000819266 -6.28936e-20)
(-0.00259947 -7.76432e-05 4.02133e-20)
(-0.00187702 0.000640914 -9.04147e-21)
(-0.00148452 0.00110458 -5.70306e-23)
(-0.00112893 0.00134192 0)
(-0.000618084 0.00135444 0)
(-0.000279759 0.00126915 0)
(-6.24652e-05 0.00114392 0)
(0.000126263 0.00096213 0)
(0.000191315 0.000823585 0)
(0.000272275 0.000640445 0)
(0.000314859 0.000463514 0)
(0.000340976 0.000233366 0)
(0.0002954 0.000136865 0)
(-0.000581968 6.92312e-05 0)
(-0.000545541 0.000373947 0)
(-0.000407673 0.000689049 0)
(-0.000321759 0.00101966 0)
(-0.000152745 0.00135173 0)
(1.91065e-05 0.00162056 0)
(0.000246157 0.00186883 0)
(0.000477976 0.00210138 0)
(0.000815062 0.00225548 0)
(0.00109363 0.00230558 -1.38615e-21)
(0.00172465 0.00213529 -1.3542e-20)
(0.00243974 0.0015111 4.44224e-20)
(0.00399447 0.00121732 -1.09104e-19)
(0.00381615 2.07094e-05 1.63631e-19)
(0.003832 -0.000394074 -8.16606e-20)
(0.00516352 -0.000525562 -2.57623e-19)
(0.00491873 -0.00197471 2.29936e-19)
(0.00330736 -0.00362014 -5.61331e-20)
(0.00275299 -0.0036597 -2.51978e-19)
(0.00084584 -0.00390442 3.89917e-19)
(-0.00113792 -0.0052832 -2.95772e-19)
(-0.00305486 -0.00511008 3.6639e-19)
(-0.00297921 -0.00420545 -1.73254e-19)
(-0.00324039 -0.00347318 -1.99001e-19)
(-0.00336214 -0.0029245 2.52269e-19)
(-0.00429987 -0.00235197 4.85985e-20)
(-0.00453946 -0.00157151 -1.42163e-19)
(-0.00342102 -0.00042334 1.00033e-19)
(-0.00261038 0.000419254 -3.27297e-20)
(-0.00155779 0.000752358 1.77973e-20)
(-0.000943 0.000861676 1.60288e-21)
(-0.000614155 0.000881189 0)
(-0.000230392 0.000773028 0)
(1.165e-05 0.000685697 0)
(0.000200142 0.000612212 0)
(0.000315007 0.000473007 0)
(0.000416125 0.000372202 0)
(0.000470117 0.000237403 0)
(0.000510491 0.000174607 0)
(0.000511415 -3.67419e-05 0)
(-0.000920833 0.000262188 0)
(-0.000908066 0.000519012 0)
(-0.000948731 0.0008211 0)
(-0.000892241 0.00120983 0)
(-0.000755962 0.00165059 0)
(-0.000565945 0.0020608 0)
(-0.000327567 0.0024721 0)
(-2.79089e-05 0.00285558 0)
(0.000349293 0.00312232 3.20799e-21)
(0.00107445 0.00306152 -1.01818e-20)
(0.00248088 0.00270657 1.84547e-20)
(0.0041116 0.00197794 -7.36997e-20)
(0.00517388 0.00067421 1.48741e-19)
(0.00673872 0.000240352 -7.07467e-20)
(0.00613057 -0.000934399 -1.05812e-19)
(0.00518549 -0.00220133 4.6731e-20)
(0.00591191 -0.00319524 -1.33277e-19)
(0.00445144 -0.00408608 2.28743e-19)
(0.00358095 -0.00391221 -7.27465e-20)
(0.00134623 -0.00358995 -3.3717e-19)
(-0.00124561 -0.00429426 3.9546e-19)
(-0.00276629 -0.00391921 -2.0911e-19)
(-0.00340652 -0.0038848 3.51757e-20)
(-0.00413577 -0.00395843 7.45166e-21)
(-0.00401126 -0.00362653 5.83705e-20)
(-0.0046668 -0.00299916 8.07276e-20)
(-0.00458538 -0.00272221 9.03424e-20)
(-0.00508092 -0.0017811 -9.50786e-20)
(-0.00391861 -0.000787092 6.93955e-21)
(-0.00235104 0.000118936 -7.59234e-22)
(-0.00100806 0.000635479 -1.22672e-20)
(-0.000463884 0.000744902 7.19116e-22)
(-0.000178401 0.000712483 0)
(0.000100446 0.000519884 0)
(0.000276777 0.000415654 0)
(0.000435576 0.000290094 0)
(0.000543222 0.00019863 0)
(0.000596127 0.000120221 0)
(0.000602302 8.94574e-05 0)
(0.000669097 0.000125522 0)
(-0.00144388 0.000100586 0)
(-0.00138426 0.000640809 0)
(-0.00140158 0.00108784 0)
(-0.00137272 0.0016121 0)
(-0.00125953 0.00197981 0)
(-0.00108543 0.00245284 0)
(-0.000914515 0.00290251 0)
(-0.000559691 0.00336673 -1.65938e-21)
(0.00025814 0.0035855 -7.97358e-21)
(0.00193322 0.00330164 -3.54509e-20)
(0.00406258 0.00203748 4.17201e-20)
(0.00581413 0.000792154 1.95823e-20)
(0.00566147 -0.00159463 -8.6952e-21)
(0.00843697 -0.00191803 -8.21987e-21)
(0.00671151 -0.00299021 1.24462e-19)
(0.00647957 -0.00367846 -1.05545e-19)
(0.00267029 -0.00595816 8.21401e-20)
(0.00536755 -0.00501752 -6.53579e-19)
(0.0040187 -0.00511306 2.04915e-20)
(0.00242615 -0.00408625 4.38934e-20)
(-0.000189296 -0.00373544 2.1245e-19)
(-0.00161312 -0.00380362 -1.62602e-19)
(-0.00344395 -0.00393017 -6.27526e-19)
(-0.00504704 -0.00255892 -9.47725e-20)
(-0.0068517 -0.00354231 6.77933e-20)
(-0.00651991 -0.00407841 -1.05148e-19)
(-0.00619032 -0.00356372 -8.83441e-21)
(-0.00665766 -0.00296927 -4.20436e-20)
(-0.00549672 -0.0015782 9.79346e-20)
(-0.00429254 -0.000189979 -7.10324e-20)
(-0.00199161 0.000743172 1.47183e-20)
(-0.000405827 0.00110417 -3.60763e-21)
(0.000174539 0.00106237 -2.41476e-23)
(0.000390594 0.000812214 0)
(0.000501951 0.000536277 0)
(0.000593747 0.000432774 0)
(0.000655515 0.000251533 0)
(0.000633392 0.000249613 0)
(0.000644093 7.03485e-05 0)
(0.000705348 -1.36563e-05 0)
(-0.00205598 0.000289018 0)
(-0.00209814 0.000663312 0)
(-0.00205426 0.00119956 0)
(-0.00208764 0.00156182 0)
(-0.00200718 0.00207855 0)
(-0.00188792 0.00262204 0)
(-0.0017238 0.00327499 0)
(-0.0011867 0.0038803 -3.15381e-21)
(0.00077719 0.0036609 -4.6066e-21)
(0.00332403 0.002712 5.9101e-20)
(0.00536872 0.00185144 -1.25809e-19)
(0.00756403 0.000827905 8.21019e-20)
(0.00885009 0.0032555 -9.73841e-20)
(0.00626164 -0.00117913 1.77022e-19)
(0.0102734 -0.00305707 -1.31531e-19)
(0.0112954 -0.00275913 1.70114e-19)
(0.00977986 -0.00440225 2.39617e-19)
(0.00634621 -0.00700604 2.52254e-19)
(0.00466166 -0.00732578 -3.70985e-20)
(0.00412555 -0.00607231 -7.54778e-19)
(0.00232234 -0.00333789 1.54836e-19)
(0.000602783 -0.00346016 1.30827e-19)
(-0.00167646 -0.00290385 -1.61683e-19)
(-0.00428549 -0.00451063 5.86395e-19)
(-0.00557754 -0.00365914 1.23471e-19)
(-0.00485058 -0.00302815 4.80682e-20)
(-0.00702439 -0.00248804 1.52865e-19)
(-0.00724773 -0.00445459 -3.22352e-20)
(-0.00703126 -0.00171255 4.52721e-20)
(-0.00576843 -0.00151697 4.92066e-20)
(-0.0035419 -4.09626e-05 -5.9904e-20)
(-0.00122764 0.000811159 -8.9642e-22)
(0.000471059 0.000980299 1.19339e-20)
(0.000832678 0.0008199 0)
(0.000854047 0.000455163 0)
(0.000800222 0.000140396 0)
(0.000777391 3.61565e-06 0)
(0.000680653 -0.000199218 0)
(0.000701563 -9.6367e-05 0)
(0.000644073 -6.55601e-05 0)
(-0.00270874 0.000376803 0)
(-0.0027229 0.000716178 0)
(-0.00283852 0.00126202 0)
(-0.00270586 0.00160939 0)
(-0.00276006 0.00223135 0)
(-0.00281032 0.00284358 0)
(-0.00280095 0.003695 1.74278e-21)
(-0.00142686 0.00390314 -6.37014e-21)
(0.00175536 0.00319048 -5.02537e-21)
(0.00451216 0.0022708 -1.16428e-20)
(0.00627243 0.00133965 -3.16876e-20)
(0.00766649 -0.000202128 9.27383e-20)
(0.00995255 0.00368811 -4.73392e-20)
(0.00842991 0.00118338 1.05303e-19)
(0.00864154 -0.00181644 -2.2222e-20)
(0.0100573 -0.000432977 -1.37942e-20)
(0.00698263 -0.00531035 -7.58085e-21)
(0.00771481 -0.0037094 2.66662e-19)
(0.00484921 -0.00700068 -9.83645e-20)
(0.00261367 -0.00653105 1.91106e-20)
(0.000576768 -0.00623396 3.08292e-19)
(-0.00224099 -0.00661817 -5.54451e-19)
(-0.00406306 -0.00362642 1.76505e-19)
(-0.00592621 -0.00279792 1.21919e-19)
(-0.00460651 -0.000975316 2.94754e-20)
(-0.007762 -0.0017929 5.08448e-20)
(-0.00557525 -0.00274316 4.07494e-20)
(-0.00781544 -0.00296475 9.27592e-20)
(-0.00745504 -0.00269979 -8.10635e-20)
(-0.00664157 -0.00189509 -5.12342e-22)
(-0.00512633 -0.0013946 1.44312e-21)
(-0.00271543 -0.000611612 1.60079e-21)
(-4.40122e-05 0.000175024 7.37495e-21)
(0.00112253 0.000244471 -5.70047e-22)
(0.00105932 8.00354e-05 0)
(0.000968783 -9.96687e-05 0)
(0.000841585 -8.83906e-06 0)
(0.000801539 2.11323e-05 0)
(0.000560227 8.12064e-05 0)
(0.000587958 1.65447e-05 0)
(-0.00327733 -0.000397442 0)
(-0.00329995 0.000819008 0)
(-0.00319288 0.000925221 0)
(-0.00342689 0.00193575 0)
(-0.00367356 0.00251349 0)
(-0.00400746 0.00325516 0)
(-0.00382594 0.00380803 1.30323e-21)
(-0.00121934 0.00378059 -1.04797e-21)
(0.002532 0.00336388 -1.46082e-20)
(0.00496354 0.00261676 1.32467e-20)
(0.00631977 0.00357031 1.92327e-20)
(0.00899706 0.00226396 -4.2502e-20)
(0.0124364 -0.00256172 3.44005e-20)
(0.00692118 0.00139228 -4.02025e-21)
(0.00897812 -0.00164753 -5.27322e-21)
(0.00819778 0.00487514 -8.54742e-20)
(0.00885861 -0.000385737 -2.09817e-20)
(0.00924673 -0.00141999 -2.35138e-20)
(0.00665825 -0.00359454 -1.06184e-19)
(0.00484493 -0.00817358 -2.95185e-19)
(0.00036104 -0.00868551 -8.52472e-20)
(-0.00341143 -0.00668192 2.48748e-20)
(-0.00696385 -0.00463927 1.50025e-19)
(-0.00577955 -0.00194646 -6.76919e-20)
(-0.0072463 -0.0014187 -7.87854e-20)
(-0.00887024 -0.00245175 -2.26794e-19)
(-0.00922918 0.0029798 3.35652e-20)
(-0.00656383 -0.00246211 2.71993e-20)
(-0.006912 -0.00196226 4.54283e-21)
(-0.00711019 -0.00241244 -4.36218e-20)
(-0.00600846 -0.00253584 3.01393e-20)
(-0.0041265 -0.00184903 -1.14167e-20)
(-0.00124694 -0.000968838 1.1437e-21)
(0.00116213 -0.000509764 6.18198e-22)
(0.00121463 -0.00050331 0)
(0.000883271 -0.000488039 0)
(0.000557916 -0.000613484 0)
(0.000440283 -0.000341353 0)
(0.000458058 -0.00042226 0)
(0.000457176 -6.28508e-05 0)
(-0.00343499 0.00124321 0)
(-0.00379625 0.000342212 0)
(-0.00402823 0.00115414 0)
(-0.00451923 0.00139945 0)
(-0.00468206 0.00183095 0)
(-0.00503148 0.00256461 0)
(-0.00414529 0.00308461 3.77896e-22)
(-0.00102668 0.00333325 -9.73497e-22)
(0.00158614 0.00441098 3.15814e-21)
(0.00395133 0.00461293 -5.17446e-21)
(0.00519702 0.00591424 2.09199e-20)
(0.00580103 0.00961617 -1.38383e-20)
(0.00846574 0.00321678 -7.9721e-21)
(0.00573596 0.00575382 -3.50867e-21)
(0.0108827 0.00662721 -2.44477e-20)
(0.00635021 0.0059891 2.38483e-21)
(0.00651353 0.00692333 4.19939e-21)
(0.013004 0.00421441 -1.7295e-20)
(0.0170078 -0.00188908 -2.58967e-20)
(0.0121267 -0.0135647 -4.68016e-19)
(-0.000300447 -0.0214214 3.40732e-19)
(-0.0115722 -0.0107175 -7.75227e-19)
(-0.0101701 -0.00106919 6.27852e-21)
(-0.00780674 0.00199733 2.31322e-21)
(-0.0072553 0.000878347 -1.16608e-20)
(-0.00616551 0.00125709 1.17816e-20)
(-0.00793446 -0.0038468 -1.26628e-20)
(-0.00580121 8.97285e-05 -3.95616e-21)
(-0.00824624 -0.00380013 1.73019e-20)
(-0.00752602 -0.00366112 -4.75188e-21)
(-0.00633467 -0.00291747 -7.79274e-21)
(-0.00499257 -0.00270432 -4.69585e-21)
(-0.00259079 -0.00228922 4.00319e-21)
(0.000558472 -0.0014633 -3.75669e-22)
(0.0012931 -0.00117513 0)
(0.00092718 -0.00114491 0)
(0.00071673 -0.001117 0)
(0.000334205 -0.00108979 0)
(0.000409772 -0.000597398 0)
(0.00020299 -0.000215696 0)
(-0.00431026 -6.77387e-05 0)
(-0.00387515 0.000422881 0)
(-0.00462288 0.000901452 0)
(-0.00466742 0.000867523 0)
(-0.0052263 0.00132007 0)
(-0.00564658 0.00181817 0)
(-0.00494429 0.00232169 -3.84602e-22)
(-0.00216746 0.0028188 2.33833e-22)
(-0.000497474 0.00382505 -1.88525e-21)
(0.0011247 0.00516372 -5.62545e-22)
(0.0035213 0.00518785 -1.51792e-21)
(0.00328746 0.00773616 7.07057e-21)
(0.000502954 0.00777754 -1.85008e-21)
(0.0133212 0.00816116 -1.12862e-20)
(0.00773914 0.0104368 3.57683e-20)
(0.0107961 0.0110379 1.40631e-21)
(0.0120766 0.0128748 9.21251e-21)
(0.0174288 0.0150161 4.75425e-21)
(0.0583493 -0.0108582 -5.18152e-19)
(-0.039195 -0.0024448 6.10199e-19)
(-0.00500249 0.0124871 -3.80501e-21)
(-0.00165616 0.010937 3.58455e-21)
(-0.000676393 0.00806619 3.96379e-21)
(-0.00511915 -0.00150841 6.72925e-21)
(-0.0119777 -0.00101476 3.5099e-21)
(-0.0102689 -0.00386718 7.83964e-24)
(-0.0086229 -0.00265922 -3.75102e-21)
(-0.00678324 -0.00271101 1.38256e-21)
(-0.00524893 -0.00311623 1.10364e-21)
(-0.00324721 -0.00298039 1.45015e-22)
(-0.000258307 -0.00237837 5.88823e-23)
(0.000862886 -0.00167888 0)
(0.000617286 -0.00118199 0)
(0.000369983 -0.000358502 0)
(0.000163452 -0.000140513 0)
(-0.00048143 6.18079e-05 0)
(-0.000165645 0.000104617 0)
(-0.00314392 -0.00230052 0)
(-0.00490933 -0.000118044 0)
(-0.00459353 -0.000231534 0)
(-0.00485082 0.000190863 0)
(-0.00557242 0.000336405 0)
(-0.00650668 0.000366841 0)
(-0.00535989 0.000632431 5.38335e-22)
(-0.00313063 0.00110352 -1.62581e-21)
(-0.000331001 0.00159949 2.61208e-21)
(0.000414662 0.00283628 2.53324e-22)
(0.00182915 0.003307 -1.33748e-20)
(0.00230892 0.00346565 2.01756e-20)
(-0.000277633 0.00636536 2.68943e-21)
(0.00280571 0.00811509 -6.66473e-21)
(-0.000338213 0.0130144 -1.6056e-20)
(0.0029645 0.0151736 2.15579e-20)
(0.00233294 0.0200998 4.27683e-21)
(0.0082644 0.0296158 5.23368e-21)
(-0.00133814 0.0158255 1.81814e-18)
(0.00164273 0.0163786 6.00884e-19)
(0.00789276 0.0197847 1.32251e-21)
(0.00585414 0.00718883 4.13896e-21)
(-0.00207562 0.000313736 4.0249e-21)
(-0.00341458 0.00259804 1.50236e-20)
(-0.0054655 -0.00348142 -1.3363e-20)
(-0.00762793 0.000670131 1.11041e-20)
(-0.00721948 -0.000701956 -6.0677e-21)
(-0.00589219 -0.0023106 6.35343e-21)
(-0.00477352 -0.00297071 3.79064e-21)
(-0.002879 -0.00306525 -2.26712e-21)
(-0.000812848 -0.00319641 -1.15974e-22)
(0.000129927 -0.00296756 0)
(-0.00035472 -0.00252431 0)
(-0.000628105 -0.00208404 0)
(-0.00025428 -0.00124039 0)
(-2.83222e-05 -0.00085407 0)
(-0.00078826 -0.000898315 0)
(-0.00672312 0.00301424 -9.28603e-23)
(-0.0052529 0.000350446 0)
(-0.00535397 -0.00133523 0)
(-0.00540609 -0.00125558 0)
(-0.0052925 -0.000882025 0)
(-0.00565238 -0.000613885 0)
(-0.00489073 -0.000458461 -7.13666e-22)
(-0.00277789 0.000516167 7.61312e-22)
(-0.000675525 0.0018119 -3.5535e-22)
(0.00069622 0.00432065 -2.49464e-21)
(0.00275724 0.00689796 1.79063e-20)
(0.00435633 0.0072315 -9.17514e-21)
(0.00818343 0.0128191 2.26619e-20)
(0.00706413 0.0147901 -4.43142e-20)
(0.00601109 0.0154813 -1.1962e-19)
(-0.000584528 0.0182197 1.35394e-19)
(-0.00404129 0.0177583 5.98983e-20)
(0.0146156 0.0224936 5.3578e-20)
(-0.0060284 0.0115579 -6.58118e-19)
(0.0103397 -0.00303438 7.93272e-20)
(0.0230648 0.0132856 -1.08352e-19)
(0.0157471 0.00348729 -5.91247e-20)
(0.00909447 -0.00172831 1.23931e-20)
(-0.000988113 -0.0016274 4.25986e-20)
(-0.00420467 -0.00275962 1.08147e-20)
(-0.0023755 -0.00455052 -3.59513e-22)
(-0.001976 -0.00213316 -3.43411e-20)
(-0.0037579 -0.003194 -2.78168e-21)
(-0.00355346 -0.00377084 -1.55375e-20)
(-0.00198643 -0.00366027 3.85223e-21)
(-0.000524778 -0.00386514 1.97756e-21)
(-0.00010698 -0.00336193 0)
(-0.000946605 -0.00312805 0)
(-0.00125744 -0.00338171 0)
(-0.00131676 -0.00303527 0)
(-0.00069879 -0.00154622 0)
(0.000236649 -0.000101007 0)
(-0.00443793 -0.00135251 9.31121e-25)
(-0.00413495 -0.00155333 0)
(-0.00377278 0.000333379 0)
(-0.00511687 -0.000107292 0)
(-0.00580985 -0.000889911 0)
(-0.0056709 -0.000740397 0)
(-0.00663681 -0.000469417 -5.01342e-22)
(-0.00476802 0.00101939 4.20742e-21)
(-0.00355175 0.00214317 -8.34525e-21)
(-0.00263507 0.0045943 2.39062e-21)
(-0.00164075 0.00774931 4.80808e-21)
(-0.00133392 0.0115802 3.01421e-20)
(-0.000238101 0.0196207 2.54615e-20)
(-0.00759346 0.0229057 -2.58474e-19)
(-0.00221919 0.0247755 -6.07651e-20)
(0.0023097 0.0214872 -2.32037e-19)
(-0.000973963 0.0159833 2.95515e-20)
(0.0214228 0.0351701 -2.94954e-20)
(0.155149 -0.0573722 5.93094e-20)
(-0.198013 -0.0404586 2.78702e-19)
(0.0293945 0.184483 -1.87613e-21)
(0.175497 -0.106044 -4.99185e-20)
(-0.167242 -0.102258 -7.66002e-20)
(0.0560275 0.00102669 1.48354e-19)
(0.0141163 -0.00443372 -2.37737e-19)
(0.00804496 0.000743338 -2.09604e-19)
(0.00460338 -0.00477846 -3.90867e-20)
(0.00845459 -0.00980689 -3.90964e-20)
(0.00149456 -0.00456465 7.67305e-20)
(-0.00468477 -0.00320852 3.23286e-21)
(-0.00479739 -0.00554761 -7.36e-21)
(-0.00311305 -0.00643899 1.11869e-20)
(-0.00226321 -0.0054096 3.4673e-21)
(-0.000350297 -0.00438675 -1.29189e-21)
(-0.00127308 -0.00357669 0)
(-0.000641038 -0.00242049 0)
(-0.000830352 -0.000746677 0)
(-0.00210572 -1.72019e-05 0)
(-0.00288269 -0.000466472 0)
(-0.00371921 1.08179e-05 0)
(-0.00233194 0.000108059 3.58447e-21)
(-0.00366236 0.000114959 0)
(-0.00496535 0.000157433 0)
(-0.00463777 -0.000814663 0)
(-0.00554146 -0.00140777 0)
(-0.00731847 -0.0020254 0)
(-0.007695 -0.00242233 -3.96633e-23)
(-0.00830328 -0.001292 -2.29223e-21)
(-0.00870609 0.000141321 -9.42597e-21)
(-0.0105334 0.00432393 1.81319e-20)
(-0.0115093 0.00468677 -3.61464e-21)
(-0.0149069 0.0125427 -8.69845e-20)
(-0.0154396 0.0109883 8.10042e-20)
(-0.00919047 0.0269195 -1.2381e-20)
(-0.011565 0.0361007 2.63084e-19)
(0.00218516 0.0599027 -2.17301e-19)
(0.0109681 0.0372677 -3.96795e-20)
(0.0831268 0.0259277 -9.72926e-19)
(0.217494 -0.292819 4.30729e-19)
(-0.752693 0.39054 6.67406e-19)
(0.291558 0.401089 1.08578e-19)
(0.598621 0.104013 -6.04822e-19)
(-0.563634 -0.187091 -6.59621e-19)
(0.0635839 -0.0344168 -5.10922e-19)
(0.000812812 0.00123797 -2.79806e-19)
(0.00920725 -0.00845851 -1.28762e-19)
(0.00811294 -0.0114663 9.47702e-20)
(-0.000496618 -0.00675742 -1.92564e-19)
(-0.00283337 -0.00986333 6.06946e-20)
(-0.00434089 -0.00883377 -1.8296e-20)
(-0.00713493 -0.0069087 -2.11134e-20)
(-0.00631932 -0.006802 2.229e-20)
(-0.00413231 -0.0066283 2.98125e-21)
(-0.00210976 -0.0062288 8.96837e-23)
(-0.00192273 -0.00534762 0)
(-0.00290159 -0.0037584 0)
(-0.00312881 -0.00253806 0)
(-0.00222257 -0.00110236 0)
(-0.0029154 -0.000365729 0)
(-0.00380592 0.000570684 -3.84434e-21)
(-0.00416035 -0.000165777 -3.13511e-21)
(-0.00405963 -0.00110294 0)
(-0.00457739 -0.00281872 0)
(-0.00478134 -0.00334952 0)
(-0.0049536 -0.00385542 0)
(-0.00577633 -0.004091 0)
(-0.00767132 -0.00371576 0)
(-0.00842963 -0.00364027 -5.11134e-22)
(-0.00942282 -0.00366863 -8.30524e-22)
(-0.0101981 -0.0024671 8.85827e-21)
(-0.013811 -0.000194691 -2.21531e-20)
(-0.0184894 0.00320764 -4.60982e-20)
(-0.0247252 0.00618455 6.19428e-20)
(-0.0387833 0.0129012 1.18721e-20)
(-0.0341166 0.0347974 -1.8801e-19)
(-0.0320628 0.0786501 -8.96481e-20)
(0.041025 0.100415 3.56988e-19)
(0.580707 -0.154351 3.66128e-18)
(-0.305313 0.0446737 3.54183e-19)
(-1.11557 0.120623 -7.96217e-19)
(0.448187 0.232254 2.34425e-19)
(0.991639 0.0837634 2.15109e-18)
(-0.305681 -0.113933 3.38037e-19)
(-0.19026 -0.0343162 -2.26758e-18)
(0.0263563 -0.00890966 1.8722e-19)
(0.0255364 -0.00634878 2.79279e-19)
(0.0124626 -0.022552 4.20715e-20)
(-0.00125477 -0.0159767 -1.65409e-19)
(-0.0068674 -0.0129394 1.72445e-21)
(-0.0073791 -0.0111908 4.08695e-20)
(-0.00795023 -0.00846449 -1.07965e-20)
(-0.00705386 -0.00622471 6.13735e-22)
(-0.00589242 -0.00767176 1.90302e-21)
(-0.00500344 -0.00661082 0)
(-0.00541602 -0.00568065 0)
(-0.00526692 -0.00484561 0)
(-0.00519154 -0.00374437 0)
(-0.00535268 -0.00285303 0)
(-0.00472561 -0.00138716 0)
(-0.00304438 -0.000307199 -4.26696e-21)
(-0.00254436 -0.000217349 3.8159e-22)
(-0.00309331 -0.000851033 0)
(-0.00359822 -0.00304437 0)
(-0.0042816 -0.00409193 0)
(-0.00485769 -0.00489805 0)
(-0.00539832 -0.00568631 0)
(-0.00699603 -0.00620909 0)
(-0.0079723 -0.00628029 0)
(-0.0105312 -0.00456189 -1.5085e-21)
(-0.0112462 -0.00588783 -4.24834e-21)
(-0.0170766 -0.0030497 -1.53808e-21)
(-0.0207756 -0.00176018 2.53596e-20)
(-0.0315277 -0.00471324 4.05049e-20)
(-0.0454494 0.00133892 -6.59005e-20)
(-0.0622366 0.0152532 1.09727e-19)
(-0.114944 0.0406206 -2.10878e-19)
(0.0613267 0.114026 2.14904e-19)
(0.21513 0.352316 1.108e-19)
(0.149966 0.54179 -1.88084e-19)
(-0.630595 -0.460754 -1.33066e-18)
(0.158351 -1.12402 1.35743e-19)
(0.847846 -0.323637 -3.56688e-19)
(-0.321148 0.365904 4.41874e-20)
(-0.221043 0.0963887 -2.19828e-18)
(0.0980291 -0.066774 5.88687e-20)
(0.0227364 -0.059076 1.37153e-19)
(-0.0228371 -0.0234269 3.05539e-20)
(-0.0238241 -0.0120581 -6.73866e-20)
(-0.0188633 -0.00761508 5.47258e-21)
(-0.0129042 -0.00814679 1.20658e-20)
(-0.00770478 -0.00698749 -1.30331e-21)
(-0.00613032 -0.00591151 3.16666e-21)
(-0.00546619 -0.00591148 0)
(-0.00696579 -0.00593806 0)
(-0.00621759 -0.00519112 0)
(-0.0051414 -0.00426866 0)
(-0.00403884 -0.0032522 6.21641e-21)
(-0.00387035 -0.00240278 8.59688e-21)
(-0.00390847 -0.00065326 5.1264e-21)
(-0.00338414 0.00033006 0)
(-0.000842127 -0.000596629 0)
(-0.00141253 -0.00135692 0)
(-0.00142571 -0.00254526 0)
(-0.00240322 -0.00318497 0)
(-0.00319852 -0.00443357 0)
(-0.00404796 -0.00613785 0)
(-0.00586696 -0.00815011 0)
(-0.0100522 -0.0106052 0)
(-0.0156135 -0.0106767 1.92137e-24)
(-0.018048 -0.00980306 -9.90598e-23)
(-0.0234226 -0.00892785 -4.33282e-21)
(-0.0258463 -0.00861665 -1.74864e-20)
(-0.0331599 -0.0152575 3.86979e-20)
(-0.0243036 -0.0258457 7.37157e-21)
(-0.0775969 -0.0502933 6.47901e-19)
(-0.123519 -0.0804388 -8.19698e-21)
(-0.2966 0.0494017 -7.64692e-20)
(-0.0876607 0.420749 1.46487e-19)
(0.835701 0.0859459 4.89489e-19)
(0.864821 -0.265291 5.46569e-19)
(-0.0331756 -0.235922 1.39117e-19)
(-0.828295 0.152182 -5.11654e-19)
(-0.482544 0.251232 -2.76068e-20)
(0.435343 0.0812475 -5.77678e-20)
(0.0675751 -0.203488 1.72255e-19)
(-0.0527174 -0.0874571 -9.57207e-20)
(-0.0651633 0.0157886 -3.74759e-20)
(-0.0312396 0.00542645 8.62683e-21)
(-0.0169194 0.00519017 5.78429e-21)
(-0.00905711 0.00112325 -5.87434e-21)
(-0.00587605 -0.00354288 5.74062e-22)
(-0.0035526 -0.00487461 3.43892e-24)
(-0.00443947 -0.00428009 0)
(-0.00741024 -0.00351968 0)
(-0.00782983 -0.00242414 0)
(-0.00718412 -0.00135574 0)
(-0.00625702 -0.00122919 0)
(-0.00548887 -0.00143576 0)
(-0.00432722 -0.00127285 0)
(-0.00458344 -0.00121524 -9.23272e-22)
(-0.00090191 -0.000803914 0)
(-0.000195993 -0.00265275 0)
(0.000161147 -0.00397441 0)
(6.14087e-05 -0.00549253 0)
(-0.000387121 -0.00730556 0)
(-0.000751566 -0.00940137 0)
(-0.00208024 -0.0117903 0)
(-0.00593187 -0.0155655 0)
(-0.0105593 -0.0191337 0)
(-0.0171781 -0.0209887 0)
(-0.0197517 -0.0196325 -4.42713e-22)
(-0.0242412 -0.0254397 2.28747e-21)
(-0.0264249 -0.0257929 1.51712e-20)
(-0.0196518 -0.0355057 -1.53167e-20)
(0.0111021 -0.0670106 2.18837e-18)
(-0.100064 -0.13817 -3.62843e-20)
(-0.332951 -0.33555 7.44099e-19)
(-0.221405 -0.470893 -4.40896e-20)
(0.0929476 0.449417 4.4087e-19)
(0.22573 1.32496 -2.99161e-18)
(0.0788883 1.44687 -8.92751e-19)
(-0.0627356 0.87652 -8.18188e-19)
(0.216277 0.00655838 -4.14042e-20)
(0.688412 -0.444163 -1.46061e-19)
(-0.249628 -0.180077 2.00102e-19)
(-0.206777 0.0260767 8.35746e-21)
(-0.0410598 0.0275297 -1.45449e-20)
(-0.0174509 0.0100321 9.56804e-21)
(-0.005087 0.00573331 1.3687e-20)
(-0.00175021 -0.000630391 -8.26436e-22)
(-0.0022704 -0.00532874 0)
(-0.00354706 -0.00481168 0)
(-0.00667106 -0.00311062 0)
(-0.00887414 -0.000320215 0)
(-0.00880627 0.000701408 0)
(-0.00763949 0.0010202 0)
(-0.00670504 0.000670554 0)
(-0.00568845 0.000343288 0)
(-0.00520062 2.39262e-05 0)
(-0.00583802 -0.000533834 0)
(0.00351038 -0.00167359 0)
(0.00360397 -0.00365258 0)
(0.00383421 -0.00509549 0)
(0.00412655 -0.00678837 0)
(0.00379926 -0.00874038 0)
(0.0038015 -0.010793 0)
(0.00339472 -0.012584 0)
(0.000685455 -0.0145491 0)
(-0.00392585 -0.0168936 0)
(-0.0112119 -0.0192837 0)
(-0.0138988 -0.0217245 0)
(-0.0216519 -0.0231057 4.18354e-23)
(-0.010975 -0.0189587 1.99419e-21)
(-0.01752 -0.0154474 -4.90341e-21)
(0.029207 -0.00236711 7.13409e-19)
(0.170411 -0.0972875 -7.39389e-20)
(0.134278 -0.237235 6.17944e-19)
(-0.449759 -0.466156 -1.51542e-19)
(-0.54208 -0.800355 4.44348e-19)
(-0.282745 -0.834148 6.1317e-20)
(0.108636 -0.728827 -2.18314e-19)
(0.526268 -0.701586 9.41288e-20)
(0.71818 -0.477824 4.22597e-19)
(0.521571 -0.153159 2.53751e-21)
(-0.501971 0.0497912 -6.31083e-20)
(-0.206154 0.101474 -1.02988e-19)
(-0.00565442 0.0293104 -9.5212e-20)
(-0.00401396 0.0139929 4.57259e-21)
(-0.000903654 0.00716787 -2.0064e-22)
(-0.00220484 0.00282188 0)
(-0.00436905 0.00291736 0)
(-0.00813781 0.00371985 0)
(-0.0110074 0.00458161 0)
(-0.0100271 0.00514316 0)
(-0.00854516 0.00390149 0)
(-0.00721081 0.00315023 0)
(-0.0064622 0.00257648 0)
(-0.00566294 0.00206956 0)
(-0.0055407 0.0015123 0)
(-0.00646288 0.000724664 0)
(0.00799056 0.000326971 0)
(0.00685555 -0.00168101 0)
(0.00592882 -0.0034496 0)
(0.00555931 -0.00558649 0)
(0.00540037 -0.00790653 0)
(0.00502466 -0.0102252 0)
(0.0041369 -0.0115332 0)
(0.00127159 -0.01187 0)
(-0.00381664 -0.0126414 0)
(-0.0112971 -0.0103569 0)
(-0.0171343 -0.0162808 2.32431e-21)
(-0.0275679 -0.0089347 0)
(-0.0331084 -0.0079761 0)
(-0.0506165 0.0292742 1.79709e-19)
(-0.0055107 0.0702908 3.36664e-19)
(0.197835 0.149641 1.19618e-18)
(0.114224 0.31861 -5.19116e-20)
(0.15154 0.190499 1.37678e-19)
(0.138472 -0.172869 -1.65363e-19)
(0.135427 -0.530099 6.54744e-20)
(0.112937 -0.671833 2.78646e-19)
(0.198996 -0.617569 -3.83138e-19)
(0.185478 -0.394595 2.76435e-20)
(-0.157259 0.0190149 -6.48653e-20)
(-0.783696 0.313867 1.40405e-20)
(0.138498 0.118453 1.17842e-19)
(0.0622286 0.0254446 1.61894e-20)
(0.0133145 0.0231401 0)
(0.00108852 0.0226054 0)
(-0.000517965 0.0194844 -4.2194e-21)
(-0.0020755 0.0186103 0)
(-0.00583748 0.0142643 0)
(-0.00699264 0.0113662 0)
(-0.00661427 0.007577 0)
(-0.00609103 0.00573099 0)
(-0.00552204 0.00483713 0)
(-0.00483023 0.00441804 0)
(-0.00436996 0.00378296 -1.02311e-21)
(-0.00427517 0.00276612 -7.3399e-22)
(-0.00421507 0.00213548 0)
(0.00555947 -0.000827714 0)
(0.00684077 -0.00277211 0)
(0.00763512 -0.00490594 0)
(0.00825529 -0.00725057 0)
(0.00850052 -0.00953725 0)
(0.00749789 -0.0120978 0)
(0.00462542 -0.0144849 0)
(-0.000690314 -0.0150779 0)
(-0.00587279 -0.0151871 0)
(-0.0120068 -0.0127726 0)
(-0.0203737 -0.0144883 -4.70641e-22)