/*--------------------------------*- C++ -*----------------------------------*\
| =========                 |                                                 |
| \\      /  F ield         | OpenFOAM: The Open Source CFD Toolbox           |
|  \\    /   O peration     | Version:  v2106                                 |
|   \\  /    A nd           | Website:  www.openfoam.com                      |
|    \\/     M anipulation  |                                                 |
\*---------------------------------------------------------------------------*/
FoamFile
{
    version     2.0;
    format      ascii;
    arch        "LSB;label=32;scalar=64";
    class       pointVectorField;
    location    "0";
    object      pointDisplacement;
}
// * * * * * * * * * * * * * * * * * * * * * * * * * * * * * * * * * * * * * //

dimensions      [0 1 0 0 0 0 0];

internalField   nonuniform List<vector> 
24440
(
(0 0 0)
(0 0 0)
(0 0 0)
(0 0 0)
(0 0 0)
(0 0 0)
(0 0 0)
(0 0 0)
(0 0 0)
(0 0 0)
(0 0 0)
(0 0 0)
(0 0 0)
(0 0 0)
(0 0 0)
(0 0 0)
(0 0 0)
(0 0 0)
(0 0 0)
(0 0 0)
(0 0 0)
(0 0 0)
(0 0 0)
(0 0 0)
(0 0 0)
(0 0 0)
(0 0 0)
(0 0 0)
(0 0 0)
(0 0 0)
(0 0 0)
(0 0 0)
(0 0 0)
(0 0 0)
(0 0 0)
(0 0 0)
(0 0 0)
(0 0 0)
(0 0 0)
(0 0 0)
(0 0 0)
(0 0 0)
(0 0 0)
(0 0 0)
(0 0 0)
(0 0 0)
(0 0 0)
(0 0 0)
(0 0 0)
(0 0 0)
(0 0 0)
(0 0 0)
(0 0 0)
(0 0 0)
(0 0 0)
(0 0 0)
(0 0 0)
(0 0 0)
(0 0 0)
(0 0 0)
(0 0 0)
(0 0 0)
(0 0 0)
(0 0 0)
(0 0 0)
(0 0 0)
(0 0 0)
(0 0 0)
(0 0 0)
(0 0 0)
(0 0 0)
(0 0 0)
(0 0 0)
(0 0 0)
(0 0 0)
(0 0 0)
(0 0 0)
(0 0 0)
(0 0 0)
(0 0 0)
(0 0 0)
(0 0 0)
(0 0 0)
(0 0 0)
(0 0 0)
(0 0 0)
(0 0 0)
(0 0 0)
(0 0 0)
(0 0 0)
(0 0 0)
(0 0 0)
(0 0 0)
(0 0 0)
(0 0 0)
(0 0 0)
(0 0 0)
(0 0 0)
(0 5.34001e-06 0)
(0 3.36744e-05 0)
(0 9.25974e-05 0)
(0 0.000142688 0)
(0 0.000161912 0)
(0 0.000142688 0)
(0 9.25974e-05 0)
(0 3.36744e-05 0)
(0 5.34001e-06 0)
(0 0 0)
(0 0 0)
(0 0 0)
(0 0 0)
(0 0 0)
(0 0 0)
(0 0 0)
(0 0 0)
(0 0 0)
(0 0 0)
(0 0 0)
(0 0 0)
(0 0 0)
(0 0 0)
(0 0 0)
(0 0 0)
(0 0 0)
(0 0 0)
(0 0 0)
(0 0 0)
(0 0 0)
(0 0 0)
(0 0 0)
(0 0 0)
(0 0 0)
(0 0 0)
(0 0 0)
(0 0 0)
(0 0 0)
(0 8.94307e-06 0)
(0 0.000118302 0)
(0 0.000348154 0)
(0 0.000627176 0)
(0 0.000894608 0)
(0 0.00108105 0)
(0 0.00125436 0)
(0 0.00131534 0)
(0 0.00125436 0)
(0 0.00108105 0)
(0 0.000894608 0)
(0 0.000627176 0)
(0 0.000348154 0)
(0 0.000118302 0)
(0 8.94307e-06 0)
(0 0 0)
(0 0 0)
(0 0 0)
(0 0 0)
(0 0 0)
(0 0 0)
(0 0 0)
(0 0 0)
(0 0 0)
(0 0 0)
(0 0 0)
(0 0 0)
(0 0 0)
(0 0 0)
(0 0 0)
(0 0 0)
(0 0 0)
(0 0 0)
(0 0 0)
(0 0 0)
(0 0 0)
(0 0 0)
(0 0 0)
(0 0 0)
(0 3.75481e-06 0)
(0 0.000155578 0)
(0 0.00053057 0)
(0 0.00104628 0)
(0 0.00157746 0)
(0 0.00217005 0)
(0 0.00268329 0)
(0 0.00300115 0)
(0 0.00330509 0)
(0 0.00341014 0)
(0 0.00330509 0)
(0 0.00300115 0)
(0 0.00268329 0)
(0 0.00217005 0)
(0 0.00157746 0)
(0 0.00104628 0)
(0 0.00053057 0)
(0 0.000155578 0)
(0 3.75481e-06 0)
(0 0 0)
(0 0 0)
(0 0 0)
(0 0 0)
(0 0 0)
(0 0 0)
(0 0 0)
(0 0 0)
(0 0 0)
(0 0 0)
(0 0 0)
(0 0 0)
(0 0 0)
(0 0 0)
(0 0 0)
(0 0 0)
(0 0 0)
(0 0 0)
(0 0 0)
(0 0 0)
(0 0 0)
(0 3.55036e-05 0)
(0 0.000369218 0)
(0 0.000981215 0)
(0 0.00172156 0)
(0 0.00264076 0)
(0 0.00356787 0)
(0 0.00437103 0)
(0 0.00512341 0)
(0 0.0056573 0)
(0 0.00597628 0)
(0 0.00612271 0)
(0 0.00597628 0)
(0 0.0056573 0)
(0 0.00512341 0)
(0 0.00437103 0)
(0 0.00356787 0)
(0 0.00264076 0)
(0 0.00172156 0)
(0 0.000981215 0)
(0 0.000369218 0)
(0 3.75865e-05 0)
(0 0 0)
(0 0 0)
(0 0 0)
(0 0 0)
(0 0 0)
(0 0 0)
(0 0 0)
(0 0 0)
(0 0 0)
(0 0 0)
(0 0 0)
(0 0 0)
(0 0 0)
(0 0 0)
(0 0 0)
(0 0 0)
(0 0 0)
(0 0 0)
(0 0 0)
(0 6.98276e-05 0)
(0 0.000489631 0)
(0 0.00122206 0)
(0 0.0022435 0)
(0 0.00345747 0)
(0 0.00471895 0)
(0 0.00587659 0)
(0 0.00697405 0)
(0 0.00738643 0)
(0 0.00783239 0)
(0 0.00820542 0)
(0 0.00849932 0)
(0 0.00870948 0)
(0 0.00885482 0)
(0 0.00898907 0)
(0 0.00903403 0)
(0 0.00898907 0)
(0 0.00885482 0)
(0 0.00870948 0)
(0 0.00849932 0)
(0 0.00820542 0)
(0 0.00783239 0)
(0 0.00738643 0)
(0 0.00697405 0)
(0 0.00587659 0)
(0 0.00471895 0)
(0 0.00345747 0)
(0 0.0022435 0)
(0 0.00119669 0)
(0 0.000442431 0)
(0 5.57968e-05 0)
(0 0 0)
(0 0 0)
(0 0 0)
(0 0 0)
(0 0 0)
(0 0 0)
(0 0 0)
(0 0 0)
(0 0 0)
(0 0 0)
(0 0 0)
(0 0 0)
(0 0 0)
(0 0 0)
(0 0 0)
(0 0 0)
(0 0 0)
(0 4.10714e-05 0)
(0 0.000470019 0)
(0 0.00130956 0)
(0 0.0024642 0)
(0 0.00381668 0)
(0 0.00540797 0)
(0 0.00616884 0)
(0 0.00684326 0)
(0 0.0075897 0)
(0 0.00828935 0)
(0 0.00892948 0)
(0 0.00947329 0)
(0 0.00825612 0)
(0 0.0087602 0)
(0 0.00915803 0)
(0 0.00955929 0)
(0 0.00987407 0)
(0 0.0100984 0)
(0 0.0102329 0)
(0 0.0103754 0)
(0 0.010423 0)
(0 0.0103754 0)
(0 0.0102329 0)
(0 0.0100984 0)
(0 0.00987407 0)
(0 0.00955929 0)
(0 0.00915803 0)
(0 0.0087602 0)
(0 0.00825612 0)
(0 0.00947329 0)
(0 0.00892948 0)
(0 0.00828935 0)
(0 0.0075897 0)
(0 0.00684326 0)
(0 0.00616884 0)
(0 0.00540797 0)
(0 0.00381668 0)
(0 0.0024642 0)
(0 0.00126179 0)
(0 0.00044957 0)
(0 3.72988e-05 0)
(0 0 0)
(0 0 0)
(0 0 0)
(0 0 0)
(0 0 0)
(0 0 0)
(0 0 0)
(0 0 0)
(0 0 0)
(0 0 0)
(0 0 0)
(0 0 0)
(0 0 0)
(0 0 0)
(0 0 0)
(0 0 0)
(0 0.000259867 0)
(0 0.00106198 0)
(0 0.00227037 0)
(0 0.00378825 0)
(0 0.00547881 0)
(0 0.00719662 0)
(0 0.00633433 0)
(0 0.00716175 0)
(0 0.00795793 0)
(0 0.00870761 0)
(0 0.00937368 0)
(0 0.0100492 0)
(0 0.0106461 0)
(0 0.0111392 0)
(0 0.0100089 0)
(0 0.0104601 0)
(0 0.0116042 0)
(0 0.011939 0)
(0 0.010819 0)
(0 0.0111474 0)
(0 0.012272 0)
(0 0.0125064 0)
(0 0.0113804 0)
(0 0.0114984 0)
(0 0.0126423 0)
(0 0.0127501 0)
(0 0.0116454 0)
(0 0.0116944 0)
(0 0.0127988 0)
(0 0.0127501 0)
(0 0.0116454 0)
(0 0.0114984 0)
(0 0.0126423 0)
(0 0.0125064 0)
(0 0.0113804 0)
(0 0.0111474 0)
(0 0.012272 0)
(0 0.011939 0)
(0 0.010819 0)
(0 0.0104601 0)
(0 0.0116042 0)
(0 0.0111392 0)
(0 0.0100089 0)
(0 0.0106461 0)
(0 0.0100492 0)
(0 0.00937368 0)
(0 0.00870761 0)
(0 0.00795793 0)
(0 0.00716175 0)
(0 0.00633433 0)
(0 0.00719662 0)
(0 0.00547881 0)
(0 0.00374265 0)
(0 0.00225245 0)
(0 0.00106085 0)
(0 0.000282516 0)
(0 0 0)
(0 0 0)
(0 0 0)
(0 0 0)
(0 0 0)
(0 0 0)
(0 0 0)
(0 0 0)
(0 0 0)
(0 0 0)
(0 0 0)
(0 0 0)
(0 0 0)
(0 0 0)
(0 0 0)
(0 5.66896e-05 0)
(0 0.000582412 0)
(0 0.00167879 0)
(0 0.00314538 0)
(0 0.0048889 0)
(0 0.00688644 0)
(0 0.00881054 0)
(0 0.00806174 0)
(0 0.00893339 0)
(0 0.00802144 0)
(0 0.00891857 0)
(0 0.00975271 0)
(0 0.0105746 0)
(0 0.00970812 0)
(0 0.0104292 0)
(0 0.0113157 0)
(0 0.0116536 0)
(0 0.0119681 0)
(0 0.0115404 0)
(0 0.0110378 0)
(0 0.0116503 0)
(0 0.0120896 0)
(0 0.012361 0)
(0 0.0119216 0)
(0 0.0125813 0)
(0 0.012998 0)
(0 0.0131908 0)
(0 0.012777 0)
(0 0.0132084 0)
(0 0.013616 0)
(0 0.0137176 0)
(0 0.0133339 0)
(0 0.0135647 0)
(0 0.0139382 0)
(0 0.0139914 0)
(0 0.0136265 0)
(0 0.0136929 0)
(0 0.0140499 0)
(0 0.0140392 0)
(0 0.0136815 0)
(0 0.0135647 0)
(0 0.0139382 0)
(0 0.0138878 0)
(0 0.0135117 0)
(0 0.0132084 0)
(0 0.013616 0)
(0 0.0134993 0)
(0 0.0130927 0)
(0 0.0125813 0)
(0 0.012998 0)
(0 0.0128277 0)
(0 0.0123603 0)
(0 0.0116503 0)
(0 0.0120896 0)
(0 0.0117936 0)
(0 0.0113555 0)
(0 0.0104292 0)
(0 0.0113157 0)
(0 0.0105746 0)
(0 0.00970812 0)
(0 0.00891857 0)
(0 0.00975271 0)
(0 0.00893339 0)
(0 0.00802144 0)
(0 0.00806174 0)
(0 0.00877085 0)
(0 0.00688169 0)
(0 0.0049677 0)
(0 0.00311897 0)
(0 0.00166245 0)
(0 0.000611602 0)
(0 6.48275e-05 0)
(0 0 0)
(0 0 0)
(0 0 0)
(0 0 0)
(0 0 0)
(0 0 0)
(0 0 0)
(0 0 0)
(0 0 0)
(0 0 0)
(0 0 0)
(0 0 0)
(0 0 0)
(0 0 0)
(0 0.000185475 0)
(0 0.000938701 0)
(0 0.00220553 0)
(0 0.0038754 0)
(0 0.00580519 0)
(0 0.00792775 0)
(0 0.00990874 0)
(0 0.00941996 0)
(0 0.0103522 0)
(0 0.00971774 0)
(0 0.0105647 0)
(0 0.0112167 0)
(0 0.0119975 0)
(0 0.0113363 0)
(0 0.0120197 0)
(0 0.0123738 0)
(0 0.0126783 0)
(0 0.0123733 0)
(0 0.0132336 0)
(0 0.0133801 0)
(0 0.0134983 0)
(0 0.0133531 0)
(0 0.0140091 0)
(0 0.0141263 0)
(0 0.0142023 0)
(0 0.0140876 0)
(0 0.0144682 0)
(0 0.0145535 0)
(0 0.0145923 0)
(0 0.0145063 0)
(0 0.0146693 0)
(0 0.014732 0)
(0 0.0147409 0)
(0 0.0146801 0)
(0 0.0147208 0)
(0 0.0147712 0)
(0 0.0147704 0)
(0 0.0147196 0)
(0 0.0146693 0)
(0 0.014732 0)
(0 0.0147196 0)
(0 0.0146547 0)
(0 0.0144682 0)
(0 0.0145535 0)
(0 0.0145211 0)
(0 0.0144223 0)
(0 0.0140091 0)
(0 0.0141263 0)
(0 0.0140601 0)
(0 0.0139237 0)
(0 0.0132336 0)
(0 0.0133801 0)
(0 0.0135141 0)
(0 0.0132591 0)
(0 0.0129739 0)
(0 0.0120197 0)
(0 0.0123738 0)
(0 0.0126813 0)
(0 0.0119975 0)
(0 0.0113363 0)
(0 0.0105647 0)
(0 0.0111911 0)
(0 0.0103455 0)
(0 0.00971774 0)
(0 0.00943123 0)
(0 0.00993809 0)
(0 0.00790783 0)
(0 0.00586301 0)
(0 0.00391604 0)
(0 0.00223108 0)
(0 0.000952095 0)
(0 0.000190051 0)
(0 0 0)
(0 0 0)
(0 0 0)
(0 0 0)
(0 0 0)
(0 0 0)
(0 0 0)
(0 0 0)
(0 0 0)
(0 0 0)
(0 0 0)
(0 0 0)
(0 0 0)
(0 0 0)
(0 0.000285998 0)
(0 0.00116613 0)
(0 0.00256619 0)
(0 0.00436798 0)
(0 0.00641972 0)
(0 0.00854904 0)
(0 0.0105777 0)
(0 0.0103263 0)
(0 0.0112512 0)
(0 0.0108218 0)
(0 0.0116591 0)
(0 0.0120937 0)
(0 0.0128375 0)
(0 0.0124783 0)
(0 0.0131553 0)
(0 0.0133226 0)
(0 0.0136139 0)
(0 0.0134506 0)
(0 0.0141522 0)
(0 0.0142294 0)
(0 0.0143166 0)
(0 0.0142418 0)
(0 0.0146899 0)
(0 0.0147272 0)
(0 0.0147583 0)
(0 0.0147254 0)
(0 0.0148186 0)
(0 0.0148186 0)
(0 0.0148186 0)
(0 0.0148186 0)
(0 0.0148186 0)
(0 0.0148186 0)
(0 0.0148186 0)
(0 0.0148186 0)
(0 0.0148186 0)
(0 0.0148186 0)
(0 0.0148186 0)
(0 0.0148186 0)
(0 0.0148186 0)
(0 0.0148186 0)
(0 0.0148186 0)
(0 0.0148186 0)
(0 0.0148186 0)
(0 0.0148186 0)
(0 0.0148186 0)
(0 0.0148186 0)
(0 0.0146899 0)
(0 0.0147272 0)
(0 0.0146861 0)
(0 0.0146472 0)
(0 0.0141522 0)
(0 0.0142294 0)
(0 0.0142954 0)
(0 0.0140939 0)
(0 0.0139495 0)
(0 0.0131477 0)
(0 0.013342 0)
(0 0.0134904 0)
(0 0.0128197 0)
(0 0.0124894 0)
(0 0.0117255 0)
(0 0.0120787 0)
(0 0.0112392 0)
(0 0.0108697 0)
(0 0.0103176 0)
(0 0.0105829 0)
(0 0.00854553 0)
(0 0.00640952 0)
(0 0.00435397 0)
(0 0.00255158 0)
(0 0.00115404 0)
(0 0.000279132 0)
(0 0 0)
(0 0 0)
(0 0 0)
(0 0 0)
(0 0 0)
(0 0 0)
(0 0 0)
(0 0 0)
(0 0 0)
(0 0 0)
(0 0 0)
(0 0 0)
(0 0 0)
(0 0 0)
(0 0.000303222 0)
(0 0.0012034 0)
(0 0.00262496 0)
(0 0.00444843 0)
(0 0.00652061 0)
(0 0.0086674 0)
(0 0.0107084 0)
(0 0.0107122 0)
(0 0.011638 0)
(0 0.0115008 0)
(0 0.0123371 0)
(0 0.0124744 0)
(0 0.013204 0)
(0 0.0130696 0)
(0 0.0137072 0)
(0 0.0137689 0)
(0 0.0140245 0)
(0 0.013969 0)
(0 0.014546 0)
(0 0.0145698 0)
(0 0.0146329 0)
(0 0.0146109 0)
(0 0.0148186 0)
(0 0.0148186 0)
(0 0.0148186 0)
(0 0.0148186 0)
(0 0.0148186 0)
(0 0.0148186 0)
(0 0.0148186 0)
(0 0.0148186 0)
(0 0.0148186 0)
(0 0.0148186 0)
(0 0.0148186 0)
(0 0.0148186 0)
(0 0.0148186 0)
(0 0.0148186 0)
(0 0.0148186 0)
(0 0.0148186 0)
(0 0.0148186 0)
(0 0.014818 0)
(0 0.0148159 0)
(0 0.014546 0)
(0 0.0145698 0)
(0 0.0145855 0)
(0 0.0144373 0)
(0 0.014385 0)
(0 0.0137064 0)
(0 0.0137697 0)
(0 0.0138112 0)
(0 0.013204 0)
(0 0.0130886 0)
(0 0.0123518 0)
(0 0.012443 0)
(0 0.0116019 0)
(0 0.0115108 0)
(0 0.0106722 0)
(0 0.0106845 0)
(0 0.00864074 0)
(0 0.00649355 0)
(0 0.00442329 0)
(0 0.00260393 0)
(0 0.00118832 0)
(0 0.000295408 0)
(0 0 0)
(0 0 0)
(0 0 0)
(0 0 0)
(0 0 0)
(0 0 0)
(0 0 0)
(0 0 0)
(0 0 0)
(0 0 0)
(0 0 0)
(0 0 0)
(0 0 0)
(0 0 0)
(0 0.000247803 0)
(0 0.001083 0)
(0 0.0024365 0)
(0 0.00419284 0)
(0 0.00620333 0)
(0 0.00829893 0)
(0 0.0103052 0)
(0 0.0105947 0)
(0 0.011519 0)
(0 0.0116349 0)
(0 0.0124722 0)
(0 0.0123561 0)
(0 0.0130891 0)
(0 0.0132026 0)
(0 0.0138106 0)
(0 0.0137781 0)
(0 0.0140337 0)
(0 0.0140647 0)
(0 0.0146114 0)
(0 0.0146037 0)
(0 0.0146629 0)
(0 0.0146699 0)
(0 0.0148186 0)
(0 0.0148186 0)
(0 0.0148186 0)
(0 0.0148186 0)
(0 0.0148186 0)
(0 0.0148186 0)
(0 0.0148186 0)
(0 0.0148186 0)
(0 0.0148186 0)
(0 0.0148186 0)
(0 0.0148186 0)
(0 0.0148186 0)
(0 0.0148186 0)
(0 0.0148186 0)
(0 0.0148186 0)
(0 0.0148186 0)
(0 0.0146114 0)
(0 0.0145974 0)
(0 0.0145897 0)
(0 0.0144419 0)
(0 0.0144587 0)
(0 0.0137978 0)
(0 0.0137771 0)
(0 0.0137142 0)
(0 0.0130981 0)
(0 0.0131864 0)
(0 0.012453 0)
(0 0.0123627 0)
(0 0.0115229 0)
(0 0.0116131 0)
(0 0.010596 0)
(0 0.0103314 0)
(0 0.00831818 0)
(0 0.0062159 0)
(0 0.00419976 0)
(0 0.00243925 0)
(0 0.00108327 0)
(0 0.000247262 0)
(0 0 0)
(0 0 0)
(0 0 0)
(0 0 0)
(0 0 0)
(0 0 0)
(0 0 0)
(0 0 0)
(0 0 0)
(0 0 0)
(0 0 0)
(0 0 0)
(0 0 0)
(0 0 0)
(0 0.000125335 0)
(0 0.000787251 0)
(0 0.00195813 0)
(0 0.00353281 0)
(0 0.00549253 0)
(0 0.00749645 0)
(0 0.00945111 0)
(0 0.00996947 0)
(0 0.0108961 0)
(0 0.0112227 0)
(0 0.0121131 0)
(0 0.0117463 0)
(0 0.0125041 0)
(0 0.0128683 0)
(0 0.0135097 0)
(0 0.013356 0)
(0 0.0136348 0)
(0 0.0137841 0)
(0 0.0144101 0)
(0 0.0143663 0)
(0 0.0144459 0)
(0 0.0144925 0)
(0 0.0148007 0)
(0 0.0147855 0)
(0 0.0148037 0)
(0 0.0148131 0)
(0 0.0148186 0)
(0 0.0148186 0)
(0 0.0148186 0)
(0 0.0148186 0)
(0 0.0148186 0)
(0 0.0148186 0)
(0 0.0148186 0)
(0 0.0148186 0)
(0 0.0148007 0)
(0 0.0147833 0)
(0 0.0147592 0)
(0 0.0147807 0)
(0 0.0144101 0)
(0 0.0143663 0)
(0 0.0143069 0)
(0 0.0141184 0)
(0 0.0142348 0)
(0 0.0135097 0)
(0 0.013356 0)
(0 0.0131815 0)
(0 0.0125041 0)
(0 0.0128683 0)
(0 0.0120905 0)
(0 0.0117463 0)
(0 0.0108961 0)
(0 0.0112521 0)
(0 0.00996947 0)
(0 0.00945111 0)
(0 0.00749645 0)
(0 0.00542175 0)
(0 0.00356754 0)
(0 0.0019809 0)
(0 0.000799718 0)
(0 0.000129547 0)
(0 0 0)
(0 0 0)
(0 0 0)
(0 0 0)
(0 0 0)
(0 0 0)
(0 0 0)
(0 0 0)
(0 0 0)
(0 0 0)
(0 0 0)
(0 0 0)
(0 0 0)
(0 0 0)
(0 1.55083e-05 0)
(0 0.000460361 0)
(0 0.00140185 0)
(0 0.00275661 0)
(0 0.00440079 0)
(0 0.00619009 0)
(0 0.00806768 0)
(0 0.0087796 0)
(0 0.00973429 0)
(0 0.0103603 0)
(0 0.0112447 0)
(0 0.0105701 0)
(0 0.0114072 0)
(0 0.0120137 0)
(0 0.0127204 0)
(0 0.012437 0)
(0 0.0127491 0)
(0 0.0130301 0)
(0 0.0137885 0)
(0 0.0136623 0)
(0 0.013777 0)
(0 0.0138818 0)
(0 0.0144587 0)
(0 0.0143757 0)
(0 0.0144363 0)
(0 0.014516 0)
(0 0.0147584 0)
(0 0.014712 0)
(0 0.0147324 0)
(0 0.0147747 0)
(0 0.0148186 0)
(0 0.0148104 0)
(0 0.0148136 0)
(0 0.0148186 0)
(0 0.0148186 0)
(0 0.0148186 0)
(0 0.0148186 0)
(0 0.0148186 0)
(0 0.0148186 0)
(0 0.0148186 0)
(0 0.0148104 0)
(0 0.0148059 0)
(0 0.0148181 0)
(0 0.0148185 0)
(0 0.0147584 0)
(0 0.014712 0)
(0 0.0146868 0)
(0 0.0147373 0)
(0 0.0144587 0)
(0 0.0143757 0)
(0 0.0143082 0)
(0 0.0143942 0)
(0 0.0137986 0)
(0 0.0136828 0)
(0 0.0135436 0)
(0 0.0133134 0)
(0 0.0135637 0)
(0 0.0126854 0)
(0 0.0124226 0)
(0 0.0121156 0)
(0 0.0113915 0)
(0 0.0120137 0)
(0 0.0112447 0)
(0 0.0105701 0)
(0 0.00973429 0)
(0 0.0103603 0)
(0 0.0087796 0)
(0 0.00806768 0)
(0 0.00619009 0)
(0 0.00440079 0)
(0 0.00275661 0)
(0 0.00140185 0)
(0 0.000429425 0)
(0 1.86283e-05 0)
(0 0 0)
(0 0 0)
(0 0 0)
(0 0 0)
(0 0 0)
(0 0 0)
(0 0 0)
(0 0 0)
(0 0 0)
(0 0 0)
(0 0 0)
(0 0 0)
(0 0 0)
(0 0 0)
(0 0 0)
(0 0.000141502 0)
(0 0.000745661 0)
(0 0.00175437 0)
(0 0.00306242 0)
(0 0.00469675 0)
(0 0.00638655 0)
(0 0.00718369 0)
(0 0.00812433 0)
(0 0.0089287 0)
(0 0.00980074 0)
(0 0.00897115 0)
(0 0.0097629 0)
(0 0.0106204 0)
(0 0.0113625 0)
(0 0.0104857 0)
(0 0.0110908 0)
(0 0.0115932 0)
(0 0.0120155 0)
(0 0.0117007 0)
(0 0.012577 0)
(0 0.012138 0)
(0 0.0124094 0)
(0 0.0128253 0)
(0 0.0134469 0)
(0 0.0130705 0)
(0 0.0132211 0)
(0 0.0136113 0)
(0 0.0139978 0)
(0 0.0136642 0)
(0 0.0137622 0)
(0 0.0140902 0)
(0 0.0142835 0)
(0 0.0139756 0)
(0 0.01403 0)
(0 0.0143213 0)
(0 0.014372 0)
(0 0.0140877 0)
(0 0.014073 0)
(0 0.0143603 0)
(0 0.0142835 0)
(0 0.0139756 0)
(0 0.0138986 0)
(0 0.0142241 0)
(0 0.0139978 0)
(0 0.0136642 0)
(0 0.0135417 0)
(0 0.0138812 0)
(0 0.0134469 0)
(0 0.0130705 0)
(0 0.0128759 0)
(0 0.0132564 0)
(0 0.012577 0)
(0 0.012138 0)
(0 0.0118831 0)
(0 0.0123058 0)
(0 0.0113625 0)
(0 0.0104857 0)
(0 0.0097629 0)
(0 0.0106204 0)
(0 0.00980074 0)
(0 0.00897115 0)
(0 0.00812433 0)
(0 0.0089287 0)
(0 0.00718369 0)
(0 0.00638655 0)
(0 0.00469675 0)
(0 0.00306242 0)
(0 0.00175437 0)
(0 0.000745661 0)
(0 0.000141502 0)
(0 0 0)
(0 0 0)
(0 0 0)
(0 0 0)
(0 0 0)
(0 0 0)
(0 0 0)
(0 0 0)
(0 0 0)
(0 0 0)
(0 0 0)
(0 0 0)
(0 0 0)
(0 0 0)
(0 0 0)
(0 0 0)
(0 0 0)
(0 0.000213237 0)
(0 0.000880508 0)
(0 0.00188756 0)
(0 0.0031365 0)
(0 0.0045045 0)
(0 0.00585492 0)
(0 0.00690288 0)
(0 0.00801723 0)
(0 0.00721771 0)
(0 0.00765284 0)
(0 0.00876978 0)
(0 0.00943357 0)
(0 0.00835555 0)
(0 0.00899826 0)
(0 0.010111 0)
(0 0.0107094 0)
(0 0.0101556 0)
(0 0.0103694 0)
(0 0.0109762 0)
(0 0.0116572 0)
(0 0.0111128 0)
(0 0.0113148 0)
(0 0.0118608 0)
(0 0.0123247 0)
(0 0.0117772 0)
(0 0.0118674 0)
(0 0.0124301 0)
(0 0.012725 0)
(0 0.0121992 0)
(0 0.0122606 0)
(0 0.0127859 0)
(0 0.0128575 0)
(0 0.012335 0)
(0 0.0123097 0)
(0 0.0128346 0)
(0 0.012725 0)
(0 0.0121992 0)
(0 0.0121132 0)
(0 0.0126395 0)
(0 0.0123247 0)
(0 0.0117772 0)
(0 0.0116473 0)
(0 0.0121947 0)
(0 0.0116572 0)
(0 0.0111128 0)
(0 0.0108875 0)
(0 0.0114296 0)
(0 0.0107094 0)
(0 0.0101556 0)
(0 0.00951569 0)
(0 0.00899826 0)
(0 0.010111 0)
(0 0.00943357 0)
(0 0.00835555 0)
(0 0.00765284 0)
(0 0.00876978 0)
(0 0.00801723 0)
(0 0.00690288 0)
(0 0.00585492 0)
(0 0.0045045 0)
(0 0.00721771 0)
(0 0.0031365 0)
(0 0.00188756 0)
(0 0.000880508 0)
(0 0.000213237 0)
(0 0 0)
(0 0 0)
(0 0 0)
(0 0 0)
(0 0 0)
(0 0 0)
(0 0 0)
(0 0 0)
(0 0 0)
(0 0 0)
(0 0 0)
(0 0 0)
(0 0 0)
(0 0 0)
(0 0 0)
(0 0 0)
(0 0 0)
(0 0 0)
(0 2.70412e-06 0)
(0 0.000242245 0)
(0 0.000820888 0)
(0 0.00160865 0)
(0 0.00263301 0)
(0 0.00372548 0)
(0 0.00478175 0)
(0 0.00539837 0)
(0 0.00654292 0)
(0 0.00719182 0)
(0 0.00591815 0)
(0 0.00650459 0)
(0 0.00772649 0)
(0 0.00831274 0)
(0 0.00768278 0)
(0 0.00794064 0)
(0 0.00858081 0)
(0 0.00927186 0)
(0 0.00860711 0)
(0 0.00879053 0)
(0 0.00946156 0)
(0 0.00989138 0)
(0 0.00922572 0)
(0 0.00937392 0)
(0 0.0100439 0)
(0 0.0103635 0)
(0 0.00968496 0)
(0 0.00974303 0)
(0 0.010423 0)
(0 0.0105015 0)
(0 0.00982156 0)
(0 0.0097896 0)
(0 0.0104708 0)
(0 0.0103635 0)
(0 0.00968496 0)
(0 0.00960391 0)
(0 0.0102803 0)
(0 0.00989138 0)
(0 0.00922572 0)
(0 0.00905603 0)
(0 0.00977586 0)
(0 0.00927186 0)
(0 0.00860711 0)
(0 0.00840376 0)
(0 0.0090613 0)
(0 0.00831274 0)
(0 0.00768278 0)
(0 0.00704143 0)
(0 0.00650459 0)
(0 0.00772649 0)
(0 0.00719182 0)
(0 0.00591815 0)
(0 0.00539837 0)
(0 0.00654292 0)
(0 0.00478175 0)
(0 0.00372548 0)
(0 0.00263301 0)
(0 0.00160865 0)
(0 0.000820888 0)
(0 0.000242245 0)
(0 2.70412e-06 0)
(0 0 0)
(0 0 0)
(0 0 0)
(0 0 0)
(0 0 0)
(0 0 0)
(0 0 0)
(0 0 0)
(0 0 0)
(0 0 0)
(0 0 0)
(0 0 0)
(0 0 0)
(0 0 0)
(0 0 0)
(0 0 0)
(0 0 0)
(0 0 0)
(0 0 0)
(0 0 0)
(0 0.000127219 0)
(0 0.000529861 0)
(0 0.00107339 0)
(0 0.00180739 0)
(0 0.0026725 0)
(0 0.00315132 0)
(0 0.00419912 0)
(0 0.00474902 0)
(0 0.00362055 0)
(0 0.00406839 0)
(0 0.00526934 0)
(0 0.0057487 0)
(0 0.00510971 0)
(0 0.00531689 0)
(0 0.0059698 0)
(0 0.00654549 0)
(0 0.00585768 0)
(0 0.00595637 0)
(0 0.00663442 0)
(0 0.007135 0)
(0 0.00642906 0)
(0 0.00655271 0)
(0 0.0072657 0)
(0 0.00754113 0)
(0 0.00681359 0)
(0 0.0068625 0)
(0 0.00759273 0)
(0 0.00766791 0)
(0 0.00693549 0)
(0 0.00690178 0)
(0 0.00763415 0)
(0 0.00754113 0)
(0 0.00681359 0)
(0 0.00674542 0)
(0 0.00746921 0)
(0 0.007135 0)
(0 0.00642906 0)
(0 0.00628799 0)
(0 0.00698575 0)
(0 0.00654549 0)
(0 0.00585768 0)
(0 0.00569187 0)
(0 0.00636919 0)
(0 0.0057487 0)
(0 0.00510971 0)
(0 0.00448398 0)
(0 0.00406839 0)
(0 0.00526934 0)
(0 0.00474902 0)
(0 0.00362055 0)
(0 0.00315132 0)
(0 0.00419912 0)
(0 0.0026725 0)
(0 0.00180739 0)
(0 0.00107339 0)
(0 0.000529861 0)
(0 0.000127219 0)
(0 0 0)
(0 0 0)
(0 0 0)
(0 0 0)
(0 0 0)
(0 0 0)
(0 0 0)
(0 0 0)
(0 0 0)
(0 0 0)
(0 0 0)
(0 0 0)
(0 0 0)
(0 0 0)
(0 0 0)
(0 0 0)
(0 0 0)
(0 0 0)
(0 0 0)
(0 0 0)
(0 0 0)
(0 0 0)
(0 0 0)
(0 1.08337e-05 0)
(0 0.000183765 0)
(0 0.000512861 0)
(0 0.00107587 0)
(0 0.00136878 0)
(0 0.00219409 0)
(0 0.00257843 0)
(0 0.0016662 0)
(0 0.00195808 0)
(0 0.00294943 0)
(0 0.0032969 0)
(0 0.00274747 0)
(0 0.00289363 0)
(0 0.00345889 0)
(0 0.00384903 0)
(0 0.00325755 0)
(0 0.00339468 0)
(0 0.00399971 0)
(0 0.00437942 0)
(0 0.00374121 0)
(0 0.00383262 0)
(0 0.00447935 0)
(0 0.00469098 0)
(0 0.00402651 0)
(0 0.00406302 0)
(0 0.00473078 0)
(0 0.00479435 0)
(0 0.0041226 0)
(0 0.00409236 0)
(0 0.00476277 0)
(0 0.00469098 0)
(0 0.00402651 0)
(0 0.00397572 0)
(0 0.00463558 0)
(0 0.00437942 0)
(0 0.00374121 0)
(0 0.0036373 0)
(0 0.00426571 0)
(0 0.00384903 0)
(0 0.00325755 0)
(0 0.00311105 0)
(0 0.00368776 0)
(0 0.0032969 0)
(0 0.00274747 0)
(0 0.00223501 0)
(0 0.00195808 0)
(0 0.00294943 0)
(0 0.00257843 0)
(0 0.0016662 0)
(0 0.00136878 0)
(0 0.00219409 0)
(0 0.00107587 0)
(0 0.000512861 0)
(0 0.000183765 0)
(0 1.08337e-05 0)
(0 0 0)
(0 0 0)
(0 0 0)
(0 0 0)
(0 0 0)
(0 0 0)
(0 0 0)
(0 0 0)
(0 0 0)
(0 0 0)
(0 0 0)
(0 0 0)
(0 0 0)
(0 0 0)
(0 0 0)
(0 0 0)
(0 0 0)
(0 0 0)
(0 0 0)
(0 0 0)
(0 0 0)
(0 0 0)
(0 0 0)
(0 0 0)
(0 0 0)
(0 0 0)
(0 1.96382e-06 0)
(0 0.000147541 0)
(0 0.000256989 0)
(0 0.000712605 0)
(0 0.000923275 0)
(0 0.000383201 0)
(0 0.000518171 0)
(0 0.00113581 0)
(0 0.00134169 0)
(0 0.000923561 0)
(0 0.00101811 0)
(0 0.00139238 0)
(0 0.00170961 0)
(0 0.00128662 0)
(0 0.00136813 0)
(0 0.00180504 0)
(0 0.00204908 0)
(0 0.00157785 0)
(0 0.001634 0)
(0 0.00211411 0)
(0 0.00225285 0)
(0 0.00175419 0)
(0 0.00177698 0)
(0 0.00227909 0)
(0 0.00232474 0)
(0 0.00181744 0)
(0 0.00179533 0)
(0 0.00230022 0)
(0 0.00225285 0)
(0 0.00175419 0)
(0 0.00172257 0)
(0 0.0022164 0)
(0 0.00204908 0)
(0 0.00157785 0)
(0 0.00151442 0)
(0 0.00197549 0)
(0 0.00170961 0)
(0 0.00128662 0)
(0 0.00120055 0)
(0 0.00160843 0)
(0 0.00134169 0)
(0 0.000923561 0)
(0 0.000621056 0)
(0 0.000518171 0)
(0 0.00113581 0)
(0 0.000923275 0)
(0 0.000383201 0)
(0 0.000256989 0)
(0 0.000712605 0)
(0 0.000147541 0)
(0 1.96382e-06 0)
(0 0 0)
(0 0 0)
(0 0 0)
(0 0 0)
(0 0 0)
(0 0 0)
(0 0 0)
(0 0 0)
(0 0 0)
(0 0 0)
(0 0 0)
(0 0 0)
(0 0 0)
(0 0 0)
(0 0 0)
(0 0 0)
(0 0 0)
(0 0 0)
(0 0 0)
(0 0 0)
(0 0 0)
(0 0 0)
(0 0 0)
(0 0 0)
(0 0 0)
(0 0 0)
(0 0 0)
(0 0 0)
(0 0 0)
(0 0 0)
(0 0 0)
(0 7.21235e-05 0)
(0 2.60862e-05 0)
(0 0 0)
(0 0.000113414 0)
(0 0.000189472 0)
(0 5.80067e-06 0)
(0 2.53545e-05 0)
(0 0.000273045 0)
(0 0.000357728 0)
(0 5.34633e-05 0)
(0 8.5129e-05 0)
(0 0.000437746 0)
(0 0.000508078 0)
(0 0.000115988 0)
(0 0.000142418 0)
(0 0.000564577 0)
(0 0.000604052 0)
(0 0.000161625 0)
(0 0.00017171 0)
(0 0.000624338 0)
(0 0.00064057 0)
(0 0.000180326 0)
(0 0.00017171 0)
(0 0.000624338 0)
(0 0.000604052 0)
(0 0.000161625 0)
(0 0.000142418 0)
(0 0.000564577 0)
(0 0.000508078 0)
(0 0.000115988 0)
(0 8.5129e-05 0)
(0 0.000437746 0)
(0 0.000357728 0)
(0 5.34633e-05 0)
(0 2.53545e-05 0)
(0 0.000273045 0)
(0 0.000189472 0)
(0 5.80067e-06 0)
(0 0 0)
(0 0.000113414 0)
(0 7.21235e-05 0)
(0 0 0)
(0 0 0)
(0 0 0)
(0 2.60862e-05 0)
(0 0 0)
(0 0 0)
(0 0 0)
(0 0 0)
(0 0 0)
(0 0 0)
(0 0 0)
(0 0 0)
(0 0 0)
(0 0 0)
(0 0 0)
(0 0 0)
(0 0 0)
(0 0 0)
(0 0 0)
(0 0 0)
(0 0 0)
(0 0 0)
(0 0 0)
(0 0 0)
(0 0 0)
(0 0 0)
(0 0 0)
(0 0 0)
(0 0 0)
(0 0 0)
(0 0 0)
(0 0 0)
(0 0 0)
(0 0 0)
(0 0 0)
(0 0 0)
(0 0 0)
(0 0 0)
(0 0 0)
(0 0 0)
(0 0 0)
(0 0 0)
(0 0 0)
(0 0 0)
(0 5.21302e-07 0)
(0 0 0)
(0 0 0)
(0 2.00614e-06 0)
(0 1.19362e-06 0)
(0 0 0)
(0 5.21302e-07 0)
(0 1.19362e-06 0)
(0 0 0)
(0 0 0)
(0 0 0)
(0 0 0)
(0 0 0)
(0 0 0)
(0 0 0)
(0 0 0)
(0 0 0)
(0 0 0)
(0 0 0)
(0 0 0)
(0 0 0)
(0 0 0)
(0 0 0)
(0 0 0)
(0 0 0)
(0 0 0)
(0 0 0)
(0 0 0)
(0 0 0)
(0 0 0)
(0 0 0)
(0 0 0)
(0 0 0)
(0 0 0)
(0 0 0)
(0 0 0)
(0 0 0)
(0 0 0)
(0 0 0)
(0 0 0)
(0 0 0)
(0 0 0)
(0 0 0)
(0 0 0)
(0 0 0)
(0 0 0)
(0 0 0)
(0 0 0)
(0 0 0)
(0 0 0)
(0 0 0)
(0 0 0)
(0 0 0)
(0 0 0)
(0 0 0)
(0 0 0)
(0 0 0)
(0 0 0)
(0 0 0)
(0 0 0)
(0 0 0)
(0 0 0)
(0 0 0)
(0 0 0)
(0 0 0)
(0 0 0)
(0 0 0)
(0 0 0)
(0 0 0)
(0 0 0)
(0 0 0)
(0 0 0)
(0 0 0)
(0 0 0)
(0 0 0)
(0 0 0)
(0 0 0)
(0 0 0)
(0 0 0)
(0 0 0)
(0 0 0)
(0 0 0)
(0 0 0)
(0 0 0)
(0 0 0)
(0 0 0)
(0 0 0)
(0 0 0)
(0 0 0)
(0 0 0)
(0 0 0)
(0 0 0)
(0 0 0)
(0 0 0)
(0 0 0)
(0 0 0)
(0 0 0)
(0 0 0)
(0 0 0)
(0 0 0)
(0 0 0)
(0 0 0)
(0 0 0)
(0 0 0)
(0 0 0)
(0 0 0)
(0 0 0)
(0 0 0)
(0 0 0)
(0 0 0)
(0 0 0)
(0 0 0)
(0 0 0)
(0 0 0)
(0 0 0)
(0 0 0)
(0 0 0)
(0 0 0)
(0 0 0)
(0 0 0)
(0 0 0)
(0 0 0)
(0 0 0)
(0 0 0)
(0 0 0)
(0 0 0)
(0 0 0)
(0 0 0)
(0 0 0)
(0 0 0)
(0 0 0)
(0 0 0)
(0 0 0)
(0 0 0)
(0 0 0)
(0 0 0)
(0 0 0)
(0 0 0)
(0 0 0)
(0 0 0)
(0 0 0)
(0 0 0)
(0 0 0)
(0 0 0)
(0 0 0)
(0 0 0)
(0 0 0)
(0 0 0)
(0 0 0)
(0 0 0)
(0 0 0)
(0 0 0)
(0 0 0)
(0 0 0)
(0 0 0)
(0 0 0)
(0 0 0)
(0 0 0)
(0 0 0)
(0 0 0)
(0 0 0)
(0 0 0)
(0 0 0)
(0 0 0)
(0 0 0)
(0 0 0)
(0 0 0)
(0 0 0)
(0 0 0)
(0 0 0)
(0 0 0)
(0 0 0)
(0 0 0)
(0 0 0)
(0 0 0)
(0 0 0)
(0 0 0)
(0 0 0)
(0 0 0)
(0 0 0)
(0 0 0)
(0 0 0)
(0 0 0)
(0 0 0)
(0 0 0)
(0 0 0)
(0 0 0)
(0 0 0)
(0 0 0)
(0 0 0)
(0 0 0)
(0 0 0)
(0 0 0)
(0 0 0)
(0 0 0)
(0 0 0)
(0 0 0)
(0 0 0)
(0 0 0)
(0 0 0)
(0 0 0)
(0 0 0)
(0 0 0)
(0 0 0)
(0 0 0)
(0 0 0)
(0 0 0)
(0 0 0)
(0 0 0)
(0 0 0)
(0 0 0)
(0 0 0)
(0 0 0)
(0 0 0)
(0 0 0)
(0 0 0)
(0 0 0)
(0 0 0)
(0 0 0)
(0 0 0)
(0 0 0)
(0 0 0)
(0 0 0)
(0 0 0)
(0 0 0)
(0 0 0)
(0 0 0)
(0 0 0)
(0 0 0)
(0 0 0)
(0 0 0)
(0 0 0)
(0 0 0)
(0 0 0)
(0 0 0)
(0 0 0)
(0 0 0)
(0 0 0)
(0 0 0)
(0 0 0)
(0 0 0)
(0 0 0)
(0 0 0)
(0 0 0)
(0 0 0)
(0 0 0)
(0 0 0)
(0 0 0)
(0 0 0)
(0 0 0)
(0 0 0)
(0 0 0)
(0 0 0)
(0 0 0)
(0 0 0)
(0 0 0)
(0 0 0)
(0 0 0)
(0 0 0)
(0 0 0)
(0 0 0)
(0 0 0)
(0 0 0)
(0 0 0)
(0 0 0)
(0 0 0)
(0 0 0)
(0 0 0)
(0 0 0)
(0 0 0)
(0 0 0)
(0 0 0)
(0 0 0)
(0 0 0)
(0 0 0)
(0 0 0)
(0 0 0)
(0 0 0)
(0 0 0)
(0 0 0)
(0 0 0)
(0 0 0)
(0 0 0)
(0 0 0)
(0 0 0)
(0 0 0)
(0 0 0)
(0 0 0)
(0 0 0)
(0 0 0)
(0 0 0)
(0 0 0)
(0 0 0)
(0 0 0)
(0 0 0)
(0 0 0)
(0 0 0)
(0 0 0)
(0 0 0)
(0 0 0)
(0 0 0)
(0 0 0)
(0 0 0)
(0 0 0)
(0 0 0)
(0 0 0)
(0 0 0)
(0 0 0)
(0 0 0)
(0 0 0)
(0 0 0)
(0 0 0)
(0 0 0)
(0 0 0)
(0 0 0)
(0 0 0)
(0 0 0)
(0 0 0)
(0 0 0)
(0 0 0)
(0 0 0)
(0 0 0)
(0 0 0)
(0 0 0)
(0 0 0)
(0 0 0)
(0 0 0)
(0 0 0)
(0 0 0)
(0 0 0)
(0 0 0)
(0 0 0)
(0 0 0)
(0 0 0)
(0 0 0)
(0 0 0)
(0 0 0)
(0 0 0)
(0 0 0)
(0 0 0)
(0 0 0)
(0 0 0)
(0 0 0)
(0 0 0)
(0 0 0)
(0 0 0)
(0 0 0)
(0 0 0)
(0 0 0)
(0 0 0)
(0 0 0)
(0 0 0)
(0 0 0)
(0 0 0)
(0 0 0)
(0 0 0)
(0 0 0)
(0 0 0)
(0 0 0)
(0 0 0)
(0 0 0)
(0 0 0)
(0 0 0)
(0 0 0)
(0 0 0)
(0 0 0)
(0 0 0)
(0 0 0)
(0 0 0)
(0 0 0)
(0 0 0)
(0 0 0)
(0 0 0)
(0 0 0)
(0 0 0)
(0 0 0)
(0 0 0)
(0 0 0)
(0 0 0)
(0 0 0)
(0 0 0)
(0 0 0)
(0 0 0)
(0 0 0)
(0 0 0)
(0 0 0)
(0 0 0)
(0 0 0)
(0 0 0)
(0 0 0)
(0 0 0)
(0 0 0)
(0 0 0)
(0 0 0)
(0 0 0)
(0 0 0)
(0 0 0)
(0 0 0)
(0 0 0)
(0 0 0)
(0 0 0)
(0 0 0)
(0 0 0)
(0 0 0)
(0 0 0)
(0 0 0)
(0 0 0)
(0 0 0)
(0 0 0)
(0 0 0)
(0 0 0)
(0 0 0)
(0 0 0)
(0 0 0)
(0 0 0)
(0 0 0)
(0 0 0)
(0 0 0)
(0 0 0)
(0 0 0)
(0 0 0)
(0 0 0)
(0 0 0)
(0 0 0)
(0 0 0)
(0 0 0)
(0 0 0)
(0 0 0)
(0 0 0)
(0 0 0)
(0 0 0)
(0 0 0)
(0 0 0)
(0 0 0)
(0 0 0)
(0 0 0)
(0 0 0)
(0 0 0)
(0 0 0)
(0 0 0)
(0 0 0)
(0 0 0)
(0 0 0)
(0 0 0)
(0 0 0)
(0 0 0)
(0 0 0)
(0 0 0)
(0 0 0)
(0 0 0)
(0 0 0)
(0 0 0)
(0 0 0)
(0 0 0)
(0 0 0)
(0 0 0)
(0 0 0)
(0 0 0)
(0 0 0)
(0 0 0)
(0 0 0)
(0 0 0)
(0 0 0)
(0 0 0)
(0 0 0)
(0 0 0)
(0 0 0)
(0 0 0)
(0 0 0)
(0 0 0)
(0 0 0)
(0 0 0)
(0 0 0)
(0 0 0)
(0 0 0)
(0 0 0)
(0 0 0)
(0 0 0)
(0 0 0)
(0 0 0)
(0 0 0)
(0 0 0)
(0 0 0)
(0 0 0)
(0 0 0)
(0 0 0)
(0 0 0)
(0 0 0)
(0 0 0)
(0 0 0)
(0 0 0)
(0 0 0)
(0 0 0)
(0 0 0)
(0 0 0)
(0 0 0)
(0 0 0)
(0 0 0)
(0 0 0)
(0 0 0)
(0 0 0)
(0 0 0)
(0 0 0)
(0 0 0)
(0 0 0)
(0 0 0)
(0 0 0)
(0 0 0)
(0 0 0)
(0 0 0)
(0 0 0)
(0 0 0)
(0 0 0)
(0 0 0)
(0 0 0)
(0 0 0)
(0 0 0)
(0 0 0)
(0 0 0)
(0 0 0)
(0 0 0)
(0 0 0)
(0 0 0)
(0 0 0)
(0 0 0)
(0 0 0)
(0 0 0)
(0 0 0)
(0 0 0)
(0 0 0)
(0 0 0)
(0 0 0)
(0 0 0)
(0 0 0)
(0 0 0)
(0 0 0)
(0 0 0)
(0 0 0)
(0 0 0)
(0 0 0)
(0 0 0)
(0 0 0)
(0 0 0)
(0 0 0)
(0 0 0)
(0 0 0)
(0 0 0)
(0 0 0)
(0 0 0)
(0 0 0)
(0 0 0)
(0 0 0)
(0 0 0)
(0 0 0)
(0 0 0)
(0 0 0)
(0 0 0)
(0 0 0)
(0 0 0)
(0 0 0)
(0 0 0)
(0 0 0)
(0 0 0)
(0 0 0)
(0 0 0)
(0 0 0)
(0 0 0)
(0 0 0)
(0 0 0)
(0 0 0)
(0 0 0)
(0 0 0)
(0 0 0)
(0 0 0)
(0 0 0)
(0 0 0)
(0 0 0)
(0 0 0)
(0 0 0)
(0 0 0)
(0 0 0)
(0 0 0)
(0 0 0)
(0 0 0)
(0 0 0)
(0 0 0)
(0 0 0)
(0 0 0)
(0 0 0)
(0 0 0)
(0 0 0)
(0 0 0)
(0 0 0)
(0 0 0)
(0 0 0)
(0 0 0)
(0 0 0)
(0 0 0)
(0 0 0)
(0 0 0)
(0 0 0)
(0 0 0)
(0 0 0)
(0 0 0)
(0 0 0)
(0 0 0)
(0 0 0)
(0 0 0)
(0 0 0)
(0 0 0)
(0 0 0)
(0 0 0)
(0 0 0)
(0 0 0)
(0 0 0)
(0 0 0)
(0 0 0)
(0 0 0)
(0 0 0)
(0 0 0)
(0 0 0)
(0 0 0)
(0 0 0)
(0 0 0)
(0 0 0)
(0 0 0)
(0 0 0)
(0 0 0)
(0 0 0)
(0 0 0)
(0 0 0)
(0 0 0)
(0 0 0)
(0 0 0)
(0 0 0)
(0 0 0)
(0 0 0)
(0 0 0)
(0 0 0)
(0 0 0)
(0 0 0)
(0 0 0)
(0 0 0)
(0 0 0)
(0 0 0)
(0 0 0)
(0 0 0)
(0 0 0)
(0 0 0)
(0 0 0)
(0 0 0)
(0 0 0)
(0 0 0)
(0 0 0)
(0 0 0)
(0 0 0)
(0 0 0)
(0 0 0)
(0 0 0)
(0 0 0)
(0 0 0)
(0 0 0)
(0 0 0)
(0 0 0)
(0 0 0)
(0 0 0)
(0 0 0)
(0 0 0)
(0 0 0)
(0 0 0)
(0 0 0)
(0 0 0)
(0 0 0)
(0 0 0)
(0 0 0)
(0 0 0)
(0 0 0)
(0 0 0)
(0 0 0)
(0 0 0)
(0 0 0)
(0 0 0)
(0 0 0)
(0 0 0)
(0 0 0)
(0 0 0)
(0 0 0)
(0 0 0)
(0 0 0)
(0 0 0)
(0 0 0)
(0 0 0)
(0 0 0)
(0 0 0)
(0 0 0)
(0 0 0)
(0 0 0)
(0 0 0)
(0 0 0)
(0 0 0)
(0 0 0)
(0 0 0)
(0 0 0)
(0 0 0)
(0 0 0)
(0 0 0)
(0 0 0)
(0 0 0)
(0 0 0)
(0 0 0)
(0 0 0)
(0 0 0)
(0 0 0)
(0 0 0)
(0 0 0)
(0 0 0)
(0 0 0)
(0 0 0)
(0 0 0)
(0 0 0)
(0 0 0)
(0 0 0)
(0 0 0)
(0 0 0)
(0 0 0)
(0 0 0)
(0 0 0)
(0 0 0)
(0 0 0)
(0 0 0)
(0 0 0)
(0 0 0)
(0 0 0)
(0 0 0)
(0 0 0)
(0 0 0)
(0 0 0)
(0 0 0)
(0 0 0)
(0 0 0)
(0 0 0)
(0 0 0)
(0 0 0)
(0 0 0)
(0 0 0)
(0 0 0)
(0 0 0)
(0 0 0)
(0 0 0)
(0 0 0)
(0 0 0)
(0 0 0)
(0 0 0)
(0 0 0)
(0 0 0)
(0 0 0)
(0 0 0)
(0 0 0)
(0 0 0)
(0 0 0)
(0 0 0)
(0 0 0)
(0 0 0)
(0 0 0)
(0 0 0)
(0 0 0)
(0 0 0)
(0 0 0)
(0 0 0)
(0 0 0)
(0 0 0)
(0 0 0)
(0 0 0)
(0 0 0)
(0 0 0)
(0 0 0)
(0 0 0)
(0 0 0)
(0 0 0)
(0 0 0)
(0 0 0)
(0 0 0)
(0 0 0)
(0 0 0)
(0 0 0)
(0 0 0)
(0 0 0)
(0 0 0)
(0 0 0)
(0 0 0)
(0 0 0)
(0 0 0)
(0 0 0)
(0 0 0)
(0 0 0)
(0 0 0)
(0 0 0)
(0 0 0)
(0 0 0)
(0 0 0)
(0 0 0)
(0 0 0)
(0 0 0)
(0 0 0)
(0 0 0)
(0 0 0)
(0 0 0)
(0 0 0)
(0 0 0)
(0 0 0)
(0 0 0)
(0 0 0)
(0 0 0)
(0 0 0)
(0 0 0)
(0 0 0)
(0 0 0)
(0 0 0)
(0 0 0)
(0 0 0)
(0 0 0)
(0 0 0)
(0 0 0)
(0 0 0)
(0 0 0)
(0 0 0)
(0 0 0)
(0 0 0)
(0 0 0)
(0 0 0)
(0 0 0)
(0 0 0)
(0 0 0)
(0 0 0)
(0 0 0)
(0 0 0)
(0 0 0)
(0 0 0)
(0 0 0)
(0 0 0)
(0 0 0)
(0 0 0)
(0 0 0)
(0 0 0)
(0 0 0)
(0 0 0)
(0 0 0)
(0 0 0)
(0 0 0)
(0 0 0)
(0 0 0)
(0 0 0)
(0 0 0)
(0 0 0)
(0 0 0)
(0 0 0)
(0 0 0)
(0 0 0)
(0 0 0)
(0 0 0)
(0 0 0)
(0 0 0)
(0 0 0)
(0 0 0)
(0 0 0)
(0 0 0)
(0 0 0)
(0 0 0)
(0 0 0)
(0 0 0)
(0 0 0)
(0 0 0)
(0 0 0)
(0 0 0)
(0 0 0)
(0 0 0)
(0 0 0)
(0 0 0)
(0 0 0)
(0 0 0)
(0 0 0)
(0 0 0)
(0 0 0)
(0 0 0)
(0 0 0)
(0 0 0)
(0 0 0)
(0 0 0)
(0 0 0)
(0 0 0)
(0 0 0)
(0 0 0)
(0 0 0)
(0 0 0)
(0 0 0)
(0 0 0)
(0 0 0)
(0 0 0)
(0 0 0)
(0 0 0)
(0 0 0)
(0 0 0)
(0 0 0)
(0 0 0)
(0 0 0)
(0 0 0)
(0 0 0)