/*--------------------------------*- C++ -*----------------------------------*\
| =========                 |                                                 |
| \\      /  F ield         | OpenFOAM: The Open Source CFD Toolbox           |
|  \\    /   O peration     | Version:  v2106                                 |
|   \\  /    A nd           | Website:  www.openfoam.com                      |
|    \\/     M anipulation  |                                                 |
\*---------------------------------------------------------------------------*/
FoamFile
{
    version     2.0;
    format      ascii;
    arch        "LSB;label=32;scalar=64";
    class       volScalarField;
    location    "0";
    object      p;
}
// * * * * * * * * * * * * * * * * * * * * * * * * * * * * * * * * * * * * * //

dimensions      [0 2 -2 0 0 0 0];

internalField   nonuniform List<scalar> 
11644
(
0.0357908
0.0362226
0.0371398
0.0385656
0.0405017
0.0429638
0.0459744
0.049554
0.0537147
0.0584551
0.0637581
0.0695672
0.0757946
0.0823225
0.0889605
0.0955241
0.10175
0.107353
0.112108
0.115806
0.118246
0.119356
0.11925
0.118142
0.116035
0.113073
0.109586
0.105787
0.101853
0.0979694
0.0942551
0.0907976
0.0876638
0.084892
0.0825061
0.0805173
0.0789288
0.0777466
0.0769782
0.0766141
0.0350663
0.0354918
0.0363706
0.0377301
0.0395954
0.0419904
0.0449395
0.0484696
0.0526037
0.0573553
0.0627169
0.0686585
0.0751188
0.0819416
0.0889919
0.0960074
0.102694
0.108754
0.113899
0.117833
0.120329
0.121344
0.121001
0.119537
0.117092
0.11384
0.110009
0.105889
0.101706
0.0976152
0.0937488
0.0901939
0.0870006
0.0842008
0.0818098
0.0798322
0.0782698
0.077118
0.076369
0.0760067
0.0333835
0.0338182
0.0346756
0.0359704
0.0377398
0.0400222
0.0428577
0.0462886
0.0503612
0.0551153
0.0605851
0.0667863
0.073677
0.0811784
0.0890743
0.097091
0.104889
0.112057
0.118053
0.122472
0.125146
0.126052
0.125207
0.122899
0.119496
0.115358
0.110775
0.105997
0.101278
0.0967952
0.0926523
0.0889176
0.0856232
0.0827762
0.0803757
0.0784105
0.076868
0.0757293
0.074973
0.0745896
0.0308347
0.0312453
0.0320542
0.0332665
0.0349144
0.0370447
0.0397131
0.0429857
0.0469383
0.0516618
0.0572493
0.0637763
0.0713006
0.0797328
0.088997
0.0986778
0.108254
0.117312
0.124832
0.130264
0.133266
0.133738
0.131866
0.128134
0.123226
0.117597
0.111711
0.10592
0.100419
0.0953663
0.0908506
0.0868855
0.0834674
0.0805736
0.0781687
0.0762202
0.074695
0.0735638
0.0728056
0.0724185
0.027518
0.0278786
0.0285907
0.0296658
0.031136
0.0330483
0.0354694
0.0384878
0.0422162
0.0467965
0.0523955
0.0592288
0.0674783
0.0773104
0.088576
0.100771
0.112986
0.125049
0.135047
0.142083
0.1455
0.145029
0.141342
0.135163
0.127821
0.119982
0.112319
0.105158
0.0987245
0.0930325
0.0881007
0.0839198
0.0804137
0.077505
0.0751271
0.0732211
0.071739
0.0706447
0.0699163
0.0695501
0.0235525
0.0238287
0.0243921
0.0252573
0.0264577
0.0280436
0.0300884
0.0326938
0.0359987
0.040218
0.0456639
0.0527001
0.0617258
0.0728502
0.0865659
0.102504
0.118876
0.13549
0.149746
0.159759
0.163772
0.161368
0.154129
0.14369
0.132523
0.121454
0.111284
0.102654
0.0953412
0.0892103
0.0840492
0.0797699
0.0762777
0.0734502
0.0711798
0.069385
0.0680057
0.0670006
0.0663383
0.0660063
0.0190434
0.019228
0.019596
0.0201711
0.0209866
0.0220968
0.0235756
0.025529
0.0281259
0.0316943
0.0366457
0.0434283
0.0524227
0.0648766
0.0813466
0.101574
0.118933
0.140515
0.161141
0.17703
0.184201
0.181565
0.171038
0.156124
0.136075
0.120463
0.107303
0.097103
0.0892865
0.0831223
0.0781741
0.0741422
0.0708813
0.0683034
0.0662801
0.0647104
0.0635227
0.0626649
0.0621103
0.061833
0.0141671
0.0142265
0.0143542
0.0145622
0.0148797
0.0153485
0.0160357
0.0170432
0.0185818
0.0210229
0.0247199
0.0301866
0.0384406
0.0505181
0.0670677
0.0883797
0.118149
0.152895
0.187631
0.21476
0.225415
0.217171
0.19527
0.168369
0.142619
0.11988
0.104175
0.0872736
0.079585
0.0740791
0.0699424
0.066694
0.0640655
0.0619991
0.060421
0.0592242
0.0583386
0.0577146
0.0573097
0.0571154
0.00912227
0.00904254
0.00889037
0.00866184
0.00837605
0.00804959
0.00773004
0.00748106
0.00751406
0.00811729
0.00956069
0.012216
0.0167564
0.03077
0.0450726
0.0693484
0.10274
0.151087
0.209751
0.262049
0.285408
0.268708
0.225939
0.179452
0.139373
0.107597
0.0898349
0.0711603
0.0655378
0.0618226
0.059211
0.0572918
0.055776
0.0545782
0.0536927
0.0530458
0.0525763
0.0522504
0.0520404
0.0519298
0.00414148
0.00393624
0.00347884
0.00278005
0.00181795
0.000581738
-0.000934446
-0.00272422
-0.00467878
-0.00673278
-0.00876745
-0.0106223
-0.0123377
-0.00258291
0.00435937
0.025784
0.0604977
0.120999
0.219139
0.338136
0.399431
0.350968
0.25002
0.167122
0.109502
0.0735171
0.061343
0.0480519
0.0469785
0.0464498
0.0462459
0.0462213
0.0462458
0.0462471
0.0462808
0.0463418
0.0464036
0.046446
0.0464777
0.0464887
-0.000396812
-0.000787042
-0.00155972
-0.00275021
-0.00440205
-0.00657267
-0.00937496
-0.0128818
-0.0171499
-0.0224349
-0.0289581
-0.0369762
-0.0467324
-0.0478124
-0.0561892
-0.0566467
-0.0476843
-0.0199222
0.0920665
0.362416
0.592741
0.398745
0.165535
0.0624501
0.0262869
0.0150905
0.0199327
0.0192637
0.0246214
0.0286947
0.0317773
0.0341738
0.036031
0.0374265
0.0385294
0.0394035
0.0400684
0.0405451
0.0408411
0.0409763
-0.00429759
-0.00481759
-0.005865
-0.00750743
-0.00979682
-0.0128407
-0.0168422
-0.0219997
-0.0285521
-0.0370415
-0.0481248
-0.0628613
-0.0823709
-0.0920326
-0.126148
-0.156717
-0.214787
-0.335305
-0.642688
-0.390255
-0.179104
-0.0961737
-0.0551101
-0.0268162
-0.0115449
0.00130985
0.0104896
0.0172157
0.0221988
0.0259283
0.0287386
0.0309238
0.0326156
0.0338646
0.0347583
0.0353369
0.0356419
-0.00731133
-0.00792153
-0.00920029
-0.0111646
-0.0139397
-0.0176469
-0.0225169
-0.0288953
-0.0371805
-0.0480652
-0.0624792
-0.0819848
-0.108045
-0.130002
-0.179251
-0.235477
-0.334978
-0.528318
-0.760083
-0.470992
-0.328595
-0.185674
-0.108539
-0.0648722
-0.0352533
-0.0175814
-0.00480355
0.00463263
0.011618
0.0168834
0.0208957
0.0239944
0.0263748
0.0281311
0.0293924
0.0302387
0.0306412
-0.00911912
-0.00986809
-0.0112749
-0.0134192
-0.0164213
-0.0204469
-0.0256775
-0.032542
-0.0415691
-0.0534191
-0.0690945
-0.0900943
-0.117757
-0.146112
-0.198446
-0.260776
-0.354908
-0.485646
-0.541818
-0.396967
-0.321042
-0.198451
-0.121273
-0.0799373
-0.0465089
-0.0283272
-0.0146876
-0.00429978
0.00360791
0.00975053
0.0145463
0.0182602
0.0210828
0.0231711
0.0246733
0.0256666
0.0262055
-0.00988213
-0.0105507
-0.0119161
-0.0140306
-0.0169671
-0.0209028
-0.0259472
-0.0324783
-0.0410817
-0.0523479
-0.0669765
-0.0861096
-0.110914
-0.140136
-0.187517
-0.248639
-0.338462
-0.466935
-0.54887
-0.603424
-0.588938
-0.431025
-0.327039
-0.226234
-0.147158
-0.0986745
-0.0723072
-0.0452253
-0.0305867
-0.0186159
-0.00896561
-0.00124398
0.00500734
0.0100614
0.014049
0.0170602
0.0192922
0.0208757
0.0219079
0.0224896
-0.0096606
-0.010103
-0.0112773
-0.0131083
-0.0156522
-0.0190288
-0.0232926
-0.0287594
-0.0358034
-0.0447922
-0.0562334
-0.0709257
-0.0895889
-0.116006
-0.153408
-0.208602
-0.29226
-0.442198
-0.681004
-0.824124
-0.784912
-0.446602
-0.133173
-0.0439667
-0.0680891
-0.0632008
-0.053845
-0.0363702
-0.0267162
-0.0175847
-0.00965276
-0.00290096
0.00279854
0.00762147
0.0114771
0.0144137
0.0166525
0.0182559
0.0192407
0.0194738
-0.00800349
-0.0084474
-0.00934432
-0.0107232
-0.0126195
-0.0150621
-0.0180825
-0.0217515
-0.0263317
-0.0319915
-0.0389867
-0.0478066
-0.0591109
-0.0717435
-0.102441
-0.134999
-0.197706
-0.290381
-0.455678
-0.618994
-0.591212
-0.32807
-0.0589254
-0.00186431
-0.040462
-0.0443832
-0.0360472
-0.0282188
-0.0210804
-0.0138885
-0.00753699
-0.00190215
0.0030096
0.00719785
0.0105372
0.0131657
0.0151709
0.0165607
0.0173909
0.0177254
-0.00512419
-0.00552206
-0.00607611
-0.00689923
-0.00797934
-0.00934167
-0.0109966
-0.0127069
-0.014595
-0.0167616
-0.0191394
-0.0218355
-0.0252136
-0.0282424
-0.0458706
-0.0562521
-0.0889381
-0.129336
-0.198523
-0.280094
-0.312557
-0.243821
-0.140739
-0.106041
-0.0792939
-0.0541022
-0.034056
-0.0240963
-0.0162019
-0.00951165
-0.00393759
0.000881959
0.0049499
0.00831115
0.0110035
0.0131516
0.0147743
0.0159226
0.0166931
0.0171372
-0.00155017
-0.00169085
-0.00191147
-0.00221318
-0.00254967
-0.00289814
-0.00323726
-0.00333797
-0.00307676
-0.00226757
-0.000675142
0.00175799
0.00551925
0.00907148
0.00513402
0.0076069
-0.00758179
-0.0331042
-0.103174
-0.22199
-0.326003
-0.346946
-0.299384
-0.217428
-0.115657
-0.0664728
-0.0341144
-0.020816
-0.011479
-0.00464155
0.000484288
0.004571
0.00784025
0.0104574
0.0125525
0.0142288
0.0155154
0.0164736
0.0171446
0.0175261
0.00232861
0.00237089
0.00241058
0.0025166
0.00274763
0.00319351
0.00393452
0.00508019
0.00692702
0.00979113
0.0140893
0.0197548
0.0292107
0.0366312
0.039104
0.0487558
0.040315
0.000942217
-0.100324
-0.260613
-0.384863
-0.406375
-0.336486
-0.218057
-0.103419
-0.0579593
-0.0259529
-0.0127672
-0.00435102
0.00156369
0.00575511
0.00895219
0.0114549
0.013441
0.0149848
0.016205
0.0171457
0.0178402
0.0183095
0.0185571
0.0059971
0.00613589
0.0063857
0.00678697
0.00741041
0.00836638
0.00977121
0.011753
0.0145435
0.0184493
0.0238634
0.0309768
0.0415343
0.0510657
0.0555972
0.0648993
0.0527927
0.00334756
-0.0938466
-0.21532
-0.289711
-0.280086
-0.209444
-0.126259
-0.0594077
-0.0338289
-0.00863473
0.000243113
0.00590401
0.00960409
0.0122828
0.0142804
0.0158495
0.0170714
0.0179912
0.0187074
0.0192509
0.0196361
0.0198842
0.0200184
0.00926621
0.00945986
0.00983545
0.0104095
0.0112406
0.0124027
0.0139949
0.0161623
0.0190477
0.0228444
0.0277012
0.0335557
0.0411705
0.0503321
0.0455419
0.0424515
0.0260608
-0.0185347
-0.0758889
-0.116072
-0.127403
-0.108355
-0.0754434
-0.0476949
-0.0265709
3.12757e-06
0.00851523
0.0138807
0.0170281
0.0186223
0.0195676
0.0201419
0.0205398
0.0208468
0.0211045
0.0213271
0.0214981
0.0216121
0.0216657
0.0216824
0.0122151
0.0124108
0.0128081
0.013414
0.0142514
0.0153639
0.0167864
0.0185851
0.0208286
0.0235824
0.0267543
0.0301595
0.0327328
0.036236
0.0260473
-0.00948303
-0.0516647
-0.0978186
-0.126327
-0.126926
-0.109665
-0.0789458
-0.043828
-0.0175965
0.00210195
0.0147534
0.0215373
0.025358
0.026648
0.0266527
0.0261328
0.0254402
0.0247707
0.0242491
0.0239054
0.0236864
0.0235474
0.0234633
0.0233963
0.0233191
0.0148985
0.0150786
0.0154236
0.0159513
0.0166634
0.0175758
0.018674
0.0199394
0.0213183
0.022618
0.023473
0.0234162
0.0198227
0.0120227
-0.010027
-0.0555204
-0.104482
-0.15848
-0.200088
-0.202306
-0.162774
-0.110351
-0.0573094
-0.0177718
0.00994468
0.0249012
0.0314193
0.0339267
0.0338532
0.0326366
0.0310642
0.0294823
0.028114
0.0270165
0.026217
0.0256223
0.0252067
0.0249424
0.0247901
0.0247165
0.0172726
0.0174068
0.017697
0.0181395
0.018726
0.0194353
0.0202227
0.0210311
0.0216785
0.0217999
0.0207477
0.0177816
0.00995919
-0.00536912
-0.0349882
-0.0801972
-0.139029
-0.204341
-0.256676
-0.260407
-0.207004
-0.143371
-0.0783101
-0.0265003
0.00877794
0.02955
0.0387404
0.0405723
0.0390267
0.0367571
0.0343599
0.0322053
0.0304669
0.0290702
0.0279861
0.0271504
0.0265449
0.0261346
0.0258983
0.0258757
0.0193176
0.0194144
0.0196839
0.0200855
0.0206026
0.0211911
0.021784
0.0223092
0.0225426
0.0221742
0.0204323
0.0166328
0.00865976
-0.0059533
-0.0344557
-0.0761132
-0.12803
-0.181269
-0.226087
-0.232362
-0.189992
-0.136176
-0.0776991
-0.0292939
0.00558265
0.0280598
0.0403375
0.043722
0.0418977
0.0389858
0.0361766
0.0337948
0.0318906
0.0303867
0.0291998
0.0283006
0.0276434
0.0272046
0.0269443
0.0268749
0.0210594
0.0212009
0.0214828
0.0218786
0.0223682
0.022918
0.023457
0.0238869
0.0241251
0.0238797
0.0227927
0.0200276
0.0146311
0.00435956
-0.0144617
-0.0440307
-0.0778498
-0.1134
-0.14293
-0.152466
-0.136614
-0.10767
-0.0673375
-0.0288845
0.00121394
0.0223762
0.0352699
0.0409878
0.0408669
0.0386665
0.036236
0.0341375
0.0323696
0.0309396
0.0298105
0.0289652
0.0283553
0.0279451
0.0276936
0.027543
0.0225027
0.0227173
0.0230139
0.0234138
0.023904
0.0244691
0.0250692
0.0256454
0.0261328
0.0264008
0.0262461
0.024978
0.022205
0.0166679
0.00585917
-0.0127055
-0.0366796
-0.0627534
-0.0828424
-0.0960649
-0.0995456
-0.0892314
-0.0658541
-0.0365142
-0.0102108
0.011069
0.0255491
0.0331727
0.0355372
0.0352526
0.0341658
0.0329114
0.0316837
0.0305982
0.0297166
0.0290241
0.0284953
0.02811
0.0278564
0.0277257
0.023641
0.0238386
0.0241224
0.0245216
0.0250392
0.0256772
0.0264237
0.0272605
0.0281215
0.0288966
0.0292918
0.0289164
0.027152
0.0231222
0.0158624
0.00260685
-0.0193871
-0.0446893
-0.0702006
-0.0899895
-0.0964352
-0.0942486
-0.0778842
-0.0542314
-0.0289647
-0.00686742
0.0103539
0.0217936
0.0275317
0.0296759
0.0304521
0.0304026
0.0300141
0.0295203
0.0290382
0.0285921
0.0282163
0.0279219
0.0277259
0.0276361
0.0244979
0.0245655
0.024838
0.0252586
0.0258323
0.0265518
0.0274251
0.028472
0.0296171
0.0307097
0.0314046
0.0316361
0.0298459
0.0252215
0.0165479
0.00293379
-0.019672
-0.0476277
-0.0816519
-0.109361
-0.122192
-0.121196
-0.106163
-0.0841978
-0.0554528
-0.0290509
-0.00630211
0.010189
0.0195767
0.0242326
0.0266204
0.0276864
0.0281504
0.0282342
0.0281783
0.0280254
0.0278518
0.0276932
0.0275704
0.0274821
0.0251534
0.0251742
0.025407
0.0258102
0.0263906
0.0271324
0.0280399
0.0291425
0.0303911
0.0317355
0.0328422
0.0334716
0.03179
0.0263221
0.0152351
-0.00214335
-0.0271194
-0.0581453
-0.0977455
-0.132386
-0.156143
-0.155429
-0.137078
-0.111263
-0.0760051
-0.042879
-0.0157495
0.00254679
0.0140723
0.0204651
0.0238311
0.0256651
0.0267034
0.0271998
0.0274184
0.0274761
0.0274496
0.0273854
0.0273138
0.0272289
0.0255818
0.0256734
0.0258792
0.0262252
0.0267324
0.0274042
0.0282353
0.0292639
0.0304238
0.0317876
0.0329978
0.0336268
0.0315421
0.0251246
0.0132257
-0.00547174
-0.0306255
-0.0612198
-0.100193
-0.132629
-0.161423
-0.157634
-0.135092
-0.107609
-0.0719127
-0.0411956
-0.0162047
0.00127712
0.0124166
0.0188656
0.022619
0.0247109
0.0259151
0.0265027
0.0268251
0.0269634
0.0270076
0.0269953
0.0269696
0.0269298
0.0256044
0.0257552
0.0259601
0.0262622
0.0266864
0.0272513
0.027956
0.0288148
0.0297779
0.0308719
0.0316423
0.0313779
0.0283492
0.0212967
0.00948536
-0.00780119
-0.0305697
-0.0574959
-0.0864018
-0.108517
-0.123231
-0.117477
-0.0986878
-0.0752606
-0.0486824
-0.0262317
-0.00734519
0.00604139
0.0146818
0.0197809
0.0228878
0.0246541
0.0256802
0.0262316
0.0265407
0.0266767
0.0267259
0.0267239
0.0267133
0.0267037
0.0252504
0.0253464
0.0255245
0.0257866
0.0261307
0.0265655
0.0270856
0.0276832
0.0282629
0.0287194
0.0285869
0.0269188
0.0226311
0.0144561
0.00230617
-0.0133066
-0.032429
-0.0536642
-0.0718293
-0.0805702
-0.0805809
-0.0735269
-0.0601261
-0.0418234
-0.0239016
-0.00833104
0.00473013
0.0136568
0.0191211
0.0223058
0.0242094
0.0253068
0.0259553
0.0263366
0.0265415
0.0266241
0.0266416
0.0266236
0.0265952
0.0265692
0.024758
0.0247803
0.0248782
0.0250434
0.0252569
0.0254973
0.0257217
0.0258865
0.0258191
0.025266
0.0239253
0.020553
0.0143881
0.00480644
-0.00828014
-0.0233731
-0.039408
-0.0553867
-0.0669383
-0.0689419
-0.0640799
-0.0540949
-0.0404234
-0.0236786
-0.0079385
0.00502811
0.0148661
0.0205667
0.0234922
0.0250282
0.0258681
0.0262662
0.0264769
0.0265653
0.0265864
0.0265644
0.0265321
0.0264938
0.0264559
0.0264066
0.0242553
0.0242586
0.0242977
0.0243551
0.024398
0.0243896
0.0242538
0.0239016
0.0231344
0.0215689
0.0186656
0.0132118
0.00420383
-0.0077455
-0.0227704
-0.0392405
-0.0545767
-0.067924
-0.0773336
-0.0774989
-0.0714896
-0.0563327
-0.0362522
-0.0172062
-0.000230494
0.0121211
0.0200592
0.0242704
0.0263404
0.0271729
0.0273407
0.0271931
0.0269613
0.0267225
0.0265234
0.0263611
0.026239
0.0261561
0.0261048
0.0261038
0.0237256
0.0237652
0.0237765
0.0237557
0.0236596
0.02346
0.0230388
0.0222811
0.0209667
0.0186533
0.0146179
0.00776213
-0.00335099
-0.0187278
-0.0378993
-0.0577715
-0.0760665
-0.0896908
-0.0992865
-0.099428
-0.0868843
-0.0650753
-0.0397396
-0.0180405
-6.03024e-05
0.0127323
0.0213077
0.0259584
0.0281349
0.0286411
0.0282087
0.0277021
0.0271322
0.0266772
0.0263231
0.0260474
0.0258497
0.0257345
0.0256884
0.0257372
0.0231658
0.0232241
0.023215
0.0231486
0.0229776
0.0227047
0.022174
0.0212808
0.0197544
0.017238
0.0128781
0.00563966
-0.00569223
-0.0214528
-0.0419154
-0.0638608
-0.0861201
-0.101512
-0.114029
-0.114522
-0.0944387
-0.070138
-0.0428819
-0.020732
-0.00226883
0.0110248
0.0203852
0.0257018
0.028252
0.0288276
0.028098
0.0274974
0.0268605
0.0263714
0.0259904
0.025703
0.0255027
0.0253851
0.0253329
0.0253482
0.022657
0.0226816
0.0226545
0.0225885
0.0224346
0.0221671
0.0216895
0.020885
0.0194924
0.0172528
0.0134534
0.00729184
-0.00226888
-0.0152491
-0.0317263
-0.0508074
-0.0707424
-0.0860194
-0.0999492
-0.102735
-0.0854882
-0.0661952
-0.0421948
-0.0221194
-0.00478647
0.00834284
0.0175415
0.0232557
0.0262932
0.0272653
0.0270235
0.0265757
0.0260823
0.0257099
0.0254055
0.0251793
0.0250225
0.0249214
0.0248546
0.0247951
0.0222854
0.0222786
0.0222686
0.0222365
0.0221372
0.0219495
0.0216085
0.0210288
0.0200657
0.0184802
0.0157844
0.0114718
0.00475074
-0.00432872
-0.0157384
-0.0294961
-0.0444696
-0.0577658
-0.0679701
-0.0716441
-0.0669329
-0.0566917
-0.0405703
-0.0238256
-0.00880086
0.00331718
0.0124953
0.0187726
0.0225693
0.0243736
0.0249539
0.0249467
0.0247692
0.0245806
0.0244082
0.024274
0.024175
0.0241027
0.0240434
0.0239813
0.0220499
0.0220568
0.0220654
0.0220596
0.0220196
0.0219336
0.0217585
0.0214673
0.020989
0.0201951
0.0187739
0.0163436
0.0121108
0.00564233
-0.00290889
-0.0132274
-0.0246362
-0.0361661
-0.0449744
-0.0507167
-0.0525544
-0.0492061
-0.0395327
-0.0269101
-0.0147702
-0.00397722
0.00520319
0.0124002
0.0173827
0.0203757
0.0219608
0.0226374
0.0229561
0.0230666
0.0230859
0.0230757
0.0230541
0.0230375
0.0230346
0.0230546
0.0217839
0.0218062
0.021824
0.0218449
0.021868
0.0218996
0.0219261
0.0219308
0.0218873
0.0217489
0.0213039
0.0201942
0.0178604
0.0133758
0.00579099
-0.00404943
-0.01581
-0.0281772
-0.0402011
-0.0485646
-0.050815
-0.0509134
-0.0442279
-0.0346175
-0.0240621
-0.0136445
-0.00370949
0.00461309
0.0110752
0.0156748
0.0184631
0.0200478
0.0209705
0.0214779
0.0217581
0.0219158
0.0220037
0.02206
0.02211
0.022172
0.0214046
0.0213716
0.0213976
0.0214598
0.0215676
0.0217223
0.0219343
0.0222066
0.0225618
0.0228638
0.0230361
0.0225496
0.0208734
0.0174913
0.0105815
0.00059523
-0.0126081
-0.0273449
-0.0430282
-0.0555905
-0.0623567
-0.0630944
-0.0575801
-0.0490159
-0.0380961
-0.0263113
-0.0142036
-0.00353161
0.00510425
0.0114709
0.0154324
0.01782
0.0192416
0.0201067
0.0206455
0.0209804
0.0211776
0.0212871
0.021347
0.0213789
0.0209886
0.0209321
0.0209545
0.0210348
0.0211841
0.0214034
0.021715
0.022129
0.0226592
0.0231566
0.0237697
0.0233281
0.0215023
0.0181727
0.0115109
0.00175546
-0.0115
-0.0272091
-0.045704
-0.0624495
-0.0764944
-0.0782667
-0.0716455
-0.0625646
-0.0497468
-0.0354713
-0.0207466
-0.00784706
0.00212577
0.00912819
0.0136092
0.0163672
0.0180014
0.0190734
0.0197737
0.0202097
0.0204769
0.0206104
0.0206726
0.0206419
0.0205242
0.0205249
0.0205596
0.0206332
0.0207626
0.020953
0.021225
0.0215832
0.0220551
0.0225212
0.0227968
0.0221519
0.0200393
0.016188
0.00966745
0.000226264
-0.0121831
-0.0269186
-0.0452753
-0.0612895
-0.0777823
-0.0782237
-0.0698792
-0.0605303
-0.0467456
-0.0324849
-0.0181157
-0.00636832
0.00265375
0.00899511
0.013202
0.0157889
0.0174281
0.0184638
0.0191239
0.0195268
0.0197857
0.0199248
0.0199889
0.0199585
0.0198841
0.0199399
0.0199798
0.0200261
0.0200961
0.0202005
0.0203457
0.0205318
0.0207438
0.0208132
0.0204378
0.0192226
0.0165926
0.0121503
0.0054767
-0.00352326
-0.0150277
-0.0277841
-0.0415664
-0.0520976
-0.0600016
-0.058973
-0.0521293
-0.0431422
-0.031034
-0.0195918
-0.0090138
-0.00052217
0.00618412
0.0110148
0.0142086
0.0162262
0.0174812
0.0182558
0.0187425
0.0190421
0.0192268
0.0193269
0.0193797
0.0193907
0.019064
0.019076
0.0190814
0.0190815
0.0190785
0.0190705
0.0190485
0.0189644
0.0187745
0.0182774
0.0170489
0.014893
0.0113937
0.00631163
-0.000527206
-0.00885722
-0.0184583
-0.0283768
-0.0367838
-0.0413409
-0.0417467
-0.0381351
-0.0321385
-0.0239597
-0.0148727
-0.00657189
0.000630532
0.00634204
0.0109332
0.0140461
0.0160236
0.0172034
0.0179346
0.0183735
0.0186509
0.0188189
0.0189205
0.0189669
0.018986
0.0190106
0.0182185
0.0181573
0.0180995
0.0180334
0.0179466
0.0178088
0.0175826
0.0171625
0.0164524
0.01524
0.0131662
0.00989068
0.00530089
-0.000507954
-0.00755115
-0.0153018
-0.0233584
-0.0308591
-0.0356137
-0.0362321
-0.0347121
-0.0293438
-0.0219257
-0.0134584
-0.00504246
0.00215835
0.00806191
0.0123968
0.0154222
0.0170005
0.0178057
0.0182122
0.0184339
0.0185726
0.0186552
0.0187031
0.0187336
0.0187491
0.0187502
0.0187376
0.0174647
0.0173929
0.0173126
0.0172014
0.0170271
0.0167433
0.0162924
0.0155462
0.0143023
0.0122658
0.00902393
0.00441121
-0.00161232
-0.00890129
-0.017045
-0.0252394
-0.0329365
-0.0390468
-0.0422341
-0.0405213
-0.0370049
-0.0293406
-0.0192788
-0.00894418
0.000746407
0.00822392
0.0137297
0.0169563
0.0186074
0.0191223
0.0191307
0.0189807
0.0188094
0.0186698
0.0185623
0.0184836
0.0184352
0.0184089
0.0183919
0.0183841
0.0168163
0.0168044
0.0167346
0.0165996
0.0163547
0.0159558
0.0153208
0.0143397
0.0127253
0.0101627
0.00605754
0.00015925
-0.00767825
-0.0171151
-0.0273167
-0.037006
-0.045616
-0.0515907
-0.0546356
-0.0512936
-0.0418759
-0.0305469
-0.0176167
-0.0056015
0.0044428
0.0117887
0.0166871
0.0190293
0.0202005
0.0203277
0.0198302
0.0193426
0.0188936
0.0185332
0.0182735
0.018094
0.0179754
0.0179137
0.0178965
0.0179393
0.0162225
0.0162675
0.0162115
0.0160713
0.0158044
0.0153725
0.0146968
0.0136567
0.0119923
0.00935827
0.00517237
-0.000909933
-0.00914523
-0.0195063
-0.0307443
-0.0414572
-0.0513922
-0.0576063
-0.0608299
-0.0572692
-0.0441079
-0.0303726
-0.0162366
-0.00422105
0.00520824
0.0119712
0.0163939
0.0186614
0.0199148
0.0201055
0.0196057
0.0190812
0.0185449
0.0181455
0.0178535
0.0176577
0.0175291
0.0174642
0.0174458
0.0174819
0.0157026
0.0157245
0.0156708
0.0155607
0.0153455
0.0149961
0.014434
0.0135428
0.0121566
0.00993523
0.00652017
0.00150295
-0.0050925
-0.0134558
-0.0231848
-0.0328541
-0.0422739
-0.0486273
-0.0523671
-0.0506067
-0.0406113
-0.0290789
-0.0169774
-0.00658101
0.00200609
0.0086132
0.0132251
0.0160361
0.0176935
0.0183355
0.0182933
0.0180549
0.0177116
0.0174487
0.0172602
0.0171324
0.0170505
0.0170035
0.0169746
0.0169515
0.0153138
0.0152961
0.0152671
0.0152087
0.015093
0.0148893
0.0145469
0.01398
0.0130582
0.0115575
0.00925486
0.00591609
0.00152295
-0.00404466
-0.0109014
-0.0182584
-0.0256213
-0.031435
-0.0354064
-0.0362939
-0.033244
-0.0269401
-0.0190811
-0.0110353
-0.00344055
0.0029662
0.00803381
0.0116317
0.0139635
0.0153372
0.0160369
0.0163132
0.0163474
0.0163392
0.016321
0.0163081
0.0163024
0.0162978
0.016282
0.0162427
0.0150827
0.0150715
0.0150736
0.0150634
0.0150312
0.0149632
0.0148325
0.0146045
0.0142129
0.0135221
0.0122658
0.0102632
0.00735294
0.00364067
-0.00116814
-0.00681104
-0.0128641
-0.0184766
-0.0233886
-0.0267603
-0.0270688
-0.0252515
-0.0211394
-0.0152586
-0.00885245
-0.00295233
0.00223537
0.00638249
0.00950313
0.0117743
0.0132856
0.0141447
0.0146264
0.0149336
0.0151071
0.0152193
0.0152965
0.0153549
0.0153944
0.0154241
0.0148755
0.0149017
0.0149198
0.014938
0.0149641
0.0150062
0.0150495
0.0150993
0.0151345
0.0150919
0.0148094
0.0140061
0.0121331
0.00928498
0.0051475
-0.000176358
-0.00663347
-0.0133021
-0.0194717
-0.0243473
-0.0265604
-0.0279354
-0.0260939
-0.0215859
-0.0159411
-0.0100556
-0.00439518
0.000639668
0.00484138
0.00807445
0.0104393
0.0119961
0.0129778
0.0135914
0.0139646
0.0142043
0.0143619
0.0144766
0.0145672
0.0146484
0.0145532
0.0145522
0.0145813
0.0146364
0.0147291
0.0148706
0.0150751
0.0153435
0.0156922
0.0160871
0.016506
0.0165556
0.0156305
0.0136718
0.0100575
0.00476608
-0.00222358
-0.0106242
-0.0190822
-0.0262804
-0.0320344
-0.0358242
-0.035202
-0.0313238
-0.0256711
-0.0190067
-0.0120279
-0.0054453
0.000258709
0.00473211
0.00804306
0.0102909
0.011701
0.0125795
0.0131315
0.0134862
0.0137111
0.0138507
0.0139394
0.0139993
0.0141604
0.0141199
0.0141399
0.0142068
0.0143383
0.014537
0.0148381
0.0152294
0.0157624
0.016334
0.0170426
0.0173454
0.0168638
0.0156675
0.0128587
0.0081669
0.00147373
-0.00763064
-0.0180343
-0.0282085
-0.0375269
-0.0436071
-0.0435986
-0.0391469
-0.0331762
-0.025455
-0.0172491
-0.00925223
-0.00231801
0.00294166
0.00674022
0.00930656
0.0108763
0.0119003
0.012564
0.0129876
0.0132475
0.0133896
0.0134564
0.0134412
0.013747
0.0137293
0.0137498
0.0138072
0.0139174
0.0140896
0.014352
0.0146967
0.015191
0.0156161
0.016044
0.0161007
0.0154607
0.0142151
0.0116403
0.00738468
0.00139829
-0.00698393
-0.0172767
-0.0277861
-0.0364778
-0.0425736
-0.0417765
-0.0365457
-0.0307949
-0.0232298
-0.0152988
-0.0077396
-0.00142802
0.00329543
0.00675395
0.00910051
0.0105895
0.0115573
0.0121688
0.0125618
0.0128022
0.012935
0.012987
0.0129442
0.0132371
0.0132661
0.0132873
0.0133133
0.0133592
0.0134316
0.0135481
0.0137036
0.0138875
0.0139264
0.0137709
0.0131489
0.011869
0.00982542
0.00669862
0.00234819
-0.00316232
-0.00974885
-0.0169547
-0.0242499
-0.0288703
-0.0310969
-0.0293212
-0.0250835
-0.0198098
-0.0136531
-0.00758366
-0.00211816
0.00222834
0.00563072
0.00814698
0.0098026
0.0108865
0.0115758
0.0119927
0.012258
0.0124186
0.0125034
0.0125439
0.012538
0.0125734
0.0125882
0.012579
0.0125517
0.0125146
0.0124628
0.0123855
0.0122499
0.0120155
0.0115413
0.0106306
0.00923001
0.00718835
0.00435505
0.000731562
-0.00357643
-0.0084292
-0.0131551
-0.0170016
-0.0198701
-0.0209938
-0.0194363
-0.0164622
-0.012647
-0.00818946
-0.00363478
0.000462371
0.00390297
0.00654484
0.00863721
0.0100952
0.0109849
0.0115719
0.0118869
0.0120667
0.0121763
0.0122276
0.0122446
0.0122493
0.012268
0.0118595
0.0118067
0.0117406
0.0116527
0.0115356
0.0113652
0.011101
0.0106801
0.0100147
0.00897902
0.00740163
0.0052276
0.00239834
-0.00112348
-0.00519892
-0.00950872
-0.0137976
-0.0172302
-0.0186169
-0.0180856
-0.0168762
-0.0137155
-0.00980305
-0.00539174
-0.000997297
0.00298594
0.00612467
0.00846632
0.0101695
0.011302
0.0118627
0.0121036
0.0121985
0.0122071
0.0121982
0.0121801
0.0121565
0.0121314
0.0121115
0.0121021
0.0112292
0.0111501
0.0110541
0.0109269
0.0107452
0.0104719
0.0100426
0.00935881
0.00827418
0.00660812
0.00426804
0.00114161
-0.0028459
-0.00750194
-0.012461
-0.0172636
-0.0212377
-0.0238124
-0.0237328
-0.0206027
-0.0168238
-0.0121351
-0.00671549
-0.00102624
0.00389523
0.00782291
0.0105677
0.0122455
0.0131347
0.0132814
0.0130789
0.0128243
0.0125586
0.0123488
0.0121925
0.0120767
0.0119951
0.0119453
0.0119138
0.0118863
0.01072
0.0106843
0.0106035
0.0104679
0.0102436
0.0098915
0.00935242
0.00848691
0.00710462
0.0049399
0.00187259
-0.00229423
-0.00760433
-0.0136432
-0.0198213
-0.0254865
-0.0296031
-0.0319778
-0.0308929
-0.0252593
-0.0183113
-0.0110634
-0.00355482
0.00325818
0.00830575
0.0118456
0.01391
0.0147937
0.0148759
0.014318
0.0136963
0.0130971
0.0126053
0.0122395
0.0119647
0.0117691
0.0116387
0.0115653
0.0115319
0.0115441
0.0102771
0.0102989
0.0102493
0.0101296
0.00990115
0.00952892
0.00894406
0.00804151
0.0066277
0.00437387
0.00116441
-0.00329715
-0.00903292
-0.0155902
-0.0221345
-0.0281204
-0.032209
-0.034693
-0.0334154
-0.0270377
-0.0189842
-0.0102092
-0.001685
0.00537856
0.0099702
0.0129463
0.0143786
0.014836
0.0146783
0.0140806
0.013459
0.0128139
0.012279
0.0118692
0.0115646
0.0113547
0.0112202
0.0111502
0.0111273
0.0111674
0.00990192
0.00993207
0.00989318
0.00979442
0.00960902
0.00931051
0.00883098
0.00807538
0.0069021
0.005084
0.00245368
-0.0010406
-0.00556332
-0.0108963
-0.0163907
-0.0216315
-0.0254876
-0.0278835
-0.0278218
-0.0232718
-0.0173776
-0.0103967
-0.00344558
0.00235022
0.00651627
0.00950436
0.0112075
0.0121329
0.0124963
0.0124546
0.0122298
0.0118883
0.0115327
0.0112495
0.0110419
0.0109085
0.0108229
0.0107772
0.0107551
0.0107551
0.00962466
0.0096243
0.00960158
0.00955516
0.009466
0.00930669
0.00903874
0.00859446
0.00785848
0.00677543
0.00515207
0.00300906
0.000244592
-0.00321639
-0.00698729
-0.0108754
-0.0140872
-0.0166698
-0.0179726
-0.0169596
-0.0144976
-0.0109052
-0.00698023
-0.0030073
0.000556314
0.00361956
0.00598989
0.00776492
0.00898995
0.00977388
0.0101735
0.0103174
0.0103311
0.010308
0.0102843
0.010273
0.0102668
0.0102633
0.0102531
0.0102238
0.00945033
0.00944753
0.00945944
0.00947535
0.00948048
0.00946973
0.00941982
0.00930695
0.00906009
0.00861856
0.00784407
0.0066921
0.00517355
0.00308275
0.000541651
-0.0025018
-0.00546484
-0.00837619
-0.0106718
-0.0120625
-0.0123243
-0.0119132
-0.010471
-0.00787535
-0.00488776
-0.00180704
0.000992387
0.00336401
0.00526546
0.00671812
0.00775397
0.00842903
0.00884445
0.00911186
0.0092844
0.00939792
0.00947495
0.00952723
0.00955827
0.00956923
0.00931576
0.00934447
0.00938016
0.0094291
0.00949093
0.00957504
0.0096827
0.00982145
0.00995084
0.0100248
0.00994961
0.00956617
0.00877955
0.00741757
0.00543847
0.00265828
-0.000542128
-0.0040075
-0.00706187
-0.00997328
-0.0125373
-0.014759
-0.015116
-0.0135839
-0.0109716
-0.00765146
-0.00424258
-0.00103601
0.00168926
0.00383271
0.00548407
0.00665708
0.00744469
0.00796609
0.00830351
0.00852575
0.00867574
0.00878437
0.00886683
0.00893132
0.00909172
0.0091183
0.00916092
0.00922961
0.00933409
0.0094871
0.00970196
0.0100001
0.0103889
0.0108667
0.0113529
0.0117629
0.0117509
0.011093
0.00966516
0.00719917
0.00374566
-0.000711269
-0.00535613
-0.0102826
-0.0152054
-0.0195523
-0.0213776
-0.0207882
-0.0182045
-0.0143505
-0.0100176
-0.00566119
-0.00179486
0.00130195
0.00361267
0.00528768
0.00642539
0.00715157
0.00761348
0.0079164
0.00811774
0.00825314
0.00834847
0.00840789
0.0087538
0.00873568
0.00877013
0.00884504
0.00897578
0.00917115
0.00945248
0.00983322
0.0103552
0.0110414
0.0118013
0.0126914
0.0133223
0.0133698
0.0126203
0.0107347
0.00752703
0.00245841
-0.00383607
-0.0106647
-0.017332
-0.0232586
-0.0260295
-0.0259539
-0.0230544
-0.0189608
-0.0139628
-0.0087885
-0.00405076
-0.000215352
0.00255705
0.00454678
0.00585602
0.00668872
0.00721682
0.00755652
0.00777099
0.00789167
0.00795286
0.00796427
0.00838762
0.00836207
0.00838147
0.00843846
0.0085507
0.00872506
0.00898033
0.00933584
0.00978891
0.0103735
0.0109876
0.0116933
0.012278
0.0124163
0.0118099
0.0102286
0.00729104
0.00255873
-0.00358477
-0.0101098
-0.0162887
-0.0216887
-0.0238669
-0.0234763
-0.0207788
-0.0170826
-0.012548
-0.00783553
-0.00348742
2.69396e-05
0.0025655