/*--------------------------------*- C++ -*----------------------------------*\
| =========                 |                                                 |
| \\      /  F ield         | OpenFOAM: The Open Source CFD Toolbox           |
|  \\    /   O peration     | Version:  v2106                                 |
|   \\  /    A nd           | Website:  www.openfoam.com                      |
|    \\/     M anipulation  |                                                 |
\*---------------------------------------------------------------------------*/
FoamFile
{
    version     2.0;
    format      ascii;
    arch        "LSB;label=32;scalar=64";
    class       volVectorField;
    location    "0";
    object      U;
}
// * * * * * * * * * * * * * * * * * * * * * * * * * * * * * * * * * * * * * //

dimensions      [0 1 -1 0 0 0 0];

internalField   nonuniform List<vector> 
11644
(
(0.994815 -0.000247653 2.06144e-23)
(0.994697 -0.000657884 5.68484e-23)
(0.994624 -0.000971807 3.05005e-23)
(0.994606 -0.00129536 0)
(0.994602 -0.00164326 0)
(0.994599 -0.00201317 0)
(0.994595 -0.00240096 0)
(0.994592 -0.00279961 0)
(0.994588 -0.00319865 0)
(0.994583 -0.00358715 0)
(0.99459 -0.00393913 0)
(0.994551 -0.00424983 0)
(0.994554 -0.00447627 0)
(0.994733 -0.00459202 0)
(0.994604 -0.00460393 0)
(0.994639 -0.00447768 0)
(0.994702 -0.00422046 0)
(0.99454 -0.00377527 0)
(0.994441 -0.00318865 0)
(0.994473 -0.00254598 3.32137e-30)
(0.994425 -0.00192834 -3.31342e-30)
(0.994097 -0.00107976 0)
(0.993948 0.000138063 0)
(0.994267 0.00118967 0)
(0.994585 0.00173665 0)
(0.994629 0.00206133 0)
(0.994776 0.00240793 0)
(0.994643 0.00254461 0)
(0.994571 0.00261328 0)
(0.994579 0.00258111 0)
(0.994596 0.00246918 0)
(0.994595 0.00229954 0)
(0.994594 0.00208602 0)
(0.994593 0.00184483 0)
(0.994593 0.00158813 0)
(0.994595 0.00132615 0)
(0.994601 0.00106317 0)
(0.994617 0.000807112 0)
(0.994678 0.000551738 0)
(0.994781 0.000210794 3.99692e-24)
(0.995663 -0.000503027 2.6479e-23)
(0.995585 -0.00152607 2.45281e-23)
(0.995533 -0.00257984 1.31732e-23)
(0.99554 -0.00363819 0)
(0.995583 -0.00472455 0)
(0.995641 -0.00585992 0)
(0.995699 -0.0070491 0)
(0.995747 -0.00828113 0)
(0.995771 -0.00953419 0)
(0.995768 -0.0107676 0)
(0.995668 -0.0119507 0)
(0.995572 -0.0129692 0)
(0.995365 -0.0137875 0)
(0.994787 -0.0143683 0)
(0.994549 -0.0144488 0)
(0.993971 -0.0141145 -2.08855e-25)
(0.993223 -0.0131939 -1.86466e-23)
(0.992833 -0.0118493 -2.88568e-23)
(0.992602 -0.0101908 -6.00003e-23)
(0.992381 -0.00812614 5.08508e-22)
(0.992027 -0.00551907 -4.51199e-22)
(0.991767 -0.00262105 1.95144e-23)
(0.991858 5.94213e-05 1.22151e-23)
(0.992364 0.00240324 2.19145e-23)
(0.993058 0.00443994 -1.13946e-24)
(0.993619 0.00599203 0)
(0.99381 0.00697417 0)
(0.994348 0.00760545 0)
(0.994737 0.00781199 0)
(0.994953 0.00769616 0)
(0.995088 0.00734847 0)
(0.99521 0.00681397 0)
(0.995282 0.00615659 0)
(0.995324 0.00541727 0)
(0.995342 0.00462906 0)
(0.995348 0.00381594 0)
(0.99535 0.00299017 0)
(0.995367 0.00215129 0)
(0.995425 0.00129488 0)
(0.995503 0.000429617 0)
(0.997357 -0.000770639 0)
(0.997334 -0.00238286 0)
(0.997364 -0.00406915 0)
(0.997456 -0.00582444 0)
(0.9976 -0.00765137 2.41881e-23)
(0.997773 -0.00956767 0)
(0.997955 -0.0115838 0)
(0.998119 -0.0136935 0)
(0.998229 -0.0158692 0)
(0.998217 -0.0180765 0)
(0.998102 -0.0201868 0)
(0.99767 -0.0221707 0)
(0.996941 -0.0238162 8.68945e-25)
(0.996269 -0.0248726 8.73127e-23)
(0.994642 -0.0254006 3.75772e-22)
(0.9931 -0.0250252 -8.49682e-22)
(0.991709 -0.0238052 -4.46226e-22)
(0.990172 -0.021652 2.56681e-22)
(0.988704 -0.0184334 -4.48254e-22)
(0.987373 -0.0140802 1.75447e-21)
(0.986575 -0.00901502 -7.33358e-22)
(0.986552 -0.00388473 -1.69477e-22)
(0.987324 0.000672284 -6.9735e-22)
(0.988596 0.004572 1.03107e-21)
(0.990057 0.00796167 3.63902e-22)
(0.991513 0.0106031 -4.34436e-22)
(0.99312 0.012411 -9.2117e-23)
(0.994041 0.0132937 -1.78355e-24)
(0.994846 0.013554 0)
(0.995571 0.0132574 0)
(0.996121 0.0125476 0)
(0.996449 0.011569 0)
(0.996665 0.010394 0)
(0.996783 0.0091016 0)
(0.996836 0.00774074 0)
(0.996852 0.00634508 0)
(0.996854 0.00493361 0)
(0.996867 0.00350885 0)
(0.996909 0.00207393 0)
(0.996967 0.000680718 0)
(0.999875 -0.00106222 0)
(0.999907 -0.00320258 0)
(1.00004 -0.00545302 0)
(1.00027 -0.00780518 0)
(1.00058 -0.0102867 0)
(1.00095 -0.0129308 0)
(1.00135 -0.0157513 0)
(1.00172 -0.0187499 0)
(1.00198 -0.0219115 0)
(1.00208 -0.0251592 0)
(1.0018 -0.0284724 -1.05132e-24)
(1.00114 -0.0316262 7.35844e-23)
(0.99991 -0.0344192 1.23402e-23)
(0.997575 -0.0367568 -5.30012e-22)
(0.995388 -0.0376778 -3.37153e-22)
(0.992142 -0.0374867 1.10699e-21)
(0.988505 -0.0357257 -5.97552e-22)
(0.984816 -0.0321464 2.74178e-22)
(0.981498 -0.0265477 1.94007e-22)
(0.978859 -0.0196169 -2.43026e-22)
(0.977541 -0.0119995 9.30634e-23)
(0.977847 -0.00425096 -7.81081e-22)
(0.979782 0.00280195 3.87421e-22)
(0.982382 0.0087062 6.6605e-22)
(0.985295 0.0135527 -1.28394e-21)
(0.988303 0.017117 4.78143e-22)
(0.990817 0.0193419 5.32019e-22)
(0.993623 0.0203768 -4.27536e-23)
(0.995561 0.0203915 -5.64005e-24)
(0.996866 0.0196708 1.53832e-24)
(0.997777 0.0184102 0)
(0.998445 0.0167662 0)
(0.998826 0.0149263 0)
(0.999036 0.0129633 0)
(0.999127 0.0109473 0)
(0.99915 0.00891463 0)
(0.999142 0.00688998 0)
(0.999138 0.00488046 0)
(0.999157 0.00290023 0)
(0.999206 0.000950297 0)
(1.00309 -0.00125616 0)
(1.00319 -0.00387312 0)
(1.00346 -0.0065826 0)
(1.00388 -0.00943291 0)
(1.00444 -0.0124855 0)
(1.00509 -0.0157747 0)
(1.00581 -0.0193378 0)
(1.0065 -0.0232012 0)
(1.00707 -0.0273665 0)
(1.00732 -0.0318478 -3.64101e-24)
(1.00719 -0.036566 -4.55691e-23)
(1.00643 -0.0413581 -3.53686e-22)
(1.00463 -0.0458522 1.32495e-22)
(1.00235 -0.0491745 9.2074e-22)
(0.997171 -0.0517476 1.89055e-22)
(0.991716 -0.0518963 -2.00588e-21)
(0.985426 -0.0498706 1.04533e-21)
(0.977461 -0.0446679 5.84311e-22)
(0.970913 -0.0362051 -9.02608e-22)
(0.965936 -0.0253572 1.0773e-21)
(0.963885 -0.0133635 -4.08911e-22)
(0.965189 -0.00164434 -1.67438e-21)
(0.969142 0.00857071 1.40121e-21)
(0.974018 0.0166117 -1.23708e-21)
(0.979058 0.0226792 2.46664e-21)
(0.984454 0.0268304 -4.78609e-22)
(0.989746 0.0289565 -1.17527e-21)
(0.993367 0.0295801 1.45755e-22)
(0.996555 0.0289268 2.56447e-22)
(0.998993 0.0273181 1.04047e-22)
(1.00051 0.0251308 -3.35659e-23)
(1.0014 0.0225846 0)
(1.00195 0.0198378 0)
(1.00221 0.0170555 0)
(1.0023 0.0142861 0)
(1.00228 0.0115665 0)
(1.00223 0.00891138 0)
(1.00218 0.00631167 0)
(1.00217 0.00375222 0)
(1.0022 0.00124991 0)
(1.00681 -0.00148423 0)
(1.007 -0.00441309 0)
(1.00745 -0.00746112 0)
(1.00812 -0.0106842 0)
(1.009 -0.014157 0)
(1.01005 -0.0179537 0)
(1.01122 -0.0221462 0)
(1.01242 -0.0267936 0)
(1.01349 -0.0319698 2.42839e-23)
(1.01438 -0.0377505 1.47171e-22)
(1.01492 -0.0441089 -2.39722e-22)
(1.01453 -0.0508754 -8.15427e-22)
(1.01247 -0.0576192 1.34998e-21)
(1.00725 -0.0647681 -1.17316e-21)
(1.00085 -0.0682164 2.52115e-21)
(0.990539 -0.0691016 -4.16049e-21)
(0.9783 -0.0671942 -3.68758e-22)
(0.964943 -0.0597757 4.14504e-21)
(0.953629 -0.0464706 -3.26145e-21)
(0.946039 -0.0301382 7.11501e-22)
(0.943329 -0.0123562 4.58678e-21)
(0.94626 0.00495803 -1.54588e-21)
(0.953515 0.0199443 -4.85439e-21)
(0.962725 0.0306895 2.21116e-21)
(0.972649 0.0372579 2.81705e-21)
(0.981076 0.0411232 -3.09211e-21)
(0.987712 0.0425774 1.68027e-21)
(0.99453 0.0413178 -7.03582e-22)
(0.99895 0.0391541 3.03061e-22)
(1.00226 0.0362373 -1.25687e-22)
(1.00455 0.0327417 -1.82877e-22)
(1.00575 0.0289696 3.27288e-23)
(1.00627 0.0251326 0)
(1.00647 0.0213611 0)
(1.00645 0.0177361 0)
(1.00632 0.0142613 0)
(1.00616 0.010924 0)
(1.00602 0.00771718 0)
(1.00593 0.00457577 0)
(1.00593 0.00151074 0)
(1.01088 -0.00150943 0)
(1.01117 -0.00468933 0)
(1.01182 -0.00797742 0)
(1.01279 -0.0114597 0)
(1.01408 -0.0152266 0)
(1.01564 -0.0193896 0)
(1.01743 -0.024045 0)
(1.01933 -0.0293258 -3.49818e-24)
(1.02143 -0.0354565 7.35005e-23)
(1.02359 -0.0426518 -2.20609e-22)
(1.0252 -0.0510249 2.48334e-22)
(1.02543 -0.0605177 -1.07082e-22)
(1.02318 -0.0710035 9.48138e-23)
(1.01932 -0.0792873 9.11446e-22)
(1.00729 -0.0893656 -4.90172e-22)
(0.992173 -0.0934281 -4.0269e-22)
(0.977227 -0.0844646 3.17847e-22)
(0.958958 -0.0770878 5.36319e-21)
(0.940865 -0.0616786 2.82841e-22)
(0.927722 -0.0391653 3.78201e-22)
(0.92264 -0.0128745 7.23446e-22)
(0.926924 0.0119446 1.43309e-21)
(0.937361 0.0316177 2.97766e-21)
(0.951044 0.045322 2.59943e-21)
(0.966332 0.0607808 9.61487e-23)
(0.980242 0.0623276 9.93235e-22)
(0.991833 0.0596503 -1.6144e-21)
(0.99811 0.0560261 -1.03295e-22)
(1.00344 0.0511668 7.60475e-23)
(1.0073 0.0461157 -2.58914e-22)
(1.01007 0.0409417 3.4694e-22)
(1.0116 0.0356957 -2.28223e-23)
(1.0121 0.0305926 -1.24153e-23)
(1.01201 0.0257025 0)
(1.01171 0.0211244 0)
(1.01133 0.0168463 0)
(1.01095 0.0128304 0)
(1.01063 0.00900457 0)
(1.01042 0.00537245 0)
(1.01036 0.00176073 0)
(1.0151 -0.00161305 0)
(1.01551 -0.00479596 0)
(1.01637 -0.00810617 0)
(1.01769 -0.01165 0)
(1.01945 -0.0155304 0)
(1.02163 -0.0198562 0)
(1.02417 -0.0247678 0)
(1.02718 -0.0304971 -4.73625e-23)
(1.031 -0.0375067 1.15324e-22)
(1.03498 -0.0461961 -4.31636e-24)
(1.03831 -0.0566772 -2.89492e-23)
(1.04011 -0.0687483 -4.08255e-22)
(1.03959 -0.0816752 -4.20635e-22)
(1.02949 -0.0948193 -5.8851e-22)
(1.01991 -0.103318 -9.92482e-23)
(1.00424 -0.112015 9.09022e-22)
(0.976168 -0.117128 -1.27642e-21)
(0.944219 -0.110293 -9.20081e-22)
(0.911011 -0.0907179 -5.41246e-21)
(0.885911 -0.0554891 -1.32499e-21)
(0.876631 -0.0109132 -2.34353e-21)
(0.886835 0.0311732 -1.09659e-21)
(0.908894 0.0616393 -3.28448e-21)
(0.93541 0.0781981 -2.5615e-21)
(0.958773 0.0849654 -1.33425e-21)
(0.979587 0.0824063 8.0715e-22)
(0.993373 0.076444 -7.26684e-22)
(1.0066 0.0718454 -1.59824e-22)
(1.01174 0.0638099 1.44984e-23)
(1.01515 0.0560611 -4.9252e-22)
(1.0176 0.0489424 3.16704e-22)
(1.01899 0.0422274 -3.80841e-23)
(1.01946 0.0358015 -4.97011e-23)
(1.01894 0.0297942 0)
(1.01812 0.024261 0)
(1.01729 0.0192204 0)
(1.01655 0.0145772 0)
(1.01596 0.0102318 0)
(1.01557 0.00601981 0)
(1.01541 0.00204185 0)
(1.01928 -0.00153687 0)
(1.0198 -0.00461906 0)
(1.0209 -0.00787643 0)
(1.02258 -0.0112972 0)
(1.02485 -0.0150651 0)
(1.02771 -0.0192962 0)
(1.03116 -0.0241847 1.54309e-24)
(1.03581 -0.0301435 3.8596e-24)
(1.04193 -0.0378313 7.95462e-23)
(1.04827 -0.0476206 -4.92427e-23)
(1.05418 -0.0596498 -3.29667e-23)
(1.05884 -0.0742853 -1.21528e-22)
(1.06089 -0.0933264 1.67205e-22)
(1.05038 -0.110296 -1.34296e-21)
(1.04076 -0.12632 8.98608e-22)
(1.02073 -0.145784 4.96565e-22)
(0.987515 -0.156599 2.56496e-21)
(0.938455 -0.162006 -7.13354e-22)
(0.879047 -0.141886 1.8025e-21)
(0.826993 -0.089871 -1.36376e-21)
(0.805474 -0.0117877 3.14708e-22)
(0.825445 0.0612127 1.07019e-21)
(0.870338 0.107735 -4.75624e-21)
(0.918857 0.126425 2.09642e-21)
(0.958511 0.124918 1.19356e-21)
(0.988563 0.117855 1.80175e-21)
(1.00467 0.102948 -9.77038e-22)
(1.02049 0.0897997 -4.84619e-22)
(1.02434 0.0760433 6.72368e-22)
(1.0262 0.0650448 -1.62884e-22)
(1.02755 0.0556705 1.40894e-22)
(1.02817 0.0474955 4.13755e-23)
(1.02823 0.0399961 -7.14196e-23)
(1.02726 0.032999 1.25642e-23)
(1.02564 0.026626 0)
(1.02413 0.020898 0)
(1.02286 0.0156958 0)
(1.02189 0.010928 0)
(1.02124 0.0064634 0)
(1.02096 0.00206291 0)
(1.02322 -0.00131114 0)
(1.02384 -0.00422117 0)
(1.02514 -0.00711391 0)
(1.02718 -0.0102854 0)
(1.02996 -0.0137423 0)
(1.03352 -0.01765 0)
(1.0381 -0.0222108 9.50064e-24)
(1.04486 -0.0280355 -1.19245e-23)
(1.05358 -0.0358388 1.62417e-24)
(1.06279 -0.0458775 -2.05123e-23)
(1.0721 -0.0583125 -3.37884e-23)
(1.08115 -0.0739612 -3.99671e-23)
(1.08899 -0.0955664 1.23246e-22)
(1.08366 -0.118907 -5.11533e-23)
(1.078 -0.144929 -2.38411e-24)
(1.05545 -0.181128 -2.81497e-22)
(1.01886 -0.21306 -1.88971e-22)
(0.953249 -0.248415 9.17165e-22)
(0.844263 -0.255727 -3.30509e-22)
(0.714004 -0.18344 1.4554e-21)
(0.649265 -0.020406 6.26486e-22)
(0.707474 0.138574 -1.84108e-21)
(0.823209 0.209497 -4.62324e-23)
(0.91695 0.210126 1.66233e-21)
(0.980087 0.186792 -7.71127e-22)
(1.01794 0.157083 -1.94127e-21)
(1.03052 0.12773 1.18671e-22)
(1.0424 0.104343 -4.0479e-24)
(1.04207 0.0858268 -1.49869e-22)
(1.04079 0.0714424 9.57909e-23)
(1.03994 0.0600449 1.6187e-22)
(1.03903 0.0506183 1.29858e-22)
(1.03817 0.042364 -2.26905e-22)
(1.03664 0.0347688 4.45901e-23)
(1.03407 0.0278792 0)
(1.03166 0.0217716 0)
(1.02969 0.0163273 0)
(1.02821 0.0113337 0)
(1.02724 0.00670643 0)
(1.02679 0.00228582 0)
(1.02672 -0.0013447 0)
(1.02745 -0.00370174 0)
(1.02897 -0.00624018 0)
(1.03131 -0.00888807 0)
(1.03452 -0.0117535 0)
(1.0387 -0.0149774 0)
(1.04458 -0.0188341 -3.30951e-24)
(1.05362 -0.0239998 1.76428e-23)
(1.06486 -0.0308903 -1.53124e-23)
(1.07715 -0.0397266 -5.77267e-23)
(1.09049 -0.050927 -2.03401e-23)
(1.10511 -0.0653491 1.36881e-22)
(1.11985 -0.0835713 -1.20428e-22)
(1.12495 -0.112865 2.49367e-22)
(1.1325 -0.147657 5.34238e-22)
(1.13018 -0.19959 -1.54254e-22)
(1.11048 -0.270214 -8.20393e-24)
(1.05436 -0.380589 3.50877e-23)
(0.882122 -0.508966 -7.06115e-22)
(0.491951 -0.507397 -3.41672e-20)
(0.186495 -0.0276444 -1.51761e-20)
(0.484779 0.432143 -7.90882e-21)
(0.834408 0.44091 1.15631e-21)
(0.99138 0.334873 -1.6992e-23)
(1.04955 0.248073 4.89968e-23)
(1.07079 0.184675 -2.02285e-22)
(1.06914 0.144701 -1.11227e-22)
(1.07149 0.108731 1.35413e-22)
(1.06465 0.08913 -1.26188e-22)
(1.0587 0.0733054 -1.20457e-24)
(1.05442 0.0607963 2.8028e-23)
(1.05115 0.0505978 -1.75012e-23)
(1.0488 0.0420715 -8.48712e-24)
(1.04652 0.0344722 1.94438e-23)
(1.04298 0.0275177 0)
(1.0395 0.0213649 0)
(1.03671 0.0159474 0)
(1.03463 0.0110478 0)
(1.03326 0.00644916 0)
(1.0326 0.00204785 0)
(1.02968 -0.000920969 0)
(1.03045 -0.00291383 0)
(1.03211 -0.00495192 0)
(1.03466 -0.00697426 0)
(1.0382 -0.00914279 0)
(1.04288 -0.0114554 0)
(1.05004 -0.0142498 -1.49349e-23)
(1.06102 -0.0180346 -2.66101e-23)
(1.07429 -0.0228732 -4.29731e-23)
(1.0891 -0.0287831 -6.22619e-23)
(1.10619 -0.0362484 -7.79651e-23)
(1.12626 -0.0459398 -1.56536e-22)
(1.14962 -0.0583681 3.81767e-22)
(1.16306 -0.0860941 -3.36643e-23)
(1.19412 -0.116757 1.33784e-22)
(1.22038 -0.171649 2.49036e-22)
(1.25703 -0.254699 3.49406e-24)
(1.31392 -0.409611 1.7106e-21)
(1.02236 -0.55866 -1.15795e-19)
(0.993078 0.514028 1.2724e-20)
(1.19548 0.378371 -8.44088e-24)
(1.15992 0.250435 -3.50039e-24)
(1.13719 0.177218 3.16148e-23)
(1.11523 0.14132 -1.97389e-23)
(1.10299 0.102135 -5.36871e-24)
(1.08926 0.0840287 5.91444e-23)
(1.07829 0.0691167 1.44671e-23)
(1.06991 0.0567879 -6.56498e-24)
(1.06373 0.04683 -1.09485e-23)
(1.05949 0.0387213 -1.98735e-23)
(1.05622 0.031677 -2.08291e-23)
(1.05174 0.025225 0)
(1.04713 0.0194963 0)
(1.04348 0.0145034 0)
(1.04081 0.0100834 0)
(1.03904 0.00598471 0)
(1.03818 0.0021298 0)
(1.032 -0.000611765 0)
(1.0328 -0.00210916 0)
(1.03443 -0.00340523 0)
(1.03706 -0.00482281 0)
(1.04077 -0.00621289 0)
(1.04575 -0.00750878 0)
(1.05375 -0.00890231 1.02348e-23)
(1.0659 -0.010656 -1.84488e-23)
(1.0802 -0.0124287 -2.98692e-23)
(1.09632 -0.0140814 2.47106e-23)
(1.11511 -0.0158515 3.73014e-24)
(1.13829 -0.0179784 2.39205e-22)
(1.16665 -0.0198214 -6.46644e-22)
(1.19229 -0.0392844 -5.21652e-23)
(1.23863 -0.0530732 -3.55765e-21)
(1.28917 -0.086922 9.44253e-23)
(1.36869 -0.130215 -1.18248e-22)
(1.5016 -0.177259 2.63866e-21)
(0.0196793 -0.0123589 2.49384e-19)
(0.0390938 -0.0208773 -1.29238e-19)
(1.328 0.235621 -2.19991e-22)
(1.24435 0.185163 1.65878e-23)
(1.19079 0.140723 -8.43533e-22)
(1.15571 0.117609 -9.16568e-22)
(1.13139 0.0859454 -1.08638e-22)
(1.11252 0.0716348 1.11574e-22)
(1.09705 0.0589602 -5.36089e-23)
(1.08485 0.0481128 2.33588e-23)
(1.0758 0.0393818 -1.66148e-23)
(1.0695 0.0323479 9.57219e-24)
(1.06507 0.0263834 -6.33576e-24)
(1.05974 0.0210237 0)
(1.05408 0.0162433 0)
(1.04961 0.0120779 0)
(1.0463 0.00831578 0)
(1.04414 0.00485551 0)
(1.04303 0.00137267 0)
(1.03365 -0.000608166 -1.92276e-25)
(1.03449 -0.00141477 0)
(1.03622 -0.002279 0)
(1.03884 -0.00297979 0)
(1.04242 -0.00346559 0)
(1.04724 -0.00367602 0)
(1.05529 -0.00353276 -4.6745e-24)
(1.06733 -0.00285486 5.63209e-23)
(1.08098 -0.00124677 2.70076e-24)
(1.09654 0.00172627 -1.57517e-22)
(1.11505 0.00641058 -1.38785e-22)
(1.13778 0.013052 6.91175e-23)
(1.16655 0.0237083 4.40231e-22)
(1.19889 0.0178817 3.83698e-22)
(1.24801 0.0242365 -6.54267e-22)
(1.30726 0.0174931 -4.86901e-22)
(1.38911 0.0141828 -8.62411e-22)
(1.46555 0.0282653 2.41475e-22)
(0.20414 -0.0263356 -1.33278e-20)
(0.0920468 -0.028168 5.42451e-21)
(1.2425 0.0789734 1.27467e-22)
(1.26431 0.104211 7.32528e-22)
(1.21309 0.0954172 -8.54533e-23)
(1.18012 0.0858426 -1.11594e-22)
(1.15242 0.064235 5.30523e-22)
(1.13117 0.0538657 -5.96715e-22)
(1.11304 0.0442052 9.77712e-23)
(1.09797 0.0357057 -1.87421e-22)
(1.08639 0.028806 -1.86492e-23)
(1.07803 0.0232747 2.53776e-23)
(1.07227 0.0187935 -6.97085e-24)
(1.06611 0.0149681 0)
(1.05969 0.0116041 0)
(1.05461 0.00866728 0)
(1.05084 0.00599252 0)
(1.04827 0.00353335 0)
(1.04695 0.00133818 0)
(1.03484 -0.000244099 2.99874e-26)
(1.03556 -0.000689596 0)
(1.03714 -0.00110211 0)
(1.03949 -0.00125001 0)
(1.04272 -0.0011113 0)
(1.04709 -0.00051068 0)
(1.05423 0.000962201 6.45832e-24)
(1.06473 0.00379513 -6.64602e-23)
(1.07633 0.00853099 7.25363e-23)
(1.08941 0.015769 -2.20735e-22)
(1.10481 0.0263315 9.41707e-22)
(1.12292 0.0405824 -1.35707e-21)
(1.1459 0.0608027 4.61217e-22)
(1.17904 0.072466 1.08054e-21)
(1.22132 0.0973426 -1.59363e-21)
(1.27994 0.118533 -8.80115e-23)
(1.36036 0.145707 -1.82246e-21)
(1.44808 0.175957 1.51786e-21)
(0.598577 -0.0139048 -9.4402e-22)
(0.217973 -0.373643 -2.07156e-21)
(-0.0530429 -0.491805 -3.60266e-23)
(-0.224089 -0.330688 -1.19184e-22)
(-8.7147e-05 -0.195671 -1.4543e-21)
(1.0546 -0.0316802 -7.27207e-22)
(1.23755 0.0530698 8.09244e-22)
(1.21383 0.0641891 -3.77194e-23)
(1.19137 0.0582815 9.23263e-22)
(1.16691 0.0416616 -3.01074e-22)
(1.14495 0.0334753 9.19369e-23)
(1.12521 0.0264576 2.61249e-22)
(1.10829 0.0205954 -7.28183e-23)
(1.09477 0.0158927 2.95862e-23)
(1.08459 0.0122268 2.36276e-24)
(1.07743 0.00954518 1.62323e-24)
(1.07029 0.00754016 0)
(1.06336 0.00592681 0)
(1.05793 0.00448645 0)
(1.05401 0.00314413 0)
(1.05155 0.00186349 0)
(1.05044 0.00060209 0)
(1.03579 7.68547e-05 8.24262e-23)
(1.03625 -0.000117522 0)
(1.03752 -4.15832e-06 0)
(1.03952 0.000161617 0)
(1.04228 0.000665485 0)
(1.04585 0.00161711 0)
(1.05111 0.00355865 -3.36177e-25)
(1.0589 0.00750358 -7.41662e-24)
(1.06714 0.0142322 -3.63281e-23)
(1.0758 0.0241419 1.25697e-23)
(1.08538 0.0380581 2.73966e-22)
(1.09569 0.0567895 2.1054e-22)
(1.10769 0.0839441 -5.96763e-22)
(1.13334 0.110477 -4.52259e-22)
(1.16246 0.152206 -2.52668e-21)
(1.20181 0.214369 1.51779e-21)
(1.27034 0.280808 4.05983e-21)
(1.37689 0.394709 5.10053e-21)
(1.05974 0.389381 -2.64264e-21)
(0.514298 0.162922 4.23446e-20)
(0.0119509 0.0221884 2.24598e-21)
(-0.36004 -0.0848104 -5.26952e-22)
(-0.0786113 -0.0804125 -3.23671e-21)
(0.870926 0.0186278 7.70074e-22)
(1.21342 0.0629007 -7.4141e-22)
(1.22059 0.0497301 6.90337e-22)
(1.20144 0.0350545 -1.09678e-21)
(1.17685 0.0161477 -2.37467e-22)
(1.15393 0.0109693 -3.36704e-22)
(1.13286 0.00660279 -1.78992e-22)
(1.11471 0.00354823 -2.00396e-22)
(1.09977 0.00139341 4.00203e-23)
(1.08853 -8.84237e-05 -4.31411e-24)
(1.08007 -0.000816196 -4.16937e-25)
(1.07194 -0.000690208 0)
(1.06475 -0.000395317 0)
(1.0592 -0.000272006 0)
(1.05525 -0.000259063 0)
(1.0527 -0.000283641 0)
(1.05118 -0.000252888 1.60216e-23)
(1.03599 -0.000106676 4.809e-23)
(1.03663 2.28527e-07 0)
(1.03777 0.00011333 0)
(1.03943 0.000312685 0)
(1.04155 0.000823779 0)
(1.04409 0.001695 0)
(1.04718 0.00357426 0)
(1.05124 0.00781005 -7.46802e-24)
(1.05527 0.0146626 1.24424e-23)
(1.05858 0.0247086 1.32878e-22)
(1.06095 0.038665 -2.57132e-24)
(1.06207 0.0573873 -9.21395e-23)
(1.06222 0.0834574 9.65174e-22)
(1.05984 0.127152 -1.18058e-21)
(1.07835 0.176604 1.02989e-21)
(1.0826 0.2452 -8.90882e-22)
(1.10635 0.350359 1.60674e-21)
(1.11938 0.517746 -1.62895e-22)
(1.06996 0.749911 -3.71493e-21)
(0.705596 0.778039 -1.65081e-20)
(0.183844 0.703463 7.63289e-21)
(-0.167425 0.555398 9.59329e-21)
(0.0660113 0.29724 2.05112e-21)
(0.805513 0.141491 -2.81525e-20)
(1.27734 0.0744824 5.77168e-22)
(1.25351 0.0267921 4.911e-22)
(1.21696 -0.00697264 5.71448e-22)
(1.18432 -0.0148883 -7.84655e-22)
(1.15757 -0.0153078 1.4555e-22)
(1.13523 -0.0157846 -1.09975e-23)
(1.11622 -0.0149555 -1.51002e-22)
(1.10081 -0.014057 2.58526e-23)
(1.08897 -0.0130349 7.63854e-24)
(1.07918 -0.01134 0)
(1.07055 -0.00891682 0)
(1.06354 -0.00672475 0)
(1.05819 -0.00495468 0)
(1.05434 -0.00338889 0)
(1.05174 -0.00185772 0)
(1.05033 -0.000507175 -8.45091e-23)
(1.03625 -0.000127057 -8.21651e-25)
(1.03676 -0.000131668 0)
(1.03773 -0.000167336 0)
(1.03908 -7.43803e-05 0)
(1.04068 0.000175959 0)
(1.04228 0.000628815 0)
(1.04325 0.00169784 0)
(1.04364 0.0045594 0)
(1.04344 0.00966209 -8.80997e-24)
(1.04241 0.0169195 -5.47836e-23)
(1.03875 0.0270374 1.41313e-22)
(1.03108 0.0408339 -2.91708e-22)
(1.01873 0.0597495 3.58223e-22)
(0.999057 0.091583 -1.81176e-22)
(0.994056 0.14439 -3.56952e-22)
(0.961565 0.205115 -4.72118e-22)
(0.923097 0.307441 8.70774e-22)
(0.848274 0.448236 2.81013e-21)
(0.793196 0.617922 -1.01531e-21)
(0.595418 0.81897 7.54587e-21)
(0.272681 0.881854 2.38812e-21)
(0.153221 0.726627 2.03446e-22)
(0.446656 0.443082 -2.7322e-21)
(1.05202 0.145091 -3.06575e-20)
(1.36616 -0.0141609 1.22505e-22)
(1.29173 -0.0396757 -5.48363e-22)
(1.22262 -0.0629429 -8.48555e-23)
(1.18395 -0.0549879 1.67198e-23)
(1.1542 -0.0466681 -2.15371e-22)
(1.13108 -0.0405411 7.63083e-24)
(1.11233 -0.034558 1.03566e-24)
(1.09742 -0.0297631 5.5348e-24)
(1.08508 -0.0253467 0)
(1.07454 -0.0206828 0)
(1.0661 -0.0160073 0)
(1.05977 -0.0120471 0)
(1.05502 -0.00873037 3.81821e-23)
(1.05159 -0.00583548 5.28033e-23)
(1.04936 -0.00325118 3.14872e-23)
(1.0482 -0.000999679 0)
(1.03627 -1.73397e-05 0)
(1.0367 -0.000299378 0)
(1.03752 -0.000557491 0)
(1.03874 -0.000761043 0)
(1.04018 -0.000975725 0)
(1.04135 -0.00122631 0)
(1.04108 -0.00145094 0)
(1.03936 -0.000974726 0)
(1.03671 0.000542439 7.52171e-26)
(1.03292 0.00272783 -3.45334e-24)
(1.02581 0.00583643 -6.21576e-24)
(1.01273 0.00971102 -8.96463e-23)
(0.990394 0.016604 8.01388e-23)
(0.95624 0.0233496 -5.22634e-22)
(0.930087 0.0692707 4.94885e-21)
(0.865557 0.112628 4.34738e-22)
(0.794665 0.185149 2.80647e-22)
(0.652971 0.278073 1.74726e-22)
(0.495266 0.47422 2.37993e-23)
(0.377202 0.654569 -5.39069e-21)
(0.360833 0.66618 -7.95082e-21)
(0.514498 0.457236 -8.72786e-21)
(0.892582 0.128201 -3.97038e-21)
(1.3384 -0.116609 1.97817e-21)
(1.38704 -0.175799 -1.27256e-21)
(1.28603 -0.141925 -2.16792e-21)
(1.20353 -0.125498 1.67527e-22)
(1.16586 -0.099254 1.44974e-22)
(1.13886 -0.0794766 -8.95648e-23)
(1.11811 -0.0648546 -1.70376e-23)
(1.10161 -0.0527436 -5.5407e-24)
(1.08809 -0.0432839 4.99207e-26)
(1.07636 -0.035111 0)
(1.06638 -0.0277651 0)
(1.05902 -0.0212659 0)
(1.0539 -0.0159216 0)
(1.05012 -0.0114984 0)
(1.0474 -0.00773692 0)
(1.04563 -0.00442857 0)
(1.04473 -0.00141147 -5.67088e-24)
(1.03627 -1.70365e-05 0)
(1.03686 -0.00029501 0)
(1.03777 -0.000655381 0)
(1.03908 -0.00116893 0)
(1.04071 -0.00188595 0)
(1.04208 -0.00292201 0)
(1.04182 -0.00446877 0)
(1.03979 -0.00645951 0)
(1.03708 -0.00892304 0)
(1.03341 -0.0126923 0)
(1.02679 -0.0181681 1.88281e-24)
(1.01422 -0.0272928 6.08233e-24)
(0.990627 -0.0363883 1.78428e-22)
(0.949543 -0.0581874 -2.39394e-22)
(0.899477 -0.0347139 1.34678e-20)
(0.819833 -0.024026 -8.24868e-22)
(0.714165 0.0352792 4.65405e-21)
(0.470497 0.116422 1.17439e-21)
(0.319912 0.148135 3.96408e-23)
(0.354599 0.100996 4.84531e-21)
(0.57333 -0.0382186 9.8281e-21)
(0.886429 -0.233994 2.94769e-20)
(1.21768 -0.394226 -7.37016e-21)
(1.39223 -0.412874 -1.70648e-21)
(1.27976 -0.310087 1.28795e-22)
(1.21872 -0.228914 1.02555e-21)
(1.1523 -0.171372 -8.01702e-23)
(1.12707 -0.133514 1.22459e-22)
(1.1094 -0.104292 -9.65104e-24)
(1.09525 -0.0823629 1.95842e-24)
(1.08361 -0.0649455 0)
(1.07333 -0.0516067 0)
(1.06384 -0.0407488 0)
(1.05566 -0.0317609 0)
(1.05006 -0.0242446 0)
(1.04653 -0.0181167 0)
(1.04397 -0.0130588 0)
(1.04212 -0.00880041 0)
(1.04093 -0.0050453 0)
(1.04039 -0.00161784 0)
(1.03639 2.77228e-05 0)
(1.03717 -6.79182e-05 0)
(1.03835 -0.000335219 0)
(1.04003 -0.000915943 0)
(1.04218 -0.00188399 0)
(1.04433 -0.00342498 0)
(1.04516 -0.00590847 0)
(1.0445 -0.00975755 0)
(1.04409 -0.0153962 0)
(1.044 -0.023948 0)
(1.04276 -0.036593 0)
(1.03836 -0.0568597 2.03798e-24)
(1.02497 -0.081803 -7.87701e-24)
(0.992076 -0.127209 5.8772e-23)
(0.920631 -0.146758 4.47004e-21)
(0.780665 -0.165996 -7.80138e-21)
(0.622595 -0.111281 3.35222e-21)
(0.529035 -0.171369 -1.20777e-22)
(0.497616 -0.345795 3.23486e-22)
(0.585425 -0.552881 -4.13014e-21)
(0.784747 -0.703576 -4.21804e-21)
(1.00609 -0.754594 6.06798e-21)
(1.16788 -0.681355 4.11361e-21)
(1.20134 -0.512955 1.87476e-21)
(1.12993 -0.348557 4.18587e-23)
(1.1201 -0.263765 1.58904e-22)
(1.0833 -0.191794 -5.34988e-22)
(1.07559 -0.147311 -1.16665e-23)
(1.06982 -0.114319 3.01819e-25)
(1.06515 -0.0887381 0)
(1.06038 -0.0687933 0)
(1.05512 -0.0536078 0)
(1.04924 -0.0416409 0)
(1.0437 -0.0321747 0)
(1.04023 -0.0245592 0)
(1.03843 -0.0183961 0)
(1.03722 -0.0132687 0)
(1.03634 -0.00893095 0)
(1.03584 -0.00512083 0)
(1.0357 -0.00162609 0)
(1.03633 8.81858e-05 0)
(1.03729 0.000291729 0)
(1.03882 0.000345442 0)
(1.04101 9.74119e-05 0)
(1.04392 -0.000605371 0)
(1.04728 -0.00197478 0)
(1.05006 -0.00451222 0)
(1.05215 -0.00900405 0)
(1.05575 -0.0160127 0)
(1.06165 -0.0265549 0)
(1.06945 -0.0420656 -8.09929e-24)
(1.07876 -0.0668077 0)
(1.08636 -0.10099 0)
(1.07407 -0.151276 1.19757e-21)
(0.997807 -0.248222 -2.50249e-21)
(0.796227 -0.288319 7.37375e-21)
(0.710467 -0.377859 1.38779e-22)
(0.746209 -0.495859 9.97371e-23)
(0.759977 -0.595872 7.81236e-22)
(0.791714 -0.657053 -1.33421e-21)
(0.855498 -0.662303 -1.11749e-21)
(0.922031 -0.609392 1.7446e-21)
(0.958101 -0.514986 4.64457e-22)
(0.973629 -0.415139 -1.32561e-22)
(1.00307 -0.334189 -4.15528e-24)
(1.0018 -0.243345 2.18983e-21)
(1.01263 -0.184944 5.75771e-22)
(1.02098 -0.141114 0)
(1.02773 -0.109026 0)
(1.03269 -0.083565 1.74258e-23)
(1.03533 -0.0640125 0)
(1.03576 -0.0490284 0)
(1.0342 -0.0373924 0)
(1.03191 -0.0285225 0)
(1.03082 -0.0217799 0)
(1.03072 -0.0164499 0)
(1.03071 -0.0119983 0)
(1.03069 -0.00819145 -6.2841e-24)
(1.03077 -0.00478947 -4.50828e-24)
(1.03097 -0.00160712 0)
(1.03592 0.000273556 0)
(1.03687 0.000912618 0)
(1.03862 0.00150899 0)
(1.04127 0.00192325 0)
(1.04493 0.00201898 0)
(1.04958 0.00161975 0)
(1.05465 0.000272298 0)
(1.06011 -0.00299614 0)
(1.06813 -0.00872222 0)
(1.08014 -0.01747 0)
(1.09722 -0.0302081 4.08352e-22)
(1.12053 -0.0497929 0)
(1.15215 -0.0799978 0)
(1.17686 -0.119612 -9.95523e-23)
(1.1471 -0.207369 -1.39392e-20)
(1.00181 -0.352803 -5.01365e-22)
(0.9199 -0.503648 0)
(0.849725 -0.593815 2.37138e-22)
(0.788057 -0.639062 -4.59936e-21)
(0.746609 -0.640133 -1.86227e-20)
(0.75011 -0.601087 3.59648e-21)
(0.776524 -0.511161 -1.73302e-21)
(0.822501 -0.418817 -2.06912e-22)
(0.871559 -0.336745 0)
(0.904927 -0.266411 1.25873e-21)
(0.92533 -0.202352 -7.75088e-22)
(0.948218 -0.153754 -9.45203e-22)
(0.971981 -0.116193 0)
(0.990046 -0.0886073 0)
(1.00321 -0.0667683 -4.40365e-23)
(1.01239 -0.0502544 0)
(1.01803 -0.0375985 0)
(1.02076 -0.0279027 0)
(1.022 -0.0209017 0)
(1.02335 -0.0159994 0)
(1.0247 -0.012234 1.13688e-23)
(1.0256 -0.00906766 -1.47736e-23)
(1.02611 -0.00631788 0)
(1.02644 -0.00377103 0)
(1.02668 -0.00132089 -3.47174e-23)
(1.0347 0.000602742 0)
(1.03558 0.0018045 0)
(1.0374 0.00306411 0)
(1.04027 0.00433196 0)
(1.04434 0.0056015 0)
(1.04978 0.006795 0)
(1.05652 0.00769597 -5.59014e-24)
(1.06471 0.00748284 0)
(1.07598 0.00572229 0)
(1.09197 0.00248959 0)
(1.11468 -0.00246294 0)
(1.14645 -0.00868575 0)
(1.1922 -0.0201473 0)
(1.24925 -0.0312218 -7.14728e-22)
(1.28066 -0.0691798 -7.45676e-23)
(1.20021 -0.15417 -5.66225e-24)
(1.08557 -0.284431 0)
(0.968285 -0.386881 0)
(0.856475 -0.475963 -1.36425e-20)
(0.757907 -0.486868 -8.87048e-20)
(0.687308 -0.489187 -3.28865e-22)
(0.660892 -0.434595 1.27136e-21)
(0.685155 -0.365088 0)
(0.739401 -0.284779 0)
(0.793549 -0.201386 0)
(0.847682 -0.138332 1.92945e-23)
(0.898979 -0.100399 -1.30849e-22)
(0.932535 -0.0723705 1.60255e-23)
(0.960559 -0.052972 0)
(0.980837 -0.0385389 0)
(0.99527 -0.0279845 0)
(1.00497 -0.0200608 0)
(1.01126 -0.0142293 4.98899e-23)
(1.01554 -0.0104635 2.04449e-23)
(1.01882 -0.00816367 1.02999e-24)
(1.02111 -0.00642057 0)
(1.02254 -0.0048699 0)
(1.02332 -0.00343351 0)
(1.02371 -0.00205447 0)
(1.02388 -0.000624094 0)
(1.03254 0.000815114 0)
(1.0334 0.00265635 0)
(1.0351 0.00459632 0)
(1.03778 0.00681499 0)
(1.04162 0.0094056 0)
(1.0469 0.01243 0)
(1.05397 0.0159463 0)
(1.06319 0.0195548 0)
(1.07549 0.0230801 -2.54695e-23)
(1.09202 0.0271981 0)
(1.11463 0.0323977 0)
(1.146 0.0416528 0)
(1.18946 0.0538769 -1.31244e-22)
(1.25253 0.0767784 3.8251e-22)
(1.31969 0.100353 0)
(1.30262 0.10242 0)
(1.22307 0.0509132 0)
(1.10089 0.00789925 0)
(0.957944 -0.0667693 4.98446e-20)
(0.816573 -0.0688058 1.08583e-19)
(0.692972 -0.106481 1.35358e-20)
(0.625366 -0.111933 -6.81043e-21)
(0.621409 -0.112855 0)
(0.653213 -0.100638 0)
(0.706741 -0.0738623 0)
(0.783272 -0.0412123 0)
(0.858625 -0.0166092 -9.48413e-21)
(0.908927 -0.0074592 -1.26935e-21)
(0.944446 -0.00224588 0)
(0.969927 -0.000626275 -1.42976e-24)
(0.987531 0.000399197 1.15968e-24)
(0.999487 0.00110944 -2.28207e-24)
(1.00775 0.00137718 0)
(1.01368 0.000987637 0)
(1.01776 0.000289559 0)
(1.02018 -0.000217364 0)
(1.02156 -0.000433583 0)
(1.02234 -0.00040596 0)
(1.02275 -0.000281673 0)
(1.02304 -3.58456e-06 0)
(1.02987 0.000965301 0)
(1.03046 0.00328502 0)
(1.03172 0.00583271 0)
(1.03376 0.00889919 0)
(1.03675 0.0125956 0)
(1.04098 0.0171381 0)
(1.04703 0.0227577 0)
(1.05535 0.0294648 0)
(1.06619 0.0375244 0)
(1.07981 0.047963 0)
(1.09707 0.061889 4.9151e-24)
(1.11995 0.0824843 -5.75284e-23)
(1.14894 0.11172 1.3125e-21)
(1.18988 0.156074 4.61859e-22)
(1.24712 0.218521 0)
(1.26663 0.290191 0)
(1.22853 0.3284 0)
(1.13593 0.363383 0)
(1.0082 0.343969 7.68808e-20)
(0.871609 0.354269 -1.29205e-19)
(0.744558 0.311822 -2.39163e-22)
(0.677926 0.271408 5.09504e-21)
(0.669247 0.215718 0)