/*--------------------------------*- C++ -*----------------------------------*\
| =========                 |                                                 |
| \\      /  F ield         | OpenFOAM: The Open Source CFD Toolbox           |
|  \\    /   O peration     | Version:  v2106                                 |
|   \\  /    A nd           | Website:  www.openfoam.com                      |
|    \\/     M anipulation  |                                                 |
\*---------------------------------------------------------------------------*/
FoamFile
{
    version     2.0;
    format      ascii;
    arch        "LSB;label=32;scalar=64";
    class       pointVectorField;
    location    "0";
    object      pointDisplacement;
}
// * * * * * * * * * * * * * * * * * * * * * * * * * * * * * * * * * * * * * //

dimensions      [0 1 0 0 0 0 0];

internalField   nonuniform List<vector> 
24440
(
(0 0 0)
(0 0 0)
(0 0 0)
(0 0 0)
(0 0 0)
(0 0 0)
(0 0 0)
(0 0 0)
(0 0 0)
(0 0 0)
(0 0 0)
(0 0 0)
(0 0 0)
(0 0 0)
(0 0 0)
(0 0 0)
(0 0 0)
(0 0 0)
(0 0 0)
(0 0 0)
(0 0 0)
(0 0 0)
(0 0 0)
(0 0 0)
(0 0 0)
(0 0 0)
(0 0 0)
(0 0 0)
(0 0 0)
(0 0 0)
(0 0 0)
(0 0 0)
(0 0 0)
(0 0 0)
(0 0 0)
(0 0 0)
(0 0 0)
(0 0 0)
(0 0 0)
(0 0 0)
(0 0 0)
(0 0 0)
(0 0 0)
(0 0 0)
(0 0 0)
(0 0 0)
(0 0 0)
(0 0 0)
(0 0 0)
(0 0 0)
(0 0 0)
(0 0 0)
(0 0 0)
(0 0 0)
(0 0 0)
(0 0 0)
(0 0 0)
(0 0 0)
(0 0 0)
(0 0 0)
(0 0 0)
(0 0 0)
(0 0 0)
(0 0 0)
(0 0 0)
(0 0 0)
(0 0 0)
(0 0 0)
(0 0 0)
(0 0 0)
(0 0 0)
(0 0 0)
(0 0 0)
(0 0 0)
(0 0 0)
(0 0 0)
(0 0 0)
(0 0 0)
(0 0 0)
(0 0 0)
(0 0 0)
(0 0 0)
(0 0 0)
(0 0 0)
(0 0 0)
(0 0 0)
(0 0 0)
(0 0 0)
(0 0 0)
(0 0 0)
(0 0 0)
(0 0 0)
(0 0 0)
(0 0 0)
(0 0 0)
(0 0 0)
(0 0 0)
(0 0 0)
(0 8.36037e-06 0)
(0 5.2721e-05 0)
(0 0.000144972 0)
(0 0.000223394 0)
(0 0.00025349 0)
(0 0.000223394 0)
(0 0.000144972 0)
(0 5.2721e-05 0)
(0 8.36037e-06 0)
(0 0 0)
(0 0 0)
(0 0 0)
(0 0 0)
(0 0 0)
(0 0 0)
(0 0 0)
(0 0 0)
(0 0 0)
(0 0 0)
(0 0 0)
(0 0 0)
(0 0 0)
(0 0 0)
(0 0 0)
(0 0 0)
(0 0 0)
(0 0 0)
(0 0 0)
(0 0 0)
(0 0 0)
(0 0 0)
(0 0 0)
(0 0 0)
(0 0 0)
(0 0 0)
(0 0 0)
(0 0 0)
(0 0 0)
(0 1.40014e-05 0)
(0 0.000185215 0)
(0 0.000545073 0)
(0 0.000981913 0)
(0 0.00140061 0)
(0 0.0016925 0)
(0 0.00196384 0)
(0 0.00205931 0)
(0 0.00196384 0)
(0 0.0016925 0)
(0 0.00140061 0)
(0 0.000981913 0)
(0 0.000545073 0)
(0 0.000185215 0)
(0 1.40014e-05 0)
(0 0 0)
(0 0 0)
(0 0 0)
(0 0 0)
(0 0 0)
(0 0 0)
(0 0 0)
(0 0 0)
(0 0 0)
(0 0 0)
(0 0 0)
(0 0 0)
(0 0 0)
(0 0 0)
(0 0 0)
(0 0 0)
(0 0 0)
(0 0 0)
(0 0 0)
(0 0 0)
(0 0 0)
(0 0 0)
(0 0 0)
(0 0 0)
(0 5.87858e-06 0)
(0 0.000243575 0)
(0 0.000830666 0)
(0 0.00163806 0)
(0 0.00246968 0)
(0 0.00339746 0)
(0 0.00420099 0)
(0 0.00469864 0)
(0 0.00517449 0)
(0 0.00533895 0)
(0 0.00517449 0)
(0 0.00469864 0)
(0 0.00420099 0)
(0 0.00339746 0)
(0 0.00246968 0)
(0 0.00163806 0)
(0 0.000830666 0)
(0 0.000243575 0)
(0 5.87858e-06 0)
(0 0 0)
(0 0 0)
(0 0 0)
(0 0 0)
(0 0 0)
(0 0 0)
(0 0 0)
(0 0 0)
(0 0 0)
(0 0 0)
(0 0 0)
(0 0 0)
(0 0 0)
(0 0 0)
(0 0 0)
(0 0 0)
(0 0 0)
(0 0 0)
(0 0 0)
(0 0 0)
(0 0 0)
(0 5.55848e-05 0)
(0 0.000578051 0)
(0 0.0015362 0)
(0 0.00269528 0)
(0 0.0041344 0)
(0 0.0055859 0)
(0 0.00684334 0)
(0 0.00802126 0)
(0 0.00885713 0)
(0 0.00935653 0)
(0 0.00958578 0)
(0 0.00935653 0)
(0 0.00885713 0)
(0 0.00802126 0)
(0 0.00684334 0)
(0 0.0055859 0)
(0 0.0041344 0)
(0 0.00269528 0)
(0 0.0015362 0)
(0 0.000578051 0)
(0 5.88459e-05 0)
(0 0 0)
(0 0 0)
(0 0 0)
(0 0 0)
(0 0 0)
(0 0 0)
(0 0 0)
(0 0 0)
(0 0 0)
(0 0 0)
(0 0 0)
(0 0 0)
(0 0 0)
(0 0 0)
(0 0 0)
(0 0 0)
(0 0 0)
(0 0 0)
(0 0 0)
(0 0.000109323 0)
(0 0.000766571 0)
(0 0.00191327 0)
(0 0.00351245 0)
(0 0.00541304 0)
(0 0.00738804 0)
(0 0.00920045 0)
(0 0.0109186 0)
(0 0.0115643 0)
(0 0.0122625 0)
(0 0.0128465 0)
(0 0.0133066 0)
(0 0.0136357 0)
(0 0.0138632 0)
(0 0.0140734 0)
(0 0.0141438 0)
(0 0.0140734 0)
(0 0.0138632 0)
(0 0.0136357 0)
(0 0.0133066 0)
(0 0.0128465 0)
(0 0.0122625 0)
(0 0.0115643 0)
(0 0.0109186 0)
(0 0.00920045 0)
(0 0.00738804 0)
(0 0.00541304 0)
(0 0.00351245 0)
(0 0.00187355 0)
(0 0.000692674 0)
(0 8.73561e-05 0)
(0 0 0)
(0 0 0)
(0 0 0)
(0 0 0)
(0 0 0)
(0 0 0)
(0 0 0)
(0 0 0)
(0 0 0)
(0 0 0)
(0 0 0)
(0 0 0)
(0 0 0)
(0 0 0)
(0 0 0)
(0 0 0)
(0 0 0)
(0 6.43019e-05 0)
(0 0.000735867 0)
(0 0.00205026 0)
(0 0.00385798 0)
(0 0.00597544 0)
(0 0.00846677 0)
(0 0.009658 0)
(0 0.0107139 0)
(0 0.0118825 0)
(0 0.0129779 0)
(0 0.0139801 0)
(0 0.0148315 0)
(0 0.0129259 0)
(0 0.0137151 0)
(0 0.0143379 0)
(0 0.0149661 0)
(0 0.0154589 0)
(0 0.0158101 0)
(0 0.0160207 0)
(0 0.0162438 0)
(0 0.0163184 0)
(0 0.0162438 0)
(0 0.0160207 0)
(0 0.0158101 0)
(0 0.0154589 0)
(0 0.0149661 0)
(0 0.0143379 0)
(0 0.0137151 0)
(0 0.0129259 0)
(0 0.0148315 0)
(0 0.0139801 0)
(0 0.0129779 0)
(0 0.0118825 0)
(0 0.0107139 0)
(0 0.009658 0)
(0 0.00846677 0)
(0 0.00597544 0)
(0 0.00385798 0)
(0 0.00197547 0)
(0 0.000703851 0)
(0 5.83954e-05 0)
(0 0 0)
(0 0 0)
(0 0 0)
(0 0 0)
(0 0 0)
(0 0 0)
(0 0 0)
(0 0 0)
(0 0 0)
(0 0 0)
(0 0 0)
(0 0 0)
(0 0 0)
(0 0 0)
(0 0 0)
(0 0 0)
(0 0.00040685 0)
(0 0.00166265 0)
(0 0.00355452 0)
(0 0.00593092 0)
(0 0.00857769 0)
(0 0.0112671 0)
(0 0.0099171 0)
(0 0.0112125 0)
(0 0.012459 0)
(0 0.0136327 0)
(0 0.0146755 0)
(0 0.0157331 0)
(0 0.0166676 0)
(0 0.0174397 0)
(0 0.0156701 0)
(0 0.0163764 0)
(0 0.0181677 0)
(0 0.0186919 0)
(0 0.0169383 0)
(0 0.0174525 0)
(0 0.0192132 0)
(0 0.0195802 0)
(0 0.0178172 0)
(0 0.0180021 0)
(0 0.0197929 0)
(0 0.0199617 0)
(0 0.0182322 0)
(0 0.0183089 0)
(0 0.0200379 0)
(0 0.0199617 0)
(0 0.0182322 0)
(0 0.0180021 0)
(0 0.0197929 0)
(0 0.0195802 0)
(0 0.0178172 0)
(0 0.0174525 0)
(0 0.0192132 0)
(0 0.0186919 0)
(0 0.0169383 0)
(0 0.0163764 0)
(0 0.0181677 0)
(0 0.0174397 0)
(0 0.0156701 0)
(0 0.0166676 0)
(0 0.0157331 0)
(0 0.0146755 0)
(0 0.0136327 0)
(0 0.012459 0)
(0 0.0112125 0)
(0 0.0099171 0)
(0 0.0112671 0)
(0 0.00857769 0)
(0 0.00585953 0)
(0 0.00352646 0)
(0 0.00166088 0)
(0 0.000442311 0)
(0 0 0)
(0 0 0)
(0 0 0)
(0 0 0)
(0 0 0)
(0 0 0)
(0 0 0)
(0 0 0)
(0 0 0)
(0 0 0)
(0 0 0)
(0 0 0)
(0 0 0)
(0 0 0)
(0 0 0)
(0 8.87538e-05 0)
(0 0.00091183 0)
(0 0.00262833 0)
(0 0.00492444 0)
(0 0.00765411 0)
(0 0.0107815 0)
(0 0.0137939 0)
(0 0.0126215 0)
(0 0.0139862 0)
(0 0.0125584 0)
(0 0.013963 0)
(0 0.0152689 0)
(0 0.0165557 0)
(0 0.0151991 0)
(0 0.016328 0)
(0 0.017716 0)
(0 0.018245 0)
(0 0.0187374 0)
(0 0.0180678 0)
(0 0.017281 0)
(0 0.0182399 0)
(0 0.0189276 0)
(0 0.0193525 0)
(0 0.0186645 0)
(0 0.0196974 0)
(0 0.0203497 0)
(0 0.0206516 0)
(0 0.0200038 0)
(0 0.0206792 0)
(0 0.0213174 0)
(0 0.0214765 0)
(0 0.0208758 0)
(0 0.021237 0)
(0 0.0218218 0)
(0 0.0219051 0)
(0 0.0213338 0)
(0 0.0214378 0)
(0 0.0219967 0)
(0 0.0219799 0)
(0 0.0214199 0)
(0 0.021237 0)
(0 0.0218218 0)
(0 0.0217429 0)
(0 0.021154 0)
(0 0.0206792 0)
(0 0.0213174 0)
(0 0.0211347 0)
(0 0.0204981 0)
(0 0.0196974 0)
(0 0.0203497 0)
(0 0.0200832 0)
(0 0.0193513 0)
(0 0.0182399 0)
(0 0.0189276 0)
(0 0.0184642 0)
(0 0.0177783 0)
(0 0.016328 0)
(0 0.017716 0)
(0 0.0165557 0)
(0 0.0151991 0)
(0 0.013963 0)
(0 0.0152689 0)
(0 0.0139862 0)
(0 0.0125584 0)
(0 0.0126215 0)
(0 0.0137317 0)
(0 0.010774 0)
(0 0.00777748 0)
(0 0.00488309 0)
(0 0.00260274 0)
(0 0.00095753 0)
(0 0.000101495 0)
(0 0 0)
(0 0 0)
(0 0 0)
(0 0 0)
(0 0 0)
(0 0 0)
(0 0 0)
(0 0 0)
(0 0 0)
(0 0 0)
(0 0 0)
(0 0 0)
(0 0 0)
(0 0 0)
(0 0.000290382 0)
(0 0.00146964 0)
(0 0.00345299 0)
(0 0.00606737 0)
(0 0.00908866 0)
(0 0.0124118 0)
(0 0.0155132 0)
(0 0.014748 0)
(0 0.0162075 0)
(0 0.0152142 0)
(0 0.0165403 0)
(0 0.017561 0)
(0 0.0187835 0)
(0 0.0177482 0)
(0 0.0188182 0)
(0 0.0193725 0)
(0 0.0198492 0)
(0 0.0193718 0)
(0 0.0207187 0)
(0 0.020948 0)
(0 0.021133 0)
(0 0.0209058 0)
(0 0.0219328 0)
(0 0.0221162 0)
(0 0.0222353 0)
(0 0.0220556 0)
(0 0.0226515 0)
(0 0.0227852 0)
(0 0.0228458 0)
(0 0.0227112 0)
(0 0.0229665 0)
(0 0.0230645 0)
(0 0.0230785 0)
(0 0.0229833 0)
(0 0.023047 0)
(0 0.023126 0)
(0 0.0231247 0)
(0 0.0230451 0)
(0 0.0229665 0)
(0 0.0230645 0)
(0 0.0230452 0)
(0 0.0229435 0)
(0 0.0226515 0)
(0 0.0227852 0)
(0 0.0227343 0)
(0 0.0225797 0)
(0 0.0219328 0)
(0 0.0221162 0)
(0 0.0220126 0)
(0 0.0217992 0)
(0 0.0207187 0)
(0 0.020948 0)
(0 0.0211578 0)
(0 0.0207586 0)
(0 0.0203121 0)
(0 0.0188182 0)
(0 0.0193725 0)
(0 0.0198539 0)
(0 0.0187835 0)
(0 0.0177482 0)
(0 0.0165403 0)
(0 0.0175209 0)
(0 0.016197 0)
(0 0.0152142 0)
(0 0.0147656 0)
(0 0.0155592 0)
(0 0.0123806 0)
(0 0.0091792 0)
(0 0.00613099 0)
(0 0.00349299 0)
(0 0.00149061 0)
(0 0.000297545 0)
(0 0 0)
(0 0 0)
(0 0 0)
(0 0 0)
(0 0 0)
(0 0 0)
(0 0 0)
(0 0 0)
(0 0 0)
(0 0 0)
(0 0 0)
(0 0 0)
(0 0 0)
(0 0 0)
(0 0.000447761 0)
(0 0.0018257 0)
(0 0.00401766 0)
(0 0.00683855 0)
(0 0.0100508 0)
(0 0.0133845 0)
(0 0.0165605 0)
(0 0.016167 0)
(0 0.017615 0)
(0 0.0169428 0)
(0 0.0182536 0)
(0 0.0189341 0)
(0 0.0200985 0)
(0 0.0195361 0)
(0 0.0205961 0)
(0 0.0208579 0)
(0 0.0213141 0)
(0 0.0210583 0)
(0 0.0221568 0)
(0 0.0222777 0)
(0 0.0224142 0)
(0 0.0222971 0)
(0 0.0229986 0)
(0 0.023057 0)
(0 0.0231058 0)
(0 0.0230543 0)
(0 0.0232002 0)
(0 0.0232002 0)
(0 0.0232002 0)
(0 0.0232002 0)
(0 0.0232002 0)
(0 0.0232002 0)
(0 0.0232002 0)
(0 0.0232002 0)
(0 0.0232002 0)
(0 0.0232002 0)
(0 0.0232002 0)
(0 0.0232002 0)
(0 0.0232002 0)
(0 0.0232002 0)
(0 0.0232002 0)
(0 0.0232002 0)
(0 0.0232002 0)
(0 0.0232002 0)
(0 0.0232002 0)
(0 0.0232002 0)
(0 0.0229986 0)
(0 0.023057 0)
(0 0.0229927 0)
(0 0.0229318 0)
(0 0.0221568 0)
(0 0.0222777 0)
(0 0.0223811 0)
(0 0.0220655 0)
(0 0.0218395 0)
(0 0.0205841 0)
(0 0.0208883 0)
(0 0.0211206 0)
(0 0.0200706 0)
(0 0.0195535 0)
(0 0.0183576 0)
(0 0.0189105 0)
(0 0.0175963 0)
(0 0.0170177 0)
(0 0.0161533 0)
(0 0.0165688 0)
(0 0.013379 0)
(0 0.0100348 0)
(0 0.00681661 0)
(0 0.00399478 0)
(0 0.00180677 0)
(0 0.000437012 0)
(0 0 0)
(0 0 0)
(0 0 0)
(0 0 0)
(0 0 0)
(0 0 0)
(0 0 0)
(0 0 0)
(0 0 0)
(0 0 0)
(0 0 0)
(0 0 0)
(0 0 0)
(0 0 0)
(0 0.000474727 0)
(0 0.00188406 0)
(0 0.00410966 0)
(0 0.00696451 0)
(0 0.0102087 0)
(0 0.0135698 0)
(0 0.0167652 0)
(0 0.0167711 0)
(0 0.0182205 0)
(0 0.0180057 0)
(0 0.019315 0)
(0 0.0195301 0)
(0 0.0206723 0)
(0 0.0204619 0)
(0 0.0214602 0)
(0 0.0215567 0)
(0 0.0219569 0)
(0 0.0218699 0)
(0 0.0227734 0)
(0 0.0228106 0)
(0 0.0229094 0)
(0 0.022875 0)
(0 0.0232002 0)
(0 0.0232002 0)
(0 0.0232002 0)
(0 0.0232002 0)
(0 0.0232002 0)
(0 0.0232002 0)
(0 0.0232002 0)
(0 0.0232002 0)
(0 0.0232002 0)
(0 0.0232002 0)
(0 0.0232002 0)
(0 0.0232002 0)
(0 0.0232002 0)
(0 0.0232002 0)
(0 0.0232002 0)
(0 0.0232002 0)
(0 0.0232002 0)
(0 0.0231993 0)
(0 0.0231959 0)
(0 0.0227734 0)
(0 0.0228106 0)
(0 0.0228351 0)
(0 0.0226031 0)
(0 0.0225213 0)
(0 0.0214589 0)
(0 0.021558 0)
(0 0.021623 0)
(0 0.0206723 0)
(0 0.0204917 0)
(0 0.0193381 0)
(0 0.0194809 0)
(0 0.018164 0)
(0 0.0180214 0)
(0 0.0167085 0)
(0 0.0167277 0)
(0 0.013528 0)
(0 0.0101664 0)
(0 0.00692516 0)
(0 0.00407674 0)
(0 0.00186045 0)
(0 0.000462494 0)
(0 0 0)
(0 0 0)
(0 0 0)
(0 0 0)
(0 0 0)
(0 0 0)
(0 0 0)
(0 0 0)
(0 0 0)
(0 0 0)
(0 0 0)
(0 0 0)
(0 0 0)
(0 0 0)
(0 0.000387962 0)
(0 0.00169555 0)
(0 0.0038146 0)
(0 0.00656435 0)
(0 0.009712 0)
(0 0.0129929 0)
(0 0.0161339 0)
(0 0.0165872 0)
(0 0.0180342 0)
(0 0.0182158 0)
(0 0.0195266 0)
(0 0.0193449 0)
(0 0.0204924 0)
(0 0.0206701 0)
(0 0.0216221 0)
(0 0.0215712 0)
(0 0.0219713 0)
(0 0.0220198 0)
(0 0.0228758 0)
(0 0.0228637 0)
(0 0.0229563 0)
(0 0.0229673 0)
(0 0.0232002 0)
(0 0.0232002 0)
(0 0.0232002 0)
(0 0.0232002 0)
(0 0.0232002 0)
(0 0.0232002 0)
(0 0.0232002 0)
(0 0.0232002 0)
(0 0.0232002 0)
(0 0.0232002 0)
(0 0.0232002 0)
(0 0.0232002 0)
(0 0.0232002 0)
(0 0.0232002 0)
(0 0.0232002 0)
(0 0.0232002 0)
(0 0.0228758 0)
(0 0.0228538 0)
(0 0.0228418 0)
(0 0.0226103 0)
(0 0.0226367 0)
(0 0.021602 0)
(0 0.0215695 0)
(0 0.0214711 0)
(0 0.0205065 0)
(0 0.0206448 0)
(0 0.0194966 0)
(0 0.0193551 0)
(0 0.0180404 0)
(0 0.0181816 0)
(0 0.0165892 0)
(0 0.0161749 0)
(0 0.013023 0)
(0 0.00973167 0)
(0 0.00657518 0)
(0 0.00381891 0)
(0 0.00169597 0)
(0 0.000387115 0)
(0 0 0)
(0 0 0)
(0 0 0)
(0 0 0)
(0 0 0)
(0 0 0)
(0 0 0)
(0 0 0)
(0 0 0)
(0 0 0)
(0 0 0)
(0 0 0)
(0 0 0)
(0 0 0)
(0 0.000196225 0)
(0 0.00123253 0)
(0 0.00306566 0)
(0 0.00553101 0)
(0 0.00859916 0)
(0 0.0117365 0)
(0 0.0147968 0)
(0 0.0156083 0)
(0 0.017059 0)
(0 0.0175704 0)
(0 0.0189643 0)
(0 0.0183902 0)
(0 0.0195766 0)
(0 0.0201468 0)
(0 0.021151 0)
(0 0.0209103 0)
(0 0.0213468 0)
(0 0.0215805 0)
(0 0.0225606 0)
(0 0.0224921 0)
(0 0.0226166 0)
(0 0.0226897 0)
(0 0.0231722 0)
(0 0.0231484 0)
(0 0.0231768 0)
(0 0.0231915 0)
(0 0.0232002 0)
(0 0.0232002 0)
(0 0.0232002 0)
(0 0.0232002 0)
(0 0.0232002 0)
(0 0.0232002 0)
(0 0.0232002 0)
(0 0.0232002 0)
(0 0.0231722 0)
(0 0.0231449 0)
(0 0.0231072 0)
(0 0.0231409 0)
(0 0.0225606 0)
(0 0.0224921 0)
(0 0.022399 0)
(0 0.022104 0)
(0 0.0222862 0)
(0 0.021151 0)
(0 0.0209103 0)
(0 0.020637 0)
(0 0.0195766 0)
(0 0.0201468 0)
(0 0.018929 0)
(0 0.0183902 0)
(0 0.017059 0)
(0 0.0176165 0)
(0 0.0156083 0)
(0 0.0147968 0)
(0 0.0117365 0)
(0 0.00848834 0)
(0 0.00558538 0)
(0 0.00310132 0)
(0 0.00125205 0)
(0 0.00020282 0)
(0 0 0)
(0 0 0)
(0 0 0)
(0 0 0)
(0 0 0)
(0 0 0)
(0 0 0)
(0 0 0)
(0 0 0)
(0 0 0)
(0 0 0)
(0 0 0)
(0 0 0)
(0 0 0)
(0 2.428e-05 0)
(0 0.000720746 0)
(0 0.00219475 0)
(0 0.00431578 0)
(0 0.00688992 0)
(0 0.00969126 0)
(0 0.0126308 0)
(0 0.0137454 0)
(0 0.0152401 0)
(0 0.0162202 0)
(0 0.0176047 0)
(0 0.0165487 0)
(0 0.0178592 0)
(0 0.0188088 0)
(0 0.0199151 0)
(0 0.0194715 0)
(0 0.0199602 0)
(0 0.0204 0)
(0 0.0215873 0)
(0 0.0213898 0)
(0 0.0215694 0)
(0 0.0217335 0)
(0 0.0226367 0)
(0 0.0225067 0)
(0 0.0226016 0)
(0 0.0227265 0)
(0 0.0231059 0)
(0 0.0230332 0)
(0 0.0230651 0)
(0 0.0231315 0)
(0 0.0232002 0)
(0 0.0231873 0)
(0 0.0231924 0)
(0 0.0232002 0)
(0 0.0232002 0)
(0 0.0232002 0)
(0 0.0232002 0)
(0 0.0232002 0)
(0 0.0232002 0)
(0 0.0232002 0)
(0 0.0231873 0)
(0 0.0231802 0)
(0 0.0231994 0)
(0 0.0232 0)
(0 0.0231059 0)
(0 0.0230332 0)
(0 0.0229938 0)
(0 0.0230729 0)
(0 0.0226367 0)
(0 0.0225067 0)
(0 0.0224011 0)
(0 0.0225357 0)
(0 0.0216033 0)
(0 0.0214219 0)
(0 0.021204 0)
(0 0.0208436 0)
(0 0.0212354 0)
(0 0.0198604 0)
(0 0.0194489 0)
(0 0.0189683 0)
(0 0.0178346 0)
(0 0.0188088 0)
(0 0.0176047 0)
(0 0.0165487 0)
(0 0.0152401 0)
(0 0.0162202 0)
(0 0.0137454 0)
(0 0.0126308 0)
(0 0.00969126 0)
(0 0.00688992 0)
(0 0.00431578 0)
(0 0.00219475 0)
(0 0.000672312 0)
(0 2.91647e-05 0)
(0 0 0)
(0 0 0)
(0 0 0)
(0 0 0)
(0 0 0)
(0 0 0)
(0 0 0)
(0 0 0)
(0 0 0)
(0 0 0)
(0 0 0)
(0 0 0)
(0 0 0)
(0 0 0)
(0 0 0)
(0 0.000221537 0)
(0 0.00116742 0)
(0 0.00274667 0)
(0 0.00479456 0)
(0 0.00735328 0)
(0 0.00999885 0)
(0 0.0112469 0)
(0 0.0127195 0)
(0 0.0139789 0)
(0 0.0153441 0)
(0 0.0140453 0)
(0 0.0152849 0)
(0 0.0166274 0)
(0 0.0177892 0)
(0 0.0164165 0)
(0 0.0173638 0)
(0 0.0181504 0)
(0 0.0188116 0)
(0 0.0183188 0)
(0 0.0196907 0)
(0 0.0190033 0)
(0 0.0194282 0)
(0 0.0200795 0)
(0 0.0210527 0)
(0 0.0204633 0)
(0 0.020699 0)
(0 0.0213099 0)
(0 0.0219151 0)
(0 0.0213928 0)
(0 0.0215462 0)
(0 0.0220598 0)
(0 0.0223623 0)
(0 0.0218804 0)
(0 0.0219654 0)
(0 0.0224216 0)
(0 0.0225009 0)
(0 0.0220558 0)
(0 0.0220328 0)
(0 0.0224827 0)
(0 0.0223623 0)
(0 0.0218804 0)
(0 0.0217597 0)
(0 0.0222694 0)
(0 0.0219151 0)
(0 0.0213928 0)
(0 0.021201 0)
(0 0.0217326 0)
(0 0.0210527 0)
(0 0.0204633 0)
(0 0.0201586 0)
(0 0.0207544 0)
(0 0.0196907 0)
(0 0.0190033 0)
(0 0.0186043 0)
(0 0.019266 0)
(0 0.0177892 0)
(0 0.0164165 0)
(0 0.0152849 0)
(0 0.0166274 0)
(0 0.0153441 0)
(0 0.0140453 0)
(0 0.0127195 0)
(0 0.0139789 0)
(0 0.0112469 0)
(0 0.00999885 0)
(0 0.00735328 0)
(0 0.00479456 0)
(0 0.00274667 0)
(0 0.00116742 0)
(0 0.000221537 0)
(0 0 0)
(0 0 0)
(0 0 0)
(0 0 0)
(0 0 0)
(0 0 0)
(0 0 0)
(0 0 0)
(0 0 0)
(0 0 0)
(0 0 0)
(0 0 0)
(0 0 0)
(0 0 0)
(0 0 0)
(0 0 0)
(0 0 0)
(0 0.000333846 0)
(0 0.00137853 0)
(0 0.00295518 0)
(0 0.00491053 0)
(0 0.00705229 0)
(0 0.00916653 0)
(0 0.0108072 0)
(0 0.0125519 0)
(0 0.0113001 0)
(0 0.0119814 0)
(0 0.0137301 0)
(0 0.0147693 0)
(0 0.0130815 0)
(0 0.0140878 0)
(0 0.0158299 0)
(0 0.0167667 0)
(0 0.0158998 0)
(0 0.0162344 0)
(0 0.0171845 0)
(0 0.0182506 0)
(0 0.0173983 0)
(0 0.0177146 0)
(0 0.0185694 0)
(0 0.0192957 0)
(0 0.0184384 0)
(0 0.0185798 0)
(0 0.0194607 0)
(0 0.0199224 0)
(0 0.0190992 0)
(0 0.0191953 0)
(0 0.0200178 0)
(0 0.0201299 0)
(0 0.0193118 0)
(0 0.0192722 0)
(0 0.0200939 0)
(0 0.0199224 0)
(0 0.0190992 0)
(0 0.0189645 0)
(0 0.0197886 0)
(0 0.0192957 0)
(0 0.0184384 0)
(0 0.0182351 0)
(0 0.0190921 0)
(0 0.0182506 0)
(0 0.0173983 0)
(0 0.0170455 0)
(0 0.0178943 0)
(0 0.0167667 0)
(0 0.0158998 0)
(0 0.0148979 0)
(0 0.0140878 0)
(0 0.0158299 0)
(0 0.0147693 0)
(0 0.0130815 0)
(0 0.0119814 0)
(0 0.0137301 0)
(0 0.0125519 0)
(0 0.0108072 0)
(0 0.00916653 0)
(0 0.00705229 0)
(0 0.0113001 0)
(0 0.00491053 0)
(0 0.00295518 0)
(0 0.00137853 0)
(0 0.000333846 0)
(0 0 0)
(0 0 0)
(0 0 0)
(0 0 0)
(0 0 0)
(0 0 0)
(0 0 0)
(0 0 0)
(0 0 0)
(0 0 0)
(0 0 0)
(0 0 0)
(0 0 0)
(0 0 0)
(0 0 0)
(0 0 0)
(0 0 0)
(0 0 0)
(0 4.23359e-06 0)
(0 0.000379261 0)
(0 0.00128519 0)
(0 0.00251851 0)
(0 0.00412226 0)
(0 0.00583265 0)
(0 0.00748636 0)
(0 0.00845175 0)
(0 0.0102437 0)
(0 0.0112596 0)
(0 0.00926552 0)
(0 0.0101836 0)
(0 0.0120967 0)
(0 0.0130145 0)
(0 0.0120282 0)
(0 0.0124319 0)
(0 0.0134342 0)
(0 0.0145161 0)
(0 0.0134754 0)
(0 0.0137625 0)
(0 0.0148131 0)
(0 0.015486 0)
(0 0.0144439 0)
(0 0.0146759 0)
(0 0.0157248 0)
(0 0.0162251 0)
(0 0.0151629 0)
(0 0.0152538 0)
(0 0.0163184 0)
(0 0.0164413 0)
(0 0.0153767 0)
(0 0.0153267 0)
(0 0.0163932 0)
(0 0.0162251 0)
(0 0.0151629 0)
(0 0.015036 0)
(0 0.0160949 0)
(0 0.015486 0)
(0 0.0144439 0)
(0 0.0141782 0)
(0 0.0153052 0)
(0 0.0145161 0)
(0 0.0134754 0)
(0 0.013157 0)
(0 0.0141865 0)
(0 0.0130145 0)
(0 0.0120282 0)
(0 0.0110241 0)
(0 0.0101836 0)
(0 0.0120967 0)
(0 0.0112596 0)
(0 0.00926552 0)
(0 0.00845175 0)
(0 0.0102437 0)
(0 0.00748636 0)
(0 0.00583265 0)
(0 0.00412226 0)
(0 0.00251851 0)
(0 0.00128519 0)
(0 0.000379261 0)
(0 4.23359e-06 0)
(0 0 0)
(0 0 0)
(0 0 0)
(0 0 0)
(0 0 0)
(0 0 0)
(0 0 0)
(0 0 0)
(0 0 0)
(0 0 0)
(0 0 0)
(0 0 0)
(0 0 0)
(0 0 0)
(0 0 0)
(0 0 0)
(0 0 0)
(0 0 0)
(0 0 0)
(0 0 0)
(0 0.000199175 0)
(0 0.000829555 0)
(0 0.00168052 0)
(0 0.00282968 0)
(0 0.0041841 0)
(0 0.00493374 0)
(0 0.00657419 0)
(0 0.00743512 0)
(0 0.00566837 0)
(0 0.00636952 0)
(0 0.00824974 0)
(0 0.00900022 0)
(0 0.00799982 0)
(0 0.00832418 0)
(0 0.00934638 0)
(0 0.0102477 0)
(0 0.00917085 0)
(0 0.00932536 0)
(0 0.0103869 0)
(0 0.0111706 0)
(0 0.0100654 0)
(0 0.010259 0)
(0 0.0113753 0)
(0 0.0118065 0)
(0 0.0106674 0)
(0 0.010744 0)
(0 0.0118873 0)
(0 0.012005 0)
(0 0.0108583 0)
(0 0.0108055 0)
(0 0.0119521 0)
(0 0.0118065 0)
(0 0.0106674 0)
(0 0.0105607 0)
(0 0.0116939 0)
(0 0.0111706 0)
(0 0.0100654 0)
(0 0.00984453 0)
(0 0.010937 0)
(0 0.0102477 0)
(0 0.00917085 0)
(0 0.00891124 0)
(0 0.00997166 0)
(0 0.00900022 0)
(0 0.00799982 0)
(0 0.00702017 0)
(0 0.00636952 0)
(0 0.00824974 0)
(0 0.00743512 0)
(0 0.00566837 0)
(0 0.00493374 0)
(0 0.00657419 0)
(0 0.0041841 0)
(0 0.00282968 0)
(0 0.00168052 0)
(0 0.000829555 0)
(0 0.000199175 0)
(0 0 0)
(0 0 0)
(0 0 0)
(0 0 0)
(0 0 0)
(0 0 0)
(0 0 0)
(0 0 0)
(0 0 0)
(0 0 0)
(0 0 0)
(0 0 0)
(0 0 0)
(0 0 0)
(0 0 0)
(0 0 0)
(0 0 0)
(0 0 0)
(0 0 0)
(0 0 0)
(0 0 0)
(0 0 0)
(0 0 0)
(0 1.69613e-05 0)
(0 0.000287704 0)
(0 0.00080294 0)
(0 0.00168439 0)
(0 0.00214297 0)
(0 0.0034351 0)
(0 0.00403682 0)
(0 0.00260862 0)
(0 0.00306559 0)
(0 0.00461766 0)
(0 0.00516167 0)
(0 0.00430147 0)
(0 0.0045303 0)
(0 0.00541527 0)
(0 0.00602608 0)
(0 0.00510005 0)
(0 0.00531475 0)
(0 0.00626199 0)
(0 0.00685647 0)
(0 0.00585728 0)
(0 0.00600039 0)
(0 0.00701292 0)
(0 0.00734425 0)
(0 0.00630395 0)
(0 0.0063611 0)
(0 0.00740656 0)
(0 0.00750608 0)
(0 0.00645439 0)
(0 0.00640705 0)
(0 0.00745664 0)
(0 0.00734425 0)
(0 0.00630395 0)
(0 0.00622443 0)
(0 0.00725752 0)
(0 0.00685647 0)
(0 0.00585728 0)
(0 0.00569459 0)
(0 0.00667844 0)
(0 0.00602608 0)
(0 0.00510005 0)
(0 0.00487069 0)
(0 0.0057736 0)
(0 0.00516167 0)
(0 0.00430147 0)
(0 0.00349915 0)
(0 0.00306559 0)
(0 0.00461766 0)
(0 0.00403682 0)
(0 0.00260862 0)
(0 0.00214297 0)
(0 0.0034351 0)
(0 0.00168439 0)
(0 0.00080294 0)
(0 0.000287704 0)
(0 1.69613e-05 0)
(0 0 0)
(0 0 0)
(0 0 0)
(0 0 0)
(0 0 0)
(0 0 0)
(0 0 0)
(0 0 0)
(0 0 0)
(0 0 0)
(0 0 0)
(0 0 0)
(0 0 0)
(0 0 0)
(0 0 0)
(0 0 0)
(0 0 0)
(0 0 0)
(0 0 0)
(0 0 0)
(0 0 0)
(0 0 0)
(0 0 0)
(0 0 0)
(0 0 0)
(0 0 0)
(0 3.07458e-06 0)
(0 0.000230991 0)
(0 0.000402345 0)
(0 0.00111566 0)
(0 0.00144549 0)
(0 0.000599943 0)
(0 0.000811254 0)
(0 0.00177824 0)
(0 0.00210056 0)
(0 0.00144594 0)
(0 0.00159396 0)
(0 0.00217992 0)
(0 0.00267658 0)
(0 0.00201435 0)
(0 0.00214196 0)
(0 0.00282599 0)
(0 0.00320807 0)
(0 0.00247029 0)
(0 0.00255821 0)
(0 0.00330987 0)
(0 0.00352708 0)
(0 0.00274638 0)
(0 0.00278206 0)
(0 0.00356817 0)
(0 0.00363963 0)
(0 0.0028454 0)
(0 0.00281079 0)
(0 0.00360125 0)
(0 0.00352708 0)
(0 0.00274638 0)
(0 0.00269687 0)
(0 0.00347001 0)
(0 0.00320807 0)
(0 0.00247029 0)
(0 0.00237099 0)
(0 0.00309284 0)
(0 0.00267658 0)
(0 0.00201435 0)
(0 0.0018796 0)
(0 0.00251817 0)
(0 0.00210056 0)
(0 0.00144594 0)
(0 0.000972331 0)
(0 0.000811254 0)
(0 0.00177824 0)
(0 0.00144549 0)
(0 0.000599943 0)
(0 0.000402345 0)
(0 0.00111566 0)
(0 0.000230991 0)
(0 3.07458e-06 0)
(0 0 0)
(0 0 0)
(0 0 0)
(0 0 0)
(0 0 0)
(0 0 0)
(0 0 0)
(0 0 0)
(0 0 0)
(0 0 0)
(0 0 0)
(0 0 0)
(0 0 0)
(0 0 0)
(0 0 0)
(0 0 0)
(0 0 0)
(0 0 0)
(0 0 0)
(0 0 0)
(0 0 0)
(0 0 0)
(0 0 0)
(0 0 0)
(0 0 0)
(0 0 0)
(0 0 0)
(0 0 0)
(0 0 0)
(0 0 0)
(0 0 0)
(0 0.000112917 0)
(0 4.08409e-05 0)
(0 0 0)
(0 0.000177562 0)
(0 0.00029664 0)
(0 9.08159e-06 0)
(0 3.96952e-05 0)
(0 0.000427482 0)
(0 0.000560063 0)
(0 8.37026e-05 0)
(0 0.000133279 0)
(0 0.000685339 0)
(0 0.000795453 0)
(0 0.000181592 0)
(0 0.000222971 0)
(0 0.000883908 0)
(0 0.00094571 0)
(0 0.000253042 0)
(0 0.000268831 0)
(0 0.00097747 0)
(0 0.00100288 0)
(0 0.00028232 0)
(0 0.000268831 0)
(0 0.00097747 0)
(0 0.00094571 0)
(0 0.000253042 0)
(0 0.000222971 0)
(0 0.000883908 0)
(0 0.000795453 0)
(0 0.000181592 0)
(0 0.000133279 0)
(0 0.000685339 0)
(0 0.000560063 0)
(0 8.37026e-05 0)
(0 3.96952e-05 0)
(0 0.000427482 0)
(0 0.00029664 0)
(0 9.08159e-06 0)
(0 0 0)
(0 0.000177562 0)
(0 0.000112917 0)
(0 0 0)
(0 0 0)
(0 0 0)
(0 4.08409e-05 0)
(0 0 0)
(0 0 0)
(0 0 0)
(0 0 0)
(0 0 0)
(0 0 0)
(0 0 0)
(0 0 0)
(0 0 0)
(0 0 0)
(0 0 0)
(0 0 0)
(0 0 0)
(0 0 0)
(0 0 0)
(0 0 0)
(0 0 0)
(0 0 0)
(0 0 0)
(0 0 0)
(0 0 0)
(0 0 0)
(0 0 0)
(0 0 0)
(0 0 0)
(0 0 0)
(0 0 0)
(0 0 0)
(0 0 0)
(0 0 0)
(0 0 0)
(0 0 0)
(0 0 0)
(0 0 0)
(0 0 0)
(0 0 0)
(0 0 0)
(0 0 0)
(0 0 0)
(0 0 0)
(0 8.16155e-07 0)
(0 0 0)
(0 0 0)
(0 3.14083e-06 0)
(0 1.86875e-06 0)
(0 0 0)
(0 8.16155e-07 0)
(0 1.86875e-06 0)
(0 0 0)
(0 0 0)
(0 0 0)
(0 0 0)
(0 0 0)
(0 0 0)
(0 0 0)
(0 0 0)
(0 0 0)
(0 0 0)
(0 0 0)
(0 0 0)
(0 0 0)
(0 0 0)
(0 0 0)
(0 0 0)
(0 0 0)
(0 0 0)
(0 0 0)
(0 0 0)
(0 0 0)
(0 0 0)
(0 0 0)
(0 0 0)
(0 0 0)
(0 0 0)
(0 0 0)
(0 0 0)
(0 0 0)
(0 0 0)
(0 0 0)
(0 0 0)
(0 0 0)
(0 0 0)
(0 0 0)
(0 0 0)
(0 0 0)
(0 0 0)
(0 0 0)
(0 0 0)
(0 0 0)
(0 0 0)
(0 0 0)
(0 0 0)
(0 0 0)
(0 0 0)
(0 0 0)
(0 0 0)
(0 0 0)
(0 0 0)
(0 0 0)
(0 0 0)
(0 0 0)
(0 0 0)
(0 0 0)
(0 0 0)
(0 0 0)
(0 0 0)
(0 0 0)
(0 0 0)
(0 0 0)
(0 0 0)
(0 0 0)
(0 0 0)
(0 0 0)
(0 0 0)
(0 0 0)
(0 0 0)
(0 0 0)
(0 0 0)
(0 0 0)
(0 0 0)
(0 0 0)
(0 0 0)
(0 0 0)
(0 0 0)
(0 0 0)
(0 0 0)
(0 0 0)
(0 0 0)
(0 0 0)
(0 0 0)
(0 0 0)
(0 0 0)
(0 0 0)
(0 0 0)
(0 0 0)
(0 0 0)
(0 0 0)
(0 0 0)
(0 0 0)
(0 0 0)
(0 0 0)
(0 0 0)
(0 0 0)
(0 0 0)
(0 0 0)
(0 0 0)
(0 0 0)
(0 0 0)
(0 0 0)
(0 0 0)
(0 0 0)
(0 0 0)
(0 0 0)
(0 0 0)
(0 0 0)
(0 0 0)
(0 0 0)
(0 0 0)
(0 0 0)
(0 0 0)
(0 0 0)
(0 0 0)
(0 0 0)
(0 0 0)
(0 0 0)
(0 0 0)
(0 0 0)
(0 0 0)
(0 0 0)
(0 0 0)
(0 0 0)
(0 0 0)
(0 0 0)
(0 0 0)
(0 0 0)
(0 0 0)
(0 0 0)
(0 0 0)
(0 0 0)
(0 0 0)
(0 0 0)
(0 0 0)
(0 0 0)
(0 0 0)
(0 0 0)
(0 0 0)
(0 0 0)
(0 0 0)
(0 0 0)
(0 0 0)
(0 0 0)
(0 0 0)
(0 0 0)
(0 0 0)
(0 0 0)
(0 0 0)
(0 0 0)
(0 0 0)
(0 0 0)
(0 0 0)
(0 0 0)
(0 0 0)
(0 0 0)
(0 0 0)
(0 0 0)
(0 0 0)
(0 0 0)
(0 0 0)
(0 0 0)
(0 0 0)
(0 0 0)
(0 0 0)
(0 0 0)
(0 0 0)
(0 0 0)
(0 0 0)
(0 0 0)
(0 0 0)
(0 0 0)
(0 0 0)
(0 0 0)
(0 0 0)
(0 0 0)
(0 0 0)
(0 0 0)
(0 0 0)
(0 0 0)
(0 0 0)
(0 0 0)
(0 0 0)
(0 0 0)
(0 0 0)
(0 0 0)
(0 0 0)
(0 0 0)
(0 0 0)
(0 0 0)
(0 0 0)
(0 0 0)
(0 0 0)
(0 0 0)
(0 0 0)
(0 0 0)
(0 0 0)
(0 0 0)
(0 0 0)
(0 0 0)
(0 0 0)
(0 0 0)
(0 0 0)
(0 0 0)
(0 0 0)
(0 0 0)
(0 0 0)
(0 0 0)
(0 0 0)
(0 0 0)
(0 0 0)
(0 0 0)
(0 0 0)
(0 0 0)
(0 0 0)
(0 0 0)
(0 0 0)
(0 0 0)
(0 0 0)
(0 0 0)
(0 0 0)
(0 0 0)
(0 0 0)
(0 0 0)
(0 0 0)
(0 0 0)
(0 0 0)
(0 0 0)
(0 0 0)
(0 0 0)
(0 0 0)
(0 0 0)
(0 0 0)
(0 0 0)
(0 0 0)
(0 0 0)
(0 0 0)
(0 0 0)
(0 0 0)
(0 0 0)
(0 0 0)
(0 0 0)
(0 0 0)
(0 0 0)
(0 0 0)
(0 0 0)
(0 0 0)
(0 0 0)
(0 0 0)
(0 0 0)
(0 0 0)
(0 0 0)
(0 0 0)
(0 0 0)
(0 0 0)
(0 0 0)
(0 0 0)
(0 0 0)
(0 0 0)
(0 0 0)
(0 0 0)
(0 0 0)
(0 0 0)
(0 0 0)
(0 0 0)
(0 0 0)
(0 0 0)
(0 0 0)
(0 0 0)
(0 0 0)
(0 0 0)
(0 0 0)
(0 0 0)
(0 0 0)
(0 0 0)
(0 0 0)
(0 0 0)
(0 0 0)
(0 0 0)
(0 0 0)
(0 0 0)
(0 0 0)
(0 0 0)
(0 0 0)
(0 0 0)
(0 0 0)
(0 0 0)
(0 0 0)
(0 0 0)
(0 0 0)
(0 0 0)
(0 0 0)
(0 0 0)
(0 0 0)
(0 0 0)
(0 0 0)
(0 0 0)
(0 0 0)
(0 0 0)
(0 0 0)
(0 0 0)
(0 0 0)
(0 0 0)
(0 0 0)
(0 0 0)
(0 0 0)
(0 0 0)
(0 0 0)
(0 0 0)
(0 0 0)
(0 0 0)
(0 0 0)
(0 0 0)
(0 0 0)
(0 0 0)
(0 0 0)
(0 0 0)
(0 0 0)
(0 0 0)
(0 0 0)
(0 0 0)
(0 0 0)
(0 0 0)
(0 0 0)
(0 0 0)
(0 0 0)
(0 0 0)
(0 0 0)
(0 0 0)
(0 0 0)
(0 0 0)
(0 0 0)
(0 0 0)
(0 0 0)
(0 0 0)
(0 0 0)
(0 0 0)
(0 0 0)
(0 0 0)
(0 0 0)
(0 0 0)
(0 0 0)
(0 0 0)
(0 0 0)
(0 0 0)
(0 0 0)
(0 0 0)
(0 0 0)
(0 0 0)
(0 0 0)
(0 0 0)
(0 0 0)
(0 0 0)
(0 0 0)
(0 0 0)
(0 0 0)
(0 0 0)
(0 0 0)
(0 0 0)
(0 0 0)
(0 0 0)
(0 0 0)
(0 0 0)
(0 0 0)
(0 0 0)
(0 0 0)
(0 0 0)
(0 0 0)
(0 0 0)
(0 0 0)
(0 0 0)
(0 0 0)
(0 0 0)
(0 0 0)
(0 0 0)
(0 0 0)
(0 0 0)
(0 0 0)
(0 0 0)
(0 0 0)
(0 0 0)
(0 0 0)
(0 0 0)
(0 0 0)
(0 0 0)
(0 0 0)
(0 0 0)
(0 0 0)
(0 0 0)
(0 0 0)
(0 0 0)
(0 0 0)
(0 0 0)
(0 0 0)
(0 0 0)
(0 0 0)
(0 0 0)
(0 0 0)
(0 0 0)
(0 0 0)
(0 0 0)
(0 0 0)
(0 0 0)
(0 0 0)
(0 0 0)
(0 0 0)
(0 0 0)
(0 0 0)
(0 0 0)
(0 0 0)
(0 0 0)
(0 0 0)
(0 0 0)
(0 0 0)
(0 0 0)
(0 0 0)
(0 0 0)
(0 0 0)
(0 0 0)
(0 0 0)
(0 0 0)
(0 0 0)
(0 0 0)
(0 0 0)
(0 0 0)
(0 0 0)
(0 0 0)
(0 0 0)
(0 0 0)
(0 0 0)
(0 0 0)
(0 0 0)
(0 0 0)
(0 0 0)
(0 0 0)
(0 0 0)
(0 0 0)
(0 0 0)
(0 0 0)
(0 0 0)
(0 0 0)
(0 0 0)
(0 0 0)
(0 0 0)
(0 0 0)
(0 0 0)
(0 0 0)
(0 0 0)
(0 0 0)
(0 0 0)
(0 0 0)
(0 0 0)
(0 0 0)
(0 0 0)
(0 0 0)
(0 0 0)
(0 0 0)
(0 0 0)
(0 0 0)
(0 0 0)
(0 0 0)
(0 0 0)
(0 0 0)
(0 0 0)
(0 0 0)
(0 0 0)
(0 0 0)
(0 0 0)
(0 0 0)
(0 0 0)
(0 0 0)
(0 0 0)
(0 0 0)
(0 0 0)
(0 0 0)
(0 0 0)
(0 0 0)
(0 0 0)
(0 0 0)
(0 0 0)
(0 0 0)
(0 0 0)
(0 0 0)
(0 0 0)
(0 0 0)
(0 0 0)
(0 0 0)
(0 0 0)
(0 0 0)
(0 0 0)
(0 0 0)
(0 0 0)
(0 0 0)
(0 0 0)
(0 0 0)
(0 0 0)
(0 0 0)
(0 0 0)
(0 0 0)
(0 0 0)
(0 0 0)
(0 0 0)
(0 0 0)
(0 0 0)
(0 0 0)
(0 0 0)
(0 0 0)
(0 0 0)
(0 0 0)
(0 0 0)
(0 0 0)
(0 0 0)
(0 0 0)
(0 0 0)
(0 0 0)
(0 0 0)
(0 0 0)
(0 0 0)
(0 0 0)
(0 0 0)
(0 0 0)
(0 0 0)
(0 0 0)
(0 0 0)
(0 0 0)
(0 0 0)
(0 0 0)
(0 0 0)
(0 0 0)
(0 0 0)
(0 0 0)
(0 0 0)
(0 0 0)
(0 0 0)
(0 0 0)
(0 0 0)
(0 0 0)
(0 0 0)
(0 0 0)
(0 0 0)
(0 0 0)
(0 0 0)
(0 0 0)
(0 0 0)
(0 0 0)
(0 0 0)
(0 0 0)
(0 0 0)
(0 0 0)
(0 0 0)
(0 0 0)
(0 0 0)
(0 0 0)
(0 0 0)
(0 0 0)
(0 0 0)
(0 0 0)
(0 0 0)
(0 0 0)
(0 0 0)
(0 0 0)
(0 0 0)
(0 0 0)
(0 0 0)
(0 0 0)
(0 0 0)
(0 0 0)
(0 0 0)
(0 0 0)
(0 0 0)
(0 0 0)
(0 0 0)
(0 0 0)
(0 0 0)
(0 0 0)
(0 0 0)
(0 0 0)
(0 0 0)
(0 0 0)
(0 0 0)
(0 0 0)
(0 0 0)
(0 0 0)
(0 0 0)
(0 0 0)
(0 0 0)
(0 0 0)
(0 0 0)
(0 0 0)
(0 0 0)
(0 0 0)
(0 0 0)
(0 0 0)
(0 0 0)
(0 0 0)
(0 0 0)
(0 0 0)
(0 0 0)
(0 0 0)
(0 0 0)
(0 0 0)
(0 0 0)
(0 0 0)
(0 0 0)
(0 0 0)
(0 0 0)
(0 0 0)
(0 0 0)
(0 0 0)
(0 0 0)
(0 0 0)
(0 0 0)
(0 0 0)
(0 0 0)
(0 0 0)
(0 0 0)
(0 0 0)
(0 0 0)
(0 0 0)
(0 0 0)
(0 0 0)
(0 0 0)
(0 0 0)
(0 0 0)
(0 0 0)
(0 0 0)
(0 0 0)
(0 0 0)
(0 0 0)
(0 0 0)
(0 0 0)
(0 0 0)
(0 0 0)
(0 0 0)
(0 0 0)
(0 0 0)
(0 0 0)
(0 0 0)
(0 0 0)
(0 0 0)
(0 0 0)
(0 0 0)
(0 0 0)
(0 0 0)
(0 0 0)
(0 0 0)
(0 0 0)
(0 0 0)
(0 0 0)
(0 0 0)
(0 0 0)
(0 0 0)
(0 0 0)
(0 0 0)
(0 0 0)
(0 0 0)
(0 0 0)
(0 0 0)
(0 0 0)
(0 0 0)
(0 0 0)
(0 0 0)
(0 0 0)
(0 0 0)
(0 0 0)
(0 0 0)
(0 0 0)
(0 0 0)
(0 0 0)
(0 0 0)
(0 0 0)
(0 0 0)
(0 0 0)
(0 0 0)
(0 0 0)
(0 0 0)
(0 0 0)
(0 0 0)
(0 0 0)
(0 0 0)
(0 0 0)
(0 0 0)
(0 0 0)
(0 0 0)
(0 0 0)
(0 0 0)
(0 0 0)
(0 0 0)
(0 0 0)
(0 0 0)
(0 0 0)
(0 0 0)
(0 0 0)
(0 0 0)
(0 0 0)
(0 0 0)
(0 0 0)
(0 0 0)
(0 0 0)
(0 0 0)
(0 0 0)
(0 0 0)
(0 0 0)
(0 0 0)
(0 0 0)
(0 0 0)
(0 0 0)
(0 0 0)
(0 0 0)
(0 0 0)
(0 0 0)
(0 0 0)
(0 0 0)
(0 0 0)
(0 0 0)
(0 0 0)
(0 0 0)
(0 0 0)
(0 0 0)
(0 0 0)
(0 0 0)
(0 0 0)
(0 0 0)
(0 0 0)
(0 0 0)
(0 0 0)
(0 0 0)
(0 0 0)
(0 0 0)
(0 0 0)
(0 0 0)
(0 0 0)
(0 0 0)
(0 0 0)
(0 0 0)
(0 0 0)
(0 0 0)
(0 0 0)
(0 0 0)
(0 0 0)
(0 0 0)
(0 0 0)
(0 0 0)
(0 0 0)
(0 0 0)
(0 0 0)
(0 0 0)
(0 0 0)
(0 0 0)
(0 0 0)
(0 0 0)
(0 0 0)
(0 0 0)
(0 0 0)
(0 0 0)
(0 0 0)
(0 0 0)
(0 0 0)
(0 0 0)
(0 0 0)
(0 0 0)
(0 0 0)
(0 0 0)
(0 0 0)
(0 0 0)
(0 0 0)
(0 0 0)
(0 0 0)
(0 0 0)
(0 0 0)
(0 0 0)
(0 0 0)
(0 0 0)
(0 0 0)
(0 0 0)
(0 0 0)
(0 0 0)
(0 0 0)
(0 0 0)
(0 0 0)
(0 0 0)
(0 0 0)
(0 0 0)
(0 0 0)
(0 0 0)
(0 0 0)
(0 0 0)
(0 0 0)
(0 0 0)
(0 0 0)
(0 0 0)
(0 0 0)
(0 0 0)
(0 0 0)
(0 0 0)
(0 0 0)
(0 0 0)
(0 0 0)
(0 0 0)
(0 0 0)
(0 0 0)
(0 0 0)
(0 0 0)
(0 0 0)
(0 0 0)
(0 0 0)
(0 0 0)
(0 0 0)
(0 0 0)
(0 0 0)
(0 0 0)
(0 0 0)
(0 0 0)
(0 0 0)
(0 0 0)
(0 0 0)
(0 0 0)
(0 0 0)
(0 0 0)
(0 0 0)
(0 0 0)
(0 0 0)
(0 0 0)
(0 0 0)
(0 0 0)
(0 0 0)
(0 0 0)
(0 0 0)
(0 0 0)
(0 0 0)
(0 0 0)
(0 0 0)
(0 0 0)
(0 0 0)
(0 0 0)
(0 0 0)
(0 0 0)
(0 0 0)
(0 0 0)
(0 0 0)
(0 0 0)
(0 0 0)
(0 0 0)
(0 0 0)
(0 0 0)
(0 0 0)
(0 0 0)
(0 0 0)
(0 0 0)
(0 0 0)
(0 0 0)
(0 0 0)
(0 0 0)
(0 0 0)
(0 0 0)
(0 0 0)
(0 0 0)
(0 0 0)
(0 0 0)
(0 0 0)
(0 0 0)
(0 0 0)
(0 0 0)
(0 0 0)
(0 0 0)
(0 0 0)
(0 0 0)
(0 0 0)
(0 0 0)
(0 0 0)
(0 0 0)
(0 0 0)
(0 0 0)
(0 0 0)
(0 0 0)
(0 0 0)
(0 0 0)
(0 0 0)
(0 0 0)
(0 0 0)
(0 0 0)
(0 0 0)
(0 0 0)
(0 0 0)
(0 0 0)
(0 0 0)
(0 0 0)
(0 0 0)
(0 0 0)
(0 0 0)
(0 0 0)
(0 0 0)
(0 0 0)
(0 0 0)
(0 0 0)
(0 0 0)
(0 0 0)
(0 0 0)
(0 0 0)
(0 0 0)
(0 0 0)
(0 0 0)
(0 0 0)
(0 0 0)
(0 0 0)
(0 0 0)
(0 0 0)
(0 0 0)
(0 0 0)
(0 0 0)
(0 0 0)
(0 0 0)
(0 0 0)
(0 0 0)
(0 0 0)
(0 0 0)
(0 0 0)
(0 0 0)
(0 0 0)
(0 0 0)
(0 0 0)
(0 0 0)
(0 0 0)
(0 0 0)
(0 0 0)