/*--------------------------------*- C++ -*----------------------------------*\
| =========                 |                                                 |
| \\      /  F ield         | OpenFOAM: The Open Source CFD Toolbox           |
|  \\    /   O peration     | Version:  v2106                                 |
|   \\  /    A nd           | Website:  www.openfoam.com                      |
|    \\/     M anipulation  |                                                 |
\*---------------------------------------------------------------------------*/
FoamFile
{
    version     2.0;
    format      ascii;
    arch        "LSB;label=32;scalar=64";
    class       pointVectorField;
    location    "0";
    object      pointDisplacement;
}
// * * * * * * * * * * * * * * * * * * * * * * * * * * * * * * * * * * * * * //

dimensions      [0 1 0 0 0 0 0];

internalField   nonuniform List<vector> 
24440
(
(0 0 0)
(0 0 0)
(0 0 0)
(0 0 0)
(0 0 0)
(0 0 0)
(0 0 0)
(0 0 0)
(0 0 0)
(0 0 0)
(0 0 0)
(0 0 0)
(0 0 0)
(0 0 0)
(0 0 0)
(0 0 0)
(0 0 0)
(0 0 0)
(0 0 0)
(0 0 0)
(0 0 0)
(0 0 0)
(0 0 0)
(0 0 0)
(0 0 0)
(0 0 0)
(0 0 0)
(0 0 0)
(0 0 0)
(0 0 0)
(0 0 0)
(0 0 0)
(0 0 0)
(0 0 0)
(0 0 0)
(0 0 0)
(0 0 0)
(0 0 0)
(0 0 0)
(0 0 0)
(0 0 0)
(0 0 0)
(0 0 0)
(0 0 0)
(0 0 0)
(0 0 0)
(0 0 0)
(0 0 0)
(0 0 0)
(0 0 0)
(0 0 0)
(0 0 0)
(0 0 0)
(0 0 0)
(0 0 0)
(0 0 0)
(0 0 0)
(0 0 0)
(0 0 0)
(0 0 0)
(0 0 0)
(0 0 0)
(0 0 0)
(0 0 0)
(0 0 0)
(0 0 0)
(0 0 0)
(0 0 0)
(0 0 0)
(0 0 0)
(0 0 0)
(0 0 0)
(0 0 0)
(0 0 0)
(0 0 0)
(0 0 0)
(0 0 0)
(0 0 0)
(0 0 0)
(0 0 0)
(0 0 0)
(0 0 0)
(0 0 0)
(0 0 0)
(0 0 0)
(0 0 0)
(0 0 0)
(0 0 0)
(0 0 0)
(0 0 0)
(0 0 0)
(0 0 0)
(0 0 0)
(0 0 0)
(0 0 0)
(0 0 0)
(0 0 0)
(0 0 0)
(0 1.75681e-06 0)
(0 1.10785e-05 0)
(0 3.04637e-05 0)
(0 4.6943e-05 0)
(0 5.32673e-05 0)
(0 4.6943e-05 0)
(0 3.04637e-05 0)
(0 1.10785e-05 0)
(0 1.75681e-06 0)
(0 0 0)
(0 0 0)
(0 0 0)
(0 0 0)
(0 0 0)
(0 0 0)
(0 0 0)
(0 0 0)
(0 0 0)
(0 0 0)
(0 0 0)
(0 0 0)
(0 0 0)
(0 0 0)
(0 0 0)
(0 0 0)
(0 0 0)
(0 0 0)
(0 0 0)
(0 0 0)
(0 0 0)
(0 0 0)
(0 0 0)
(0 0 0)
(0 0 0)
(0 0 0)
(0 0 0)
(0 0 0)
(0 0 0)
(0 2.94218e-06 0)
(0 3.89201e-05 0)
(0 0.000114539 0)
(0 0.000206335 0)
(0 0.000294317 0)
(0 0.000355653 0)
(0 0.000412672 0)
(0 0.000432734 0)
(0 0.000412672 0)
(0 0.000355653 0)
(0 0.000294317 0)
(0 0.000206335 0)
(0 0.000114539 0)
(0 3.89201e-05 0)
(0 2.94218e-06 0)
(0 0 0)
(0 0 0)
(0 0 0)
(0 0 0)
(0 0 0)
(0 0 0)
(0 0 0)
(0 0 0)
(0 0 0)
(0 0 0)
(0 0 0)
(0 0 0)
(0 0 0)
(0 0 0)
(0 0 0)
(0 0 0)
(0 0 0)
(0 0 0)
(0 0 0)
(0 0 0)
(0 0 0)
(0 0 0)
(0 0 0)
(0 0 0)
(0 1.2353e-06 0)
(0 5.11837e-05 0)
(0 0.000174552 0)
(0 0.000344215 0)
(0 0.000518967 0)
(0 0.000713926 0)
(0 0.000882777 0)
(0 0.00098735 0)
(0 0.00108734 0)
(0 0.0011219 0)
(0 0.00108734 0)
(0 0.00098735 0)
(0 0.000882777 0)
(0 0.000713926 0)
(0 0.000518967 0)
(0 0.000344215 0)
(0 0.000174552 0)
(0 5.11837e-05 0)
(0 1.2353e-06 0)
(0 0 0)
(0 0 0)
(0 0 0)
(0 0 0)
(0 0 0)
(0 0 0)
(0 0 0)
(0 0 0)
(0 0 0)
(0 0 0)
(0 0 0)
(0 0 0)
(0 0 0)
(0 0 0)
(0 0 0)
(0 0 0)
(0 0 0)
(0 0 0)
(0 0 0)
(0 0 0)
(0 0 0)
(0 1.16803e-05 0)
(0 0.000121469 0)
(0 0.00032281 0)
(0 0.000566375 0)
(0 0.000868785 0)
(0 0.00117379 0)
(0 0.00143803 0)
(0 0.00168555 0)
(0 0.0018612 0)
(0 0.00196614 0)
(0 0.00201431 0)
(0 0.00196614 0)
(0 0.0018612 0)
(0 0.00168555 0)
(0 0.00143803 0)
(0 0.00117379 0)
(0 0.000868785 0)
(0 0.000566375 0)
(0 0.00032281 0)
(0 0.000121469 0)
(0 1.23656e-05 0)
(0 0 0)
(0 0 0)
(0 0 0)
(0 0 0)
(0 0 0)
(0 0 0)
(0 0 0)
(0 0 0)
(0 0 0)
(0 0 0)
(0 0 0)
(0 0 0)
(0 0 0)
(0 0 0)
(0 0 0)
(0 0 0)
(0 0 0)
(0 0 0)
(0 0 0)
(0 2.29726e-05 0)
(0 0.000161084 0)
(0 0.000402045 0)
(0 0.000738091 0)
(0 0.00113747 0)
(0 0.00155249 0)
(0 0.00193334 0)
(0 0.00229439 0)
(0 0.00243006 0)
(0 0.00257678 0)
(0 0.0026995 0)
(0 0.00279619 0)
(0 0.00286533 0)
(0 0.00291315 0)
(0 0.00295732 0)
(0 0.00297211 0)
(0 0.00295732 0)
(0 0.00291315 0)
(0 0.00286533 0)
(0 0.00279619 0)
(0 0.0026995 0)
(0 0.00257678 0)
(0 0.00243006 0)
(0 0.00229439 0)
(0 0.00193334 0)
(0 0.00155249 0)
(0 0.00113747 0)
(0 0.000738091 0)
(0 0.0003937 0)
(0 0.000145555 0)
(0 1.83566e-05 0)
(0 0 0)
(0 0 0)
(0 0 0)
(0 0 0)
(0 0 0)
(0 0 0)
(0 0 0)
(0 0 0)
(0 0 0)
(0 0 0)
(0 0 0)
(0 0 0)
(0 0 0)
(0 0 0)
(0 0 0)
(0 0 0)
(0 0 0)
(0 1.35121e-05 0)
(0 0.000154632 0)
(0 0.000430831 0)
(0 0.000810698 0)
(0 0.00125565 0)
(0 0.00177917 0)
(0 0.00202949 0)
(0 0.00225137 0)
(0 0.00249694 0)
(0 0.00272712 0)
(0 0.00293771 0)
(0 0.00311662 0)
(0 0.00271618 0)
(0 0.00288202 0)
(0 0.0030129 0)
(0 0.00314491 0)
(0 0.00324847 0)
(0 0.00332227 0)
(0 0.00336651 0)
(0 0.0034134 0)
(0 0.00342908 0)
(0 0.0034134 0)
(0 0.00336651 0)
(0 0.00332227 0)
(0 0.00324847 0)
(0 0.00314491 0)
(0 0.0030129 0)
(0 0.00288202 0)
(0 0.00271618 0)
(0 0.00311662 0)
(0 0.00293771 0)
(0 0.00272712 0)
(0 0.00249694 0)
(0 0.00225137 0)
(0 0.00202949 0)
(0 0.00177917 0)
(0 0.00125565 0)
(0 0.000810698 0)
(0 0.000415116 0)
(0 0.000147904 0)
(0 1.22709e-05 0)
(0 0 0)
(0 0 0)
(0 0 0)
(0 0 0)
(0 0 0)
(0 0 0)
(0 0 0)
(0 0 0)
(0 0 0)
(0 0 0)
(0 0 0)
(0 0 0)
(0 0 0)
(0 0 0)
(0 0 0)
(0 0 0)
(0 8.54935e-05 0)
(0 0.000349382 0)
(0 0.000746931 0)
(0 0.0012463 0)
(0 0.00180248 0)
(0 0.00236762 0)
(0 0.00208393 0)
(0 0.00235615 0)
(0 0.00261808 0)
(0 0.00286472 0)
(0 0.00308385 0)
(0 0.00330607 0)
(0 0.00350245 0)
(0 0.00366469 0)
(0 0.00329284 0)
(0 0.00344126 0)
(0 0.00381767 0)
(0 0.00392782 0)
(0 0.00355935 0)
(0 0.00366739 0)
(0 0.00403738 0)
(0 0.00411449 0)
(0 0.00374403 0)
(0 0.00378287 0)
(0 0.00415918 0)
(0 0.00419466 0)
(0 0.00383122 0)
(0 0.00384736 0)
(0 0.00421068 0)
(0 0.00419466 0)
(0 0.00383122 0)
(0 0.00378287 0)
(0 0.00415918 0)
(0 0.00411449 0)
(0 0.00374403 0)
(0 0.00366739 0)
(0 0.00403738 0)
(0 0.00392782 0)
(0 0.00355935 0)
(0 0.00344126 0)
(0 0.00381767 0)
(0 0.00366469 0)
(0 0.00329284 0)
(0 0.00350245 0)
(0 0.00330607 0)
(0 0.00308385 0)
(0 0.00286472 0)
(0 0.00261808 0)
(0 0.00235615 0)
(0 0.00208393 0)
(0 0.00236762 0)
(0 0.00180248 0)
(0 0.00123129 0)
(0 0.000741035 0)
(0 0.000349009 0)
(0 9.29451e-05 0)
(0 0 0)
(0 0 0)
(0 0 0)
(0 0 0)
(0 0 0)
(0 0 0)
(0 0 0)
(0 0 0)
(0 0 0)
(0 0 0)
(0 0 0)
(0 0 0)
(0 0 0)
(0 0 0)
(0 0 0)
(0 1.86503e-05 0)
(0 0.000191608 0)
(0 0.000552306 0)
(0 0.0010348 0)
(0 0.0016084 0)
(0 0.00226557 0)
(0 0.00289858 0)
(0 0.00265223 0)
(0 0.002939 0)
(0 0.00263897 0)
(0 0.00293412 0)
(0 0.00320855 0)
(0 0.00347895 0)
(0 0.00319388 0)
(0 0.0034311 0)
(0 0.00372275 0)
(0 0.00383391 0)
(0 0.00393739 0)
(0 0.00379669 0)
(0 0.00363134 0)
(0 0.00383285 0)
(0 0.00397736 0)
(0 0.00406664 0)
(0 0.00392207 0)
(0 0.00413912 0)
(0 0.0042762 0)
(0 0.00433963 0)
(0 0.00420352 0)
(0 0.00434543 0)
(0 0.00447954 0)
(0 0.00451296 0)
(0 0.00438674 0)
(0 0.00446265 0)
(0 0.00458553 0)
(0 0.00460303 0)
(0 0.00448298 0)
(0 0.00450484 0)
(0 0.00462229 0)
(0 0.00461875 0)
(0 0.00450107 0)
(0 0.00446265 0)
(0 0.00458553 0)
(0 0.00456895 0)
(0 0.00444521 0)
(0 0.00434543 0)
(0 0.00447954 0)
(0 0.00444115 0)
(0 0.00430737 0)
(0 0.00413912 0)
(0 0.0042762 0)
(0 0.0042202 0)
(0 0.0040664 0)
(0 0.00383285 0)
(0 0.00397736 0)
(0 0.00387998 0)
(0 0.00373585 0)
(0 0.0034311 0)
(0 0.00372275 0)
(0 0.00347895 0)
(0 0.00319388 0)
(0 0.00293412 0)
(0 0.00320855 0)
(0 0.002939 0)
(0 0.00263897 0)
(0 0.00265223 0)
(0 0.00288552 0)
(0 0.00226401 0)
(0 0.00163432 0)
(0 0.00102611 0)
(0 0.000546929 0)
(0 0.000201211 0)
(0 2.13276e-05 0)
(0 0 0)
(0 0 0)
(0 0 0)
(0 0 0)
(0 0 0)
(0 0 0)
(0 0 0)
(0 0 0)
(0 0 0)
(0 0 0)
(0 0 0)
(0 0 0)
(0 0 0)
(0 0 0)
(0 6.10195e-05 0)
(0 0.000308823 0)
(0 0.000725596 0)
(0 0.00127497 0)
(0 0.00190985 0)
(0 0.00260815 0)
(0 0.00325988 0)
(0 0.00309908 0)
(0 0.00340576 0)
(0 0.00319704 0)
(0 0.0034757 0)
(0 0.00369019 0)
(0 0.00394707 0)
(0 0.00372953 0)
(0 0.00395437 0)
(0 0.00407084 0)
(0 0.00417102 0)
(0 0.0040707 0)
(0 0.00435373 0)
(0 0.00440192 0)
(0 0.0044408 0)
(0 0.00439305 0)
(0 0.00460886 0)
(0 0.0046474 0)
(0 0.00467242 0)
(0 0.00463467 0)
(0 0.00475988 0)
(0 0.00478797 0)
(0 0.00480072 0)
(0 0.00477242 0)
(0 0.00482607 0)
(0 0.00484667 0)
(0 0.00484961 0)
(0 0.00482961 0)
(0 0.004843 0)
(0 0.00485959 0)
(0 0.00485931 0)
(0 0.00484259 0)
(0 0.00482607 0)
(0 0.00484667 0)
(0 0.0048426 0)
(0 0.00482125 0)
(0 0.00475988 0)
(0 0.00478797 0)
(0 0.00477728 0)
(0 0.00474479 0)
(0 0.00460886 0)
(0 0.0046474 0)
(0 0.00462562 0)
(0 0.00458078 0)
(0 0.00435373 0)
(0 0.00440192 0)
(0 0.00444601 0)
(0 0.00436211 0)
(0 0.00426828 0)
(0 0.00395437 0)
(0 0.00407084 0)
(0 0.00417202 0)
(0 0.00394707 0)
(0 0.00372953 0)
(0 0.0034757 0)
(0 0.00368176 0)
(0 0.00340357 0)
(0 0.00319704 0)
(0 0.00310278 0)
(0 0.00326953 0)
(0 0.0026016 0)
(0 0.00192887 0)
(0 0.00128834 0)
(0 0.000734002 0)
(0 0.00031323 0)
(0 6.25248e-05 0)
(0 0 0)
(0 0 0)
(0 0 0)
(0 0 0)
(0 0 0)
(0 0 0)
(0 0 0)
(0 0 0)
(0 0 0)
(0 0 0)
(0 0 0)
(0 0 0)
(0 0 0)
(0 0 0)
(0 9.40904e-05 0)
(0 0.000383644 0)
(0 0.000844253 0)
(0 0.00143702 0)
(0 0.00211202 0)
(0 0.00281255 0)
(0 0.00347995 0)
(0 0.00339726 0)
(0 0.00370153 0)
(0 0.00356027 0)
(0 0.00383572 0)
(0 0.00397872 0)
(0 0.00422341 0)
(0 0.00410522 0)
(0 0.00432797 0)
(0 0.00438299 0)
(0 0.00447885 0)
(0 0.0044251 0)
(0 0.00465592 0)
(0 0.00468134 0)
(0 0.00471002 0)
(0 0.0046854 0)
(0 0.00483283 0)
(0 0.0048451 0)
(0 0.00485535 0)
(0 0.00484452 0)
(0 0.00487519 0)
(0 0.00487519 0)
(0 0.00487519 0)
(0 0.00487519 0)
(0 0.00487519 0)
(0 0.00487519 0)
(0 0.00487519 0)
(0 0.00487519 0)
(0 0.00487519 0)
(0 0.00487519 0)
(0 0.00487519 0)
(0 0.00487519 0)
(0 0.00487519 0)
(0 0.00487519 0)
(0 0.00487519 0)
(0 0.00487519 0)
(0 0.00487519 0)
(0 0.00487519 0)
(0 0.00487519 0)
(0 0.00487519 0)
(0 0.00483283 0)
(0 0.0048451 0)
(0 0.00483158 0)
(0 0.00481877 0)
(0 0.00465592 0)
(0 0.00468134 0)
(0 0.00470306 0)
(0 0.00463675 0)
(0 0.00458925 0)
(0 0.00432545 0)
(0 0.00438938 0)
(0 0.0044382 0)
(0 0.00421755 0)
(0 0.00410887 0)
(0 0.00385758 0)
(0 0.00397377 0)
(0 0.0036976 0)
(0 0.00357601 0)
(0 0.00339438 0)
(0 0.00348168 0)
(0 0.00281139 0)
(0 0.00210867 0)
(0 0.00143241 0)
(0 0.000839445 0)
(0 0.000379667 0)
(0 9.18316e-05 0)
(0 0 0)
(0 0 0)
(0 0 0)
(0 0 0)
(0 0 0)
(0 0 0)
(0 0 0)
(0 0 0)
(0 0 0)
(0 0 0)
(0 0 0)
(0 0 0)
(0 0 0)
(0 0 0)
(0 9.9757e-05 0)
(0 0.000395908 0)
(0 0.000863584 0)
(0 0.00146349 0)
(0 0.00214522 0)
(0 0.00285149 0)
(0 0.00352296 0)
(0 0.0035242 0)
(0 0.00382878 0)
(0 0.00378364 0)
(0 0.00405878 0)
(0 0.00410397 0)
(0 0.00434398 0)
(0 0.00429978 0)
(0 0.00450955 0)
(0 0.00452982 0)
(0 0.00461393 0)
(0 0.00459565 0)
(0 0.00478549 0)
(0 0.00479331 0)
(0 0.00481407 0)
(0 0.00480685 0)
(0 0.00487519 0)
(0 0.00487519 0)
(0 0.00487519 0)
(0 0.00487519 0)
(0 0.00487519 0)
(0 0.00487519 0)
(0 0.00487519 0)
(0 0.00487519 0)
(0 0.00487519 0)
(0 0.00487519 0)
(0 0.00487519 0)
(0 0.00487519 0)
(0 0.00487519 0)
(0 0.00487519 0)
(0 0.00487519 0)
(0 0.00487519 0)
(0 0.00487519 0)
(0 0.00487499 0)
(0 0.00487429 0)
(0 0.00478549 0)
(0 0.00479331 0)
(0 0.00479847 0)
(0 0.00474972 0)
(0 0.00473252 0)
(0 0.00450927 0)
(0 0.00453011 0)
(0 0.00454375 0)
(0 0.00434398 0)
(0 0.00430602 0)
(0 0.00406361 0)
(0 0.00409363 0)
(0 0.00381691 0)
(0 0.00378693 0)
(0 0.00351106 0)
(0 0.00351509 0)
(0 0.00284272 0)
(0 0.00213631 0)
(0 0.00145522 0)
(0 0.000856668 0)
(0 0.000390946 0)
(0 9.71863e-05 0)
(0 0 0)
(0 0 0)
(0 0 0)
(0 0 0)
(0 0 0)
(0 0 0)
(0 0 0)
(0 0 0)
(0 0 0)
(0 0 0)
(0 0 0)
(0 0 0)
(0 0 0)
(0 0 0)
(0 8.15246e-05 0)
(0 0.000356296 0)
(0 0.000801583 0)
(0 0.0013794 0)
(0 0.00204083 0)
(0 0.00273027 0)
(0 0.0033903 0)
(0 0.00348556 0)
(0 0.00378963 0)
(0 0.00382778 0)
(0 0.00410323 0)
(0 0.00406505 0)
(0 0.00430619 0)
(0 0.00434352 0)
(0 0.00454357 0)
(0 0.00453286 0)
(0 0.00461695 0)
(0 0.00462714 0)
(0 0.00480702 0)
(0 0.00480448 0)
(0 0.00482394 0)
(0 0.00482624 0)
(0 0.00487519 0)
(0 0.00487519 0)
(0 0.00487519 0)
(0 0.00487519 0)
(0 0.00487519 0)
(0 0.00487519 0)
(0 0.00487519 0)
(0 0.00487519 0)
(0 0.00487519 0)
(0 0.00487519 0)
(0 0.00487519 0)
(0 0.00487519 0)
(0 0.00487519 0)
(0 0.00487519 0)
(0 0.00487519 0)
(0 0.00487519 0)
(0 0.00480702 0)
(0 0.0048024 0)
(0 0.00479987 0)
(0 0.00475123 0)
(0 0.00475676 0)
(0 0.00453934 0)
(0 0.00453252 0)
(0 0.00451184 0)
(0 0.00430913 0)
(0 0.0043382 0)
(0 0.00409692 0)
(0 0.0040672 0)
(0 0.00379092 0)
(0 0.00382061 0)
(0 0.00348598 0)
(0 0.00339892 0)
(0 0.0027366 0)
(0 0.00204497 0)
(0 0.00138168 0)
(0 0.000802488 0)
(0 0.000356384 0)
(0 8.13466e-05 0)
(0 0 0)
(0 0 0)
(0 0 0)
(0 0 0)
(0 0 0)
(0 0 0)
(0 0 0)
(0 0 0)
(0 0 0)
(0 0 0)
(0 0 0)
(0 0 0)
(0 0 0)
(0 0 0)
(0 4.12339e-05 0)
(0 0.000258998 0)
(0 0.000644205 0)
(0 0.00116226 0)
(0 0.00180699 0)
(0 0.00246626 0)
(0 0.00310932 0)
(0 0.00327986 0)
(0 0.0035847 0)
(0 0.00369216 0)
(0 0.00398507 0)
(0 0.00386443 0)
(0 0.00411373 0)
(0 0.00423355 0)
(0 0.00444457 0)
(0 0.004394 0)
(0 0.00448572 0)
(0 0.00453483 0)
(0 0.00474077 0)
(0 0.00472638 0)
(0 0.00475254 0)
(0 0.0047679 0)
(0 0.00486929 0)
(0 0.00486429 0)
(0 0.00487026 0)
(0 0.00487336 0)
(0 0.00487519 0)
(0 0.00487519 0)
(0 0.00487519 0)
(0 0.00487519 0)
(0 0.00487519 0)
(0 0.00487519 0)
(0 0.00487519 0)
(0 0.00487519 0)
(0 0.00486929 0)
(0 0.00486356 0)
(0 0.00485563 0)
(0 0.00486272 0)
(0 0.00474077 0)
(0 0.00472638 0)
(0 0.00470683 0)
(0 0.00464483 0)
(0 0.00468311 0)
(0 0.00444457 0)
(0 0.004394 0)
(0 0.00433657 0)
(0 0.00411373 0)
(0 0.00423355 0)
(0 0.00397765 0)
(0 0.00386443 0)
(0 0.0035847 0)
(0 0.00370184 0)
(0 0.00327986 0)
(0 0.00310932 0)
(0 0.00246626 0)
(0 0.0017837 0)
(0 0.00117369 0)
(0 0.000651697 0)
(0 0.000263099 0)
(0 4.26197e-05 0)
(0 0 0)
(0 0 0)
(0 0 0)
(0 0 0)
(0 0 0)
(0 0 0)
(0 0 0)
(0 0 0)
(0 0 0)
(0 0 0)
(0 0 0)
(0 0 0)
(0 0 0)
(0 0 0)
(0 5.10209e-06 0)
(0 0.000151454 0)
(0 0.000461195 0)
(0 0.000906899 0)
(0 0.00144782 0)
(0 0.00203648 0)
(0 0.00265419 0)
(0 0.0028884 0)
(0 0.00320248 0)
(0 0.00340843 0)
(0 0.00369938 0)
(0 0.00347746 0)
(0 0.00375284 0)
(0 0.00395239 0)
(0 0.00418487 0)
(0 0.00409165 0)
(0 0.00419434 0)
(0 0.00428677 0)
(0 0.00453626 0)
(0 0.00449475 0)
(0 0.0045325 0)
(0 0.00456698 0)
(0 0.00475676 0)
(0 0.00472946 0)
(0 0.00474939 0)
(0 0.00477564 0)
(0 0.00485536 0)
(0 0.00484009 0)
(0 0.0048468 0)
(0 0.00486075 0)
(0 0.00487519 0)
(0 0.00487248 0)
(0 0.00487354 0)
(0 0.00487519 0)
(0 0.00487519 0)
(0 0.00487519 0)
(0 0.00487519 0)
(0 0.00487519 0)
(0 0.00487519 0)
(0 0.00487519 0)
(0 0.00487248 0)
(0 0.00487099 0)
(0 0.00487502 0)
(0 0.00487515 0)
(0 0.00485536 0)
(0 0.00484009 0)
(0 0.00483181 0)
(0 0.00484844 0)
(0 0.00475676 0)
(0 0.00472946 0)
(0 0.00470726 0)
(0 0.00473555 0)
(0 0.00453961 0)
(0 0.0045015 0)
(0 0.0044557 0)
(0 0.00437998 0)
(0 0.00446231 0)
(0 0.00417338 0)
(0 0.00408691 0)
(0 0.00398591 0)
(0 0.00374769 0)
(0 0.00395239 0)
(0 0.00369938 0)
(0 0.00347746 0)
(0 0.00320248 0)
(0 0.00340843 0)
(0 0.0028884 0)
(0 0.00265419 0)
(0 0.00203648 0)
(0 0.00144782 0)
(0 0.000906899 0)
(0 0.000461195 0)
(0 0.000141277 0)
(0 6.12853e-06 0)
(0 0 0)
(0 0 0)
(0 0 0)
(0 0 0)
(0 0 0)
(0 0 0)
(0 0 0)
(0 0 0)
(0 0 0)
(0 0 0)
(0 0 0)
(0 0 0)
(0 0 0)
(0 0 0)
(0 0 0)
(0 4.65527e-05 0)
(0 0.000245315 0)
(0 0.000577172 0)
(0 0.00100751 0)
(0 0.00154518 0)
(0 0.00210111 0)
(0 0.00236336 0)
(0 0.00267282 0)
(0 0.00293745 0)
(0 0.00322435 0)
(0 0.00295142 0)
(0 0.0032119 0)
(0 0.003494 0)
(0 0.00373815 0)
(0 0.00344969 0)
(0 0.00364875 0)
(0 0.00381404 0)
(0 0.00395297 0)
(0 0.00384943 0)
(0 0.00413772 0)
(0 0.00399327 0)
(0 0.00408255 0)
(0 0.00421941 0)
(0 0.00442391 0)
(0 0.00430007 0)
(0 0.0043496 0)
(0 0.00447798 0)
(0 0.00460514 0)
(0 0.00449538 0)
(0 0.00452762 0)
(0 0.00463554 0)
(0 0.00469912 0)
(0 0.00459785 0)
(0 0.00461572 0)
(0 0.00471157 0)
(0 0.00472823 0)
(0 0.00463471 0)
(0 0.00462987 0)
(0 0.00472441 0)
(0 0.00469912 0)
(0 0.00459785 0)
(0 0.00457249 0)
(0 0.00467959 0)
(0 0.00460514 0)
(0 0.00449538 0)
(0 0.00445509 0)
(0 0.00456679 0)
(0 0.00442391 0)
(0 0.00430007 0)
(0 0.00423603 0)
(0 0.00436124 0)
(0 0.00413772 0)
(0 0.00399327 0)
(0 0.00390943 0)
(0 0.00404848 0)
(0 0.00373815 0)
(0 0.00344969 0)
(0 0.0032119 0)
(0 0.003494 0)
(0 0.00322435 0)
(0 0.00295142 0)
(0 0.00267282 0)
(0 0.00293745 0)
(0 0.00236336 0)
(0 0.00210111 0)
(0 0.00154518 0)
(0 0.00100751 0)
(0 0.000577172 0)
(0 0.000245315 0)
(0 4.65527e-05 0)
(0 0 0)
(0 0 0)
(0 0 0)
(0 0 0)
(0 0 0)
(0 0 0)
(0 0 0)
(0 0 0)
(0 0 0)
(0 0 0)
(0 0 0)
(0 0 0)
(0 0 0)
(0 0 0)
(0 0 0)
(0 0 0)
(0 0 0)
(0 7.01529e-05 0)
(0 0.000289678 0)
(0 0.000620989 0)
(0 0.00103188 0)
(0 0.00148194 0)
(0 0.00192621 0)
(0 0.00227098 0)
(0 0.00263759 0)
(0 0.00237456 0)
(0 0.00251771 0)
(0 0.00288517 0)
(0 0.00310355 0)
(0 0.00274889 0)
(0 0.00296034 0)
(0 0.00332641 0)
(0 0.00352327 0)
(0 0.00334111 0)
(0 0.00341142 0)
(0 0.00361107 0)
(0 0.0038351 0)
(0 0.003656 0)
(0 0.00372246 0)
(0 0.00390208 0)
(0 0.00405471 0)
(0 0.00387457 0)
(0 0.00390427 0)
(0 0.00408938 0)
(0 0.00418641 0)
(0 0.00401341 0)
(0 0.00403362 0)
(0 0.00420644 0)
(0 0.00423 0)
(0 0.0040581 0)
(0 0.00404978 0)
(0 0.00422245 0)
(0 0.00418641 0)
(0 0.00401341 0)
(0 0.00398512 0)
(0 0.00415828 0)
(0 0.00405471 0)
(0 0.00387457 0)
(0 0.00383183 0)
(0 0.00401193 0)
(0 0.0038351 0)
(0 0.003656 0)
(0 0.00358187 0)
(0 0.00376023 0)
(0 0.00352327 0)
(0 0.00334111 0)
(0 0.00313057 0)
(0 0.00296034 0)
(0 0.00332641 0)
(0 0.00310355 0)
(0 0.00274889 0)
(0 0.00251771 0)
(0 0.00288517 0)
(0 0.00263759 0)
(0 0.00227098 0)
(0 0.00192621 0)
(0 0.00148194 0)
(0 0.00237456 0)
(0 0.00103188 0)
(0 0.000620989 0)
(0 0.000289678 0)
(0 7.01529e-05 0)
(0 0 0)
(0 0 0)
(0 0 0)
(0 0 0)
(0 0 0)
(0 0 0)
(0 0 0)
(0 0 0)
(0 0 0)
(0 0 0)
(0 0 0)
(0 0 0)
(0 0 0)
(0 0 0)
(0 0 0)
(0 0 0)
(0 0 0)
(0 0 0)
(0 8.89628e-07 0)
(0 7.96961e-05 0)
(0 0.000270064 0)
(0 0.000529229 0)
(0 0.000866233 0)
(0 0.00122565 0)
(0 0.00157315 0)
(0 0.00177601 0)
(0 0.00215256 0)
(0 0.00236604 0)
(0 0.00194701 0)
(0 0.00213995 0)
(0 0.00254194 0)
(0 0.00273481 0)
(0 0.00252756 0)
(0 0.00261239 0)
(0 0.002823 0)
(0 0.00305035 0)
(0 0.00283165 0)
(0 0.002892 0)
(0 0.00311276 0)
(0 0.00325417 0)
(0 0.00303517 0)
(0 0.00308393 0)
(0 0.00330434 0)
(0 0.00340948 0)
(0 0.00318626 0)
(0 0.00320536 0)
(0 0.00342908 0)
(0 0.0034549 0)
(0 0.0032312 0)
(0 0.00322068 0)
(0 0.00344479 0)
(0 0.00340948 0)
(0 0.00318626 0)
(0 0.00315959 0)
(0 0.0033821 0)
(0 0.00325417 0)
(0 0.00303517 0)
(0 0.00297935 0)
(0 0.00321616 0)
(0 0.00305035 0)
(0 0.00283165 0)
(0 0.00276476 0)
(0 0.00298108 0)
(0 0.00273481 0)
(0 0.00252756 0)
(0 0.00231656 0)
(0 0.00213995 0)
(0 0.00254194 0)
(0 0.00236604 0)
(0 0.00194701 0)
(0 0.00177601 0)
(0 0.00215256 0)
(0 0.00157315 0)
(0 0.00122565 0)
(0 0.000866233 0)
(0 0.000529229 0)
(0 0.000270064 0)
(0 7.96961e-05 0)
(0 8.89628e-07 0)
(0 0 0)
(0 0 0)
(0 0 0)
(0 0 0)
(0 0 0)
(0 0 0)
(0 0 0)
(0 0 0)
(0 0 0)
(0 0 0)
(0 0 0)
(0 0 0)
(0 0 0)
(0 0 0)
(0 0 0)
(0 0 0)
(0 0 0)
(0 0 0)
(0 0 0)
(0 0 0)
(0 4.18537e-05 0)
(0 0.000174319 0)
(0 0.000353136 0)
(0 0.000594615 0)
(0 0.000879227 0)
(0 0.00103675 0)
(0 0.00138147 0)
(0 0.00156238 0)
(0 0.00119113 0)
(0 0.00133846 0)
(0 0.00173356 0)
(0 0.00189126 0)
(0 0.00168105 0)
(0 0.00174921 0)
(0 0.001964 0)
(0 0.0021534 0)
(0 0.00192712 0)
(0 0.00195959 0)
(0 0.00218266 0)
(0 0.00234735 0)
(0 0.0021151 0)
(0 0.00215578 0)
(0 0.00239034 0)
(0 0.00248096 0)
(0 0.0022416 0)
(0 0.0022577 0)
(0 0.00249793 0)
(0 0.00252267 0)
(0 0.00228171 0)
(0 0.00227062 0)
(0 0.00251156 0)
(0 0.00248096 0)
(0 0.0022416 0)
(0 0.00221918 0)
(0 0.0024573 0)
(0 0.00234735 0)
(0 0.0021151 0)
(0 0.00206869 0)
(0 0.00229824 0)
(0 0.0021534 0)
(0 0.00192712 0)
(0 0.00187257 0)
(0 0.0020954 0)
(0 0.00189126 0)
(0 0.00168105 0)
(0 0.00147519 0)
(0 0.00133846 0)
(0 0.00173356 0)
(0 0.00156238 0)
(0 0.00119113 0)
(0 0.00103675 0)
(0 0.00138147 0)
(0 0.000879227 0)
(0 0.000594615 0)
(0 0.000353136 0)
(0 0.000174319 0)
(0 4.18537e-05 0)
(0 0 0)
(0 0 0)
(0 0 0)
(0 0 0)
(0 0 0)
(0 0 0)
(0 0 0)
(0 0 0)
(0 0 0)
(0 0 0)
(0 0 0)
(0 0 0)
(0 0 0)
(0 0 0)
(0 0 0)
(0 0 0)
(0 0 0)
(0 0 0)
(0 0 0)
(0 0 0)
(0 0 0)
(0 0 0)
(0 0 0)
(0 3.56417e-06 0)
(0 6.04568e-05 0)
(0 0.000168726 0)
(0 0.000353951 0)
(0 0.000450315 0)
(0 0.000721835 0)
(0 0.000848279 0)
(0 0.000548163 0)
(0 0.000644189 0)
(0 0.000970335 0)
(0 0.00108465 0)
(0 0.000903892 0)
(0 0.000951976 0)
(0 0.00113794 0)
(0 0.00126629 0)
(0 0.0010717 0)
(0 0.00111682 0)
(0 0.00131587 0)
(0 0.00144079 0)
(0 0.00123082 0)
(0 0.0012609 0)
(0 0.00147366 0)
(0 0.00154329 0)
(0 0.00132468 0)
(0 0.00133669 0)
(0 0.00155638 0)
(0 0.00157729 0)
(0 0.0013563 0)
(0 0.00134635 0)
(0 0.0015669 0)
(0 0.00154329 0)
(0 0.00132468 0)
(0 0.00130797 0)
(0 0.00152506 0)
(0 0.00144079 0)
(0 0.00123082 0)
(0 0.00119663 0)
(0 0.00140338 0)
(0 0.00126629 0)
(0 0.0010717 0)
(0 0.0010235 0)
(0 0.00121324 0)
(0 0.00108465 0)
(0 0.000903892 0)
(0 0.000735295 0)
(0 0.000644189 0)
(0 0.000970335 0)
(0 0.000848279 0)
(0 0.000548163 0)
(0 0.000450315 0)
(0 0.000721835 0)
(0 0.000353951 0)
(0 0.000168726 0)
(0 6.04568e-05 0)
(0 3.56417e-06 0)
(0 0 0)
(0 0 0)
(0 0 0)
(0 0 0)
(0 0 0)
(0 0 0)
(0 0 0)
(0 0 0)
(0 0 0)
(0 0 0)
(0 0 0)
(0 0 0)
(0 0 0)
(0 0 0)
(0 0 0)
(0 0 0)
(0 0 0)
(0 0 0)
(0 0 0)
(0 0 0)
(0 0 0)
(0 0 0)
(0 0 0)
(0 0 0)
(0 0 0)
(0 0 0)
(0 6.46078e-07 0)
(0 4.85395e-05 0)
(0 8.4547e-05 0)
(0 0.00023444 0)
(0 0.000303749 0)
(0 0.000126069 0)
(0 0.000170473 0)
(0 0.000373672 0)
(0 0.000441401 0)
(0 0.000303842 0)
(0 0.000334947 0)
(0 0.000458079 0)
(0 0.000562444 0)
(0 0.000423286 0)
(0 0.000450101 0)
(0 0.00059384 0)
(0 0.000674128 0)
(0 0.000519096 0)
(0 0.000537571 0)
(0 0.00069552 0)
(0 0.000741165 0)
(0 0.000577112 0)
(0 0.000584609 0)
(0 0.0007498 0)
(0 0.000764816 0)
(0 0.000597919 0)
(0 0.000590647 0)
(0 0.00075675 0)
(0 0.000741165 0)
(0 0.000577112 0)
(0 0.000566708 0)
(0 0.000729173 0)
(0 0.000674128 0)
(0 0.000519096 0)
(0 0.000498229 0)
(0 0.000649916 0)
(0 0.000562444 0)
(0 0.000423286 0)
(0 0.00039497 0)
(0 0.000529157 0)
(0 0.000441401 0)
(0 0.000303842 0)
(0 0.000204321 0)
(0 0.000170473 0)
(0 0.000373672 0)
(0 0.000303749 0)
(0 0.000126069 0)
(0 8.4547e-05 0)
(0 0.00023444 0)
(0 4.85395e-05 0)
(0 6.46078e-07 0)
(0 0 0)
(0 0 0)
(0 0 0)
(0 0 0)
(0 0 0)
(0 0 0)
(0 0 0)
(0 0 0)
(0 0 0)
(0 0 0)
(0 0 0)
(0 0 0)
(0 0 0)
(0 0 0)
(0 0 0)
(0 0 0)
(0 0 0)
(0 0 0)
(0 0 0)
(0 0 0)
(0 0 0)
(0 0 0)
(0 0 0)
(0 0 0)
(0 0 0)
(0 0 0)
(0 0 0)
(0 0 0)
(0 0 0)
(0 0 0)
(0 0 0)
(0 2.37279e-05 0)
(0 8.58211e-06 0)
(0 0 0)
(0 3.7312e-05 0)
(0 6.23345e-05 0)
(0 1.90836e-06 0)
(0 8.34137e-06 0)
(0 8.98291e-05 0)
(0 0.000117689 0)
(0 1.75889e-05 0)
(0 2.80066e-05 0)
(0 0.000144014 0)
(0 0.000167153 0)
(0 3.81589e-05 0)
(0 4.6854e-05 0)
(0 0.00018574 0)
(0 0.000198727 0)
(0 5.3173e-05 0)
(0 5.6491e-05 0)
(0 0.000205401 0)
(0 0.000210741 0)
(0 5.93255e-05 0)
(0 5.6491e-05 0)
(0 0.000205401 0)
(0 0.000198727 0)
(0 5.3173e-05 0)
(0 4.6854e-05 0)
(0 0.00018574 0)
(0 0.000167153 0)
(0 3.81589e-05 0)
(0 2.80066e-05 0)
(0 0.000144014 0)
(0 0.000117689 0)
(0 1.75889e-05 0)
(0 8.34137e-06 0)
(0 8.98291e-05 0)
(0 6.23345e-05 0)
(0 1.90836e-06 0)
(0 0 0)
(0 3.7312e-05 0)
(0 2.37279e-05 0)
(0 0 0)
(0 0 0)
(0 0 0)
(0 8.58211e-06 0)
(0 0 0)
(0 0 0)
(0 0 0)
(0 0 0)
(0 0 0)
(0 0 0)
(0 0 0)
(0 0 0)
(0 0 0)
(0 0 0)
(0 0 0)
(0 0 0)
(0 0 0)
(0 0 0)
(0 0 0)
(0 0 0)
(0 0 0)
(0 0 0)
(0 0 0)
(0 0 0)
(0 0 0)
(0 0 0)
(0 0 0)
(0 0 0)
(0 0 0)
(0 0 0)
(0 0 0)
(0 0 0)
(0 0 0)
(0 0 0)
(0 0 0)
(0 0 0)
(0 0 0)
(0 0 0)
(0 0 0)
(0 0 0)
(0 0 0)
(0 0 0)
(0 0 0)
(0 0 0)
(0 1.71503e-07 0)
(0 0 0)
(0 0 0)
(0 6.6e-07 0)
(0 3.9269e-07 0)
(0 0 0)
(0 1.71503e-07 0)
(0 3.9269e-07 0)
(0 0 0)
(0 0 0)
(0 0 0)
(0 0 0)
(0 0 0)
(0 0 0)
(0 0 0)
(0 0 0)
(0 0 0)
(0 0 0)
(0 0 0)
(0 0 0)
(0 0 0)
(0 0 0)
(0 0 0)
(0 0 0)
(0 0 0)
(0 0 0)
(0 0 0)
(0 0 0)
(0 0 0)
(0 0 0)
(0 0 0)
(0 0 0)
(0 0 0)
(0 0 0)
(0 0 0)
(0 0 0)
(0 0 0)
(0 0 0)
(0 0 0)
(0 0 0)
(0 0 0)
(0 0 0)
(0 0 0)
(0 0 0)
(0 0 0)
(0 0 0)
(0 0 0)
(0 0 0)
(0 0 0)
(0 0 0)
(0 0 0)
(0 0 0)
(0 0 0)
(0 0 0)
(0 0 0)
(0 0 0)
(0 0 0)
(0 0 0)
(0 0 0)
(0 0 0)
(0 0 0)
(0 0 0)
(0 0 0)
(0 0 0)
(0 0 0)
(0 0 0)
(0 0 0)
(0 0 0)
(0 0 0)
(0 0 0)
(0 0 0)
(0 0 0)
(0 0 0)
(0 0 0)
(0 0 0)
(0 0 0)
(0 0 0)
(0 0 0)
(0 0 0)
(0 0 0)
(0 0 0)
(0 0 0)
(0 0 0)
(0 0 0)
(0 0 0)
(0 0 0)
(0 0 0)
(0 0 0)
(0 0 0)
(0 0 0)
(0 0 0)
(0 0 0)
(0 0 0)
(0 0 0)
(0 0 0)
(0 0 0)
(0 0 0)
(0 0 0)
(0 0 0)
(0 0 0)
(0 0 0)
(0 0 0)
(0 0 0)
(0 0 0)
(0 0 0)
(0 0 0)
(0 0 0)
(0 0 0)
(0 0 0)
(0 0 0)
(0 0 0)
(0 0 0)
(0 0 0)
(0 0 0)
(0 0 0)
(0 0 0)
(0 0 0)
(0 0 0)
(0 0 0)
(0 0 0)
(0 0 0)
(0 0 0)
(0 0 0)
(0 0 0)
(0 0 0)
(0 0 0)
(0 0 0)
(0 0 0)
(0 0 0)
(0 0 0)
(0 0 0)
(0 0 0)
(0 0 0)
(0 0 0)
(0 0 0)
(0 0 0)
(0 0 0)
(0 0 0)
(0 0 0)
(0 0 0)
(0 0 0)
(0 0 0)
(0 0 0)
(0 0 0)
(0 0 0)
(0 0 0)
(0 0 0)
(0 0 0)
(0 0 0)
(0 0 0)
(0 0 0)
(0 0 0)
(0 0 0)
(0 0 0)
(0 0 0)
(0 0 0)
(0 0 0)
(0 0 0)
(0 0 0)
(0 0 0)
(0 0 0)
(0 0 0)
(0 0 0)
(0 0 0)
(0 0 0)
(0 0 0)
(0 0 0)
(0 0 0)
(0 0 0)
(0 0 0)
(0 0 0)
(0 0 0)
(0 0 0)
(0 0 0)
(0 0 0)
(0 0 0)
(0 0 0)
(0 0 0)
(0 0 0)
(0 0 0)
(0 0 0)
(0 0 0)
(0 0 0)
(0 0 0)
(0 0 0)
(0 0 0)
(0 0 0)
(0 0 0)
(0 0 0)
(0 0 0)
(0 0 0)
(0 0 0)
(0 0 0)
(0 0 0)
(0 0 0)
(0 0 0)
(0 0 0)
(0 0 0)
(0 0 0)
(0 0 0)
(0 0 0)
(0 0 0)
(0 0 0)
(0 0 0)
(0 0 0)
(0 0 0)
(0 0 0)
(0 0 0)
(0 0 0)
(0 0 0)
(0 0 0)
(0 0 0)
(0 0 0)
(0 0 0)
(0 0 0)
(0 0 0)
(0 0 0)
(0 0 0)
(0 0 0)
(0 0 0)
(0 0 0)
(0 0 0)
(0 0 0)
(0 0 0)
(0 0 0)
(0 0 0)
(0 0 0)
(0 0 0)
(0 0 0)
(0 0 0)
(0 0 0)
(0 0 0)
(0 0 0)
(0 0 0)
(0 0 0)
(0 0 0)
(0 0 0)
(0 0 0)
(0 0 0)
(0 0 0)
(0 0 0)
(0 0 0)
(0 0 0)
(0 0 0)
(0 0 0)
(0 0 0)
(0 0 0)
(0 0 0)
(0 0 0)
(0 0 0)
(0 0 0)
(0 0 0)
(0 0 0)
(0 0 0)
(0 0 0)
(0 0 0)
(0 0 0)
(0 0 0)
(0 0 0)
(0 0 0)
(0 0 0)
(0 0 0)
(0 0 0)
(0 0 0)
(0 0 0)
(0 0 0)
(0 0 0)
(0 0 0)
(0 0 0)
(0 0 0)
(0 0 0)
(0 0 0)
(0 0 0)
(0 0 0)
(0 0 0)
(0 0 0)
(0 0 0)
(0 0 0)
(0 0 0)
(0 0 0)
(0 0 0)
(0 0 0)
(0 0 0)
(0 0 0)
(0 0 0)
(0 0 0)
(0 0 0)
(0 0 0)
(0 0 0)
(0 0 0)
(0 0 0)
(0 0 0)
(0 0 0)
(0 0 0)
(0 0 0)
(0 0 0)
(0 0 0)
(0 0 0)
(0 0 0)
(0 0 0)
(0 0 0)
(0 0 0)
(0 0 0)
(0 0 0)
(0 0 0)
(0 0 0)
(0 0 0)
(0 0 0)
(0 0 0)
(0 0 0)
(0 0 0)
(0 0 0)
(0 0 0)
(0 0 0)
(0 0 0)
(0 0 0)
(0 0 0)
(0 0 0)
(0 0 0)
(0 0 0)
(0 0 0)
(0 0 0)
(0 0 0)
(0 0 0)
(0 0 0)
(0 0 0)
(0 0 0)
(0 0 0)
(0 0 0)
(0 0 0)
(0 0 0)
(0 0 0)
(0 0 0)
(0 0 0)
(0 0 0)
(0 0 0)
(0 0 0)
(0 0 0)
(0 0 0)
(0 0 0)
(0 0 0)
(0 0 0)
(0 0 0)
(0 0 0)
(0 0 0)
(0 0 0)
(0 0 0)
(0 0 0)
(0 0 0)
(0 0 0)
(0 0 0)
(0 0 0)
(0 0 0)
(0 0 0)
(0 0 0)
(0 0 0)
(0 0 0)
(0 0 0)
(0 0 0)
(0 0 0)
(0 0 0)
(0 0 0)
(0 0 0)
(0 0 0)
(0 0 0)
(0 0 0)
(0 0 0)
(0 0 0)
(0 0 0)
(0 0 0)
(0 0 0)
(0 0 0)
(0 0 0)
(0 0 0)
(0 0 0)
(0 0 0)
(0 0 0)
(0 0 0)
(0 0 0)
(0 0 0)
(0 0 0)
(0 0 0)
(0 0 0)
(0 0 0)
(0 0 0)
(0 0 0)
(0 0 0)
(0 0 0)
(0 0 0)
(0 0 0)
(0 0 0)
(0 0 0)
(0 0 0)
(0 0 0)
(0 0 0)
(0 0 0)
(0 0 0)
(0 0 0)
(0 0 0)
(0 0 0)
(0 0 0)
(0 0 0)
(0 0 0)
(0 0 0)
(0 0 0)
(0 0 0)
(0 0 0)
(0 0 0)
(0 0 0)
(0 0 0)
(0 0 0)
(0 0 0)
(0 0 0)
(0 0 0)
(0 0 0)
(0 0 0)
(0 0 0)
(0 0 0)
(0 0 0)
(0 0 0)
(0 0 0)
(0 0 0)
(0 0 0)
(0 0 0)
(0 0 0)
(0 0 0)
(0 0 0)
(0 0 0)
(0 0 0)
(0 0 0)
(0 0 0)
(0 0 0)
(0 0 0)
(0 0 0)
(0 0 0)
(0 0 0)
(0 0 0)
(0 0 0)
(0 0 0)
(0 0 0)
(0 0 0)
(0 0 0)
(0 0 0)
(0 0 0)
(0 0 0)
(0 0 0)
(0 0 0)
(0 0 0)
(0 0 0)
(0 0 0)
(0 0 0)
(0 0 0)
(0 0 0)
(0 0 0)
(0 0 0)
(0 0 0)
(0 0 0)
(0 0 0)
(0 0 0)
(0 0 0)
(0 0 0)
(0 0 0)
(0 0 0)
(0 0 0)
(0 0 0)
(0 0 0)
(0 0 0)
(0 0 0)
(0 0 0)
(0 0 0)
(0 0 0)
(0 0 0)
(0 0 0)
(0 0 0)
(0 0 0)
(0 0 0)
(0 0 0)
(0 0 0)
(0 0 0)
(0 0 0)
(0 0 0)
(0 0 0)
(0 0 0)
(0 0 0)
(0 0 0)
(0 0 0)
(0 0 0)
(0 0 0)
(0 0 0)
(0 0 0)
(0 0 0)
(0 0 0)
(0 0 0)
(0 0 0)
(0 0 0)
(0 0 0)
(0 0 0)
(0 0 0)
(0 0 0)
(0 0 0)
(0 0 0)
(0 0 0)
(0 0 0)
(0 0 0)
(0 0 0)
(0 0 0)
(0 0 0)
(0 0 0)
(0 0 0)
(0 0 0)
(0 0 0)
(0 0 0)
(0 0 0)
(0 0 0)
(0 0 0)
(0 0 0)
(0 0 0)
(0 0 0)
(0 0 0)
(0 0 0)
(0 0 0)
(0 0 0)
(0 0 0)
(0 0 0)
(0 0 0)
(0 0 0)
(0 0 0)
(0 0 0)
(0 0 0)
(0 0 0)
(0 0 0)
(0 0 0)
(0 0 0)
(0 0 0)
(0 0 0)
(0 0 0)
(0 0 0)
(0 0 0)
(0 0 0)
(0 0 0)
(0 0 0)
(0 0 0)
(0 0 0)
(0 0 0)
(0 0 0)
(0 0 0)
(0 0 0)
(0 0 0)
(0 0 0)
(0 0 0)
(0 0 0)
(0 0 0)
(0 0 0)
(0 0 0)
(0 0 0)
(0 0 0)
(0 0 0)
(0 0 0)
(0 0 0)
(0 0 0)
(0 0 0)
(0 0 0)
(0 0 0)
(0 0 0)
(0 0 0)
(0 0 0)
(0 0 0)
(0 0 0)
(0 0 0)
(0 0 0)
(0 0 0)
(0 0 0)
(0 0 0)
(0 0 0)
(0 0 0)
(0 0 0)
(0 0 0)
(0 0 0)
(0 0 0)
(0 0 0)
(0 0 0)
(0 0 0)
(0 0 0)
(0 0 0)
(0 0 0)
(0 0 0)
(0 0 0)
(0 0 0)
(0 0 0)
(0 0 0)
(0 0 0)
(0 0 0)
(0 0 0)
(0 0 0)
(0 0 0)
(0 0 0)
(0 0 0)
(0 0 0)
(0 0 0)
(0 0 0)
(0 0 0)
(0 0 0)
(0 0 0)
(0 0 0)
(0 0 0)
(0 0 0)
(0 0 0)
(0 0 0)
(0 0 0)
(0 0 0)
(0 0 0)
(0 0 0)
(0 0 0)
(0 0 0)
(0 0 0)
(0 0 0)
(0 0 0)
(0 0 0)
(0 0 0)
(0 0 0)
(0 0 0)
(0 0 0)
(0 0 0)
(0 0 0)
(0 0 0)
(0 0 0)
(0 0 0)
(0 0 0)
(0 0 0)
(0 0 0)
(0 0 0)
(0 0 0)
(0 0 0)
(0 0 0)
(0 0 0)
(0 0 0)
(0 0 0)
(0 0 0)
(0 0 0)
(0 0 0)
(0 0 0)
(0 0 0)
(0 0 0)
(0 0 0)
(0 0 0)
(0 0 0)
(0 0 0)
(0 0 0)
(0 0 0)
(0 0 0)
(0 0 0)
(0 0 0)
(0 0 0)
(0 0 0)
(0 0 0)
(0 0 0)
(0 0 0)
(0 0 0)
(0 0 0)
(0 0 0)
(0 0 0)
(0 0 0)
(0 0 0)
(0 0 0)
(0 0 0)
(0 0 0)
(0 0 0)
(0 0 0)
(0 0 0)
(0 0 0)
(0 0 0)
(0 0 0)
(0 0 0)
(0 0 0)
(0 0 0)
(0 0 0)
(0 0 0)
(0 0 0)
(0 0 0)
(0 0 0)
(0 0 0)
(0 0 0)
(0 0 0)
(0 0 0)
(0 0 0)
(0 0 0)
(0 0 0)
(0 0 0)
(0 0 0)
(0 0 0)
(0 0 0)
(0 0 0)
(0 0 0)
(0 0 0)
(0 0 0)
(0 0 0)
(0 0 0)
(0 0 0)
(0 0 0)
(0 0 0)
(0 0 0)
(0 0 0)
(0 0 0)
(0 0 0)
(0 0 0)
(0 0 0)
(0 0 0)
(0 0 0)
(0 0 0)
(0 0 0)
(0 0 0)
(0 0 0)
(0 0 0)
(0 0 0)
(0 0 0)
(0 0 0)
(0 0 0)
(0 0 0)
(0 0 0)
(0 0 0)
(0 0 0)
(0 0 0)
(0 0 0)
(0 0 0)
(0 0 0)
(0 0 0)
(0 0 0)
(0 0 0)
(0 0 0)
(0 0 0)
(0 0 0)
(0 0 0)
(0 0 0)
(0 0 0)
(0 0 0)
(0 0 0)
(0 0 0)
(0 0 0)
(0 0 0)
(0 0 0)
(0 0 0)
(0 0 0)
(0 0 0)
(0 0 0)
(0 0 0)
(0 0 0)
(0 0 0)
(0 0 0)
(0 0 0)
(0 0 0)
(0 0 0)
(0 0 0)
(0 0 0)
(0 0 0)
(0 0 0)
(0 0 0)
(0 0 0)
(0 0 0)
(0 0 0)
(0 0 0)
(0 0 0)
(0 0 0)
(0 0 0)
(0 0 0)
(0 0 0)
(0 0 0)
(0 0 0)
(0 0 0)
(0 0 0)
(0 0 0)
(0 0 0)
(0 0 0)
(0 0 0)
(0 0 0)
(0 0 0)
(0 0 0)
(0 0 0)
(0 0 0)
(0 0 0)
(0 0 0)
(0 0 0)
(0 0 0)
(0 0 0)
(0 0 0)
(0 0 0)
(0 0 0)
(0 0 0)
(0 0 0)
(0 0 0)
(0 0 0)
(0 0 0)
(0 0 0)
(0 0 0)
(0 0 0)
(0 0 0)
(0 0 0)
(0 0 0)
(0 0 0)
(0 0 0)
(0 0 0)
(0 0 0)
(0 0 0)
(0 0 0)
(0 0 0)
(0 0 0)
(0 0 0)
(0 0 0)
(0 0 0)
(0 0 0)
(0 0 0)
(0 0 0)
(0 0 0)
(0 0 0)
(0 0 0)
(0 0 0)
(0 0 0)
(0 0 0)
(0 0 0)
(0 0 0)
(0 0 0)
(0 0 0)
(0 0 0)
(0 0 0)
(0 0 0)
(0 0 0)
(0 0 0)
(0 0 0)
(0 0 0)
(0 0 0)
(0 0 0)
(0 0 0)
(0 0 0)
(0 0 0)
(0 0 0)
(0 0 0)