/*--------------------------------*- C++ -*----------------------------------*\
| =========                 |                                                 |
| \\      /  F ield         | OpenFOAM: The Open Source CFD Toolbox           |
|  \\    /   O peration     | Version:  v2106                                 |
|   \\  /    A nd           | Website:  www.openfoam.com                      |
|    \\/     M anipulation  |                                                 |
\*---------------------------------------------------------------------------*/
FoamFile
{
    version     2.0;
    format      ascii;
    arch        "LSB;label=32;scalar=64";
    class       volScalarField;
    location    "0";
    object      p;
}
// * * * * * * * * * * * * * * * * * * * * * * * * * * * * * * * * * * * * * //

dimensions      [0 2 -2 0 0 0 0];

internalField   nonuniform List<scalar> 
11644
(
0.110314
0.109957
0.109267
0.108283
0.106912
0.105205
0.103163
0.100733
0.0979715
0.0950443
0.0921153
0.0893337
0.0869992
0.0852925
0.0836703
0.0811179
0.079693
0.0857881
0.0935351
0.0877779
0.0716855
0.0624262
0.0675796
0.0728675
0.0699111
0.0658431
0.0642649
0.0638006
0.0638078
0.0642194
0.0649314
0.0658177
0.0667924
0.0677933
0.068745
0.069529
0.0700978
0.0705355
0.0708464
0.0710122
0.111444
0.111129
0.110415
0.109318
0.107855
0.106058
0.103916
0.101423
0.0986963
0.0958072
0.0928087
0.0898603
0.0871065
0.0843213
0.0822265
0.0824167
0.0852389
0.086578
0.0827847
0.0776465
0.0760151
0.0706962
0.0647307
0.064252
0.0658292
0.0659236
0.0646349
0.0640457
0.0642358
0.0648707
0.0657449
0.0667473
0.0677606
0.0686825
0.0695375
0.070256
0.0708564
0.0713422
0.0716486
0.0717592
0.112182
0.112013
0.111505
0.110582
0.109293
0.107626
0.105623
0.103329
0.100774
0.097915
0.0949287
0.0917867
0.088579
0.0861574
0.0851245
0.0859039
0.0843266
0.0772286
0.0717791
0.0706637
0.0781815
0.0790087
0.0727894
0.0644019
0.0617049
0.0632848
0.064837
0.0655344
0.0661343
0.0669362
0.0678397
0.068679
0.0694885
0.0701835
0.0707707
0.0712523
0.0716605
0.0719252
0.0720159
0.0719763
0.112917
0.112775
0.112408
0.111785
0.110872
0.109609
0.108006
0.106077
0.103817
0.101241
0.0982997
0.0948905
0.0917207
0.0883625
0.0852324
0.0810904
0.075595
0.0713816
0.0709642
0.0700398
0.0748785
0.0738924
0.0741118
0.0706923
0.0663205
0.0646638
0.0656022
0.0675126
0.0689305
0.0698809
0.070657
0.0712646
0.0716783
0.0719506
0.0721122
0.0722101
0.072238
0.0721858
0.0721051
0.072033
0.113838
0.113679
0.11338
0.112977
0.112429
0.111655
0.110569
0.109111
0.10722
0.104791
0.10166
0.0980935
0.0940813
0.0901853
0.0845342
0.0788288
0.0757353
0.0730217
0.0683769
0.0654472
0.0690924
0.066206
0.0672679
0.0710928
0.0701043
0.0698499
0.0705174
0.0717598
0.0731798
0.0738581
0.0740027
0.0740612
0.0739364
0.0736566
0.0733028
0.0729384
0.0725746
0.0722764
0.0720944
0.0720207
0.114753
0.114599
0.114364
0.114086
0.113765
0.113355
0.11276
0.111869
0.11041
0.108225
0.105465
0.102019
0.0982122
0.0918167
0.0844417
0.0794641
0.0736716
0.0661715
0.0582961
0.0571033
0.0581344
0.0613697
0.0622508
0.0686602
0.0711524
0.0747868
0.0763937
0.0781031
0.0781
0.078014
0.0774602
0.0765871
0.0757223
0.074886
0.0740241
0.0732064
0.0725043
0.0719818
0.07168
0.0715341
0.11517
0.115089
0.114929
0.114752
0.114532
0.11427
0.113962
0.11346
0.112554
0.111068
0.108692
0.105351
0.100287
0.0973559
0.0905144
0.0833233
0.0701985
0.0608048
0.0615658
0.0608465
0.0553741
0.0585931
0.0671621
0.0718048
0.07777
0.0866447
0.0873342
0.0853361
0.0832229
0.08178
0.0801812
0.0785088
0.0767511
0.0751883
0.0738126
0.0725991
0.0716485
0.0709536
0.0705256
0.070353
0.115222
0.11509
0.114908
0.114674
0.11444
0.114192
0.11391
0.113479
0.112872
0.111664
0.109081
0.105141
0.102163
0.0926477
0.0853682
0.0746129
0.0580886
0.0638938
0.0581919
0.0569055
0.0560808
0.0607113
0.0697438
0.0796403
0.108504
0.0964172
0.093236
0.0919147
0.0874055
0.0842753
0.0811577
0.0785676
0.0761133
0.0739161
0.072168
0.0707585
0.0696279
0.068838
0.0682995
0.0680435
0.11489
0.114804
0.11457
0.114253
0.113919
0.113524
0.112998
0.112227
0.111151
0.109385
0.106177
0.101187
0.0961749
0.0883959
0.0824099
0.073794
0.0752292
0.0186724
0.0320279
0.0397145
0.0448011
0.0576872
0.0767282
0.100004
0.0860797
0.088809
0.0875955
0.0925352
0.0886845
0.0838948
0.0793317
0.0759363
0.0730969
0.0706048
0.0687501
0.0673419
0.0661942
0.0652849
0.0647114
0.0644767
0.114251
0.114168
0.113833
0.113442
0.112925
0.11227
0.111288
0.109735
0.107701
0.105009
0.101802
0.0968687
0.0938009
0.0935806
0.0851903
0.0678869
0.0585718
0.0396691
0.0255091
0.0166233
0.0302651
0.0578398
0.0789198
0.0917832
0.0935946
0.0945105
0.0865037
0.0849113
0.0817352
0.0772493
0.0743225
0.071211
0.0683953
0.0658226
0.0640235
0.062674
0.0616796
0.0608952
0.0604145
0.0602225
0.114174
0.113702
0.113224
0.112861
0.112279
0.111515
0.110161
0.10794
0.104511
0.100189
0.0976527
0.0950886
0.0888938
0.0883771
0.0838589
0.0822893
0.0690892
0.048426
0.0128229
-0.0256078
0.00344376
0.0872792
0.116682
0.111499
0.102288
0.0908292
0.0882219
0.0853505
0.0729062
0.0716431
0.0694996
0.0655342
0.0624443
0.0600767
0.0584072
0.0572668
0.0563277
0.0558064
0.055227
0.0549898
0.114741
0.114651
0.114971
0.114824
0.114208
0.113197
0.111753
0.109033
0.104591
0.0992811
0.095558
0.0946206
0.0950427
0.0788184
0.0890944
0.0961789
0.0973197
0.0922436
0.0865617
0.189074
0.127418
0.097005
0.0830903
0.0881532
0.0725341
0.0709433
0.0713341
0.06648
0.0610443
0.0566998
0.0538595
0.0520273
0.0506686
0.0495353
0.0489817
0.0489901
0.0486328
0.117335
0.117648
0.117699
0.117352
0.117302
0.11715
0.116861
0.114262
0.109809
0.104061
0.097234
0.0964347
0.107545
0.11937
0.13033
0.142367
0.15369
0.168827
0.218848
0.0893194
0.0988229
0.0772945
0.0723676
0.0790174
0.082419
0.0859481
0.0805655
0.0685879
0.0597967
0.0531238
0.0488773
0.0468606
0.0453639
0.0441581
0.0428304
0.0421953
0.0414248
0.119928
0.119788
0.121145
0.123331
0.125093
0.126037
0.127356
0.125828
0.122236
0.113998
0.103681
0.092676
0.129993
0.141393
0.14744
0.186621
0.23538
0.328528
0.241315
0.0279615
-0.0518734
0.037959
0.0866556
0.130961
0.106354
0.125221
0.0992865
0.0756445
0.0600857
0.0505521
0.044527
0.041919
0.039886
0.0389945
0.0390008
0.0388708
0.0390574
0.130714
0.132272
0.132295
0.133604
0.135072
0.138212
0.140666
0.141557
0.142933
0.141054
0.142343
0.143666
0.132105
0.13056
0.114602
0.127658
0.233148
0.50894
-0.548017
-2.40471
0.216729
2.95583
0.729894
-0.254073
0.106348
0.190471
0.158281
0.153224
0.120285
0.0976673
0.0716328
0.0564911
0.0484837
0.0427456
0.0389902
0.0366958
0.0345227
0.0330843
0.0308072
0.0312365
0.137933
0.137514
0.1411
0.143259
0.146879
0.153075
0.156732
0.157096
0.16017
0.1661
0.175911
0.174447
0.132816
0.0691147
0.0021359
-0.0735292
-0.181746
0.431422
1.4103
2.96471
0.0304422
-2.72877
-0.658732
0.192149
0.577234
0.37304
0.271246
0.176632
0.104485
0.0824452
0.0711817
0.0599994
0.0496667
0.039216
0.0343039
0.032961
0.0309516
0.0295077
0.030889
0.0283811
0.13924
0.1379
0.143084
0.151493
0.160267
0.166249
0.17117
0.175073
0.182512
0.193505
0.210224
0.2169
0.170171
0.00249569
-0.0989264
-0.442111
-0.926451
-0.666371
4.10717
4.16932
-0.587476
-4.91211
-3.22752
1.95075
1.26954
0.639665
0.32514
0.0984331
0.0443305
0.0442791
0.0490254
0.0448576
0.0375125
0.0310767
0.0264577
0.0241443
0.025985
0.0292381
0.0309955
0.0301431
0.14624
0.153193
0.153843
0.154893
0.158071
0.162547
0.172874
0.191112
0.223456
0.261836
0.292006
0.316182
0.329127
0.295048
0.0694375
0.0263704
-0.755155
-2.33767
-1.10505
-0.416556
0.04562
0.34563
2.37696
2.88265
0.587264
0.245688
-0.0306288
-0.0643994
-0.0562486
-0.0438016
-0.0223917
0.00203305
0.018306
0.0240945
0.0241502
0.0220665
0.019751
0.0166761
0.0147447
0.0189998
0.143264
0.145014
0.148006
0.149384
0.150874
0.15505
0.164386
0.183666
0.216965
0.257328
0.305321
0.362839
0.45671
0.64813
0.666715
0.922417
1.15254
-1.10086
-3.31425
-1.82859
0.560468
3.19582
3.89698
0.323542
-0.893698
-0.516787
-0.369841
-0.182881
-0.112016
-0.0698516
-0.0362146
-0.0109465
0.00792273
0.0162217
0.0180694
0.0178837
0.0161217
0.0151621
0.0162453
0.0161363
0.132696
0.130059
0.132002
0.136664
0.14226
0.1508
0.15843
0.160515
0.165097
0.181867
0.221901
0.276308
0.421444
0.619729
0.79917
1.10471
2.06978
3.88432
3.25829
1.89319
-0.0908705
-2.22372
-4.06362
-4.12037
-1.35227
-0.588397
-0.376548
-0.168568
-0.057237
-0.0189685
0.00290523
0.00778827
0.00595098
0.00516806
0.00931795
0.0144161
0.0173791
0.0197269
0.019567
0.0165117
0.126673
0.126047
0.125884
0.128404
0.133248
0.140713
0.150796
0.157443
0.159092
0.16008
0.172267
0.237967
0.288098
0.458765
0.470037
0.488304
0.90401
2.19427
2.7403
1.34714
-0.677794
-2.44954
-2.75565
-1.17639
0.130159
-0.12655
-0.183806
-0.062924
-0.0394049
-0.00925445
-0.00312691
-0.00446636
-0.00470082
-0.000372349
0.00548015
0.00963948
0.0124382
0.0139384
0.0133839
0.012451
0.116228
0.121143
0.122063
0.121942
0.12348
0.127306
0.137338
0.156175
0.177174
0.187863
0.188544
0.187468
0.155175
0.0709571
0.216371
-0.062766
-1.60628
-2.22867
-1.84043
-0.865453
1.32125
2.79379
3.28727
2.58134
1.09662
0.0563735
0.100648
-0.0252028
-0.0424974
-0.0499639
-0.0483955
-0.0381082
-0.0208883
-0.0051362
0.00225755
0.00404944
0.00381859
0.00297069
0.00373105
0.00878881
0.0989773
0.100804
0.102078
0.103792
0.107405
0.112137
0.11717
0.127613
0.140894
0.155036
0.175054
0.136198
0.194273
0.250028
0.104817
0.786669
-0.0149157
-1.26334
-1.36424
-0.857229
-0.571626
0.162634
0.49336
-0.364275
-0.722468
-0.0939153
-0.18429
-0.127469
-0.0462186
-0.0691424
-0.0487253
-0.0342866
-0.0198201
-0.00823472
-0.00173973
0.00349573
0.00709898
0.0086645
0.00933906
0.0113351
0.0816088
0.0785727
0.080752
0.0845589
0.0890279
0.0922006
0.0897402
0.0807615
0.0700372
0.0625509
0.0698045
0.0545769
0.0578029
0.170001
0.130403
0.43818
0.419373
0.644194
1.6166
1.73215
-0.88087
-0.994044
-0.54708
-0.623406
-0.595762
-0.253313
-0.176274
-0.0244994
0.00013272
-0.00218784
0.0110441
0.0100262
0.00543437
0.00106279
0.000326514
0.00647698
0.0128439
0.0183497
0.0216095
0.0177661
0.0727188
0.0731935
0.0739498
0.0735204
0.0714869
0.0682309
0.061581
0.0465337
0.0322469
0.0109403
0.0019997
0.00385635
-0.0194965
-0.00577012
-0.132407
-0.0370211
0.144824
0.160973
0.577883
0.494967
-0.69016
-0.871212
-0.512187
-0.330436
0.0415627
0.132487
0.00555354
0.0287991
0.0349133
0.0440613
0.0450589
0.0327129
0.0243614
0.0139068
0.0102773
0.00943427
0.00862749
0.00900603
0.0101964
0.0114855
0.0664465
0.070079
0.0660738
0.0599691
0.052891
0.0467641
0.0425087
0.0398258
0.0335429
0.0158861
-0.018237
-0.0187954
-0.115498
-0.196884
-0.451837
-0.602592
-1.02216
-1.45799
-1.81599
-1.27893
0.315618
0.953523
0.935957
0.74357
0.488127
0.409628
0.165031
0.0902271
0.0210076
0.0341987
0.0189033
0.0112091
0.0112009
0.0134944
0.0141404
0.0114497
0.0063693
0.0018864
-0.0013678
0.00395661
0.0520788
0.0474706
0.0440876
0.0410713
0.0374919
0.0345347
0.0329296
0.0323533
0.0347354
0.0158003
-0.0173951
-0.0665042
-0.157041
-0.261013
-0.42813
-0.597871
-0.580894
-0.703947
-1.03031
-0.687386
0.741851
1.10605
0.82121
0.635557
0.418552
0.199847
0.0953847
0.0930636
0.0480089
0.0234644
0.00143582
-0.00739364
0.00223354
0.00921423
0.0132794
0.0148445
0.0153039
0.016086
0.015739
0.0105417
0.0378523
0.0298966
0.0297163
0.0309144
0.0315952
0.0300837
0.0238755
0.0132468
0.00179379
-0.012025
-0.0344926
-0.0469432
-0.0292429
-0.0231389
0.00137827
-0.0675853
0.317662
0.643843
0.859186
0.654957
-0.613704
-0.881128
-0.930447
-0.626056
-0.195238
-0.0976077
0.00608442
0.0144358
0.0426439
0.0401468
0.023004
0.0180838
0.0154731
0.0114105
0.0106022
0.0129603
0.0162295
0.0187211
0.0188608
0.0113775
0.0373298
0.0418242
0.0404664
0.0372412
0.0328676
0.0271618
0.0168002
-0.000503233
-0.020116
-0.0303397
-0.0353926
-0.0158856
0.0209821
0.0398938
0.164377
0.150252
0.242173
0.436728
0.707852
0.509173
-1.12566
-1.27946
-0.869127
-0.535427
-0.208457
-0.114141
-0.0159161
-0.0396271
0.00529573
0.022417
0.0313164
0.031589
0.0188018
0.00630811
0.000467466
-0.00213437
-0.00461355
-0.00620982
-0.00613967
-0.000510743
0.0327554
0.0421011
0.0412081
0.0359411
0.0286386
0.0211672
0.0146488
0.00971517
0.00167492
-0.00124936
0.00753006
-0.0512042
-0.0667771
-0.126846
-0.155428
-0.180441
-0.470033
-0.51441
-0.504427
-0.237208
0.282164
0.606613
0.669046
0.617511
0.229277
0.057915
-0.0161429
-0.0225495
0.00167615
-0.0220801
-0.00110448
0.00146681
-0.00143305
-0.000467357
-0.0028097
-0.0065225
-0.0104372
-0.0125633
-0.0111808
-0.00130264
0.0138481
0.00990336
0.0102119
0.0106831
0.010724
0.0104824
0.012771
0.0197686
0.0250004
0.0210259
0.0165714
-0.0298131
-0.0557419
-0.0637223
-0.165227
-0.218013
-0.518183
-0.759737
-0.906353
-0.586288
0.731117
0.962687
0.665451
0.388387
0.0563623
0.0383516
0.00798448
0.0207811
0.0101571
-0.0168176
-0.0193789
-0.0204309
-0.0101218
0.00152216
0.00797094
0.0106738
0.012638
0.0141689
0.0147639
0.0112454
0.00687982
-0.00368581
-0.00619653
-0.00504496
-0.00166323
0.00155065
0.00328186
0.00818884
0.0120267
0.00884828
0.0141883
0.016383
0.0331055
0.0823944
0.109139
0.226418
0.368165
0.321711
0.0743176
-0.0519721
-0.426049
-0.560244
-0.726105
-0.714912
-0.455966
-0.181745
-0.0812193
-0.0258363
-0.0244504
-0.0156363
-0.0121039
-0.00948032
0.000409171
0.00710263
0.0119766
0.0166592
0.0216357
0.0242204
0.022922
0.0125923
0.0183523
0.0185935
0.0160183
0.0128317
0.0101809
0.0072471
0.00189483
-0.00564432
-0.0108611
-0.00878532
-0.00357066
0.0152195
0.021217
0.0506945
0.129393
0.28205
0.6282
0.785051
0.909283
0.529049
-0.769846
-1.05958
-0.820647
-0.599351
-0.2095
-0.0978134
-0.0844756
-0.0731921
-0.0565374
-0.0186791
0.000963442
0.00954982
0.00834051
0.0022432
-0.000963991
-0.00205957
-0.00263369
-0.00363364
-0.00461501
-0.00447352
0.0185514
0.0274685
0.0294172
0.0270816
0.0217039
0.0151519
0.00824595
-0.000526812
-0.00941637
-0.00352273
-0.0123062
-0.0185894
-0.0267103
-0.0799825
-0.142523
-0.278248
-0.286694
-0.193532
0.00906099
0.101039
0.0197561
0.0837473
0.259473
0.335826
0.269315
0.0617791
-0.00423904
-0.023629
-0.010686
0.0047382
0.00510607
0.012281
0.00369203
-0.0043511
-0.0092086
-0.0145085
-0.0198667
-0.022139
-0.0209711
-0.0104126
0.00102124
0.00382292
0.00452959
0.00450162
0.00335873
0.00245178
0.0029093
0.00506049
0.00332663
0.00462107
-0.0107521
-0.0126762
-0.00351602
-0.0578641
-0.185591
-0.405162
-0.811476
-0.962487
-1.00561
-0.755704
0.480377
0.725971
0.674047
0.51129
0.175042
0.0438664
0.0447824
0.0321081
0.0294563
0.0139831
-0.0112388
-0.00706447
-0.00547626
-0.00156399
0.000852899
0.00091153
0.000509314
0.00135593
0.00302716
0.00525829
-0.00947793
-0.0180585
-0.0211413
-0.0206903
-0.0178037
-0.0142098
-0.0101528
-0.00312704
-0.00119499
-0.00773264
-0.00935693
-0.0234716
-0.00826447
0.0373734
0.123093
0.186006
0.0660782
-0.0719606
-0.28303
-0.300668
0.00478071
0.0299606
-0.0566519
-0.147071
-0.185013
-0.0955056
-0.039584
-0.028703
-0.0131757
-0.0146595
-0.00947662
-0.00885478
-0.00298817
0.00606415
0.013374
0.0187568
0.0231317
0.0250964
0.0229885
0.0138975
-0.00180057
-0.00791448
-0.00969819
-0.0100048
-0.00907035
-0.00916061
-0.0106777
-0.0127779
-0.0122045
-0.0180189
-0.0116234
-0.0205185
-0.0440502
0.00429217
0.139252
0.362828
0.621794
0.72059
0.752995
0.528525
-0.390292
-0.643522
-0.68109
-0.583689
-0.320324
-0.160774
-0.0673733
-0.0165875
-0.0174044
-0.00881464
0.00713514
0.00481298
0.00721571
0.00584982
0.00610492
0.007358
0.00847143
0.00776967
0.00554547
0.000359296
0.00909747
0.015404
0.016948
0.0153179
0.0113397
0.006751
-0.00111413
-0.0112294
-0.0171888
-0.0186863
-0.0239826
-0.034678
-0.0807906
-0.156333
-0.261939
-0.274533
-0.138178
-0.00180742
0.156986
0.154103
-0.240913
-0.298258
-0.16374
-0.04673
0.0884873
0.102887
0.0806208
0.0589039
0.0346772
0.0256304
0.0168577
0.0127265
0.00739592
-0.00273346
-0.00952847
-0.0144049
-0.0183932
-0.0202438
-0.0186386
-0.011833
0.00314862
0.0113841
0.012655
0.0110274
0.00718316
0.00341229
-0.0017332
-0.00886343
-0.0179596
-0.0211816
-0.0378605
-0.0508534
-0.0786687
-0.163953
-0.347661
-0.59226
-0.787662
-0.843931
-0.89895
-0.771889
0.455946
0.605816
0.658909
0.64142
0.514108
0.314887
0.150064
0.0691238
0.0419677
0.0275468
0.00639606
0.00749045
0.0018538
-0.00391614
-0.00789628
-0.0113116
-0.0140223
-0.0137135
-0.0112591
-0.00420536
-0.0131651
-0.0176016
-0.0189067
-0.0181796
-0.0168256
-0.0145745
-0.0111772
-0.00825421
-0.00973578
-0.012409
-0.0255778
-0.0377436
-0.0258759
0.0176913
0.0361778
-0.0545561
-0.257082
-0.388826
-0.502206
-0.360343
0.302764
0.429639
0.363267
0.285296
0.121423
0.0254394
-0.00871261
-0.00793889
0.00228856
0.00315298
-0.00096517
0.000532899
0.000134088
0.00436251
0.00845367
0.011163
0.012944
0.0134502
0.0115864
0.00673989
-0.0128972
-0.0230349
-0.0254351
-0.0243052
-0.0210427
-0.0170096
-0.0128808
-0.00954225
-0.0059093
-0.00675789
0.00587744
0.00260186
0.00331299
0.0639452
0.201928
0.355859
0.470797
0.497209
0.489967
0.309305
-0.35319
-0.540423
-0.565378
-0.548258
-0.462981
-0.321942
-0.157257
-0.0462441
-0.00832976
-0.0059376
0.00235052
0.00158073
0.00104905
0.00397411
0.00822327
0.0116352
0.0143165
0.0145173
0.0116421
0.00311252
0.00213148
0.00420294
0.00463249
0.00408821
0.00297942
0.00122655
-0.00198614
-0.00613489
-0.00815314
-0.0100225
-0.00321588
-0.0113018
-0.0252565
-0.0476908
-0.0232219
0.0729511
0.22439
0.327084
0.369748
0.247142
-0.523751
-0.648732
-0.457455
-0.376458
-0.194934
-0.0671723
0.0142458
0.021067
0.0107277
-0.00416348
-0.00362302
-0.00536359
-0.00570963
-0.00912656
-0.0121719
-0.0137046
-0.0141491
-0.0136771
-0.0118837
-0.0102066
0.00501785
0.0148857
0.0179929
0.0173628
0.0138788
0.0100047
0.00523247
-0.00125175
-0.007105
-0.0128088
-0.0245295
-0.0412648
-0.0675325
-0.149703
-0.270571
-0.373016
-0.465064
-0.473208
-0.450999
-0.296381
0.138982
0.300056
0.423092
0.453772
0.4063
0.311474
0.170521
0.0467272
0.0054859
-0.00632516
-0.00952887
-0.0089621
-0.0115156
-0.0168642
-0.0199674
-0.0242126
-0.0270952
-0.0278897
-0.0250055
-0.0151497
-0.00869678
-0.00787621
-0.00774881
-0.00750527
-0.00750703
-0.00676625
-0.00526125
-0.00468484
-0.00355761
9.86094e-05
-0.00618226
0.0012178
-0.0023457
-0.0403869
-0.137502
-0.269825
-0.440227
-0.521841
-0.546782
-0.36638
0.276162
0.452201
0.431436
0.364539
0.200252
0.0578266
-0.035285
-0.0497207
-0.0279682
-0.010044
-0.0109154
-0.00983406
-0.00919455
-0.00786791
-0.00555479
-0.0050598
-0.00560642
-0.00604083
-0.00675997
-0.00532741
-0.0159018
-0.0251869
-0.0284893
-0.0279398
-0.0247046
-0.0201385
-0.0135831
-0.00812266
-0.00164748
0.010283
0.0253305
0.0429708
0.0827556
0.169984
0.271046
0.314665
0.319751
0.291264
0.211451
0.0972368
-0.335714
-0.409287
-0.437934
-0.472213
-0.4619
-0.399871
-0.268852
-0.131034
-0.0586685
-0.0365219
-0.0222817
-0.0185285
-0.0114617
-0.0024495
0.00501593
0.00951038
0.0135492
0.0147737
0.0123485
0.0025876
-0.00662542
-0.0105956
-0.0114809
-0.0111055
-0.00955238
-0.00758555
-0.00569272
-0.00293588
0.00157131
0.00418249
0.0135355
0.024724
0.050426
0.136697
0.282051
0.42194
0.569908
0.598516
0.533001
0.342079
-0.417941
-0.64894
-0.681282
-0.622174
-0.414106
-0.258558
-0.115052
-0.04805
-0.045174
-0.0427254
-0.0294493
-0.0231638
-0.0148285
-0.0109262
-0.00836345
-0.00649698
-0.00421967
-0.00305259
-0.00334124
-0.0076691
0.00137932
0.00868702
0.0120828
0.012683
0.0105838
0.00728015
0.00301604
-0.000727603
0.000328965
-0.00374111
-0.027697
-0.0386453
-0.0737285
-0.151576
-0.186835
-0.191725
-0.154475
-0.127338
-0.107968
-0.0659991
0.0979867
0.116516
0.0992371
0.146459
0.20067
0.181824
0.133938
0.0383403
0.0021321
-0.00338404
-0.0175813
-0.0158984
-0.0140465
-0.0195153
-0.0248241
-0.0287584
-0.0311517
-0.0318393
-0.0296213
-0.0204583
-0.00497977
0.00128896
0.00249741
0.00149975
-0.00124326
-0.00403261
-0.00772102
-0.0116085
-0.0156872
-0.0176873
-0.0307363
-0.0435623
-0.0833951
-0.194978
-0.338286
-0.471032
-0.598811
-0.631839
-0.614532
-0.419481
0.286479
0.504196
0.506372
0.469495
0.336001
0.202354
0.0782892
0.00660539
0.0119742
0.0125575
-0.000570156
-0.0041002
-0.00978933
-0.014014
-0.0169336
-0.019218
-0.0211344
-0.021653
-0.0199003
-0.0132266
-0.0169126
-0.0223368
-0.0255856
-0.0268104
-0.0262997
-0.0245456
-0.021186
-0.0213779
-0.0231327
-0.0239496
-0.0117729
0.0043252
0.0466697
0.100182
0.101358
0.0654444
-0.0104792
-0.062327
-0.0759617
-0.0515943
-0.101278
-0.074092
-0.0821754
-0.123457
-0.159408
-0.168653
-0.145319
-0.0792719
-0.0393866
-0.0255269
-0.011505
-0.00586741
-0.00303595
0.00015874
0.00422701
0.00734799
0.00940134
0.00918159
0.00673214
9.61895e-05
-0.0170862
-0.025646
-0.0277579
-0.0271201
-0.0242537
-0.0211082
-0.0166242
-0.0136978
-0.00991328
-0.0148978
-0.0052451
0.00678686
0.0515167
0.165797
0.302079
0.410241
0.498813
0.502289
0.473741
0.290071
-0.278512
-0.510593
-0.574432
-0.548742
-0.435224
-0.315329
-0.190569
-0.086497
-0.0490471
-0.0328909
-0.0174521
-0.0148938
-0.00927289
-0.00340237
0.00115208
0.00379001
0.00627191
0.00637939
0.00364346
-0.00447248
-0.00490667
-0.00225603
-0.000239616
0.000523972
-0.00012793
-0.00216049
-0.00469696
-0.00637095
-0.0069432
-0.0155203
-0.037837
-0.0663539
-0.119564
-0.154496
-0.136634
-0.0883583
0.00149278
0.0547709
0.0495697
-0.0080133
-0.0447151
-0.106583
-0.113597
-0.0614888
0.00387482
0.0435182
0.0651049
0.0469889
0.0237504
0.00953742
-0.00807284
-0.0152076
-0.0175434
-0.0192303
-0.0219002
-0.0239593
-0.0248443
-0.0244702
-0.0224616
-0.0186116
-0.000916269
0.00874721
0.0110028
0.0101826
0.00614505
0.000740386
-0.0068627
-0.0161049
-0.0226233
-0.0294127
-0.0591184
-0.0944617
-0.169513
-0.300336
-0.427722
-0.523035
-0.613371
-0.608927
-0.553902
-0.378325
0.235794
0.433977
0.518179
0.53115
0.445608
0.360174
0.246546
0.126529
0.0629966
0.0301596
0.0035115
-0.00670645
-0.0121372
-0.0189376
-0.0254272
-0.029841
-0.0322456
-0.0320863
-0.0287794
-0.0195286
-0.0136229
-0.0137283
-0.0144986
-0.0151235
-0.0158075
-0.0164079
-0.0181781
-0.0231163
-0.0292355
-0.0328242
-0.0303374
-0.0187545
-0.00126097
-0.0245071
-0.0911307
-0.173802
-0.278069
-0.326565
-0.272057
-0.119051
0.0653823
0.198147
0.243931
0.206691
0.134068
0.0747812
0.0196361
-0.00736394
-0.00737578
-0.00595541
0.000499561
-0.000439396
-0.00224731
-0.00498965
-0.0056465
-0.00560409
-0.00588393
-0.00667394
-0.00787689
-0.00850673
-0.0208562
-0.030837
-0.0335446
-0.0332074
-0.0298525
-0.0252258
-0.0191008
-0.0167941
-0.0119462
-0.007993
0.0098498
0.030637
0.0897598
0.189915
0.282497
0.344924
0.398989
0.374786
0.320299
0.174522
-0.228946
-0.390561
-0.443142
-0.458071
-0.420982
-0.344811
-0.258301
-0.151355
-0.0761676
-0.0457591
-0.0211257
-0.0140739
-0.00823761
-0.00609997
0.000183384
0.00480644
0.00777907
0.00719025
0.00377708
-0.00479237
-0.00950133
-0.0116449
-0.0120949
-0.0116591
-0.0101925
-0.00834516
-0.00593413
-0.00203686
0.00254511
0.00261907
0.00502351
-0.00354988
-0.00949642
0.029163
0.0961769
0.166465
0.252401
0.281266
0.21143
0.0434639
-0.174667
-0.345397
-0.383207
-0.324248
-0.242346
-0.168711
-0.10107
-0.0499184
-0.0323318
-0.0357947
-0.0351662
-0.0332861
-0.0290581
-0.0241652
-0.02002
-0.0180136
-0.0153287
-0.0134349
-0.0124884
-0.0145066
0.000284247
0.00888195
0.0124164
0.0129453
0.0111845
0.00824035
0.00386395
0.00021811
-0.00445687
-0.0136303
-0.0385852
-0.0643408
-0.127342
-0.220108
-0.289831
-0.353468
-0.384315
-0.365892
-0.328858
-0.212596
0.0929658
0.208079
0.271021
0.312829
0.309572
0.277069
0.198264
0.112174
0.0368977
-0.00109667
-0.0203252
-0.0271694
-0.0289188
-0.0303754
-0.0328016
-0.0353377
-0.0368049
-0.0356329
-0.0318344
-0.0234129
-0.00767071
-0.00282144
-0.00132492
-0.00152556
-0.00326758
-0.00588092
-0.00981955
-0.0149685
-0.0182112
-0.0213355
-0.031566
-0.0388316
-0.06713
-0.131439
-0.209251
-0.286126
-0.359704
-0.390789
-0.330689
-0.16221
0.0580565
0.236291
0.310732
0.26967
0.212992
0.143518
0.071584
0.0128134
-0.00988073
-0.00591141
-0.00873292
-0.00985955
-0.0101839
-0.0142761
-0.0176852
-0.0200972
-0.0222457
-0.0231423
-0.0225996
-0.0175428
-0.0188245
-0.0251401
-0.0283474
-0.029282
-0.0281794
-0.0258719
-0.0232248
-0.0215673
-0.0143065
-0.00338324
0.0180616
0.0545417
0.114796
0.182178
0.234149
0.278825
0.279164
0.239318
0.168682
0.0562544
-0.17906
-0.291442
-0.332646
-0.351213
-0.359898
-0.329049
-0.273733
-0.195894
-0.111277
-0.0588105
-0.0325102
-0.0174913
-0.00915605
-0.00566973
-0.00147656
0.00237627
0.0043736
0.00426105
0.00140969
-0.00540957
-0.0152035
-0.0219725
-0.0244271
-0.0243188
-0.0216158
-0.017988
-0.0125094
-0.00666245
0.000793057
0.0118496
0.0315004
0.0597937
0.120716
0.212293
0.298389
0.37973
0.424682
0.434206
0.326377
0.0882229
-0.157024
-0.394009
-0.509271
-0.485007
-0.422108
-0.330762
-0.233105
-0.14066
-0.0844442
-0.064103
-0.0465599
-0.0345668
-0.0240581
-0.0164064
-0.0101534
-0.00460667
-0.000763229
0.00052419
-0.000750333
-0.00780616
-0.00471784
-0.000983498
0.00156074
0.00296439
0.0028993
0.00208253
0.00162538
0.00260708
0.00132771
-0.00650721
-0.0222123
-0.0494762
-0.0894711
-0.124216
-0.146926
-0.158976
-0.155972
-0.117111
-0.103128
-0.0867358
0.0266069
0.0680242
0.0811009
0.110161
0.124445
0.11932
0.106632
0.0739899
0.0252953
-0.0102628
-0.0238968
-0.0298634
-0.026815
-0.0260586
-0.0272804
-0.0279419
-0.0286202
-0.0281354
-0.0259966
-0.0209037
-0.00429841
0.00319444
0.00580888
0.00574359
0.00273488
-0.00193155
-0.00833349
-0.0150435
-0.0215028
-0.0360348
-0.059322
-0.0979887
-0.17063
-0.255876
-0.337847
-0.411427
-0.446697
-0.465596
-0.372477
-0.186584
0.0569391
0.275521
0.389341
0.365539
0.329204
0.253398
0.17392
0.0966107
0.0415736
0.0193264
0.00508959
-0.00539103
-0.011456
-0.0180974
-0.0231468
-0.0277091
-0.0307407
-0.0309047
-0.0282669
-0.019887
-0.0141514
-0.0152982
-0.0176257
-0.0199982
-0.0220136
-0.0242459
-0.0283773
-0.0333095
-0.0355573
-0.0336376
-0.0282886
-0.00387512
0.0184878
0.0299374
0.0310758
0.0254318
0.00828114
-0.0414574
-0.0461796
-0.0371683
-0.0904
-0.0698107
-0.0767032
-0.111787
-0.12368
-0.118044
-0.106889
-0.0798257
-0.0446519
-0.012814
-0.00320382
0.00360373
0.00272058
0.000737339
-0.000221212
-0.000342611
-0.000747227
-0.00171406
-0.00317681
-0.00597756
-0.0186913
-0.02696
-0.0303279
-0.031017
-0.029337
-0.0266313
-0.0250926
-0.0225242
-0.0183071
-0.00563723
0.0127353
0.0541636
0.126023
0.200718
0.269511
0.322673
0.341807
0.335569
0.239903
0.0704316
-0.136697
-0.300187
-0.406688
-0.43655
-0.397909
-0.323132
-0.238896
-0.155663
-0.0863444
-0.0437944
-0.0249466
-0.0114883
-0.00497273
0.000799116
0.00481192
0.00838067
0.0105472
0.00974499
0.00609689
-0.00239172
-0.00982595
-0.0112934
-0.0107077
-0.00958244
-0.00838678
-0.00698546
-0.0049124
-0.00275963
-0.00422261
-0.00981118
-0.0213148
-0.0489829
-0.0678602
-0.0756966
-0.0704369
-0.0598125
-0.0403011
-0.00189261
-0.0147635
-0.048108
-0.0371269
-0.0500395
-0.0408857
-0.00590434
0.0145131
0.0229711
0.0270603
0.0212071
0.008153
-0.00996698
-0.0171945
-0.021197
-0.0206055
-0.0180484
-0.0162828
-0.0152371
-0.0142478
-0.0134218
-0.0128652
-0.0128328
-0.000326073
0.00712765
0.00995936
0.00995432
0.00702219
0.00322537
-0.00200106
-0.00799133
-0.0179879
-0.04074
-0.0732261
-0.138581
-0.222608
-0.308428
-0.387993
-0.452767
-0.485198
-0.445549
-0.333918
-0.15833
0.0260585
0.240868
0.354058
0.416032
0.394891
0.343084
0.265807
0.181685
0.102039
0.0399164
0.0142328
-0.00547621
-0.0144338
-0.0216866
-0.0266304
-0.0296217
-0.0313156
-0.0302306
-0.0264309
-0.0183018
-0.00541801
-0.00205526
-0.00176942
-0.00308047
-0.00571114
-0.00962382
-0.0159368
-0.0243854
-0.0326029
-0.0418077
-0.0472145
-0.0529663
-0.0737087
-0.105566
-0.146381
-0.183165
-0.214088
-0.22087
-0.165296
-0.0866476
-0.0186868
0.0706522
0.112538
0.110853
0.0993592
0.0861078
0.064265
0.0459506
0.0296845
0.0229695
0.0182785
0.0108422
0.00430626
-0.00254192
-0.00776669
-0.0107584
-0.0126583
-0.0130175
-0.012283
-0.00951525
-0.0142157
-0.0207188
-0.0235755
-0.0242762
-0.0232115
-0.0212738
-0.0206292
-0.020029
-0.0170179
-0.00566919
0.0130173
0.0600364
0.124424
0.183701
0.234037
0.276701
0.29581
0.247814
0.151454
0.0125613
-0.124422
-0.235782
-0.326473
-0.378128
-0.34035
-0.29544
-0.235439
-0.167544
-0.0994108
-0.0416169
-0.0168629
-0.00258497
0.00300524
0.00521526
0.00779151
0.00944594
0.0101977
0.00899106
0.00563173
-0.000701437
-0.00813031
-0.0131255
-0.0148816
-0.0147126
-0.0127761
-0.00945413
-0.0043841
0.00232144
0.00795479
0.0178024
0.0232703
0.0359527
0.0622985
0.0915065
0.121653
0.144595
0.162971
0.143144
0.0801289
-0.00684253
-0.0929256
-0.176771
-0.217816
-0.218745
-0.186137
-0.163473
-0.131934
-0.101115
-0.0703496
-0.0494285
-0.0402925
-0.0286966
-0.0208077
-0.0128466
-0.00682111
-0.00253648
0.00028622
0.00115573
6.00365e-07
-0.00458348
0.00395932
0.00878734
0.0114116
0.012659
0.012557
0.0122761
0.0123588
0.0123399
0.00844888
-0.00226676
-0.020991
-0.0681511
-0.131873
-0.196497
-0.253429
-0.305338
-0.335399
-0.288907
-0.202571
-0.116952
0.0118673
0.0958997
0.190362
0.254434
0.244575
0.215587
0.174109
0.116931
0.0574018
0.00646732
-0.0150722
-0.0249803
-0.0283138
-0.0253426
-0.0244446
-0.0239999
-0.0231827
-0.0212133
-0.0180321
-0.0133836
0.00371146
0.00982536
0.0126851
0.013402
0.0119551
0.00922959
0.00417067
-0.00145293
-0.00930195
-0.0222481
-0.0382408
-0.0714664
-0.117625
-0.16387
-0.204756
-0.238749
-0.279645
-0.255833
-0.187539
-0.112997
-0.0162286
0.0596438
0.143936
0.180457
0.147063
0.135249
0.107381
0.0787911
0.0450656
0.020459
0.0111422
-8.35504e-05
-0.00621138
-0.0109105
-0.0154442
-0.0182535
-0.0202243
-0.0200243
-0.0178597
-0.0117045
-0.00520873
-0.00771119
-0.00939681
-0.0103428
-0.0106647
-0.0112969
-0.0125605
-0.01345
-0.0109301
-0.00260961
0.0150293
0.0539917
0.104939
0.154766
0.200858
0.228787
0.229314
0.161243
0.0697495
-0.0197503
-0.10783
-0.208574
-0.271717
-0.316562
-0.307612
-0.268852
-0.222684
-0.163708
-0.0987632
-0.0444058
-0.0153047
-0.00162319
0.00522759
0.00523336
0.0047274
0.00500676
0.00506913
0.0042368
0.00235921
-0.000444151
-0.00583982
-0.0126923
-0.0158085
-0.0166551
-0.0148776
-0.0119774
-0.00699002
0.000118886
0.012315
0.0332036
0.0594905
0.108307
0.170559
0.223576
0.261483
0.276696
0.313456
0.244214
0.13579
0.0269541
-0.110538
-0.23198
-0.337487
-0.384511
-0.351825
-0.310259
-0.252943
-0.189457
-0.123347
-0.0734076
-0.0457557
-0.0235695
-0.00924593
-0.00232802
0.00493155
0.0093878