/*--------------------------------*- C++ -*----------------------------------*\
| =========                 |                                                 |
| \\      /  F ield         | OpenFOAM: The Open Source CFD Toolbox           |
|  \\    /   O peration     | Version:  v2106                                 |
|   \\  /    A nd           | Website:  www.openfoam.com                      |
|    \\/     M anipulation  |                                                 |
\*---------------------------------------------------------------------------*/
FoamFile
{
    version     2.0;
    format      ascii;
    arch        "LSB;label=32;scalar=64";
    class       volVectorField;
    location    "0";
    object      U;
}
// * * * * * * * * * * * * * * * * * * * * * * * * * * * * * * * * * * * * * //

dimensions      [0 1 -1 0 0 0 0];

internalField   nonuniform List<vector> 
11644
(
(-0.00167959 1.13992e-07 6.62268e-22)
(-0.00167952 9.98997e-06 1.82634e-21)
(-0.00168816 6.04817e-06 9.79876e-22)
(-0.00171176 1.70228e-05 0)
(-0.00171846 5.71799e-05 0)
(-0.00170182 0.000116692 0)
(-0.00168461 0.000193219 0)
(-0.0016855 0.000293015 0)
(-0.00168128 0.000424281 0)
(-0.00170129 0.000581941 0)
(-0.0017669 0.00076714 0)
(-0.00183028 0.00099214 0)
(-0.00173698 0.0012357 0)
(-0.0017818 0.00150272 0)
(-0.00187339 0.00185493 0)
(-0.00180879 0.00197863 0)
(-0.00216436 0.00244269 0)
(-0.0023519 0.00324332 0)
(-0.00204859 0.00393378 0)
(-0.00150338 0.00414786 9.06096e-31)
(-0.00108296 0.00411319 -9.33715e-31)
(-0.000915645 0.00369292 0)
(-0.00119353 0.0031021 0)
(-0.00154316 0.00269381 0)
(-0.00166911 0.00244953 0)
(-0.00178933 0.00218593 0)
(-0.0020187 0.00181922 0)
(-0.00180771 0.0015259 0)
(-0.00169777 0.00121992 0)
(-0.00170439 0.00094632 0)
(-0.0016776 0.000708742 0)
(-0.00167079 0.00050997 0)
(-0.00166361 0.000354796 0)
(-0.0016622 0.000236938 0)
(-0.00165319 0.000138816 0)
(-0.00165481 7.05451e-05 0)
(-0.00166397 2.76665e-05 0)
(-0.00168561 -1.38288e-07 0)
(-0.00169401 -2.34227e-06 0)
(-0.00168814 -1.20973e-05 1.28407e-22)
(-0.00166313 -3.56391e-07 8.50678e-22)
(-0.00169303 -4.44501e-05 7.88001e-22)
(-0.00170914 -1.60455e-05 4.2321e-22)
(-0.00175322 -6.25736e-06 0)
(-0.00179768 3.34262e-05 0)
(-0.00187437 0.000112511 0)
(-0.00196224 0.000272071 0)
(-0.00204525 0.000523132 0)
(-0.00215026 0.000865731 0)
(-0.00224288 0.00133059 0)
(-0.0022028 0.00193194 0)
(-0.0022626 0.00256253 0)
(-0.00246564 0.00333568 0)
(-0.00255861 0.00422568 0)
(-0.00240694 0.0051127 0)
(-0.00264489 0.00632067 -1.31574e-23)
(-0.0027151 0.00736831 1.35041e-22)
(-0.00251548 0.00811024 7.66998e-22)
(-0.0021083 0.0087608 8.59243e-22)
(-0.00173429 0.00946136 1.8978e-21)
(-0.00138016 0.00981137 -4.25573e-21)
(-0.00105616 0.00978453 2.4369e-21)
(-0.000707311 0.00929234 -1.7117e-21)
(-0.00055421 0.00828598 -1.70065e-22)
(-0.00050749 0.00708612 6.98619e-24)
(-0.000452348 0.0059095 0)
(-0.000144916 0.00484627 0)
(-0.000395508 0.00385803 0)
(-0.000792131 0.00302466 0)
(-0.000948043 0.00229734 0)
(-0.00104883 0.00165771 0)
(-0.00121108 0.00116016 0)
(-0.00134964 0.000775408 0)
(-0.00144745 0.000488394 0)
(-0.00153693 0.000286475 0)
(-0.00162633 0.000156791 0)
(-0.00167087 7.45022e-05 0)
(-0.00171351 2.97464e-05 0)
(-0.00171312 -3.49375e-05 0)
(-0.00171562 5.89924e-06 0)
(-0.00153059 -0.000118912 0)
(-0.00159266 -0.000198658 0)
(-0.00171344 -0.000335058 0)
(-0.00181286 -0.000370396 0)
(-0.00191828 -0.000360002 7.77079e-22)
(-0.00207167 -0.000301982 0)
(-0.00225771 -0.000144088 0)
(-0.00247944 0.000132241 0)
(-0.00272004 0.000577726 0)
(-0.00300049 0.00119196 0)
(-0.00345982 0.00194718 0)
(-0.00368485 0.00299855 0)
(-0.00379152 0.00421843 -3.84533e-25)
(-0.00381308 0.00561733 -1.26619e-21)
(-0.00421945 0.00728632 -1.68728e-21)
(-0.00430056 0.00894206 4.64076e-21)
(-0.00409149 0.0103387 1.22168e-20)
(-0.00362754 0.0112874 5.41552e-22)
(-0.0031842 0.0123703 -1.65887e-20)
(-0.0024847 0.0133737 3.32398e-21)
(-0.00160629 0.0137618 -1.82143e-20)
(-0.000737978 0.0136016 1.29658e-20)
(8.43819e-05 0.0130044 1.77926e-20)
(0.000766605 0.0118409 -1.11352e-20)
(0.00112005 0.0102099 -5.80029e-21)
(0.00138769 0.00844103 2.283e-21)
(0.00112098 0.00667477 1.01423e-21)
(0.0010567 0.00515781 1.16654e-23)
(0.00104359 0.00372001 0)
(0.000627887 0.00259889 0)
(4.26285e-05 0.0018029 0)
(-0.000346628 0.00112928 0)
(-0.000702014 0.000647919 0)
(-0.000993713 0.00030952 0)
(-0.00123613 6.51739e-05 0)
(-0.00140098 -0.000105698 0)
(-0.00152345 -0.000210865 0)
(-0.00162053 -0.000228837 0)
(-0.00171174 -0.00011679 0)
(-0.00172762 -0.000104644 0)
(-0.00127025 -5.66141e-05 0)
(-0.0013558 -0.000438665 0)
(-0.00148213 -0.000668973 0)
(-0.00164751 -0.000896003 0)
(-0.00188686 -0.0011038 0)
(-0.00216132 -0.00120253 0)
(-0.00248791 -0.00117836 0)
(-0.00285575 -0.0010127 0)
(-0.00331424 -0.000665029 0)
(-0.00387339 -8.40445e-05 0)
(-0.00422046 0.000926394 -1.31273e-23)
(-0.00474915 0.00215078 -3.11342e-21)
(-0.00532249 0.00376167 6.05774e-21)
(-0.00639024 0.00558623 9.69672e-21)
(-0.00683358 0.00738243 2.09793e-21)
(-0.00695498 0.00956876 -2.21651e-20)
(-0.00637867 0.0112033 -5.75401e-21)
(-0.00580291 0.0125061 1.49547e-20)
(-0.00488078 0.0139202 -2.65232e-20)
(-0.00335985 0.0150902 1.90581e-20)
(-0.00148882 0.0154694 9.62554e-21)
(0.00031088 0.0153744 1.82838e-20)
(0.00169159 0.0148365 -3.63223e-20)
(0.00322597 0.0134442 1.71952e-20)
(0.00441942 0.0116427 9.69278e-21)
(0.00476941 0.00933951 -1.25201e-21)
(0.00467207 0.00692831 -7.08702e-21)
(0.00390697 0.00481299 -3.79246e-21)
(0.00283521 0.00316621 -5.29852e-22)
(0.00209445 0.00179633 -4.12025e-24)
(0.00148282 0.000787109 0)
(0.000676692 0.000243862 0)
(2.734e-05 -0.000150808 0)
(-0.000496536 -0.000411114 0)
(-0.000942646 -0.000536315 0)
(-0.00127683 -0.000560469 0)
(-0.00154342 -0.000474946 0)
(-0.00172853 -0.000343143 0)
(-0.00184482 -0.000225061 0)
(-0.00191619 7.02999e-05 0)
(-0.00088157 -0.000360307 0)
(-0.000956523 -0.000735675 0)
(-0.00109047 -0.00115693 0)
(-0.00130304 -0.00163552 0)
(-0.00158851 -0.00204528 0)
(-0.00196112 -0.00240453 0)
(-0.00241541 -0.00267972 0)
(-0.00294444 -0.00279676 0)
(-0.00358656 -0.00270725 0)
(-0.00425594 -0.00225183 -4.62869e-22)
(-0.00538534 -0.00132267 -3.05489e-22)
(-0.00692809 0.000222235 1.08536e-21)
(-0.00866365 0.00197001 -1.62471e-20)
(-0.00936417 0.00408612 -2.79449e-21)
(-0.00986363 0.00613253 -7.98189e-21)
(-0.0108046 0.0085158 4.60126e-20)
(-0.00994567 0.0104452 -2.92973e-23)
(-0.00760916 0.0115542 -1.46109e-20)
(-0.00596375 0.0130007 2.32036e-20)
(-0.00389248 0.0141106 -3.69468e-20)
(-0.0010884 0.0146049 8.11586e-20)
(0.00150479 0.0148714 -2.57687e-20)
(0.00339509 0.0144148 -3.00948e-20)
(0.00629947 0.013268 7.33852e-23)
(0.00778916 0.0111337 -4.70728e-20)
(0.00834776 0.00868843 1.01693e-20)
(0.00810305 0.00607605 1.51546e-20)
(0.00679225 0.00359105 6.4121e-21)
(0.00541536 0.0014103 -1.46567e-21)
(0.00363385 -1.58084e-05 4.47212e-23)
(0.00225266 -0.000847096 3.8006e-22)
(0.00133877 -0.00132599 0)
(0.000415368 -0.00145264 0)
(-0.000357666 -0.00142733 0)
(-0.000987402 -0.00129839 0)
(-0.00146465 -0.00111221 0)
(-0.00180711 -0.000920123 0)
(-0.00203688 -0.000667627 0)
(-0.00218587 -0.000433092 0)
(-0.0022709 -0.000335727 0)
(-0.000203421 -0.000314521 0)
(-0.000319239 -0.00109576 0)
(-0.000502916 -0.00203955 0)
(-0.000729037 -0.00274398 0)
(-0.00107101 -0.00345027 0)
(-0.00148803 -0.00408969 0)
(-0.00200177 -0.00468519 0)
(-0.00267105 -0.00521553 0)
(-0.00350005 -0.00552543 -6.4974e-22)
(-0.00498101 -0.00541186 -4.99645e-21)
(-0.00751692 -0.00468373 4.50419e-21)
(-0.010272 -0.00319838 -4.94109e-21)
(-0.0120393 -0.000628376 1.36195e-20)
(-0.0140776 0.0017888 -1.65096e-20)
(-0.014077 0.003411 -1.09582e-20)
(-0.0123899 0.00547587 1.78698e-20)
(-0.0110689 0.00749464 -3.29571e-21)
(-0.00920103 0.00895378 -1.63687e-20)
(-0.0068949 0.00984854 4.15021e-20)
(-0.00459448 0.0109922 -1.09695e-19)
(-0.00101909 0.0122541 3.99438e-20)
(0.00172185 0.0119188 7.86628e-20)
(0.0043703 0.0116425 -3.24355e-20)
(0.00722459 0.0102982 3.05724e-20)
(0.00914807 0.00867164 -4.13924e-20)
(0.0107071 0.00656128 1.58681e-20)
(0.0110336 0.00385693 5.52349e-21)
(0.00990172 0.00134447 2.43204e-21)
(0.00793646 -0.000562629 -1.27329e-20)
(0.00541278 -0.0020711 -2.02515e-21)
(0.00291138 -0.00291568 5.87983e-21)
(0.00126099 -0.00314056 -2.72177e-22)
(0.000210117 -0.00303092 0)
(-0.000695049 -0.00274074 0)
(-0.00139805 -0.00238681 0)
(-0.00193579 -0.00197927 0)
(-0.00233708 -0.00154819 0)
(-0.00257539 -0.00115836 0)
(-0.00275235 -0.000608779 0)
(-0.00286516 -2.25516e-05 0)
(0.000773309 -0.000322417 0)
(0.000696038 -0.00143959 0)
(0.0005596 -0.00215035 0)
(0.000341359 -0.00325142 0)
(8.90367e-06 -0.00439179 0)
(-0.000435236 -0.00558441 0)
(-0.00101648 -0.00682052 0)
(-0.00179248 -0.00797615 2.71926e-23)
(-0.00340053 -0.00876129 -1.31129e-21)
(-0.00620248 -0.00889146 -3.35146e-21)
(-0.00933913 -0.00794762 7.6426e-21)
(-0.0124126 -0.00591997 1.12928e-21)
(-0.0151122 -0.00356869 -9.45303e-21)
(-0.0163141 -0.00182521 -1.55579e-20)
(-0.0167145 0.0011773 -4.87418e-21)
(-0.0167912 0.0026849 2.42972e-20)
(-0.0134609 0.00423788 3.09554e-20)
(-0.0119 0.00558443 -7.33204e-20)
(-0.00955044 0.00760104 -2.8533e-20)
(-0.00689595 0.00870385 1.55783e-20)
(-0.00298726 0.00937587 -2.79391e-20)
(9.58796e-05 0.00950866 -5.61013e-20)
(0.00358663 0.00915081 -4.32554e-20)
(0.00673138 0.007533 5.32789e-21)
(0.0112702 0.00509297 -3.1902e-20)
(0.0120707 0.00397487 2.65188e-21)
(0.0132757 0.00150985 2.64192e-20)
(0.0116148 -0.000274709 7.77691e-21)
(0.0101049 -0.00237024 -1.99248e-20)
(0.00744586 -0.00404863 1.45095e-20)
(0.00390492 -0.00491736 -5.50408e-21)
(0.00101583 -0.00502197 1.38287e-21)
(-0.000727715 -0.00461256 3.19809e-23)
(-0.00167125 -0.00387712 0)
(-0.00238606 -0.00307701 0)
(-0.00287832 -0.00233451 0)
(-0.00323537 -0.00161063 0)
(-0.00343065 -0.000981268 0)
(-0.00353847 -0.000727108 0)
(-0.00360572 -0.000324585 0)
(0.00197672 -0.00112828 0)
(0.001941 -0.00193018 0)
(0.00185987 -0.00347379 0)
(0.00171614 -0.0046862 0)
(0.00146924 -0.00594241 0)
(0.00114449 -0.00738719 0)
(0.000686254 -0.00904774 0)
(-0.000405294 -0.0106243 1.95301e-21)
(-0.00339575 -0.0115527 -2.66427e-21)
(-0.00713493 -0.0115139 4.92939e-21)
(-0.0108158 -0.0108603 -2.18332e-20)
(-0.0142668 -0.0101249 3.14945e-20)
(-0.0183897 -0.00878674 -3.38894e-20)
(-0.0182077 -0.00388593 -2.20556e-21)
(-0.0201026 -0.00402956 9.01487e-21)
(-0.0217067 -0.00287277 -4.45588e-20)
(-0.0184082 0.000512312 -3.52654e-21)
(-0.014844 0.00130879 -8.16101e-20)
(-0.011125 0.00350369 -3.5458e-20)
(-0.00786165 0.00458791 -9.77421e-21)
(-0.00368729 0.00553142 4.11673e-20)
(-0.000225062 0.0063563 3.2856e-20)
(0.00419906 0.00577026 -8.25397e-20)
(0.00817367 0.00431814 -8.48864e-20)
(0.0113876 0.00168632 -6.40167e-21)
(0.0127902 0.000978371 -1.2808e-21)
(0.0128056 0.000352125 3.23767e-21)
(0.0136407 -0.00279935 1.52611e-21)
(0.011525 -0.00313214 -1.09139e-21)
(0.0085763 -0.00442325 -4.25586e-21)
(0.00468376 -0.00578884 4.91852e-21)
(0.000943617 -0.00641592 -5.73153e-21)
(-0.00201517 -0.00593306 3.14085e-22)
(-0.00324137 -0.00491539 0)
(-0.00376431 -0.00384791 0)
(-0.00412266 -0.00294555 0)
(-0.00433154 -0.00225878 0)
(-0.00441559 -0.00163877 0)
(-0.00443636 -0.000790747 0)
(-0.00445996 -0.000407573 0)
(0.00334147 0.000278728 0)
(0.00330612 -0.0018584 0)
(0.00330938 -0.0031721 0)
(0.00331761 -0.00468967 0)
(0.00332037 -0.00646805 0)
(0.00332206 -0.00843807 0)
(0.00315983 -0.0105949 4.77088e-23)
(0.00122609 -0.0124037 5.94956e-22)
(-0.00307001 -0.013418 -3.70147e-21)
(-0.0072543 -0.0135733 -2.71266e-21)
(-0.0112032 -0.0135755 -1.54117e-21)
(-0.0149575 -0.0138002 1.14208e-20)
(-0.0187051 -0.011733 -1.14083e-20)
(-0.0197605 -0.0103559 6.12903e-20)
(-0.0222024 -0.00957662 -1.88288e-20)
(-0.0206996 -0.0074233 5.91885e-21)
(-0.0208205 -0.00388657 -3.98582e-20)
(-0.0184592 0.000457164 8.63451e-20)
(-0.0129012 0.0011889 -1.89301e-20)
(-0.00907614 0.00267523 -7.24834e-21)
(-0.00478972 0.00326276 -6.83469e-20)
(-0.000690514 0.00338045 -1.36351e-21)
(0.00363851 0.00222382 6.74509e-20)
(0.00871194 0.000624044 2.23267e-20)
(0.00976838 -0.00070365 -6.24562e-21)
(0.0136209 -0.00245002 -1.92688e-20)
(0.0149051 -0.00351031 3.0881e-20)
(0.0142363 -0.00541477 -2.73379e-21)
(0.0120985 -0.00464785 -7.4021e-21)
(0.00916994 -0.00543414 5.47651e-21)
(0.00501716 -0.00593712 5.83841e-23)
(0.000760911 -0.00645486 -1.63536e-21)
(-0.00326687 -0.00633456 5.68861e-22)
(-0.00535637 -0.00530451 1.9499e-23)
(-0.00558918 -0.00395322 0)
(-0.00562321 -0.00275464 0)
(-0.0055796 -0.00176706 0)
(-0.00549415 -0.000968711 0)
(-0.0054509 -0.000624828 0)
(-0.00544839 0.000223655 0)
(0.00457818 -0.00200719 0)
(0.0046885 -0.00238955 0)
(0.00483747 -0.00363871 0)
(0.00514445 -0.00515856 0)
(0.00551046 -0.00683553 0)
(0.00598316 -0.00888888 0)
(0.00594082 -0.0111301 4.34657e-22)
(0.00297947 -0.013005 -3.73368e-21)
(-0.0019743 -0.0140012 1.18756e-21)
(-0.00615111 -0.0147706 1.61676e-21)
(-0.00983541 -0.0162301 5.14163e-21)
(-0.0138154 -0.018006 -4.97941e-21)
(-0.0178206 -0.0172758 -1.38223e-22)
(-0.0205998 -0.0171374 2.05588e-21)
(-0.0226402 -0.0164894 -1.40047e-21)
(-0.0235928 -0.0103743 1.74142e-20)
(-0.0232953 -0.00696897 5.30372e-21)
(-0.0211329 -0.00122141 5.8375e-21)
(-0.015578 0.00344165 8.21624e-21)
(-0.00878818 0.0037577 9.04724e-21)
(-0.00524584 0.00248372 -3.08149e-20)
(-0.00176885 0.00286762 9.85368e-21)
(0.0035036 0.00275339 -4.405e-20)
(0.00965251 3.0155e-05 -1.40949e-20)
(0.0132622 -0.00350007 1.39969e-20)
(0.0140012 -0.00727094 -4.00833e-20)
(0.0146707 -0.00691074 -4.75825e-22)
(0.0136974 -0.00819336 4.07672e-22)
(0.0116239 -0.00688204 3.32412e-21)
(0.00902608 -0.0058031 -1.496e-21)
(0.00475398 -0.00545651 -1.49315e-21)
(0.000319785 -0.00560758 -1.46453e-21)
(-0.00423255 -0.00545249 7.24186e-22)
(-0.00747824 -0.00457402 -5.27686e-23)
(-0.00768259 -0.00328862 0)
(-0.00732529 -0.00221777 0)
(-0.00699734 -0.00142448 0)
(-0.00673339 -0.000956421 0)
(-0.00653955 -0.00041111 0)
(-0.00644279 -0.000802937 0)
(0.00541269 0.000667282 0)
(0.0056596 -0.00187203 0)
(0.00619972 -0.00349094 0)
(0.00692419 -0.00480264 0)
(0.00776624 -0.00632064 0)
(0.00877707 -0.00823735 0)
(0.00851972 -0.010288 3.91974e-22)
(0.00473073 -0.0119717 -9.10491e-22)
(9.74038e-05 -0.013495 -3.16302e-22)
(-0.00353295 -0.0153799 -4.21615e-23)
(-0.00639581 -0.0183276 2.53052e-21)
(-0.00927998 -0.0225462 -2.2573e-21)
(-0.0119961 -0.026178 1.48336e-21)
(-0.0189378 -0.0259984 -2.43575e-22)
(-0.0226534 -0.0255201 -1.1584e-21)
(-0.0302406 -0.0208842 1.91808e-21)
(-0.0342664 -0.0111991 8.13551e-22)
(-0.0338414 0.0019789 -3.3432e-21)
(-0.0219518 0.0162787 2.41142e-21)
(-0.00218653 0.0160252 4.41349e-20)
(-0.00230717 0.00363156 -3.10493e-19)
(-0.00689553 0.0094524 2.50216e-20)
(0.00606833 0.011328 2.60238e-21)
(0.015668 0.00228977 -3.28136e-22)
(0.0176429 -0.00736882 -4.78871e-22)
(0.0158831 -0.0130417 4.25345e-21)
(0.0147409 -0.0126046 8.34373e-21)
(0.0101299 -0.0118657 -4.61454e-21)
(0.00887135 -0.00887453 4.6352e-21)
(0.00672859 -0.00681206 -8.29035e-22)
(0.00321907 -0.0051575 2.18018e-22)
(-0.000759871 -0.004067 -7.4376e-22)
(-0.00532708 -0.0036458 4.72175e-22)
(-0.00942459 -0.00310679 -6.87532e-23)
(-0.00999556 -0.00213343 0)
(-0.0092357 -0.00126276 0)
(-0.00852154 -0.000690783 0)
(-0.0078844 -0.000280352 0)
(-0.00747653 -0.000135164 0)
(-0.00724633 0.000729266 0)
(0.00621433 -0.00158391 0)
(0.00632602 -0.00144387 0)
(0.00699322 -0.00198961 0)
(0.00787793 -0.00293614 0)
(0.00927119 -0.00432338 0)
(0.0108865 -0.00606243 0)
(0.010468 -0.00780583 8.20793e-23)
(0.00660619 -0.00950343 1.12228e-22)
(0.00316353 -0.011834 1.37243e-22)
(0.00101999 -0.0152982 -4.5057e-23)
(-0.00083956 -0.0196945 -2.86105e-22)
(-0.00229411 -0.0265686 5.23917e-22)
(-0.00518472 -0.0327047 -1.06859e-22)
(-0.00970385 -0.036802 2.65429e-21)
(-0.0202668 -0.040735 -5.98966e-21)
(-0.0333536 -0.0372118 -1.12917e-21)
(-0.0496419 -0.0279341 -3.46953e-21)
(-0.0687235 -0.00412473 3.99869e-23)
(-0.11173 0.0974565 -6.35123e-22)
(0.0719318 0.0714993 -2.11926e-19)
(0.0387549 -0.00122015 -1.20976e-21)
(0.0276341 -0.0168591 2.44594e-21)
(0.0177185 -0.0207855 -4.17738e-21)
(0.0126991 -0.0219643 -3.31233e-21)
(0.00715933 -0.0149598 -2.6001e-21)
(0.0037687 -0.0113075 3.32401e-22)
(0.0012269 -0.00786736 5.19097e-22)
(-0.000582983 -0.00426831 6.67151e-22)
(-0.00282109 -0.00175394 4.93207e-22)
(-0.00656512 -0.000757308 4.17296e-22)
(-0.010912 -0.000411005 1.87841e-22)
(-0.0115448 0.000219945 0)
(-0.0101874 0.000848775 0)
(-0.00906349 0.00109296 0)
(-0.00830804 0.00109547 0)
(-0.00776406 0.0007812 0)
(-0.00770172 -0.000229968 0)
(0.00599968 -1.61468e-05 0)
(0.00718988 -0.00109087 0)
(0.00820264 -0.00142566 0)
(0.00945275 -0.00180504 0)
(0.0110609 -0.00225722 0)
(0.0130806 -0.003208 0)
(0.0124145 -0.00434613 -7.54811e-24)
(0.00898258 -0.00601423 4.30879e-23)
(0.00681691 -0.00893111 4.03602e-23)
(0.00672012 -0.0138429 -1.36551e-21)
(0.0072954 -0.0198302 3.36226e-21)
(0.00852361 -0.0292896 -2.50632e-21)
(0.00837122 -0.0413786 1.70955e-22)
(-6.60795e-05 -0.049575 -1.37405e-21)
(-0.0121904 -0.0614983 -3.15262e-21)
(-0.0312304 -0.0675512 1.26283e-21)
(-0.0599901 -0.069475 1.52018e-21)
(-0.125286 -0.0599814 7.50755e-24)
(-0.015443 0.0551463 6.65505e-19)
(0.0411916 0.051614 -3.13578e-20)
(0.0701022 -0.0367797 2.07026e-22)
(0.0303858 -0.0413313 1.2815e-21)
(0.0103021 -0.036643 -9.01668e-21)
(0.00268472 -0.0308116 -2.28879e-20)
(-0.00803999 -0.0188138 2.26102e-21)
(-0.00823392 -0.0132537 -6.57917e-21)
(-0.00702672 -0.0073999 2.3259e-21)
(-0.00620875 -0.00200542 -2.37065e-22)
(-0.00677387 0.00141384 2.25013e-22)
(-0.00877472 0.00284145 9.50545e-24)
(-0.0120574 0.00330622 9.44636e-24)
(-0.0128284 0.0032939 0)
(-0.0111329 0.00295591 0)
(-0.00978955 0.00230717 0)
(-0.00878461 0.00151548 0)
(-0.00811412 0.00075953 0)
(-0.00756596 0.000144639 0)
(0.00582875 0.000704202 9.19396e-24)
(0.00650826 0.0012519 0)
(0.00810153 0.00108777 0)
(0.00980078 0.000998592 0)
(0.0116437 0.000904777 0)
(0.0137854 0.000554255 0)
(0.0139473 -2.19947e-05 -5.65042e-23)
(0.0121329 -0.00180915 -2.82725e-22)
(0.0125064 -0.00489785 1.85706e-21)
(0.014839 -0.0105951 -4.46543e-21)
(0.017918 -0.0179591 5.39525e-21)
(0.0212954 -0.0291227 -2.7403e-22)
(0.0246285 -0.0450881 -6.00089e-21)
(0.0187609 -0.0612887 -4.3136e-22)
(0.0125836 -0.0822732 2.13273e-20)
(-0.00851589 -0.103526 -8.57691e-21)
(-0.040995 -0.124546 -9.44574e-21)
(-0.259595 -0.110519 -5.91625e-21)
(-0.210659 0.0322673 7.51564e-20)
(0.209858 -0.00207116 -3.25134e-20)
(0.0948588 -0.0771899 5.61893e-21)
(0.015734 -0.0722127 -2.46138e-20)
(-0.00809869 -0.0548986 1.37285e-20)
(-0.0152054 -0.0376733 1.96535e-20)
(-0.0226194 -0.0195155 -2.04861e-20)
(-0.0210097 -0.00877255 8.40181e-21)
(-0.017699 -0.00127685 -7.28307e-21)
(-0.0135901 0.00376064 2.97629e-21)
(-0.0109249 0.00665008 2.167e-21)
(-0.010508 0.00813931 -8.44103e-22)
(-0.0122771 0.0081689 7.51241e-22)
(-0.011913 0.00721768 0)
(-0.010052 0.00619951 0)
(-0.00860584 0.00512414 0)
(-0.00758218 0.00396964 0)
(-0.0067494 0.00267667 0)
(-0.00661864 0.00141983 0)
(0.0080661 0.000815387 1.47914e-24)
(0.00797022 0.00202007 0)
(0.00839222 0.00283153 0)
(0.00977971 0.0036003 0)
(0.0119201 0.00432438 0)
(0.0145281 0.00500777 0)
(0.016299 0.00516326 -6.93656e-23)
(0.0169884 0.00362225 3.60818e-23)
(0.0204037 0.00078383 8.67357e-22)
(0.0252553 -0.00455784 -2.58839e-21)
(0.0319965 -0.0119417 -3.68498e-21)
(0.0419634 -0.0228713 2.95551e-20)
(0.0538929 -0.0377345 -2.55684e-20)
(0.0537114 -0.0614457 4.80685e-21)
(0.0591247 -0.0922855 7.4402e-21)
(0.0459929 -0.134337 2.07063e-20)
(0.0142907 -0.185741 2.90841e-20)
(-0.389549 -0.211908 -5.85347e-21)
(-0.423323 -0.145426 2.10339e-20)
(-0.0722874 -0.0561788 -2.22643e-20)
(-0.0350635 0.0294769 -2.3564e-21)
(0.118132 0.016474 -2.26924e-20)
(0.454051 -0.0638764 9.84385e-21)
(0.132048 -0.126227 5.56727e-20)
(-0.0186838 -0.104909 2.97219e-20)
(-0.0410648 -0.0665662 -1.73827e-20)
(-0.0409651 -0.0387387 9.35014e-21)
(-0.0403024 -0.0133386 -7.61382e-21)
(-0.0308594 -0.00170788 1.49607e-20)
(-0.022984 0.00555835 -8.45809e-21)
(-0.0169974 0.0104996 1.8191e-21)
(-0.0124645 0.013515 -2.62967e-22)
(-0.00992349 0.014214 -5.20993e-22)
(-0.0100724 0.013644 -1.4368e-22)
(-0.00918437 0.0116028 0)
(-0.00713849 0.0090945 0)
(-0.00569177 0.00686865 0)
(-0.00479556 0.0048778 0)
(-0.00438954 0.00273637 0)
(-0.00389771 0.000705022 0)
(0.00835217 0.000425408 2.54779e-22)
(0.00889081 0.00220371 0)
(0.00918883 0.00376475 0)
(0.0101614 0.00519795 0)
(0.0118622 0.00688912 0)
(0.0145955 0.00911764 0)
(0.0184759 0.0110135 -4.41632e-24)
(0.022015 0.0112934 4.55509e-22)
(0.0281652 0.00958716 -2.57385e-22)
(0.036552 0.00639593 -5.30814e-21)
(0.0479097 0.0025039 8.74816e-21)
(0.0638085 -0.00421654 -2.68665e-21)
(0.0836991 -0.0116673 6.86478e-22)
(0.0935518 -0.0391918 -9.30338e-21)
(0.117849 -0.0722272 2.87441e-20)
(0.150843 -0.132267 -1.96337e-20)
(0.140612 -0.21798 -6.22759e-20)
(-0.350712 -0.348449 -5.00028e-19)
(-0.350533 -0.567905 3.74859e-20)
(-0.149267 -0.670609 1.34909e-19)
(-0.16274 -0.608121 -3.0573e-20)
(0.100878 -0.439107 -2.00457e-19)
(0.499361 -0.35102 7.12203e-20)
(0.0387869 -0.198698 -1.22002e-19)
(-0.0948462 -0.123214 -1.42864e-20)
(-0.0915491 -0.0529284 -3.72948e-21)
(-0.0696645 -0.0201367 -1.20341e-20)
(-0.054902 0.0100329 -2.75466e-20)
(-0.0389263 0.0161938 1.55671e-21)
(-0.0274067 0.0181758 -1.46561e-20)
(-0.0175331 0.0196765 1.25595e-20)
(-0.0110814 0.0204986 -2.56337e-21)
(-0.00750762 0.019611 4.3952e-22)
(-0.00543637 0.0176323 3.39848e-23)
(-0.00317434 0.0144318 0)
(-0.00208697 0.0107179 0)
(-0.00143717 0.00770982 0)
(-0.0010525 0.00514925 0)
(-0.00132645 0.00277388 0)
(-0.00106549 0.000623589 -5.56648e-22)
(0.00621347 0.000572577 5.21519e-22)
(0.00658395 0.00260385 0)
(0.00727791 0.00497894 0)
(0.00817742 0.00742539 0)
(0.00964941 0.0101259 0)
(0.0121447 0.0137554 0)
(0.0169806 0.0174064 0)
(0.0236176 0.0197013 3.05262e-22)
(0.0310053 0.0212411 -7.05761e-22)
(0.0405039 0.0224123 7.53886e-23)
(0.0538564 0.0237522 -2.79445e-21)
(0.0709567 0.0256556 1.27741e-20)
(0.0967514 0.0269773 -6.66882e-21)
(0.136465 0.0211182 -2.38726e-21)
(0.170413 -0.0123593 -1.3657e-20)
(0.244422 -0.043167 5.57892e-20)
(0.282876 -0.128874 -1.75771e-20)
(-0.00413001 -0.283015 5.67046e-19)
(-0.051936 -0.691785 -7.63504e-20)
(-0.0531739 -0.821354 4.17421e-19)
(-0.337502 -0.809132 4.68988e-20)
(-0.140814 -0.701361 -2.31816e-19)
(0.136997 -0.37776 -1.69678e-19)
(-0.0981106 -0.144373 -8.05583e-19)
(-0.205864 -0.0441259 -3.97806e-20)
(-0.14519 0.00571682 9.7145e-21)
(-0.0931396 0.046427 4.39281e-21)
(-0.0586974 0.0465912 9.80148e-21)
(-0.0378317 0.0411227 -5.23366e-21)
(-0.0247886 0.0360476 2.57242e-22)
(-0.0139414 0.0314955 2.22074e-21)
(-0.007514 0.027548 2.04116e-23)
(-0.00287947 0.0246508 -4.00597e-22)
(0.0012103 0.0211981 0)
(0.00379652 0.0166092 0)
(0.00457499 0.0122412 0)
(0.00477123 0.00890219 0)
(0.00472939 0.00595885 0)
(0.00474807 0.00343525 0)
(0.00487537 0.00112125 6.4592e-22)
(0.00281618 0.00116212 -1.022e-22)
(0.00272345 0.0031781 0)
(0.003004 0.0059394 0)
(0.00364507 0.00907482 0)
(0.0046723 0.012497 0)
(0.00638152 0.0169093 0)
(0.0110236 0.0221843 0)
(0.0190641 0.0271057 0)
(0.0275951 0.0318714 -2.41395e-23)
(0.0357152 0.0380004 2.8007e-22)
(0.0476343 0.0456958 -3.4092e-23)
(0.063711 0.0564232 4.61313e-22)
(0.0863442 0.0724417 5.074e-21)
(0.123966 0.093993 7.23635e-21)
(0.182975 0.0900931 8.17665e-22)
(0.27651 0.116604 -1.8774e-21)
(0.3624 0.0874617 -1.02857e-20)
(0.409805 -0.0651019 -7.36512e-20)
(0.239731 -0.212825 1.03118e-19)
(-0.0317432 -0.249563 -2.839e-20)
(-0.239986 -0.329457 1.9146e-20)
(-0.318679 -0.36852 3.57908e-20)
(-0.354631 -0.190821 1.12886e-19)
(-0.255959 0.0192858 2.83274e-19)
(-0.264947 0.11617 -2.98695e-20)
(-0.163539 0.11268 1.26223e-20)
(-0.0741188 0.113516 4.90081e-21)
(-0.0427303 0.0844592 -4.6276e-21)
(-0.0250488 0.0666445 -7.13468e-22)
(-0.0143713 0.0530636 -3.79398e-21)
(-0.00723073 0.0423924 7.0146e-22)
(-0.00243068 0.0342693 -3.85998e-23)
(0.00281421 0.0284637 0)
(0.00816182 0.0226545 0)
(0.0107033 0.017245 0)
(0.0108542 0.0127421 0)
(0.0105548 0.00927362 1.22666e-21)
(0.0103132 0.00617833 1.69639e-21)
(0.0101623 0.00354886 1.01157e-21)
(0.00964836 0.00114688 0)
(-0.000115837 0.001136 0)
(-0.000264785 0.00349487 0)
(-0.000346769 0.00620351 0)
(-0.000646719 0.00938818 0)
(-0.000842106 0.0130454 0)
(-0.000507934 0.0175372 0)
(0.00281193 0.0234566 0)
(0.00990374 0.0307616 0)
(0.017275 0.0386619 -2.99616e-24)
(0.0227295 0.0496923 1.3704e-25)
(0.0290113 0.0643475 1.37874e-22)
(0.0395548 0.0841326 1.50223e-21)
(0.0536677 0.112171 -3.18941e-21)
(0.0776135 0.158079 9.0276e-21)
(0.130096 0.188297 9.61251e-20)
(0.202474 0.258857 -1.21682e-20)
(0.390798 0.30495 1.56283e-20)
(0.469209 0.323224 4.51619e-20)
(0.264384 0.321998 1.32361e-19)
(0.0628597 0.260152 1.39144e-19)
(-0.145422 0.228223 5.61772e-20)
(-0.332933 0.232725 1.35542e-19)
(-0.413985 0.198071 -5.8563e-20)
(-0.475059 0.236649 -3.56503e-20)
(-0.236969 0.302969 5.07134e-21)
(-0.107272 0.225887 2.80588e-20)
(-0.0214876 0.163315 -9.92259e-22)
(-0.00518222 0.11479 3.59377e-22)
(0.00164734 0.0853334 1.11552e-21)
(0.00447489 0.0644162 -5.42159e-23)
(0.00576919 0.0493545 3.48632e-23)
(0.0074359 0.0377212 -4.36306e-25)
(0.0110543 0.029142 0)
(0.0152601 0.0215168 0)
(0.0166489 0.015828 0)
(0.0156382 0.0116142 0)
(0.0143825 0.00828166 0)
(0.0133717 0.00538427 0)
(0.0127634 0.00314959 0)
(0.012169 0.00105937 -1.82185e-22)
(-0.00215007 0.00102631 0)
(-0.00283121 0.0032497 0)
(-0.00350372 0.00555227 0)
(-0.00481121 0.00823055 0)
(-0.00654245 0.0115069 0)
(-0.00809874 0.0155383 0)
(-0.0070533 0.0210488 0)
(-0.00327182 0.0290934 0)
(0.000205214 0.0388671 0)
(0.000962843 0.0526798 0)
(-0.000386251 0.0724075 -1.11152e-22)
(-0.000885467 0.0981382 -1.23272e-21)
(-0.00113295 0.132254 1.5824e-21)
(0.00247093 0.188234 -9.76207e-22)
(0.0243694 0.237931 4.2495e-19)
(0.0492558 0.324804 2.16525e-20)
(0.241715 0.447886 1.70628e-19)
(0.423996 0.583132 -9.2824e-20)
(0.316592 0.622671 4.26902e-20)
(0.10381 0.592779 -4.37209e-19)
(-0.13669 0.527761 -1.41559e-19)
(-0.331645 0.4913 -2.24676e-19)
(-0.45006 0.508093 -5.57552e-21)
(-0.484948 0.498814 9.53921e-21)
(-0.075771 0.436937 -9.66126e-21)
(0.0304792 0.2841 -7.07635e-22)
(0.0616706 0.17305 4.49034e-22)
(0.0528841 0.121769 -7.47186e-22)
(0.0400296 0.0874559 -2.94034e-22)
(0.0316855 0.0637809 3.15872e-23)
(0.0250415 0.0464937 0)
(0.0219975 0.0336498 0)
(0.0220173 0.0241657 0)
(0.0232492 0.0167021 0)
(0.0221582 0.011904 0)
(0.0195058 0.00859648 0)
(0.0170957 0.00602812 0)
(0.0153152 0.00391218 0)
(0.014308 0.00217766 0)
(0.0136024 0.000690719 0)
(-0.00493817 0.00057031 0)
(-0.00573118 0.00194729 0)
(-0.00701262 0.00341977 0)
(-0.00909637 0.00525126 0)
(-0.0119741 0.00763082 0)
(-0.0152316 0.0105921 0)
(-0.0168749 0.0146495 0)
(-0.0168883 0.0214719 0)
(-0.0183006 0.0306668 0)
(-0.0236104 0.0435871 0)
(-0.0336093 0.0630178 0)
(-0.0477926 0.0878241 -2.33813e-23)
(-0.0647032 0.120026 6.33027e-22)
(-0.085086 0.167911 -8.61662e-22)
(-0.0759321 0.234792 1.3796e-19)
(-0.069792 0.285707 -1.03219e-20)
(-0.00186271 0.397416 1.26005e-19)
(0.180248 0.618324 -3.54652e-20)
(0.210769 0.833308 -6.24365e-21)
(0.0886293 0.972538 6.27669e-20)
(-0.0915803 1.01005 6.12348e-20)
(-0.260204 0.941101 -8.82004e-20)
(-0.359436 0.79998 -9.53375e-20)
(-0.342439 0.606005 -3.65627e-20)
(0.122183 0.39425 3.06719e-20)
(0.216414 0.250438 -1.43402e-20)
(0.152489 0.127589 -2.00959e-20)
(0.113614 0.0908304 1.53728e-21)
(0.0811517 0.0627672 8.30574e-24)
(0.060729 0.0443965 0)
(0.0458271 0.0301379 0)
(0.0374469 0.0203334 0)
(0.0329153 0.0130377 0)
(0.0303369 0.00828369 0)
(0.0265623 0.00559658 0)
(0.0224337 0.00388006 0)
(0.0191269 0.00248915 0)
(0.0168241 0.00147064 0)
(0.0155114 0.000647836 0)
(0.0149052 0.000116801 0)
(-0.00731408 9.76972e-05 0)
(-0.00811614 0.000397653 0)
(-0.00964587 0.000729815 0)
(-0.0120567 0.00124542 0)
(-0.0155059 0.00205134 0)
(-0.0197908 0.00314966 0)
(-0.0236715 0.00479437 0)
(-0.0271657 0.00885748 0)
(-0.0332324 0.0148306 0)
(-0.044634 0.0236132 0)
(-0.0623749 0.0366776 6.0189e-22)
(-0.089949 0.0564131 0)
(-0.121672 0.0774675 0)
(-0.158147 0.11618 4.08353e-20)
(-0.150365 0.182849 1.36844e-20)
(-0.10942 0.205547 2.36827e-19)
(-0.186988 0.241325 -7.85769e-21)
(-0.210027 0.40105 3.19445e-22)
(-0.181016 0.612141 -5.9575e-20)
(-0.169623 0.777918 7.97692e-20)
(-0.126355 0.838346 -1.72923e-20)
(-0.0755839 0.784566 -5.47521e-20)
(0.00143872 0.617599 -5.24838e-21)
(0.119614 0.371782 1.97051e-20)
(0.310006 0.174229 1.52573e-21)
(0.330314 0.0684925 -4.24199e-20)
(0.211715 0.0411061 -2.05556e-20)
(0.150775 0.0266122 0)
(0.107991 0.015264 0)
(0.0794056 0.00917767 2.2889e-23)
(0.0594736 0.0039249 0)
(0.0472326 0.000861973 0)
(0.0392203 -0.00153306 0)
(0.0339818 -0.00213797 0)
(0.028604 -0.00203731 0)
(0.0237893 -0.00160577 0)
(0.0201439 -0.00143877 0)
(0.0176746 -0.00112921 -2.01886e-22)
(0.0161108 -0.000749003 -1.44835e-22)
(0.0154172 -0.000268309 0)
(-0.00767339 -0.0002337 0)
(-0.00839638 -0.00101302 0)
(-0.00987433 -0.00192529 0)
(-0.0121373 -0.00301383 0)
(-0.0155245 -0.00424526 0)
(-0.0200777 -0.00560946 0)
(-0.0253823 -0.00714737 0)
(-0.0315923 -0.0070829 0)
(-0.0408876 -0.0062757 0)
(-0.0561703 -0.00385249 0)
(-0.0782787 -0.0015539 7.43177e-22)
(-0.114397 0.00582797 0)
(-0.160682 0.0124922 0)
(-0.210803 0.0265039 -4.82364e-21)
(-0.22859 0.0740352 -1.48262e-19)
(-0.17851 0.143386 4.67872e-21)
(-0.236502 0.165173 0)
(-0.251783 0.108648 4.62656e-21)
(-0.221346 0.0421852 -2.8612e-20)
(-0.128719 -0.0186466 7.30815e-20)
(-0.00474617 -0.0911939 -2.826e-19)
(0.118273 -0.138298 3.49115e-19)
(0.225757 -0.176155 -1.32245e-20)
(0.313756 -0.164276 0)
(0.358187 -0.117309 -1.67697e-20)
(0.331263 -0.0874007 3.6206e-20)
(0.224206 -0.0667648 -2.10664e-21)
(0.15006 -0.0501785 0)
(0.106482 -0.0386007 0)
(0.0783479 -0.0297903 1.64443e-21)
(0.0594021 -0.0238666 0)
(0.0470377 -0.0195624 0)
(0.0383668 -0.0165813 0)
(0.0323783 -0.0130504 0)
(0.0267818 -0.00992733 0)
(0.0222731 -0.00707029 3.6524e-22)
(0.0190327 -0.00503047 -4.74623e-22)
(0.0168447 -0.0033025 0)
(0.0153924 -0.00182265 0)
(0.0148054 -0.000478628 -1.11535e-21)