/*--------------------------------*- C++ -*----------------------------------*\
| =========                 |                                                 |
| \\      /  F ield         | OpenFOAM: The Open Source CFD Toolbox           |
|  \\    /   O peration     | Version:  2112                                  |
|   \\  /    A nd           | Website:  www.openfoam.com                      |
|    \\/     M anipulation  |                                                 |
\*---------------------------------------------------------------------------*/
FoamFile
{
    version     2.0;
    format      ascii;
    arch        "LSB;label=32;scalar=64";
    class       volVectorField;
    location    "0";
    object      Ulift0;
}
// * * * * * * * * * * * * * * * * * * * * * * * * * * * * * * * * * * * * * //

dimensions      [0 1 -1 0 0 0 0];

internalField   nonuniform List<vector> 
11644
(
(1.00028 -0.000205828 0)
(1.00028 -0.000615401 0)
(1.00028 -0.00102394 0)
(1.00028 -0.00143467 0)
(1.00028 -0.00184723 0)
(1.00028 -0.00225982 0)
(1.00027 -0.00266769 0)
(1.00026 -0.00306044 0)
(1.00023 -0.00341735 0)
(1.00016 -0.00370249 0)
(1.00007 -0.00387112 0)
(0.999962 -0.00389247 0)
(0.999806 -0.0037215 0)
(1.00019 -0.00372158 0)
(1.00033 -0.00410482 0)
(0.999837 -0.00422552 0)
(0.999608 -0.00381765 0)
(0.999366 -0.00306364 0)
(0.999182 -0.0019963 0)
(0.999008 -0.000665586 -4.20044e-33)
(0.999009 0.000792101 4.99886e-33)
(0.999185 0.00211963 0)
(0.999375 0.00317841 0)
(0.999618 0.00391869 0)
(0.999845 0.00431337 0)
(1.00032 0.00418879 0)
(1.0002 0.00380604 0)
(0.999818 0.00379553 0)
(0.999973 0.0039486 0)
(1.00008 0.00391089 0)
(1.00017 0.00372843 0)
(1.00023 0.00343278 0)
(1.00026 0.00306858 0)
(1.00028 0.00267098 0)
(1.00028 0.00226002 0)
(1.00028 0.0018457 0)
(1.00028 0.00143244 0)
(1.00028 0.00102179 0)
(1.00028 0.000613882 0)
(1.00028 0.00020528 0)
(1.00149 -0.000687406 0)
(1.00148 -0.00205877 0)
(1.00149 -0.00342634 0)
(1.00149 -0.00479176 0)
(1.00148 -0.00615057 0)
(1.00147 -0.00749494 0)
(1.00143 -0.00881327 0)
(1.00137 -0.010091 0)
(1.00126 -0.0113146 0)
(1.0011 -0.012479 0)
(1.00086 -0.0135815 0)
(1.00055 -0.0145782 0)
(1.00016 -0.0154398 0)
(0.999887 -0.0154712 0)
(0.999363 -0.0141536 0)
(0.998472 -0.0123202 0)
(0.997648 -0.0102828 0)
(0.99682 -0.00772276 0)
(0.996183 -0.00471252 0)
(0.995807 -0.00148413 1.9678e-26)
(0.995812 0.00176308 -2.32984e-26)
(0.996199 0.00498174 -3.29562e-26)
(0.996848 0.00797666 -5.27749e-26)
(0.997681 0.0105191 0)
(0.998508 0.0125315 0)
(0.999396 0.0143214 0)
(0.999922 0.0155885 0)
(1.0002 0.0155234 0)
(1.00059 0.0146416 0)
(1.00089 0.0136271 0)
(1.00112 0.0125085 0)
(1.00128 0.0113297 0)
(1.00139 0.0100942 0)
(1.00144 0.00880766 0)
(1.00147 0.00748388 0)
(1.00148 0.00613718 0)
(1.00149 0.00477864 0)
(1.00148 0.00341551 0)
(1.00148 0.00205167 0)
(1.00149 0.000684933 0)
(1.00402 -0.00116956 0)
(1.004 -0.00350631 0)
(1.004 -0.00584115 0)
(1.004 -0.00817486 0)
(1.00398 -0.0105003 0)
(1.00393 -0.0128028 0)
(1.00383 -0.015057 0)
(1.00366 -0.0172212 0)
(1.00337 -0.0192275 0)
(1.00294 -0.020967 0)
(1.00232 -0.0222901 0)
(1.00147 -0.023043 0)
(1.00035 -0.0230035 1.90282e-26)
(0.99932 -0.022699 1.87763e-26)
(0.997768 -0.0224265 0)
(0.995648 -0.0210103 0)
(0.99366 -0.0180392 0)
(0.991714 -0.0139128 0)
(0.99023 -0.00879096 0)
(0.989372 -0.00291018 0)
(0.989385 0.0033002 0)
(0.990269 0.00916849 0)
(0.991777 0.0142632 0)
(0.99374 0.0183478 0)
(0.995738 0.0212708 0)
(0.997861 0.0226465 0)
(0.999412 0.022883 -1.89282e-26)
(1.00044 0.0231424 -1.91428e-26)
(1.00156 0.023132 0)
(1.00239 0.0223358 0)
(1.00299 0.0209794 0)
(1.00341 0.0192157 0)
(1.00369 0.0171933 0)
(1.00385 0.0150197 0)
(1.00394 0.0127618 0)
(1.00398 0.0104602 0)
(1.00399 0.00813955 0)
(1.00399 0.0058137 0)
(1.00399 0.00348894 0)
(1.004 0.0011636 0)
(1.00786 -0.00165397 0)
(1.00784 -0.00496191 0)
(1.00785 -0.00827418 0)
(1.00785 -0.0115946 0)
(1.00782 -0.0149184 0)
(1.00773 -0.0182314 0)
(1.00755 -0.0215075 0)
(1.00723 -0.0247067 0)
(1.0067 -0.0277756 0)
(1.00589 -0.0306523 0)
(1.00472 -0.0332613 0)
(1.00314 -0.0354941 0)
(1.00114 -0.0373366 0)
(0.998608 -0.0376979 0)
(0.995249 -0.0355945 0)
(0.991407 -0.0320401 0)
(0.987464 -0.027337 0)
(0.983602 -0.0209436 0)
(0.98065 -0.0130574 0)
(0.979015 -0.00427887 0)
(0.979041 0.00473241 0)
(0.980724 0.0134886 0)
(0.983721 0.0213356 0)
(0.987615 0.0276781 0)
(0.991572 0.0323218 0)
(0.995419 0.0358049 0)
(0.998775 0.037833 0)
(1.0013 0.0374097 0)
(1.00328 0.0355203 0)
(1.00484 0.0332484 0)
(1.00598 0.0306067 0)
(1.00677 0.027706 0)
(1.00728 0.0246222 0)
(1.00758 0.0214167 0)
(1.00774 0.0181419 0)
(1.00781 0.0148367 0)
(1.00783 0.0115259 0)
(1.00782 0.00822234 0)
(1.0078 0.00492969 0)
(1.00782 0.00164303 0)
(1.01301 -0.00213516 0)
(1.013 -0.00641054 0)
(1.01303 -0.0107045 0)
(1.01306 -0.0150292 0)
(1.01305 -0.0193873 0)
(1.01296 -0.0237696 0)
(1.01273 -0.02815 0)
(1.01228 -0.0324774 0)
(1.01151 -0.0366642 0)
(1.01029 -0.0405614 -1.34208e-25)
(1.00846 -0.0439388 -1.45383e-25)
(1.00591 -0.0464968 0)
(1.00257 -0.0477409 0)
(0.998327 -0.0482207 5.10839e-24)
(0.992619 -0.0481846 -5.10595e-24)
(0.985846 -0.0457175 -9.68803e-24)
(0.978745 -0.0399212 0)
(0.97185 -0.0312625 0)
(0.966416 -0.0200418 4.25319e-24)
(0.963297 -0.00679716 1.44849e-24)
(0.963341 0.00729306 -1.53523e-24)
(0.966541 0.0205094 5.16154e-29)
(0.97204 0.0316796 6.69925e-24)
(0.978988 0.0402694 0)
(0.986118 0.0459798 9.72964e-24)
(0.992909 0.0483527 5.11534e-24)
(0.998603 0.0482964 -5.11075e-24)
(1.00281 0.0477364 0)
(1.00612 0.0464254 0)
(1.00863 0.0438161 0)
(1.01042 0.040406 0)
(1.0116 0.0364908 0)
(1.01234 0.0322981 0)
(1.01275 0.027975 0)
(1.01295 0.0236077 0)
(1.01302 0.0192454 0)
(1.01301 0.0149132 0)
(1.01297 0.0106187 0)
(1.01293 0.00635785 0)
(1.01294 0.0021174 0)
(1.01946 -0.00260702 0)
(1.01947 -0.00783378 0)
(1.01956 -0.0131013 0)
(1.01967 -0.0184358 0)
(1.01974 -0.0238545 0)
(1.01972 -0.0293633 0)
(1.01953 -0.0349531 0)
(1.01904 -0.0405936 0)
(1.01812 -0.0462319 3.05945e-25)
(1.01655 -0.051797 3.42771e-25)
(1.01411 -0.0571817 0)
(1.01056 -0.062201 0)
(1.00592 -0.0668441 0)
(0.999482 -0.069678 0)
(0.989987 -0.0686279 0)
(0.979254 -0.0643125 0)
(0.967131 -0.0567222 0)
(0.955463 -0.0447927 0)
(0.945759 -0.0287756 0)
(0.940076 -0.00975775 0)
(0.940145 0.0102815 0)
(0.945957 0.0292565 -6.18577e-24)
(0.955761 0.045192 -9.56014e-24)
(0.967513 0.0570095 0)
(0.979675 0.0644743 0)
(0.990399 0.0686855 0)
(0.999878 0.0696505 0)
(1.00628 0.0667251 -7.06254e-24)
(1.01086 0.0620051 -6.56278e-24)
(1.01434 0.0569344 1.50686e-24)
(1.01672 0.0515162 1.36344e-24)
(1.01822 0.0459366 0)
(1.01909 0.0403005 0)
(1.01953 0.0346759 0)
(1.01968 0.0291131 0)
(1.01967 0.0236398 0)
(1.01957 0.0182629 0)
(1.01944 0.0129748 0)
(1.01934 0.00775666 0)
(1.01933 0.00258112 0)
(1.02717 -0.003057 0)
(1.02722 -0.00919369 0)
(1.02742 -0.0154007 0)
(1.02767 -0.0217249 0)
(1.02792 -0.0282068 0)
(1.02811 -0.034878 0)
(1.0281 -0.0417564 0)
(1.02777 -0.0488367 0)
(1.0269 -0.0560738 0)
(1.02524 -0.0633572 0)
(1.02245 -0.070491 0)
(1.01805 -0.0771082 0)
(1.01163 -0.0821753 0)
(1.00397 -0.0868448 0)
(0.989352 -0.090729 0)
(0.972944 -0.0899388 0)
(0.960991 -0.0795766 0)
(0.944448 -0.0668247 0)
(0.92842 -0.0474055 0)
(0.917794 -0.0215697 1.14415e-24)
(0.91549 0.00773705 4.07339e-25)
(0.922303 0.0357887 1.89267e-24)
(0.935754 0.0584649 0)
(0.952736 0.0742644 0)
(0.973569 0.0900386 -4.7645e-24)
(0.989961 0.0906399 0)
(1.00453 0.0865788 0)
(1.01211 0.0817955 0)
(1.01843 0.0766602 0)
(1.02272 0.070004 0)
(1.02542 0.0628616 0)
(1.02699 0.0555906 0)
(1.02779 0.0483819 0)
(1.02806 0.0413428 0)
(1.02801 0.0345155 0)
(1.02778 0.0279024 0)
(1.02749 0.0214838 0)
(1.02722 0.0152263 0)
(1.02701 0.00908829 0)
(1.02694 0.00302174 0)
(1.03604 -0.00346612 0)
(1.03617 -0.0104334 0)
(1.03653 -0.0175076 0)
(1.03702 -0.0247607 0)
(1.03759 -0.0322621 0)
(1.03814 -0.0400771 0)
(1.03856 -0.0482649 0)
(1.03865 -0.0568748 0)
(1.03819 -0.0659401 3.49138e-24)
(1.03683 -0.0754732 -3.394e-28)
(1.03416 -0.085469 -4.52557e-24)
(1.02957 -0.0959289 0)
(1.02215 -0.107059 -2.83466e-24)
(1.01011 -0.115138 -3.04851e-24)
(0.996106 -0.115326 6.10726e-24)
(0.977449 -0.117118 6.20208e-24)
(0.951778 -0.115144 0)
(0.920917 -0.101509 0)
(0.890504 -0.0752289 5.11279e-23)
(0.868513 -0.0353334 0)
(0.863546 0.0125173 6.6097e-25)
(0.877957 0.0574839 0)
(0.904871 0.0904896 0)
(0.936372 0.110272 0)
(0.964373 0.117442 0)
(0.988109 0.11625 -6.15231e-24)
(1.00545 0.114481 -6.0586e-24)
(1.02274 0.106447 -5.63363e-24)
(1.03001 0.0952511 -1.00828e-23)
(1.03446 0.0847596 -8.97193e-24)
(1.03699 0.0747647 0)
(1.03824 0.0652601 0)
(1.03861 0.0562455 0)
(1.03843 0.0477021 0)
(1.03795 0.0395909 0)
(1.03735 0.0318591 0)
(1.03674 0.0244449 0)
(1.03622 0.017281 0)
(1.03585 0.0102972 0)
(1.03571 0.00342068 0)
(1.04594 -0.00381341 0)
(1.04619 -0.0114881 0)
(1.04677 -0.0193074 0)
(1.04761 -0.0273704 0)
(1.04864 -0.0357788 0)
(1.04977 -0.0446383 0)
(1.05088 -0.0540598 0)
(1.05178 -0.0641611 1.69848e-24)
(1.05222 -0.0750658 5.96165e-24)
(1.05184 -0.0868937 -2.41024e-28)
(1.0502 -0.0997351 5.28117e-24)
(1.04672 -0.113686 -5.70317e-28)
(1.0412 -0.129184 -1.71008e-23)
(1.02464 -0.142492 -3.77251e-24)
(1.00971 -0.150209 -3.97675e-24)
(0.98506 -0.161485 4.27524e-24)
(0.950163 -0.162027 1.07239e-24)
(0.90385 -0.155941 0)
(0.849401 -0.127919 0)
(0.803324 -0.069617 -2.12641e-23)
(0.788215 0.0112375 0)
(0.813943 0.0882226 2.15453e-23)
(0.864461 0.138298 -2.28827e-23)
(0.918233 0.159546 0)
(0.960204 0.161519 0)
(0.998488 0.155273 -4.10926e-24)
(1.01876 0.145165 3.84174e-24)
(1.04194 0.128187 1.44268e-28)
(1.04722 0.112612 1.1921e-23)
(1.05049 0.0986649 1.04443e-23)
(1.05195 0.0858717 0)
(1.05218 0.0741222 1.96184e-24)
(1.05162 0.063315 2.09476e-24)
(1.05062 0.0533222 3.52849e-25)
(1.04944 0.0440146 0)
(1.04826 0.0352708 0)
(1.04719 0.0269775 0)
(1.04633 0.0190284 0)
(1.04573 0.0113214 0)
(1.04547 0.00375801 0)
(1.05667 -0.00407519 0)
(1.05706 -0.0122852 0)
(1.05794 -0.020675 0)
(1.05923 -0.029369 0)
(1.06087 -0.0384993 0)
(1.06279 -0.0482087 0)
(1.06488 -0.0586551 -7.76324e-25)
(1.06698 -0.0700209 -9.26749e-25)
(1.06886 -0.0825263 0)
(1.07022 -0.0964499 0)
(1.07063 -0.11215 -5.93802e-24)
(1.06958 -0.130035 -6.88485e-24)
(1.06702 -0.150332 1.98986e-24)
(1.04999 -0.170214 0)
(1.03713 -0.187747 0)
(1.00899 -0.20995 -1.38947e-24)
(0.968264 -0.228667 2.8631e-31)
(0.901354 -0.246705 0)
(0.799198 -0.236399 1.2483e-28)
(0.681947 -0.153076 -4.9697e-24)
(0.629388 0.0122279 -4.20551e-24)
(0.695754 0.170126 -1.8419e-23)
(0.814868 0.241592 0)
(0.913215 0.245521 1.5108e-24)
(0.981848 0.226517 1.49884e-24)
(1.02809 0.200142 0)
(1.04591 0.17655 0)
(1.06786 0.14882 -1.5755e-23)
(1.07008 0.128526 -1.36063e-23)
(1.07085 0.110696 0)
(1.07021 0.0950962 0)
(1.06866 0.0813049 0)
(1.06664 0.0689481 -9.1249e-25)
(1.06444 0.0577368 -7.64111e-25)
(1.06228 0.0474447 0)
(1.06031 0.037886 0)
(1.05864 0.0289006 0)
(1.05733 0.0203457 0)
(1.05644 0.0120899 0)
(1.05603 0.0040105 0)
(1.06796 -0.00422974 0)
(1.06853 -0.0127586 0)
(1.06976 -0.0214956 0)
(1.07159 -0.0305843 0)
(1.07398 -0.0401801 0)
(1.07686 -0.050454 0)
(1.08017 -0.0615992 4.07641e-25)
(1.08379 -0.0738408 4.8865e-25)
(1.08757 -0.0874526 0)
(1.0913 -0.102781 5.44165e-24)
(1.09471 -0.120283 6.36821e-24)
(1.09743 -0.140583 -7.44301e-24)
(1.0987 -0.164064 -6.51452e-24)
(1.08698 -0.189829 2.51257e-24)
(1.082 -0.216886 -5.74131e-24)
(1.06131 -0.254589 8.42404e-25)
(1.02979 -0.303391 2.50968e-25)
(0.965491 -0.382907 -2.53465e-24)
(0.806779 -0.473409 -6.27405e-24)
(0.451983 -0.447184 -4.52545e-27)
(0.176316 0.0203497 0)
(0.480655 0.46242 -9.83718e-23)
(0.82519 0.470151 0)
(0.979858 0.371103 0)
(1.04581 0.291734 7.23927e-25)
(1.07884 0.23498 0)
(1.08662 0.199745 -2.64342e-24)
(1.09954 0.161808 0)
(1.09784 0.138401 -7.32636e-24)
(1.09474 0.11826 -6.26012e-24)
(1.09104 0.100979 0)
(1.08711 0.0858895 0)
(1.08319 0.0725133 0)
(1.07948 0.060495 0)
(1.07611 0.0495579 0)
(1.07319 0.0394753 0)
(1.07079 0.0300547 0)
(1.06895 0.0211277 0)
(1.06772 0.0125422 0)
(1.06714 0.00415833 0)
(1.07951 -0.00426145 0)
(1.08028 -0.0128598 0)
(1.0819 -0.0216831 0)
(1.08433 -0.0308856 0)
(1.08755 -0.040635 0)
(1.09152 -0.0511153 0)
(1.0962 -0.0625324 1.03452e-25)
(1.10153 -0.0751194 1.24275e-25)
(1.10742 -0.0891465 2.94965e-25)
(1.11378 -0.104947 1.73623e-24)
(1.12051 -0.122947 2.44082e-24)
(1.12745 -0.143688 1.90172e-24)
(1.1336 -0.167937 1.11133e-24)
(1.13018 -0.196769 0)
(1.13641 -0.225746 0)
(1.1355 -0.269152 6.67924e-25)
(1.13988 -0.330002 -1.81755e-24)
(1.15742 -0.441325 2.92297e-24)
(0.810968 -0.446749 1.58394e-22)
(0.94388 0.510312 0)
(1.16516 0.423788 2.80493e-24)
(1.14698 0.310878 -6.42874e-26)
(1.14196 0.243773 -6.04925e-25)
(1.13463 0.206633 0)
(1.13429 0.164778 -6.81505e-26)
(1.12755 0.140789 0)
(1.12016 0.12039 -1.59334e-24)
(1.11313 0.102741 -2.03962e-24)
(1.10657 0.0872798 -8.66345e-25)
(1.10057 0.0735711 -3.65137e-25)
(1.09518 0.0612762 -1.01372e-25)
(1.09047 0.0501199 0)
(1.08649 0.0398689 0)
(1.08329 0.0303208 0)
(1.08087 0.0212966 0)
(1.07926 0.0126349 0)
(1.0785 0.00418769 0)
(1.09096 -0.00415865 0)
(1.09194 -0.0125535 0)
(1.09397 -0.0211775 0)
(1.09703 -0.0301858 0)
(1.10111 -0.039746 0)
(1.10621 -0.0500392 0)
(1.1123 -0.0612642 0)
(1.11937 -0.0736393 4.87289e-25)
(1.12737 -0.0874027 1.73509e-24)
(1.13629 -0.102822 1.36079e-24)
(1.14611 -0.120201 0)
(1.15682 -0.139887 0)
(1.16787 -0.162436 1.07488e-24)
(1.17053 -0.189956 1.88549e-24)
(1.18543 -0.214117 6.81179e-31)
(1.19778 -0.247796 -2.0497e-25)
(1.22567 -0.284702 -1.70888e-25)
(1.25215 -0.306901 2.02856e-24)
(0.00624226 0.000990447 -2.43947e-25)
(0.0235894 -0.00192506 -2.18511e-25)
(1.2664 0.307439 0)
(1.2253 0.270019 1.39597e-25)
(1.19733 0.225169 -1.11755e-24)
(1.17934 0.196541 1.40454e-32)
(1.16813 0.158038 5.22914e-25)
(1.15629 0.136015 0)
(1.14512 0.11693 0)
(1.13502 0.100127 0)
(1.12597 0.0852243 0)
(1.11792 0.0719095 0)
(1.11086 0.0599144 0)
(1.1048 0.0490058 0)
(1.09975 0.0389743 0)
(1.09572 0.0296313 0)
(1.09271 0.0208058 0)
(1.09071 0.0123403 0)
(1.08975 0.0040893 0)
(1.10194 -0.00391721 0)
(1.10313 -0.0118273 0)
(1.10556 -0.0199593 0)
(1.10925 -0.0284614 0)
(1.11418 -0.0374927 0)
(1.12037 -0.047223 0)
(1.12784 -0.0578353 0)
(1.13657 -0.0695259 0)
(1.14653 -0.0824982 2.18347e-24)
(1.15775 -0.0969534 2.56609e-24)
(1.17023 -0.113088 0)
(1.18394 -0.131077 0)
(1.19871 -0.151148 2.00025e-24)
(1.20439 -0.17547 -4.85619e-30)
(1.22242 -0.194789 -2.57782e-24)
(1.23705 -0.2182 -7.21924e-25)
(1.25869 -0.237146 0)
(0.972954 -0.167366 3.31969e-24)
(-0.00327483 -0.0385278 0)
(0.0216142 0.0407899 -5.67987e-25)
(1.10439 0.192476 7.30808e-24)
(1.26082 0.22617 0)
(1.2351 0.198765 0)
(1.21467 0.178199 0)
(1.19794 0.145345 0)
(1.18232 0.126313 6.68778e-24)
(1.16823 0.109264 1.6789e-28)
(1.15561 0.0939353 -4.97354e-24)
(1.14439 0.0801613 2.122e-24)
(1.13449 0.067752 1.79352e-24)
(1.12588 0.0565141 0)
(1.11855 0.0462575 0)
(1.11249 0.0368035 0)
(1.10768 0.0279863 0)
(1.10409 0.019652 0)
(1.10172 0.0116556 0)
(1.10057 0.00386213 0)
(1.11209 -0.0035412 0)
(1.11347 -0.0106941 0)
(1.11629 -0.0180525 0)
(1.12055 -0.0257521 0)
(1.12628 -0.0339396 0)
(1.13351 -0.0427706 0)
(1.14225 -0.0524122 0)
(1.15252 -0.0630454 1.66863e-24)
(1.16429 -0.0748583 1.98131e-24)
(1.17756 -0.0880251 0)
(1.19231 -0.102691 0)
(1.20848 -0.118981 0)
(1.22601 -0.137028 0)
(1.23302 -0.158501 0)
(1.25128 -0.176084 0)
(1.26395 -0.194909 0)
(1.26436 -0.206221 3.41129e-25)
(0.697103 -0.105372 -1.15325e-24)
(0.0319058 -0.0569475 0)
(-0.0661729 -0.0568772 -1.53601e-24)
(-0.085349 0.00899409 -7.05995e-26)
(-0.0568761 0.071153 0)
(0.0738536 0.0623832 -2.47608e-24)
(0.864337 0.127633 1.71124e-29)
(1.27907 0.195134 -1.77572e-24)
(1.26235 0.174456 -4.61851e-24)
(1.24246 0.157798 0)
(1.2232 0.129526 0)
(1.20511 0.113226 0)
(1.18885 0.0983618 5.20808e-24)
(1.17423 0.0848436 4.49243e-24)
(1.16119 0.072572 0)
(1.1497 0.0614379 0)
(1.13973 0.0513059 0)
(1.13127 0.0420272 0)
(1.12429 0.0334551 0)
(1.11876 0.0254484 0)
(1.11464 0.0178731 0)
(1.11193 0.0106012 0)
(1.1106 0.0035127 0)
(1.12104 -0.00304204 0)
(1.1226 -0.0091887 0)
(1.12577 -0.0155165 0)
(1.13056 -0.0221445 0)
(1.13701 -0.0292042 0)
(1.14517 -0.0368369 0)
(1.15507 -0.0451974 0)
(1.16675 -0.0544576 1.44131e-24)
(1.1802 -0.0648076 -1.71492e-24)
(1.19537 -0.076436 -4.04579e-24)
(1.21225 -0.0895316 -9.47665e-24)
(1.23073 -0.104269 -1.1037e-23)
(1.2506 -0.120674 0)
(1.25915 -0.14017 0)
(1.27761 -0.158733 0)
(1.29181 -0.176029 0)
(1.21321 -0.175799 0)
(0.470791 -0.0808231 5.34764e-25)
(0.0461165 -0.0734935 0)
(-0.132962 -0.0568036 -5.02354e-24)
(-0.189558 0.00270375 -1.7868e-26)
(-0.0924772 0.0550221 0)
(0.114209 0.0622812 3.22889e-24)
(0.741926 0.098162 1.36799e-30)
(1.27935 0.166563 0)
(1.28523 0.151587 0)
(1.26542 0.136773 0)
(1.24451 0.112023 0)
(1.22483 0.0981578 1.03958e-23)
(1.20682 0.0853083 9.03524e-24)
(1.19055 0.0736085 3.8975e-24)
(1.176 0.0629914 3.33542e-24)
(1.16315 0.0533521 0)
(1.15201 0.0445727 0)
(1.14256 0.0365254 0)
(1.13478 0.0290836 0)
(1.12862 0.0221277 0)
(1.12404 0.015543 0)
(1.12102 0.00921943 0)
(1.11953 0.00305474 0)
(1.12849 -0.00243651 0)
(1.13021 -0.00736155 0)
(1.13367 -0.0124355 0)
(1.13891 -0.0177558 0)
(1.14599 -0.0234332 0)
(1.15495 -0.0295904 0)
(1.16587 -0.0363654 0)
(1.17881 -0.0439184 0)
(1.1938 -0.0524413 0)
(1.2108 -0.0621625 -3.28991e-24)
(1.22982 -0.0733342 3.88067e-24)
(1.25076 -0.0862423 1.82564e-23)
(1.27327 -0.101231 2.14287e-23)
(1.29589 -0.118854 2.51589e-23)
(1.30494 -0.14126 7.47565e-24)
(1.31176 -0.158013 0)
(1.14076 -0.154679 2.04661e-24)
(0.415844 -0.0913158 0)
(0.0569181 -0.104312 0)
(-0.197426 -0.0802139 1.06171e-24)
(-0.280673 -0.0167336 -2.21597e-25)
(-0.143657 0.0436893 5.78156e-25)
(0.123175 0.0623204 0)
(0.634586 0.0765232 0)
(1.27441 0.132203 -1.75031e-24)
(1.30575 0.128722 0)
(1.28391 0.105135 -5.56756e-24)
(1.26248 0.0923433 -1.95622e-23)
(1.24152 0.080726 -1.71004e-23)
(1.22206 0.0701008 -3.71271e-24)
(1.20437 0.0604418 3.2007e-24)
(1.18852 0.0516921 0)
(1.17452 0.0437666 0)
(1.16238 0.0365588 0)
(1.15211 0.029956 0)
(1.14365 0.0238525 0)
(1.13696 0.0181481 0)
(1.132 0.0127479 0)
(1.12872 0.00756112 0)
(1.12709 0.00250503 0)
(1.13418 -0.00174507 0)
(1.13602 -0.00527334 0)
(1.1397 -0.00890872 0)
(1.1453 -0.0127205 0)
(1.15286 -0.0167909 0)
(1.16247 -0.0212154 0)
(1.17422 -0.026107 0)
(1.18821 -0.0316047 0)
(1.20454 -0.0378926 0)
(1.22324 -0.0452124 -2.39283e-24)
(1.24434 -0.053864 -8.55155e-24)
(1.26794 -0.0642692 -1.36037e-23)
(1.29379 -0.0770013 -1.62979e-23)
(1.32089 -0.0928522 -9.82672e-24)
(1.33442 -0.115383 0)
(1.33063 -0.133153 0)
(1.07066 -0.132609 0)
(0.428446 -0.111318 0)
(0.0602854 -0.132705 0)
(-0.26775 -0.10624 0)
(-0.380037 -0.0388873 0)
(-0.212692 0.0311711 0)
(0.124255 0.0614483 0)
(0.578641 0.062973 0)
(1.25378 0.103528 -1.37089e-24)
(1.32302 0.103267 0)
(1.30086 0.0822374 8.71155e-24)
(1.27772 0.0713591 1.51186e-23)
(1.25522 0.0616991 1.30711e-23)
(1.23437 0.0531947 8.45135e-24)
(1.21544 0.0456566 2.41773e-24)
(1.19848 0.0389429 0)
(1.18352 0.0329262 0)
(1.17058 0.0274839 0)
(1.15965 0.0225128 0)
(1.15065 0.017924 0)
(1.14355 0.0136376 0)
(1.13827 0.00957997 0)
(1.13479 0.00568187 0)
(1.13306 0.00188217 0)
(1.1379 -0.000991298 0)
(1.13982 -0.00299502 0)
(1.14365 -0.00505479 0)
(1.14946 -0.00720467 0)
(1.15734 -0.00948959 0)
(1.16738 -0.0119659 0)
(1.17969 -0.0147062 0)
(1.19443 -0.0178049 0)
(1.21175 -0.0213921 0)
(1.23179 -0.0256631 0)
(1.25464 -0.0308732 0)
(1.28071 -0.0374316 0)
(1.30985 -0.0459001 0)
(1.34175 -0.0571974 -1.51297e-24)
(1.36208 -0.0775442 0)
(1.34791 -0.0938605 0)
(1.031 -0.100876 -1.33448e-24)
(0.471298 -0.111948 0)
(0.0634823 -0.134166 0)
(-0.336314 -0.113848 0)
(-0.481633 -0.0513086 0)
(-0.294481 0.0197539 0)
(0.11582 0.0552412 0)
(0.56128 0.0512236 0)
(1.22975 0.0731295 -9.68544e-25)
(1.33718 0.074116 0)
(1.31486 0.0552048 0)
(1.28966 0.0470142 -4.98029e-24)
(1.26563 0.0402393 -4.26292e-24)
(1.24346 0.0344119 0)
(1.22346 0.0293787 0)
(1.20559 0.0249698 0)
(1.1899 0.0210677 0)
(1.17637 0.017567 0)
(1.16495 0.0143847 0)
(1.15558 0.0114541 0)
(1.14818 0.00871835 0)
(1.14269 0.00612648 0)
(1.13907 0.00363374 0)
(1.13725 0.00120344 0)
(1.13952 -0.00020337 0)
(1.14148 -0.00061189 0)
(1.14534 -0.00101838 0)
(1.15123 -0.00141552 0)
(1.1592 -0.00180176 0)
(1.16939 -0.00218054 0)
(1.18193 -0.00256368 0)
(1.19697 -0.00297586 0)
(1.21475 -0.00345897 0)
(1.23548 -0.0041059 0)
(1.25934 -0.00506412 0)
(1.28697 -0.0065657 0)
(1.31848 -0.00905362 0)
(1.35373 -0.0129139 0)
(1.38163 -0.027584 0)
(1.36116 -0.0378258 0)
(1.0293 -0.0520662 0)
(0.514475 -0.0763259 0)
(0.0747661 -0.095732 0)
(-0.392928 -0.0904551 0)
(-0.567488 -0.0445665 -5.9017e-25)
(-0.368018 0.00866916 0)
(0.101643 0.0353704 0)
(0.566872 0.0321287 0)
(1.20868 0.0382786 0)
(1.34743 0.0398176 0)
(1.32449 0.0253443 0)
(1.29753 0.0206665 0)
(1.27206 0.0169341 0)
(1.24879 0.0141169 0)
(1.22802 0.011874 0)
(1.20955 0.0100205 0)
(1.1934 0.00843641 0)
(1.17952 0.00704048 0)
(1.16784 0.00578033 0)
(1.15826 0.00461885 0)
(1.1507 0.00352731 0)
(1.14511 0.0024845 0)
(1.14142 0.00147465 0)
(1.13955 0.000488115 0)
(1.13901 0.000584533 0)
(1.14094 0.00177223 0)
(1.14474 0.00302321 0)
(1.15052 0.00438858 0)
(1.15836 0.00592006 0)
(1.16837 0.00767346 0)
(1.1807 0.00970978 0)
(1.19552 0.012095 0)
(1.21304 0.0149029 0)
(1.23357 0.018212 0)
(1.25729 0.022085 0)
(1.28489 0.0266288 0)
(1.31682 0.0318711 0)
(1.35276 0.0376597 0)
(1.38722 0.0306598 0)
(1.36699 0.030657 0)
(1.05239 0.0138103 0)
(0.545357 -0.0120616 0)
(0.0781917 -0.0208442 0)
(-0.431843 -0.0213441 1.32526e-30)
(-0.612405 -0.0179501 -2.37843e-25)
(-0.392202 0.00325276 4.28764e-26)
(0.0902862 0.0074948 0)
(0.578981 -0.000392343 2.49152e-27)
(1.19471 -0.00155513 6.12937e-29)
(1.35144 0.000109521 0)
(1.32793 -0.00933591 0)
(1.30004 -0.00903651 0)
(1.27363 -0.00830812 0)
(1.24983 -0.00741226 0)
(1.22872 -0.00645324 0)
(1.21007 -0.00550032 0)
(1.19381 -0.00460025 0)
(1.17989 -0.00377742 0)
(1.16818 -0.00303699 0)
(1.15859 -0.00237317 0)
(1.15104 -0.00177634 0)
(1.14545 -0.00123306 0)
(1.14176 -0.000727852 0)
(1.13989 -0.000241352 0)
(1.1364 0.00133335 0)
(1.13825 0.00403809 0)
(1.14188 0.00686433 0)
(1.14738 0.0099049 0)
(1.15484 0.01326 0)
(1.16435 0.0170435 0)
(1.17604 0.0213896 0)
(1.19004 0.0264591 0)
(1.20655 0.0324466 0)
(1.22583 0.0395965 0)
(1.24808 0.0481869 0)
(1.27377 0.0585945 0)
(1.30361 0.0712458 0)
(1.33746 0.0864231 0)
(1.3706 0.104554 0)
(1.36383 0.105779 -3.5001e-25)
(1.03451 0.0897031 -5.93648e-25)
(0.529494 0.0527955 -6.98814e-25)
(0.0349342 0.0334242 0)
(-0.489444 0.0116474 -1.54053e-25)
(-0.618467 -0.00326504 4.33388e-26)
(-0.320789 -0.0169045 0)
(0.160945 -0.017301 0)
(0.671305 -0.033026 4.37004e-25)
(1.19041 -0.0464841 1.53788e-25)
(1.34599 -0.0511445 0)
(1.32418 -0.0449027 0)
(1.29588 -0.0393892 0)
(1.26956 -0.0340709 0)
(1.24606 -0.0292062 0)
(1.22528 -0.0248671 0)
(1.20695 -0.0210017 0)
(1.19103 -0.0175626 0)
(1.17739 -0.0145 0)
(1.16594 -0.0117556 0)
(1.15656 -0.00927462 0)
(1.14917 -0.00700439 0)
(1.14371 -0.0048942 0)
(1.1401 -0.00289559 0)
(1.13826 -0.000959091 0)
(1.13186 0.00200585 0)
(1.13358 0.00607218 0)
(1.13694 0.0103096 0)
(1.14202 0.0148459 0)
(1.14888 0.0198209 0)
(1.15759 0.0253953 0)
(1.16823 0.03176 0)
(1.1809 0.0391495 0)
(1.19571 0.0478561 0)
(1.21281 0.0582542 0)
(1.23233 0.0708165 0)
(1.25444 0.0861961 0)
(1.27968 0.10535 0)
(1.30783 0.129557 0)
(1.33593 0.158707 0)
(1.2959 0.181984 0)
(0.966464 0.176827 0)
(0.488377 0.13765 0)
(-0.0239732 0.0930691 -4.81156e-27)
(-0.503052 0.057688 -1.4912e-26)
(-0.565351 0.0208246 -4.30642e-27)
(-0.187814 -0.0156623 0)
(0.341213 -0.0525377 0)
(0.849257 -0.0864782 0)
(1.24901 -0.0999298 0)
(1.33292 -0.0934133 0)
(1.31184 -0.0809707 0)
(1.28469 -0.0691768 0)
(1.25966 -0.0589847 0)
(1.23739 -0.0501882 0)
(1.21764 -0.0425258 0)
(1.20021 -0.0358126 0)
(1.18507 -0.0299147 0)
(1.17209 -0.0246965 0)
(1.16117 -0.0200325 0)
(1.15222 -0.0158171 0)
(1.14517 -0.0119544 0)
(1.13995 -0.00835723 0)
(1.1365 -0.00494464 0)
(1.13472 -0.00163731 0)
(1.12563 0.00257182 0)
(1.12719 0.00778149 0)
(1.1302 0.013196 0)
(1.13474 0.0189664 0)
(1.14084 0.0252585 0)
(1.14853 0.0322622 0)
(1.15784 0.0402025 0)
(1.1688 0.049353 0)
(1.18141 0.0600574 0)
(1.19569 0.0727572 0)
(1.2116 0.0880207 0)
(1.22899 0.106595 0)
(1.24796 0.129477 0)
(1.26788 0.15797 0)
(1.28904 0.192674 0)
(1.27048 0.222567 0)
(0.994557 0.225758 0)
(0.5528 0.196909 0)
(0.0277054 0.156121 0)
(-0.440268 0.107338 8.26901e-35)
(-0.490159 0.042748 3.29319e-35)
(-0.121961 -0.0244748 0)
(0.402012 -0.0807264 0)
(0.889842 -0.121333 0)
(1.24864 -0.137447 0)
(1.31349 -0.129399 0)
(1.29116 -0.112346 0)
(1.26676 -0.0957454 0)
(1.24426 -0.0814242 0)
(1.22407 -0.0691027 0)
(1.20604 -0.0584465 0)
(1.19008 -0.0491824 0)
(1.17615 -0.0410727 0)
(1.16416 -0.0339067 0)
(1.15405 -0.0275086 0)
(1.14574 -0.021727 0)
(1.13919 -0.0164265 0)
(1.13432 -0.0114867 0)
(1.1311 -0.00679684 0)
(1.12944 -0.00225046 0)
(1.11804 0.0030126 0)
(1.11941 0.00910909 0)
(1.12203 0.0154247 0)
(1.12596 0.0221194 0)
(1.1312 0.0293682 0)
(1.13775 0.0373691 0)
(1.14559 0.0463543 0)
(1.15467 0.0565987 0)
(1.16488 0.0684388 0)
(1.1761 0.0822954 0)
(1.18812 0.0986978 0)
(1.20053 0.118314 0)
(1.2131 0.141988 0)
(1.22473 0.170855 0)
(1.23663 0.20641 0)
(1.23632 0.240165 0)
(1.00966 0.250981 0)
(0.606425 0.229291 0)
(0.0923323 0.183129 0)
(-0.354782 0.121535 0)
(-0.386214 0.0468379 0)
(-0.0204057 -0.0370423 0)
(0.478494 -0.1117 0)
(0.934826 -0.160406 0)
(1.2461 -0.175504 0)
(1.28659 -0.161906 0)
(1.26356 -0.138885 0)
(1.24322 -0.11789 0)
(1.2241 -0.100086 0)
(1.20675 -0.0848521 0)
(1.19107 -0.0717599 0)
(1.17702 -0.0604133 0)
(1.16467 -0.0504841 0)
(1.15396 -0.0417075 0)
(1.14488 -0.0338657 0)
(1.13739 -0.0267694 0)
(1.13146 -0.0202533 0)
(1.12705 -0.0141709 0)
(1.12413 -0.00838778 0)
(1.1226 -0.00277744 0)
(1.10942 0.00332363 0)
(1.1106 0.0100413 0)
(1.11282 0.0169731 0)
(1.11613 0.0242722 0)
(1.12052 0.0321058 0)
(1.12593 0.0406589 0)
(1.1323 0.0501443 0)
(1.13953 0.0608092 0)
(1.14743 0.0729418 0)
(1.15575 0.0868869 0)
(1.16417 0.103059 0)
(1.17211 0.121955 0)
(1.1791 0.144179 0)
(1.18373 0.17046 0)
(1.18573 0.202484 0)
(1.198 0.234334 0)
(1.01638 0.24676 0)
(0.654771 0.227967 0)
(0.163772 0.186051 0)
(-0.256712 0.123006 0)
(-0.264722 0.0362611 0)
(0.101047 -0.0584939 0)
(0.56919 -0.139828 0)
(0.980846 -0.191649 0)
(1.23719 -0.203837 0)
(1.25108 -0.184772 0)
(1.23051 -0.157382 0)
(1.2155 -0.133692 0)
(1.20039 -0.113674 0)
(1.18646 -0.0965522 0)
(1.17352 -0.0818199 0)
(1.16172 -0.0690071 0)
(1.15119 -0.0577682 0)
(1.14197 -0.047812 0)
(1.13408 -0.03889 0)
(1.12753 -0.0307888 0)
(1.12232 -0.0233252 0)
(1.11842 -0.0163366 0)
(1.11583 -0.00967546 0)
(1.11446 -0.00320454 0)
(1.10013 0.00350723 0)
(1.10113 0.0105865 0)
(1.10298 0.0178605 0)
(1.10571 0.0254646 0)
(1.10929 0.0335449 0)
(1.11366 0.0422598 0)
(1.11871 0.0517834 0)
(1.12429 0.0623122 0)
(1.13018 0.0740641 0)
(1.13606 0.0872812 0)
(1.14153 0.102241 0)
(1.14592 0.11925 0)
(1.1487 0.138634 0)
(1.14843 0.160663 0)
(1.1421 0.186677 0)
(1.16238 0.213103 0)
(1.02006 0.224165 0)
(0.697878 0.208555 0)
(0.230857 0.169447 0)
(-0.149581 0.104392 1.60842e-34)
(-0.129765 0.0131302 2.02303e-35)
(0.22955 -0.0858359 0)
(0.66271 -0.167755 0)
(1.02171 -0.214743 0)
(1.22011 -0.220039 0)
(1.20939 -0.195895 0)
(1.19505 -0.166557 0)
(1.18568 -0.142244 0)
(1.17483 -0.12154 0)
(1.1645 -0.103719 0)
(1.15441 -0.0882524 0)
(1.14497 -0.0747027 0)
(1.13638 -0.0627411 0)
(1.12873 -0.0520777 0)
(1.1221 -0.0424642 0)
(1.11655 -0.0336882 0)
(1.1121 -0.0255644 0)
(1.10875 -0.0179268 0)
(1.10652 -0.0106251 0)
(1.10532 -0.00352008 0)
(1.0905 0.00357115 0)
(1.09134 0.0107698 0)
(1.09286 0.0181355 0)
(1.09509 0.025781 0)
(1.09799 0.0338242 0)
(1.10147 0.0423889 0)
(1.10542 0.051603 0)
(1.10966 0.0616017 0)
(1.11396 0.0725265 0)
(1.118 0.0845144 0)
(1.12131 0.0976995 0)
(1.12328 0.112203 0)
(1.12337 0.128094 0)
(1.12044 0.145269 0)
(1.10855 0.164504 0)
(1.13377 0.183776 0)
(1.02407 0.190796 0)
(0.736105 0.175351 0)
(0.298143 0.136876 0)
(-0.040264 0.0720761 0)
(0.00513998 -0.0162364 0)
(0.357458 -0.110515 0)
(0.749291 -0.18631 0)
(1.05185 -0.22515 0)
(1.19435 -0.223076 0)
(1.16522 -0.195796 0)
(1.16037 -0.167156 0)
(1.15591 -0.144083 0)
(1.14913 -0.124 0)
(1.14215 -0.106489 0)
(1.13479 -0.0910949 0)
(1.12765 -0.0774784 0)
(1.12094 -0.0653474 0)
(1.11483 -0.0544363 0)
(1.10945 -0.0445202 0)
(1.10488 -0.0354047 0)
(1.10118 -0.0269169 0)
(1.09838 -0.0189004 0)
(1.0965 -0.0112112 0)
(1.09548 -0.00371551 0)
(1.08084 0.00353239 0)
(1.08154 0.0106428 0)
(1.08279 0.0178874 0)
(1.08461 0.0253539 0)
(1.08695 0.0331317 0)
(1.08974 0.041309 0)
(1.09284 0.0499706 0)
(1.0961 0.059194 0)
(1.09927 0.0690488 0)
(1.10206 0.0795816 0)
(1.10405 0.0908062 0)
(1.10464 0.102703 0)
(1.10345 0.115165 0)
(1.09976 0.127843 0)
(1.08514 0.141025 0)
(1.11374 0.1537 0)
(1.03058 0.156627 0)
(0.77208 0.140832 0)
(0.366224 0.102795 0)
(0.0670049 0.0386611 0)
(0.131734 -0.0449843 0)
(0.474402 -0.129777 0)
(0.822771 -0.193999 0)
(1.0695 -0.222165 0)
(1.16209 -0.213496 0)
(1.12293 -0.185962 0)
(1.12906 -0.160484 0)
(1.12798 -0.139999 0)
(1.12468 -0.121574 0)
(1.12053 -0.105216 0)
(1.11559 -0.0906011 0)
(1.11051 -0.0774998 0)
(1.10551 -0.0656805 0)
(1.10081 -0.0549341 0)
(1.09658 -0.0450781 0)
(1.09293 -0.035947 0)
(1.08994 -0.027388 0)
(1.08766 -0.0192617 0)
(1.08612 -0.0114372 0)
(1.08527 -0.00379221 0)
(1.07139 0.00341689 0)
(1.07198 0.0102848 0)
(1.07302 0.0172517 0)
(1.07453 0.024381 0)
(1.07646 0.0317346 0)
(1.07873 0.0393685 0)
(1.08124 0.0473311 0)
(1.08384 0.055655 0)
(1.0863 0.0643548 0)
(1.08839 0.0734156 0)
(1.08974 0.0827679 0)
(1.08981 0.0922966 0)
(1.08839 0.101809 0)
(1.0853 0.110836 0)
(1.0701 0.119343 0)
(1.10126 0.126901 0)
(1.03969 0.126454 0)
(0.807451 0.109544 0)
(0.434822 0.0711333 0)
(0.168384 0.0102844 0)
(0.245227 -0.0640647 0)
(0.574322 -0.136194 0)
(0.880548 -0.187926 0)
(1.07551 -0.206662 0)
(1.12742 -0.194261 0)
(1.08654 -0.169545 0)
(1.10249 -0.148725 0)
(1.1031 -0.131376 0)
(1.1025 -0.115195 0)
(1.10055 -0.100552 0)
(1.09759 -0.0872375 0)
(1.0942 -0.075112 0)
(1.09065 -0.0640131 0)
(1.08716 -0.0537939 0)