/*--------------------------------*- C++ -*----------------------------------*\
| =========                 |                                                 |
| \\      /  F ield         | OpenFOAM: The Open Source CFD Toolbox           |
|  \\    /   O peration     | Version:  v2106                                 |
|   \\  /    A nd           | Website:  www.openfoam.com                      |
|    \\/     M anipulation  |                                                 |
\*---------------------------------------------------------------------------*/
FoamFile
{
    version     2.0;
    format      ascii;
    arch        "LSB;label=32;scalar=64";
    class       volScalarField;
    location    "0";
    object      p;
}
// * * * * * * * * * * * * * * * * * * * * * * * * * * * * * * * * * * * * * //

dimensions      [0 2 -2 0 0 0 0];

internalField   nonuniform List<scalar> 
11644
(
0.0252899
0.0257374
0.0266787
0.0281377
0.0301277
0.0326694
0.0357901
0.0395157
0.043864
0.0488406
0.0544331
0.060589
0.0672291
0.0742427
0.0814526
0.0886548
0.0956107
0.102076
0.107844
0.112634
0.116195
0.118443
0.119455
0.119359
0.118196
0.116063
0.11323
0.109912
0.10631
0.102626
0.0990092
0.0955707
0.0923975
0.0895512
0.0870721
0.0849866
0.0833111
0.082056
0.0812336
0.0808398
0.0244913
0.0249295
0.0258342
0.0272339
0.0291543
0.0316242
0.0346772
0.0383466
0.0426606
0.0476392
0.053282
0.0595707
0.0664411
0.0737645
0.0813784
0.0890707
0.0965815
0.103584
0.109712
0.114653
0.118284
0.120564
0.121457
0.121076
0.119547
0.117077
0.113878
0.110214
0.106324
0.102398
0.09859
0.0950181
0.0917573
0.0888582
0.0863528
0.0842606
0.0825907
0.081349
0.0805358
0.0801414
0.0227933
0.0232218
0.0240816
0.0253932
0.0271924
0.0295232
0.0324313
0.0359678
0.0401864
0.0451361
0.0508595
0.0573779
0.0646673
0.072647
0.0811581
0.089928
0.0985904
0.106633
0.113581
0.119151
0.123145
0.125427
0.125883
0.124815
0.122468
0.119136
0.115129
0.110741
0.106233
0.101824
0.0976623
0.093842
0.0904212
0.0874293
0.084878
0.0827701
0.0811017
0.0798643
0.0790438
0.0786325
0.0202667
0.0206591
0.0214412
0.0226237
0.0242476
0.0263662
0.0290425
0.0323512
0.0363791
0.0412274
0.0470016
0.0538114
0.0617365
0.0707677
0.0807361
0.0911906
0.101626
0.111537
0.120163
0.126925
0.131392
0.133376
0.132907
0.13051
0.12676
0.121992
0.116695
0.111222
0.105832
0.100732
0.0960702
0.0919203
0.0882973
0.0851946
0.0825934
0.0804708
0.0788041
0.0775681
0.0767429
0.0763241
0.0170256
0.0173517
0.0180033
0.0189966
0.0203689
0.0221786
0.0245044
0.0274449
0.0311284
0.0357171
0.0414329
0.0485512
0.0572973
0.0677462
0.0797701
0.0927688
0.105887
0.119025
0.130481
0.13901
0.144009
0.14514
0.142906
0.13801
0.131902
0.124901
0.117768
0.110912
0.104528
0.0987132
0.0935323
0.0890422
0.0852305
0.0820406
0.079417
0.0773074
0.0756669
0.0744581
0.0736533
0.0732489
0.0132153
0.013445
0.0139125
0.014638
0.0156577
0.0170319
0.018843
0.021208
0.0242951
0.028383
0.0338705
0.0411709
0.0506475
0.0626171
0.0772726
0.0940744
0.111472
0.129805
0.145829
0.157419
0.163045
0.162286
0.156551
0.147339
0.137227
0.126873
0.117165
0.108649
0.101342
0.0950412
0.0895849
0.0849141
0.0810162
0.0778336
0.0752713
0.073246
0.0716898
0.0705541
0.0698075
0.0694313
0.00898905
0.00910648
0.00934336
0.00971888
0.0102738
0.0110598
0.0121548
0.0136811
0.0158609
0.0191287
0.0239822
0.0308741
0.0403203
0.0534085
0.0709036
0.0928416
0.11175
0.134774
0.157151
0.174772
0.183577
0.182478
0.173392
0.159738
0.141118
0.126214
0.113335
0.103234
0.0952991
0.0888925
0.0836076
0.0791607
0.0754501
0.07246
0.0701042
0.0682746
0.0668902
0.0658931
0.0652476
0.0649328
0.00454364
0.0045211
0.00448605
0.00445341
0.00444299
0.00449232
0.00466584
0.00507355
0.00600626
0.00792861
0.011266
0.016594
0.0247809
0.0380787
0.0554111
0.0782951
0.110493
0.147232
0.183904
0.212875
0.225111
0.218366
0.197823
0.172332
0.147458
0.125587
0.110422
0.0934325
0.085696
0.0797641
0.0751737
0.0714561
0.0683627
0.0658549
0.0639098
0.0624295
0.0613297
0.0605547
0.0600553
0.0598107
0.000104455
-6.06895e-05
-0.000391558
-0.000885642
-0.0015415
-0.00234636
-0.00327319
-0.00423744
-0.00496212
-0.00511992
-0.00438551
-0.00225733
0.00195762
0.0171062
0.0322405
0.0579752
0.0937404
0.144996
0.206822
0.261143
0.285691
0.269753
0.228177
0.183471
0.144793
0.114194
0.0968905
0.0779961
0.0717803
0.0674648
0.0642596
0.0617568
0.0597187
0.0580486
0.0567641
0.0558118
0.0551186
0.0546323
0.054329
0.0541733
-0.00408034
-0.00438811
-0.00501923
-0.00598588
-0.00731044
-0.00902901
-0.0111759
-0.0137136
-0.0165159
-0.019521
-0.0225508
-0.0252977
-0.0278163
-0.0177768
-0.0108113
0.0125801
0.0499217
0.114917
0.218368
0.340137
0.400125
0.350045
0.250819
0.171273
0.11669
0.0821688
0.0701634
0.055472
0.0535692
0.0521427
0.051074
0.0503257
0.0497377
0.0492228
0.0488321
0.0485717
0.0484079
0.0483035
0.0482428
0.0482297
-0.00773988
-0.00820528
-0.00911303
-0.0105185
-0.0124703
-0.0150616
-0.0184215
-0.0226191
-0.0277361
-0.03404
-0.0417992
-0.0511658
-0.0627516
-0.0646656
-0.0742878
-0.0742843
-0.0625693
-0.0281098
0.0964739
0.376944
0.594503
0.387138
0.161696
0.0690653
0.0382192
0.0278178
0.0312796
0.0278054
0.031632
0.0341128
0.036109
0.0376923
0.0388836
0.0397601
0.0404493
0.0410175
0.0414634
0.0417944
0.0420063
0.0421003
-0.0107247
-0.0112427
-0.0123666
-0.0141193
-0.0165945
-0.0199143
-0.0242975
-0.0299661
-0.0372508
-0.0466842
-0.0590679
-0.0754957
-0.097629
-0.110017
-0.147936
-0.181796
-0.242385
-0.360999
-0.650919
-0.387228
-0.157593
-0.0732674
-0.0359794
-0.0134171
-0.00191342
0.00782124
0.0150436
0.0205609
0.0246762
0.0277931
0.0301856
0.0320371
0.0334813
0.0345596
0.03533
0.0358418
0.0360965
-0.012714
-0.0133231
-0.0145651
-0.0165247
-0.0193163
-0.0230818
-0.0280872
-0.034692
-0.0434273
-0.0550187
-0.0705787
-0.0917391
-0.120507
-0.147181
-0.202841
-0.268245
-0.381486
-0.597404
-0.860072
-0.393604
-0.270028
-0.14789
-0.0864021
-0.0511012
-0.0287771
-0.0137103
-0.00243099
0.00602287
0.012387
0.0173074
0.0211558
0.024131
0.0263945
0.0280718
0.0292739
0.030064
0.030457
-0.0136352
-0.014241
-0.0155154
-0.0175265
-0.0203695
-0.0242053
-0.0292877
-0.0360309
-0.0450554
-0.0571348
-0.0733603
-0.0952606
-0.124777
-0.158222
-0.216819
-0.292181
-0.409745
-0.585639
-0.680708
-0.280874
-0.233278
-0.16011
-0.107899
-0.0744754
-0.0471345
-0.0296955
-0.0162118
-0.00594738
0.00204018
0.00834007
0.0133557
0.0172728
0.0202069
0.0223658
0.0238756
0.0248351
0.025342
-0.0134757
-0.0139872
-0.0151775
-0.0170378
-0.0196598
-0.0231814
-0.0277404
-0.03374
-0.0417936
-0.0523809
-0.0663561
-0.084688
-0.10877
-0.14137
-0.189696
-0.259478
-0.369196
-0.552753
-0.747825
-0.77482
-0.580106
-0.335029
-0.199617
-0.175775
-0.151913
-0.114344
-0.0846217
-0.0566277
-0.0390994
-0.025017
-0.0141633
-0.00532168
0.00170617
0.00742514
0.0118937
0.0152271
0.0176974
0.0194199
0.020498
0.0208804
-0.0121656
-0.0126897
-0.0137119
-0.0152461
-0.0173757
-0.0201777
-0.0236717
-0.0280815
-0.0339381
-0.0412938
-0.0505126
-0.0621828
-0.0764626
-0.103691
-0.131281
-0.172563
-0.253489
-0.395611
-0.64142
-0.76837
-0.568885
-0.306795
-0.195069
-0.194294
-0.163691
-0.121406
-0.0899647
-0.0596982
-0.0424624
-0.0287213
-0.0178712
-0.00906921
-0.00193621
0.00385868
0.00836214
0.011786
0.0143378
0.0161181
0.0172137
0.0176743
-0.00991856
-0.0104187
-0.011148
-0.01222
-0.0136607
-0.0154906
-0.0176726
-0.0200902
-0.0229223
-0.0262531
-0.0298894
-0.0340985
-0.038144
-0.0398681
-0.0574746
-0.0642496
-0.0956025
-0.133766
-0.23279
-0.386172
-0.444873
-0.402151
-0.353217
-0.290922
-0.18449
-0.126609
-0.0792787
-0.0568143
-0.0404092
-0.0275469
-0.0174301
-0.00927753
-0.00264224
0.00267725
0.00682537
0.0100191
0.0124089
0.0141024
0.0152025
0.015793
-0.0070044
-0.00716746
-0.00757603
-0.00817305
-0.00890374
-0.00970371
-0.0104949
-0.0109648
-0.0109831
-0.0106182
-0.00945195
-0.00674542
-0.00111042
0.00477816
0.00811297
0.0271988
0.0323452
0.0321157
-0.0619609
-0.293042
-0.485277
-0.536267
-0.46147
-0.313123
-0.177978
-0.117641
-0.0680158
-0.0479225
-0.0332783
-0.0220788
-0.0134643
-0.00656731
-0.000951813
0.00354698
0.00706251
0.00979416
0.0118733
0.0133774
0.0143845
0.0149014
-0.00355665
-0.00353832
-0.00363617
-0.00377718
-0.00386647
-0.00377761
-0.00336385
-0.00238819
-0.000612359
0.00219585
0.00657429
0.0134543
0.0250526
0.0381183
0.0484283
0.0768752
0.094695
0.0690719
-0.0514199
-0.271161
-0.437508
-0.451135
-0.352254
-0.226628
-0.128387
-0.0868043
-0.047277
-0.0320598
-0.0212291
-0.0130209
-0.00670622
-0.00155121
0.00265686
0.00605731
0.00873921
0.0108503
0.0124736
0.0136463
0.0144207
0.0147992
-0.000109747
-4.87303e-05
9.86026e-05
0.000348127
0.00074987
0.00140992
0.00246943
0.00405848
0.00649857
0.0101708
0.0154819
0.0231655
0.0340869
0.0483029
0.059817
0.0789798
0.0858927
0.045459
-0.0527889
-0.174405
-0.248021
-0.23934
-0.179938
-0.121124
-0.0718086
-0.0480427
-0.0206673
-0.0121605
-0.00590613
-0.00133949
0.00224129
0.0052266
0.00770399
0.00975569
0.0114471
0.0128173
0.013891
0.0146692
0.0151715
0.0154163
0.00321088
0.00330328
0.0035663
0.00400952
0.00464521
0.00553518
0.00674489
0.00834112
0.0104924
0.0134548
0.0173767
0.0227543
0.0281875
0.0359224
0.0409529
0.0359268
0.0276972
-0.0105567
-0.0734909
-0.127325
-0.14498
-0.128843
-0.0957283
-0.0645903
-0.0333045
-0.0150241
0.00358286
0.00710809
0.00964129
0.0109035
0.0118601
0.0126412
0.0133049
0.0139409
0.0146064
0.0152308
0.015767
0.0161836
0.0164476
0.0165597
0.00643794
0.00656002
0.00685008
0.00732489
0.0079739
0.00881967
0.00989479
0.011181
0.0126603
0.0142646
0.0158414
0.0173378
0.0159945
0.013503
-0.00386447
-0.0265141
-0.0825563
-0.14581
-0.202181
-0.221046
-0.193044
-0.136382
-0.0792201
-0.0348814
-0.00754085
0.0168932
0.0210753
0.0223939
0.0223349
0.0212281
0.02006
0.0190473
0.018294
0.0178404
0.0176532
0.0176167
0.0176697
0.0177673
0.0178558
0.0179007
0.00950936
0.00965178
0.00993972
0.0103811
0.0109678
0.0116834
0.0125412
0.0134641
0.0143171
0.0147535
0.0142517
0.0125893
0.00597584
-0.00772726
-0.0306489
-0.0968363
-0.179501
-0.261482
-0.343986
-0.34865
-0.271635
-0.172637
-0.083983
-0.0199668
0.016871
0.0298142
0.0350831
0.0335618
0.0314059
0.0285549
0.0259234
0.0237531
0.022164
0.0210336
0.0202701
0.019734
0.0194079
0.0192357
0.0191708
0.0192044
0.0122964
0.0124301
0.0127225
0.013166
0.0137407
0.0144085
0.0151445
0.01583
0.0163276
0.0162619
0.0150163
0.0119098
0.00475319
-0.010805
-0.0363697
-0.0839233
-0.1494
-0.2156
-0.275301
-0.286767
-0.2276
-0.155644
-0.0832831
-0.0236138
0.0142543
0.0352927
0.043721
0.0414106
0.0374147
0.0333022
0.0298268
0.0270621
0.0250075
0.0234887
0.0223643
0.0215493
0.0210053
0.0206652
0.0204875
0.0204607
0.0146783
0.0148217
0.0151591
0.0156468
0.0162585
0.016954
0.0176877
0.0183388
0.0188099
0.0188552
0.0179768
0.0155196
0.0104965
0.000192813
-0.0173037
-0.0474488
-0.0899548
-0.13522
-0.172626
-0.185724
-0.16804
-0.128059
-0.0779186
-0.027598
0.00860877
0.0307099
0.0416009
0.042516
0.0392212
0.0353089
0.0317934
0.0289696
0.0267978
0.0251242
0.0238614
0.0229531
0.0223254
0.0219051
0.0216532
0.0215361
0.0167013
0.0169199
0.0172791
0.0177734
0.0183949
0.0191281
0.0199349
0.0207394
0.0214854
0.0220133
0.0220305
0.0209852
0.0185568
0.0130019
0.00415582
-0.0126685
-0.0387869
-0.0696109
-0.0969716
-0.115197
-0.120559
-0.106384
-0.0759014
-0.0390552
-0.00798224
0.0145718
0.0281929
0.0346
0.0348735
0.033255
0.031029
0.028963
0.0272034
0.0257432
0.0246131
0.0237611
0.0231419
0.0227106
0.0224338
0.0222829
0.0183856
0.0186338
0.0189729
0.0194571
0.0200994
0.0208902
0.0218328
0.0229208
0.024067
0.025154
0.0259568
0.0259942
0.0245595
0.0206857
0.0134673
0.000956297
-0.0197622
-0.0484289
-0.0766796
-0.101707
-0.11416
-0.11028
-0.0933356
-0.0637917
-0.0357719
-0.0101521
0.009126
0.0212072
0.026285
0.0278774
0.0278403
0.0271716
0.0263105
0.0254358
0.0246733
0.0240239
0.0235035
0.0231204
0.0228634
0.0227262
0.0196748
0.0198068
0.0201455
0.0206653
0.0213657
0.0222501
0.0233384
0.0246427
0.0261115
0.0276051
0.0288318
0.0295258
0.0284585
0.0246714
0.0154757
-0.000878742
-0.0265657
-0.0602079
-0.100569
-0.135343
-0.154759
-0.154281
-0.136282
-0.104846
-0.0673985
-0.0340519
-0.00787859
0.0087265
0.0177354
0.0220585
0.0240483
0.0247566
0.0248602
0.0246547
0.024315
0.023931
0.0235815
0.0232981
0.0230892
0.0229672
0.0206876
0.0207259
0.0210272
0.0215382
0.0222542
0.0231654
0.02429
0.0256313
0.0272015
0.0287909
0.0302071
0.0315669
0.0303044
0.0254325
0.0141471
-0.00569419
-0.0346109
-0.07266
-0.120053
-0.162982
-0.1982
-0.194936
-0.16922
-0.133328
-0.0880397
-0.0495579
-0.0191399
0.000750639
0.0121357
0.0182366
0.0214623
0.0228907
0.0236266
0.0238635
0.0238248
0.0236749
0.0234975
0.0233352
0.0232017
0.023102
0.0214534
0.0215509
0.0218112
0.0222474
0.0228791
0.0237113
0.0247422
0.0259515
0.0273879
0.0290065
0.0304029
0.0320409
0.0303626
0.0239384
0.0116547
-0.00868675
-0.0364702
-0.0735253
-0.117056
-0.158823
-0.190047
-0.187854
-0.15957
-0.125029
-0.0836798
-0.0485522
-0.0197525
-0.00111313
0.0103887
0.0169571
0.0203958
0.0221319
0.0230324
0.0233956
0.0235048
0.0234799
0.0233883
0.0232882
0.0232008
0.0231456
0.02179
0.0219571
0.0222191
0.0226052
0.0231442
0.0238491
0.0247265
0.0257708
0.0269988
0.028379
0.0295904
0.0302924
0.0279762
0.0207638
0.00758804
-0.0126554
-0.0386739
-0.0707331
-0.103375
-0.129753
-0.146413
-0.140906
-0.1195
-0.0906325
-0.059799
-0.0324779
-0.0105593
0.00368269
0.0126304
0.017774
0.0206149
0.0221544
0.0229536
0.0233216
0.0234479
0.0234409
0.0233646
0.0232726
0.0231961
0.0231621
0.0217031
0.0218392
0.0220663
0.0223989
0.0228492
0.0234207
0.0241158
0.0249045
0.0257514
0.026459
0.0267537
0.0258006
0.0218283
0.0135057
-4.79672e-05
-0.0188378
-0.0420684
-0.0679572
-0.0893988
-0.10179
-0.101633
-0.092971
-0.0766984
-0.0540784
-0.0324499
-0.0129203
0.00174389
0.0110193
0.0165964
0.0198285
0.0216318
0.0226594
0.0231794
0.0234489
0.023515
0.0234874
0.0234129
0.0233314
0.0232608
0.0231938
0.0214004
0.0214525
0.0216164
0.0218674
0.0221954
0.0225763
0.0229829
0.0233524
0.0235577
0.0232176
0.0220093
0.0187325
0.0120586
0.00146965
-0.0127774
-0.0299765
-0.0493765
-0.0693398
-0.0835537
-0.0880065
-0.082237
-0.0699887
-0.0529999
-0.0323029
-0.0139679
0.000729972
0.0104482
0.0166838
0.0201749
0.0221043
0.0230316
0.0234603
0.0235971
0.0236151
0.0235509
0.02346
0.0233634
0.0232723
0.0231947
0.023126
0.0210384
0.0210742
0.0211804
0.0213301
0.0214976
0.021633
0.0216697
0.0214947
0.0209289
0.0195597
0.0168077
0.0113566
0.00165541
-0.0125167
-0.0305715
-0.050805
-0.069925
-0.0865769
-0.0977085
-0.0995489
-0.0927821
-0.0746193
-0.0516467
-0.0289394
-0.00910332
0.00549177
0.0150178
0.0206076
0.0232496
0.024277
0.024498
0.0243217
0.0240378
0.0237425
0.0234889
0.0232738
0.0231015
0.0229713
0.0228918
0.0228931
0.0206247
0.0207081
0.0207635
0.0208091
0.0208094
0.0207198
0.0204487
0.0198422
0.0186925
0.0165466
0.0125049
0.00571829
-0.00612541
-0.0233534
-0.0458258
-0.0709257
-0.0951489
-0.112862
-0.125982
-0.127944
-0.114402
-0.0885872
-0.0580618
-0.0321308
-0.0100514
0.00603174
0.0165571
0.0224573
0.0250825
0.0256996
0.0252305
0.0247468
0.0241977
0.0236847
0.0232817
0.0229685
0.0227369
0.0225952
0.0225381
0.0225845
0.0201132
0.0201908
0.0202176
0.0202024
0.0201063
0.0198968
0.0194892
0.0187174
0.0173254
0.0148722
0.0104374
0.00303469
-0.00887973
-0.026124
-0.0482944
-0.0743938
-0.101363
-0.121096
-0.138077
-0.140907
-0.120083
-0.0915725
-0.0599229
-0.0331208
-0.0111027
0.00490172
0.0155234
0.0217677
0.0248748
0.0256588
0.025095
0.0245153
0.0238899
0.0233578
0.0229382
0.0226176
0.0223903
0.0222583
0.022199
0.0222016
0.0195834
0.0196091
0.0196196
0.0196042
0.0195155
0.0193119
0.0189188
0.0182109
0.0169351
0.0147484
0.0109216
0.00445264
-0.00555161
-0.0199986
-0.0383862
-0.0601585
-0.0837771
-0.103122
-0.118334
-0.122204
-0.106219
-0.0843238
-0.0579312
-0.0342962
-0.0141048
0.00119624
0.012197
0.0192015
0.022993
0.024191
0.0240653
0.0236224
0.0231267
0.0226901
0.0223596
0.0221011
0.0219111
0.0217797
0.021684
0.0216162
0.0192055
0.019208
0.0192106
0.0192008
0.019145
0.0189925
0.0187008
0.01817
0.0172632
0.0157072
0.0130639
0.00864244
0.00149191
-0.0091418
-0.0227016
-0.0387717
-0.0561454
-0.0722354
-0.084251
-0.0894085
-0.0867148
-0.0746476
-0.0566243
-0.0370838
-0.0196169
-0.00468842
0.00680838
0.0147652
0.0192664
0.0213274
0.0219965
0.0219991
0.0218266
0.021594
0.0213788
0.0212066
0.0210725
0.0209727
0.0208955
0.020819
0.0189156
0.0189392
0.0189519
0.0189501
0.0189244
0.0188509
0.0186925
0.018406
0.0179168
0.0170154
0.0155207
0.0129371
0.00861193
0.00163699
-0.00811573
-0.0204809
-0.0345078
-0.0490642
-0.0595936
-0.0668512
-0.0711291
-0.0666965
-0.055347
-0.0399189
-0.0250286
-0.0117732
-0.000627363
0.00778368
0.0135176
0.0170428
0.0188643
0.0196896
0.020025
0.0200851
0.0200617
0.0200107
0.0199575
0.0199189
0.0198993
0.0198911
0.0185359
0.0185475
0.0185753
0.0186057
0.0186416
0.0186746
0.0186989
0.0187061
0.0186411
0.0184283
0.0178181
0.0163485
0.0136511
0.00847793
0.000297446
-0.0110796
-0.0248712
-0.0401897
-0.0538999
-0.064287
-0.0688186
-0.0680763
-0.0602866
-0.0482168
-0.0356213
-0.0228029
-0.0111379
-0.00101116
0.00674218
0.0122213
0.0153899
0.0170921
0.0180115
0.0184739
0.0187129
0.0188282
0.0188671
0.0188788
0.0188946
0.0189477
0.018066
0.0180288
0.0180482
0.0181084
0.0182153
0.0183676
0.0185811
0.0188487
0.01915
0.0194312
0.0195255
0.0187781
0.0165265
0.011781
0.00333282
-0.00853468
-0.0237948
-0.0411848
-0.0595381
-0.0748274
-0.083345
-0.0835467
-0.0762105
-0.0653772
-0.0522548
-0.0374152
-0.0222816
-0.0091389
0.00102712
0.00809354
0.0122528
0.014746
0.0161792
0.0170196
0.017531
0.0178169
0.0179698
0.018045
0.0180803
0.0180954
0.0175741
0.0175307
0.0175426
0.01761
0.0177498
0.0179674
0.0182631
0.0186575
0.0191461
0.0195797
0.0199331
0.0194359
0.0172206
0.0127625
0.00467226
-0.00711907
-0.0232029
-0.0416834
-0.0633707
-0.0825252
-0.0995693
-0.0998884
-0.0898143
-0.0785492
-0.0627475
-0.0453408
-0.0279738
-0.0132918
-0.00222438
0.00544379
0.0102105
0.0130534
0.0148211
0.0158687
0.0165379
0.0169441
0.0171753
0.0172982
0.0173469
0.0172935
0.0170023
0.0170063
0.0170443
0.0171201
0.0172478
0.0174414
0.0176957
0.0180442
0.0184925
0.0188215
0.0189386
0.0180488
0.0154785
0.0108584
0.00317723
-0.00806369
-0.0227489
-0.040386
-0.0606972
-0.0796459
-0.0952682
-0.0961343
-0.0867682
-0.0745984
-0.057796
-0.040812
-0.0249499
-0.0118172
-0.00183124
0.00508972
0.00964336
0.0123977
0.0140739
0.0151035
0.0157232
0.0161196
0.0163498
0.0164703
0.0165146
0.0164723
0.016264
0.0163143
0.0163647
0.0164251
0.0165071
0.016623
0.0167685
0.016947
0.0171369
0.017199
0.0166545
0.0150361
0.0116242
0.00591193
-0.00219556
-0.0128318
-0.0258474
-0.0407581
-0.0558814
-0.0684584
-0.0761829
-0.0747396
-0.0667422
-0.0557435
-0.0419679
-0.0284384
-0.0163356
-0.00626757
0.00151685
0.0069245
0.010457
0.0125806
0.0138802
0.0146692
0.0151509
0.015448
0.0156194
0.0157065
0.0157496
0.0157655
0.0153861
0.0154129
0.015419
0.0154241
0.0154322
0.0154414
0.0154309
0.0153423
0.0151231
0.014544
0.013156
0.010586
0.00629521
-8.7032e-05
-0.00855622
-0.0185916
-0.0299415
-0.0418813
-0.0517131
-0.0573683
-0.0571471
-0.0532614
-0.0460911
-0.0361001
-0.0253503
-0.0150746
-0.00648214
0.000752061
0.00612292
0.00970624
0.0119329
0.0132297
0.0140424
0.0145449
0.0148558
0.0150474
0.0151597
0.0152182
0.0152516
0.0152684
0.0144397
0.0143897
0.01435
0.0143068
0.0142445
0.0141336
0.0139296
0.0135067
0.0127339
0.0113397
0.0088612
0.00497881
-0.000343952
-0.00721014
-0.0156883
-0.0252417
-0.034876
-0.0443425
-0.0503981
-0.0519309
-0.0493658
-0.0436258
-0.0350541
-0.024541
-0.0144624
-0.00535469
0.00171507
0.0069143
0.0102214
0.01222
0.0133906
0.0139861
0.0143441
0.0145598
0.0146879
0.0147649
0.0148114
0.0148345
0.0148399
0.0148329
0.0135463
0.0134807
0.0134253
0.0133432
0.0132044
0.0129557
0.0125268
0.011804
0.010524
0.00834206
0.00467959
-0.000758866
-0.00804735
-0.0168766
-0.0265916
-0.0365023
-0.0457029
-0.0535432
-0.0578457
-0.0570432
-0.0529636
-0.0443395
-0.0325542
-0.020493
-0.0093232
-0.000270419
0.00648011
0.0108115
0.013222
0.0142829
0.014574
0.0146135
0.0145404
0.0144636
0.0143999
0.0143533
0.0143205
0.0143057
0.0142997
0.0143124
0.0127805
0.0127889
0.0127303
0.0126051
0.0123762
0.0119963
0.0113677
0.0104155
0.00875795
0.0060068
0.00150322
-0.00513907
-0.0142596
-0.0255683
-0.0376052
-0.049229
-0.0595997
-0.0671786
-0.0718366
-0.0698311
-0.0596761
-0.0466903
-0.0317741
-0.0180911
-0.0064168
0.00278051
0.0091147
0.0128146
0.0147548
0.0153513
0.0151419
0.0148085
0.014442
0.0141737
0.0139616
0.0138188
0.0137309
0.0136961
0.0136998
0.0137479
0.0120517
0.0121093
0.0120588
0.0119225
0.0116647
0.0112433
0.0105473
0.00949355
0.00772562
0.00489199
0.000293411
-0.00643987
-0.0153727
-0.0270275
-0.039957
-0.0527194
-0.0647747
-0.0727501
-0.077898
-0.0754442
-0.0607913
-0.0460033
-0.0298755
-0.0160731
-0.00498547
0.00360815
0.00939543
0.0126542
0.0143962
0.0149093
0.0147514
0.0144113
0.0140121
0.0136898
0.013448
0.0132816
0.0131808
0.0131357
0.0131321
0.0131681
0.0113393
0.0113537
0.0113127
0.0112081
0.0109992
0.0106469
0.0100745
0.00915547
0.00763098
0.00519722
0.00134357
-0.00431777
-0.0116924
-0.0211855
-0.0322793
-0.0437623
-0.0547015
-0.0624864
-0.0672879
-0.0658856
-0.0560114
-0.0435011
-0.0299618
-0.0179187
-0.00782879
0.000173763
0.00593621
0.00970041
0.0119771
0.0130968
0.0134084
0.0133599
0.0131301
0.0129166
0.0127603
0.0126507
0.0125804
0.0125357
0.0125061
0.0124899
0.0107922
0.010766
0.0107235
0.0106477
0.0105103
0.0102764
0.00989194
0.00925813
0.00821741
0.0065219
0.00383345
-0.000251202
-0.00568661
-0.0123862
-0.0203081
-0.0289152
-0.037378
-0.0444085
-0.0493113
-0.0506613
-0.0481904
-0.041142
-0.0320638
-0.022575
-0.0137718
-0.00603753
0.000170261
0.00487763
0.00812547
0.0100976
0.011135
0.0115553
0.0116821
0.0117191
0.0117272
0.0117227
0.011725
0.0117242
0.0117142
0.01168
0.0104121
0.0104045
0.0103834
0.010339
0.010264
0.0101406
0.00993746
0.00960761
0.00902886
0.00810393
0.00651939
0.00409783
0.000535828
-0.00421882
-0.01004
-0.0169531
-0.0242081
-0.0311568
-0.036765
-0.040232
-0.0413834
-0.0393301
-0.0343003
-0.0270668
-0.0193737
-0.0120468
-0.00565227
-0.00041679
0.00350139
0.00629753
0.00818667
0.00926579
0.00989074
0.0102457
0.0104411
0.0105613
0.010644
0.0107083
0.0107546
0.0107746
0.0100276
0.010038
0.0100424
0.0100423
0.0100315
0.0100152
0.00997918
0.00992257
0.00978081
0.00947292
0.00878562
0.00751234
0.00520485
0.00153763
-0.00348431
-0.0100399
-0.0177592
-0.0257563
-0.0328656
-0.0379118
-0.0403488
-0.0415292
-0.0390751
-0.0335655
-0.026676
-0.0194527
-0.0126525
-0.00659956
-0.00160151
0.00232937
0.00523334
0.00704448
0.00817278
0.00883069
0.00922106
0.00945806
0.0096047
0.0097021
0.00978051
0.00986327
0.00956728
0.00955037
0.00955377
0.00957706
0.00962426
0.00970571
0.00982854
0.00998963
0.010184
0.0103394
0.0103909
0.00979464
0.00814659
0.00528482
0.00076045
-0.0055856
-0.0136286
-0.0233106
-0.032769
-0.0405608
-0.0468693
-0.0502706
-0.0488038
-0.0440411
-0.0373602
-0.0293621
-0.0212012
-0.0133402
-0.0064268
-0.00108391
0.00272144
0.0052069
0.00675139
0.00765332
0.00823664
0.0085951
0.00881283
0.00894
0.00902107
0.0090771
0.00908507
0.00903681
0.00902703
0.00905923
0.00913564
0.00926714
0.00947967
0.00976438
0.0101091
0.0104518
0.0108851
0.0106332
0.00948403
0.00748569
0.00367766
-0.00223219
-0.00998403
-0.0205336
-0.0322831
-0.0429708
-0.053242
-0.0583048
-0.0571847
-0.0521826
-0.0447483
-0.0358335
-0.0262379
-0.0169823
-0.00905556
-0.00309247
0.00115565
0.00395636
0.00570047
0.00680161
0.00751121
0.00793751
0.00821711
0.00837542
0.00844679
0.00841932
0.0085747
0.00854777
0.00855059
0.00858107
0.00865303
0.00877361
0.00895775
0.00920022
0.00950153
0.00969569
0.00987429
0.00945656
0.00832027
0.00639151
0.00277739
-0.0026353
-0.00982426
-0.0192947
-0.0304453
-0.0413926
-0.0510857
-0.0559385
-0.0548502
-0.0497021
-0.0422447
-0.0333817
-0.0239182
-0.0152959
-0.00827211
-0.00295367
0.000962839
0.00358874
0.0052505
0.00630493
0.00696329
0.00737585
0.00763536
0.00777251
0.00782603
0.00778199
0.00796828
0.00798588
0.00800056
0.00801362
0.00803473
0.00807102
0.00812359
0.0081889
0.00821525
0.00804082
0.00751636
0.00633884
0.00439306
0.00156752
-0.002436
-0.00773869
-0.0141211
-0.0216274
-0.0296924
-0.0371955
-0.0424353
-0.0441849
-0.0420823
-0.0371449
-0.0309147
-0.0237385
-0.0166124
-0.0102202
-0.00505013
-0.000940208
0.00207306
0.00405327
0.00531558
0.00610871
0.00659375
0.00689432
0.00707496
0.00717038
0.00721602
0.00722654
0.00726221
0.0072757
0.00725273
0.0072052
0.00714051
0.00705028
0.00690606
0.00668541
0.00630429
0.00559976
0.0043273
0.00232493
-0.000493906
-0.00420818
-0.00874023
-0.0140738
-0.0198074
-0.025475
-0.0298598
-0.0327805
-0.033951
-0.0322178
-0.0289138
-0.0246112
-0.0191951
-0.0137308
-0.00869084
-0.00438837
-0.000903316
0.0018771
0.00378988
0.00497832
0.00572957
0.00618313
0.00646281
0.00663616
0.00674153
0.0068007
0.00683743
0.0068617
0.00650048
0.00645318
0.0063779
0.00627493
0.006135
0.00593131
0.00560357
0.0050682
0.00422891
0.0029221
0.000903878
-0.00182201
-0.00535305
-0.00978884
-0.0148818
-0.0202807
-0.0256102
-0.0296876
-0.0315057
-0.0307788
-0.0297309
-0.0266566
-0.022323
-0.0172555
-0.011778
-0.00676545
-0.00263299
0.000562511
0.0028783
0.004415
0.00535369
0.00589944
0.00621304
0.00637162
0.0064844
0.00654569
0.00657959
0.00659765
0.00660484
0.00660199
0.00578754
0.00570243
0.00561112
0.00548732
0.00529676
0.00499309
0.00451358
0.00373786
0.0024743
0.000515306
-0.00232211
-0.00617705
-0.0110112
-0.0166521
-0.0227172
-0.0285088
-0.0335421
-0.0366595
-0.0369997
-0.0340552
-0.0300696
-0.0254959
-0.0193124
-0.0128789
-0.00696781
-0.00209151
0.00157331
0.00402374
0.00557186
0.00626816
0.00649941
0.00654186
0.00649261
0.00643016
0.00638286
0.0063441
0.00632099
0.00630542
0.00629607
0.00629069
0.00522498
0.0051908
0.00510731
0.00495985
0.00471299
0.0043194
0.00370542
0.00272143
0.00119298
-0.00130465
-0.00490646
-0.00985469
-0.0161634
-0.0232513
-0.0304867
-0.0371791
-0.042181
-0.0453568
-0.0448423
-0.0396201
-0.0323061
-0.0248284
-0.0163333
-0.00852973
-0.00255043
0.00184432
0.00477178
0.00639518
0.0072252
0.0072975
0.00704056
0.00675375
0.00647054
0.00624734
0.00608314
0.00597482
0.00591394
0.00589034
0.00589133
0.00592136
0.0047602
0.00479282
0.00472724
0.00457466
0.00430525
0.00387025
0.0032155
0.00216218
0.000542959
-0.0020363
-0.00574642
-0.0107716
-0.0173352
-0.024886
-0.0326457
-0.0399182
-0.0451456
-0.0483742
-0.0475975
-0.0414243
-0.0327737
-0.0235061
-0.0142835
-0.00641516
-0.000739638
0.00324356
0.00563419
0.00680191
0.0072692
0.00712384
0.00682279
0.00648651
0.00615493
0.00589281
0.00570007
0.00557577
0.00550958
0.00548401
0.00549276
0.00553588
0.00432177
0.00434745
0.00430109
0.00418049
0.00395903
0.00359267
0.00302748
0.00211452
0.000693698
-0.00145177
-0.00456308
-0.00868181
-0.0140243
-0.0203588
-0.0269979
-0.0333002
-0.0381186
-0.0411963
-0.0414494
-0.0372612
-0.0308564
-0.0231674
-0.0155157
-0.00897915
-0.00382497
-1.76156e-05
0.00255611
0.00417569
0.00511484
0.00557316
0.00570267
0.00563757
0.00548659
0.00533908
0.00523001
0.00515895
0.00512038
0.00510495
0.00510148
0.00511077
0.00400748
0.00399388
0.00395032
0.00386735
0.00372193
0.00348189
0.0031026
0.00248885
0.00150663
5.14469e-05
-0.00213063
-0.00498304
-0.00855308
-0.0128343
-0.0175163
-0.0222498
-0.0263817
-0.0295057
-0.0313202
-0.0305685
-0.0278833
-0.0238449
-0.0192629
-0.014474
-0.0098948
-0.00603651
-0.00285019
-0.000337068
0.00154941
0.00289399
0.00370645
0.00414026
0.00433815
0.00443425
0.00450192
0.00455038
0.00458656
0.00460923
0.00461337
0.00459246
0.00385144
0.00383634
0.00381159
0.00377101
0.00369702
0.00357834
0.00339275
0.00309463
0.00258464
0.0017901
0.000582167
-0.0011838
-0.00347156
-0.00635502
-0.00982429
-0.0137399
-0.0176877
-0.0211608
-0.0238253
-0.025501
-0.0256598
-0.0249006
-0.0231629
-0.0198649
-0.0157593
-0.01173
-0.00796654
-0.0047267
-0.00211886
-0.000126219
0.00131449
0.00226989
0.00287386
0.0032714
0.00353581
0.00371487
0.00384247
0.00393271
0.00398762
0.00399983
0.00374155
0.00374775
0.00375004
0.00374784
0.00373408
0.00371853
0.00368947
0.00362365
0.0035042
0.00321367
0.00273579
0.00179407
0.000279859
-0.00188711
-0.00485042
-0.00859119
-0.0128255
-0.0168364
-0.0204249
-0.0235633
-0.0260064
-0.0279991
-0.0280313
-0.0258256
-0.0220543
-0.0177122
-0.0132453
-0.00914218
-0.00569317
-0.00298015
-0.000918081
0.000559022
0.00156304
0.00222037
0.00263971
0.00291307
0.00310034
0.00323503
0.00333278
0.00340609
0.00358214
0.00357773
0.00358304
0.0035987
0.00362858
0.00368579
0.00377304
0.00387683
0.00399897
0.00410526
0.00413223
0.00391257
0.00313273
0.00173336
-0.00055202
-0.00381815
-0.00816335
-0.0132951
-0.0186383
-0.0240685
-0.029123
-0.0334407
-0.0346456
-0.033277
-0.0295622
-0.0247558
-0.0193794
-0.0140669
-0.00934362
-0.00554599
-0.00273088
-0.000729156
0.000623031
0.00147709
0.00201793
0.00236671
0.00259551
0.00274551
0.00284721
0.00292263
0.00338604
0.00334659
0.00333559
0.00334736
0.00339803
0.00348663
0.00363853
0.00383673
0.00409536
0.00442384
0.00472584
0.00504103
0.00492993
0.00422838
0.00261376
-0.000135157
-0.0043942
-0.0102524
-0.0172281
-0.0245769
-0.0315867
-0.0373289
-0.0392772
-0.0383131
-0.0344957
-0.0292321
-0.0231541
-0.0170306
-0.0114644
-0.00698451
-0.00382688
-0.0014977
5.97974e-05
0.00103836
0.00165908
0.00206802
0.00233326
0.00249189
0.0025743
0.00258662
0.0031838
0.00314493
0.00312851
0.00313109
0.00316836
0.00324443
0.00337084
0.00354275
0.00376634
0.00401558
0.00422894
0.00435071
0.0041954
0.00346725
0.00191299
-0.000667369
-0.00457871
-0.0100425
-0.0166921
-0.0237259
-0.0305031
-0.0354338
-0.0371275
-0.0359821
-0.0321296
-0.0271787
-0.0214442
-0.0157152
-0.0106132
-0.00655631
-0.003638
-0.00147422
-1.85201e-05
0.00088669
0.00150603
0.00190384
0.00214825
0.00228644
0.00234287
0.00231611
0.00295282
0.002948
0.00293656
0.00292237
0.00291294
0.00291029
0.00292184
0.00292919
0.00290636
0.00276993
0.00241619
0.00175137
0.000759714
-0.0007277
-0.00282501
-0.00557703
-0.00933725
-0.0135101
-0.0180642
-0.0225615
-0.026513
-0.0287851
-0.028703
-0.0267421
-0.023374
-0.0194728
-0.015146
-0.0110129
-0.00739628
-0.00451717
-0.00233701
-0.000719305
0.000336244
0.00104553
0.00150835
0.00179704
0.00197603
0.00207368