/*--------------------------------*- C++ -*----------------------------------*\
| =========                 |                                                 |
| \\      /  F ield         | OpenFOAM: The Open Source CFD Toolbox           |
|  \\    /   O peration     | Version:  v2106                                 |
|   \\  /    A nd           | Website:  www.openfoam.com                      |
|    \\/     M anipulation  |                                                 |
\*---------------------------------------------------------------------------*/
FoamFile
{
    version     2.0;
    format      ascii;
    arch        "LSB;label=32;scalar=64";
    class       volScalarField;
    location    "0";
    object      p;
}
// * * * * * * * * * * * * * * * * * * * * * * * * * * * * * * * * * * * * * //

dimensions      [0 2 -2 0 0 0 0];

internalField   nonuniform List<scalar> 
11644
(
0.0739566
0.0743276
0.0751082
0.0763065
0.0779103
0.0799116
0.0823017
0.0850646
0.088173
0.0915826
0.0952237
0.0990033
0.102795
0.106409
0.10966
0.112323
0.11408
0.11483
0.114528
0.112924
0.109943
0.105707
0.100446
0.0943742
0.0877023
0.080715
0.0736904
0.0668205
0.0602876
0.0542146
0.0486861
0.0437563
0.03944
0.0357351
0.0326265
0.0300899
0.0280987
0.0266361
0.0256953
0.0252518
0.0733323
0.0737035
0.0744684
0.0756401
0.0772239
0.0792207
0.0816248
0.0844255
0.087604
0.091125
0.0949312
0.0989289
0.102986
0.106919
0.11051
0.113486
0.115599
0.116678
0.116563
0.115036
0.112023
0.107561
0.101879
0.0952953
0.0881382
0.0807016
0.0732634
0.0660857
0.0593286
0.0531229
0.0475367
0.0425985
0.0383112
0.0346587
0.0316152
0.0291488
0.0272312
0.0258352
0.0249343
0.0244982
0.0718811
0.0722738
0.0730502
0.0742168
0.0757921
0.0777907
0.0802235
0.0830958
0.086405
0.0901351
0.0942488
0.0986699
0.103276
0.107888
0.112245
0.116092
0.119131
0.120984
0.121307
0.119861
0.116662
0.111727
0.105219
0.0975071
0.0891696
0.0806843
0.0723854
0.0645312
0.0573282
0.050869
0.0451819
0.0402487
0.0360348
0.0324938
0.0295757
0.0272324
0.0254209
0.0240978
0.0232243
0.0227826
0.0696472
0.0700469
0.0708288
0.0719968
0.07357
0.075575
0.0780408
0.0809961
0.0844674
0.088472
0.0930032
0.0980227
0.103442
0.109062
0.114693
0.120006
0.124523
0.127764
0.129101
0.128065
0.1245
0.118508
0.110449
0.100889
0.0907651
0.0805689
0.0708219
0.0619683
0.0541153
0.0473184
0.0415306
0.0366535
0.032583
0.0292248
0.026496
0.024326
0.0226536
0.0214271
0.0206099
0.0201961
0.06668
0.0670613
0.0678197
0.0689594
0.0705053
0.0724919
0.0749636
0.0779743
0.0815822
0.0858486
0.0908154
0.0964892
0.102843
0.10987
0.117324
0.124857
0.131816
0.137505
0.140658
0.140512
0.136489
0.128832
0.118144
0.105498
0.0927386
0.0799934
0.0682119
0.0579299
0.049296
0.0421788
0.0363822
0.0316814
0.0278763
0.0248116
0.0223667
0.0204469
0.0189782
0.0179081
0.0172014
0.0168457
0.0630027
0.0633511
0.064047
0.0651058
0.0665601
0.0684533
0.0708467
0.0738183
0.0774588
0.0818539
0.0870731
0.0932173
0.100503
0.109039
0.118983
0.12976
0.140671
0.15066
0.157392
0.159195
0.154593
0.143877
0.128783
0.111306
0.0943762
0.0777842
0.06342
0.0517614
0.0423574
0.035054
0.0294507
0.0251464
0.0218183
0.0192276
0.0172127
0.0156614
0.014495
0.0136589
0.0131185
0.0128525
0.058656
0.0589494
0.0595406
0.0604575
0.061728
0.0634083
0.0655724
0.0683202
0.0717539
0.075939
0.080993
0.0872359
0.095023
0.105198
0.118229
0.133396
0.144134
0.160491
0.173432
0.18017
0.177374
0.164949
0.145396
0.12311
0.0933876
0.0720692
0.0548931
0.0419279
0.0325208
0.0255365
0.0204929
0.0169147
0.0143634
0.0124982
0.0111135
0.0100888
0.00934735
0.00883285
0.00850727
0.00834669
0.0537212
0.053931
0.0543723
0.055056
0.056031
0.0573459
0.059076
0.0613181
0.0641404
0.0675952
0.0719133
0.077582
0.0853218
0.0951116
0.109131
0.127944
0.152934
0.179118
0.204579
0.220441
0.218725
0.19816
0.164677
0.128266
0.0931515
0.0678295
0.0483607
0.0270672
0.0185865
0.0130094
0.00932272
0.00699165
0.00559663
0.00475892
0.00423712
0.00391012
0.00370892
0.00359218
0.00352771
0.00350043
0.0482709
0.0483977
0.0486415
0.0490285
0.0495895
0.0503619
0.0514118
0.0527928
0.0545318
0.0567003
0.0595615
0.0635458
0.0694215
0.0815784
0.0961161
0.117547
0.145707
0.188932
0.234826
0.273755
0.28089
0.247459
0.190773
0.129447
0.0846166
0.0450486
0.0255538
0.00436561
-0.000196553
-0.00278821
-0.00406806
-0.00442777
-0.00419988
-0.00369415
-0.00313567
-0.0026125
-0.00217144
-0.00182942
-0.00159706
-0.00147493
0.0425303
0.0425264
0.0425232
0.0425387
0.042566
0.0426387
0.042778
0.0429746
0.0432078
0.0435406
0.0441171
0.0450243
0.046489
0.0567125
0.0655633
0.0861586
0.118502
0.173697
0.260184
0.359973
0.397154
0.323073
0.200419
0.103387
0.0373598
-0.00266553
-0.0130785
-0.0259699
-0.0238971
-0.0217042
-0.0192983
-0.0168531
-0.0145237
-0.0124043
-0.0105938
-0.00912052
-0.00797419
-0.00713799
-0.00658635
-0.00633001
0.0366924
0.0365526
0.0362805
0.0358515
0.0352679
0.034522
0.0335885
0.0324018
0.0308262
0.028776
0.0262025
0.022807
0.018061
0.0206458
0.0182731
0.02344
0.0362793
0.0671008
0.170598
0.412346
0.593559
0.34442
0.0760498
-0.0381705
-0.0727127
-0.0781796
-0.0670096
-0.0617484
-0.051063
-0.0423373
-0.0351712
-0.0293522
-0.0246208
-0.0207362
-0.017615
-0.0151908
-0.0133532
-0.0120228
-0.0111623
-0.0107133
0.0309654
0.0306863
0.0301353
0.0292867
0.028099
0.0265023
0.0244535
0.0218189
0.0183604
0.0137507
0.00758789
-0.000721696
-0.0122006
-0.0170503
-0.0374686
-0.0574637
-0.0962423
-0.180761
-0.406146
-0.654051
-0.354494
-0.231756
-0.168963
-0.12581
-0.0983583
-0.0773699
-0.0615356
-0.0496175
-0.0405072
-0.0334449
-0.0279117
-0.0236076
-0.0203279
-0.0178767
-0.0161223
-0.0149973
-0.0144534
0.0256241
0.0252471
0.0244266
0.0231912
0.0214612
0.0191233
0.0160812
0.0121518
0.00706534
0.000383354
-0.00856868
-0.0206372
-0.0369659
-0.0485716
-0.0812821
-0.119357
-0.189248
-0.320535
-0.445302
-0.834567
-0.561289
-0.347428
-0.236407
-0.172253
-0.123971
-0.096127
-0.0753006
-0.0600365
-0.048535
-0.0397832
-0.0330864
-0.0279629
-0.0240781
-0.021189
-0.0191595
-0.017855
-0.0172669
0.0209125
0.0204234
0.0194689
0.0179728
0.0158602
0.0129937
0.0092091
0.00435617
-0.00181248
-0.00971009
-0.0199422
-0.0333756
-0.0509499
-0.066372
-0.0978198
-0.13643
-0.199579
-0.30013
-0.356243
-0.62396
-0.527746
-0.370369
-0.255851
-0.188818
-0.131995
-0.102572
-0.0805263
-0.0642595
-0.0519529
-0.042628
-0.0355659
-0.0301625
-0.0260507
-0.0230014
-0.020846
-0.0194676
-0.0187562
0.0170744
0.0165949
0.015571
0.0139521
0.0116311
0.00849333
0.00431935
-0.000974578
-0.00751544
-0.0156392
-0.0257601
-0.0384178
-0.0539463
-0.0687584
-0.0922312
-0.119194
-0.153991
-0.195982
-0.279214
-0.443019
-0.656107
-0.704156
-0.652668
-0.502505
-0.344742
-0.234954
-0.175453
-0.12121
-0.0957887
-0.0763273
-0.0614685
-0.0501715
-0.0415269
-0.0349961
-0.0299259
-0.0259853
-0.0230544
-0.0209549
-0.0196033
-0.0189856
0.0142935
0.0139387
0.0129146
0.0112521
0.00889177
0.00576148
0.00162207
-0.00361866
-0.0099335
-0.017574
-0.0267413
-0.0377659
-0.0506096
-0.0636496
-0.0805316
-0.096492
-0.0997259
-0.0710764
-0.160734
-0.490792
-0.837015
-0.850555
-0.642422
-0.405166
-0.273882
-0.182174
-0.13909
-0.0948862
-0.0770573
-0.0629875
-0.0520265
-0.0434025
-0.0366295
-0.031414
-0.0273104
-0.024009
-0.0215048
-0.0197005
-0.0185145
-0.0179899
0.0127531
0.0122841
0.0113272
0.00979993
0.00761905
0.00472668
0.00100602
-0.00369791
-0.00944217
-0.0163429
-0.0245667
-0.0344528
-0.0461724
-0.0615017
-0.0761903
-0.0974332
-0.113685
-0.115825
-0.158419
-0.352799
-0.532118
-0.499345
-0.350915
-0.232526
-0.142076
-0.108877
-0.0690879
-0.0599937
-0.0511842
-0.0437491
-0.0377375
-0.0327578
-0.0286899
-0.0254139
-0.0226504
-0.0203553
-0.0185404
-0.0171948
-0.0162934
-0.0157722
0.0122041
0.0117106
0.0108125
0.0094745
0.00761189
0.00515731
0.00202393
-0.00195878
-0.00691135
-0.0129976
-0.0204016
-0.0298416
-0.0417041
-0.0580073
-0.078036
-0.115905
-0.165946
-0.250915
-0.302055
-0.34202
-0.326676
-0.227631
-0.136217
-0.0798406
-0.0393456
-0.0344384
-0.023904
-0.0245637
-0.0244181
-0.0234263
-0.0221451
-0.0206225
-0.0192064
-0.017832
-0.0164357
-0.0152346
-0.0142407
-0.0134643
-0.0129336
-0.0125373
0.0124583
0.012075
0.0113179
0.010207
0.00870445
0.00675973
0.00429401
0.00112364
-0.00287043
-0.0078876
-0.0142187
-0.0226188
-0.0339573
-0.050449
-0.0730769
-0.112997
-0.17606
-0.294895
-0.413558
-0.460091
-0.395855
-0.229882
-0.0653268
0.0128365
0.0321202
0.0218124
0.0124034
0.00553505
-0.00107588
-0.00523464
-0.00769429
-0.00902008
-0.00967143
-0.00982247
-0.00970335
-0.00948548
-0.0092155
-0.00894632
-0.00874593
-0.00867051
0.0133309
0.0130658
0.0125422
0.011759
0.0106893
0.00930505
0.00756912
0.00535842
0.0025645
-0.00100171
-0.00553698
-0.0117064
-0.0203164
-0.0326996
-0.0529984
-0.081339
-0.129427
-0.212292
-0.31963
-0.388997
-0.360657
-0.218871
-0.0577219
0.0322636
0.0633243
0.052504
0.0371742
0.0264141
0.0157901
0.00889897
0.00408676
0.000800975
-0.00133952
-0.002675
-0.00352623
-0.00401869
-0.004294
-0.00442938
-0.00450912
-0.00459349
0.0146626
0.0145152
0.014241
0.0138097
0.0132041
0.0124207
0.0114547
0.0102772
0.00887446
0.00710465
0.00484334
0.00136546
-0.00349318
-0.011064
-0.02625
-0.043308
-0.0740587
-0.113946
-0.166731
-0.212449
-0.213939
-0.154387
-0.0644052
0.00905152
0.0494856
0.05387
0.0424704
0.0331222
0.0235392
0.0168878
0.0115902
0.00767068
0.00490624
0.00299339
0.00166657
0.000743103
0.000114815
-0.000318442
-0.000606403
-0.000744686
0.0162824
0.0162654
0.0161773
0.0160231
0.0158217
0.0156067
0.0154209
0.0152892
0.0152274
0.0151182
0.0148405
0.0141349
0.0118712
0.00819814
0.000248119
-0.0147545
-0.0302558
-0.054465
-0.0874298
-0.119706
-0.136649
-0.130682
-0.088054
-0.0307243
0.00665125
0.0212642
0.0337239
0.0281574
0.0230893
0.0186242
0.0146862
0.0115081
0.00906341
0.00720853
0.00578978
0.00472543
0.00394418
0.00338675
0.00302931
0.00286021
0.0179004
0.0179333
0.0179711
0.0180562
0.0182281
0.0185109
0.018987
0.019728
0.0207177
0.0219367
0.0232224
0.0246196
0.0246119
0.0224938
0.019527
0.00547965
-0.0150565
-0.0510599
-0.103715
-0.158689
-0.200747
-0.204505
-0.162938
-0.111018
-0.0578241
-0.000877902
0.0129499
0.017023
0.0186172
0.0168951
0.0153005
0.0134855
0.0117795
0.0102858
0.00903218
0.00804591
0.00728226
0.0067283
0.0063796
0.0062095
0.0193616
0.0193728
0.0195293
0.0198252
0.0203005
0.020958
0.0218788
0.0231585
0.0247872
0.0268984
0.0292781
0.0318551
0.0335236
0.0331608
0.0274838
0.00963502
-0.0240246
-0.0786297
-0.15235
-0.228031
-0.287521
-0.277371
-0.214878
-0.146296
-0.085601
-0.0312497
-0.00565978
0.00746246
0.0136287
0.015227
0.0155137
0.0148219
0.0137755
0.0127075
0.0117343
0.0109066
0.010231
0.00972333
0.00939099
0.00924155
0.0207343
0.0207757
0.0210096
0.0214154
0.0220394
0.0229141
0.0240799
0.0256214
0.0276112
0.0302081
0.0333144
0.0366841
0.0398669
0.0385241
0.0281138
0.00586817
-0.0298012
-0.0816279
-0.146961
-0.212979
-0.266269
-0.258765
-0.206213
-0.144759
-0.0871316
-0.0410242
-0.0116504
0.00443657
0.0118561
0.0151051
0.0163458
0.0162999
0.0157217
0.0149683
0.0141901
0.0134756
0.012876
0.0124206
0.012119
0.0119788
0.0218519
0.021979
0.022254
0.0227051
0.0233784
0.0243248
0.0255876
0.0272198
0.0292842
0.0319156
0.0351606
0.0386664
0.0409687
0.0376773
0.0252246
0.00310472
-0.0308728
-0.0757504
-0.123234
-0.164169
-0.189273
-0.180593
-0.145579
-0.101491
-0.0578819
-0.0240051
-0.00283293
0.00899872
0.0147529
0.0174115
0.0183712
0.0183393
0.0178882
0.0172469
0.0165349
0.0158511
0.0152585
0.0147943
0.0144664
0.0143106
0.0225265
0.0226809
0.0229777
0.0234404
0.0240895
0.0249651
0.0261126
0.0275679
0.0293027
0.0312857
0.0333687
0.0351842
0.0346667
0.0291413
0.0165326
-0.00590369
-0.0375155
-0.0748756
-0.106944
-0.12516
-0.125438
-0.111346
-0.0855652
-0.0528639
-0.0230154
-0.000912046
0.0108657
0.0167033
0.0198216
0.0210025
0.0211877
0.0207299
0.020075
0.0193311
0.0185763
0.0178787
0.0172768
0.0167922
0.0164378
0.0162341
0.0228636
0.0230035
0.023255
0.023643
0.0241708
0.0248416
0.0256462
0.02657
0.0275265
0.0283235
0.0284543
0.0273144
0.0227269
0.0117966
-0.00458399
-0.0261698
-0.0527957
-0.0806318
-0.102165
-0.107249
-0.0991586
-0.0791203
-0.0516516
-0.0245281
-0.00276935
0.0104502
0.0179624
0.0224757
0.0243594
0.0245887
0.0240337
0.0230739
0.0220617
0.0210939
0.0202238
0.0194819
0.0188819
0.0184241
0.0181054
0.0178686
0.0229656
0.0230821
0.0232886
0.023572
0.0239301
0.0243293
0.0247029
0.0249719
0.0249783
0.0244924
0.0228362
0.0188743
0.0105836
-0.00512429
-0.0287669
-0.0574244
-0.0882072
-0.11382
-0.129509
-0.129809
-0.116491
-0.0882467
-0.0547314
-0.0251642
-0.00187688
0.0126083
0.0215883
0.026183
0.0275669
0.027386
0.0263735
0.0250183
0.0237161
0.0225452
0.0215525
0.0207333
0.0200877
0.0196039
0.0192803
0.0191439
0.0229226
0.0230264
0.0231711
0.0233454
0.0235295
0.0236715
0.0237054
0.0235333
0.0228485
0.0213929
0.0183839
0.0126363
0.00178006
-0.0168613
-0.0452683
-0.0814623
-0.122387
-0.152585
-0.176032
-0.176815
-0.152279
-0.114815
-0.0712256
-0.0365584
-0.00787498
0.011781
0.0232629
0.0285018
0.0300177
0.028896
0.0277457
0.0262434
0.0248091
0.0235491
0.0224895
0.02162
0.0209378
0.020448
0.0201537
0.020112
0.0228479
0.0229254
0.0229951
0.0230664
0.0231197
0.0231013
0.0229358
0.022497
0.0215022
0.0195988
0.0159913
0.00952551
-0.00235306
-0.0212736
-0.0489093
-0.0832341
-0.123345
-0.156277
-0.182876
-0.187062
-0.159605
-0.11982
-0.0749136
-0.0393498
-0.0108161
0.00914367
0.0216461
0.0283059
0.0304671
0.029511
0.0282723
0.0267037
0.0253084
0.0240831
0.0230684
0.0222446
0.0216202
0.021193
0.0209438
0.0208603
0.0227305
0.0227656
0.022823
0.0228766
0.0228923
0.0228257
0.022601
0.0221263
0.0211543
0.0193785
0.0161538
0.0105591
0.00070902
-0.0146612
-0.0371553
-0.0640486
-0.0960132
-0.124457
-0.146475
-0.152398
-0.132975
-0.105156
-0.0708791
-0.0395234
-0.0137336
0.00526229
0.018436
0.0260772
0.0292303
0.0290493
0.0279524
0.0265215
0.0252878
0.0242139
0.0233241
0.0226005
0.0220542
0.0216685
0.0214126
0.021255
0.0226325
0.0226625
0.0227086
0.022762
0.0227868
0.0227485
0.0225847
0.0222349
0.0215513
0.0203359
0.018272
0.0146843
0.00846868
-0.00211703
-0.0184653
-0.0388467
-0.0617751
-0.0842415
-0.100707
-0.108135
-0.104574
-0.0909136
-0.068399
-0.0431019
-0.0202353
-0.00121531
0.0131851
0.0218078
0.0257409
0.0267721
0.026316
0.0254924
0.0246172
0.0237716
0.0230497
0.0224483
0.0219784
0.0216273
0.0213876
0.0212373
0.0225251
0.0225759
0.0226079
0.0226478
0.022686
0.0227072
0.0226768
0.0225586
0.0222807
0.0217268
0.0206869
0.0187222
0.0152621
0.00881349
-0.00175209
-0.0167636
-0.0347348
-0.0543535
-0.0709019
-0.0820316
-0.0869857
-0.0822858
-0.0669411
-0.0469481
-0.0274553
-0.0102536
0.00344682
0.0131719
0.0191303
0.0221764
0.023197
0.0233801
0.0231074
0.0226579
0.0222077
0.0217906
0.0214437
0.0211808
0.0210134
0.02093
0.0222835
0.0222828
0.0223422
0.0224284
0.0225377
0.0226746
0.0228293
0.023008
0.0231755
0.0232402
0.0228175
0.0218197
0.0193584
0.0147007
0.0067727
-0.00611556
-0.0233592
-0.0441742
-0.0645339
-0.0804147
-0.0873776
-0.086641
-0.0759791
-0.0601502
-0.0435503
-0.0260852
-0.0105638
0.00221699
0.01147
0.0167839
0.019509
0.020716
0.0211469
0.0212284
0.0211437
0.0209731
0.0207859
0.0206257
0.0205132
0.0204953
0.0219708
0.0219275
0.0219802
0.0221026
0.0222901
0.0225487
0.0228735
0.023314
0.0238161
0.0243144
0.0246673
0.0242266
0.0219623
0.0167307
0.00695871
-0.00720752
-0.0270457
-0.0499049
-0.0760074
-0.0983876
-0.110832
-0.110921
-0.100241
-0.0852838
-0.0655606
-0.0434695
-0.0224057
-0.00594953
0.00556243
0.0123711
0.016228
0.0182726
0.0193282
0.0198763
0.0201403
0.0202134
0.0201913
0.0201322
0.0200712
0.0200248
0.0216381
0.021626
0.0216715
0.0217908
0.0219975
0.0223006
0.0226957
0.0232132
0.0238298
0.0244152
0.0251055
0.024621
0.0219321
0.0163453
0.00595783
-0.00927356
-0.0301429
-0.0546421
-0.0850934
-0.112676
-0.130549
-0.130193
-0.115727
-0.0985793
-0.0736138
-0.049178
-0.0269852
-0.00989087
0.00204131
0.00955622
0.0139912
0.0165514
0.0180274
0.0188087
0.0192651
0.0194958
0.0196028
0.0196267
0.0196168
0.0195322
0.0211384
0.0211811
0.0212619
0.0213926
0.0215902
0.0218624
0.0222185
0.022676
0.0232581
0.0237407
0.0240538
0.0230229
0.0198188
0.0140046
0.00415513
-0.0102173
-0.0297603
-0.0529944
-0.0799817
-0.102925
-0.121668
-0.119092
-0.104204
-0.0864999
-0.0631616
-0.0414936
-0.022947
-0.00830793
0.00236181
0.00925291
0.013472
0.0159014
0.0173279
0.0181373
0.0185945
0.0188512
0.0189853
0.0190313
0.0190304
0.0189805
0.0204243
0.0204923
0.0205819
0.0207042
0.0208649
0.0210795
0.0213364
0.0216491
0.0220081
0.0222112
0.0218984
0.0202031
0.0160445
0.00884664
-0.00164322
-0.0151319
-0.0321603
-0.0515361
-0.0700272
-0.0839865
-0.0920887
-0.0886461
-0.0772238
-0.0619001
-0.0440288
-0.0275058
-0.0131326
-0.00176159
0.00626549
0.0112988
0.0143641
0.0161689
0.0172295
0.0178463
0.0182024
0.0183955
0.0184828
0.0185024
0.0185
0.018498
0.0195896
0.0196224
0.0196602
0.0197218
0.0198092
0.0199127
0.0200089
0.0200487
0.0199075
0.0194406
0.0181622
0.0153443
0.010286
0.00224083
-0.00853028
-0.0214928
-0.0361538
-0.0513063
-0.0638908
-0.0697247
-0.0685135
-0.0627607
-0.0522548
-0.0388775
-0.0251312
-0.0124318
-0.00196104
0.00604534
0.0111412
0.0141068
0.0158306
0.016824
0.0174389
0.0177994
0.0180043
0.018114
0.0181681
0.0181892
0.018199
0.0181907
0.0186663
0.0186354
0.0186289
0.0186296
0.0186195
0.0185701
0.0184292
0.0180782
0.0173399
0.0159155
0.013201
0.00866101
0.00208285
-0.00657808
-0.0174325
-0.0296316
-0.0425856
-0.054814
-0.0631149
-0.0639482
-0.060288
-0.0517594
-0.0391066
-0.0250954
-0.0118643
-0.000908756
0.00714129
0.0121753
0.0149629
0.0164456
0.017274
0.0176258
0.0177934
0.01787
0.0178967
0.0178984
0.0178976
0.0178916
0.017881
0.017866
0.0177561
0.0177135
0.0176889
0.0176364
0.0175255
0.0173044
0.0168869
0.0161669
0.0149005
0.0126655
0.0087505
0.00241425
-0.00682528
-0.0184266
-0.0317718
-0.0450245
-0.0575954
-0.0682322
-0.0738982
-0.0730086
-0.0668128
-0.0537303
-0.0380678
-0.0219091
-0.00778481
0.00314334
0.0109911
0.0153702
0.0176123
0.0184558
0.0185487
0.0183447
0.018098
0.0178741
0.0177109
0.0175846
0.0174959
0.017436
0.0174066
0.017442
0.0169557
0.016981
0.0169341
0.0168213
0.0166024
0.0162456
0.01563
0.0146224
0.0130239
0.0102458
0.00579104
-0.00152377
-0.0123835
-0.0265786
-0.0430948
-0.0590749
-0.0739613
-0.0844611
-0.0924078
-0.0914875
-0.0787491
-0.061194
-0.0403669
-0.0230746
-0.00798346
0.0033623
0.011612
0.0163521
0.0188051
0.0193747
0.0190543
0.0185775
0.0180674
0.0176974
0.0173931
0.0171886
0.0170554
0.0169878
0.0169763
0.0170169
0.016188
0.016246
0.0161922
0.0160568
0.015802
0.0153939
0.0147265
0.0136647
0.0119784
0.00921606
0.00458165
-0.00246703
-0.0125128
-0.0258046
-0.0418628
-0.0585896
-0.0747944
-0.0864592
-0.0958475
-0.0953572
-0.0806593
-0.0621135
-0.0407412
-0.0232497
-0.00818077
0.00308768
0.0109836
0.0154596
0.0178755
0.0187611
0.0185203
0.0181228
0.0176824
0.0172989
0.0169959
0.01678
0.0166387
0.0165616
0.0165283
0.0165257
0.0154366
0.0154408
0.0153988
0.0153006
0.0151029
0.0147646
0.0142209
0.0133506
0.0119653
0.00965324
0.0058402
0.000154077
-0.0078956
-0.0182915
-0.0311783
-0.045133
-0.0593586
-0.0703862
-0.0786607
-0.079519
-0.069656
-0.0561189
-0.0399292
-0.0245218
-0.0109749
-0.000447788
0.00724013
0.0121872
0.0152607
0.0167754
0.0172014
0.0170769
0.0167852
0.0165243
0.0163154
0.0161555
0.0160384
0.015951
0.0158894
0.0158485
0.0148604
0.0148302
0.0147907
0.0147217
0.014592
0.0143721
0.0140205
0.0134474
0.0125661
0.0111127
0.00867286
0.00474001
-0.00114028
-0.0087857
-0.0181019
-0.0285625
-0.0391872
-0.048747
-0.0562815
-0.0597448
-0.0577049
-0.050696
-0.0400176
-0.0281249
-0.016973
-0.00725867
0.000817783
0.00698845
0.011311
0.0136946
0.0148784
0.0152272
0.0153094
0.0152954
0.015243
0.0151848
0.0151392
0.0151016
0.0150713
0.0150369
0.0144529
0.0144506
0.0144181
0.0143636
0.014286
0.0141767
0.0140073
0.0137418
0.0133243
0.012651
0.0114217
0.0093093
0.00574233
0.000532576
-0.00633411
-0.0148401
-0.0244824
-0.0341175
-0.0424324
-0.0478769
-0.0500846
-0.0486678
-0.0421584
-0.0329888
-0.0231232
-0.0138493
-0.0055613
0.00107117
0.00605946
0.00948787
0.0116234
0.0128108
0.013463
0.0137968
0.013954
0.0140324
0.0140749
0.0141072
0.0141367
0.0141552
0.0140002
0.0139907
0.0139945
0.0139998
0.0140069
0.0140218
0.014041
0.0140708
0.0140588
0.0139654
0.013526
0.0126303
0.0106791
0.00701706
0.00103613
-0.00721567
-0.0175061
-0.0285663
-0.0388633
-0.0465602
-0.0508619
-0.0525048
-0.0489711
-0.0415487
-0.0324622
-0.0231035
-0.0141418
-0.00638233
5.84143e-05
0.00499357
0.00838396
0.0104461
0.0116486
0.0123174
0.0127073
0.0129313
0.0130542
0.0131226
0.0131731
0.0132426
0.0134946
0.0134512
0.0134574
0.0134964
0.0135708
0.0136904
0.0138735
0.0141269
0.0144384
0.0147459
0.0149239
0.0143593
0.012489
0.00914771
0.00344124
-0.00471368
-0.0154239
-0.027809
-0.0411883
-0.0525873
-0.0611678
-0.064162
-0.0610423
-0.0543029
-0.045051
-0.0346353
-0.0237188
-0.0134349
-0.00470297
0.00161596
0.00588402
0.00852097
0.0101027
0.0110567
0.0116537
0.0120141
0.0122248
0.0123335
0.012396
0.0124246
0.0130004
0.012963
0.0129595
0.012998
0.0130919
0.0132527
0.013497
0.0138259
0.014239
0.01465
0.0149614
0.014455
0.0126676
0.009533
0.00406428
-0.00387805
-0.0144693
-0.0274807
-0.0426767
-0.0570518
-0.0690888
-0.0726608
-0.0687299
-0.0616122
-0.0512295
-0.0394625
-0.027145
-0.0158126
-0.00674569
-9.40355e-05
0.00443905
0.00724546
0.00903257
0.0101494
0.0108582
0.0112823
0.0115579
0.0117108
0.0117766
0.0117344
0.0123963
0.0123986
0.0124264
0.0124804
0.0125726
0.0127121
0.0129081
0.0131618
0.013453
0.0136235
0.0135539
0.0128167
0.0110252
0.0078587
0.00251223
-0.00513727
-0.0149569
-0.0268968
-0.0404105
-0.0530288
-0.0639581
-0.0665419
-0.0624379
-0.0551804
-0.0447465
-0.0334955
-0.0224453
-0.0128026
-0.00531908
0.000425416
0.00442003
0.00699231
0.00862321
0.00963031
0.0102697
0.010661
0.0109114
0.0110443
0.0110968
0.0110612
0.0116521
0.0116816
0.011713
0.0117457
0.0117875
0.0118409
0.0119056
0.0119749
0.0119822
0.0117474
0.0109531
0.00929644
0.00650321
0.00256186
-0.00300196
-0.0101288
-0.0185605
-0.0278868
-0.0373896
-0.0455022
-0.0502942
-0.0501864
-0.0460371
-0.0394537
-0.0310653
-0.0223332
-0.0140378
-0.0070119
-0.00140739
0.00284939
0.00573486
0.0075867
0.00873765
0.00944522
0.0098866
0.0101614
0.0103226
0.0104045
0.0104441
0.0104641
0.0108398
0.0108438
0.0108208
0.0107854
0.0107337
0.0106583
0.0105228
0.0102874
0.00985794
0.00901735
0.00742233
0.00485253
0.00105463
-0.00381467
-0.00982335
-0.016713
-0.0240431
-0.0310574
-0.0364201
-0.0396097
-0.039625
-0.0363884
-0.0311486
-0.0247558
-0.0178872
-0.0112866
-0.00546886
-0.000677666
0.00313134
0.00580195
0.00751567
0.00849212
0.00908995
0.00946424
0.00970591
0.00985743
0.0099544
0.0100124
0.0100502
0.010075
0.00997747
0.00992749
0.0098583
0.00976686
0.00963649
0.00943659
0.00910555
0.00852298
0.00755934
0.00594654
0.00345712
9.82082e-06
-0.00456455
-0.0102631
-0.0169502
-0.0241032
-0.031019
-0.0365968
-0.0389727
-0.0378452
-0.0352679
-0.0303616
-0.0237218
-0.0163925
-0.00924798
-0.00309829
0.00167261
0.00504953
0.00721326
0.00838213
0.00905577
0.00936372
0.00952737
0.00960984
0.00967044
0.00970571
0.00973479
0.00975496
0.00976875
0.00976296
0.00915356
0.00907793
0.00900078
0.00888614
0.00869659
0.00837892
0.00787613
0.00704059
0.0056343
0.00334371
-0.000151487
-0.00498657
-0.0111862
-0.0183116
-0.0260918
-0.0338277
-0.0403303
-0.0452156
-0.0465216
-0.0428242
-0.0372822
-0.0300999
-0.0214137
-0.0125127
-0.00489222
0.00120583
0.00557081
0.00823937
0.00969579
0.010165
0.0101614
0.0100131
0.00980993
0.00965497
0.00953828
0.00945965
0.00940538
0.00936931
0.00934958
0.0093725
0.00847243
0.0084636
0.00838751
0.00823825
0.00798866
0.00758203
0.00693417
0.00589984
0.00425095
0.00152989
-0.0024889
-0.00825091
-0.0160058
-0.0248189
-0.0338905
-0.04251
-0.0493801
-0.0544659
-0.0557864
-0.0505458
-0.0414572
-0.0312424
-0.0201065
-0.00986581
-0.00236409
0.00337022
0.00714216
0.00919797
0.0105355
0.0108218
0.010479
0.0101115
0.00972193
0.00941521
0.00918908
0.00904047
0.00895499
0.00891978
0.00891846
0.00895447
0.00789857
0.0079414
0.00787596
0.00772237
0.00745094
0.00701724
0.00633795
0.00526214
0.00361788
0.000938442
-0.00303519
-0.00844353
-0.0157353
-0.0244682
-0.0336936
-0.0426051
-0.0499067
-0.0552492
-0.0566654
-0.0515593
-0.0417556
-0.0307474
-0.0194154
-0.00934133
-0.00217067
0.00338389
0.0068978
0.00886181
0.00995551
0.010195
0.00993796
0.00964828
0.00928206
0.00898908
0.00876024
0.00861602
0.00853222
0.00849665
0.00849338
0.00851292
0.00734716
0.00736319
0.00731682
0.0072037
0.00699763
0.00665636
0.00611377
0.00524629
0.0038953
0.00179416
-0.0014026
-0.00569333
-0.011172
-0.0180208
-0.0256114
-0.0333051
-0.0397955
-0.044827
-0.0466457
-0.0437095
-0.0375043
-0.0289765
-0.0200836
-0.0125394
-0.00584714
-0.000483873
0.00333102
0.00586265
0.00737983
0.00820573
0.00853661
0.00856981
0.00843593
0.00828831
0.00816359
0.00807843
0.00802204
0.0079823
0.00795546
0.00794549
0.00691758
0.00689238
0.0068568
0.00679027
0.00666969
0.00646855
0.00614098
0.00561371
0.0047741
0.00347659
0.00138525
-0.00156856
-0.00531618
-0.00992544
-0.0152122
-0.0208277
-0.0260858
-0.0306138
-0.03382
-0.0342531
-0.0324418
-0.0284366
-0.0232629
-0.0176017
-0.0119641
-0.00687684
-0.00268313
0.000692704
0.00326412
0.00511818
0.00623254
0.00679463
0.00704931
0.00715382
0.00722105
0.00725801
0.00728474
0.00729847
0.00729721
0.00727936
0.00667015
0.00665516
0.00662524
0.00658458
0.00652349
0.00643297
0.00629757
0.00609958
0.00575603
0.00517764
0.00418093
0.00255202
0.000256386
-0.00275594
-0.00658361
-0.0112012
-0.016224
-0.0210378
-0.0252759
-0.0282072
-0.0295146
-0.0298308
-0.0279598
-0.0238215
-0.0186909
-0.0134306
-0.00856347
-0.00432376
-0.000913112
0.00164197
0.00346843
0.00465386
0.00536532
0.00581847
0.00610128
0.00627527
0.00639984
0.00648954
0.00654971
0.00657463
0.00642639
0.00642877
0.00643122
0.00643706
0.00644555
0.00646293
0.00649084
0.00653435
0.00654988
0.00650665
0.00634174
0.00580563
0.00449311
0.00227453
-0.00107802
-0.00560161
-0.0110099
-0.0167699
-0.0222605
-0.0269003
-0.0307414
-0.0335968
-0.0338004
-0.0312967
-0.0264043
-0.0207991
-0.014987
-0.00967747
-0.00522071
-0.00177219
0.000859504
0.00269499
0.00389136
0.00463985
0.00510102
0.00538347
0.00556556
0.0056887
0.00577972
0.00585476
0.00611222
0.00608856
0.00610146
0.00613747
0.00619852
0.00629781
0.00645414
0.00666404
0.00691891
0.00718275
0.00738567
0.00731205
0.00652109
0.00497974
0.00228698
-0.00182151
-0.00712936
-0.0142867
-0.0218387
-0.0288217
-0.0353048
-0.0404899
-0.0414015
-0.0389153
-0.0343658
-0.028255
-0.0215592
-0.0149764
-0.00911977
-0.00450254
-0.00107931
0.00128518
0.00279911
0.00375109
0.00434535
0.00471782
0.00495178
0.00509198
0.00518405
0.00524445
0.00578839
0.00575548
0.00574527
0.00576297
0.00582859
0.00594914
0.00613909
0.00640003
0.00676944
0.00710931
0.00738825
0.00751884
0.00706685
0.00597385
0.00385809
0.000217268
-0.00500119
-0.0126523
-0.021413
-0.0298927
-0.038053
-0.0442336
-0.0453555
-0.0426696
-0.0380671
-0.0315045
-0.0243205
-0.0170927
-0.0106525
-0.00569371
-0.00205519
0.000500571
0.00213525
0.00318598
0.00384607
0.0042837
0.00456133
0.00472227
0.00479939
0.00478648
0.0054084
0.00539035
0.00539076
0.00541021
0.00546309
0.00555325
0.00569626
0.00587726
0.00609935
0.00629452
0.00635611
0.00627723
0.00563883
0.00427989
0.00202672
-0.00159774
-0.00655087
-0.0130357
-0.0207486
-0.028357
-0.0352416
-0.0400705
-0.0405568
-0.0379348
-0.0333975
-0.0272423
-0.0207575
-0.0144387
-0.00900548
-0.00480579
-0.00166317
0.000554844
0.00202181
0.00296317
0.00357333
0.00398028
0.00423344
0.00437575
0.0044371
0.00440333
0.00494463
0.0049489
0.00495387
0.00495541
0.004958
0.0049627
0.00497071
0.00495846
0.00487251
0.00462883
0.0040415
0.00302332
0.00155991
-0.000570977
-0.00329768
-0.00689495
-0.0112176
-0.0159345
-0.021031
-0.0257085
-0.029297
-0.0309031
-0.0297839
-0.0269827
-0.0230347
-0.0183093
-0.0135219
-0.0090551
-0.00530751
-0.00236209
-0.000132996
0.00139771
0.00242298
0.00308167
0.00350358
0.00377287
0.00393626
0.00402945
0.00407387
0.00408119
0.00443602
0.00443393
0.00440199
0.00433887
0.0042458
0.00411583
0.0039216
0.00361693
0.00314103
0.00230834
0.00101994
-0.000869152
-0.00326574
-0.00623224
-0.00960867
-0.0134116
-0.0172992
-0.0206852
-0.0228344
-0.0238748
-0.024108
-0.0229285
-0.0203701
-0.0169775
-0.0132846
-0.00959493
-0.00632232
-0.00350579
-0.00125384
0.000481352
0.00174891
0.00256328
0.00307922
0.00339108
0.00358789
0.00371776
0.0038004
0.00385158
0.00388357
0.00391108
0.00390507
0.00386178
0.00377943
0.00365628
0.0034823
0.00323006
0.00284954
0.00225559
0.00135686
8.89588e-06
-0.00187799
-0.00442282
-0.00772202
-0.0117106
-0.0160447
-0.0204215
-0.0241062
-0.0263422
-0.0261175
-0.0242608
-0.0217813
-0.0186509
-0.0151404
-0.0111392
-0.00717209
-0.00360773
-0.000910643
0.00104326
0.00231173
0.0030513
0.00343301
0.00363454
0.00372534
0.00376306
0.00378591
0.00380298
0.00382383
0.0038419
0.00385609
0.00385538
0.00340642
0.00333493
0.0032358
0.00309059
0.00287396
0.00254271
0.00203893
0.00122474
-2.81602e-05
-0.00187988
-0.00447235
-0.00792483
-0.0123259
-0.0174207
-0.0226622
-0.0275065
-0.0311555
-0.0325754
-0.0312072
-0.0273319
-0.0225067
-0.0174624
-0.0123509
-0.00735428
-0.00305033
0.00030121
0.00256708
0.00397154
0.00462157
0.00472125
0.00453721
0.00434534
0.00416866
0.00402457
0.00391952
0.00384299
0.0037977
0.0037683
0.00375314
0.00375216
0.00302866
0.00299528
0.0029068
0.00275509
0.00250904
0.00212487
0.00153286
0.000595552
-0.000876577
-0.00309229
-0.00616071
-0.0104201
-0.015756
-0.021744
-0.0276765
-0.0328671
-0.0367981
-0.0380616
-0.0361488
-0.0306609
-0.0239589
-0.0170523
-0.0101138
-0.00413809
0.000311459
0.00312638
0.00474454
0.00548796
0.00555196
0.0052922
0.00492629
0.00454259
0.00422686
0.00397209
0.00379672
0.00367837
0.00360922
0.00357563
0.0035705
0.00359105
0.00277987
0.00279389
0.00272641
0.00258371
0.00233119
0.00193848
0.00133229
0.000405002
-0.00105865
-0.00324484
-0.00626024
-0.0104132
-0.0156582
-0.0215061
-0.0273324
-0.0323443
-0.0367082
-0.0378877
-0.0361236
-0.03075
-0.023975
-0.0169612
-0.0098774
-0.00383811
0.000438716
0.00318399
0.00473007
0.00536736
0.00533274
0.00504201
0.00465751
0.00429111
0.00396761
0.00372718
0.0035605