/*--------------------------------*- C++ -*----------------------------------*\
| =========                 |                                                 |
| \\      /  F ield         | OpenFOAM: The Open Source CFD Toolbox           |
|  \\    /   O peration     | Version:  v2106                                 |
|   \\  /    A nd           | Website:  www.openfoam.com                      |
|    \\/     M anipulation  |                                                 |
\*---------------------------------------------------------------------------*/
FoamFile
{
    version     2.0;
    format      ascii;
    arch        "LSB;label=32;scalar=64";
    class       volVectorField;
    location    "0";
    object      U;
}
// * * * * * * * * * * * * * * * * * * * * * * * * * * * * * * * * * * * * * //

dimensions      [0 1 -1 0 0 0 0];

internalField   nonuniform List<vector> 
11644
(
(0.996199 -0.000212305 2.99632e-24)
(0.996098 -0.000558363 8.26297e-24)
(0.996037 -0.000821587 4.43329e-24)
(0.996021 -0.00108773 0)
(0.996017 -0.00136547 0)
(0.996016 -0.00164924 0)
(0.996017 -0.00193294 0)
(0.996018 -0.00220981 0)
(0.996019 -0.00246988 0)
(0.996026 -0.00269533 0)
(0.996003 -0.00287929 0)
(0.995996 -0.00299221 0)
(0.996077 -0.00301357 0)
(0.996225 -0.00297029 0)
(0.996073 -0.00274103 0)
(0.996107 -0.00251635 0)
(0.995997 -0.00217801 0)
(0.995616 -0.00146766 0)
(0.995362 -0.000359408 0)
(0.995461 0.000702458 3.2437e-30)
(0.995652 0.00156902 -3.25424e-30)
(0.995884 0.00230188 0)
(0.996052 0.00287565 0)
(0.996118 0.00336046 0)
(0.996009 0.0036909 0)
(0.995984 0.00390909 0)
(0.996139 0.00399753 0)
(0.995961 0.00396617 0)
(0.99597 0.00382227 0)
(0.996005 0.00358944 0)
(0.995993 0.00330322 0)
(0.996003 0.00297116 0)
(0.996006 0.00262021 0)
(0.996009 0.0022608 0)
(0.996012 0.00190524 0)
(0.996017 0.00156147 0)
(0.996021 0.00123488 0)
(0.996037 0.000929508 0)
(0.996106 0.000633947 0)
(0.996224 0.000240643 5.80956e-25)
(0.996925 -0.000427785 3.84875e-24)
(0.996853 -0.00129331 3.56518e-24)
(0.996804 -0.00215655 1.91474e-24)
(0.996797 -0.00301039 0)
(0.996809 -0.00386163 0)
(0.996822 -0.00471394 0)
(0.996826 -0.00556074 0)
(0.996811 -0.00638245 0)
(0.996771 -0.00714913 0)
(0.996677 -0.00782534 0)
(0.996584 -0.00834243 0)
(0.996411 -0.00866484 0)
(0.996056 -0.00870089 0)
(0.995544 -0.00835394 0)
(0.995404 -0.00767523 0)
(0.99491 -0.00650155 -7.06813e-24)
(0.994138 -0.00468999 -1.884e-24)
(0.993477 -0.00235488 -8.18297e-23)
(0.993289 0.000187959 1.24002e-23)
(0.993421 0.0027332 8.3665e-22)
(0.993585 0.00510857 -7.09332e-22)
(0.993712 0.00729818 -1.12858e-22)
(0.99402 0.00930847 5.01478e-23)
(0.994502 0.0109415 7.90838e-24)
(0.995181 0.0120738 1.64569e-24)
(0.995694 0.0126462 0)
(0.99589 0.0128125 0)
(0.996501 0.0124934 0)
(0.99674 0.0119025 0)
(0.996872 0.0110884 0)
(0.997003 0.0100855 0)
(0.997033 0.0090051 0)
(0.997039 0.00787738 0)
(0.997016 0.00674671 0)
(0.99698 0.00563803 0)
(0.996938 0.00456706 0)
(0.996904 0.00353274 0)
(0.996905 0.00251619 0)
(0.996964 0.00149558 0)
(0.997048 0.00049391 0)
(0.99838 -0.000672348 0)
(0.998333 -0.00204856 0)
(0.998311 -0.00346905 0)
(0.998326 -0.00489235 0)
(0.99836 -0.00631589 3.51577e-24)
(0.998391 -0.00774 0)
(0.998394 -0.00915483 0)
(0.998342 -0.0105313 0)
(0.998202 -0.011828 0)
(0.997964 -0.0129689 0)
(0.997515 -0.0138928 0)
(0.996871 -0.0144588 0)
(0.996137 -0.0145158 8.58469e-25)
(0.995296 -0.014005 7.57718e-23)
(0.993787 -0.0126067 3.91587e-22)
(0.992224 -0.010318 -5.07011e-22)
(0.990563 -0.00714775 3.19992e-22)
(0.989209 -0.00335172 -1.03513e-22)
(0.988498 0.00098839 4.68794e-23)
(0.988418 0.00580966 -3.16346e-22)
(0.988884 0.0106021 9.82079e-23)
(0.989745 0.0148176 9.10338e-22)
(0.990911 0.0182038 -5.6429e-22)
(0.992428 0.0207899 -3.05177e-22)
(0.993904 0.022463 4.04925e-22)
(0.995383 0.0232187 -3.8388e-22)
(0.99703 0.0230631 -6.84628e-23)
(0.997696 0.0223317 -1.29923e-24)
(0.998448 0.0210045 0)
(0.998953 0.0192886 0)
(0.999167 0.0173908 0)
(0.999258 0.015364 0)
(0.999219 0.0133332 0)
(0.999118 0.0113366 0)
(0.998988 0.00940778 0)
(0.998857 0.00755633 0)
(0.99875 0.00577434 0)
(0.998685 0.00404766 0)
(0.998679 0.00237114 0)
(0.998717 0.000767573 0)
(1.00058 -0.000928424 0)
(1.00055 -0.0028255 0)
(1.00056 -0.00476753 0)
(1.00061 -0.00673924 0)
(1.00067 -0.00873956 0)
(1.00072 -0.0107618 0)
(1.00072 -0.0127886 0)
(1.00062 -0.0147892 0)
(1.00037 -0.0167031 0)
(0.999847 -0.0184661 0)
(0.999072 -0.0199092 -1.66314e-24)
(0.997944 -0.0208805 1.97286e-22)
(0.996191 -0.0211947 -1.46437e-22)
(0.993578 -0.0205393 -4.5776e-22)
(0.991061 -0.0186988 1.10337e-22)
(0.987966 -0.0154787 -8.72249e-23)
(0.984766 -0.0109225 6.39929e-22)
(0.981992 -0.00525795 1.67009e-21)
(0.980109 0.00159653 -1.96799e-21)
(0.97963 0.00923476 1.06279e-21)
(0.980507 0.0168336 -1.54958e-21)
(0.982529 0.0236868 -1.99777e-21)
(0.985324 0.0292134 2.86902e-21)
(0.988605 0.0329634 -1.0066e-21)
(0.992107 0.0351616 3.37617e-22)
(0.995461 0.0358428 -8.11529e-23)
(0.997663 0.0353641 3.87637e-22)
(1.00016 0.0333969 8.27776e-23)
(1.00156 0.0309076 -6.22057e-23)
(1.00235 0.028016 1.48499e-24)
(1.00275 0.0249056 0)
(1.00279 0.0217896 0)
(1.00264 0.0187237 0)
(1.00238 0.0157884 0)
(1.00208 0.0130036 0)
(1.00179 0.0103731 0)
(1.00153 0.00788713 0)
(1.00135 0.00551781 0)
(1.00125 0.00324725 0)
(1.00124 0.00107516 0)
(1.00349 -0.00119527 0)
(1.00348 -0.00362006 0)
(1.00353 -0.00607705 0)
(1.00363 -0.00859338 0)
(1.00376 -0.0111671 0)
(1.00386 -0.0138147 0)
(1.00389 -0.0165204 0)
(1.00377 -0.0192533 0)
(1.0034 -0.0219669 0)
(1.00269 -0.0245302 7.69444e-25)
(1.00145 -0.0267951 -3.0271e-22)
(0.999339 -0.0285959 -3.62092e-22)
(0.996438 -0.0295289 1.18353e-22)
(0.992919 -0.0292439 -2.00664e-22)
(0.987686 -0.0274174 2.15353e-21)
(0.98218 -0.0235893 -1.49871e-21)
(0.976881 -0.0178767 3.93435e-22)
(0.971575 -0.0100345 2.4479e-21)
(0.967429 8.7312e-05 -4.71382e-21)
(0.965885 0.0119104 5.19137e-23)
(0.967551 0.024042 5.94702e-22)
(0.972062 0.0349617 2.31067e-21)
(0.978057 0.0433885 -7.12178e-22)
(0.985204 0.0484744 -5.80779e-22)
(0.991157 0.0507212 1.55141e-21)
(0.996588 0.0509446 -1.53296e-21)
(1.00195 0.048741 -3.75331e-22)
(1.00437 0.0457868 5.31e-22)
(1.00639 0.0416156 -2.43136e-22)
(1.00746 0.0369959 3.74606e-22)
(1.00785 0.0323707 -7.48834e-24)
(1.00778 0.0279238 0)
(1.00738 0.0237477 0)
(1.00683 0.0198436 0)
(1.00624 0.0162215 0)
(1.00568 0.0128595 0)
(1.0052 0.00973043 0)
(1.00483 0.00679466 0)
(1.00461 0.00399676 0)
(1.00452 0.00129979 0)
(1.00708 -0.0014616 0)
(1.0071 -0.0043691 0)
(1.00721 -0.00737762 0)
(1.00741 -0.0104299 0)
(1.00764 -0.013604 0)
(1.00787 -0.0169094 0)
(1.00801 -0.0203603 0)
(1.00797 -0.02395 0)
(1.00762 -0.0276256 3.31622e-24)
(1.00673 -0.0312698 3.01774e-22)
(1.00488 -0.034766 -2.05838e-22)
(1.00201 -0.037788 -9.58977e-22)
(0.997863 -0.0401067 8.02706e-22)
(0.991349 -0.0414685 1.04918e-21)
(0.984636 -0.0402635 -7.79152e-22)
(0.975999 -0.0366324 -3.61322e-22)
(0.965677 -0.0302446 1.67533e-22)
(0.95609 -0.0197436 4.43736e-22)
(0.948332 -0.00480701 -6.23352e-21)
(0.945045 0.0126036 1.18937e-20)
(0.947372 0.0305701 -8.89901e-21)
(0.954723 0.0471107 2.25111e-21)
(0.965619 0.0605304 2.41478e-22)
(0.9785 0.067986 7.89916e-22)
(0.99001 0.0698041 9.04756e-23)
(0.999984 0.0690123 6.77333e-22)
(1.00629 0.06583 -1.45995e-21)
(1.01183 0.058858 -9.07154e-22)
(1.01423 0.052257 1.35045e-21)
(1.01501 0.0456244 -2.13517e-22)
(1.01488 0.0392439 -3.08145e-23)
(1.0143 0.0333562 -3.0323e-24)
(1.01344 0.0280089 0)
(1.01241 0.023177 0)
(1.01137 0.0188 0)
(1.01041 0.0148272 0)
(1.00961 0.0111852 0)
(1.00899 0.00781004 0)
(1.00858 0.00461887 0)
(1.0084 0.00154592 0)
(1.0113 -0.00165183 0)
(1.01137 -0.00508605 0)
(1.0116 -0.00852391 0)
(1.01195 -0.0121271 0)
(1.01238 -0.0159077 0)
(1.01284 -0.0199144 0)
(1.01324 -0.0241862 0)
(1.01345 -0.0287478 -8.67615e-24)
(1.01323 -0.0335398 3.7716e-23)
(1.01213 -0.0385561 -1.14511e-22)
(1.00997 -0.0436033 -1.03368e-21)
(1.00651 -0.0485736 1.25497e-21)
(1.00148 -0.0534205 9.8551e-22)
(0.995271 -0.0569998 -8.19614e-22)
(0.983812 -0.0597687 7.70141e-22)
(0.969957 -0.0583297 -1.3206e-21)
(0.960685 -0.0463268 -1.29553e-21)
(0.945943 -0.0352689 -4.47759e-21)
(0.932424 -0.0169507 -5.08745e-21)
(0.924621 0.0071977 4.49144e-21)
(0.925986 0.0335013 1.67567e-21)
(0.93566 0.0569614 -2.0064e-21)
(0.950916 0.0746753 -3.84237e-21)
(0.968371 0.0841965 -6.04039e-21)
(0.991639 0.0961462 1.5703e-21)
(1.00647 0.092002 -8.2626e-22)
(1.01855 0.0818945 7.28726e-22)
(1.02249 0.0735551 -1.50401e-21)
(1.02514 0.0630663 -2.26809e-22)
(1.0254 0.0534447 4.36174e-22)
(1.02419 0.0449765 1.41785e-22)
(1.02251 0.0376038 8.08793e-23)
(1.02072 0.0311797 -5.24223e-24)
(1.01896 0.0255507 0)
(1.01728 0.0205824 0)
(1.01579 0.01615 0)
(1.01455 0.0121429 0)
(1.01361 0.00845135 0)
(1.01298 0.00496386 0)
(1.0127 0.0016197 0)
(1.01608 -0.00193222 0)
(1.01624 -0.00570922 0)
(1.01662 -0.00964655 0)
(1.0172 -0.0137387 0)
(1.01795 -0.0180644 0)
(1.01879 -0.0227396 0)
(1.01964 -0.0278406 0)
(1.0203 -0.0333953 3.58798e-23)
(1.02022 -0.0393966 -2.71627e-22)
(1.0193 -0.0457742 -2.99776e-22)
(1.01747 -0.0525873 3.50509e-22)
(1.01445 -0.059967 -3.19941e-22)
(1.00985 -0.0675447 7.17427e-22)
(0.999796 -0.0725527 -1.72652e-21)
(0.990741 -0.0759251 5.09849e-22)
(0.974082 -0.0807276 2.91103e-21)
(0.950131 -0.0788699 -1.85574e-21)
(0.925143 -0.0670439 4.10436e-21)
(0.898511 -0.0430164 -2.68111e-21)
(0.880366 -0.00513186 -4.48814e-23)
(0.880018 0.0398609 -3.73064e-22)
(0.897806 0.0800444 9.21355e-21)
(0.927759 0.106992 6.2989e-22)
(0.960327 0.118793 4.12412e-21)
(0.989985 0.120505 4.25651e-22)
(1.01191 0.111488 1.89102e-21)
(1.02512 0.0995879 -9.15637e-22)
(1.03921 0.0856706 -5.28503e-22)
(1.04023 0.0722966 2.96343e-22)
(1.03887 0.0598887 5.30878e-22)
(1.03589 0.0491063 -6.86027e-23)
(1.03245 0.0401635 1.33476e-22)
(1.02911 0.0328029 -4.29172e-23)
(1.02626 0.0266298 0)
(1.02374 0.0213015 0)
(1.02157 0.0166181 0)
(1.0198 0.0124392 0)
(1.01847 0.00862159 0)
(1.0176 0.00509776 0)
(1.01718 0.00166927 0)
(1.02135 -0.00198972 0)
(1.02161 -0.00613055 0)
(1.02221 -0.0104039 0)
(1.02312 -0.0148773 0)
(1.02431 -0.0197241 0)
(1.02572 -0.0250171 0)
(1.02727 -0.0308767 3.78499e-24)
(1.02846 -0.0373359 -2.52039e-23)
(1.02874 -0.0443517 7.09074e-24)
(1.02856 -0.05196 2.9218e-22)
(1.02784 -0.0606069 -2.85446e-22)
(1.02631 -0.0708037 -4.66681e-22)
(1.02284 -0.0841624 7.20421e-22)
(1.01188 -0.0942592 -1.20696e-22)
(1.00118 -0.10472 -1.42543e-22)
(0.982358 -0.119075 4.31419e-22)
(0.95439 -0.121038 -1.48501e-21)
(0.910035 -0.118038 -7.33569e-22)
(0.860282 -0.0923657 -4.89766e-22)
(0.817449 -0.0354398 5.08894e-21)
(0.808294 0.0437126 3.68207e-22)
(0.839454 0.114074 -4.99972e-21)
(0.893751 0.154685 -1.55471e-21)
(0.951959 0.166953 3.55846e-21)
(0.995902 0.157977 -2.3466e-21)
(1.0315 0.141827 -5.14655e-22)
(1.04628 0.120609 2.09389e-21)
(1.06129 0.0986421 -3.12194e-22)
(1.05974 0.0790042 6.1482e-22)
(1.05551 0.063566 -1.40707e-22)
(1.0498 0.0509031 -4.91974e-23)
(1.04389 0.0406775 1.08559e-22)
(1.03837 0.0325829 -1.39931e-22)
(1.03392 0.0261446 -1.19592e-23)
(1.03039 0.0207869 0)
(1.02745 0.0161724 0)
(1.0251 0.0120935 0)
(1.02335 0.00841747 0)
(1.02219 0.00492899 0)
(1.02165 0.00168751 0)
(1.02694 -0.00217187 0)
(1.02733 -0.00644266 0)
(1.02821 -0.0108449 0)
(1.02953 -0.0155698 0)
(1.03131 -0.0207136 0)
(1.03349 -0.0264095 0)
(1.03591 -0.0327922 2.19678e-24)
(1.0377 -0.0398731 -6.09863e-24)
(1.0387 -0.0475116 -1.54228e-24)
(1.03985 -0.0560628 3.06813e-23)
(1.04117 -0.0664233 -2.95618e-22)
(1.04249 -0.0793145 1.73334e-22)
(1.04342 -0.0962787 1.04311e-22)
(1.03671 -0.113178 -7.33498e-23)
(1.029 -0.133396 -5.17973e-23)
(1.00693 -0.160621 -9.19452e-23)
(0.973436 -0.183173 -4.73699e-22)
(0.912405 -0.207521 -5.40084e-22)
(0.813399 -0.202484 4.00501e-21)
(0.697373 -0.120701 2.33359e-21)
(0.651621 0.0457049 -1.43383e-21)
(0.728739 0.200572 1.1925e-21)
(0.85869 0.261335 -1.00908e-21)
(0.961797 0.249097 6.40975e-22)
(1.03068 0.213168 -3.82412e-22)
(1.07123 0.172993 -1.7845e-22)
(1.08144 0.134452 2.76246e-22)
(1.09089 0.10236 1.07685e-22)
(1.08344 0.0796497 -1.09264e-22)
(1.0748 0.0627879 1.15647e-22)
(1.06536 0.0493196 -9.74079e-23)
(1.05629 0.0385459 5.24485e-23)
(1.04808 0.0302488 -6.15918e-23)
(1.04155 0.0239561 1.23794e-23)
(1.03682 0.0189378 0)
(1.03304 0.0146687 0)
(1.03008 0.0109186 0)
(1.02791 0.00754907 0)
(1.02651 0.00444032 0)
(1.02584 0.00137922 0)
(1.03261 -0.00199429 0)
(1.03317 -0.00632173 0)
(1.03438 -0.0107776 0)
(1.03623 -0.0155635 0)
(1.03872 -0.0207633 0)
(1.04183 -0.0265892 0)
(1.04514 -0.0331232 9.32217e-24)
(1.04757 -0.040269 -1.37913e-23)
(1.04967 -0.0480486 1.05977e-23)
(1.05275 -0.0570344 -6.00298e-23)
(1.05706 -0.0681126 1.60554e-23)
(1.06283 -0.0821851 1.78095e-22)
(1.07036 -0.0990817 -1.83834e-22)
(1.07126 -0.122038 -9.42928e-23)
(1.07347 -0.152135 -2.95395e-22)
(1.06802 -0.194566 6.41246e-23)
(1.0466 -0.252662 -1.6725e-23)
(0.990369 -0.344902 1.67741e-22)
(0.826825 -0.448721 -1.80807e-21)
(0.459655 -0.422589 -5.99055e-20)
(0.187987 0.0655226 1.77759e-21)
(0.52131 0.517714 -3.83904e-20)
(0.894549 0.500863 1.36968e-21)
(1.05984 0.368266 8.79139e-23)
(1.11763 0.260797 -5.78003e-23)
(1.13584 0.181495 1.92025e-23)
(1.12897 0.137389 -2.09465e-22)
(1.12402 0.0917176 6.42731e-23)
(1.10952 0.0718264 -5.28884e-23)
(1.09522 0.055796 1.55926e-23)
(1.08131 0.0431174 -9.96387e-24)
(1.06868 0.0331833 -8.01504e-24)
(1.05755 0.025615 3.00589e-23)
(1.04864 0.0200195 -1.38499e-23)
(1.04256 0.0158006 0)
(1.03801 0.0122704 0)
(1.03451 0.00918494 0)
(1.03195 0.00635255 0)
(1.03031 0.00379786 0)
(1.02951 0.00128033 0)
(1.03814 -0.00216522 0)
(1.03891 -0.00604041 0)
(1.04049 -0.0102129 0)
(1.04287 -0.0146372 0)
(1.04611 -0.0195669 0)
(1.05019 -0.0251497 0)
(1.05434 -0.0313725 -1.26343e-23)
(1.05742 -0.0380052 1.29026e-24)
(1.06084 -0.0452559 1.75716e-23)
(1.06619 -0.0538006 6.37361e-23)
(1.07374 -0.0640257 9.89508e-23)
(1.08401 -0.0764364 1.42416e-22)
(1.09873 -0.0918261 -3.07734e-22)
(1.10668 -0.115217 -1.0093e-22)
(1.12713 -0.142859 4.10732e-22)
(1.14619 -0.189843 -8.65136e-23)
(1.17233 -0.261006 3.31802e-22)
(1.2136 -0.394497 1.22452e-21)
(0.90133 -0.48205 -8.41912e-20)
(1.12911 0.592907 6.73413e-20)
(1.30105 0.390346 1.36355e-22)
(1.24818 0.238676 2.76055e-22)
(1.21281 0.151135 -8.64468e-24)
(1.18073 0.112177 -1.11958e-23)
(1.15694 0.0678484 3.59991e-22)
(1.13372 0.0529682 -1.43033e-22)
(1.11347 0.0409829 -9.66033e-23)
(1.09534 0.0316621 -8.34057e-23)
(1.07951 0.0243589 -3.78e-23)
(1.06578 0.018694 -2.98726e-23)
(1.05459 0.0145211 -1.02276e-23)
(1.04714 0.0115267 0)
(1.04201 0.00909306 0)
(1.03811 0.00691136 0)
(1.03527 0.00490621 0)
(1.03335 0.00285561 0)
(1.03247 0.00104284 0)
(1.04326 -0.00157216 0)
(1.04419 -0.00520369 0)
(1.04611 -0.00886282 0)
(1.04904 -0.012779 0)
(1.05304 -0.0171338 0)
(1.05807 -0.0220689 0)
(1.06288 -0.0274703 -4.71691e-25)
(1.06654 -0.0331048 -1.03748e-23)
(1.0713 -0.0392867 1.20357e-24)
(1.07866 -0.0465392 1.03625e-22)
(1.08899 -0.0550103 -1.79492e-22)
(1.10262 -0.0643995 9.7972e-23)
(1.12144 -0.0746788 3.74658e-22)
(1.13638 -0.0924493 2.79312e-22)
(1.16916 -0.107844 5.15817e-21)
(1.20685 -0.136444 -1.74135e-22)
(1.27035 -0.173939 9.56126e-24)
(1.36539 -0.213072 2.03759e-21)
(0.015432 0.00850969 4.24565e-19)
(0.0523961 -0.000347751 -1.77468e-19)
(1.46799 0.199943 -3.05652e-22)
(1.34619 0.136587 1.76352e-22)
(1.27203 0.0827872 2.37666e-21)
(1.22202 0.0607395 3.5582e-21)
(1.17892 0.0296513 6.43258e-22)
(1.14985 0.0242919 -1.41996e-22)
(1.1256 0.0194522 -7.09599e-23)
(1.10493 0.0157264 3.06093e-23)
(1.08709 0.0125858 -1.5371e-23)
(1.07148 0.00994333 -6.81122e-24)
(1.0586 0.00790305 5.92372e-24)
(1.05007 0.00650876 0)
(1.04448 0.00532676 0)
(1.04031 0.00410767 0)
(1.03737 0.00292581 0)
(1.03553 0.0017944 0)
(1.03462 0.000460668 0)
(1.04753 -0.00127216 -1.8857e-25)
(1.04871 -0.00405349 0)
(1.051 -0.00695072 0)
(1.05443 -0.0101093 0)
(1.05905 -0.0135348 0)
(1.06481 -0.0173927 0)
(1.07007 -0.0215446 1.19459e-24)
(1.07432 -0.0259411 2.79289e-23)
(1.08031 -0.0308495 4.46737e-23)
(1.08924 -0.036593 -4.7806e-22)
(1.10128 -0.0431144 3.56942e-22)
(1.11626 -0.0495732 5.66319e-22)
(1.13508 -0.0551344 -4.64364e-22)
(1.15119 -0.064474 6.7537e-22)
(1.18256 -0.0655189 -7.84288e-22)
(1.22221 -0.0682187 1.45487e-21)
(1.28554 -0.0637843 -1.26538e-21)
(1.25175 -0.0266506 -2.03163e-23)
(0.12447 0.0119309 -4.02056e-21)
(0.189985 0.037964 1.53436e-20)
(1.45185 0.023151 -3.95749e-22)
(1.3749 0.0159846 2.54472e-22)
(1.2933 -0.00260108 -2.15146e-21)
(1.23827 -0.00410302 -1.63225e-22)
(1.18476 -0.0157499 7.82694e-22)
(1.15385 -0.00931229 -6.47862e-22)
(1.12858 -0.00550048 -9.43849e-23)
(1.10756 -0.00250693 -1.01337e-22)
(1.08948 -0.00070117 1.00003e-22)
(1.07369 0.000292757 1.44538e-23)
(1.06022 0.000916658 -1.23577e-23)
(1.05132 0.00136547 0)
(1.04579 0.00153613 0)
(1.04171 0.00143287 0)
(1.03875 0.00112989 0)
(1.03686 0.000755339 0)
(1.03591 0.00028939 0)
(1.0513 -0.00123329 -3.07743e-26)
(1.05245 -0.00289119 0)
(1.05492 -0.00473939 0)
(1.0586 -0.00672009 0)
(1.06357 -0.00887711 0)
(1.06976 -0.0113292 0)
(1.07553 -0.0140659 -5.11819e-24)
(1.08052 -0.0171203 -9.53912e-24)
(1.08772 -0.0208275 -1.14715e-22)
(1.09773 -0.0252746 1.68053e-22)
(1.11038 -0.0302986 7.76589e-22)
(1.12524 -0.0354877 -7.54871e-22)
(1.14128 -0.0404934 1.33155e-22)
(1.15347 -0.0431159 1.49367e-22)
(1.17129 -0.0381545 1.69538e-21)
(1.1928 -0.019165 -1.78963e-21)
(1.22765 0.0240278 1.50963e-21)
(1.08813 0.136823 9.49254e-22)
(0.0856862 0.262377 1.42073e-21)
(-0.251279 0.416643 1.00188e-21)
(-0.0743505 0.559319 1.0328e-22)
(0.213082 0.448355 -2.31194e-23)
(0.569202 0.0667171 1.23425e-21)
(1.45075 -0.100095 1.82386e-21)
(1.36764 -0.100568 -2.76777e-21)
(1.28003 -0.090564 -1.78976e-21)
(1.2258 -0.0699067 2.23863e-21)
(1.17054 -0.059135 8.17151e-22)
(1.14306 -0.041973 -1.56721e-22)
(1.12069 -0.0295677 -3.72766e-22)
(1.10194 -0.0199423 1.00565e-22)
(1.08569 -0.0132488 -2.60637e-23)
(1.07126 -0.00860664 -6.05082e-23)
(1.05872 -0.00535553 1.08037e-23)
(1.05045 -0.00308965 0)
(1.04539 -0.00165617 0)
(1.0417 -0.000805607 0)
(1.03902 -0.00035808 0)
(1.03726 -0.000191051 0)
(1.03642 -1.35045e-05 0)
(1.05357 -7.29678e-05 3.60904e-23)
(1.05483 -0.000964231 0)
(1.05714 -0.00179375 0)
(1.06088 -0.00261179 0)
(1.06611 -0.00343222 0)
(1.07264 -0.0043186 0)
(1.07915 -0.00549851 1.43745e-25)
(1.08499 -0.00722978 -4.88854e-23)
(1.09334 -0.00975932 1.82164e-22)
(1.10444 -0.0132313 -2.73812e-22)
(1.11763 -0.0175334 3.99399e-22)
(1.13255 -0.0231028 -8.85687e-22)
(1.14642 -0.0300211 7.98148e-22)
(1.15256 -0.0360048 -1.32577e-21)
(1.15587 -0.0387155 -6.20686e-22)
(1.14271 -0.030218 -3.14054e-22)
(1.10699 0.0145335 -3.05479e-21)
(0.73085 0.175266 4.11621e-21)
(-0.18735 0.413536 2.64252e-21)
(-0.357486 0.440462 3.97951e-21)
(0.119032 0.258962 -4.1612e-21)
(0.625174 0.0424722 -1.51771e-21)
(1.15995 -0.227748 -4.49199e-22)
(1.4279 -0.291387 -4.21005e-21)
(1.31631 -0.22383 1.77926e-21)
(1.231 -0.172912 5.48588e-23)
(1.18645 -0.125477 -3.24014e-21)
(1.13723 -0.0921927 1.17719e-21)
(1.11797 -0.0664246 -4.52235e-22)
(1.10207 -0.047396 -7.64267e-22)
(1.0884 -0.0326714 6.07821e-22)
(1.07606 -0.0221473 -3.76804e-22)
(1.06456 -0.0145777 3.79572e-23)
(1.05431 -0.00959036 6.31305e-25)
(1.04765 -0.00640031 0)
(1.04362 -0.00423883 0)
(1.04061 -0.00272012 0)
(1.03841 -0.00165971 0)
(1.03696 -0.000840768 0)
(1.03641 -0.000248712 4.6377e-23)
(1.05337 0.000315646 1.91097e-22)
(1.0549 0.000892565 0)
(1.05747 0.00144367 0)
(1.06127 0.00192597 0)
(1.06653 0.0024988 0)
(1.07321 0.0032441 0)
(1.08044 0.00379811 0)
(1.08752 0.00344074 -8.81301e-24)
(1.0968 0.00211373 -3.1868e-23)
(1.10894 -0.000118628 5.74993e-23)
(1.12355 -0.00366662 -3.57268e-23)
(1.14048 -0.00978029 1.51825e-22)
(1.15773 -0.0180003 -1.88167e-22)
(1.17404 -0.0367149 2.17671e-23)
(1.16754 -0.0513039 7.46884e-22)
(1.15277 -0.0851571 -8.14223e-22)
(1.05886 -0.10608 6.99859e-22)
(0.426135 -0.0179242 -7.25068e-20)
(-0.240401 -0.000236311 5.70029e-22)
(-0.0578507 -0.226564 -1.20283e-20)
(0.422886 -0.444529 -7.29215e-23)
(0.853185 -0.598191 3.31497e-21)
(1.27972 -0.630438 4.90058e-21)
(1.26914 -0.451481 1.17331e-20)
(1.17671 -0.313375 2.23221e-21)
(1.14506 -0.228366 -3.65007e-21)
(1.10007 -0.153507 -7.34295e-22)
(1.09054 -0.10774 8.03507e-23)
(1.08312 -0.0775706 -5.10352e-23)
(1.07604 -0.0551503 -5.66365e-23)
(1.06945 -0.0379378 -1.33764e-22)
(1.06262 -0.0254787 9.6254e-23)
(1.05527 -0.0166049 4.43348e-23)
(1.04841 -0.010749 0)
(1.04389 -0.00725871 0)
(1.04103 -0.00498857 0)
(1.03884 -0.00332036 0)
(1.03723 -0.00212306 0)
(1.03622 -0.00112683 0)
(1.03577 -0.000403792 -2.9474e-23)
(1.05213 0.000642679 4.26482e-24)
(1.05346 0.00229698 0)
(1.05594 0.00418003 0)
(1.05962 0.00611299 0)
(1.06465 0.00820454 0)
(1.07117 0.0106164 0)
(1.07893 0.0131291 0)
(1.0875 0.0147746 0)
(1.09804 0.0153648 2.97523e-24)
(1.11132 0.0151508 1.57013e-23)
(1.12796 0.0140971 6.26887e-24)
(1.14859 0.0104436 -1.2593e-22)
(1.17349 0.00490387 -3.73194e-22)
(1.20272 -0.00808083 4.68061e-22)
(1.21335 -0.0425306 2.95324e-22)
(1.24026 -0.0977934 1.65099e-21)
(1.13514 -0.189632 -1.05952e-21)
(0.440556 -0.285262 4.10764e-21)
(0.111297 -0.539328 1.55612e-21)
(0.239204 -0.775521 -3.01466e-21)
(0.569735 -0.864584 1.01393e-20)
(0.865081 -0.833387 -1.03102e-20)
(0.991531 -0.680916 5.34048e-21)
(1.02386 -0.482711 1.58313e-20)
(1.02418 -0.32103 9.80839e-22)
(1.03902 -0.227802 -7.65015e-23)
(1.0301 -0.145357 -3.62912e-22)
(1.03934 -0.100171 7.89733e-22)
(1.04439 -0.0723462 -2.18782e-22)
(1.04719 -0.0508755 -1.31066e-22)
(1.0482 -0.0347272 3.37703e-23)
(1.04719 -0.0229723 -2.5908e-23)
(1.04477 -0.0145236 0)
(1.04211 -0.00905123 0)
(1.04006 -0.00609148 0)
(1.03847 -0.00422419 0)
(1.03709 -0.00285377 5.54981e-24)
(1.03597 -0.00186966 7.67502e-24)
(1.03517 -0.00108662 4.57669e-24)
(1.03472 -0.000295265 0)
(1.04954 0.00114425 0)
(1.05065 0.00364951 0)
(1.05277 0.00642335 0)
(1.05603 0.00951279 0)
(1.06054 0.0129995 0)
(1.06654 0.0170509 0)
(1.07436 0.021679 0)
(1.084 0.0260863 0)
(1.09573 0.0299345 6.62045e-27)
(1.10993 0.0335301 -2.41749e-24)
(1.12796 0.0375534 -1.97461e-23)
(1.15145 0.0408944 -2.65506e-22)
(1.18208 0.0446708 -1.57728e-22)
(1.22249 0.0491115 -1.35445e-21)
(1.26208 0.0203865 1.28626e-21)
(1.33793 -0.00983891 -7.91287e-22)
(1.30298 -0.10302 -1.60595e-21)
(0.817252 -0.332686 -2.245e-21)
(0.448697 -0.624912 -1.28938e-21)
(0.388091 -0.80086 -1.12799e-20)
(0.5069 -0.814766 2.2417e-21)
(0.669761 -0.688001 -1.10315e-21)
(0.778182 -0.523107 1.13607e-21)
(0.817793 -0.392919 2.12448e-21)
(0.878449 -0.257159 -1.38708e-21)
(0.941168 -0.1781 -1.77127e-22)
(0.968468 -0.100686 1.57597e-22)
(0.992808 -0.0691233 1.07645e-22)
(1.01093 -0.0490509 2.81071e-23)
(1.02252 -0.0337988 -2.12332e-24)
(1.02967 -0.0225345 -1.68653e-24)
(1.03351 -0.0142872 1.91064e-27)
(1.03559 -0.00841856 0)
(1.03667 -0.00496278 0)
(1.03692 -0.00331772 0)
(1.03637 -0.00231577 0)
(1.03554 -0.00158236 0)
(1.03474 -0.00102465 0)
(1.03414 -0.000617488 0)
(1.03389 -0.000195066 -8.24268e-25)
(1.04571 0.00154055 0)
(1.04654 0.00474961 0)
(1.04822 0.0082109 0)
(1.05084 0.0120973 0)
(1.05449 0.0166294 0)
(1.05946 0.0220323 0)
(1.06649 0.0284995 0)
(1.07598 0.0356438 0)
(1.08761 0.0433571 0)
(1.1013 0.0520319 0)
(1.11825 0.0629421 3.47246e-25)
(1.14034 0.0759242 1.57077e-23)
(1.16919 0.0931937 5.68467e-25)
(1.21003 0.116702 -7.06992e-23)
(1.2635 0.116374 1.96936e-21)
(1.35629 0.14086 1.32257e-22)
(1.43517 0.125428 1.86695e-21)
(1.19481 0.00542607 3.01974e-21)
(0.833305 -0.267173 -9.53802e-22)
(0.586676 -0.517568 8.17811e-21)
(0.468981 -0.631602 -1.30356e-21)
(0.454542 -0.580043 -7.97527e-21)
(0.527741 -0.417372 -2.30093e-21)
(0.643353 -0.242844 5.51093e-22)
(0.789735 -0.134062 -3.40275e-21)
(0.871936 -0.0897046 1.11955e-22)
(0.925003 -0.025481 1.22437e-22)
(0.964197 -0.0178214 -1.25542e-22)
(0.991885 -0.0107159 1.02211e-23)
(1.00898 -0.0069186 1.44664e-23)
(1.01966 -0.00380937 0)
(1.02636 -0.00153277 0)
(1.03094 3.54622e-06 0)
(1.03417 0.000492114 0)
(1.03566 0.000352857 0)
(1.03552 0.000200435 0)
(1.03484 0.000111794 0)
(1.03414 8.22963e-05 0)
(1.03363 3.60087e-05 0)
(1.03334 -2.90929e-05 0)
(1.04105 0.00167671 0)
(1.04157 0.00527055 0)
(1.04269 0.00918028 0)
(1.04447 0.0136051 0)
(1.04696 0.0188168 0)
(1.05044 0.025066 0)
(1.0559 0.0326466 0)
(1.06391 0.0415639 0)
(1.07361 0.052209 0)
(1.08438 0.0651564 0)
(1.09685 0.0819949 0)
(1.11252 0.103246 -1.1303e-24)
(1.13186 0.131708 -2.76978e-23)
(1.15983 0.168889 -1.26293e-23)
(1.20577 0.199291 6.8496e-22)
(1.26463 0.266272 6.99291e-22)
(1.37792 0.344415 -1.05676e-21)
(1.35133 0.400242 6.46487e-22)
(1.12985 0.346601 -4.21847e-22)
(0.848403 0.213941 -8.98681e-21)
(0.591686 0.0734703 -7.2474e-21)
(0.417591 -0.0285973 5.57463e-21)
(0.390341 -0.0769856 1.66221e-21)
(0.499931 -0.0726602 -5.56607e-23)
(0.722737 0.00225491 -5.28345e-22)
(0.841151 0.0341238 -2.08207e-22)
(0.920267 0.0638974 1.76255e-23)
(0.965831 0.0430738 -4.11943e-23)
(0.994941 0.0326858 8.79641e-24)
(1.01131 0.0222097 0)
(1.02115 0.0156201 0)
(1.0274 0.0111328 0)
(1.03195 0.0080399 0)
(1.03536 0.00557615 0)
(1.03674 0.00367266 0)
(1.03629 0.002337 0)
(1.03533 0.00142975 0)
(1.03448 0.000812101 0)
(1.03387 0.000392203 0)
(1.03346 7.63373e-05 0)
(1.03616 0.00169528 0)
(1.03626 0.00535672 0)
(1.03669 0.00933844 0)
(1.03749 0.0138708 0)
(1.03865 0.0191871 0)
(1.04042 0.0255397 0)
(1.04387 0.0333267 0)
(1.04945 0.0428086 0)
(1.05569 0.0547311 0)
(1.06154 0.0698051 0)
(1.06724 0.0895874 3.16381e-24)
(1.07321 0.115007 0)
(1.08019 0.148492 0)
(1.09029 0.191451 -4.74032e-22)
(1.09905 0.252527 1.26125e-21)
(1.12719 0.314118 1.08456e-21)
(1.1715 0.430839 6.37384e-22)
(1.17828 0.593593 -2.53161e-23)
(1.09345 0.714807 1.54725e-21)
(0.937084 0.748947 4.3355e-21)
(0.766529 0.69544 -7.43153e-21)
(0.641433 0.560192 3.49448e-21)
(0.599607 0.379416 -1.37476e-22)
(0.625773 0.215062 -3.40205e-23)
(0.682662 0.141697 -1.07832e-22)
(0.848912 0.191676 7.95373e-21)
(0.956298 0.138041 3.35079e-21)
(1.00307 0.0955529 0)
(1.0225 0.0676402 0)
(1.03011 0.044604 -4.31945e-23)
(1.03385 0.0300037 0)
(1.03594 0.0201203 0)
(1.03787 0.0133972 0)
(1.03966 0.00867273 0)
(1.03978 0.00546479 0)
(1.03835 0.00332819 0)
(1.03672 0.00191959 0)
(1.03542 0.000992263 -9.134e-25)
(1.03448 0.000427516 -6.55283e-25)
(1.03383 7.49807e-05 0)
(1.03122 0.0017266 0)
(1.03097 0.00506362 0)
(1.03082 0.00865208 0)
(1.03077 0.0126524 0)
(1.03073 0.0173059 0)
(1.03082 0.0228674 0)
(1.03199 0.0298632 0)
(1.03451 0.0388315 0)
(1.03651 0.0505161 0)
(1.03675 0.065556 0)
(1.03515 0.0851835 8.56635e-23)
(1.03126 0.110749 0)
(1.02555 0.143537 0)
(1.01851 0.186575 1.11443e-22)
(1.00986 0.242291 -3.16053e-21)
(0.990326 0.304656 1.29287e-22)
(0.972136 0.373198 0)
(0.955853 0.457403 3.76e-22)
(0.91669 0.543169 -8.66877e-21)
(0.860962 0.608882 -1.23971e-20)
(0.804197 0.631741 1.42083e-21)
(0.788673 0.60679 -5.94436e-21)
(0.802599 0.566889 5.2063e-22)
(0.812839 0.492513 0)
(0.801971 0.380178 7.95724e-22)
(0.934976 0.279344 4.95568e-23)
(1.039 0.179221 -5.39349e-21)
(1.07121 0.122617 0)
(1.06844 0.0822053 0)
(1.0609 0.0529643 -1.63512e-22)
(1.05446 0.034855 0)
(1.04971 0.0224631 0)
(1.04715 0.014054 0)
(1.04591 0.0083969 0)
(1.04384 0.00488003 0)
(1.04096 0.0027144 1.65247e-24)
(1.03838 0.0013956 -2.14735e-24)
(1.03643 0.000635879 0)
(1.03506 0.000255096 0)
(1.03416 7.31371e-05 -5.04621e-24)
(1.02673 0.00142409 0)
(1.02645 0.00404213 0)
(1.02605 0.00676068 0)
(1.02545 0.00968791 0)
(1.02445 0.0130683 0)
(1.02306 0.017094 0)
(1.02188 0.02232 -8.12532e-25)
(1.02103 0.0295821 0)
(1.01878 0.0395098 0)
(1.01382 0.0524929 0)
(1.00565 0.0694162 0)
(0.993379 0.091822 0)
(0.975916 0.120381 0)
(0.955259 0.158107 3.55113e-22)
(0.937778 0.207137 4.49734e-23)
(0.911982 0.265797 1.13375e-22)
(0.877422 0.33189 0)
(0.837092 0.413902 0)
(0.798453 0.501002 -2.40449e-21)
(0.7761 0.587465 -2.06357e-20)
(0.776085 0.618357 -2.24602e-20)
(0.80477 0.612911 7.83e-22)
(0.851063 0.574372 0)
(0.918637 0.5019 0)
(0.975304 0.379481 0)
(1.09169 0.250523 5.35136e-23)
(1.156 0.15029 -2.38136e-22)
(1.14709 0.101605 5.70533e-23)
(1.11702 0.0660398 0)
(1.09349 0.0421994 0)
(1.0763 0.0268367 0)
(1.06447 0.0160732 0)
(1.057 0.00878227 7.25154e-24)
(1.05209 0.0041753 2.97169e-24)
(1.04745 0.00171588 1.4971e-25)
(1.04303 0.000427528 0)
(1.0395 -0.000175129 0)
(1.03695 -0.000347034 0)
(1.03525 -0.000244007 0)
(1.0343 -6.61968e-05 0)
(1.02373 0.000654929 0)
(1.02351 0.00222771 0)
(1.02304 0.00372974 0)
(1.02212 0.00531321 0)
(1.02053 0.00705851 0)
(1.01811 0.00905427 0)
(1.01495 0.011701 0)
(1.01104 0.0158899 0)
(1.00512 0.0221994 8.83482e-24)
(0.995828 0.0307854 0)
(0.981917 0.0422697 0)
(0.962162 0.0579399 0)
(0.936032 0.0793688 7.84927e-22)
(0.901965 0.10736 1.08444e-21)
(0.858048 0.151687 0)
(0.812663 0.215835 0)
(0.763623 0.290662 0)
(0.718195 0.364416 0)
(0.697653 0.4281 1.9112e-21)
(0.720682 0.485421 7.48676e-21)
(0.780634 0.485525 -4.54116e-20)
(0.858558 0.479027 2.07891e-20)
(0.951395 0.403909 0)
(1.05789 0.32043 0)
(1.15292 0.204498 0)
(1.24373 0.113026 0)
(1.24517 0.0557812 -1.07197e-21)
(1.19705 0.0373887 -2.20074e-22)
(1.1491 0.0226216 0)
(1.11536 0.0134815 -2.07816e-25)
(1.09128 0.00646946 -1.37124e-23)
(1.07478 0.00149437 -8.93924e-24)
(1.06363 -0.00176472 0)
(1.05567 -0.00328745 0)
(1.04904 -0.00345257 0)
(1.04356 -0.00311812 0)
(1.03943 -0.00253791 0)
(1.03652 -0.00186009 0)
(1.03467 -0.00110838 0)
(1.03374 -0.000378493 0)
(1.02281 -8.16702e-06 0)
(1.02242 0.000305936 0)
(1.02189 0.000468138 0)
(1.02094 0.000568906 0)
(1.01932 0.000464579 0)
(1.01664 0.000123953 0)
(1.01252 -0.000328328 0)
(1.00677 -0.000324782 0)
(0.998585 0.000471555 0)
(0.986603 0.00190715 0)
(0.968808 0.00420589 -5.71072e-23)
(0.943021 0.00764576 1.21414e-22)
(0.907374 0.0156428 -3.87641e-21)
(0.85686 0.0296166 -9.66231e-21)
(0.788473 0.058275 0)
(0.726611 0.0924976 0)
(0.682628 0.122458 0)
(0.652427 0.140295 0)
(0.653836 0.147166 -1.71595e-20)
(0.716017 0.150825 2.27093e-20)
(0.829268 0.121116 -2.6613e-20)
(0.950769 0.121428 1.15159e-19)
(1.07737 0.0478319 0)
(1.19346 0.00561439 0)
(1.26691 -0.0540225 0)
(1.30785 -0.0695519 0)
(1.26252 -0.0628171 1.20666e-21)
(1.19989 -0.0422981 1.18671e-21)